Generic title
12227
    1ILE      N    1   2.037   2.347   0.870 -0.1887  0.4044  0.4767
    1ILE     H1    2   1.961   2.295   0.827  1.0046  0.0958 -1.3936
    1ILE     H2    3   2.100   2.281   0.913 -0.9189 -0.7510 -0.1656
    1ILE     H3    4   2.086   2.398   0.799 -1.4784  1.7041  0.4789
    1ILE     CA    5   1.977   2.451   0.967 -0.7939  0.6222  0.4623
    1ILE     HA    6   1.915   2.517   0.906  0.0739 -1.4230 -2.9040
    1ILE     CB    7   1.885   2.403   1.076  0.4475 -0.4225 -0.2122
    1ILE     HB    8   1.840   2.483   1.135  0.1763 -0.9297  0.2697
    1ILE    CG2    9   1.768   2.336   1.012  0.6544  0.0352 -0.1030
    1ILE   HG21   10   1.695   2.316   1.090  0.8336 -0.3558 -0.0330
    1ILE   HG22   11   1.722   2.393   0.931 -0.8012 -0.8558  0.0666
    1ILE   HG23   12   1.799   2.236   0.981 -0.9302 -1.2393  2.1064
    1ILE    CG1   13   1.965   2.309   1.170  0.7058 -0.5411  0.1502
    1ILE   HG12   14   2.058   2.357   1.202  0.2876  1.2616 -1.1870
    1ILE   HG13   15   1.996   2.215   1.125 -0.8532 -0.7754 -0.4997
    1ILE    CD1   16   1.899   2.274   1.304  0.1070 -0.4390 -0.0017
    1ILE   HD11   17   1.808   2.216   1.290  0.3956 -1.6760  2.6680
    1ILE   HD12   18   1.968   2.205   1.353  2.7363  1.6149 -0.5958
    1ILE   HD13   19   1.880   2.365   1.361 -1.0869 -0.5903 -0.1390
    1ILE      C   20   2.085   2.552   1.013  0.8321  0.4264  0.2201
    1ILE      O   21   2.199   2.517   1.020 -0.0044  0.1208 -0.1668
    2LEU      N   22   2.047   2.676   1.035 -0.2017  0.6269  0.2653
    2LEU      H   23   1.948   2.696   1.035 -0.1865  1.4534  4.1276
    2LEU     CA   24   2.135   2.785   1.085 -0.3094  0.1828  0.3096
    2LEU     HA   25   2.228   2.774   1.030  0.5034  0.4057  1.6004
    2LEU     CB   26   2.065   2.913   1.056  0.0177 -0.0863 -0.2609
    2LEU    HB2   27   1.969   2.907   1.107  0.2623 -0.6233  0.1458
    2LEU    HB3   28   2.113   2.997   1.108  1.5397 -0.2154 -1.3738
    2LEU     CG   29   2.039   2.956   0.913  0.2189  0.3930 -0.0637
    2LEU     HG   30   1.987   2.878   0.856 -1.5069  2.0793 -0.9035
    2LEU    CD1   31   1.938   3.069   0.927  0.6090 -0.0772  0.3971
    2LEU   HD11   32   1.855   3.034   0.989 -0.6071  1.2851 -0.3955
    2LEU   HD12   33   1.985   3.159   0.965  1.6289 -0.2906 -0.3230
    2LEU   HD13   34   1.906   3.094   0.826  0.1926  0.4108  0.6454
    2LEU    CD2   35   2.166   2.993   0.837 -0.3247 -0.0493  0.2164
    2LEU   HD21   36   2.219   3.078   0.880  0.6760 -0.6370  0.1639
    2LEU   HD22   37   2.238   2.912   0.829 -0.0626  0.3871 -2.7324
    2LEU   HD23   38   2.132   3.026   0.739 -1.9339  0.2033  0.8137
    2LEU      C   39   2.175   2.782   1.236 -0.4517  0.0109  0.7649
    2LEU      O   40   2.134   2.708   1.319  0.4992  0.3251  0.3545
    3ARG      N   41   2.270   2.875   1.270  0.3572 -0.3205  0.5325
    3ARG      H   42   2.306   2.939   1.201 -1.3422  0.3079  0.1824
    3ARG     CA   43   2.326   2.895   1.404  0.1157 -0.7245  0.2975
    3ARG     HA   44   2.274   2.835   1.479 -1.9116  0.5150 -0.0397
    3ARG     CB   45   2.467   2.843   1.399  0.2871 -0.2116 -0.0633
    3ARG    HB2   46   2.517   2.886   1.313 -0.8296  2.2626  0.4641
    3ARG    HB3   47   2.522   2.871   1.489  1.0631 -0.3892 -0.4683
    3ARG     CG   48   2.476   2.689   1.392 -0.4964 -0.2941 -0.2752
    3ARG    HG2   49   2.433   2.655   1.486 -1.1985  0.1393 -0.4315
    3ARG    HG3   50   2.426   2.660   1.299  0.3846  1.2831 -1.2818
    3ARG     CD   51   2.623   2.631   1.383 -0.4615  0.3170  0.3147
    3ARG    HD2   52   2.672   2.666   1.292  1.1708 -1.1496  0.5589
    3ARG    HD3   53   2.673   2.684   1.464  1.8550  1.8393 -1.9413
    3ARG     NE   54   2.633   2.484   1.387 -0.2078  0.0932  0.0241
    3ARG     HE   55   2.667   2.438   1.304  0.3730 -0.2087  0.4217
    3ARG     CZ   56   2.631   2.408   1.495  0.5559 -0.2544  0.2867
    3ARG    NH1   57   2.619   2.442   1.620 -0.3765  0.1398 -0.2278
    3ARG   HH11   58   2.625   2.540   1.645  0.4390  0.2935 -0.9542
    3ARG   HH12   59   2.619   2.375   1.696 -2.0355 -0.4972 -0.7498
    3ARG    NH2   60   2.639   2.282   1.481  0.0384  0.6439  0.5886
    3ARG   HH21   61   2.640   2.238   1.390 -1.3829  0.3928  0.6771
    3ARG   HH22   62   2.632   2.222   1.562  2.4161  0.8172  0.9980
    3ARG      C   63   2.309   3.045   1.437  0.0961 -0.2545 -0.4102
    3ARG      O   64   2.318   3.132   1.353 -0.0265 -0.2280  0.8094
    4TRP      N   65   2.291   3.075   1.567 -0.2441  0.4702  0.2592
    4TRP      H   66   2.296   2.996   1.629 -0.0586 -0.5484 -1.0071
    4TRP     CA   67   2.256   3.213   1.620  0.4184  0.3569 -0.1092
    4TRP     HA   68   2.287   3.277   1.537 -1.6045  2.0264  0.3412
    4TRP     CB   69   2.102   3.228   1.624 -0.0708  0.1374  0.6027
    4TRP    HB2   70   2.059   3.152   1.689  2.3164 -1.9237 -0.0625
    4TRP    HB3   71   2.085   3.331   1.656  0.5384  0.7353 -0.8913
    4TRP     CG   72   2.026   3.229   1.492  0.1175 -0.2688 -0.2402
    4TRP    CD1   73   2.019   3.330   1.406  0.2006  0.0489  0.4464
    4TRP    HD1   74   2.075   3.422   1.415  0.4336 -0.2746  3.3977
    4TRP    NE1   75   1.930   3.299   1.306 -0.1998 -0.0477 -0.0352
    4TRP    HE1   76   1.910   3.354   1.224  0.6156 -2.0395 -1.6705
    4TRP    CE2   77   1.866   3.181   1.329 -0.6815  0.2456  0.0090
    4TRP    CZ2   78   1.764   3.112   1.261  0.0241  0.5348  0.1937
    4TRP    HZ2   79   1.711   3.161   1.180  0.4644  0.8786  0.1110
    4TRP    CH2   80   1.735   2.977   1.295 -0.6874  0.2305 -0.2192
    4TRP    HH2   81   1.660   2.915   1.250 -0.4484  0.9157 -1.6308
    4TRP    CZ3   82   1.802   2.922   1.407 -0.6168 -0.3667 -0.1160
    4TRP    HZ3   83   1.762   2.835   1.459  0.4864  0.8180  2.9693
    4TRP    CE3   84   1.890   3.002   1.487 -0.1026  1.1929 -0.0129
    4TRP    HE3   85   1.948   2.947   1.561 -0.8192  0.3995 -0.0225
    4TRP    CD2   86   1.927   3.131   1.441  0.1896  0.9747 -0.6875
    4TRP      C   87   2.325   3.249   1.756 -0.1449  0.8833 -0.2826
    4TRP      O   88   2.348   3.168   1.844 -0.0222 -0.6046 -0.1713
    5PRO      N   89   2.377   3.368   1.769 -0.0160 -0.0012  0.2085
    5PRO     CD   90   2.397   3.472   1.667 -0.1903  0.4046  0.3538
    5PRO    HD2   91   2.304   3.505   1.621  0.3456  0.0641 -1.0383
    5PRO    HD3   92   2.469   3.428   1.598 -0.9830  0.0409 -0.2625
    5PRO     CG   93   2.461   3.588   1.738  0.2076 -0.9174 -0.4910
    5PRO    HG2   94   2.379   3.644   1.784  0.4800  0.6789 -1.8526
    5PRO    HG3   95   2.516   3.656   1.673  1.7824 -1.1116  0.5704
    5PRO     CB   96   2.546   3.521   1.843  0.1096 -0.3135  0.4128
    5PRO    HB2   97   2.577   3.579   1.929  1.1091  0.4753 -0.4438
    5PRO    HB3   98   2.638   3.485   1.796  1.1085  1.4507  0.9519
    5PRO     CA   99   2.453   3.407   1.884  0.3241 -0.3107 -0.2024
    5PRO     HA  100   2.521   3.331   1.921  2.4199  0.3114 -2.5161
    5PRO      C  101   2.365   3.447   2.001  0.2550  0.0600  0.2657
    5PRO      O  102   2.302   3.553   2.001  0.0417  0.4531  0.9079
    6TRP      N  103   2.365   3.367   2.107 -0.2735  0.1491 -0.1889
    6TRP      H  104   2.416   3.280   2.103  1.8131  1.2873  0.1712
    6TRP     CA  105   2.297   3.389   2.237  0.0872 -0.2177  0.1326
    6TRP     HA  106   2.210   3.452   2.220 -0.9719 -1.3068  1.3168
    6TRP     CB  107   2.239   3.255   2.294 -0.1337 -0.4318  0.2659
    6TRP    HB2  108   2.165   3.282   2.369 -0.1873  1.1469 -0.3175
    6TRP    HB3  109   2.174   3.206   2.222  0.4867  0.8067 -1.1989
    6TRP     CG  110   2.340   3.164   2.345 -0.3420 -0.3736 -0.0823
    6TRP    CD1  111   2.411   3.075   2.272 -0.3530  0.0912 -0.2676
    6TRP    HD1  112   2.394   3.049   2.168 -4.1601 -1.1640  0.4988
    6TRP    NE1  113   2.517   3.025   2.348  0.2474 -0.2608 -0.5119
    6TRP    HE1  114   2.591   2.969   2.308 -1.2019 -0.1846 -3.5715
    6TRP    CE2  115   2.527   3.091   2.464  0.4365 -0.3273 -0.6614
    6TRP    CZ2  116   2.619   3.087   2.572  0.3814  0.4896  0.8035
    6TRP    HZ2  117   2.697   3.012   2.572  1.3464  1.4660  1.0631
    6TRP    CH2  118   2.596   3.165   2.689  0.7672 -0.0654  0.3000
    6TRP    HH2  119   2.670   3.153   2.767  0.4177 -0.1761  0.6155
    6TRP    CZ3  120   2.480   3.239   2.703 -0.3941  0.3866  0.5844
    6TRP    HZ3  121   2.456   3.281   2.800 -4.2887 -0.1009  0.0022
    6TRP    CE3  122   2.389   3.249   2.596 -0.6086 -0.6602  0.1028
    6TRP    HE3  123   2.306   3.318   2.606  1.7028  2.2760  0.6376
    6TRP    CD2  124   2.416   3.177   2.473 -0.1914 -0.4223 -0.0980
    6TRP      C  125   2.382   3.456   2.344 -0.4440 -0.4944 -0.1283
    6TRP      O  126   2.324   3.524   2.431  0.0249 -0.6499 -0.5032
    7TRP      N  127   2.518   3.458   2.340 -0.0869 -0.3386  0.3373
    7TRP      H  128   2.561   3.407   2.264  0.5197  4.8626 -3.2768
    7TRP     CA  129   2.601   3.552   2.419 -0.4705  0.3408 -0.0644
    7TRP     HA  130   2.567   3.561   2.522 -2.6634  1.6289 -0.8331
    7TRP     CB  131   2.741   3.488   2.417 -0.1128 -0.4568 -0.6641
    7TRP    HB2  132   2.810   3.533   2.489  0.2943 -2.6607  0.4061
    7TRP    HB3  133   2.727   3.385   2.447  0.9960 -1.3722 -2.9826
    7TRP     CG  134   2.797   3.480   2.280 -0.4244 -0.3773  0.4358
    7TRP    CD1  135   2.877   3.579   2.227  0.1050  0.8032  0.0776
    7TRP    HD1  136   2.898   3.673   2.276 -3.6052  0.6189  2.4061
    7TRP    NE1  137   2.912   3.546   2.100 -0.0678  0.5545  0.4029
    7TRP    HE1  138   2.953   3.612   2.035 -1.7876  1.6272  0.3599
    7TRP    CE2  139   2.856   3.427   2.061 -0.3156 -0.1838  0.0203
    7TRP    CZ2  140   2.864   3.355   1.935  0.4253 -0.7420  0.2907
    7TRP    HZ2  141   2.911   3.401   1.849 -0.0485 -0.4627  0.1725
    7TRP    CH2  142   2.798   3.234   1.927  0.6094 -0.6565  0.6673
    7TRP    HH2  143   2.802   3.176   1.835 -2.6333 -0.8366  0.5328
    7TRP    CZ3  144   2.735   3.181   2.043  0.4887 -0.0082 -0.2726
    7TRP    HZ3  145   2.693   3.082   2.054  0.2461  0.0677 -0.4949
    7TRP    CE3  146   2.731   3.252   2.162  0.1703 -0.5004  0.7836
    7TRP    HE3  147   2.668   3.211   2.240 -1.2767  2.3755  1.2457
    7TRP    CD2  148   2.786   3.382   2.175  0.5452 -0.0209 -0.5092
    7TRP      C  149   2.595   3.698   2.366 -0.1489 -0.5567  0.2374
    7TRP      O  150   2.586   3.728   2.242 -0.2260 -0.1209 -0.5913
    8PRO      N  151   2.604   3.795   2.464 -1.0761  0.2481 -0.0605
    8PRO     CD  152   2.629   3.780   2.605  0.3250  0.1229 -0.9306
    8PRO    HD2  153   2.736   3.761   2.615  0.6561  2.3075  0.4057
    8PRO    HD3  154   2.563   3.707   2.652 -1.1024  0.9474 -1.5728
    8PRO     CG  155   2.598   3.909   2.676  0.0700 -1.1991  0.3922
    8PRO    HG2  156   2.681   3.950   2.734 -1.3758 -0.7762  2.2931
    8PRO    HG3  157   2.514   3.896   2.745 -1.2065  1.1335 -0.6278
    8PRO     CB  158   2.559   4.011   2.563  0.3167 -0.1824 -0.3518
    8PRO    HB2  159   2.613   4.105   2.560 -0.3170  0.1999 -0.0502
    8PRO    HB3  160   2.451   4.026   2.566  0.1436 -1.1087 -1.3458
    8PRO     CA  161   2.598   3.939   2.429  0.1588 -0.1323 -0.1940
    8PRO     HA  162   2.516   3.950   2.359  0.0219  3.4700  0.3539
    8PRO      C  163   2.729   3.987   2.360  0.1831  0.0503 -0.5386
    8PRO      O  164   2.840   3.959   2.412  0.2028  0.5247 -0.4393
    9TRP      N  165   2.720   4.052   2.241  0.1369  0.6009 -0.1614
    9TRP      H  166   2.627   4.074   2.207 -0.0975 -0.3319 -0.1446
    9TRP     CA  167   2.840   4.108   2.176  0.3506  0.4029 -0.1614
    9TRP     HA  168   2.898   4.134   2.265  0.2702 -1.8927  0.6461
    9TRP     CB  169   2.924   3.999   2.099  0.3135 -0.1116  0.0122
    9TRP    HB2  170   3.019   4.041   2.069 -0.4091 -0.1111 -2.4811
    9TRP    HB3  171   2.961   3.930   2.175  4.9772  1.9399 -0.0907
    9TRP     CG  172   2.867   3.916   1.986  0.7232  0.2368  0.2058
    9TRP    CD1  173   2.786   3.807   1.995  0.1792 -1.1060 -0.3467
    9TRP    HD1  174   2.753   3.764   2.088 -0.7300 -0.6471 -0.4502
    9TRP    NE1  175   2.764   3.760   1.867  0.2154  0.1292 -0.0991
    9TRP    HE1  176   2.709   3.679   1.841  0.7716 -0.0046 -0.9126
    9TRP    CE2  177   2.812   3.845   1.770 -0.6237 -0.1774 -0.3799
    9TRP    CZ2  178   2.807   3.840   1.633  0.4294 -0.2947  0.2861
    9TRP    HZ2  179   2.759   3.755   1.586  0.0944 -0.8432  1.5701
    9TRP    CH2  180   2.881   3.932   1.559 -0.6354  0.6595  0.0010
    9TRP    HH2  181   2.895   3.916   1.453 -0.5831 -0.0910  0.1145
    9TRP    CZ3  182   2.944   4.040   1.625  0.6562  0.0027  0.0815
    9TRP    HZ3  183   2.985   4.118   1.562  1.7871 -1.1576 -0.6591
    9TRP    CE3  184   2.939   4.041   1.764 -0.0286 -0.2586 -0.2093
    9TRP    HE3  185   2.981   4.126   1.815 -0.7865 -0.9063  1.5674
    9TRP    CD2  186   2.883   3.940   1.844  0.3841 -0.1654  0.9604
    9TRP      C  187   2.817   4.229   2.085  0.6756 -0.6332 -0.0128
    9TRP      O  188   2.716   4.244   2.012 -0.0240  0.3017 -0.3309
   10ARG      N  189   2.913   4.328   2.087  0.1673 -0.3927  0.2206
   10ARG      H  190   2.996   4.326   2.146  1.4533  0.2354 -1.4825
   10ARG     CA  191   2.892   4.452   2.009  0.0825  0.0617  0.3421
   10ARG     HA  192   2.791   4.492   2.009  0.3115  0.6544  0.3010
   10ARG     CB  193   2.975   4.564   2.070  0.7876 -0.6272  0.7259
   10ARG    HB2  194   2.954   4.558   2.176 -0.6101 -2.6205  0.3884
   10ARG    HB3  195   3.081   4.550   2.046  1.0991  0.0889  1.6371
   10ARG     CG  196   2.945   4.705   2.017  0.0529 -0.5190 -0.2508
   10ARG    HG2  197   2.999   4.736   1.928  2.1884 -0.7045  0.9082
   10ARG    HG3  198   2.838   4.719   2.002  0.2688 -1.6932 -3.7473
   10ARG     CD  199   2.985   4.811   2.122  0.1652  0.3069 -0.4305
   10ARG    HD2  200   2.953   4.773   2.219  0.8442 -0.6607 -0.5742
   10ARG    HD3  201   3.091   4.829   2.135  0.4306 -0.4285 -1.4725
   10ARG     NE  202   2.910   4.937   2.099  0.0660 -0.2055  0.1551
   10ARG     HE  203   2.847   4.956   2.022 -1.9896 -0.7536  1.6036
   10ARG     CZ  204   2.926   5.042   2.174  0.4255  0.0392 -0.5631
   10ARG    NH1  205   3.018   5.053   2.270  0.0021 -0.1332  0.3052
   10ARG   HH11  206   3.069   4.970   2.294  0.0318 -0.4902 -0.9326
   10ARG   HH12  207   3.036   5.137   2.324 -0.1872 -1.3616  2.3476
   10ARG    NH2  208   2.853   5.155   2.163 -0.6088 -0.4153  0.1428
   10ARG   HH21  209   2.787   5.168   2.087  0.4005 -0.9922 -0.8706
   10ARG   HH22  210   2.872   5.234   2.223 -0.3542 -1.2773  1.2177
   10ARG      C  211   2.914   4.432   1.860  0.0992  0.0095 -0.0541
   10ARG      O  212   3.019   4.392   1.815 -0.0621 -0.8944  0.2717
   11ARG      N  213   2.813   4.475   1.784  0.6834  0.0101  0.1306
   11ARG      H  214   2.732   4.516   1.829  0.9243  0.1256  0.4534
   11ARG     CA  215   2.825   4.476   1.630  0.1973  0.0696  0.3888
   11ARG     HA  216   2.887   4.398   1.588  0.1701  0.2802 -0.0423
   11ARG     CB  217   2.680   4.464   1.567 -0.0802 -0.2767  0.3252
   11ARG    HB2  218   2.611   4.524   1.627  1.5795  2.0968 -0.0015
   11ARG    HB3  219   2.674   4.517   1.472  2.0819 -0.2517  0.1562
   11ARG     CG  220   2.636   4.319   1.558  0.2884  0.2215 -0.0583
   11ARG    HG2  221   2.534   4.312   1.521 -0.1363  0.2256  1.0489
   11ARG    HG3  222   2.705   4.266   1.493 -1.0676 -0.3623 -1.0747
   11ARG     CD  223   2.639   4.241   1.693 -0.3323 -0.0375  0.5491
   11ARG    HD2  224   2.744   4.216   1.707  0.3128  2.2359  0.1497
   11ARG    HD3  225   2.591   4.290   1.778  0.8545  2.6637 -0.2337
   11ARG     NE  226   2.584   4.103   1.676 -0.1335 -0.4755  0.6483
   11ARG     HE  227   2.580   4.071   1.581 -2.6373 -1.7875  1.1263
   11ARG     CZ  228   2.531   4.028   1.768  0.1625 -0.3711  0.0385
   11ARG    NH1  229   2.548   4.044   1.895 -0.2557  0.4968 -0.0382
   11ARG   HH11  230   2.619   4.107   1.929  0.2266 -0.6135  1.0686
   11ARG   HH12  231   2.504   3.977   1.957  0.7070 -0.0146  0.1002
   11ARG    NH2  232   2.459   3.926   1.740 -0.0014 -0.5089 -0.0486
   11ARG   HH21  233   2.445   3.908   1.642 -0.2066 -1.6927  0.1719
   11ARG   HH22  234   2.409   3.880   1.815  0.4700  2.1510  2.0405
   11ARG      C  235   2.882   4.611   1.582  0.0854 -0.1783  0.2547
   11ARG      O  236   2.862   4.710   1.653 -0.2042  0.0658  0.1869
   12LYS      N  237   2.940   4.628   1.466 -0.1794  0.4552  0.1174
   12LYS      H  238   2.926   4.550   1.403  2.7133 -0.3404  0.3038
   12LYS     CA  239   2.992   4.749   1.413  0.4390  0.0708 -0.4051
   12LYS     HA  240   3.035   4.815   1.488 -0.4841  2.2984 -1.7521
   12LYS     CB  241   3.099   4.733   1.308  0.7360  0.2907 -0.0166
   12LYS    HB2  242   3.072   4.645   1.249 -3.0881  0.3748  1.3218
   12LYS    HB3  243   3.101   4.815   1.236  1.2762  0.9415  0.7302
   12LYS     CG  244   3.232   4.703   1.387  0.3366  0.1493  0.7275
   12LYS    HG2  245   3.260   4.788   1.449  1.3820  0.3386  0.0255
   12LYS    HG3  246   3.214   4.619   1.455  3.1234 -1.0559  0.1324
   12LYS     CD  247   3.338   4.664   1.281  0.0287  0.0944 -0.2370
   12LYS    HD2  248   3.297   4.597   1.205  1.0086  0.1063 -0.7963
   12LYS    HD3  249   3.368   4.756   1.230 -2.6659 -0.1493 -2.5331
   12LYS     CE  250   3.458   4.595   1.349 -0.2435 -0.0154 -0.3995
   12LYS    HE2  251   3.428   4.510   1.410  0.2877 -0.3465 -0.5874
   12LYS    HE3  252   3.523   4.547   1.275 -0.0519  2.0798 -1.6906
   12LYS     NZ  253   3.522   4.702   1.425  0.2909 -0.0337  0.1438
   12LYS    HZ1  254   3.454   4.746   1.485  0.4182  0.1844  0.1302
   12LYS    HZ2  255   3.597   4.666   1.483 -0.8534  0.1108  1.7919
   12LYS    HZ3  256   3.551   4.764   1.351 -0.6840 -0.0574 -0.2739
   12LYS      C  257   2.874   4.840   1.368 -0.1976  0.3848  0.6380
   12LYS      O  258   2.808   4.801   1.269  0.0027 -0.1521 -0.0783
   13NHE      N  259   2.846   4.953   1.431  0.4806 -0.0732  0.0509
   13NHE    HN1  260   2.908   4.988   1.503 -0.9040 -0.9795  1.7489
   13NHE    HN2  261   2.762   5.008   1.423  0.4249 -0.0425  0.8117
   14Cl-    Cl-  262   3.783   0.170   2.982  0.4077  0.4435  0.2594
   15Cl-    Cl-  263   0.669   3.355   0.292  0.4382  0.3961  0.0862
   16Cl-    Cl-  264   3.279   4.293   0.959 -0.5956  0.5477  0.0514
   17Cl-    Cl-  265   1.330   2.998   3.097  0.1472 -0.6391 -0.1542
   18Cl-    Cl-  266   0.093   0.150   2.880  0.2755 -0.0291 -0.1318
   19WAT      O  267   2.704   2.748   4.122  1.1964  0.1449 -0.3526
   19WAT     H1  268   2.634   2.731   4.059  0.5758 -0.4420  0.4902
   19WAT     H2  269   2.708   2.844   4.127  1.2448  0.2032 -1.2623
   20WAT      O  270   3.766   3.906   1.285 -0.0386 -0.4515 -0.9553
   20WAT     H1  271   3.702   3.868   1.225  0.6033 -0.9610 -1.3372
   20WAT     H2  272   3.714   3.957   1.347 -0.6697  0.6264 -2.3213
   21WAT      O  273   4.026   1.061   4.505  0.0377 -0.2554 -0.4292
   21WAT     H1  274   3.966   1.074   4.431 -0.5777 -2.2110 -0.3373
   21WAT     H2  275   3.994   1.121   4.572 -2.8458 -2.1679  0.1356
   22WAT      O  276   0.110   3.405   4.942  0.2564 -0.4701 -0.3985
   22WAT     H1  277   0.159   3.402   5.024 -0.7315  0.4271  0.2432
   22WAT     H2  278   0.081   3.315   4.928  0.9051 -0.7383 -0.0765
   23WAT      O  279   2.936   0.278   0.131 -0.0933  0.6042 -0.0887
   23WAT     H1  280   3.009   0.216   0.139 -0.7429 -0.1710 -0.0779
   23WAT     H2  281   2.859   0.228   0.154 -0.4966  1.8046  1.3258
   24WAT      O  282   1.674   0.015   4.908  0.5003  0.0714 -0.3624
   24WAT     H1  283   1.653   0.019   5.002 -0.7612  0.4662 -0.6450
   24WAT     H2  284   1.739   0.083   4.896  0.8098 -0.1011  0.2591
   25WAT      O  285   4.279   4.972   1.879 -0.6866  0.0408 -0.3021
   25WAT     H1  286   4.350   4.950   1.819  0.2795  1.3254  0.3177
   25WAT     H2  287   4.207   4.915   1.853  0.1763 -0.4479 -1.7328
   26WAT      O  288   0.722   4.883   1.135 -0.2223 -0.4740 -0.6936
   26WAT     H1  289   0.631   4.872   1.105 -0.7251  2.5341 -0.5574
   26WAT     H2  290   0.714   4.926   1.219  1.3010  1.6795 -1.5729
   27WAT      O  291   2.779   1.934   4.673 -0.1494  0.1802  0.1940
   27WAT     H1  292   2.827   1.986   4.608  0.4413  1.5657  1.6864
   27WAT     H2  293   2.829   1.853   4.679  1.0241  0.8995  0.4461
   28WAT      O  294   4.447   2.061   1.374  0.4140 -0.1709  0.1052
   28WAT     H1  295   4.498   1.981   1.361  1.1897 -0.4010  3.4726
   28WAT     H2  296   4.369   2.031   1.422  0.0940  0.9198  0.3008
   29WAT      O  297   3.578   4.731   3.595 -0.2268 -0.5091 -0.0252
   29WAT     H1  298   3.614   4.662   3.651  1.1580  1.8035  2.1936
   29WAT     H2  299   3.651   4.758   3.540 -1.1066 -1.5446 -1.8121
   30WAT      O  300   2.614   3.201   1.247  0.0216 -0.1771  0.3275
   30WAT     H1  301   2.533   3.252   1.242  0.3034  0.2172 -0.5260
   30WAT     H2  302   2.683   3.264   1.227  0.7287 -0.1337  2.7014
   31WAT      O  303   2.053   3.530   2.783  0.6918  0.6993 -0.5051
   31WAT     H1  304   1.989   3.577   2.730 -1.9671  0.1225  1.9844
   31WAT     H2  305   2.053   3.441   2.747 -0.7025  0.4444  0.0607
   32WAT      O  306   2.927   1.099   4.245  0.3075 -0.1234 -0.3877
   32WAT     H1  307   2.858   1.133   4.301 -0.0527 -2.1184  0.4578
   32WAT     H2  308   3.007   1.111   4.296  0.3917  0.7436 -0.7075
   33WAT      O  309   3.457   2.222   3.590 -0.2742 -0.1268 -0.5036
   33WAT     H1  310   3.374   2.180   3.568 -0.5775 -0.1968  0.7230
   33WAT     H2  311   3.483   2.265   3.509 -1.4801 -0.1393 -0.9254
   34WAT      O  312   0.038   3.308   2.594  0.1709  0.0133  0.1357
   34WAT     H1  313   0.005   3.219   2.605  0.1262 -0.0233 -0.2758
   34WAT     H2  314   0.106   3.316   2.660 -0.3501 -0.0618  0.6910
   35WAT      O  315   3.199   2.259   1.534  0.3627  0.0542  0.4228
   35WAT     H1  316   3.271   2.233   1.592  0.4983 -0.7175 -0.0872
   35WAT     H2  317   3.230   2.340   1.494 -0.4011  1.5395  2.6287
   36WAT      O  318   3.437   1.414   3.307 -0.0909 -0.2308  0.6934
   36WAT     H1  319   3.491   1.423   3.386  0.8461 -0.7410  0.1286
   36WAT     H2  320   3.500   1.408   3.235 -0.9318  0.2781 -0.1071
   37WAT      O  321   4.137   1.035   4.197 -0.3368 -0.3235  0.3573
   37WAT     H1  322   4.127   0.945   4.165  0.9705 -0.6468  0.7882
   37WAT     H2  323   4.052   1.056   4.236 -0.7981 -1.2103 -0.1391
   38WAT      O  324   2.502   0.555   5.048  0.1768 -0.6826 -0.5175
   38WAT     H1  325   2.531   0.466   5.027  1.6109 -0.5426  0.7152
   38WAT     H2  326   2.488   0.553   5.143  0.3290  0.4456 -0.4639
   39WAT      O  327   2.894   4.824   3.127 -0.2552 -0.3310 -0.3527
   39WAT     H1  328   2.970   4.862   3.082 -0.9798 -0.6449 -1.8952
   39WAT     H2  329   2.930   4.788   3.208  0.7238  2.2926  0.4851
   40WAT      O  330   1.635   3.872   1.746  0.1129  0.0760  0.2922
   40WAT     H1  331   1.567   3.900   1.684  0.3716 -0.3895 -0.2059
   40WAT     H2  332   1.665   3.954   1.786  1.2856  0.6092 -1.5838
   41WAT      O  333   2.994   3.590   1.381 -0.5658  0.1829  0.5153
   41WAT     H1  334   2.923   3.553   1.329  1.7133 -2.8457 -0.7793
   41WAT     H2  335   3.037   3.652   1.323  0.9177 -1.9117 -0.7761
   42WAT      O  336   0.582   1.500   2.469 -0.3032  0.3944  0.3699
   42WAT     H1  337   0.544   1.488   2.383  3.0921  0.8649 -1.3762
   42WAT     H2  338   0.613   1.413   2.495 -1.9867  0.0943  1.5796
   43WAT      O  339   4.178   3.798   4.084 -0.6587  0.4099 -0.0018
   43WAT     H1  340   4.152   3.848   4.006 -0.9763  0.5915  0.2216
   43WAT     H2  341   4.237   3.731   4.050  0.2214  1.2758 -0.2360
   44WAT      O  342   1.371   0.682   4.976  0.2603  0.0607 -0.3601
   44WAT     H1  343   1.312   0.737   5.027 -2.1656 -0.2990 -2.5756
   44WAT     H2  344   1.437   0.742   4.941  1.6754  0.3835  2.5810
   45WAT      O  345   3.813   1.068   1.936 -0.2394 -0.3965 -0.4413
   45WAT     H1  346   3.906   1.058   1.916 -0.1513 -0.3974 -0.0304
   45WAT     H2  347   3.786   1.147   1.888  0.0585 -0.1877 -0.2634
   46WAT      O  348   2.750   4.427   5.246 -0.4568 -0.1476  0.0991
   46WAT     H1  349   2.730   4.492   5.179  0.7451 -0.0596 -0.1946
   46WAT     H2  350   2.833   4.456   5.284  0.0866 -1.4637 -0.0201
   47WAT      O  351   1.815   0.066   1.924 -0.1115  0.0626 -0.2981
   47WAT     H1  352   1.851   0.050   1.837 -0.3900  0.6820 -0.5287
   47WAT     H2  353   1.815  -0.020   1.966 -0.3031 -0.3005 -1.0321
   48WAT      O  354   0.472   3.286   2.163  0.2462 -0.4730 -0.2339
   48WAT     H1  355   0.412   3.211   2.158 -1.7137  0.9567  0.6752
   48WAT     H2  356   0.555   3.252   2.127 -0.4518 -3.1451  0.4413
   49WAT      O  357   4.389   3.230   3.912 -0.3627  0.0521  0.1567
   49WAT     H1  358   4.350   3.150   3.944  0.5948 -0.3175  0.4364
   49WAT     H2  359   4.467   3.202   3.864  1.2584  0.9035  2.1434
   50WAT      O  360   2.021   3.675   1.354 -0.0816 -0.4645 -0.3375
   50WAT     H1  361   1.955   3.607   1.370 -0.9599  0.5276  0.4066
   50WAT     H2  362   2.068   3.683   1.437 -2.1235  2.0427  0.7008
   51WAT      O  363   1.041   2.447   4.483 -0.3530 -0.0038 -0.2543
   51WAT     H1  364   0.948   2.425   4.472 -0.8920  1.1072  1.5386
   51WAT     H2  365   1.040   2.537   4.515  1.4965  0.9013 -2.4926
   52WAT      O  366   3.993   4.047   1.303  0.2464  0.3005  0.4883
   52WAT     H1  367   3.917   3.990   1.295 -0.5705  1.2616  1.1714
   52WAT     H2  368   4.052   4.019   1.233 -0.3171 -1.0739  0.5282
   53WAT      O  369   2.571   1.312   1.922  0.0743  0.2948 -0.1043
   53WAT     H1  370   2.544   1.279   2.007  1.9323  0.3562  0.5608
   53WAT     H2  371   2.496   1.363   1.891 -1.0683 -0.6873  0.9457
   54WAT      O  372   0.870   4.821   1.770  0.3174  0.1733  0.3408
   54WAT     H1  373   0.792   4.804   1.822  1.0007  0.2845  1.4326
   54WAT     H2  374   0.890   4.913   1.787  0.8423  0.0708  0.2921
   55WAT      O  375   2.643   0.064   5.215 -0.6227  0.5639  0.3812
   55WAT     H1  376   2.704   0.020   5.155 -0.5256  0.7774  0.3210
   55WAT     H2  377   2.633   0.004   5.288  0.7562  1.1096  1.0665
   56WAT      O  378   4.233   4.710   1.093  0.0491 -0.1566  0.3306
   56WAT     H1  379   4.240   4.782   1.030  0.6927 -0.9262 -0.5105
   56WAT     H2  380   4.293   4.735   1.163 -0.0926  0.3498  0.2781
   57WAT      O  381   1.034   0.942   2.884 -0.5126 -0.5270  0.2434
   57WAT     H1  382   1.103   0.914   2.945  0.0923  1.1043  0.3586
   57WAT     H2  383   1.082   0.964   2.803 -0.8066  1.1211  0.4932
   58WAT      O  384   3.131   3.345   0.164  0.2002 -0.6207  0.0823
   58WAT     H1  385   3.065   3.405   0.199 -0.6658  0.1782 -2.6563
   58WAT     H2  386   3.179   3.315   0.240 -0.7511  1.8860  1.7852
   59WAT      O  387   1.752   2.198   2.147 -0.2532 -0.1833 -0.4831
   59WAT     H1  388   1.684   2.150   2.100 -0.7820  0.4471 -0.3737
   59WAT     H2  389   1.704   2.261   2.202  0.4082  0.1686 -0.2950
   60WAT      O  390   2.808   0.749   0.952 -0.4042 -0.5074  0.5613
   60WAT     H1  391   2.757   0.691   0.895 -2.2893  0.1158  1.5311
   60WAT     H2  392   2.828   0.825   0.898 -0.1545 -0.9376  0.0480
   61WAT      O  393   1.250   2.394   3.897  0.4748 -0.1466  0.3659
   61WAT     H1  394   1.281   2.448   3.824 -0.5911 -0.0905 -0.0570
   61WAT     H2  395   1.312   2.412   3.967  1.8399 -0.5867 -0.6644
   62WAT      O  396   0.124   2.535   0.687 -0.0930  0.0182  0.1238
   62WAT     H1  397   0.123   2.621   0.727 -0.9304 -0.1549  0.4998
   62WAT     H2  398   0.041   2.496   0.712  0.4579 -1.0704  0.3336
   63WAT      O  399   1.563   0.856   3.491  0.4812 -0.2777 -0.3774
   63WAT     H1  400   1.530   0.869   3.580 -1.4874  0.2291 -1.1404
   63WAT     H2  401   1.656   0.835   3.503 -0.2346 -2.5638  1.9112
   64WAT      O  402   0.877   4.244   3.913 -0.1240 -0.5441 -0.0174
   64WAT     H1  403   0.816   4.177   3.943 -0.3745 -0.4664 -0.3421
   64WAT     H2  404   0.840   4.326   3.943  0.6323 -0.6013  1.1346
   65WAT      O  405   0.925   0.216   2.857 -0.2050 -0.2271 -0.4872
   65WAT     H1  406   0.983   0.176   2.792  1.9837  0.6107  0.8779
   65WAT     H2  407   0.920   0.152   2.928 -0.8337 -0.2174 -0.5151
   66WAT      O  408   1.910   4.132   5.163  0.2260  0.0510 -0.2937
   66WAT     H1  409   1.941   4.119   5.252  0.0272 -2.7547 -0.5201
   66WAT     H2  410   1.904   4.227   5.152  0.3712  0.4750  2.6113
   67WAT      O  411   2.695   2.672   4.378  0.5157 -0.0257 -0.2513
   67WAT     H1  412   2.724   2.707   4.294  1.1560  0.4904  0.1774
   67WAT     H2  413   2.774   2.633   4.416  0.6354  1.2360  0.8539
   68WAT      O  414   0.521   1.006   1.015 -0.6778 -0.3771 -0.8797
   68WAT     H1  415   0.490   0.959   1.093 -0.5730  0.3858 -0.3671
   68WAT     H2  416   0.616   1.005   1.023 -0.6812  0.0387 -0.7974
   69WAT      O  417   0.818   3.963   5.015  0.2405  0.5383 -0.0455
   69WAT     H1  418   0.822   3.875   4.977 -1.4945  0.8276 -1.0253
   69WAT     H2  419   0.834   3.949   5.108  0.9747 -0.6825 -0.3232
   70WAT      O  420   2.144   4.133   4.213  0.7380  0.3719 -0.5428
   70WAT     H1  421   2.216   4.071   4.212  2.6276  2.4136 -1.0968
   70WAT     H2  422   2.089   4.108   4.287  1.6724 -1.6033 -0.4861
   71WAT      O  423   3.805   0.135   0.359 -0.3362 -0.2400  0.5041
   71WAT     H1  424   3.841   0.088   0.284  1.4191  1.9196 -0.1093
   71WAT     H2  425   3.713   0.111   0.360 -0.2672 -0.8484 -1.9326
   72WAT      O  426  -0.029   4.263   0.107 -0.0131 -0.1984 -0.0909
   72WAT     H1  427  -0.012   4.216   0.188 -0.0216  0.3079  0.2111
   72WAT     H2  428   0.043   4.238   0.049  1.5697  1.5197  0.9957
   73WAT      O  429   3.859   4.037   2.455 -0.3933  0.4336  0.0620
   73WAT     H1  430   3.850   4.119   2.503  0.5596  0.4663  0.2046
   73WAT     H2  431   3.912   4.059   2.378  0.2734 -0.1330  0.3457
   74WAT      O  432   3.156   0.348   2.459 -0.4539  0.6803 -0.1170
   74WAT     H1  433   3.197   0.262   2.446 -2.1781  0.0654 -1.8457
   74WAT     H2  434   3.145   0.354   2.554 -1.3990 -1.5772 -0.0232
   75WAT      O  435   0.759   3.314   2.868  0.0724  0.4280 -0.0912
   75WAT     H1  436   0.705   3.299   2.791 -0.8086 -0.1494  0.6152
   75WAT     H2  437   0.715   3.386   2.914  0.5544  0.7222 -0.0856
   76WAT      O  438   3.064   0.114   0.794  0.1123 -0.1505  0.0692
   76WAT     H1  439   3.002   0.150   0.731  0.1739 -1.1559 -0.5780
   76WAT     H2  440   3.117   0.053   0.744  0.7324 -0.3222  0.9142
   77WAT      O  441   1.904   0.559   4.904 -0.3450 -0.9186  0.6345
   77WAT     H1  442   1.837   0.574   4.971  0.7059  1.1685  1.2915
   77WAT     H2  443   1.986   0.551   4.952  0.1891 -1.3120 -0.3003
   78WAT      O  444   0.136   3.889   4.676  0.1442 -0.2848 -0.1920
   78WAT     H1  445   0.130   3.964   4.734 -1.9861  0.3237 -1.0922
   78WAT     H2  446   0.121   3.813   4.733 -0.2795  0.1670  0.3031
   79WAT      O  447   2.418   0.899   3.164 -0.0605  1.0135 -0.7061
   79WAT     H1  448   2.472   0.831   3.124  0.3592  0.3747  0.8867
   79WAT     H2  449   2.450   0.981   3.124  0.3305  0.4205 -1.6529
   80WAT      O  450   4.331   3.655   3.887 -0.5755 -0.0190  0.0669
   80WAT     H1  451   4.391   3.629   3.957  1.1990  0.8947 -1.0389
   80WAT     H2  452   4.322   3.576   3.833 -0.6135 -0.2380  0.3866
   81WAT      O  453   2.399   1.157   0.667 -0.0573 -0.2532 -0.2594
   81WAT     H1  454   2.329   1.101   0.634 -0.3056  0.4193 -0.8872
   81WAT     H2  455   2.461   1.164   0.595 -0.2492  0.6407 -0.3473
   82WAT      O  456   3.100   2.763   3.688 -0.3747 -0.3463  0.0103
   82WAT     H1  457   3.051   2.728   3.613 -0.0621 -0.3989 -0.1732
   82WAT     H2  458   3.110   2.688   3.746 -2.3569  0.1403  1.0635
   83WAT      O  459   1.295   2.912   0.232  0.3253 -0.5922  0.0090
   83WAT     H1  460   1.246   2.858   0.170  0.3455 -0.9415  0.2946
   83WAT     H2  461   1.228   2.964   0.276 -0.2224 -3.2365  2.5901
   84WAT      O  462   1.501   3.603   1.089  0.0773  0.1876 -0.6046
   84WAT     H1  463   1.469   3.581   1.001 -0.2251 -0.3850 -0.3548
   84WAT     H2  464   1.435   3.662   1.125 -0.5920 -0.8005 -0.1821
   85WAT      O  465   1.562   0.268   3.770 -0.1547 -0.3906 -0.0003
   85WAT     H1  466   1.625   0.209   3.727  0.9323  1.5516 -1.2157
   85WAT     H2  467   1.509   0.302   3.699 -0.3863  0.5264  0.6032
   86WAT      O  468   1.716   0.255   2.448 -0.8420 -0.5311 -0.4761
   86WAT     H1  469   1.638   0.289   2.404  0.6528  1.6882 -1.5926
   86WAT     H2  470   1.759   0.333   2.484  1.4524 -1.5338 -0.9183
   87WAT      O  471   1.415   1.196   1.387 -0.9334  0.3977  0.5142
   87WAT     H1  472   1.404   1.273   1.443  0.5943  0.0936  1.2868
   87WAT     H2  473   1.429   1.123   1.448  0.2838 -0.0253 -0.2348
   88WAT      O  474   1.735   1.538   4.675 -0.1008 -0.2158  0.3589
   88WAT     H1  475   1.803   1.585   4.724 -0.7452  0.5046  0.5858
   88WAT     H2  476   1.751   1.446   4.694  1.1175 -0.0978  0.0108
   89WAT      O  477   0.403   4.377   4.235 -0.2571 -0.2047 -0.0568
   89WAT     H1  478   0.325   4.331   4.203 -0.4390 -1.0417  1.4382
   89WAT     H2  479   0.474   4.313   4.225  0.2951  0.6062 -1.5497
   90WAT      O  480   3.771   0.231   4.837  0.1333  0.3399  0.2285
   90WAT     H1  481   3.784   0.274   4.752 -0.7257  1.0747  0.4554
   90WAT     H2  482   3.790   0.139   4.820  2.3529  0.8024 -0.1984
   91WAT      O  483   2.770   3.823   3.240  0.0300  0.0845 -0.1139
   91WAT     H1  484   2.741   3.806   3.150 -0.9843  1.9739 -0.1864
   91WAT     H2  485   2.725   3.757   3.293  0.7598 -1.1482 -0.9781
   92WAT      O  486   2.852   1.000   3.627 -0.9053  0.4286  0.1334
   92WAT     H1  487   2.875   1.063   3.558  1.9155 -0.9201 -0.2999
   92WAT     H2  488   2.816   0.925   3.580 -2.5440  0.9336  0.5085
   93WAT      O  489   2.322   1.020   1.324 -0.0811  0.3280  0.1063
   93WAT     H1  490   2.347   1.010   1.232 -0.1746 -0.7377  0.1775
   93WAT     H2  491   2.299   0.931   1.352 -1.8319  0.9088  0.6603
   94WAT      O  492   0.276   4.572   2.202 -0.4280  0.3237 -0.8264
   94WAT     H1  493   0.190   4.598   2.233 -0.7640 -0.3798 -1.1606
   94WAT     H2  494   0.317   4.654   2.174 -1.5586  0.4791 -2.0890
   95WAT      O  495   2.861   0.894   4.066 -0.3126 -0.1287  0.1312
   95WAT     H1  496   2.903   0.948   4.133 -1.3587 -0.2720  0.9377
   95WAT     H2  497   2.932   0.866   4.009  0.2694  2.1369 -0.3486
   96WAT      O  498   0.014   2.917   2.045 -0.2480  0.4566  0.2505
   96WAT     H1  499  -0.054   2.851   2.026  0.3159 -0.3195  0.8357
   96WAT     H2  500   0.084   2.867   2.086  1.8969  0.7208 -2.7704
   97WAT      O  501   1.145   3.365   1.489  0.0195 -0.3268  0.9379
   97WAT     H1  502   1.232   3.388   1.457 -0.0723  2.4896  2.3989
   97WAT     H2  503   1.157   3.350   1.583 -0.7347 -2.2487  0.7757
   98WAT      O  504   1.770   2.124   4.292  0.1352 -0.3532 -0.2043
   98WAT     H1  505   1.786   2.106   4.385  1.1417  0.4874 -0.2010
   98WAT     H2  506   1.810   2.049   4.247  0.1762 -0.4607  0.0062
   99WAT      O  507   0.928   1.541   0.197  0.7047  0.1761  0.2644
   99WAT     H1  508   0.848   1.593   0.190  0.5211 -0.0180  0.8768
   99WAT     H2  509   0.899   1.451   0.190  0.7274  0.0533  1.6325
  100WAT      O  510   0.228   2.241   4.404  0.3598  0.6718  0.1338
  100WAT     H1  511   0.315   2.266   4.373  0.8266  0.3816  1.1373
  100WAT     H2  512   0.191   2.322   4.439  0.0764  0.8706 -0.6181
  101WAT      O  513   1.521   1.448   1.553 -0.1025  0.1914 -0.2742
  101WAT     H1  514   1.608   1.410   1.541 -0.3335 -0.1723 -0.8314
  101WAT     H2  515   1.496   1.423   1.641  0.1106 -0.2135 -0.3269
  102WAT      O  516   2.511   5.036   1.534 -0.4038  0.1504 -0.3713
  102WAT     H1  517   2.479   5.070   1.451 -1.7343  0.0677  0.0888
  102WAT     H2  518   2.475   4.948   1.540 -0.2365  0.1137  0.2462
  103WAT      O  519   1.203   4.490   4.055  0.0195 -0.1064  0.0670
  103WAT     H1  520   1.120   4.521   4.091 -0.8325 -0.1307 -1.7876
  103WAT     H2  521   1.224   4.551   3.985 -0.6137 -2.3844 -2.2625
  104WAT      O  522   1.836   1.407   0.375  0.0467 -0.3054 -0.1494
  104WAT     H1  523   1.792   1.322   0.371 -0.9476  0.0642  1.7266
  104WAT     H2  524   1.924   1.389   0.341 -0.7979 -1.5734 -1.8179
  105WAT      O  525   3.201   0.745   5.045 -0.3317  0.6537 -0.0248
  105WAT     H1  526   3.270   0.789   4.995 -1.5676  1.2244 -1.3270
  105WAT     H2  527   3.210   0.653   5.022 -0.1659  0.7612 -0.4124
  106WAT      O  528   2.195   0.639   2.924 -0.1596  0.2505  0.2156
  106WAT     H1  529   2.274   0.686   2.950 -0.2658  0.8887 -0.6066
  106WAT     H2  530   2.139   0.643   3.001  0.2273  0.6066  0.4830
  107WAT      O  531   2.012   0.707   3.175 -0.2255  0.5391  0.3613
  107WAT     H1  532   1.942   0.656   3.135  0.3348  0.0583 -0.0205
  107WAT     H2  533   2.023   0.669   3.262 -0.1206  0.3104  0.2474
  108WAT      O  534   1.199   0.025   3.833  0.1314 -0.7219 -0.3438
  108WAT     H1  535   1.280   0.035   3.883 -0.9246 -0.2785  1.3374
  108WAT     H2  536   1.215   0.073   3.752  1.7099 -1.0443 -0.2521
  109WAT      O  537   3.074   4.430   0.767  0.1844  0.0442 -0.2271
  109WAT     H1  538   3.141   4.395   0.826 -1.5273 -1.0190  1.1520
  109WAT     H2  539   3.083   4.525   0.775  0.6071 -0.0855  1.0441
  110WAT      O  540   1.864   4.481   4.639 -0.0196 -0.3008 -0.0082
  110WAT     H1  541   1.853   4.473   4.734 -2.0718  0.9332 -0.0776
  110WAT     H2  542   1.818   4.405   4.603 -1.4051  0.5146 -0.0425
  111WAT      O  543   1.018   3.595   0.951  0.6361  0.0756  0.3102
  111WAT     H1  544   0.985   3.652   0.881 -0.0739 -1.9266 -1.0843
  111WAT     H2  545   0.945   3.587   1.012 -0.0709 -0.9874 -0.6142
  112WAT      O  546   0.121   2.764   3.259  0.1560  0.3333 -0.5424
  112WAT     H1  547   0.191   2.821   3.291 -0.3345  0.7470 -0.1773
  112WAT     H2  548   0.104   2.795   3.170  0.3154  0.3507 -0.5669
  113WAT      O  549   2.794   2.909   2.354 -0.8451  0.1757  0.6850
  113WAT     H1  550   2.776   2.863   2.272 -2.2614 -1.7785  1.9807
  113WAT     H2  551   2.771   2.845   2.422 -0.1439  1.8709  2.6068
  114WAT      O  552   2.697   4.198   2.877 -0.5905  0.2576  0.3715
  114WAT     H1  553   2.700   4.231   2.966 -1.8227  1.1535  0.1065
  114WAT     H2  554   2.639   4.121   2.881 -0.8159  0.4235  0.3080
  115WAT      O  555   4.377   0.381   2.558 -0.3243  0.5354 -0.6485
  115WAT     H1  556   4.334   0.424   2.632  0.3471  0.1518 -0.0236
  115WAT     H2  557   4.471   0.388   2.577 -0.1910 -1.9202 -0.0979
  116WAT      O  558   3.837   2.676   0.898  0.9611 -0.5170  0.2239
  116WAT     H1  559   3.849   2.610   0.966  0.9958  1.7184  2.5441
  116WAT     H2  560   3.919   2.725   0.896  0.3384  0.5606 -0.1534
  117WAT      O  561   1.859   2.595   3.358 -0.9902 -0.1602  0.2859
  117WAT     H1  562   1.942   2.643   3.352  0.5432 -2.7702 -0.6811
  117WAT     H2  563   1.792   2.664   3.356  1.0409  1.9444 -1.4656
  118WAT      O  564   2.971   1.474   2.602  0.2407  0.1988  0.1821
  118WAT     H1  565   2.923   1.404   2.645 -1.7598  0.8628 -0.8240
  118WAT     H2  566   2.932   1.555   2.636 -1.6747  0.7615 -2.9384
  119WAT      O  567   3.128   1.486   4.589  0.0779  0.0520  0.2322
  119WAT     H1  568   3.065   1.423   4.622 -0.6944  0.8206  0.2544
  119WAT     H2  569   3.112   1.491   4.495  0.3715 -0.0373  0.1746
  120WAT      O  570   4.188   2.827   1.901 -0.8885  0.5370 -0.1274
  120WAT     H1  571   4.246   2.793   1.969 -0.4227 -1.7163 -1.5498
  120WAT     H2  572   4.240   2.825   1.821 -2.0689  1.0907 -0.9404
  121WAT      O  573   0.866   5.137   1.850 -0.0940  0.0302  0.3914
  121WAT     H1  574   0.834   5.066   1.906  0.2589  0.7924  1.5854
  121WAT     H2  575   0.962   5.131   1.856 -0.0338 -0.1883 -0.5505
  122WAT      O  576   4.341   2.601   0.647 -0.0266 -0.1065  0.0293
  122WAT     H1  577   4.341   2.535   0.717 -0.1666  1.1662  1.2697
  122WAT     H2  578   4.286   2.563   0.578 -1.1374 -0.7612  1.2350
  123WAT      O  579   3.600   1.267   4.032 -0.1787  0.2781 -0.1407
  123WAT     H1  580   3.585   1.183   3.988  0.1866 -0.7727  1.6114
  123WAT     H2  581   3.535   1.268   4.103 -1.3083  2.2783 -1.1229
  124WAT      O  582   3.915   4.733   4.094 -0.4312 -0.3479 -0.5796
  124WAT     H1  583   3.935   4.751   4.003 -0.0306 -2.3215 -0.9434
  124WAT     H2  584   3.828   4.692   4.092 -0.6891  0.1408  0.0061
  125WAT      O  585   2.596   2.548   3.112 -0.4280 -0.7496  0.2117
  125WAT     H1  586   2.532   2.488   3.150 -1.7696  0.9702  0.8161
  125WAT     H2  587   2.543   2.616   3.070  1.0199  0.1685 -0.1925
  126WAT      O  588   1.075   2.156   2.718  0.0376  0.0558  0.1726
  126WAT     H1  589   0.983   2.133   2.726 -0.0156  0.3920  0.5833
  126WAT     H2  590   1.104   2.172   2.808  0.3167  0.6304 -0.0137
  127WAT      O  591   3.146   2.156   0.795  0.2895  0.2041 -0.0690
  127WAT     H1  592   3.087   2.210   0.742  1.3337  1.4822  0.0261
  127WAT     H2  593   3.233   2.190   0.777  1.1783 -2.3374 -1.0072
  128WAT      O  594   3.466   0.751   0.183  0.5298 -0.1659  0.0409
  128WAT     H1  595   3.419   0.711   0.257 -0.3640 -1.4785 -1.1754
  128WAT     H2  596   3.417   0.831   0.164 -0.1567 -0.6155 -0.0989
  129WAT      O  597   2.570   1.804   3.321  0.1983 -0.1139 -0.3695
  129WAT     H1  598   2.587   1.887   3.276 -0.7498 -0.7885 -2.0211
  129WAT     H2  599   2.649   1.752   3.306  0.6686  0.3462  0.4127
  130WAT      O  600   1.470   1.306   0.670  0.0907 -0.1934  0.0242
  130WAT     H1  601   1.393   1.277   0.719  1.2267 -1.2827  1.2527
  130WAT     H2  602   1.448   1.287   0.579 -1.2573 -0.0736  0.2930
  131WAT      O  603   3.794   1.430   1.227 -0.2842 -0.2873 -0.1481
  131WAT     H1  604   3.816   1.458   1.138 -0.6929  1.6185  0.3017
  131WAT     H2  605   3.858   1.361   1.247 -0.2032 -0.7627 -1.9119
  132WAT      O  606   2.846   2.557   1.865  0.4517  0.6397  0.1849
  132WAT     H1  607   2.894   2.631   1.902  1.6603 -0.1067  0.1653
  132WAT     H2  608   2.910   2.512   1.809 -0.4133 -0.1131 -0.2305
  133WAT      O  609   2.106   3.976   1.889  0.2731  0.1217  0.4319
  133WAT     H1  610   2.085   4.035   1.817  0.4938  1.4309  1.4158
  133WAT     H2  611   2.117   3.890   1.846  0.1169  0.7985 -1.0416
  134WAT      O  612   3.309   3.589   4.906 -0.1314  0.3740  0.1079
  134WAT     H1  613   3.272   3.572   4.819  0.0238 -0.3365  0.1757
  134WAT     H2  614   3.392   3.634   4.888 -1.6201  3.3435 -0.0170
  135WAT      O  615   0.523   1.602   1.325 -0.3105  0.4028  0.2418
  135WAT     H1  616   0.453   1.604   1.260 -0.7497 -1.2516  0.6281
  135WAT     H2  617   0.481   1.567   1.404  0.3991  1.6529  1.2050
  136WAT      O  618   0.663   3.736   5.200  0.6068 -0.3448 -0.1962
  136WAT     H1  619   0.702   3.804   5.255  1.0206  1.2188 -2.2997
  136WAT     H2  620   0.737   3.680   5.176  0.5718 -0.5442  0.1537
  137WAT      O  621   0.124   1.586   0.254  0.1108  0.8397  0.1389
  137WAT     H1  622   0.210   1.602   0.215  0.4898  1.0343  1.0403
  137WAT     H2  623   0.077   1.668   0.244  0.6086  1.2561  1.0840
  138WAT      O  624   1.195   1.022   0.049  0.1638  0.3176  0.2234
  138WAT     H1  625   1.146   1.053   0.125 -1.7041  0.4750 -0.9756
  138WAT     H2  626   1.286   1.032   0.074 -0.3906  0.8927  2.2221
  139WAT      O  627   2.560   0.254   2.742  0.1238  0.6412 -0.2148
  139WAT     H1  628   2.527   0.164   2.741  3.5362 -0.7347 -0.0831
  139WAT     H2  629   2.548   0.283   2.832 -0.6598  0.2213 -0.1732
  140WAT      O  630   1.841   4.114   3.232 -0.4088  0.6213 -0.2366
  140WAT     H1  631   1.747   4.102   3.223 -0.3830 -0.3850  0.6916
  140WAT     H2  632   1.860   4.193   3.181 -1.6023  0.3248 -1.1837
  141WAT      O  633   0.338   4.566   3.893  0.0663  0.3084 -0.1019
  141WAT     H1  634   0.311   4.633   3.831  1.8917  0.2979 -0.9780
  141WAT     H2  635   0.422   4.599   3.928  0.5387 -1.0831  0.1232
  142WAT      O  636   1.310   4.160   0.015  0.7101  0.1024 -0.6935
  142WAT     H1  637   1.249   4.233   0.004 -0.2711 -0.7411 -0.9919
  142WAT     H2  638   1.397   4.199   0.001  0.2775  1.3901  0.0695
  143WAT      O  639   3.531   4.842   0.209  0.9583 -0.5738  0.2964
  143WAT     H1  640   3.578   4.843   0.125  0.5511  1.9768  0.0268
  143WAT     H2  641   3.600   4.852   0.275  1.1077 -0.7434  0.1687
  144WAT      O  642   3.866   1.388   2.246  0.2217  0.0545  0.3647
  144WAT     H1  643   3.913   1.433   2.315 -1.3045  0.2015  1.3571
  144WAT     H2  644   3.775   1.387   2.275 -0.4311 -0.1247 -1.5176
  145WAT      O  645   1.347   4.079   0.977 -0.2429 -0.1003 -0.1117
  145WAT     H1  646   1.254   4.058   0.967 -0.2604 -0.2811  0.4025
  145WAT     H2  647   1.349   4.174   0.988 -0.4183 -0.1583  0.4373
  146WAT      O  648   1.992   2.474   4.582 -0.2187 -0.1309 -0.0785
  146WAT     H1  649   2.060   2.528   4.623  0.0153 -0.8824  0.5520
  146WAT     H2  650   1.948   2.431   4.655 -0.7979 -0.3392 -0.5375
  147WAT      O  651   2.602   1.118   2.636  0.8983 -0.6740 -0.1177
  147WAT     H1  652   2.608   1.204   2.594 -0.0715 -1.7020 -2.5081
  147WAT     H2  653   2.510   1.110   2.662  1.1903 -0.6377  0.9997
  148WAT      O  654   3.487   1.733   3.430 -0.2345 -0.0232  0.1922
  148WAT     H1  655   3.575   1.743   3.393  0.0658 -0.6761  0.7092
  148WAT     H2  656   3.428   1.764   3.362  0.1088 -3.4951 -1.8913
  149WAT      O  657   0.748   3.284   2.056 -0.4057 -0.8943  0.1766
  149WAT     H1  658   0.828   3.238   2.032 -0.2849 -0.5835 -0.0261
  149WAT     H2  659   0.772   3.377   2.052 -0.3426 -0.8239  1.6016
  150WAT      O  660   4.235   1.705   4.264  0.5622 -0.1106 -0.1399
  150WAT     H1  661   4.323   1.713   4.228  0.2207  1.5322 -0.7164
  150WAT     H2  662   4.228   1.779   4.325  0.2844 -1.4233  1.4920
  151WAT      O  663   2.537   4.080   4.406 -0.4171 -0.2695 -0.2064
  151WAT     H1  664   2.517   4.099   4.497  1.4963 -1.2167  0.4570
  151WAT     H2  665   2.568   4.162   4.370 -0.7730  0.0026  0.0967
  152WAT      O  666   2.433   5.149   2.767  0.3197 -0.6302 -0.0143
  152WAT     H1  667   2.474   5.109   2.844  0.3957 -1.2488 -0.3678
  152WAT     H2  668   2.341   5.158   2.791  0.0944 -1.9624 -0.2795
  153WAT      O  669   2.296   3.682   2.721  0.2628  0.5135  0.0672
  153WAT     H1  670   2.209   3.641   2.723 -1.1098  3.0392 -1.8660
  153WAT     H2  671   2.350   3.620   2.673 -1.0256 -0.2563 -0.4679
  154WAT      O  672   4.481   1.335   3.531 -0.2365  0.0510 -0.6355
  154WAT     H1  673   4.483   1.397   3.603  1.6902 -0.4488 -0.2215
  154WAT     H2  674   4.545   1.368   3.468 -1.9405  0.5252 -2.2092
  155WAT      O  675   1.646   4.621   5.123 -0.0965 -0.2765 -0.4623
  155WAT     H1  676   1.626   4.679   5.196  1.1436  1.3789 -1.3737
  155WAT     H2  677   1.738   4.636   5.104 -0.5225 -0.1948 -2.7459
  156WAT      O  678   3.378   3.579   4.282  0.2730  0.0320 -0.1160
  156WAT     H1  679   3.298   3.579   4.334  0.1910 -0.6219 -0.2352
  156WAT     H2  680   3.350   3.556   4.194  0.3318  1.7109 -0.6102
  157WAT      O  681   0.295   1.534   3.451  0.2565 -0.1120 -0.4024
  157WAT     H1  682   0.274   1.454   3.404  0.8770 -0.3429 -0.2902
  157WAT     H2  683   0.378   1.564   3.415  1.6692 -1.2422  1.6929
  158WAT      O  684   0.373   3.462   1.024 -0.0387  0.2454  0.5300
  158WAT     H1  685   0.302   3.435   1.081 -1.8555  2.1575 -0.7003
  158WAT     H2  686   0.356   3.417   0.941  0.8393 -0.1294  0.5342
  159WAT      O  687   2.678   3.004   4.903  0.2914  1.0696  0.4116
  159WAT     H1  688   2.650   3.025   4.991 -0.9343  0.5052  0.1837
  159WAT     H2  689   2.644   2.915   4.888 -0.1082  1.4131 -0.8476
  160WAT      O  690   0.502   1.460   0.261  0.0890  0.9479 -0.3289
  160WAT     H1  691   0.574   1.448   0.324 -0.2588  1.2494  0.1291
  160WAT     H2  692   0.491   1.555   0.255 -1.8419  0.9018  1.4336
  161WAT      O  693   3.500   1.080   5.212 -0.7803  0.1516  0.4549
  161WAT     H1  694   3.417   1.104   5.254 -1.4335 -0.7981 -0.2524
  161WAT     H2  695   3.493   1.115   5.124 -0.6067 -0.2802  0.2678
  162WAT      O  696   3.571   1.589   1.285 -0.0185 -0.1131 -0.0975
  162WAT     H1  697   3.582   1.648   1.359  0.2168 -0.1940 -0.0672
  162WAT     H2  698   3.659   1.556   1.267 -0.0344  0.1093 -0.5847
  163WAT      O  699   0.148   2.659   3.820 -0.2674  0.3141 -0.1423
  163WAT     H1  700   0.219   2.603   3.851 -0.5622 -1.2464 -2.1015
  163WAT     H2  701   0.191   2.740   3.795  0.8022 -0.4734 -0.9671
  164WAT      O  702   3.500   1.451   0.027  0.1580  0.5270  0.1116
  164WAT     H1  703   3.491   1.532   0.078  1.7333 -0.2342  1.7264
  164WAT     H2  704   3.586   1.457  -0.013 -0.4991  0.4753 -1.3747
  165WAT      O  705   2.095   1.968   3.301 -0.1237 -0.6748  0.0652
  165WAT     H1  706   2.029   1.914   3.344  0.5983 -0.8856  0.9425
  165WAT     H2  707   2.161   1.906   3.271 -0.3908 -0.4789 -0.9398
  166WAT      O  708   1.342   2.099   1.941 -0.3098 -0.0405  0.1729
  166WAT     H1  709   1.250   2.105   1.967 -0.4925 -1.4672 -0.0412
  166WAT     H2  710   1.340   2.057   1.855  0.5554 -0.4227  0.3221
  167WAT      O  711   0.120   1.576   1.468  0.1522  0.1363  0.1382
  167WAT     H1  712   0.095   1.515   1.538  0.5670  0.1611  0.3113
  167WAT     H2  713   0.216   1.572   1.466  0.1719  0.6261  0.0139
  168WAT      O  714   1.058   2.227   3.782  0.3094 -0.0164 -0.3733
  168WAT     H1  715   1.108   2.151   3.811 -0.6215  0.4269  2.8053
  168WAT     H2  716   1.109   2.302   3.813 -0.4589  0.5454 -0.4363
  169WAT      O  717   0.856   1.660   3.688 -0.3129  0.3625 -0.5172
  169WAT     H1  718   0.798   1.587   3.710 -0.9234  0.6443 -1.1312
  169WAT     H2  719   0.810   1.706   3.617  1.4234 -0.3618 -2.1778
  170WAT      O  720   4.026   1.971   3.246 -0.1725  0.3978 -0.2731
  170WAT     H1  721   4.033   2.029   3.171 -2.4509  0.1030 -0.7656
  170WAT     H2  722   4.038   2.028   3.322  2.4479  0.6486 -0.7673
  171WAT      O  723   0.396   0.629   4.224 -0.4689 -0.4664  0.1286
  171WAT     H1  724   0.310   0.663   4.202 -0.0345  2.3582  2.3064
  171WAT     H2  725   0.380   0.563   4.292 -0.9591 -0.7681 -0.2772
  172WAT      O  726   2.402   2.611   4.859  0.3231  0.2476  0.2905
  172WAT     H1  727   2.467   2.631   4.792 -0.8369  1.3082 -0.5585
  172WAT     H2  728   2.318   2.628   4.816 -0.5791 -1.9173  1.0646
  173WAT      O  729   2.863   4.960   4.776 -0.5072  0.0948 -0.0445
  173WAT     H1  730   2.801   5.009   4.721 -1.2001 -0.9001 -0.1736
  173WAT     H2  731   2.856   4.870   4.744  0.8640 -0.0692  0.0807
  174WAT      O  732   4.192   3.815   3.430  0.1641  0.0406 -0.8521
  174WAT     H1  733   4.102   3.795   3.454 -0.1420  1.2807 -0.8700
  174WAT     H2  734   4.245   3.759   3.486 -0.6114 -0.1886 -0.3303
  175WAT      O  735   1.581   3.491   0.164 -0.2258  0.2260 -0.1398
  175WAT     H1  736   1.598   3.455   0.077  1.2584  2.0971 -0.6968
  175WAT     H2  737   1.665   3.486   0.209 -0.4246  1.2616  0.3882
  176WAT      O  738   3.759   3.216   0.414  1.1106 -0.1010  0.2015
  176WAT     H1  739   3.711   3.195   0.494  0.8023  0.8505  0.2794
  176WAT     H2  740   3.831   3.153   0.412  0.0012 -1.4224  0.1916
  177WAT      O  741   2.420   4.100   5.175  0.5628 -0.0860  0.0954
  177WAT     H1  742   2.368   4.039   5.123  1.2733 -1.2923  0.7582
  177WAT     H2  743   2.509   4.091   5.142  0.7008  0.4805  0.2988
  178WAT      O  744   3.157   1.883   2.770 -0.0999 -0.2435 -0.1331
  178WAT     H1  745   3.184   1.806   2.821 -1.2455 -0.2847  0.4367
  178WAT     H2  746   3.127   1.846   2.687 -0.1275 -0.3597 -0.0722
  179WAT      O  747   3.377   4.783   2.793 -0.3662 -0.2095 -0.7009
  179WAT     H1  748   3.410   4.693   2.791  0.7719  0.1988 -1.8077
  179WAT     H2  749   3.398   4.814   2.881  0.4652 -0.5853 -0.7604
  180WAT      O  750   4.435   0.677   2.964 -0.3709 -0.3465 -0.2003
  180WAT     H1  751   4.477   0.614   3.023 -0.2549  0.8056  0.9953
  180WAT     H2  752   4.380   0.730   3.022 -1.2606 -0.0063 -1.3369
  181WAT      O  753   1.142   3.542   4.696 -0.0761  0.2357  0.0036
  181WAT     H1  754   1.153   3.558   4.602  0.1247  0.2268  0.0260
  181WAT     H2  755   1.231   3.533   4.729 -0.1073  1.2862  0.3874
  182WAT      O  756   4.122   1.424   3.858  0.8224 -0.0057  0.0025
  182WAT     H1  757   4.085   1.465   3.780 -0.3329 -0.2471  0.3991
  182WAT     H2  758   4.074   1.466   3.931 -0.3129 -1.9338  0.4311
  183WAT      O  759   1.272   1.227   1.037  0.2610  0.1757 -0.3123
  183WAT     H1  760   1.270   1.206   1.131  0.9450 -0.6682 -0.4668
  183WAT     H2  761   1.332   1.162   1.000 -0.5988  0.0072 -1.4564
  184WAT      O  762   2.837   4.340   2.676 -0.2475 -0.3416  0.0137
  184WAT     H1  763   2.857   4.416   2.731  0.1402  0.4946 -1.2305
  184WAT     H2  764   2.771   4.292   2.725  0.6060 -0.0243  1.5279
  185WAT      O  765   2.280   3.444   0.949  0.5446  0.3829  0.4765
  185WAT     H1  766   2.246   3.373   1.004 -1.8332  1.2358  0.2325
  185WAT     H2  767   2.249   3.422   0.861  1.6587  0.6490 -0.0046
  186WAT      O  768   1.067   3.099   0.870 -0.5219  0.1469 -0.3334
  186WAT     H1  769   0.983   3.079   0.828 -1.1854  2.1112 -0.0456
  186WAT     H2  770   1.063   3.193   0.889  0.3463 -0.3025  2.7422
  187WAT      O  771   0.528   2.142   3.254  0.3900  0.1849  0.1475
  187WAT     H1  772   0.464   2.095   3.308 -0.1713 -0.6277 -1.1896
  187WAT     H2  773   0.601   2.081   3.245 -0.0779 -0.2161 -1.0805
  188WAT      O  774   3.053   1.509   4.324 -0.4461 -0.7510 -0.7458
  188WAT     H1  775   2.972   1.461   4.311  0.0048 -1.3812 -1.3069
  188WAT     H2  776   3.075   1.543   4.237 -0.6422  0.2919 -0.3995
  189WAT      O  777   0.171   3.737   3.099  0.4539  0.3082  0.0352
  189WAT     H1  778   0.110   3.677   3.142  1.0650 -1.0289 -0.9013
  189WAT     H2  779   0.226   3.770   3.170  0.9043 -1.2201  0.4361
  190WAT      O  780   2.500   4.146   1.304 -0.4170  0.0263  0.5630
  190WAT     H1  781   2.551   4.116   1.229  1.8256  1.9340  1.2105
  190WAT     H2  782   2.503   4.242   1.298 -1.0168  0.2144  2.5298
  191WAT      O  783   3.803   2.483   4.754  0.2538  0.0436  0.8678
  191WAT     H1  784   3.865   2.518   4.691 -0.9535  0.1625 -0.2770
  191WAT     H2  785   3.769   2.560   4.800  0.3844  0.0382  0.9760
  192WAT      O  786   4.104   2.415   0.171  0.1362 -0.1967  0.2470
  192WAT     H1  787   4.055   2.497   0.181  0.7972  0.3463 -0.8374
  192WAT     H2  788   4.091   2.390   0.080  0.0786 -1.2177  0.5277
  193WAT      O  789   0.647   4.948   4.642 -0.3819  0.7520 -0.5227
  193WAT     H1  790   0.551   4.950   4.645 -0.3851  0.3014 -0.1868
  193WAT     H2  791   0.673   5.039   4.624 -0.9352  0.4815 -2.9855
  194WAT      O  792   0.840   4.459   2.500  0.5775  0.0723 -0.1778
  194WAT     H1  793   0.866   4.548   2.474  0.5659  0.3002  0.5662
  194WAT     H2  794   0.800   4.470   2.586  1.1751 -0.7456  0.2218
  195WAT      O  795   2.305   3.716   3.039 -0.4645 -0.5286  0.4891
  195WAT     H1  796   2.277   3.736   2.950 -0.4490  1.7223  0.9160
  195WAT     H2  797   2.231   3.741   3.094 -0.5385 -2.0406  1.1325
  196WAT      O  798   4.477   2.322   0.760 -0.0055 -0.1372  0.2261
  196WAT     H1  799   4.387   2.299   0.737 -0.4184  0.4683  1.1508
  196WAT     H2  800   4.531   2.261   0.710 -0.9108 -0.2628 -0.6300
  197WAT      O  801   0.148   1.958   4.307 -0.8680  0.7170  0.0975
  197WAT     H1  802   0.234   1.917   4.318 -0.1734  1.8081 -1.0865
  197WAT     H2  803   0.166   2.043   4.269 -2.6418 -0.5039 -4.0038
  198WAT      O  804   0.366   0.545   5.183  0.0951 -0.0043 -0.1743
  198WAT     H1  805   0.438   0.532   5.121  0.7697 -0.0031  0.5951
  198WAT     H2  806   0.325   0.627   5.156  0.7043  0.2586 -0.2988
  199WAT      O  807   1.268   4.710   3.896 -0.1514  0.5301  0.6521
  199WAT     H1  808   1.186   4.734   3.853 -0.7585 -1.6802  0.4873
  199WAT     H2  809   1.335   4.761   3.850 -1.1608  0.6860 -0.6951
  200WAT      O  810   4.440   1.593   5.154  0.4447  0.3303  0.2880
  200WAT     H1  811   4.463   1.527   5.220  1.9870  1.2295  0.6936
  200WAT     H2  812   4.344   1.591   5.151  0.3011  0.4855  2.7923
  201WAT      O  813   4.331   5.106   0.538  0.0876 -0.3946  0.1339
  201WAT     H1  814   4.252   5.058   0.564  0.7336 -1.0675  0.9184
  201WAT     H2  815   4.322   5.191   0.580 -0.2754 -0.4267  0.1255
  202WAT      O  816   2.635   0.737   4.010 -0.3530 -0.0347  0.1586
  202WAT     H1  817   2.556   0.791   4.008  0.1079  0.6964 -2.6528
  202WAT     H2  818   2.705   0.800   4.029 -0.2919 -0.4897  1.5192
  203WAT      O  819   3.434   3.626   0.430 -0.5773 -0.3371  0.4973
  203WAT     H1  820   3.439   3.537   0.396 -1.1498  0.3905 -1.6337
  203WAT     H2  821   3.493   3.626   0.506  0.4745 -2.1643 -0.2575
  204WAT      O  822   1.561   2.946   0.587 -0.2599  0.0434 -0.2744
  204WAT     H1  823   1.496   2.906   0.529 -0.6047 -0.1267  0.2105
  204WAT     H2  824   1.516   2.950   0.672  0.4311 -0.2386  0.1096
  205WAT      O  825   3.764   0.823   3.525  0.5312  0.0352 -0.0110
  205WAT     H1  826   3.717   0.773   3.591  1.1523  1.3389  1.4787
  205WAT     H2  827   3.856   0.801   3.538  0.5322 -1.4937 -2.0446
  206WAT      O  828   4.244   2.250   1.743 -0.0777 -0.1184 -0.0760
  206WAT     H1  829   4.196   2.179   1.700 -0.2343  1.1199 -2.0938
  206WAT     H2  830   4.330   2.212   1.762 -0.7415 -1.3724  0.5967
  207WAT      O  831   1.352   0.890   1.123  0.7163  0.7657  0.2056
  207WAT     H1  832   1.372   0.962   1.184 -0.4511  0.2140  1.2978
  207WAT     H2  833   1.389   0.918   1.040  0.8078  2.3710  0.7489
  208WAT      O  834   3.625   2.372   0.600 -0.0625  0.1828  0.4714
  208WAT     H1  835   3.681   2.344   0.528  0.9740  0.7294  1.0510
  208WAT     H2  836   3.657   2.459   0.624 -1.3252  0.6319  0.6520
  209WAT      O  837   1.215   1.253   2.686 -0.3426 -0.5615  0.0822
  209WAT     H1  838   1.143   1.308   2.653 -1.1952 -0.0514  2.5408
  209WAT     H2  839   1.184   1.163   2.673  1.3013 -0.7348 -4.5099
  210WAT      O  840   3.198   0.967   0.943 -0.5243  0.1952  0.2150
  210WAT     H1  841   3.277   0.962   0.996 -0.0611  0.4916 -0.4331
  210WAT     H2  842   3.147   0.890   0.967 -0.4999  0.5250  1.3568
  211WAT      O  843   0.605   1.043   3.947  0.2392  0.4221  0.2562
  211WAT     H1  844   0.554   1.021   4.025  0.2247  0.8766  0.3740
  211WAT     H2  845   0.555   1.005   3.875  0.4390 -0.3161  0.4960
  212WAT      O  846   2.562   0.679   4.413 -0.1605  0.0609 -0.3634
  212WAT     H1  847   2.475   0.669   4.451  0.0767  1.1642  0.5226
  212WAT     H2  848   2.572   0.603   4.357 -1.7256 -0.0522 -0.5440
  213WAT      O  849   3.248   2.911   4.776  0.1340 -0.0267  0.0147
  213WAT     H1  850   3.188   2.890   4.847 -0.5299  0.8356 -0.2722
  213WAT     H2  851   3.319   2.960   4.818 -0.1784  0.3465  0.1146
  214WAT      O  852   2.148   0.057   1.227 -0.4580 -0.9382 -0.2770
  214WAT     H1  853   2.239   0.080   1.208 -0.6814  1.5287  1.1865
  214WAT     H2  854   2.152  -0.002   1.302 -0.0779 -0.3659  0.1538
  215WAT      O  855   2.531   4.238   4.675 -0.1760  0.5775 -0.2213
  215WAT     H1  856   2.466   4.287   4.625 -0.7293 -1.1656 -1.2802
  215WAT     H2  857   2.481   4.170   4.720  0.7930 -0.2014 -0.2854
  216WAT      O  858   0.328   3.678   0.537  0.0598 -0.0709  0.3235
  216WAT     H1  859   0.366   3.623   0.605  0.1351  0.2314  0.5274
  216WAT     H2  860   0.258   3.625   0.499 -0.3120 -0.0485  0.9719
  217WAT      O  861   4.082   2.151   2.684  0.2032 -0.4117  0.0382
  217WAT     H1  862   4.147   2.192   2.741  1.4020 -0.7572 -1.0386
  217WAT     H2  863   4.080   2.059   2.713 -0.2688 -0.2694  0.4715
  218WAT      O  864   1.367   4.834   2.226 -0.4938  0.1815  0.0632
  218WAT     H1  865   1.351   4.796   2.140 -1.7131  0.4557  0.1621
  218WAT     H2  866   1.462   4.823   2.239  0.1418  2.1375 -2.2575
  219WAT      O  867   2.666   1.115   3.774 -0.5184 -0.1045  0.0147
  219WAT     H1  868   2.755   1.110   3.738  1.1558  0.7573  3.5848
  219WAT     H2  869   2.637   1.024   3.780  1.5273 -0.7224  1.7475
  220WAT      O  870   1.824   5.034   1.485 -0.0798  0.0951  0.3423
  220WAT     H1  871   1.918   5.016   1.483 -0.0323  0.2257 -2.4490
  220WAT     H2  872   1.786   4.970   1.425 -1.2015  2.4594 -1.6838
  221WAT      O  873   2.022   2.941   3.549 -0.3674  0.1932  0.6484
  221WAT     H1  874   2.064   2.919   3.466  0.1615  2.6189  0.2046
  221WAT     H2  875   1.929   2.924   3.533 -0.4134  1.5861 -0.8490
  222WAT      O  876   3.597   4.204   4.420  1.2737 -0.5168 -0.6393
  222WAT     H1  877   3.567   4.117   4.393 -0.6955 -0.0811 -0.0434
  222WAT     H2  878   3.660   4.230   4.353  1.1296 -1.9757 -1.3832
  223WAT      O  879   0.963   4.781   2.848 -0.1874  0.3943 -0.1389
  223WAT     H1  880   0.885   4.767   2.902  0.6529  0.0572  1.0522
  223WAT     H2  881   1.001   4.694   2.838  0.2023  0.5939 -0.4200
  224WAT      O  882   0.680   1.422   2.094  0.1377 -0.1856  0.5554
  224WAT     H1  883   0.651   1.513   2.093 -0.9382 -0.4732  1.8402
  224WAT     H2  884   0.613   1.374   2.045  0.7525 -0.2851 -0.2034
  225WAT      O  885   3.926   1.548   4.566  0.4822 -0.3246  0.3301
  225WAT     H1  886   3.969   1.603   4.632  0.4955  0.1593 -0.0695
  225WAT     H2  887   3.963   1.579   4.483 -1.2584  0.7043 -0.1028
  226WAT      O  888   3.162   0.501   0.388 -0.4999  0.4104 -1.1339
  226WAT     H1  889   3.090   0.564   0.395  0.6267  1.6154  0.4650
  226WAT     H2  890   3.241   0.556   0.383  0.4753 -0.8652 -0.3515
  227WAT      O  891   4.239   0.038   5.076 -0.2584  0.2971 -0.5806
  227WAT     H1  892   4.285   0.114   5.111 -0.7560  0.5930 -0.5517
  227WAT     H2  893   4.156   0.074   5.042 -1.3371 -0.4850  1.1173
  228WAT      O  894   3.385   0.509   0.091  0.2446 -0.1040 -0.8238
  228WAT     H1  895   3.387   0.605   0.094  1.4342 -0.1187 -0.5228
  228WAT     H2  896   3.470   0.482   0.125  0.1367 -1.2609 -1.4033
  229WAT      O  897   1.546   0.702   1.559  0.3403 -0.6301  0.2845
  229WAT     H1  898   1.490   0.631   1.527  2.3374 -3.0124  1.6689
  229WAT     H2  899   1.622   0.699   1.501  0.8074 -0.1827  0.8669
  230WAT      O  900   0.223   3.821   5.079  0.1796  0.2578  0.3416
  230WAT     H1  901   0.311   3.831   5.115  0.1567  2.0940 -0.0098
  230WAT     H2  902   0.175   3.898   5.109 -1.1438 -0.3976  0.0197
  231WAT      O  903   2.460   1.140   4.467  0.1131 -0.5941 -0.1075
  231WAT     H1  904   2.400   1.213   4.457  0.2124 -0.4812  0.1136
  231WAT     H2  905   2.410   1.074   4.515 -0.3865 -1.1628 -1.3734
  232WAT      O  906   1.959   4.525   0.781  0.3724 -0.5203 -0.4316
  232WAT     H1  907   1.947   4.491   0.692  0.7435  0.6281 -0.9284
  232WAT     H2  908   1.921   4.613   0.779 -0.7986 -0.9556  0.9083
  233WAT      O  909   2.920   2.131   0.998 -0.1039  0.5966  0.0175
  233WAT     H1  910   2.938   2.065   1.064 -0.0127 -0.0466 -0.6377
  233WAT     H2  911   2.997   2.129   0.941 -0.6810  0.3283 -0.7705
  234WAT      O  912   0.446   1.372   2.856 -0.7263  0.1880 -0.4278
  234WAT     H1  913   0.427   1.380   2.762  0.8942 -2.3983 -1.0810
  234WAT     H2  914   0.541   1.362   2.860 -0.9083 -1.3523  1.3304
  235WAT      O  915   0.555   4.917   3.717  0.0819  0.8663 -0.0415
  235WAT     H1  916   0.492   4.845   3.706  1.1989 -0.5124  2.0202
  235WAT     H2  917   0.503   4.988   3.754 -0.7911  0.7004 -0.9117
  236WAT      O  918   0.809   2.852   3.155  0.6671  0.0614  0.0478
  236WAT     H1  919   0.792   2.760   3.136 -0.6588  0.4711 -0.9263
  236WAT     H2  920   0.834   2.889   3.070 -0.2454  0.8916  0.1347
  237WAT      O  921   3.529   3.921   1.963  0.0062 -0.2053  0.2001
  237WAT     H1  922   3.488   3.837   1.946  0.8073 -0.5124 -0.2438
  237WAT     H2  923   3.594   3.931   1.894  0.3371  0.5019  0.5954
  238WAT      O  924   3.890   1.724   5.185  0.1316 -0.2558  0.0468
  238WAT     H1  925   3.977   1.688   5.164 -0.3520 -0.8220 -1.0830
  238WAT     H2  926   3.857   1.758   5.102 -0.1445  1.3079  0.7592
  239WAT      O  927   1.741   2.917   2.889  0.1103  0.0217  0.0743
  239WAT     H1  928   1.779   2.894   2.804 -0.9789 -0.8606 -0.1998
  239WAT     H2  929   1.687   2.994   2.872  1.1695  0.8360  0.3167
  240WAT      O  930   1.418   2.420   1.717  0.5261  0.0056  0.1573
  240WAT     H1  931   1.410   2.421   1.813  0.8950 -1.0326  0.2137
  240WAT     H2  932   1.372   2.340   1.691  0.8617  0.0185 -0.4865
  241WAT      O  933   2.604   1.306   0.238 -0.2433  0.5807 -0.3518
  241WAT     H1  934   2.613   1.396   0.268  1.1204  0.8177 -1.3475
  241WAT     H2  935   2.683   1.290   0.186  0.4047 -1.7327  1.1604
  242WAT      O  936   0.672   4.590   0.911 -0.5975  0.2744 -0.4567
  242WAT     H1  937   0.638   4.624   0.828 -0.7523  1.1600 -0.0388
  242WAT     H2  938   0.765   4.612   0.909 -0.3028 -0.9362 -0.9947
  243WAT      O  939   0.083   2.213   3.104  0.0313  0.1553  0.5849
  243WAT     H1  940   0.158   2.263   3.072  0.1721 -0.7320 -0.5441
  243WAT     H2  941   0.015   2.279   3.119  0.4001  0.7542 -0.3082
  244WAT      O  942   3.679   3.643   0.598  0.7796 -0.1796  0.1406
  244WAT     H1  943   3.709   3.622   0.510  1.5356  0.9999  0.0835
  244WAT     H2  944   3.687   3.561   0.647 -0.2896 -1.0177 -1.0335
  245WAT      O  945   2.831   1.807   0.957 -0.0509 -0.2770 -0.0736
  245WAT     H1  946   2.853   1.877   1.019 -0.2483 -0.7750  0.5666
  245WAT     H2  947   2.765   1.755   1.003 -1.4917  0.3333 -1.3753
  246WAT      O  948   0.623   3.719   0.372 -0.0002 -0.5263 -0.7810
  246WAT     H1  949   0.680   3.646   0.395 -0.0576 -0.0945  0.8759
  246WAT     H2  950   0.593   3.753   0.456 -0.4046  1.0700 -1.5377
  247WAT      O  951   4.495   4.827   2.779  0.5490  0.2693  0.2029
  247WAT     H1  952   4.444   4.748   2.761 -1.6796  1.4327  1.0097
  247WAT     H2  953   4.539   4.846   2.696  0.8995 -1.6188 -0.0946
  248WAT      O  954   3.085   2.750   3.163 -0.4531  0.4056 -0.2166
  248WAT     H1  955   3.125   2.666   3.143  0.0419  0.4229  0.6356
  248WAT     H2  956   3.092   2.758   3.258 -0.3746  1.4702 -0.2946
  249WAT      O  957   0.965   0.016   5.267  0.3479  0.2290  0.1218
  249WAT     H1  958   1.050   0.053   5.245 -0.1831  1.6937  0.4767
  249WAT     H2  959   0.902   0.073   5.224 -0.7281  2.6103  4.3019
  250WAT      O  960   1.781   3.147   5.055  0.3745 -0.2969  0.7378
  250WAT     H1  961   1.871   3.131   5.082  0.3473  0.6652  1.4532
  250WAT     H2  962   1.744   3.200   5.125 -0.8504 -0.9405  0.6111
  251WAT      O  963   3.745   1.996   2.480  0.2471  0.7298 -0.0435
  251WAT     H1  964   3.684   2.053   2.432  1.7554  2.4985 -0.0072
  251WAT     H2  965   3.751   2.036   2.567 -1.0559 -1.3833  1.1002
  252WAT      O  966   1.158   2.182   3.511  0.8570  0.3474  0.4095
  252WAT     H1  967   1.169   2.275   3.491 -0.2302  0.5752  0.8119
  252WAT     H2  968   1.103   2.181   3.590  0.2292 -0.6426 -0.0274
  253WAT      O  969   2.672   0.620   2.667  0.2413 -0.0289  0.3502
  253WAT     H1  970   2.759   0.589   2.691  1.4058  1.0853 -2.0612
  253WAT     H2  971   2.631   0.544   2.625  0.0896 -0.5173  1.3656
  254WAT      O  972   4.336   3.687   2.318  0.2458  0.3331  0.2474
  254WAT     H1  973   4.390   3.665   2.242 -0.3362 -0.8068  0.1461
  254WAT     H2  974   4.251   3.648   2.300 -0.1796  0.8258  1.0835
  255WAT      O  975   3.738   4.065   0.114 -0.6138  0.4187  0.1565
  255WAT     H1  976   3.657   4.114   0.127 -0.7212  1.2493 -2.8717
  255WAT     H2  977   3.805   4.117   0.157 -1.0578  2.1952 -1.1758
  256WAT      O  978   3.679   5.098   3.588  0.7077 -0.5336  0.0469
  256WAT     H1  979   3.746   5.162   3.566  0.6022 -0.6040 -0.4969
  256WAT     H2  980   3.675   5.099   3.683 -0.8322  1.8683  0.0282
  257WAT      O  981   1.926   4.875   2.741 -0.7852  0.0753  0.5610
  257WAT     H1  982   1.938   4.967   2.720 -1.7596  0.3325  1.0497
  257WAT     H2  983   2.013   4.843   2.764 -0.3560  0.7375 -0.0991
  258WAT      O  984   0.188   0.334   1.993 -0.0438  0.7693  0.5297
  258WAT     H1  985   0.230   0.251   2.019 -0.0216  1.0619  1.4668
  258WAT     H2  986   0.106   0.335   2.042 -0.0490  1.3004  0.5112
  259WAT      O  987   2.522   3.987   0.549 -0.3651  0.6851 -0.2947
  259WAT     H1  988   2.468   4.026   0.617 -1.4985 -0.1130 -0.7066
  259WAT     H2  989   2.562   3.910   0.590 -0.8875  0.3207 -0.4534
  260WAT      O  990   0.086   3.079   3.828 -0.5139 -0.0976 -0.0125
  260WAT     H1  991   0.023   3.012   3.801 -0.6515 -0.0625  0.2153
  260WAT     H2  992   0.137   3.096   3.750 -2.2076  1.4740 -0.8492
  261WAT      O  993   2.836   1.755   0.672 -0.7038  0.2542 -0.2900
  261WAT     H1  994   2.802   1.667   0.686 -1.8243  0.7972  0.5091
  261WAT     H2  995   2.814   1.802   0.752 -0.0168  1.2382 -0.6656
  262WAT      O  996   0.026   1.335   1.590 -0.5553  0.1629 -0.1100
  262WAT     H1  997   0.083   1.312   1.664 -0.2693  2.3939  0.4327
  262WAT     H2  998   0.048   1.271   1.522  1.5192  0.0161  0.6226
  263WAT      O  999   1.563   1.100   4.625 -0.5259  0.2271 -0.4216
  263WAT     H1 1000   1.549   1.153   4.546 -0.9221  2.1594  0.8798
  263WAT     H2 1001   1.658   1.086   4.627 -0.6178 -0.7567 -1.7775
  264WAT      O 1002   0.155   1.467   2.757 -0.3286  0.0276  0.2230
  264WAT     H1 1003   0.090   1.438   2.693 -0.3839 -0.0890  0.3322
  264WAT     H2 1004   0.118   1.442   2.842  0.2016 -0.7181  0.2405
  265WAT      O 1005   3.317   0.070   2.155 -0.2021 -0.3798 -0.1261
  265WAT     H1 1006   3.243   0.096   2.099 -0.0271 -0.0996 -0.2277
  265WAT     H2 1007   3.383   0.038   2.093  0.2739  0.5964 -0.1480
  266WAT      O 1008   0.986   1.921   0.878  0.1952 -0.4110 -0.1314
  266WAT     H1 1009   0.958   1.856   0.943 -0.2484 -0.5555 -0.4596
  266WAT     H2 1010   1.077   1.898   0.860  0.1046 -0.8168 -0.0900
  267WAT      O 1011   0.305   5.069   0.898 -0.0689  0.2190  0.0899
  267WAT     H1 1012   0.355   4.988   0.909 -0.7902 -0.3005 -0.4026
  267WAT     H2 1013   0.349   5.116   0.827  0.5066  0.3975  0.5518
  268WAT      O 1014   2.472   3.678   5.145  0.3566  0.4759 -0.4456
  268WAT     H1 1015   2.415   3.736   5.094  0.6141 -0.7444 -2.2171
  268WAT     H2 1016   2.551   3.730   5.161  0.0823  1.0501 -0.9191
  269WAT      O 1017   0.433   3.598   1.413 -0.2715  0.2423 -0.2585
  269WAT     H1 1018   0.458   3.625   1.501 -1.7831 -1.4845  0.7708
  269WAT     H2 1019   0.517   3.590   1.366  0.8159 -1.0739  1.7325
  270WAT      O 1020   0.117   0.498   4.925 -0.4030  0.3882 -0.4628
  270WAT     H1 1021   0.207   0.502   4.895  0.2959 -0.6561  1.3462
  270WAT     H2 1022   0.064   0.513   4.846  1.3200  0.2829 -1.6830
  271WAT      O 1023   1.308   5.082   0.204  0.8405 -0.2646  1.1579
  271WAT     H1 1024   1.328   5.088   0.110  1.8188  0.0360  1.3805
  271WAT     H2 1025   1.230   5.027   0.208  0.2957  0.3979  0.1084
  272WAT      O 1026   2.205   4.567   0.067  0.0703 -0.1234 -0.5552
  272WAT     H1 1027   2.232   4.547  -0.023 -1.1767 -0.2453 -0.9180
  272WAT     H2 1028   2.193   4.481   0.108 -1.5902 -0.1346 -0.9827
  273WAT      O 1029   0.116   1.013   3.836 -0.4319  0.3636  0.1381
  273WAT     H1 1030   0.124   1.089   3.892 -0.0906 -0.2640  0.9624
  273WAT     H2 1031   0.028   1.020   3.798  0.0388  1.7957 -0.7635
  274WAT      O 1032   4.004   0.939   5.014 -0.4810 -0.0729 -0.0539
  274WAT     H1 1033   4.016   0.873   4.946  0.9204 -0.8881  0.9387
  274WAT     H2 1034   3.910   0.938   5.032 -0.9414  0.4067 -2.1727
  275WAT      O 1035   1.138   5.018   1.224 -0.4380 -0.4302 -0.1990
  275WAT     H1 1036   1.091   4.969   1.291 -0.5571 -0.1861 -0.1022
  275WAT     H2 1037   1.144   4.958   1.150 -0.3295 -0.6920  0.0206
  276WAT      O 1038   2.557   2.218   0.705  0.1724  0.4949  0.4752
  276WAT     H1 1039   2.555   2.138   0.652 -0.3240  0.9929 -0.2846
  276WAT     H2 1040   2.649   2.243   0.706  0.2465  0.2441  0.2158
  277WAT      O 1041   2.108   0.233   4.395  0.5587 -0.7704 -0.2486
  277WAT     H1 1042   2.170   0.164   4.418  1.1235 -0.8329 -1.7970
  277WAT     H2 1043   2.100   0.227   4.299  0.9164  1.5358 -0.4941
  278WAT      O 1044   4.424   1.596   4.709 -0.1340  0.2036 -0.2543
  278WAT     H1 1045   4.455   1.631   4.626  0.8330  0.9179  0.3861
  278WAT     H2 1046   4.409   1.673   4.764  2.1432 -0.3189  1.2298
  279WAT      O 1047   1.083   4.032   0.843  0.2874  0.5492 -0.1026
  279WAT     H1 1048   1.098   4.093   0.771  0.4761  0.5610 -0.0534
  279WAT     H2 1049   0.988   4.019   0.844  0.3604 -0.1307 -0.9051
  280WAT      O 1050   3.409   2.644   2.605 -0.0845 -0.1095 -0.2391
  280WAT     H1 1051   3.332   2.668   2.656  1.3243  0.1985  1.8755
  280WAT     H2 1052   3.400   2.693   2.524 -2.4612 -0.6702 -0.4060
  281WAT      O 1053   0.436   0.634   1.992 -0.3930  0.1529  0.6577
  281WAT     H1 1054   0.379   0.628   2.068  0.2450  1.9834  1.3488
  281WAT     H2 1055   0.520   0.663   2.028  0.3997 -0.5300 -0.5658
  282WAT      O 1056   0.084   0.033   4.227  0.2188  0.0435 -0.1444
  282WAT     H1 1057   0.117   0.064   4.143  1.4263  1.6053  0.8481
  282WAT     H2 1058   0.143   0.072   4.292 -1.8291  0.5023  1.5479
  283WAT      O 1059   0.620   1.210   4.629  0.0992  0.2236  0.3329
  283WAT     H1 1060   0.602   1.119   4.604 -2.3236  0.8039 -0.2876
  283WAT     H2 1061   0.591   1.262   4.555 -0.5252  1.6240  1.5032
  284WAT      O 1062   3.696   1.671   0.648  0.3836  0.2043  0.9280
  284WAT     H1 1063   3.639   1.595   0.635 -0.7258  1.0495  0.5983
  284WAT     H2 1064   3.687   1.692   0.741  0.8173 -0.1540  1.0542
  285WAT      O 1065   3.971   4.240   2.619  0.5886 -0.3836  0.2828
  285WAT     H1 1066   3.996   4.326   2.587  0.4187 -0.4498 -0.0291
  285WAT     H2 1067   4.003   4.238   2.709  2.9620 -0.9703 -0.5001
  286WAT      O 1068   2.124   0.222   3.460  0.1162  0.2117  0.0395
  286WAT     H1 1069   2.049   0.163   3.457  0.1089  0.1113  1.5047
  286WAT     H2 1070   2.088   0.305   3.490  0.5606  0.2042  0.6146
  287WAT      O 1071   4.179   0.666   0.490  0.3887 -0.7275 -0.2499
  287WAT     H1 1072   4.185   0.591   0.431 -0.3506 -1.0780  0.0993
  287WAT     H2 1073   4.228   0.640   0.568  0.6931 -0.5814 -0.3915
  288WAT      O 1074   0.484   2.291   4.353  0.3872  0.1232  0.1110
  288WAT     H1 1075   0.536   2.210   4.356  2.9812  1.6540 -0.3256
  288WAT     H2 1076   0.495   2.323   4.263 -1.0138  0.7365  0.1327
  289WAT      O 1077   0.873   4.167   0.545 -0.7154 -0.2177  0.1995
  289WAT     H1 1078   0.789   4.195   0.509 -0.9732 -2.2206 -0.8709
  289WAT     H2 1079   0.892   4.085   0.501  2.1829  0.5162 -0.1361
  290WAT      O 1080   3.570   3.900   2.413 -0.0550  0.3893  0.3300
  290WAT     H1 1081   3.570   3.815   2.368 -2.1297  0.4010  0.1910
  290WAT     H2 1082   3.590   3.964   2.345 -1.8164  0.2784 -0.3337
  291WAT      O 1083   0.091   1.684   3.943 -0.1526  0.1313 -0.1340
  291WAT     H1 1084   0.013   1.655   3.895  1.2453 -0.6575 -2.0863
  291WAT     H2 1085   0.164   1.658   3.887  1.5324  0.8872  1.5973
  292WAT      O 1086   0.167   1.470   2.192  0.0751  0.4087 -0.5670
  292WAT     H1 1087   0.142   1.526   2.119 -1.6505 -1.5279 -1.5689
  292WAT     H2 1088   0.190   1.386   2.152 -0.0161 -0.4404  1.0430
  293WAT      O 1089   2.899   1.356   4.071 -0.2735 -0.2422 -0.0833
  293WAT     H1 1090   2.860   1.274   4.102  0.0821 -0.4010 -0.0440
  293WAT     H2 1091   2.824   1.412   4.051 -0.5534 -1.0807 -1.4839
  294WAT      O 1092   3.309   4.722   4.681  0.0138 -0.0066  0.2890
  294WAT     H1 1093   3.351   4.707   4.596  1.7726 -0.6069  1.2287
  294WAT     H2 1094   3.272   4.637   4.704  0.8111 -0.2203  0.7887
  295WAT      O 1095   1.726   0.582   1.319 -0.1324 -0.0033 -0.1277
  295WAT     H1 1096   1.782   0.659   1.309  1.0328 -0.9186 -0.9342
  295WAT     H2 1097   1.675   0.579   1.239  1.7508 -1.5065 -1.3836
  296WAT      O 1098   1.857   3.471   0.258  0.1202 -0.1724 -0.2629
  296WAT     H1 1099   1.814   3.388   0.281  0.9125 -0.9225 -1.3886
  296WAT     H2 1100   1.857   3.472   0.163  0.4527  0.9688 -0.2638
  297WAT      O 1101   2.140   4.449   0.534 -0.3134 -0.5045  0.0285
  297WAT     H1 1102   2.233   4.426   0.537 -0.0190  0.4764 -0.7709
  297WAT     H2 1103   2.139   4.545   0.528 -1.4279 -0.3979  1.4065
  298WAT      O 1104   2.400   2.875   4.545  0.4076 -0.3297 -0.1428
  298WAT     H1 1105   2.308   2.851   4.533 -0.1644  1.4051  0.4163
  298WAT     H2 1106   2.441   2.798   4.584 -1.4091 -0.2780  2.0069
  299WAT      O 1107   1.075   3.775   1.774 -0.0578  0.6012 -0.0537
  299WAT     H1 1108   1.065   3.773   1.869  0.3412  0.7065 -0.0057
  299WAT     H2 1109   1.153   3.722   1.757 -0.7791 -0.3685 -0.4241
  300WAT      O 1110   2.366   4.582   2.103 -0.4644  0.2737 -0.2508
  300WAT     H1 1111   2.335   4.642   2.035 -0.5622  0.6297  0.0977
  300WAT     H2 1112   2.436   4.532   2.061  1.6308  2.6020  0.2109
  301WAT      O 1113   3.888   5.013   2.939 -0.9991  0.3280 -0.1334
  301WAT     H1 1114   3.878   5.097   2.984 -1.2890 -0.1851  0.7975
  301WAT     H2 1115   3.971   4.978   2.973 -1.0963  0.0462 -0.1828
  302WAT      O 1116   3.860   0.697   4.257  0.2830  0.4195 -0.0897
  302WAT     H1 1117   3.930   0.713   4.194 -0.4059  1.4987 -0.6143
  302WAT     H2 1118   3.794   0.764   4.237 -1.9259 -1.9173 -1.0806
  303WAT      O 1119   0.377   3.003   0.289  0.1112 -0.7253 -0.0890
  303WAT     H1 1120   0.390   3.022   0.196 -0.7670 -2.5967 -0.6420
  303WAT     H2 1121   0.438   2.932   0.308 -0.4845 -1.1007  0.4677
  304WAT      O 1122   3.513   4.879   2.028 -0.6744 -0.2702 -0.3904
  304WAT     H1 1123   3.556   4.945   2.082 -2.3775 -0.3142  1.1314
  304WAT     H2 1124   3.557   4.797   2.050 -0.9397 -0.1868  0.5194
  305WAT      O 1125   2.476   2.005   2.339  0.0304 -0.4415 -0.5720
  305WAT     H1 1126   2.420   1.956   2.398  2.8354 -2.2957  0.7960
  305WAT     H2 1127   2.538   2.050   2.396 -0.0212  1.5406 -1.9786
  306WAT      O 1128   1.867   2.259   0.659 -0.5382 -0.0019  0.1518
  306WAT     H1 1129   1.826   2.278   0.575 -2.1185  1.0585  1.1148
  306WAT     H2 1130   1.815   2.187   0.695 -0.4090  0.1323  0.6141
  307WAT      O 1131   0.482   3.679   3.539 -0.4222 -0.4751 -0.6262
  307WAT     H1 1132   0.530   3.762   3.532  0.5008 -0.8759  0.6076
  307WAT     H2 1133   0.414   3.696   3.604  0.3268 -0.9281  0.2852
  308WAT      O 1134   1.977   2.513   5.289  0.0583 -0.0968  0.0152
  308WAT     H1 1135   1.959   2.428   5.248  2.8526 -0.1205 -1.4108
  308WAT     H2 1136   2.026   2.491   5.368  1.7116  0.1261 -0.8925
  309WAT      O 1137   4.310   1.694   1.198 -0.0806  0.0842  0.1313
  309WAT     H1 1138   4.358   1.612   1.211 -0.7556 -0.2836  0.3936
  309WAT     H2 1139   4.361   1.759   1.245  1.1672  0.0808 -1.1639
  310WAT      O 1140   2.272   4.328   0.165 -0.2722  0.0179 -0.1150
  310WAT     H1 1141   2.339   4.322   0.233 -1.3861 -1.3439  0.9358
  310WAT     H2 1142   2.230   4.242   0.165 -1.3859  0.5249 -1.3969
  311WAT      O 1143   3.731   2.652   0.653 -0.4057  0.6474 -0.0735
  311WAT     H1 1144   3.773   2.662   0.739 -1.9828 -0.3627  0.8538
  311WAT     H2 1145   3.650   2.702   0.660  0.0323  1.6132 -1.4486
  312WAT      O 1146   2.949   2.710   0.677 -0.1835 -0.2179 -0.0679
  312WAT     H1 1147   2.951   2.670   0.764 -1.7536  1.4244  0.7934
  312WAT     H2 1148   2.978   2.640   0.618 -0.0946 -1.7006  1.6426
  313WAT      O 1149   3.192   4.443   3.367  0.3891 -0.0838  0.0923
  313WAT     H1 1150   3.261   4.485   3.418 -1.6552 -0.5694  3.6407
  313WAT     H2 1151   3.202   4.350   3.385 -0.0100 -0.3468 -0.9764
  314WAT      O 1152   2.316   1.818   4.569 -0.0266  0.2429  0.2901
  314WAT     H1 1153   2.382   1.886   4.554 -0.6311  0.2730 -3.0665
  314WAT     H2 1154   2.361   1.754   4.624  1.3591  2.2063  1.5628
  315WAT      O 1155   3.960   2.311   3.877  0.0838  0.4228 -0.0738
  315WAT     H1 1156   3.910   2.230   3.890  0.5769  0.3947  2.1481
  315WAT     H2 1157   4.043   2.282   3.841  0.8874 -0.3474  2.1882
  316WAT      O 1158   0.046   4.587   4.866 -0.5447  0.0715 -0.3011
  316WAT     H1 1159   0.077   4.539   4.789 -1.7585 -0.4001 -0.5084
  316WAT     H2 1160  -0.047   4.566   4.872 -0.3759 -0.2860  1.5906
  317WAT      O 1161   3.112   3.149   3.465 -0.2213  0.3419 -0.0533
  317WAT     H1 1162   3.145   3.125   3.552 -2.3933  0.0580  0.7500
  317WAT     H2 1163   3.189   3.183   3.419  1.0696  0.1201  1.8284
  318WAT      O 1164   3.467   3.168   2.363  0.4883 -0.0743 -0.0276
  318WAT     H1 1165   3.510   3.230   2.422  1.9526 -0.5819 -0.5169
  318WAT     H2 1166   3.422   3.223   2.299  0.2690  0.4759  0.5935
  319WAT      O 1167   0.111   1.491   0.531 -0.0607 -0.1883  0.7300
  319WAT     H1 1168   0.124   1.529   0.444 -2.3549  0.4320  0.5810
  319WAT     H2 1169   0.063   1.410   0.514  0.0855 -0.4068  1.3693
  320WAT      O 1170   3.879   3.820   0.215  0.1399  0.2799  0.5844
  320WAT     H1 1171   3.889   3.827   0.120  0.2732  0.7723  0.6338
  320WAT     H2 1172   3.806   3.879   0.236  0.7347  0.9137  0.9062
  321WAT      O 1173   3.751   0.507   5.137 -0.0679  0.3372  0.1328
  321WAT     H1 1174   3.686   0.439   5.154 -0.3072  0.7663  1.0069
  321WAT     H2 1175   3.735   0.573   5.205  0.6469  0.9094 -0.2370
  322WAT      O 1176   0.587   2.509   2.422 -0.3089  0.1781 -0.0917
  322WAT     H1 1177   0.649   2.474   2.358 -0.4455  0.4332 -0.3661
  322WAT     H2 1178   0.624   2.486   2.506  0.1015  0.2278 -0.2577
  323WAT      O 1179   1.885   3.502   5.302 -0.5299 -0.3119  0.1040
  323WAT     H1 1180   1.822   3.464   5.241 -1.3057  0.3146  0.5007
  323WAT     H2 1181   1.900   3.591   5.269 -1.0358  0.0692  0.8767
  324WAT      O 1182   1.341   0.441   3.900 -0.2355  0.4087 -0.2805
  324WAT     H1 1183   1.311   0.402   3.982  0.0763 -0.3102 -0.5025
  324WAT     H2 1184   1.434   0.418   3.895 -0.1794  0.7111 -0.6854
  325WAT      O 1185   2.239   1.533   1.519 -0.3092  0.0126  0.0018
  325WAT     H1 1186   2.288   1.478   1.457  0.0136  0.7198 -0.3893
  325WAT     H2 1187   2.252   1.491   1.604 -0.6369 -0.8969 -0.3844
  326WAT      O 1188   4.424   3.745   4.505 -0.1670 -0.1694  0.3058
  326WAT     H1 1189   4.485   3.672   4.520 -2.5716 -2.2208  0.8616
  326WAT     H2 1190   4.456   3.787   4.425  1.0331 -2.1860 -0.3547
  327WAT      O 1191   0.682   3.316   4.356 -0.3612 -0.2369  0.2918
  327WAT     H1 1192   0.767   3.274   4.347  0.1513  1.1167 -1.7382
  327WAT     H2 1193   0.643   3.274   4.432  2.0103 -1.0416  1.1464
  328WAT      O 1194   1.868   2.588   3.674 -0.2137  0.5124  0.4489
  328WAT     H1 1195   1.940   2.570   3.614  1.3587 -3.1361  3.0367
  328WAT     H2 1196   1.800   2.525   3.649 -0.1392 -0.0116  1.5141
  329WAT      O 1197   2.774   1.407   3.500 -0.0639 -0.0650 -0.5510
  329WAT     H1 1198   2.703   1.422   3.563  0.2338 -0.3032 -0.1489
  329WAT     H2 1199   2.852   1.398   3.555 -0.1165 -2.4598 -0.7752
  330WAT      O 1200   2.017   3.481   3.058 -0.1606 -0.2231  0.4216
  330WAT     H1 1201   2.065   3.520   2.984  1.0657  0.0508  1.3252
  330WAT     H2 1202   1.925   3.499   3.039 -0.1344 -2.2152 -2.2300
  331WAT      O 1203   3.480   0.364   2.724 -0.3005 -0.2475  0.1454
  331WAT     H1 1204   3.573   0.377   2.741 -0.3217  1.7679 -0.8856
  331WAT     H2 1205   3.475   0.350   2.629 -1.1714  2.0884 -0.2215
  332WAT      O 1206   0.553   0.261   4.334 -0.1114  0.1071  0.2145
  332WAT     H1 1207   0.633   0.296   4.373 -0.9443  0.0793  2.0840
  332WAT     H2 1208   0.583   0.205   4.263  1.5976 -0.5896  1.4044
  333WAT      O 1209   0.841   0.367   4.934 -0.2147 -0.2931 -0.2425
  333WAT     H1 1210   0.888   0.446   4.960 -1.4347  0.5712 -0.5674
  333WAT     H2 1211   0.905   0.316   4.883  1.3436 -0.7154  2.0011
  334WAT      O 1212   4.345   4.302   3.480 -0.1814 -0.2828 -0.0500
  334WAT     H1 1213   4.295   4.221   3.489 -0.9871  0.1583 -0.4582
  334WAT     H2 1214   4.329   4.350   3.561  1.6284 -1.2222  0.9330
  335WAT      O 1215   1.289   1.778   3.306  0.8146 -0.3926 -0.2526
  335WAT     H1 1216   1.230   1.837   3.354  1.3379 -1.5011  1.8829
  335WAT     H2 1217   1.278   1.803   3.214 -0.1600  1.9457  0.4122
  336WAT      O 1218   0.746   1.578   1.793  0.4252 -0.4592  0.4363
  336WAT     H1 1219   0.778   1.509   1.735 -1.0124 -0.0791 -0.8803
  336WAT     H2 1220   0.651   1.565   1.796  0.0033  1.8497 -0.4533
  337WAT      O 1221   1.380   0.310   3.004  0.0740  0.8117  0.2003
  337WAT     H1 1222   1.338   0.295   2.919  1.0365 -1.4954  0.0619
  337WAT     H2 1223   1.404   0.223   3.034  0.9317  1.7049  2.2557
  338WAT      O 1224   0.425   4.542   4.502 -0.2396 -0.4195 -0.4317
  338WAT     H1 1225   0.398   4.517   4.414 -0.7737 -0.5829 -0.2246
  338WAT     H2 1226   0.348   4.587   4.539 -0.8565 -2.3293  0.7586
  339WAT      O 1227   1.646   1.360   2.831  0.1708 -0.1068  0.6544
  339WAT     H1 1228   1.650   1.450   2.797  0.3540 -0.4029 -0.1293
  339WAT     H2 1229   1.570   1.321   2.788  1.3340 -0.9818 -0.6952
  340WAT      O 1230   3.017   3.752   1.077  0.3286  0.1225  0.0034
  340WAT     H1 1231   3.052   3.803   1.004 -0.1227 -1.9540 -1.7234
  340WAT     H2 1232   2.933   3.794   1.097 -0.2801 -0.1787 -1.7351
  341WAT      O 1233   4.224   4.415   1.745  0.0501 -0.6860  0.0829
  341WAT     H1 1234   4.320   4.417   1.743  0.0322  0.6801 -0.2349
  341WAT     H2 1235   4.200   4.344   1.686  0.8415 -0.2923 -0.7280
  342WAT      O 1236   0.299   3.895   0.749 -0.5596  0.3863 -0.3079
  342WAT     H1 1237   0.368   3.923   0.808 -1.5201 -0.2939  1.1910
  342WAT     H2 1238   0.345   3.865   0.670  0.8784 -0.2986  0.7469
  343WAT      O 1239   0.569   0.572   3.006  0.2484  0.0825 -0.4171
  343WAT     H1 1240   0.589   0.665   2.997 -0.3813  0.3830  0.9721
  343WAT     H2 1241   0.653   0.528   2.998  0.5333  0.7525 -1.2272
  344WAT      O 1242   1.798   4.173   2.117  0.2579 -0.1848  0.0264
  344WAT     H1 1243   1.710   4.197   2.145  0.2357 -1.8019  1.5396
  344WAT     H2 1244   1.787   4.088   2.073  0.8482  0.4621 -1.4544
  345WAT      O 1245   0.700   0.750   1.056  0.1059 -0.0700  0.0330
  345WAT     H1 1246   0.655   0.755   0.971 -1.7423 -1.6748  0.8356
  345WAT     H2 1247   0.767   0.683   1.044 -0.2185 -0.3662 -0.1352
  346WAT      O 1248   0.419   0.237   5.048 -0.2939  0.2152 -0.4732
  346WAT     H1 1249   0.449   0.207   5.134 -1.2434 -0.4349 -0.3614
  346WAT     H2 1250   0.441   0.331   5.046  0.9127 -0.0384 -0.0505
  347WAT      O 1251   1.299   5.142   1.014 -0.3235 -0.0969 -0.3206
  347WAT     H1 1252   1.278   5.077   0.947  0.3375  0.3808 -1.0155
  347WAT     H2 1253   1.233   5.129   1.082 -0.5934 -1.0514 -0.7492
  348WAT      O 1254   0.290   1.096   1.813 -0.5156  0.5695 -0.3781
  348WAT     H1 1255   0.200   1.080   1.784 -0.4957  0.6655 -0.4943
  348WAT     H2 1256   0.330   1.010   1.818 -0.9977  0.3976  0.9227
  349WAT      O 1257   0.384   1.927   3.430 -0.1735  0.0064 -0.0344
  349WAT     H1 1258   0.357   1.863   3.495  1.2871 -0.6072  0.0038
  349WAT     H2 1259   0.475   1.946   3.450 -1.0707  3.8205  1.3369
  350WAT      O 1260   3.245   2.987   3.652  0.2474  0.3850  0.0712
  350WAT     H1 1261   3.196   2.904   3.657  1.0571 -0.0499  1.1669
  350WAT     H2 1262   3.315   2.970   3.589 -2.0387  1.6319 -3.1187
  351WAT      O 1263   2.908   4.954   3.643 -0.2618 -0.0513  0.1524
  351WAT     H1 1264   2.978   5.017   3.629  1.1491 -1.4865  0.4013
  351WAT     H2 1265   2.931   4.910   3.725 -2.3745  0.5689  1.1461
  352WAT      O 1266   2.343   0.603   4.840 -0.0438 -0.5627  0.1270
  352WAT     H1 1267   2.404   0.596   4.912  0.9137  1.8521 -0.3500
  352WAT     H2 1268   2.393   0.575   4.763 -0.4084 -1.1642  0.1050
  353WAT      O 1269   3.525   3.138   1.645  0.1725  0.5867  0.2393
  353WAT     H1 1270   3.540   3.131   1.739  1.6496  2.2043  0.1685
  353WAT     H2 1271   3.484   3.224   1.633  0.5026  0.6321 -0.6481
  354WAT      O 1272   1.462   3.789   1.368  0.2480 -0.2957  0.4994
  354WAT     H1 1273   1.491   3.849   1.299 -0.6634  1.4304  1.5324
  354WAT     H2 1274   1.491   3.829   1.450 -1.7079 -0.4169  1.3241
  355WAT      O 1275   1.829   4.038   3.977  0.4598 -0.2039  0.6690
  355WAT     H1 1276   1.869   3.961   3.937 -0.0816 -0.3465  0.3858
  355WAT     H2 1277   1.739   4.037   3.945  0.6486  0.9850  0.0344
  356WAT      O 1278   4.323   4.066   1.225  0.1937 -0.6438 -0.5865
  356WAT     H1 1279   4.259   4.049   1.156 -0.4202  0.0692 -0.2051
  356WAT     H2 1280   4.386   4.126   1.184  0.5352 -1.2195 -0.9124
  357WAT      O 1281   1.826   0.884   0.653  0.1497  0.3647  0.4254
  357WAT     H1 1282   1.906   0.837   0.627 -0.1780 -0.1449  0.3386
  357WAT     H2 1283   1.756   0.821   0.642 -0.3295  0.9352  0.1174
  358WAT      O 1284   3.137   3.407   0.891  0.3396  0.0011  0.3852
  358WAT     H1 1285   3.222   3.451   0.894 -0.8471  2.5101 -0.2029
  358WAT     H2 1286   3.148   3.338   0.826  2.1886 -0.4354  1.0840
  359WAT      O 1287   0.464   3.180   3.839 -0.4696  0.2215  0.1174
  359WAT     H1 1288   0.455   3.122   3.763 -0.6575  1.2594 -0.6658
  359WAT     H2 1289   0.384   3.232   3.838 -0.2040  0.6351  0.6945
  360WAT      O 1290   4.284   1.027   2.857  0.0214 -0.0010  0.4717
  360WAT     H1 1291   4.357   1.061   2.909  1.9555  0.9291 -2.5687
  360WAT     H2 1292   4.313   0.939   2.830 -0.2753  0.1087 -0.2278
  361WAT      O 1293   2.098   4.401   4.269 -0.3033 -0.2883 -0.3992
  361WAT     H1 1294   2.091   4.306   4.259 -1.6731 -0.1694 -0.8056
  361WAT     H2 1295   2.098   4.434   4.180 -1.6265  0.1746 -0.2477
  362WAT      O 1296   3.460   4.630   5.034 -0.5658  0.0675  0.4224
  362WAT     H1 1297   3.389   4.570   5.056 -0.9656  0.1834 -0.5112
  362WAT     H2 1298   3.508   4.586   4.965 -0.5452  0.5936  0.0981
  363WAT      O 1299   0.663   1.450   5.059 -0.4445  0.1310 -0.0105
  363WAT     H1 1300   0.682   1.360   5.033  2.5598  0.6547  0.0133
  363WAT     H2 1301   0.600   1.441   5.131  2.2760 -2.2691  2.3238
  364WAT      O 1302   2.678   3.000   0.072 -0.6439 -0.4459 -0.6506
  364WAT     H1 1303   2.751   2.938   0.073 -0.3317 -0.0833  0.8717
  364WAT     H2 1304   2.673   3.029  -0.019  2.1267  0.7010 -0.5397
  365WAT      O 1305   0.518   4.524   4.901 -0.1462  0.0053  0.3168
  365WAT     H1 1306   0.439   4.487   4.861 -0.1296  0.0035  0.2860
  365WAT     H2 1307   0.581   4.529   4.830  0.7253 -2.3331  0.8246
  366WAT      O 1308   3.268   4.780   1.943  0.1245  0.4119  0.3516
  366WAT     H1 1309   3.284   4.686   1.934  0.7478  0.4739  0.6862
  366WAT     H2 1310   3.350   4.814   1.979 -0.3808  0.9597  1.0103
  367WAT      O 1311   0.624   0.705   4.089 -1.0288  0.0245  0.3678
  367WAT     H1 1312   0.557   0.679   4.152 -2.2951 -0.0944 -0.9753
  367WAT     H2 1313   0.654   0.623   4.050 -1.0863  0.1660  0.0171
  368WAT      O 1314   3.460   1.830   4.562  0.5080  0.3325  0.6051
  368WAT     H1 1315   3.542   1.870   4.533  0.3989  0.0498 -0.1198
  368WAT     H2 1316   3.483   1.738   4.577  0.6344  0.5441  1.7364
  369WAT      O 1317   0.233   0.362   3.084  0.5697 -0.3036  0.2543
  369WAT     H1 1318   0.278   0.434   3.040 -0.6734  0.2387 -0.1854
  369WAT     H2 1319   0.201   0.307   3.013  0.2129 -0.4735  0.5409
  370WAT      O 1320   2.146   2.660   4.718  0.4169 -0.5445 -0.3862
  370WAT     H1 1321   2.071   2.689   4.770  0.2123 -0.8794 -0.4888
  370WAT     H2 1322   2.151   2.723   4.646  0.3871 -0.3751 -0.2399
  371WAT      O 1323   3.613   1.214   0.594  0.5370  0.1918  0.1014
  371WAT     H1 1324   3.681   1.280   0.576  0.3063  0.8787  1.5978
  371WAT     H2 1325   3.532   1.255   0.564  0.4030  0.6013  0.9712
  372WAT      O 1326   1.420   0.412   3.582  0.1999 -0.4058 -0.3246
  372WAT     H1 1327   1.388   0.455   3.502  0.8318  1.8312  0.5443
  372WAT     H2 1328   1.341   0.381   3.626 -0.1083 -2.5231 -2.2066
  373WAT      O 1329   4.053   3.576   3.209  0.4854  0.1233  0.3689
  373WAT     H1 1330   4.021   3.661   3.236  1.8909  0.4551  1.0755
  373WAT     H2 1331   4.068   3.585   3.115 -0.3051  0.3329  0.2582
  374WAT      O 1332   1.706   1.552   4.227 -0.1459  0.3738 -0.2829
  374WAT     H1 1333   1.735   1.618   4.290  0.8031  0.0397 -0.3595
  374WAT     H2 1334   1.695   1.472   4.278 -1.0381  0.5140 -0.2389
  375WAT      O 1335   2.360   0.673   3.608  0.1538 -0.3419  0.1401
  375WAT     H1 1336   2.311   0.713   3.535  0.3206 -0.3358  0.0307
  375WAT     H2 1337   2.404   0.747   3.650  1.3754 -0.5285 -0.7483
  376WAT      O 1338   1.438   1.641   1.009  0.1050  0.3650  0.7921
  376WAT     H1 1339   1.503   1.711   1.007  2.1806 -1.4272  1.6651
  376WAT     H2 1340   1.486   1.563   0.982 -1.5408 -1.1562  2.0559
  377WAT      O 1341   1.952   1.529   2.409 -0.0609  0.2256 -0.5118
  377WAT     H1 1342   1.933   1.618   2.438 -2.6351  0.1162 -1.6274
  377WAT     H2 1343   1.867   1.490   2.393  1.0503 -1.9107 -1.6819
  378WAT      O 1344   3.070   1.903   3.820  0.0852  0.5372  0.2348
  378WAT     H1 1345   3.138   1.970   3.807 -1.5197  2.1461 -0.4155
  378WAT     H2 1346   3.091   1.863   3.904  0.5557  2.5826  1.1550
  379WAT      O 1347   3.770   4.856   4.601 -0.0781  0.1319  0.1159
  379WAT     H1 1348   3.702   4.805   4.645  0.0244 -0.7650 -0.7334
  379WAT     H2 1349   3.849   4.802   4.609  0.1291  0.3500 -0.4182
  380WAT      O 1350   0.630   3.558   1.004 -0.1117  0.2661  0.3869
  380WAT     H1 1351   0.535   3.571   1.014 -0.1847  0.3650 -0.3184
  380WAT     H2 1352   0.645   3.468   1.031 -0.4839  0.1058  0.0694
  381WAT      O 1353   1.493   0.241   3.306 -1.0535 -0.1866 -0.4942
  381WAT     H1 1354   1.475   0.179   3.237  1.9910 -1.7723 -0.0445
  381WAT     H2 1355   1.455   0.202   3.385 -1.9553  0.1639 -0.7469
  382WAT      O 1356   2.451   2.768   3.374 -0.4416 -0.0085 -0.1541
  382WAT     H1 1357   2.411   2.773   3.461 -0.9935 -1.1354 -0.3221
  382WAT     H2 1358   2.480   2.858   3.356 -0.6531  0.3169  1.0288
  383WAT      O 1359   1.372   2.170   4.693 -0.7859  0.4429 -0.3986
  383WAT     H1 1360   1.426   2.098   4.726  0.9931  1.4376 -1.0172
  383WAT     H2 1361   1.284   2.133   4.687 -0.2318 -1.1961  0.7946
  384WAT      O 1362   3.398   1.353   0.888  0.0877 -0.2300  0.0133
  384WAT     H1 1363   3.445   1.272   0.905  1.0663  0.7469  2.5102
  384WAT     H2 1364   3.317   1.345   0.938 -0.9705 -0.5986 -1.6896
  385WAT      O 1365   3.819   1.849   1.331  0.6974 -0.6437 -0.5205
  385WAT     H1 1366   3.911   1.844   1.355  0.5663 -0.6512 -0.0087
  385WAT     H2 1367   3.773   1.805   1.403  0.2250  0.2134 -0.2829
  386WAT      O 1368   2.206   2.935   4.049  0.5606  0.4110 -0.2915
  386WAT     H1 1369   2.128   2.890   4.082  0.2822  0.4939 -0.8357
  386WAT     H2 1370   2.262   2.945   4.126 -0.0970  0.6298  0.1624
  387WAT      O 1371   0.465   2.206   1.225 -0.1251  0.3451 -0.2661
  387WAT     H1 1372   0.453   2.111   1.232 -0.2811  0.2729 -1.3656
  387WAT     H2 1373   0.377   2.240   1.207  0.0586  0.6172 -0.6589
  388WAT      O 1374   0.806   4.420   0.256  0.6094  0.0732  0.3818
  388WAT     H1 1375   0.887   4.404   0.209  0.0639 -1.4127 -0.1120
  388WAT     H2 1376   0.737   4.408   0.190 -0.0039  2.1760  0.5728
  389WAT      O 1377   1.627   4.859   0.033 -0.2477  0.1933  0.0758
  389WAT     H1 1378   1.616   4.948   0.068 -0.2029 -0.2193  1.1845
  389WAT     H2 1379   1.692   4.819   0.090  0.1400 -0.3816 -0.7608
  390WAT      O 1380   3.690   0.846   4.838 -0.3639 -0.2817 -0.0477
  390WAT     H1 1381   3.721   0.840   4.748  0.4248  0.6941  0.1312
  390WAT     H2 1382   3.735   0.775   4.884 -3.2285 -2.9327 -0.9978
  391WAT      O 1383   2.702   0.103   4.076  0.0592  0.0574 -0.7031
  391WAT     H1 1384   2.607   0.117   4.084  0.3315  1.2618  1.4617
  391WAT     H2 1385   2.733   0.105   4.167  2.0650 -1.2339 -1.3034
  392WAT      O 1386   1.702   0.156   2.973 -0.0565 -0.5694  0.6138
  392WAT     H1 1387   1.676   0.225   2.913 -0.3195 -1.2261 -0.0422
  392WAT     H2 1388   1.773   0.194   3.024 -0.1604  0.1636  0.2207
  393WAT      O 1389   1.511   3.908   1.111 -0.2561  0.1444  0.6873
  393WAT     H1 1390   1.442   3.975   1.108 -0.5926 -0.2306 -1.3081
  393WAT     H2 1391   1.562   3.923   1.032 -0.3435 -1.9600  0.1764
  394WAT      O 1392   0.123   1.509   3.681  0.2234 -0.1850 -0.2721
  394WAT     H1 1393   0.181   1.494   3.756  0.6208  1.3196 -0.2474
  394WAT     H2 1394   0.182   1.516   3.606 -0.0711 -0.3830 -0.5236
  395WAT      O 1395   3.441   4.171   3.906 -0.0820 -0.0628 -0.3813
  395WAT     H1 1396   3.481   4.086   3.926 -0.1495 -0.1657 -0.6716
  395WAT     H2 1397   3.468   4.227   3.978 -1.1224 -0.6706  0.5073
  396WAT      O 1398   3.683   3.400   4.271  0.4205  0.7985 -0.2730
  396WAT     H1 1399   3.724   3.313   4.261 -0.2178  0.4356  0.1936
  396WAT     H2 1400   3.597   3.381   4.307 -1.3778  1.3045 -3.8643
  397WAT      O 1401   0.297   2.845   2.696 -0.0157  0.1169  0.0425
  397WAT     H1 1402   0.281   2.792   2.774  0.0176 -3.0577 -1.9500
  397WAT     H2 1403   0.385   2.822   2.667 -0.4959  0.2009 -1.6337
  398WAT      O 1404   4.041   2.961   3.374  0.8759  0.0618  0.0760
  398WAT     H1 1405   4.013   3.044   3.414 -0.2661 -0.5602  0.6455
  398WAT     H2 1406   4.020   2.971   3.281 -1.2308 -0.3109  0.4513
  399WAT      O 1407   1.501   0.280   4.771  0.0752  0.1987 -0.4703
  399WAT     H1 1408   1.589   0.276   4.808  0.0858 -0.3748 -0.5420
  399WAT     H2 1409   1.448   0.323   4.839  0.8067  2.4647 -1.2536
  400WAT      O 1410   1.995   1.068   2.309 -0.0781 -0.0975  0.4371
  400WAT     H1 1411   2.079   1.062   2.263 -0.0098  0.7907  0.4207
  400WAT     H2 1412   1.961   1.155   2.286  0.8968  1.2941  3.6297
  401WAT      O 1413   1.259   1.096   1.955 -0.2100 -0.7522  0.0319
  401WAT     H1 1414   1.337   1.051   1.989 -0.6221 -0.6253  1.2042
  401WAT     H2 1415   1.236   1.158   2.024 -0.1869  0.6532 -1.1763
  402WAT      O 1416   2.716   4.899   4.435  0.2374 -0.2905 -0.2514
  402WAT     H1 1417   2.799   4.854   4.449  0.2770 -0.5950 -1.3415
  402WAT     H2 1418   2.668   4.890   4.517  1.6151  0.6137  0.6777
  403WAT      O 1419   4.455   2.306   3.964  0.3607 -0.1524  0.3411
  403WAT     H1 1420   4.432   2.240   4.029 -0.1546  0.9299  1.2930
  403WAT     H2 1421   4.486   2.381   4.015  2.7433 -0.2833 -0.7622
  404WAT      O 1422   1.656   0.993   5.052 -0.0835  0.3164  0.3748
  404WAT     H1 1423   1.720   1.048   5.006 -0.6024 -0.5173 -1.4288
  404WAT     H2 1424   1.610   0.947   4.982 -1.2866 -0.6195  1.7395
  405WAT      O 1425   1.412   3.175   5.318  0.3800 -0.6007  0.0462
  405WAT     H1 1426   1.384   3.150   5.230  0.4440  0.0977 -0.1791
  405WAT     H2 1427   1.347   3.239   5.347  0.3261 -0.8684  0.5355
  406WAT      O 1428   3.088   0.902   3.763 -0.1454 -0.3091  0.4378
  406WAT     H1 1429   3.003   0.937   3.736  0.8892  0.4783 -2.0989
  406WAT     H2 1430   3.110   0.951   3.842 -1.7220 -0.0163  0.7204
  407WAT      O 1431   1.829   2.808   3.862  0.3035  0.3252 -0.3003
  407WAT     H1 1432   1.859   2.739   3.802  1.1951 -0.5857  1.1335
  407WAT     H2 1433   1.901   2.818   3.924 -0.7439  0.9732  0.8474
  408WAT      O 1434   3.072   2.972   0.485 -0.1291  0.0174 -0.2691
  408WAT     H1 1435   3.002   2.940   0.427 -0.0108 -0.2718 -0.2566
  408WAT     H2 1436   3.045   3.061   0.508 -1.5722 -0.7861  1.3977
  409WAT      O 1437   2.470   2.333   2.162 -0.6103 -0.2674  0.2744
  409WAT     H1 1438   2.505   2.401   2.105 -1.6580 -0.3153 -0.4376
  409WAT     H2 1439   2.515   2.347   2.246 -0.8524  1.3497  0.1705
  410WAT      O 1440   2.528   4.545   0.424  0.0680  0.5402  0.5470
  410WAT     H1 1441   2.453   4.486   0.437 -0.8925  1.4727 -0.5817
  410WAT     H2 1442   2.574   4.509   0.348 -0.4473  1.1667 -0.0655
  411WAT      O 1443   2.272   1.414   1.783 -0.3412 -0.8470 -0.2758
  411WAT     H1 1444   2.243   1.327   1.811 -0.6631 -0.4314  0.7603
  411WAT     H2 1445   2.255   1.469   1.859  0.3185  0.0266 -0.7512
  412WAT      O 1446   0.730   1.401   2.829  0.3346  0.4663  0.0123
  412WAT     H1 1447   0.784   1.473   2.861  1.0325  0.0756 -0.2629
  412WAT     H2 1448   0.776   1.322   2.856 -0.2263  0.1206 -0.0185
  413WAT      O 1449   2.022   2.830   1.889 -0.1100  0.1084 -0.3917
  413WAT     H1 1450   1.934   2.819   1.851  0.0957  1.1320 -1.2139
  413WAT     H2 1451   2.049   2.741   1.912 -1.2616 -0.2514 -0.3623
  414WAT      O 1452   4.404   3.297   1.792 -0.4031  0.4114  0.0855
  414WAT     H1 1453   4.400   3.256   1.878  1.5770  2.2180  1.1223
  414WAT     H2 1454   4.363   3.383   1.804  0.1834  0.8150 -0.6799
  415WAT      O 1455   1.465   2.895   4.639 -0.2981 -0.2361 -0.6168
  415WAT     H1 1456   1.452   2.866   4.729  0.2584 -0.8212 -0.7220
  415WAT     H2 1457   1.421   2.980   4.635  1.9130  1.0838  0.9344
  416WAT      O 1458   2.090   2.583   1.983 -0.4726 -0.1339  0.0529
  416WAT     H1 1459   2.110   2.521   1.914 -0.2519 -0.7708  0.6854
  416WAT     H2 1460   2.049   2.531   2.052 -1.0549  0.5577  0.2498
  417WAT      O 1461   0.357   2.731   1.955  0.2890  0.2196 -0.2224
  417WAT     H1 1462   0.364   2.636   1.969  0.9414  0.3966  0.7735
  417WAT     H2 1463   0.448   2.761   1.950  0.0906  0.8413 -0.1252
  418WAT      O 1464   1.739   4.779   1.283  0.0843 -0.6823  0.1509
  418WAT     H1 1465   1.646   4.798   1.278  0.1833 -0.1052  0.4531
  418WAT     H2 1466   1.754   4.714   1.215 -0.9662 -2.4934  1.5530
  419WAT      O 1467   1.888   3.948   0.571 -0.2311  0.1138 -0.2969
  419WAT     H1 1468   1.811   3.924   0.519 -0.0376  0.0541 -0.5585
  419WAT     H2 1469   1.880   3.895   0.651  0.6584 -1.5387 -1.2529
  420WAT      O 1470   1.656   4.201   0.954 -0.4547 -0.4286 -0.3131
  420WAT     H1 1471   1.588   4.176   1.017  0.3280 -0.7469  0.4244
  420WAT     H2 1472   1.617   4.181   0.868 -1.8619  0.8030 -0.0085
  421WAT      O 1473   1.665   2.147   3.399 -0.2932 -0.1752 -0.3239
  421WAT     H1 1474   1.576   2.113   3.409 -0.9991  1.2487 -1.4928
  421WAT     H2 1475   1.654   2.241   3.389  1.5093  0.3092  1.5317
  422WAT      O 1476   2.314   1.672   5.116 -0.5397  0.0457  0.1026
  422WAT     H1 1477   2.251   1.601   5.129  0.5506 -0.7177  1.4646
  422WAT     H2 1478   2.396   1.628   5.092  0.4513  0.6862  2.0728
  423WAT      O 1479   0.500   1.719   0.938 -0.4336  0.1025 -0.2332
  423WAT     H1 1480   0.493   1.712   0.843  0.9581  1.0864 -0.4351
  423WAT     H2 1481   0.567   1.655   0.962 -1.0544 -0.4240  0.1627
  424WAT      O 1482   2.400   0.762   2.651 -0.4057 -0.1943  0.2026
  424WAT     H1 1483   2.356   0.682   2.679 -0.5406 -0.5883 -1.0821
  424WAT     H2 1484   2.492   0.748   2.674 -0.5191 -0.4682  0.4983
  425WAT      O 1485   2.432   0.500   3.231  0.2052  0.3891  0.3146
  425WAT     H1 1486   2.525   0.516   3.248  0.2007 -0.2479  1.0529
  425WAT     H2 1487   2.415   0.415   3.273 -0.3567 -0.2396 -1.1283
  426WAT      O 1488   1.439   1.320   5.198  0.3434 -0.3224  0.7554
  426WAT     H1 1489   1.507   1.259   5.226 -0.3040 -0.8739  1.1425
  426WAT     H2 1490   1.388   1.337   5.277  0.3172  0.4601  0.5724
  427WAT      O 1491   4.362   4.113   4.670 -0.5005 -0.0070  0.4270
  427WAT     H1 1492   4.296   4.179   4.648 -1.3779 -0.8860  0.3690
  427WAT     H2 1493   4.314   4.030   4.671  0.2173 -0.4526  2.1903
  428WAT      O 1494   3.929   1.488   1.964  0.1496 -0.2084  0.1645
  428WAT     H1 1495   4.001   1.549   1.946 -0.1517  0.4874  1.2084
  428WAT     H2 1496   3.925   1.484   2.060 -1.2909 -0.1356  0.1201
  429WAT      O 1497   4.093   4.161   2.873  0.0583 -0.4239 -0.5135
  429WAT     H1 1498   4.062   4.089   2.928  1.0935 -0.4977  0.0003
  429WAT     H2 1499   4.137   4.118   2.799  0.5519 -0.3348 -0.2798
  430WAT      O 1500   3.269   0.613   3.308  0.2986 -0.7589 -0.1069
  430WAT     H1 1501   3.285   0.648   3.396 -0.1558  2.6236 -1.2394
  430WAT     H2 1502   3.207   0.542   3.322 -0.3826  0.1985  2.2523
  431WAT      O 1503   3.758   0.698   2.193 -0.2605  0.1635 -0.8089
  431WAT     H1 1504   3.791   0.644   2.265  1.8624 -0.4040 -2.1074
  431WAT     H2 1505   3.784   0.787   2.216  0.3194 -0.0004 -0.8247
  432WAT      O 1506   1.141   0.567   0.333 -0.1183 -0.2961 -0.3956
  432WAT     H1 1507   1.096   0.553   0.416  2.0055  1.6497  1.2302
  432WAT     H2 1508   1.074   0.604   0.276 -1.4851 -1.0722  0.6261
  433WAT      O 1509   1.877   0.447   2.560 -0.1403  0.0588 -0.3185
  433WAT     H1 1510   1.843   0.475   2.645 -2.0376 -1.3342 -0.5363
  433WAT     H2 1511   1.841   0.511   2.498  1.7856  1.4658 -0.0710
  434WAT      O 1512   0.936   4.187   2.475 -0.1708  1.1889 -0.0321
  434WAT     H1 1513   0.877   4.260   2.495 -1.1656  0.6991 -1.0973
  434WAT     H2 1514   0.973   4.209   2.389 -0.6914  0.3079 -0.4884
  435WAT      O 1515   0.128   4.317   2.197 -0.6161 -0.2179  0.0578
  435WAT     H1 1516   0.080   4.241   2.164 -0.4160 -0.2723 -0.1062
  435WAT     H2 1517   0.211   4.315   2.150 -0.4416 -0.1395  0.3661
  436WAT      O 1518   3.481   1.331   1.316 -0.4872 -0.1289 -0.3356
  436WAT     H1 1519   3.464   1.325   1.410 -0.1625  1.6795 -0.1295
  436WAT     H2 1520   3.522   1.417   1.304 -0.8247 -0.1808 -2.1833
  437WAT      O 1521   4.312   1.014   1.486  0.0636 -0.1494 -0.5184
  437WAT     H1 1522   4.358   0.983   1.409 -1.7508  0.0523 -1.7382
  437WAT     H2 1523   4.284   1.102   1.464 -2.1106 -0.7578 -0.4226
  438WAT      O 1524   3.761   2.257   1.882  0.6345  0.4160 -0.0679
  438WAT     H1 1525   3.692   2.225   1.824  0.3477  0.1080  0.4328
  438WAT     H2 1526   3.716   2.319   1.939  0.5488 -0.5285  0.9162
  439WAT      O 1527   0.219   0.531   0.598 -0.4160 -0.0259 -0.4009
  439WAT     H1 1528   0.266   0.491   0.525  3.2823  0.9655  1.1883
  439WAT     H2 1529   0.208   0.623   0.572  1.5470  0.5034  0.4142
  440WAT      O 1530   1.194   2.412   1.261  0.2344 -0.6200 -0.2272
  440WAT     H1 1531   1.134   2.477   1.299  1.1251  0.6138 -0.8796
  440WAT     H2 1532   1.160   2.398   1.173  0.4423 -0.5065 -0.3265
  441WAT      O 1533   3.167   4.205   3.905 -0.0208 -0.4630  0.0215
  441WAT     H1 1534   3.261   4.194   3.912 -0.0521  0.2096  3.0973
  441WAT     H2 1535   3.136   4.123   3.866  1.8227 -0.4653 -1.5624
  442WAT      O 1536   3.491   2.056   2.350  0.3545  0.3383  0.4598
  442WAT     H1 1537   3.456   2.145   2.342 -0.7031 -0.0807  0.3567
  442WAT     H2 1538   3.427   2.001   2.305  1.4627 -0.3763 -0.2778
  443WAT      O 1539   3.566   3.344   1.097 -0.4651 -0.3897  0.1866
  443WAT     H1 1540   3.644   3.385   1.133  0.0706  0.0954 -1.4228
  443WAT     H2 1541   3.516   3.314   1.173  1.0283 -0.2330  1.2525
  444WAT      O 1542   2.438   3.400   3.518 -0.1419  0.0959  0.4539
  444WAT     H1 1543   2.377   3.327   3.529 -1.6601  1.3218  0.5251
  444WAT     H2 1544   2.397   3.455   3.451  2.4549 -0.5863 -1.8351
  445WAT      O 1545   2.765   1.717   4.124 -0.2653 -0.6349 -0.0839
  445WAT     H1 1546   2.772   1.791   4.064 -1.0646 -1.6800 -1.5046
  445WAT     H2 1547   2.717   1.752   4.199 -3.1191 -0.3583 -1.9237
  446WAT      O 1548   4.460   3.565   0.124  0.1850 -0.8619 -0.1369
  446WAT     H1 1549   4.450   3.497   0.191 -0.8367 -0.8015 -0.2071
  446WAT     H2 1550   4.415   3.530   0.047  0.4427 -0.4866 -0.4647
  447WAT      O 1551   1.977   5.031   1.088 -0.2463  0.3388 -0.3176
  447WAT     H1 1552   2.034   5.070   1.155  0.5773  1.1725 -1.4492
  447WAT     H2 1553   1.902   5.091   1.084 -0.1364  0.4734 -0.3754
  448WAT      O 1554   1.663   4.507   2.436 -0.5807  0.3555  0.2037
  448WAT     H1 1555   1.579   4.476   2.470  0.2186 -0.9784  1.0595
  448WAT     H2 1556   1.705   4.547   2.512 -1.2239  2.8488 -0.6857
  449WAT      O 1557   3.612   4.061   4.107  0.1882 -0.0109 -0.1163
  449WAT     H1 1558   3.700   4.023   4.110  0.6901  1.1483  0.2780
  449WAT     H2 1559   3.554   3.985   4.107  1.1629 -0.7957  0.8430
  450WAT      O 1560   4.494   1.622   2.360 -0.7037 -0.4323 -0.4727
  450WAT     H1 1561   4.588   1.617   2.341 -0.6250  0.7917 -0.5035
  450WAT     H2 1562   4.456   1.548   2.314 -0.0587  0.4119 -2.4727
  451WAT      O 1563   1.339   3.227   0.522 -0.0158  0.4541  0.3070
  451WAT     H1 1564   1.368   3.232   0.613  1.6416  0.0819 -0.1614
  451WAT     H2 1565   1.284   3.149   0.518 -0.3195  0.6252  1.0348
  452WAT      O 1566   0.007   0.397   0.510 -0.3580 -0.4909 -0.4034
  452WAT     H1 1567   0.085   0.433   0.552 -1.8968  1.6016  0.8578
  452WAT     H2 1568   0.011   0.430   0.420  0.1293 -0.2504 -0.2992
  453WAT      O 1569   1.076   2.135   2.010 -0.3301 -0.1086 -0.0058
  453WAT     H1 1570   1.081   2.220   2.053  1.8566 -0.1404 -0.1075
  453WAT     H2 1571   1.099   2.072   2.079  0.7312 -0.3694 -0.5719
  454WAT      O 1572   1.365   4.176   1.346  0.5454  0.1598  0.5500
  454WAT     H1 1573   1.372   4.258   1.298 -0.1388 -0.0400  0.1079
  454WAT     H2 1574   1.299   4.125   1.300  2.2847 -1.4398 -0.3641
  455WAT      O 1575   1.658   2.429   2.961 -0.5139  0.3735  0.1391
  455WAT     H1 1576   1.596   2.498   2.938 -0.5568 -0.4958 -2.8766
  455WAT     H2 1577   1.616   2.348   2.932  1.1778 -0.4398 -0.2319
  456WAT      O 1578   0.751   3.721   4.664  0.1965 -0.4473 -0.5678
  456WAT     H1 1579   0.813   3.688   4.729  0.6783 -0.1276 -0.8569
  456WAT     H2 1580   0.802   3.781   4.610 -0.0528 -1.1024 -1.5827
  457WAT      O 1581   1.838   3.237   4.787  0.2630  0.3208 -0.1418
  457WAT     H1 1582   1.855   3.222   4.880 -0.3619 -0.7227 -0.1726
  457WAT     H2 1583   1.743   3.224   4.778  0.3299  0.3324 -0.9283
  458WAT      O 1584   3.632   1.767   4.146  0.4318  0.3221  1.0352
  458WAT     H1 1585   3.699   1.758   4.214  3.4601 -0.4787 -1.7956
  458WAT     H2 1586   3.596   1.678   4.136 -0.2029  0.4926  1.6883
  459WAT      O 1587   0.412   0.134   3.534  0.4066 -0.2100 -0.6934
  459WAT     H1 1588   0.469   0.211   3.537 -0.9892  1.0567 -3.1036
  459WAT     H2 1589   0.324   0.170   3.523 -0.3531 -2.1409 -1.3857
  460WAT      O 1590   1.456   4.291   0.633  0.3953 -0.3989 -0.0319
  460WAT     H1 1591   1.516   4.261   0.564 -1.0994 -1.1719 -1.0509
  460WAT     H2 1592   1.369   4.272   0.599 -0.4220 -0.2036  1.8201
  461WAT      O 1593   0.207   0.326   3.562 -0.5942  0.4796 -0.4124
  461WAT     H1 1594   0.116   0.332   3.531 -1.2134  1.2947  1.4117
  461WAT     H2 1595   0.253   0.395   3.514 -1.3944  1.3429  0.0332
  462WAT      O 1596   2.361   4.740   0.198  0.3136 -0.1122 -0.3212
  462WAT     H1 1597   2.441   4.708   0.155  0.1112 -0.6375 -0.3098
  462WAT     H2 1598   2.290   4.691   0.157  0.0343  0.0328 -0.0164
  463WAT      O 1599   0.981   0.041   0.239 -0.3277 -0.4679 -0.1666
  463WAT     H1 1600   0.955   0.034   0.147  0.4713  0.7366 -0.5107
  463WAT     H2 1601   1.040   0.117   0.241  0.5945 -1.1850  1.1388
  464WAT      O 1602   0.421   3.377   4.979  0.7185 -0.2390 -0.5819
  464WAT     H1 1603   0.371   3.352   5.056 -0.8497 -1.3084 -1.8616
  464WAT     H2 1604   0.419   3.472   4.979  0.4318 -0.2334  0.5037
  465WAT      O 1605   1.616   4.000   0.106  0.6989 -0.2614 -0.2249
  465WAT     H1 1606   1.575   4.041   0.182  0.7726 -0.6820  0.0451
  465WAT     H2 1607   1.581   3.911   0.105  1.5681 -0.6180 -0.0069
  466WAT      O 1608   3.384   2.230   0.693 -0.1215  1.0376  0.0287
  466WAT     H1 1609   3.373   2.187   0.608 -0.5905 -0.7082  0.9134
  466WAT     H2 1610   3.462   2.285   0.682  0.0286  0.5806 -1.4192
  467WAT      O 1611   0.161   1.132   4.197  0.2736  0.3437 -0.2850
  467WAT     H1 1612   0.093   1.067   4.216  0.5176  0.3363  0.6091
  467WAT     H2 1613   0.126   1.182   4.123 -1.4669  1.3858  1.1329
  468WAT      O 1614   4.039   2.471   1.016 -0.6395  0.3406  0.1503
  468WAT     H1 1615   3.970   2.433   0.962 -1.0387  1.6198 -0.2888
  468WAT     H2 1616   4.013   2.452   1.106 -0.1158 -1.5672 -0.0570
  469WAT      O 1617   1.157   2.532   2.765 -0.2271 -0.0394 -0.1680
  469WAT     H1 1618   1.214   2.569   2.833  0.4412 -2.7652  0.8826
  469WAT     H2 1619   1.071   2.527   2.806  0.3045 -2.2567  0.8007
  470WAT      O 1620   0.529   1.230   3.708 -0.0960 -0.0004 -0.0635
  470WAT     H1 1621   0.530   1.235   3.803 -2.2238  2.5525 -0.0419
  470WAT     H2 1622   0.472   1.156   3.688 -0.1388 -0.1705  0.6640
  471WAT      O 1623   4.496   1.587   3.367 -0.5710  0.1138  0.5503
  471WAT     H1 1624   4.591   1.589   3.373 -0.6479  0.1427  2.0647
  471WAT     H2 1625   4.469   1.678   3.379 -0.7305  0.5391 -2.2298
  472WAT      O 1626   0.858   4.952   2.415  0.2248  0.2328 -0.3096
  472WAT     H1 1627   0.800   4.955   2.491  1.2504  1.2068  0.4735
  472WAT     H2 1628   0.841   5.034   2.369 -0.7664 -0.5740 -1.4694
  473WAT      O 1629   0.612   3.689   2.097  0.1672  0.5181 -0.6008
  473WAT     H1 1630   0.607   3.683   2.193  0.7709  0.8736 -0.5338
  473WAT     H2 1631   0.533   3.646   2.065 -0.7468  1.6306  0.1026
  474WAT      O 1632   2.565   4.363   0.709  0.1821 -0.1374 -0.0228
  474WAT     H1 1633   2.491   4.391   0.763  1.1489  0.2098  1.1460
  474WAT     H2 1634   2.616   4.442   0.694  0.7114 -0.5123 -0.2239
  475WAT      O 1635   1.593   0.599   0.792  0.1030  0.0408  0.3842
  475WAT     H1 1636   1.517   0.591   0.735  0.4874  1.1909 -0.3340
  475WAT     H2 1637   1.659   0.542   0.751 -0.6251 -1.7651  1.5642
  476WAT      O 1638   3.018   1.001   1.222 -0.1611 -0.2205  0.1548
  476WAT     H1 1639   3.090   1.063   1.235 -0.7316  0.3799  0.5166
  476WAT     H2 1640   3.050   0.942   1.153  0.5687  0.1980  0.1176
  477WAT      O 1641   1.377   2.619   4.562  0.2258 -0.3170 -0.1822
  477WAT     H1 1642   1.384   2.713   4.547 -0.5542 -0.1591  0.3974
  477WAT     H2 1643   1.309   2.610   4.629 -1.4723 -1.4273 -1.9634
  478WAT      O 1644   0.968   4.282   4.618 -0.1625  0.7889  0.2647
  478WAT     H1 1645   0.955   4.242   4.532 -1.2691  1.6426  0.0140
  478WAT     H2 1646   0.896   4.248   4.671 -0.7947  1.9893  0.2024
  479WAT      O 1647   1.838   3.945   1.964  0.0944  0.0441 -0.4577
  479WAT     H1 1648   1.838   3.853   1.992  1.3685  0.6703  1.8121
  479WAT     H2 1649   1.931   3.965   1.950 -0.0059  1.4407  0.7110
  480WAT      O 1650   0.243   3.369   3.790  0.1234  0.1229 -0.5474
  480WAT     H1 1651   0.162   3.393   3.744 -0.5659 -0.4671  0.3297
  480WAT     H2 1652   0.232   3.403   3.878  0.7348 -0.1555 -0.3592
  481WAT      O 1653   2.069   4.665   1.690  0.5313 -0.0788  0.0920
  481WAT     H1 1654   2.029   4.752   1.693  1.6624  0.4700 -0.2211
  481WAT     H2 1655   2.021   4.619   1.621 -1.5123 -0.4807  1.6767
  482WAT      O 1656   4.354   4.054   1.638  0.2140 -0.0476 -0.3847
  482WAT     H1 1657   4.327   3.963   1.628  1.3253 -0.4482  0.0320
  482WAT     H2 1658   4.388   4.059   1.727 -1.2935  1.1913  0.1588
  483WAT      O 1659   0.423   0.015   3.817 -0.2389  0.2157 -0.3337
  483WAT     H1 1660   0.422   0.037   3.724 -1.3010  3.1276  0.2581
  483WAT     H2 1661   0.512   0.034   3.846 -1.0598  4.1701  0.1112
  484WAT      O 1662   3.229   4.470   4.075 -0.3256  0.1672  0.2751
  484WAT     H1 1663   3.185   4.436   3.997  0.4283  0.0769 -0.1260
  484WAT     H2 1664   3.300   4.524   4.040  0.6319 -0.6663  0.8897
  485WAT      O 1665   1.548   2.669   2.890  0.0655  0.4415 -0.1493
  485WAT     H1 1666   1.629   2.716   2.913  0.2472 -0.2066  0.5790
  485WAT     H2 1667   1.533   2.692   2.799  1.0237  0.6587 -0.2671
  486WAT      O 1668   0.856   1.162   2.882  0.0468  0.5421 -0.4627
  486WAT     H1 1669   0.931   1.104   2.891 -0.4133  0.2288  2.1438
  486WAT     H2 1670   0.782   1.103   2.864 -0.3307  0.2946  1.6719
  487WAT      O 1671   2.959   3.662   3.726  0.1846 -0.3376 -0.1964
  487WAT     H1 1672   2.894   3.592   3.737  1.9270 -2.1383 -0.8481
  487WAT     H2 1673   3.009   3.660   3.808 -0.4543  0.9726  0.2577
  488WAT      O 1674   2.662   2.194   1.765  0.0954  0.4396  0.3266
  488WAT     H1 1675   2.735   2.133   1.758  0.2560  0.7755 -1.2805
  488WAT     H2 1676   2.591   2.141   1.803  1.2499  0.2388  2.3577
  489WAT      O 1677   0.575   0.947   4.558 -0.3519  0.2325 -0.5333
  489WAT     H1 1678   0.633   0.905   4.494  0.3757 -0.3321  0.4580
  489WAT     H2 1679   0.494   0.896   4.554  0.7094 -1.7532  1.0645
  490WAT      O 1680   2.305   4.373   4.602  0.2442 -0.4668  0.2511
  490WAT     H1 1681   2.240   4.438   4.574 -1.3626 -2.8273 -1.9045
  490WAT     H2 1682   2.254   4.294   4.619  2.2857 -1.6156  1.4129
  491WAT      O 1683   1.176   1.738   1.145 -0.1515 -0.0549 -0.1277
  491WAT     H1 1684   1.266   1.712   1.125 -0.4043  0.3072 -1.9443
  491WAT     H2 1685   1.184   1.801   1.216  1.0912  0.4125 -0.6592
  492WAT      O 1686   2.997   3.112   1.007 -0.0802 -0.4653 -0.4669
  492WAT     H1 1687   2.903   3.126   1.001  0.1760  1.9821  0.2105
  492WAT     H2 1688   3.022   3.083   0.920 -1.2051  0.8765 -1.2885
  493WAT      O 1689   0.416   3.357   0.498 -0.3094 -0.1917 -0.4402
  493WAT     H1 1690   0.355   3.386   0.429 -2.5182 -3.3799 -0.0315
  493WAT     H2 1691   0.501   3.354   0.455 -1.2654 -0.1283 -2.4396
  494WAT      O 1692   4.036   3.011   5.277 -0.5419  0.5493  0.2744
  494WAT     H1 1693   3.960   2.953   5.273  0.1955 -0.3570 -1.2736
  494WAT     H2 1694   4.104   2.966   5.227  0.7007  1.8251  0.7388
  495WAT      O 1695   2.258   0.810   0.047 -0.0386 -0.1186  0.5138
  495WAT     H1 1696   2.290   0.756   0.120  0.2447  0.3643  0.7528
  495WAT     H2 1697   2.163   0.813   0.059  0.1485  1.5820  2.0436
  496WAT      O 1698   3.315   0.926   1.347 -0.3148  0.5172 -0.0084
  496WAT     H1 1699   3.258   1.002   1.335 -1.5334 -0.3371  0.1956
  496WAT     H2 1700   3.352   0.910   1.261 -1.0146  0.6050 -0.3336
  497WAT      O 1701   0.715   2.763   0.751  0.5016 -0.6252 -0.1002
  497WAT     H1 1702   0.631   2.740   0.710  0.0262 -0.4203  0.7242
  497WAT     H2 1703   0.692   2.780   0.843  1.5217 -0.9777  0.2258
  498WAT      O 1704   3.052   1.665   4.093 -0.8325 -0.3729  0.3549
  498WAT     H1 1705   2.962   1.698   4.090 -0.7576 -0.0679  1.2356
  498WAT     H2 1706   3.106   1.743   4.106 -0.2301 -0.2715 -2.2560
  499WAT      O 1707   3.364   5.078   2.945 -0.0267  0.0218 -0.1680
  499WAT     H1 1708   3.435   5.027   2.905  0.0412  0.5575 -0.7473
  499WAT     H2 1709   3.380   5.071   3.039  1.3951  0.9514 -0.3037
  500WAT      O 1710   1.774   3.604   1.212  0.0571  1.2354 -0.1189
  500WAT     H1 1711   1.773   3.582   1.305  2.2699 -0.3858 -0.4074
  500WAT     H2 1712   1.681   3.602   1.186 -0.4915  0.4960  1.7666
  501WAT      O 1713   1.801   1.888   2.889 -0.4203 -0.1845 -0.6141
  501WAT     H1 1714   1.707   1.877   2.902 -0.2167 -1.6316 -0.1092
  501WAT     H2 1715   1.836   1.799   2.894  1.1814  0.4692  0.7786
  502WAT      O 1716   2.934   0.875   1.649  0.2509 -0.0925  0.0250
  502WAT     H1 1717   2.887   0.923   1.717 -1.0291  0.2355 -1.0463
  502WAT     H2 1718   2.942   0.786   1.682  0.0726  0.1775  0.8051
  503WAT      O 1719   3.425   0.227   0.470  0.4444 -1.0024  0.4000
  503WAT     H1 1720   3.485   0.195   0.403  0.0440 -2.0821  0.5468
  503WAT     H2 1721   3.342   0.240   0.425  0.7434  0.4339  0.2109
  504WAT      O 1722   4.408   2.223   2.792 -0.0176  0.1282  0.5528
  504WAT     H1 1723   4.434   2.150   2.849 -1.1566 -1.3959 -0.7856
  504WAT     H2 1724   4.343   2.272   2.843 -0.3446 -0.6843  0.9268
  505WAT      O 1725   3.770   2.702   1.648  0.3064 -0.8725 -0.1263
  505WAT     H1 1726   3.773   2.758   1.726 -0.3841  0.9917 -1.3828
  505WAT     H2 1727   3.862   2.681   1.631  0.8723  1.8116 -0.8992
  506WAT      O 1728   2.556   2.545   1.929  0.0652  0.5185  0.5733
  506WAT     H1 1729   2.651   2.551   1.943  0.1828 -1.0118  0.5501
  506WAT     H2 1730   2.545   2.557   1.835  0.2732  0.3372  0.5243
  507WAT      O 1731   0.278   1.668   4.701  0.6373  0.6050  0.6092
  507WAT     H1 1732   0.199   1.694   4.750 -0.0514  1.1057 -0.7101
  507WAT     H2 1733   0.346   1.659   4.768  0.2778  3.3714  1.4693
  508WAT      O 1734   2.582   2.241   4.737  0.2474 -0.0854  0.3995
  508WAT     H1 1735   2.675   2.256   4.754  0.3683  1.0896 -1.0664
  508WAT     H2 1736   2.573   2.255   4.643 -1.4642  0.0748  0.5606
  509WAT      O 1737   3.367   0.769   1.994  0.2636  0.8213  0.4549
  509WAT     H1 1738   3.366   0.711   2.070 -0.1176  0.3467  0.0942
  509WAT     H2 1739   3.458   0.800   1.989  0.3354  0.7205  0.9929
  510WAT      O 1740   2.096   1.265   2.977  0.2894 -0.4103 -0.1189
  510WAT     H1 1741   2.028   1.331   2.968  0.1690 -0.6636 -1.2889
  510WAT     H2 1742   2.049   1.185   3.002 -0.0314 -0.8561 -1.9809
  511WAT      O 1743   1.233   5.007   0.767  0.3242 -0.3396 -0.3041
  511WAT     H1 1744   1.292   5.067   0.722 -0.2546 -0.1297 -0.8116
  511WAT     H2 1745   1.195   4.953   0.697  0.1527 -0.6794  0.0439
  512WAT      O 1746   2.910   3.518   1.028 -0.3206  0.3211 -0.8050
  512WAT     H1 1747   2.938   3.609   1.030  0.6761  0.0114  0.0726
  512WAT     H2 1748   2.989   3.469   1.003 -0.6743 -0.3549 -0.6268
  513WAT      O 1749   0.815   3.720   3.042  0.7063  0.2939 -0.4764
  513WAT     H1 1750   0.856   3.669   2.972  0.5794 -0.9711  0.3402
  513WAT     H2 1751   0.848   3.809   3.030  3.0269 -0.4925 -0.3719
  514WAT      O 1752   0.387   5.119   5.202 -0.4570 -0.3253  0.1292
  514WAT     H1 1753   0.400   5.092   5.293  0.8017 -0.6108 -0.1110
  514WAT     H2 1754   0.385   5.036   5.154 -3.5445 -0.3456  0.1175
  515WAT      O 1755   3.544   2.819   3.906 -0.0255  0.1159  0.0859
  515WAT     H1 1756   3.537   2.914   3.909  0.8197  0.2792 -1.9438
  515WAT     H2 1757   3.637   2.801   3.923 -0.0542 -0.3071 -0.1985
  516WAT      O 1758   2.014   4.185   2.721 -0.3075 -0.4188  0.0752
  516WAT     H1 1759   2.020   4.187   2.816 -0.5063 -0.6880  0.0954
  516WAT     H2 1760   2.105   4.192   2.691 -0.1777 -1.0643  0.2999
  517WAT      O 1761   0.890   0.349   3.286  0.2667 -0.2934  0.1544
  517WAT     H1 1762   0.847   0.328   3.369  1.4086 -1.3399  0.5018
  517WAT     H2 1763   0.887   0.444   3.281 -0.7398 -0.2655  0.8792
  518WAT      O 1764   2.631   1.491   4.056  0.6278 -0.3391 -0.3158
  518WAT     H1 1765   2.663   1.560   4.115 -0.2245 -0.0562 -0.1763
  518WAT     H2 1766   2.589   1.427   4.114 -1.8018  0.8025 -0.7178
  519WAT      O 1767   4.043  -0.004   2.426  0.5407  0.4637 -0.2444
  519WAT     H1 1768   3.968   0.046   2.459  0.0491 -1.7047  2.3398
  519WAT     H2 1769   4.109   0.004   2.495  1.3276 -0.4708 -0.8633
  520WAT      O 1770   0.918   1.367   2.204  0.0422 -0.1008 -0.2684
  520WAT     H1 1771   0.828   1.389   2.179  0.1396 -0.5078 -1.0128
  520WAT     H2 1772   0.973   1.415   2.142  0.3075 -0.5146 -0.3620
  521WAT      O 1773   0.758   1.688   0.569 -0.2586  0.6693  0.1655
  521WAT     H1 1774   0.851   1.682   0.548  0.0124  1.0730  1.2233
  521WAT     H2 1775   0.744   1.779   0.594 -0.8971  0.5697  0.1946
  522WAT      O 1776   3.923   4.720   3.819  0.1221 -0.0753 -0.4539
  522WAT     H1 1777   3.839   4.673   3.813 -0.0353  0.2797 -1.1491
  522WAT     H2 1778   3.974   4.687   3.745  1.8566 -2.6653  1.7192
  523WAT      O 1779   1.996   5.109   0.558  0.1721 -0.2742 -0.2259
  523WAT     H1 1780   1.944   5.157   0.622 -1.3082 -2.2843  0.1636
  523WAT     H2 1781   2.082   5.151   0.561 -0.0936  0.2323  2.4882
  524WAT      O 1782   0.132   1.809   0.929  0.3001 -0.2179 -0.2963
  524WAT     H1 1783   0.182   1.752   0.870  1.6740 -0.7003  1.2388
  524WAT     H2 1784   0.041   1.799   0.901  0.4639 -3.2152 -0.1091
  525WAT      O 1785   0.031   0.169   1.374 -0.2160  0.8309  0.1776
  525WAT     H1 1786   0.012   0.082   1.409  2.5159  0.3763  0.8224
  525WAT     H2 1787  -0.030   0.181   1.301 -2.8590 -0.1989  2.1140
  526WAT      O 1788   3.935   3.792   4.248  0.7151 -0.2847  0.5486
  526WAT     H1 1789   3.917   3.727   4.316  2.8638  0.4314  1.8881
  526WAT     H2 1790   4.008   3.755   4.199 -0.4350 -0.5165 -1.0562
  527WAT      O 1791   4.437   2.878   2.730 -0.4165 -0.6575 -0.2179
  527WAT     H1 1792   4.512   2.877   2.671 -0.8688  0.1211 -0.8216
  527WAT     H2 1793   4.363   2.900   2.674 -1.0657 -1.1990  0.4102
  528WAT      O 1794   3.667   3.980   3.635  0.4591  0.1474 -0.4571
  528WAT     H1 1795   3.698   4.035   3.707 -0.4408  0.5825 -0.3867
  528WAT     H2 1796   3.572   3.980   3.645  0.3020  0.4702 -1.8270
  529WAT      O 1797   2.232   2.190   4.451  0.6495  0.1298 -0.2946
  529WAT     H1 1798   2.294   2.263   4.448  1.5367 -0.6283 -3.0796
  529WAT     H2 1799   2.252   2.137   4.374  0.8750 -3.7816  2.1415
  530WAT      O 1800   0.189   2.194   2.842  0.2797  0.1638 -0.1610
  530WAT     H1 1801   0.209   2.114   2.794  1.3058 -0.0400  0.5902
  530WAT     H2 1802   0.132   2.166   2.913  1.2987 -0.0536  0.5916
  531WAT      O 1803   4.411   3.611   3.255 -0.2558  0.3549  0.1348
  531WAT     H1 1804   4.368   3.676   3.199  1.4542  2.0872  0.7276
  531WAT     H2 1805   4.388   3.527   3.216 -1.6138  1.3567 -1.3415
  532WAT      O 1806   4.058   1.219   1.919 -0.5134  0.5163  0.7458
  532WAT     H1 1807   4.013   1.300   1.943  1.2452  1.2331  1.8001
  532WAT     H2 1808   4.121   1.245   1.852  0.2718  0.0949  1.3025
  533WAT      O 1809   1.669   2.397   3.604 -0.0043 -0.2722 -0.1259
  533WAT     H1 1810   1.624   2.473   3.641 -1.3466 -1.9104  1.8233
  533WAT     H2 1811   1.663   2.330   3.672  0.2658 -2.4574 -2.1189
  534WAT      O 1812   1.895   2.363   4.065 -0.2407  0.0418  0.2075
  534WAT     H1 1813   1.902   2.395   4.155  0.4884 -0.7266  0.4403
  534WAT     H2 1814   1.814   2.312   4.064 -1.1964  1.5191 -0.0633
  535WAT      O 1815   3.937   1.713   3.208 -0.1460  0.4565  0.0718
  535WAT     H1 1816   3.967   1.804   3.204  1.7788 -0.0763  1.2642
  535WAT     H2 1817   3.932   1.686   3.116 -0.9298  1.7903 -0.3114
  536WAT      O 1818   0.660   4.873   0.159 -0.4915 -0.9241  0.1516
  536WAT     H1 1819   0.615   4.818   0.095  0.0026 -0.3316 -0.7320
  536WAT     H2 1820   0.747   4.887   0.122  0.6275 -2.4484  2.0731
  537WAT      O 1821   2.315   3.326   4.567 -0.2092 -0.0433 -0.0478
  537WAT     H1 1822   2.242   3.278   4.606  0.7022 -1.3831  0.0889
  537WAT     H2 1823   2.319   3.408   4.617 -1.3520 -0.1198  0.2041
  538WAT      O 1824   0.294   2.666   4.092 -0.1489  0.0944 -0.4784
  538WAT     H1 1825   0.283   2.678   4.186  1.3809 -1.2435 -0.0817
  538WAT     H2 1826   0.304   2.755   4.057 -3.1616  0.8053  0.2164
  539WAT      O 1827   2.147   1.537   0.787  0.5911 -0.0722  0.4900
  539WAT     H1 1828   2.083   1.537   0.716  0.5220 -1.0863  0.5426
  539WAT     H2 1829   2.095   1.545   0.867  0.6492  0.7524  0.4550
  540WAT      O 1830   3.017   2.295   2.901  0.3079 -0.1066  0.0720
  540WAT     H1 1831   3.111   2.304   2.919  0.8130  1.4372 -2.6976
  540WAT     H2 1832   3.006   2.202   2.883  1.3759 -0.2659  0.1557
  541WAT      O 1833   0.089   0.198   4.669  0.4906 -0.4361 -1.1464
  541WAT     H1 1834   0.062   0.213   4.760 -0.0455 -0.6799 -1.2624
  541WAT     H2 1835   0.111   0.286   4.637  4.5708 -0.7169  0.3743
  542WAT      O 1836   2.747   3.171   0.932 -0.1814 -0.4304 -0.1932
  542WAT     H1 1837   2.719   3.262   0.939  2.3188  0.4445 -0.4929
  542WAT     H2 1838   2.696   3.136   0.858 -0.6556  0.9316 -0.5429
  543WAT      O 1839   4.292   0.212   0.613 -0.2872 -0.3224  0.2378
  543WAT     H1 1840   4.231   0.281   0.638  0.0329 -0.7978  2.4675
  543WAT     H2 1841   4.374   0.257   0.596 -0.4618 -0.0145  0.2011
  544WAT      O 1842   3.639   4.563   4.423 -0.8489 -0.3058  0.2291
  544WAT     H1 1843   3.644   4.481   4.374  0.4743  0.6076 -1.2813
  544WAT     H2 1844   3.729   4.585   4.443 -1.3380 -0.4899  2.9568
  545WAT      O 1845   0.114   1.244   1.098  0.3056  0.0146  0.4537
  545WAT     H1 1846   0.204   1.227   1.127  0.7573  0.2834 -0.7205
  545WAT     H2 1847   0.105   1.194   1.017 -0.7056 -0.2175  0.6950
  546WAT      O 1848   0.216   1.870   1.760  0.3030 -0.1472 -0.2134
  546WAT     H1 1849   0.203   1.953   1.805 -1.7576  0.9150 -2.5344
  546WAT     H2 1850   0.133   1.825   1.767  0.8187 -1.1801 -0.5612
  547WAT      O 1851   0.506   2.484   5.045 -0.3539 -0.6515  0.2545
  547WAT     H1 1852   0.524   2.557   4.986 -1.5872 -0.9134 -0.4914
  547WAT     H2 1853   0.591   2.445   5.063  0.1088 -0.2014 -0.8851
  548WAT      O 1854   0.758   4.693   3.724 -0.2434  0.2418 -0.1049
  548WAT     H1 1855   0.752   4.614   3.670  1.4370  0.6254 -0.9390
  548WAT     H2 1856   0.724   4.667   3.809 -0.5040 -1.1363 -0.6032
  549WAT      O 1857   0.935   4.493   3.343 -0.1747 -0.2429 -0.1152
  549WAT     H1 1858   0.920   4.401   3.325  0.3607 -0.0068 -1.9698
  549WAT     H2 1859   0.981   4.494   3.427  0.0787 -1.6651 -0.2174
  550WAT      O 1860   1.554   4.122   3.303 -0.2704  0.2267  0.3379
  550WAT     H1 1861   1.507   4.202   3.327  0.6522  0.8541  0.0978
  550WAT     H2 1862   1.503   4.051   3.343 -0.1675  1.0594  2.0095
  551WAT      O 1863   1.212   0.242   2.125 -0.8475  0.0919  0.2932
  551WAT     H1 1864   1.280   0.273   2.064 -1.7356  1.3573 -0.1011
  551WAT     H2 1865   1.224   0.148   2.128  0.7604  0.2662  0.0244
  552WAT      O 1866   4.353   0.981   3.813 -0.5444 -0.0508  0.1901
  552WAT     H1 1867   4.307   1.060   3.841 -0.1737 -0.3296  1.6983
  552WAT     H2 1868   4.284   0.918   3.792 -0.8509  0.2435  0.3200
  553WAT      O 1869   4.259   0.724   4.671 -0.3955  0.2130  0.1440
  553WAT     H1 1870   4.203   0.746   4.746  2.1548  2.2250  1.6367
  553WAT     H2 1871   4.246   0.796   4.610  0.8499  0.9770  0.7348
  554WAT      O 1872   2.590   1.541   1.487 -0.2804  0.3526  0.0775
  554WAT     H1 1873   2.638   1.470   1.444  2.1050  2.2512 -0.5742
  554WAT     H2 1874   2.525   1.569   1.422  0.5433  0.4876 -0.7064
  555WAT      O 1875   2.808   0.454   5.185  0.2144 -0.0691  0.1947
  555WAT     H1 1876   2.792   0.412   5.100 -1.2515  1.2051 -0.2129
  555WAT     H2 1877   2.854   0.388   5.236 -0.0752 -1.3617 -1.1385
  556WAT      O 1878   2.948   2.039   4.485 -0.4662  0.0178 -0.4086
  556WAT     H1 1879   2.892   2.057   4.410  0.7939  0.1903 -1.3437
  556WAT     H2 1880   3.023   1.991   4.448 -1.1029 -2.3442  1.1614
  557WAT      O 1881   0.571   1.601   2.724  0.3804 -0.1342  0.1537
  557WAT     H1 1882   0.538   1.573   2.639  1.5188 -1.6927  0.1733
  557WAT     H2 1883   0.621   1.526   2.756  1.1756  0.9389  1.5563
  558WAT      O 1884   3.075   0.363   3.019 -0.0737  0.1417 -0.1547
  558WAT     H1 1885   3.158   0.316   3.011 -0.1230  0.1558 -0.7713
  558WAT     H2 1886   3.086   0.442   2.966 -0.4815  0.1466 -0.2386
  559WAT      O 1887   1.033   4.685   1.918  0.0384 -0.0591 -0.1466
  559WAT     H1 1888   0.973   4.730   1.857 -0.5817 -0.2578  0.3106
  559WAT     H2 1889   0.976   4.647   1.984  0.6597 -0.4631  0.1654
  560WAT      O 1890   2.242   0.816   1.958  0.1099 -0.0597 -0.2182
  560WAT     H1 1891   2.329   0.797   1.922  1.1940  2.5104  0.8227
  560WAT     H2 1892   2.204   0.730   1.975  2.8952 -1.2952  0.3129
  561WAT      O 1893   0.215   3.043   3.612  0.0032  0.4804 -0.6712
  561WAT     H1 1894   0.290   3.039   3.554 -0.2961 -0.3021 -1.0148
  561WAT     H2 1895   0.140   3.052   3.554 -0.2086  0.8331 -0.3499
  562WAT      O 1896   1.082   4.926   4.393  0.2147  0.1791  0.3224
  562WAT     H1 1897   1.168   4.913   4.434  0.5143  0.6593 -0.1444
  562WAT     H2 1898   1.029   4.853   4.425  0.4258  0.5626  1.5869
  563WAT      O 1899   0.213   0.741   0.424  0.2541  0.6033 -0.5788
  563WAT     H1 1900   0.265   0.816   0.394 -1.5576  1.0163 -2.9728
  563WAT     H2 1901   0.186   0.697   0.344  0.2240 -1.9610  0.7204
  564WAT      O 1902   1.053   2.169   0.188  0.7798  0.0106  0.0459
  564WAT     H1 1903   1.146   2.192   0.178  1.0376 -1.2197 -0.6241
  564WAT     H2 1904   1.027   2.139   0.101 -0.1089 -0.1498  0.3615
  565WAT      O 1905   2.141   0.262   3.146  0.2769  0.2112  0.1362
  565WAT     H1 1906   2.152   0.174   3.182 -1.8523  0.5318  1.6862
  565WAT     H2 1907   2.047   0.275   3.141  0.4981  1.4722 -2.5341
  566WAT      O 1908   4.048   4.545   4.214  0.7823 -0.2464  0.1513
  566WAT     H1 1909   4.071   4.470   4.159  1.8920  0.3447 -0.2452
  566WAT     H2 1910   4.005   4.606   4.154  0.3414 -0.3526  0.3577
  567WAT      O 1911   2.347   4.856   1.148  0.1605 -0.1409 -0.2014
  567WAT     H1 1912   2.409   4.856   1.076 -1.2394  0.3643 -1.4506
  567WAT     H2 1913   2.263   4.833   1.108 -1.0236  1.9397  0.9077
  568WAT      O 1914   3.320   3.507   4.031 -0.0321 -0.7340 -0.0845
  568WAT     H1 1915   3.368   3.533   3.952 -0.0126 -0.5112  0.0006
  568WAT     H2 1916   3.247   3.568   4.036  0.1216 -0.5726  0.2208
  569WAT      O 1917   2.790   3.225   4.408  0.2248 -0.1806 -0.3810
  569WAT     H1 1918   2.829   3.137   4.411  0.0893 -0.2247  1.6694
  569WAT     H2 1919   2.699   3.212   4.432  0.3206  0.5719  0.4377
  570WAT      O 1920   1.460   1.007   2.823  0.1332  0.0210  0.5372
  570WAT     H1 1921   1.464   1.038   2.733  1.9421 -0.3212  0.4516
  570WAT     H2 1922   1.442   0.913   2.816 -0.2391  0.0898  0.5606
  571WAT      O 1923   3.942   2.155   0.973  0.4039  0.2412  0.0732
  571WAT     H1 1924   3.902   2.135   0.889 -0.4850 -0.8340  0.7214
  571WAT     H2 1925   3.871   2.147   1.036  1.2827 -0.0743  1.0648
  572WAT      O 1926   0.920   2.273   3.288  0.1793 -0.4770  0.2392
  572WAT     H1 1927   0.876   2.303   3.368  0.9077 -2.1117  1.2879
  572WAT     H2 1928   0.927   2.352   3.234 -0.8488  0.5437  1.5330
  573WAT      O 1929   1.567   3.389   1.577  0.8715  0.0814  0.8263
  573WAT     H1 1930   1.595   3.395   1.669 -1.6769 -1.2140  1.7800
  573WAT     H2 1931   1.559   3.295   1.561 -2.2385  0.2978  0.5284
  574WAT      O 1932   2.397   2.403   4.465  0.1942 -0.4400 -0.0582
  574WAT     H1 1933   2.397   2.489   4.422  0.2224  0.0201  0.8275
  574WAT     H2 1934   2.489   2.385   4.483  0.0407  0.7644  2.4215
  575WAT      O 1935   3.939   4.482   2.375  0.0893  0.4932 -0.8016
  575WAT     H1 1936   4.019   4.461   2.422 -0.8577  0.4380  0.8531
  575WAT     H2 1937   3.943   4.577   2.363 -1.1371  1.0874  2.4306
  576WAT      O 1938   1.199   4.224   4.967 -0.3216  0.0640 -0.4356
  576WAT     H1 1939   1.221   4.266   5.050  2.3838  0.0223 -1.0292
  576WAT     H2 1940   1.106   4.202   4.975 -0.2533  0.4218  2.3953
  577WAT      O 1941   1.715   3.646   3.634  0.1221 -0.2229 -0.6176
  577WAT     H1 1942   1.703   3.629   3.727 -0.1543 -1.2637 -0.8363
  577WAT     H2 1943   1.808   3.666   3.626  0.5122 -1.8011 -0.3510
  578WAT      O 1944   3.545   0.051   0.320  0.2377  0.3220 -0.1699
  578WAT     H1 1945   3.572   0.014   0.236 -0.0834 -1.2196  0.3708
  578WAT     H2 1946   3.458   0.014   0.335  0.3699  0.4243  0.9296
  579WAT      O 1947   3.796   3.355   2.557 -0.3406  0.2170  0.5207
  579WAT     H1 1948   3.869   3.306   2.596 -1.1410 -0.3604  1.3378
  579WAT     H2 1949   3.790   3.435   2.609 -0.7031 -0.0389  0.8745
  580WAT      O 1950   2.820   2.666   4.746  0.1829  0.2351 -0.0806
  580WAT     H1 1951   2.817   2.650   4.840  1.9627 -1.5767 -0.2724
  580WAT     H2 1952   2.873   2.745   4.738 -0.2982  0.6228  0.4359
  581WAT      O 1953   1.817   4.438   4.896 -0.2969  0.0774 -0.2271
  581WAT     H1 1954   1.842   4.345   4.904 -1.3793 -0.2831 -0.8989
  581WAT     H2 1955   1.773   4.458   4.978  1.1902  0.4254  0.5288
  582WAT      O 1956   4.218   1.283   3.509  0.2950  0.3674  0.3903
  582WAT     H1 1957   4.180   1.367   3.483  1.3266  0.3262 -1.4529
  582WAT     H2 1958   4.309   1.302   3.530  0.7237 -0.3330 -0.6911
  583WAT      O 1959   0.244   1.542   5.242  0.1381 -0.3874 -0.1863
  583WAT     H1 1960   0.159   1.498   5.234  0.1825 -0.8675  1.5106
  583WAT     H2 1961   0.222   1.632   5.267  0.1127 -0.2138 -0.8226
  584WAT      O 1962   2.504   4.011   4.140 -0.3270  0.3182  0.0477
  584WAT     H1 1963   2.525   4.024   4.232  4.1873 -2.7104 -0.2704
  584WAT     H2 1964   2.565   4.068   4.093  0.4038 -1.3227 -1.0428
  585WAT      O 1965   1.664   1.845   3.468  0.4736 -0.1026  0.1794
  585WAT     H1 1966   1.586   1.806   3.507  0.0754 -1.3178 -1.7157
  585WAT     H2 1967   1.637   1.933   3.443 -0.1304 -0.3365 -0.0041
  586WAT      O 1968   3.357   2.528   1.745 -0.5404 -0.1239 -0.1029
  586WAT     H1 1969   3.276   2.579   1.742  0.4012  1.4340 -2.5254
  586WAT     H2 1970   3.401   2.548   1.662  3.2192  0.6227  1.8487
  587WAT      O 1971   1.534   3.281   3.341  0.8582 -0.0083  0.7042
  587WAT     H1 1972   1.609   3.311   3.392  1.9006 -1.8639  0.3526
  587WAT     H2 1973   1.569   3.264   3.254 -0.3643  0.7169  0.0413
  588WAT      O 1974   1.577   3.106   1.528  0.8482  0.0098 -0.0147
  588WAT     H1 1975   1.647   3.096   1.463  0.2473  0.6964 -0.8092
  588WAT     H2 1976   1.608   3.060   1.605  1.4185 -1.1776 -0.9285
  589WAT      O 1977   1.339   0.271   0.803 -0.2137  0.1833 -0.0055
  589WAT     H1 1978   1.321   0.302   0.891 -0.3732  1.7592 -0.5571
  589WAT     H2 1979   1.308   0.180   0.802  2.1967 -0.8173  2.3177
  590WAT      O 1980   2.914   4.445   4.656  0.0850  0.4102 -0.1208
  590WAT     H1 1981   2.884   4.388   4.727  0.4533 -0.6593 -0.7929
  590WAT     H2 1982   2.918   4.387   4.580  1.3048  1.1328 -0.6330
  591WAT      O 1983   0.887   0.007   1.587  0.5569 -0.2607  0.2319
  591WAT     H1 1984   0.876   0.022   1.681 -0.9250  0.0750  0.0327
  591WAT     H2 1985   0.941   0.081   1.557  2.7660 -1.4302  1.1102
  592WAT      O 1986   0.219   3.061   3.101  0.1275 -0.0279  0.5930
  592WAT     H1 1987   0.263   2.982   3.131  1.1368  0.2374 -0.1257
  592WAT     H2 1988   0.131   3.032   3.077  0.1137 -0.6987  1.4055
  593WAT      O 1989   2.014   1.669   2.819  0.0762  0.1284 -0.1545
  593WAT     H1 1990   2.065   1.588   2.813  0.3636  0.2687  0.3863
  593WAT     H2 1991   2.067   1.727   2.872 -0.1797  0.6415 -0.4550
  594WAT      O 1992   2.886   4.185   1.034  0.0302 -0.0555 -0.0978
  594WAT     H1 1993   2.941   4.262   1.018 -0.4865  0.6900  1.4534
  594WAT     H2 1994   2.798   4.211   1.005  0.1282 -0.5934 -0.9028
  595WAT      O 1995   3.370   4.703   4.003 -0.0512  0.0097  0.5190
  595WAT     H1 1996   3.347   4.707   3.910  0.7232  0.9475  0.3605
  595WAT     H2 1997   3.333   4.784   4.040  1.7734  0.9030  0.5152
  596WAT      O 1998   0.647   4.099   0.045  0.4634  0.3296  0.2506
  596WAT     H1 1999   0.619   4.190   0.032  0.5622  0.3838  0.4084
  596WAT     H2 2000   0.623   4.080   0.136  0.9564  0.3862  0.3957
  597WAT      O 2001   0.448   0.237   1.712 -0.7126 -0.0792  0.1632
  597WAT     H1 2002   0.409   0.320   1.740  0.0595  0.3529  0.0007
  597WAT     H2 2003   0.482   0.198   1.793  1.6540  1.2402 -0.0750
  598WAT      O 2004   2.905   4.016   0.702  0.5065 -0.3616  0.1147
  598WAT     H1 2005   2.871   3.928   0.686  1.7975 -0.9323  0.4459
  598WAT     H2 2006   2.828   4.066   0.731  0.0323 -1.7491  1.3825
  599WAT      O 2007   0.418   1.952   3.784 -0.0850 -0.1898 -0.1639
  599WAT     H1 2008   0.485   1.900   3.829 -1.0315  0.0428  1.6340
  599WAT     H2 2009   0.352   1.889   3.758 -0.4940 -0.1087  0.6302
  600WAT      O 2010   3.529   0.504   1.574 -0.0183  0.1987  0.2475
  600WAT     H1 2011   3.546   0.512   1.480  0.1907  0.5161  0.3088
  600WAT     H2 2012   3.501   0.592   1.600  1.7911  0.6376  0.8504
  601WAT      O 2013   2.508   3.506   0.499 -0.0262  0.2041  0.2522
  601WAT     H1 2014   2.460   3.561   0.561 -1.8261 -0.0404 -0.8435
  601WAT     H2 2015   2.516   3.561   0.420  0.6407 -0.1099  0.0986
  602WAT      O 2016   0.284   2.460   1.571 -0.0228  0.2610  0.2529
  602WAT     H1 2017   0.269   2.476   1.478 -0.8221  0.2359  0.3712
  602WAT     H2 2018   0.246   2.536   1.615  2.5494  1.5289  0.4564
  603WAT      O 2019   3.406   3.252   3.843  0.3109 -0.2585 -0.0474
  603WAT     H1 2020   3.356   3.216   3.770  1.7298 -0.4035 -0.9967
  603WAT     H2 2021   3.403   3.346   3.831  0.6690 -0.2888 -0.3899
  604WAT      O 2022   4.054   2.824   0.808 -0.1898 -0.3498 -0.2640
  604WAT     H1 2023   4.148   2.827   0.791  0.3053  0.1006  2.1700
  604WAT     H2 2024   4.024   2.915   0.799 -0.0574 -0.2247  0.4700
  605WAT      O 2025   4.114   2.114   4.764  0.0383  0.1513  0.0494
  605WAT     H1 2026   4.122   2.206   4.738  1.5201 -0.0786 -0.3918
  605WAT     H2 2027   4.122   2.116   4.860 -0.6193  0.5370  0.1017
  606WAT      O 2028   4.287   1.418   1.520 -0.0422  0.0984 -0.1053
  606WAT     H1 2029   4.280   1.414   1.425  0.8372  1.1516 -0.2442
  606WAT     H2 2030   4.379   1.395   1.538  0.1258  1.0509  0.3682
  607WAT      O 2031   1.393   0.640   1.252  0.6150  0.1878 -0.1562
  607WAT     H1 2032   1.379   0.727   1.213  3.1262  1.2807  1.1636
  607WAT     H2 2033   1.417   0.585   1.177 -0.8740  0.6087 -0.9935
  608WAT      O 2034   0.108   2.235   0.363 -0.1668 -0.5845  0.3346
  608WAT     H1 2035   0.099   2.141   0.347 -0.9118 -0.6454  1.0464
  608WAT     H2 2036   0.034   2.275   0.317  0.6121 -0.2485 -0.6636
  609WAT      O 2037   1.724   0.872   1.112 -0.0680 -0.0024  0.3915
  609WAT     H1 2038   1.788   0.858   1.182  0.0240  0.8035  0.4787
  609WAT     H2 2039   1.741   0.961   1.082 -0.7237 -0.0142 -0.0227
  610WAT      O 2040   3.200   4.302   2.127  0.1007  0.0363  0.2152
  610WAT     H1 2041   3.238   4.385   2.157 -1.7664  0.1660  2.5669
  610WAT     H2 2042   3.208   4.305   2.032  1.3741  2.2396  0.3087
  611WAT      O 2043   3.223   1.533   3.139  0.4064 -0.0672 -0.0886
  611WAT     H1 2044   3.305   1.511   3.183  0.4141 -1.7982 -0.9117
  611WAT     H2 2045   3.179   1.593   3.199  1.2169 -0.9435  1.4265
  612WAT      O 2046   0.157   4.713   3.238 -0.9597  0.2663  0.2477
  612WAT     H1 2047   0.084   4.675   3.286  0.7011 -0.3192  2.4860
  612WAT     H2 2048   0.212   4.638   3.215 -0.3031  0.8306 -0.0642
  613WAT      O 2049   3.785   1.070   2.777  0.3163 -0.0767 -0.0616
  613WAT     H1 2050   3.697   1.062   2.812 -0.3177 -2.7372 -2.0172
  613WAT     H2 2051   3.802   0.987   2.733  2.8360  1.2788 -1.9318
  614WAT      O 2052   0.054   2.632   1.383  1.1061  0.6631 -0.1256
  614WAT     H1 2053   0.033   2.717   1.344  0.9543  0.4918 -0.4212
  614WAT     H2 2054   0.141   2.611   1.350  1.8921  1.4937  1.3046
  615WAT      O 2055   4.052   1.025   3.204  0.5154  0.3322  0.3993
  615WAT     H1 2056   3.996   1.099   3.179  1.4190  1.0323  0.3675
  615WAT     H2 2057   4.008   0.948   3.169  0.4165  1.0233 -1.0974
  616WAT      O 2058   2.339   4.130   1.015 -0.5267  0.4160  0.1537
  616WAT     H1 2059   2.352   4.221   1.043  0.8678 -0.6079  3.3774
  616WAT     H2 2060   2.265   4.100   1.068  0.4157 -0.8780  0.7731
  617WAT      O 2061   3.982   1.857   0.990 -0.0782 -0.1867 -0.6380
  617WAT     H1 2062   4.005   1.950   0.987 -1.2099  0.0994 -0.8068
  617WAT     H2 2063   3.888   1.855   0.972 -0.2404 -1.2944  0.2411
  618WAT      O 2064   4.468   3.724   2.780 -0.0168 -0.2152 -0.5892
  618WAT     H1 2065   4.459   3.656   2.846 -1.3166 -0.4552 -0.9992
  618WAT     H2 2066   4.521   3.685   2.711  2.0079  0.2841  0.6088
  619WAT      O 2067   1.734   0.294   1.278  0.3398  0.4072  0.0028
  619WAT     H1 2068   1.643   0.290   1.305 -0.0455 -0.8793 -1.3532
  619WAT     H2 2069   1.756   0.388   1.281 -1.3545  0.8548 -0.6805
  620WAT      O 2070   1.238   1.018   0.584  0.3905  0.1088  0.3023
  620WAT     H1 2071   1.278   1.085   0.529  1.8842 -1.5391 -0.7152
  620WAT     H2 2072   1.210   0.950   0.522 -0.3976 -0.5567  1.3607
  621WAT      O 2073   0.734   5.160   0.716 -0.0015 -0.1549  0.0240
  621WAT     H1 2074   0.702   5.082   0.670 -1.3118  0.7483 -0.6372
  621WAT     H2 2075   0.780   5.125   0.792 -2.9550 -1.5537  1.3072
  622WAT      O 2076   3.163   0.218   1.058  0.8548  0.3221 -0.1861
  622WAT     H1 2077   3.134   0.306   1.034 -0.2424  0.1082  0.2826
  622WAT     H2 2078   3.134   0.163   0.986  2.6300  0.5009 -1.0744
  623WAT      O 2079   2.345   2.954   2.869  0.1616 -0.0831 -0.1754
  623WAT     H1 2080   2.256   2.926   2.846  0.0612 -0.4689  0.6687
  623WAT     H2 2081   2.354   3.039   2.826 -0.3373 -0.3794 -0.8992
  624WAT      O 2082   3.105   0.421   4.085 -0.3414  0.8558 -0.2222
  624WAT     H1 2083   3.161   0.440   4.160 -2.8326 -0.2284  2.1121
  624WAT     H2 2084   3.087   0.507   4.046  0.7480  1.4841  0.5981
  625WAT      O 2085   1.686   3.241   0.012  0.2455 -0.3478 -0.1206
  625WAT     H1 2086   1.595   3.211   0.010  0.8730 -2.3630 -1.7978
  625WAT     H2 2087   1.714   3.227   0.102 -1.2987  1.0777  0.6368
  626WAT      O 2088   2.338   2.082   3.638  0.0352  0.0482 -0.1474
  626WAT     H1 2089   2.382   2.118   3.562 -0.9708  1.3284 -0.1631
  626WAT     H2 2090   2.409   2.061   3.699  0.7949 -0.2211 -1.1087
  627WAT      O 2091   1.866   4.873   3.786 -0.2502  0.6121 -0.0975
  627WAT     H1 2092   1.930   4.900   3.720 -1.4494 -0.3683 -1.7453
  627WAT     H2 2093   1.900   4.790   3.820 -0.6367  0.0589 -1.0179
  628WAT      O 2094   1.393   0.087   3.528 -0.3519 -0.2551 -0.3128
  628WAT     H1 2095   1.342   0.049   3.457 -2.2921 -2.0364  1.8738
  628WAT     H2 2096   1.328   0.127   3.586  1.1523  1.0997  0.5210
  629WAT      O 2097   3.272   2.602   5.171  0.4010 -0.3925 -0.7699
  629WAT     H1 2098   3.357   2.619   5.210  1.4554 -2.0028 -2.2350
  629WAT     H2 2099   3.291   2.576   5.081 -1.7296  0.3019 -1.4849
  630WAT      O 2100   2.110   3.306   4.976 -0.3940  0.2561 -0.1543
  630WAT     H1 2101   2.034   3.358   5.001 -0.9406 -0.0644 -1.1226
  630WAT     H2 2102   2.114   3.312   4.880  0.8013  0.2707 -0.1259
  631WAT      O 2103   0.652   4.515   2.294 -0.8281  0.3651 -0.2216
  631WAT     H1 2104   0.615   4.441   2.245 -1.6067  0.4762  0.1886
  631WAT     H2 2105   0.717   4.476   2.351  0.1211  0.2335 -1.3542
  632WAT      O 2106   3.575   1.875   0.387 -0.5341 -0.0055 -0.4554
  632WAT     H1 2107   3.660   1.837   0.406 -1.0665 -1.8799 -1.5435
  632WAT     H2 2108   3.520   1.850   0.462 -0.9777 -1.8234 -1.3315
  633WAT      O 2109   0.608   4.752   3.954  0.3057  0.2811 -0.2280
  633WAT     H1 2110   0.582   4.830   3.905  1.1223  0.4955 -0.3450
  633WAT     H2 2111   0.655   4.787   4.030 -0.8915 -0.0522  0.6828
  634WAT      O 2112   2.770   2.141   3.012 -0.0841  0.1528 -0.1099
  634WAT     H1 2113   2.687   2.160   2.968  0.6220  1.1164 -1.0758
  634WAT     H2 2114   2.823   2.219   2.999  1.5226 -0.9989 -0.8346
  635WAT      O 2115   3.110   1.827   3.553 -0.3549  0.4263  0.0682
  635WAT     H1 2116   3.093   1.907   3.503  0.5722  1.8714  1.9776
  635WAT     H2 2117   3.081   1.847   3.642  0.0282 -1.3382  0.6393
  636WAT      O 2118   2.594   0.699   1.424  0.2610 -0.1674  0.2947
  636WAT     H1 2119   2.689   0.711   1.427  0.1941  0.2946  0.5764
  636WAT     H2 2120   2.559   0.759   1.490 -0.3052  0.5053 -0.5839
  637WAT      O 2121   3.724   2.519   3.770  0.0581 -0.1424  0.3187
  637WAT     H1 2122   3.698   2.446   3.825 -3.1584  0.7925  0.2656
  637WAT     H2 2123   3.781   2.572   3.825  0.6347 -1.5467  1.1069
  638WAT      O 2124   2.649   4.040   5.046  0.1437  0.1160  0.2561
  638WAT     H1 2125   2.736   4.071   5.071 -0.0927  2.8256 -1.8316
  638WAT     H2 2126   2.658   4.015   4.954 -1.3492  0.8995 -0.1335
  639WAT      O 2127   4.459   3.863   0.959 -0.8059 -0.0360 -0.7191
  639WAT     H1 2128   4.496   3.947   0.930  1.3900  1.0396  4.0860
  639WAT     H2 2129   4.534   3.804   0.964 -1.7160 -1.2451 -0.8694
  640WAT      O 2130   0.669   2.986   3.814  0.2770  0.2336  0.3891
  640WAT     H1 2131   0.683   2.923   3.885 -0.0685 -1.0292 -0.6093
  640WAT     H2 2132   0.609   3.051   3.850  0.0984 -0.3944  1.2455
  641WAT      O 2133   0.743   0.698   2.425 -0.4601  0.5237 -0.2445
  641WAT     H1 2134   0.727   0.621   2.478  0.6910 -0.4954 -1.2979
  641WAT     H2 2135   0.666   0.753   2.438 -0.8568 -0.3321  1.3059
  642WAT      O 2136   0.399   0.873   3.445  0.2957 -0.5591  0.0457
  642WAT     H1 2137   0.309   0.903   3.426 -0.2484 -1.0728  1.6946
  642WAT     H2 2138   0.410   0.889   3.538  2.2954  0.3644 -0.3022
  643WAT      O 2139   1.425   0.089   1.558  0.0397  0.2936  0.5847
  643WAT     H1 2140   1.403   0.014   1.612  1.2837 -0.6756 -0.1853
  643WAT     H2 2141   1.519   0.101   1.572 -0.3352  2.5156  1.6461
  644WAT      O 2142   3.614   3.263   0.641  0.0940  0.1130 -0.1812
  644WAT     H1 2143   3.562   3.189   0.674  0.8608  0.4942  2.0173
  644WAT     H2 2144   3.670   3.288   0.714  0.3798  2.4319 -1.1106
  645WAT      O 2145   2.309   4.755   1.896  0.3505  0.0286  0.3043
  645WAT     H1 2146   2.238   4.716   1.846  0.2776  1.9592 -1.2178
  645WAT     H2 2147   2.270   4.830   1.941  1.4048  1.2369 -0.7119
  646WAT      O 2148   0.941   3.246   3.942  0.1031 -0.2952  0.1115
  646WAT     H1 2149   1.037   3.242   3.937  0.0264 -1.4137 -0.9133
  646WAT     H2 2150   0.911   3.176   3.885 -1.3770  1.1324 -0.9611
  647WAT      O 2151   2.870   4.709   4.650 -0.3402 -0.2410 -0.1751
  647WAT     H1 2152   2.885   4.615   4.654 -0.1457 -0.1740  1.5531
  647WAT     H2 2153   2.930   4.741   4.583  2.1794 -0.9147  1.6351
  648WAT      O 2154   3.500   3.604   1.868  0.1040 -0.2291  0.3140
  648WAT     H1 2155   3.457   3.580   1.950 -0.8016 -1.8175 -0.5731
  648WAT     H2 2156   3.560   3.531   1.851  0.8961  0.4848 -0.0369
  649WAT      O 2157   2.310   4.082   0.352 -0.3050  0.2904  0.2429
  649WAT     H1 2158   2.368   4.021   0.398  0.1291 -0.4363 -1.2362
  649WAT     H2 2159   2.223   4.041   0.358 -0.0306 -0.4446 -0.6729
  650WAT      O 2160   1.565   0.497   3.065 -0.1070  0.5151 -0.4035
  650WAT     H1 2161   1.515   0.568   3.107 -1.1487 -0.5253  0.1718
  650WAT     H2 2162   1.498   0.436   3.034  0.6016  1.1808 -3.5857
  651WAT      O 2163   1.382   2.560   4.924 -0.6267  0.0684  0.2910
  651WAT     H1 2164   1.436   2.487   4.895 -0.2375  0.4631  0.0043
  651WAT     H2 2165   1.315   2.520   4.979  0.7268 -0.3257  1.7569
  652WAT      O 2166   3.098   4.030   4.180 -0.1255  0.0085 -0.2823
  652WAT     H1 2167   3.029   4.018   4.114 -0.8174  0.6820  0.2992
  652WAT     H2 2168   3.171   4.067   4.132 -0.8965  1.2474 -0.5520
  653WAT      O 2169   0.729   2.427   4.744  0.2119 -0.7265 -0.3409
  653WAT     H1 2170   0.774   2.364   4.688 -1.6550 -1.2797 -1.3164
  653WAT     H2 2171   0.657   2.378   4.784  0.8077 -0.0423  1.6728
  654WAT      O 2172   0.806   4.030   4.330 -0.9478 -0.1532  0.2124
  654WAT     H1 2173   0.829   3.980   4.409 -1.6991 -0.6798  0.1152
  654WAT     H2 2174   0.742   3.975   4.285 -3.1021  1.5908  0.9364
  655WAT      O 2175   3.539   3.000   2.135  0.2123 -0.0009  0.3386
  655WAT     H1 2176   3.519   3.038   2.220 -2.2452 -2.0958  0.7983
  655WAT     H2 2177   3.625   2.960   2.146  0.6768  1.1918  1.2644
  656WAT      O 2178   3.892   1.464   2.673  0.3881 -0.0260 -0.3898
  656WAT     H1 2179   3.813   1.426   2.711  1.1206 -0.9284  0.2599
  656WAT     H2 2180   3.864   1.550   2.641 -0.9047 -0.4273 -0.3895
  657WAT      O 2181   3.042   5.019   5.037  0.2486 -0.4163  0.1240
  657WAT     H1 2182   3.083   5.037   5.122  0.7280 -1.7320  0.2048
  657WAT     H2 2183   3.091   5.073   4.975 -0.0818  0.5295  0.6640
  658WAT      O 2184   2.049   4.263   4.008 -0.0626  0.3339  0.4377
  658WAT     H1 2185   1.957   4.236   4.011  0.1428 -0.7311 -1.3515
  658WAT     H2 2186   2.095   4.203   4.065 -0.1626 -0.7250 -0.5601
  659WAT      O 2187   0.965   0.865   0.232 -0.4824 -0.0572 -0.4847
  659WAT     H1 2188   0.905   0.794   0.210  0.0610 -0.3750 -0.9865
  659WAT     H2 2189   0.908   0.939   0.254 -1.0527 -0.5226 -0.3680
  660WAT      O 2190   0.245   3.689   2.250 -0.3340 -0.2969 -0.3765
  660WAT     H1 2191   0.324   3.741   2.237 -1.5204  1.8729  0.6202
  660WAT     H2 2192   0.177   3.736   2.202 -1.2932 -1.3981 -0.1451
  661WAT      O 2193   4.166   3.946   3.170 -0.1772  0.1782  0.4313
  661WAT     H1 2194   4.184   3.898   3.250 -1.2050  1.6626  1.6129
  661WAT     H2 2195   4.232   3.915   3.108  1.3492 -0.2264  2.1699
  662WAT      O 2196   0.559   3.963   1.269 -0.7581 -0.4148 -0.0120
  662WAT     H1 2197   0.635   3.957   1.211 -0.6388  0.5577  0.0256
  662WAT     H2 2198   0.597   3.959   1.357 -0.7887 -0.3550  0.0039
  663WAT      O 2199   3.556   2.106   4.756 -0.6423 -0.6330 -0.0399
  663WAT     H1 2200   3.464   2.092   4.734 -0.3750 -0.9601 -0.9967
  663WAT     H2 2201   3.588   2.021   4.785 -1.2458  0.0036  2.7201
  664WAT      O 2202   4.174   2.598   3.302 -0.0392 -0.0468 -0.0005
  664WAT     H1 2203   4.165   2.628   3.393  2.4928 -1.0794  0.6866
  664WAT     H2 2204   4.085   2.574   3.276 -0.5630 -2.0056  3.0505
  665WAT      O 2205   2.639   4.298   0.998  0.0767  0.4945  0.1633
  665WAT     H1 2206   2.607   4.366   0.938 -2.6070 -1.1335 -0.4344
  665WAT     H2 2207   2.633   4.337   1.085 -3.7566  0.3954  0.0916
  666WAT      O 2208   2.287   1.483   2.766 -0.6106 -0.6346  0.7579
  666WAT     H1 2209   2.335   1.403   2.788  0.9849  0.1549  0.3244
  666WAT     H2 2210   2.260   1.518   2.851 -1.1280 -1.4984  0.9624
  667WAT      O 2211   4.322   0.530  -0.004  0.1308 -0.1581  0.0406
  667WAT     H1 2212   4.415   0.545   0.014  0.0964 -0.0828  0.1545
  667WAT     H2 2213   4.310   0.436   0.011  0.3967 -0.3500 -0.9012
  668WAT      O 2214   0.743   1.962   0.630 -0.1805  0.7820  0.3217
  668WAT     H1 2215   0.828   1.991   0.663  0.0205  0.4721  0.0873
  668WAT     H2 2216   0.736   2.002   0.543 -0.0309  0.3757  0.1178
  669WAT      O 2217   3.116   4.554   2.398  0.0921 -0.3115  0.8379
  669WAT     H1 2218   3.024   4.575   2.418 -0.1349 -1.4100  0.9853
  669WAT     H2 2219   3.164   4.584   2.475  0.0662  1.6109  0.1625
  670WAT      O 2220   2.806   0.637   2.346  0.1783  0.3551  0.3023
  670WAT     H1 2221   2.715   0.639   2.374 -0.2484  1.2993 -1.0099
  670WAT     H2 2222   2.818   0.550   2.308  0.4204 -0.4832  2.2168
  671WAT      O 2223   1.686   4.249   0.416  0.3577 -0.2291  0.3415
  671WAT     H1 2224   1.644   4.179   0.365 -0.5291 -0.1665  0.9580
  671WAT     H2 2225   1.780   4.234   0.404  0.1785 -0.4097 -1.0269
  672WAT      O 2226   2.833   3.362   1.241 -0.0516 -0.1952 -0.0754
  672WAT     H1 2227   2.900   3.298   1.264  1.5551  1.3912 -0.0518
  672WAT     H2 2228   2.872   3.412   1.169 -0.9828  1.1242  0.3009
  673WAT      O 2229   3.989   0.721   3.169 -0.1023 -0.2223  0.2060
  673WAT     H1 2230   4.036   0.639   3.182 -0.0341  0.1327  2.6708
  673WAT     H2 2231   3.902   0.704   3.205 -0.0955  0.7567  0.7099
  674WAT      O 2232   3.893   1.405   1.587 -0.2358  0.8498  0.5337
  674WAT     H1 2233   3.826   1.447   1.533 -0.6858 -1.7958 -1.1651
  674WAT     H2 2234   3.967   1.465   1.584 -0.2031  0.8848 -3.2556
  675WAT      O 2235   2.593   4.058   3.578  0.0959 -0.5733  0.3554
  675WAT     H1 2236   2.522   4.117   3.603  0.4774 -0.5947  1.5528
  675WAT     H2 2237   2.620   4.017   3.660  1.2242 -0.8634 -0.1452
  676WAT      O 2238   3.987   2.410   3.189 -0.0887  0.3958  0.3842
  676WAT     H1 2239   4.021   2.351   3.256  1.4409  0.9446  0.1450
  676WAT     H2 2240   3.933   2.354   3.133  2.2442 -1.0921 -0.5214
  677WAT      O 2241   0.639   4.520   4.683  0.5659  0.0049 -0.1825
  677WAT     H1 2242   0.725   4.530   4.641  0.2713  1.5579 -0.4817
  677WAT     H2 2243   0.578   4.518   4.610  0.1317  1.7709  0.0811
  678WAT      O 2244   2.023   5.025   4.912 -0.3989  0.0835  0.0272
  678WAT     H1 2245   2.001   5.066   4.996  0.4970  0.5669  0.0437
  678WAT     H2 2246   2.100   4.971   4.932 -0.0544  0.3673 -0.5182
  679WAT      O 2247   2.887   1.432   0.258  0.1161 -0.2536  0.6264
  679WAT     H1 2248   2.962   1.478   0.221  1.0842 -2.0492  0.2915
  679WAT     H2 2249   2.841   1.499   0.310 -0.3532  1.9342 -2.3696
  680WAT      O 2250   2.431   2.049   1.830  0.3584  0.0690 -0.0430
  680WAT     H1 2251   2.444   2.039   1.925  2.3409  1.6978 -0.0690
  680WAT     H2 2252   2.442   1.960   1.796 -0.6995 -0.6079  1.2406
  681WAT      O 2253   2.595   1.607   1.733 -0.3770 -0.4540  0.1773
  681WAT     H1 2254   2.508   1.637   1.758 -0.3830  0.2323 -0.6156
  681WAT     H2 2255   2.587   1.583   1.641  0.1562 -0.8525  0.2277
  682WAT      O 2256   0.261   0.728   2.335  0.3693  0.0598 -0.0292
  682WAT     H1 2257   0.242   0.814   2.297  2.0834  0.6713  0.3647
  682WAT     H2 2258   0.185   0.707   2.389 -0.7691  0.5728 -1.3705
  683WAT      O 2259   2.190   2.115   2.655  0.2401  0.0715 -0.7403
  683WAT     H1 2260   2.285   2.114   2.662  0.1509  1.5071  1.8804
  683WAT     H2 2261   2.166   2.022   2.653  1.6256 -0.3466  0.3198
  684WAT      O 2262   3.408   2.056   1.909  0.5796  0.5343  0.1026
  684WAT     H1 2263   3.417   2.030   1.818 -1.3889  0.0331 -0.0014
  684WAT     H2 2264   3.361   2.140   1.905  0.6459  0.5997  0.6428
  685WAT      O 2265   0.992   0.616   5.020  0.7622 -0.4450  0.1223
  685WAT     H1 2266   0.934   0.675   5.067 -0.1745 -0.9461 -0.3575
  685WAT     H2 2267   1.016   0.664   4.941  0.5756 -0.4367  0.0705
  686WAT      O 2268   3.775   3.568   0.336  0.0171  0.5060 -0.4896
  686WAT     H1 2269   3.844   3.503   0.323 -0.9726 -0.2076 -2.5374
  686WAT     H2 2270   3.805   3.645   0.287 -0.0428  0.6694 -0.2735
  687WAT      O 2271   1.460   3.020   3.406  0.0406 -0.0519  0.1733
  687WAT     H1 2272   1.390   2.993   3.346  0.1443  0.3082 -0.1101
  687WAT     H2 2273   1.487   3.106   3.375 -1.8156  1.4400  2.3718
  688WAT      O 2274   0.317   2.395   0.848  0.6781  0.3440  0.3525
  688WAT     H1 2275   0.271   2.459   0.795  0.6995 -0.4784 -0.6888
  688WAT     H2 2276   0.252   2.364   0.911  0.4860  0.8821  0.4241
  689WAT      O 2277   0.455   3.679   4.976 -0.0162  0.3906  0.1221
  689WAT     H1 2278   0.526   3.701   5.036 -0.8628 -0.6697  1.5813
  689WAT     H2 2279   0.415   3.764   4.954  1.2849  0.9331 -0.2483
  690WAT      O 2280   0.147   0.969   3.392 -0.2459 -0.6901  0.1171
  690WAT     H1 2281   0.071   0.915   3.417  0.0920 -1.2071  0.0412
  690WAT     H2 2282   0.115   1.024   3.320 -0.5487 -0.9007  0.0899
  691WAT      O 2283   3.974   0.291   0.489  0.4409 -0.0329 -0.0683
  691WAT     H1 2284   3.920   0.343   0.549  0.0855 -1.3246  0.7705
  691WAT     H2 2285   3.913   0.228   0.450  0.9485 -0.1379 -0.7052
  692WAT      O 2286   3.192   1.479   1.295 -0.0124 -0.3203 -0.3890
  692WAT     H1 2287   3.200   1.567   1.259 -0.9691 -0.4001 -0.8489
  692WAT     H2 2288   3.276   1.437   1.275  1.5246  1.2853  2.2399
  693WAT      O 2289   3.797   4.045   3.413  0.0957 -0.0247 -0.3817
  693WAT     H1 2290   3.738   4.062   3.340 -0.6590 -0.7637  0.0266
  693WAT     H2 2291   3.739   4.017   3.484  1.0176 -1.9132 -0.3124
  694WAT      O 2292   0.969   0.811   0.713 -0.0133  0.5385  0.5580
  694WAT     H1 2293   0.897   0.866   0.744 -0.3251  0.5643 -0.1878
  694WAT     H2 2294   0.968   0.821   0.618  0.2836 -0.3148  0.4555
  695WAT      O 2295   3.507   0.957   3.126 -0.5054 -0.0996  0.0159
  695WAT     H1 2296   3.565   0.904   3.179 -0.1302  0.1034 -0.1887
  695WAT     H2 2297   3.458   1.010   3.189 -0.8442 -0.6401  0.2173
  696WAT      O 2298   1.279   3.648   2.279 -0.5002 -0.0688  0.1823
  696WAT     H1 2299   1.294   3.556   2.257  0.0470 -0.1745  0.9308
  696WAT     H2 2300   1.214   3.645   2.349 -0.5556  0.1207  0.1393
  697WAT      O 2301   0.981   4.063   1.179 -0.2586 -0.2868 -0.1549
  697WAT     H1 2302   1.058   4.014   1.207  2.2112  2.2371 -1.9523
  697WAT     H2 2303   1.017   4.138   1.132 -3.8840  0.0618 -2.7652
  698WAT      O 2304   3.394   3.311   5.030 -0.1354 -0.3433  0.7801
  698WAT     H1 2305   3.382   3.405   5.017  0.7414 -0.3736 -0.3734
  698WAT     H2 2306   3.457   3.305   5.102 -0.1726 -0.0531  0.8389
  699WAT      O 2307   0.911   3.196   4.239  0.1008 -0.3240 -0.5605
  699WAT     H1 2308   0.912   3.105   4.269  1.3679 -0.3563 -0.6401
  699WAT     H2 2309   0.881   3.190   4.148 -1.4676 -0.4655 -0.0615
  700WAT      O 2310   3.898   2.404   2.504 -0.0285  0.1629  0.1590
  700WAT     H1 2311   3.843   2.471   2.546 -2.5953 -3.1609  2.6355
  700WAT     H2 2312   3.836   2.347   2.459  2.1011 -0.3907 -2.3027
  701WAT      O 2313   4.516   0.880   0.495  0.2393 -0.3814 -0.0750
  701WAT     H1 2314   4.465   0.866   0.415 -1.7618  0.1245  1.0219
  701WAT     H2 2315   4.594   0.827   0.484 -0.0456 -0.4287 -2.2992
  702WAT      O 2316   1.895   0.726   0.948 -0.0572  0.0344 -0.1031
  702WAT     H1 2317   1.944   0.687   1.020 -0.3531 -0.6659 -0.2721
  702WAT     H2 2318   1.826   0.777   0.991  1.5249  2.0650  0.1774
  703WAT      O 2319   0.168   2.204   1.168 -0.0951 -0.0069  0.0996
  703WAT     H1 2320   0.175   2.148   1.092  0.7526 -0.1881  0.2942
  703WAT     H2 2321   0.166   2.144   1.243  0.5888  0.1936  0.2945
  704WAT      O 2322   2.909   2.133   5.278  0.0451 -0.1673  0.0453
  704WAT     H1 2323   2.839   2.085   5.233  0.5598  0.4648 -1.5179
  704WAT     H2 2324   2.881   2.137   5.369 -1.0361 -1.5478 -0.1982
  705WAT      O 2325   2.695   0.612   3.140  0.5188 -0.5797 -0.5101
  705WAT     H1 2326   2.729   0.688   3.185  2.1581 -0.7942 -1.3001
  705WAT     H2 2327   2.755   0.541   3.163  0.5029 -1.0378 -1.7612
  706WAT      O 2328   4.331   4.106   2.344 -0.1101 -0.0663 -0.2686
  706WAT     H1 2329   4.420   4.071   2.338 -1.4029 -3.4529 -2.4526
  706WAT     H2 2330   4.296   4.067   2.424  0.3492  1.3533  0.6492
  707WAT      O 2331   2.607   3.021   1.775 -0.0053 -0.0976 -0.4145
  707WAT     H1 2332   2.533   3.068   1.813 -0.3447  0.6867 -1.9985
  707WAT     H2 2333   2.629   3.069   1.695  1.5085 -0.9565 -0.5645
  708WAT      O 2334   0.546   0.779   3.838  0.2103  0.7960 -0.6108
  708WAT     H1 2335   0.451   0.772   3.837 -0.0311  2.9181  0.4541
  708WAT     H2 2336   0.573   0.724   3.912  0.0222 -1.0537 -1.8437
  709WAT      O 2337   0.558   2.590   4.082  0.1486  0.0914 -0.0546
  709WAT     H1 2338   0.467   2.616   4.065  0.2081  0.3878  0.0720
  709WAT     H2 2339   0.551   2.508   4.129 -0.0375 -0.2826 -0.7170
  710WAT      O 2340   1.507   4.801   3.724  0.4243 -0.3974  0.3279
  710WAT     H1 2341   1.533   4.768   3.810  1.6068 -0.0734  0.1165
  710WAT     H2 2342   1.588   4.838   3.687  0.0545 -0.9833 -1.1365
  711WAT      O 2343   1.668   2.332   0.469 -0.6782 -0.3109  0.1340
  711WAT     H1 2344   1.732   2.335   0.398 -0.4214  1.2122  0.3990
  711WAT     H2 2345   1.647   2.424   0.486 -2.4694 -0.7442  0.4827
  712WAT      O 2346   4.218   1.617   0.512  0.6350  0.3178  0.0496
  712WAT     H1 2347   4.192   1.701   0.473  2.1056  0.2141 -1.2104
  712WAT     H2 2348   4.197   1.552   0.445  0.5794 -0.2079  0.5675
  713WAT      O 2349   1.460   3.448   0.411 -0.2854  0.5433 -0.3921
  713WAT     H1 2350   1.473   3.429   0.318 -0.9781 -1.8418 -0.0499
  713WAT     H2 2351   1.422   3.368   0.448  1.6091  0.7261  2.3169
  714WAT      O 2352   4.468   1.831   0.184 -0.3452 -0.1551 -0.3809
  714WAT     H1 2353   4.377   1.803   0.178  0.1002 -1.7721 -0.0851
  714WAT     H2 2354   4.480   1.891   0.111 -1.7580  0.4372 -0.1545
  715WAT      O 2355   1.366   0.055   4.230  0.3310 -0.3628  0.3662
  715WAT     H1 2356   1.388   0.061   4.138 -2.0026  0.5179 -0.2186
  715WAT     H2 2357   1.430  -0.006   4.267  1.6803 -0.2608 -1.6795
  716WAT      O 2358   3.815   2.073   0.242  0.5299 -0.6668  0.2085
  716WAT     H1 2359   3.830   1.980   0.260  0.2395 -0.6777  0.4124
  716WAT     H2 2360   3.766   2.074   0.160  4.1641 -0.5109 -2.1803
  717WAT      O 2361   2.193   4.797   4.676  0.0857  0.1475 -0.2516
  717WAT     H1 2362   2.142   4.799   4.594 -0.4614  0.5769  0.0897
  717WAT     H2 2363   2.152   4.727   4.727 -0.6403  0.9598  0.3118
  718WAT      O 2364   2.302   0.628   4.507  0.5192  0.2007 -0.1379
  718WAT     H1 2365   2.259   0.543   4.496 -2.7351  1.4345  1.4754
  718WAT     H2 2366   2.250   0.672   4.575  2.6656  3.1098 -0.1916
  719WAT      O 2367   4.032   1.776   2.358  0.0888  0.1017  0.4869
  719WAT     H1 2368   4.123   1.791   2.386  0.2289 -0.0199  0.0998
  719WAT     H2 2369   4.017   1.683   2.375  0.9992 -0.6054 -2.1270
  720WAT      O 2370   1.530   3.472   3.093  0.3953  0.5421 -0.3091
  720WAT     H1 2371   1.499   3.504   3.177  1.3708  1.7052 -0.3622
  720WAT     H2 2372   1.495   3.383   3.087 -0.0440  0.5895  1.1210
  721WAT      O 2373   3.386   2.339   4.004 -0.2036  0.0767  0.5862
  721WAT     H1 2374   3.413   2.424   4.039 -0.8430  0.4415  0.2207
  721WAT     H2 2375   3.381   2.353   3.909  2.0002 -1.0299  0.2479
  722WAT      O 2376   1.230   3.913   3.192  0.1888 -0.0752 -0.4988
  722WAT     H1 2377   1.210   3.820   3.184  1.3940 -0.3782 -0.1511
  722WAT     H2 2378   1.299   3.918   3.258 -1.0583  1.2337  0.7885
  723WAT      O 2379   3.538   1.553   4.017 -0.0069  0.1970  0.5544
  723WAT     H1 2380   3.483   1.525   3.944 -3.0628  0.4215  2.5567
  723WAT     H2 2381   3.537   1.479   4.078  2.6592 -0.0796  0.3661
  724WAT      O 2382   4.047   4.403   0.422 -0.0728 -0.4409  0.1033
  724WAT     H1 2383   4.023   4.474   0.482 -0.4365 -0.4163 -0.0705
  724WAT     H2 2384   4.084   4.336   0.480 -0.6992 -0.5392  0.3952
  725WAT      O 2385   1.264   0.716   2.654  0.3091 -0.0912  0.0658
  725WAT     H1 2386   1.234   0.642   2.707  0.4405  1.0009  1.7412
  725WAT     H2 2387   1.189   0.775   2.650  0.3987 -0.0229 -0.7395
  726WAT      O 2388   3.498   0.281   0.716 -0.4686 -0.4618  0.3481
  726WAT     H1 2389   3.448   0.363   0.723  0.9866  0.4552  0.3822
  726WAT     H2 2390   3.466   0.240   0.636 -0.3781  0.7334 -0.3152
  727WAT      O 2391   0.792   5.074   4.368  0.1447 -0.4065 -0.3694
  727WAT     H1 2392   0.818   5.103   4.455  1.7329 -0.1280 -0.8923
  727WAT     H2 2393   0.871   5.034   4.332 -0.9998 -2.1891 -1.0159
  728WAT      O 2394   2.074   2.163   3.119 -0.4428 -0.2184  0.2889
  728WAT     H1 2395   2.059   2.094   3.184 -0.4494 -0.3255  0.1744
  728WAT     H2 2396   2.005   2.228   3.137 -1.7443 -1.2027 -0.9049
  729WAT      O 2397   3.120   4.817   2.662  0.3583  0.5849 -0.2976
  729WAT     H1 2398   3.081   4.736   2.694  0.9069  0.1322 -0.7809
  729WAT     H2 2399   3.207   4.820   2.702  0.8973  0.2100 -1.4206
  730WAT      O 2400   1.516   1.813   1.579  0.1199  0.3055  0.0812
  730WAT     H1 2401   1.491   1.757   1.505  0.4756  1.6009 -1.0545
  730WAT     H2 2402   1.611   1.806   1.583  0.2317  1.3364 -0.5030
  731WAT      O 2403   1.804   3.523   1.456  0.4838  0.5438  0.9887
  731WAT     H1 2404   1.737   3.455   1.472 -0.2230  0.9412 -0.1880
  731WAT     H2 2405   1.835   3.546   1.544 -0.0962 -0.4710  1.4857
  732WAT      O 2406   1.436   1.995   2.897 -0.1586 -0.4838 -0.3372
  732WAT     H1 2407   1.427   2.038   2.812 -0.6151 -0.8787 -0.4972
  732WAT     H2 2408   1.467   1.907   2.876  1.6851  0.0319  0.0503
  733WAT      O 2409   2.436   4.454   4.930 -0.0414  0.3676 -0.0567
  733WAT     H1 2410   2.397   4.461   4.842 -1.0710 -0.4302  0.3179
  733WAT     H2 2411   2.391   4.380   4.970  2.1410 -0.8311  0.2852
  734WAT      O 2412   3.664   3.389   1.790  0.0278  0.3331  0.3445
  734WAT     H1 2413   3.754   3.369   1.765 -0.4725 -1.9200  0.1403
  734WAT     H2 2414   3.629   3.306   1.822 -1.8498  1.2592  0.8310
  735WAT      O 2415   2.632   4.970   0.291 -0.0636 -0.8463  0.5589
  735WAT     H1 2416   2.708   4.918   0.264 -0.3026 -1.6615  1.4196
  735WAT     H2 2417   2.604   4.930   0.373 -0.3539  0.5524  1.1645
  736WAT      O 2418   0.437   4.859   2.753  0.6399  0.5436  0.1443
  736WAT     H1 2419   0.424   4.771   2.789 -1.2800  0.7665  0.0791
  736WAT     H2 2420   0.350   4.888   2.728  1.5050  1.6777 -1.7606
  737WAT      O 2421   0.215   4.967   2.656  0.2752  0.0564  0.1470
  737WAT     H1 2422   0.269   5.046   2.659  0.5571 -0.1542  1.7939
  737WAT     H2 2423   0.136   4.994   2.609  1.8470  0.3067 -2.5133
  738WAT      O 2424   0.717   3.438   4.822  0.0585 -0.0924 -0.4115
  738WAT     H1 2425   0.646   3.499   4.801  0.2825 -0.2756 -1.7701
  738WAT     H2 2426   0.674   3.369   4.873 -0.4410  0.5368  0.0479
  739WAT      O 2427   4.501   4.917   0.439 -0.1199  0.2386  0.1590
  739WAT     H1 2428   4.443   4.841   0.448 -0.3593  0.2620 -1.0378
  739WAT     H2 2429   4.444   4.992   0.452 -1.2051  0.4181 -4.1863
  740WAT      O 2430   0.663   1.058   2.017 -0.1302  0.6211  0.0532
  740WAT     H1 2431   0.664   1.033   2.109 -1.0193 -0.8352 -0.2987
  740WAT     H2 2432   0.756   1.065   1.993  0.3140 -3.1430  0.0634
  741WAT      O 2433   0.952   0.564   4.397  0.0212  0.0923 -0.0669
  741WAT     H1 2434   0.995   0.645   4.370 -0.2910 -0.1300 -1.3096
  741WAT     H2 2435   0.864   0.591   4.423  0.1644  0.2491  0.2570
  742WAT      O 2436   3.487   0.369   1.878 -0.0422 -0.1145  0.4230
  742WAT     H1 2437   3.560   0.312   1.854  1.6513  1.5319  1.3161
  742WAT     H2 2438   3.511   0.454   1.841 -2.9260 -0.0912 -1.6699
  743WAT      O 2439  -0.003   4.347   1.770  0.2350 -0.3604 -0.1482
  743WAT     H1 2440   0.036   4.417   1.822 -1.0411  0.7924 -0.6879
  743WAT     H2 2441   0.047   4.347   1.688  0.7941 -0.6726  0.1885
  744WAT      O 2442   2.984   4.732   5.298  0.2365 -0.3480 -0.2823
  744WAT     H1 2443   3.076   4.744   5.324  0.4679  1.6586 -1.8174
  744WAT     H2 2444   2.984   4.743   5.203 -1.4954 -1.1876 -0.4197
  745WAT      O 2445   0.030   3.723   1.559 -0.1445 -0.1562 -0.2707
  745WAT     H1 2446   0.041   3.686   1.471  1.2261  0.6765 -0.4762
  745WAT     H2 2447  -0.042   3.786   1.549 -0.6209 -0.7285 -0.5617
  746WAT      O 2448   2.381   1.681   4.206  0.1606 -0.1463  0.0301
  746WAT     H1 2449   2.460   1.714   4.162 -1.7633  2.8635 -1.4552
  746WAT     H2 2450   2.395   1.704   4.298  0.7508  0.9992 -0.3187
  747WAT      O 2451   2.444   4.514   3.692 -0.0448  0.0688  0.3423
  747WAT     H1 2452   2.358   4.489   3.728 -0.5099  0.2916 -0.5926
  747WAT     H2 2453   2.477   4.435   3.650  0.6334 -0.2751  1.4625
  748WAT      O 2454   3.204   4.336   4.473 -0.2165 -0.1745 -0.0558
  748WAT     H1 2455   3.119   4.294   4.464  0.0778 -0.6324 -0.8814
  748WAT     H2 2456   3.226   4.328   4.566 -1.1047  0.0391  0.1814
  749WAT      O 2457   1.630   1.603   1.990  0.0707 -0.0726 -0.2634
  749WAT     H1 2458   1.705   1.547   1.967  0.0452  0.2930 -1.2741
  749WAT     H2 2459   1.645   1.627   2.081  0.9800 -0.3291 -0.3381
  750WAT      O 2460   1.633   2.418   2.587 -0.1072 -0.3760  0.5806
  750WAT     H1 2461   1.548   2.425   2.632 -0.2910 -0.9677  0.3320
  750WAT     H2 2462   1.683   2.493   2.619 -0.3559 -0.5970  1.5295
  751WAT      O 2463   1.674   3.492   4.141 -0.1144  0.4438 -0.1354
  751WAT     H1 2464   1.735   3.468   4.211  0.9024  0.5477 -0.9667
  751WAT     H2 2465   1.678   3.418   4.080 -1.0842  0.2999 -0.0426
  752WAT      O 2466   0.793   0.522   4.014  0.0662  0.7361 -0.0847
  752WAT     H1 2467   0.881   0.557   4.004  0.1638  0.6903  0.5475
  752WAT     H2 2468   0.792   0.443   3.960  0.5060  0.5763  0.1410
  753WAT      O 2469   3.298   4.076   1.421  0.4879 -0.2813 -0.1992
  753WAT     H1 2470   3.251   4.043   1.345 -0.4516  0.4673  0.0406
  753WAT     H2 2471   3.235   4.070   1.493  1.1237 -0.3009  0.3728
  754WAT      O 2472   3.715   5.138   4.328 -0.0930  0.0448 -0.3155
  754WAT     H1 2473   3.773   5.171   4.259  0.8877 -0.0567  0.4307
  754WAT     H2 2474   3.726   5.043   4.325 -0.1859  0.0288 -0.1447
  755WAT      O 2475   1.586   1.086   2.050 -0.1090 -0.2520  0.2953
  755WAT     H1 2476   1.578   1.045   1.964  1.6090  0.2635 -0.1622
  755WAT     H2 2477   1.545   1.172   2.039 -0.5255 -0.4582  0.2100
  756WAT      O 2478   1.567   2.021   2.057  0.2163 -0.1252 -0.1480
  756WAT     H1 2479   1.549   1.927   2.065 -1.9303  0.2144 -0.2525
  756WAT     H2 2480   1.488   2.056   2.015  1.3144  1.6194 -0.8526
  757WAT      O 2481   2.388   2.136   3.235 -0.0509  0.1894  0.3077
  757WAT     H1 2482   2.328   2.184   3.178 -0.8322 -0.9642  0.1176
  757WAT     H2 2483   2.349   2.144   3.322 -0.6132 -0.7266  0.1531
  758WAT      O 2484   4.471   4.071   0.339 -0.1927 -0.2649  0.1790
  758WAT     H1 2485   4.485   3.989   0.292 -0.4383 -0.3000  0.1660
  758WAT     H2 2486   4.377   4.088   0.330 -0.0400  0.3349 -0.3315
  759WAT      O 2487   3.680   0.197   1.814 -0.2242  0.3182 -0.0044
  759WAT     H1 2488   3.725   0.204   1.898 -1.5241 -1.3315  0.8807
  759WAT     H2 2489   3.748   0.168   1.753 -0.2157 -4.1878  1.7132
  760WAT      O 2490   2.927   3.426   5.097 -0.5838 -0.6802  0.3929
  760WAT     H1 2491   2.878   3.366   5.153 -1.6606 -1.1100 -0.9427
  760WAT     H2 2492   3.002   3.454   5.150 -0.0801 -3.1389  1.0830
  761WAT      O 2493   2.540   1.848   1.139  0.7274 -0.3888  0.4409
  761WAT     H1 2494   2.576   1.765   1.107  1.6447  0.2942 -0.3573
  761WAT     H2 2495   2.540   1.905   1.062 -3.8215 -0.8443 -0.1747
  762WAT      O 2496   4.104   0.409   0.788  0.2106 -0.8694 -0.3581
  762WAT     H1 2497   4.176   0.446   0.838 -0.3025 -1.0037  0.5084
  762WAT     H2 2498   4.042   0.482   0.777 -0.3550 -1.1974  0.5094
  763WAT      O 2499   1.622   1.747   2.224 -0.1944  0.1498  0.1995
  763WAT     H1 2500   1.554   1.691   2.263  0.4530 -0.5002  0.4095
  763WAT     H2 2501   1.630   1.821   2.284 -0.4370  0.0279  0.3825
  764WAT      O 2502   3.392   0.643   0.447 -0.0337  0.4440 -0.1443
  764WAT     H1 2503   3.419   0.678   0.533 -0.4582 -1.0608  0.6371
  764WAT     H2 2504   3.475   0.632   0.400  0.1421  2.0514 -0.2581
  765WAT      O 2505   2.995   1.949   1.181 -0.8364 -0.2344  0.0416
  765WAT     H1 2506   3.065   1.884   1.180  0.2739  0.9215 -0.2214
  765WAT     H2 2507   2.943   1.927   1.258  1.1049  0.1687  1.5380
  766WAT      O 2508   1.149   1.005   2.598  0.1073 -0.3273 -0.0293
  766WAT     H1 2509   1.170   1.034   2.509  1.1130  1.0626  0.6187
  766WAT     H2 2510   1.077   0.943   2.587  1.3012 -1.4691 -1.9517
  767WAT      O 2511   1.705   4.135   2.498  0.1838 -0.2222  0.4499
  767WAT     H1 2512   1.707   4.199   2.569 -1.7855 -0.0542  0.4158
  767WAT     H2 2513   1.751   4.178   2.426 -1.9412  1.6584  0.0976
  768WAT      O 2514   2.618   5.008   2.927  0.1959 -0.5812  0.1841
  768WAT     H1 2515   2.623   4.992   3.021 -0.2340 -0.2343  0.2729
  768WAT     H2 2516   2.709   5.020   2.900  0.3036 -0.4313  0.6021
  769WAT      O 2517   4.092   1.007   0.753  0.4795 -0.3623 -0.1966
  769WAT     H1 2518   4.082   0.994   0.659  1.5939 -1.2342 -0.2198
  769WAT     H2 2519   4.072   0.921   0.791  1.5038 -0.4321  0.2218
  770WAT      O 2520   2.222   0.425   0.671 -0.3716  0.3132 -0.0881
  770WAT     H1 2521   2.239   0.407   0.764  0.4092 -0.9387 -0.4535
  770WAT     H2 2522   2.141   0.377   0.653 -0.1011 -0.0885 -0.2408
  771WAT      O 2523   0.854   2.819   1.139  0.1424  0.1391  0.1113
  771WAT     H1 2524   0.938   2.863   1.123 -0.7663  1.6116 -0.8837
  771WAT     H2 2525   0.801   2.841   1.062 -1.8709  1.0421  1.6856
  772WAT      O 2526   1.919   4.241   1.347 -0.1423 -0.3412 -0.3295
  772WAT     H1 2527   1.859   4.171   1.372 -0.5552  0.7624  1.9646
  772WAT     H2 2528   1.994   4.195   1.309 -1.8551 -1.8093 -2.1699
  773WAT      O 2529   1.505   1.485   3.389  0.2114  0.9838 -0.3941
  773WAT     H1 2530   1.478   1.497   3.298 -0.5670 -0.0885 -0.3192
  773WAT     H2 2531   1.584   1.431   3.384 -0.1927  0.3856 -0.4142
  774WAT      O 2532   4.355   2.405   3.175 -0.0413 -0.0522  0.4282
  774WAT     H1 2533   4.287   2.430   3.237 -1.4796  0.1143 -1.1297
  774WAT     H2 2534   4.307   2.379   3.096  1.7250  1.0487 -1.0930
  775WAT      O 2535   3.199   0.559   2.107 -0.1285 -0.1349 -0.4329
  775WAT     H1 2536   3.227   0.499   2.037  0.0216 -1.9745  1.1087
  775WAT     H2 2537   3.103   0.552   2.107 -0.1409  0.0407 -0.6068
  776WAT      O 2538   2.089   1.536   4.388  0.2227 -0.0699 -0.8428
  776WAT     H1 2539   2.090   1.629   4.411  0.9787 -0.1148 -0.6693
  776WAT     H2 2540   2.099   1.534   4.293 -0.1876  0.0310 -0.8920
  777WAT      O 2541   3.798   3.006   0.715  0.0318  0.1485 -0.0890
  777WAT     H1 2542   3.722   2.986   0.769  0.0180  0.9783  0.2124
  777WAT     H2 2543   3.835   3.085   0.754 -0.6591  1.4792 -1.9373
  778WAT      O 2544   2.100   3.312   0.032  0.8887  0.5420  0.1959
  778WAT     H1 2545   2.050   3.246   0.080 -0.9798  0.2218 -2.0419
  778WAT     H2 2546   2.038   3.384   0.020  1.6367  1.0286 -0.8293
  779WAT      O 2547   2.053   1.830   2.410 -0.7407 -0.1551  0.3034
  779WAT     H1 2548   2.034   1.885   2.334 -0.0330  2.4500  1.8556
  779WAT     H2 2549   2.147   1.837   2.422 -0.9033 -0.0408  1.7235
  780WAT      O 2550   4.138   0.479   3.187  0.1738 -0.2654  0.4998
  780WAT     H1 2551   4.205   0.446   3.127  1.9443  0.9782  1.7142
  780WAT     H2 2552   4.139   0.418   3.261 -0.6043 -0.6741  0.1861
  781WAT      O 2553   4.360   4.820   4.103  0.3534  0.3876  0.1104
  781WAT     H1 2554   4.421   4.831   4.175 -0.2378  0.2058  0.6434
  781WAT     H2 2555   4.406   4.764   4.041  1.6152  2.0580 -0.5427
  782WAT      O 2556   1.740   1.169   0.350 -0.5688  0.0400 -0.6618
  782WAT     H1 2557   1.675   1.114   0.393  0.5771 -0.3172  0.6894
  782WAT     H2 2558   1.767   1.118   0.273 -0.3656 -0.7729 -0.0610
  783WAT      O 2559   1.748   4.617   3.109  0.2007 -0.8327  0.1437
  783WAT     H1 2560   1.752   4.711   3.089 -0.2901 -1.1147 -1.4476
  783WAT     H2 2561   1.762   4.612   3.203 -1.3808  0.9911  0.5524
  784WAT      O 2562   0.190   4.372   1.574  0.4080  0.1075  0.0059
  784WAT     H1 2563   0.284   4.356   1.584  1.2413  3.4484 -0.8797
  784WAT     H2 2564   0.158   4.297   1.523  2.3132 -1.6525  1.2431
  785WAT      O 2565   0.389   1.645   4.009 -0.2202 -0.0058  0.4204
  785WAT     H1 2566   0.383   1.670   4.101 -0.4594 -0.8718  0.6428
  785WAT     H2 2567   0.451   1.708   3.972  1.3858 -0.8088  1.5977
  786WAT      O 2568   0.341   4.818   2.101  0.1349 -0.0085 -0.4183
  786WAT     H1 2569   0.298   4.897   2.135  1.3615  0.0688  1.0303
  786WAT     H2 2570   0.432   4.845   2.086  0.4116 -0.9821 -0.5423
  787WAT      O 2571   3.827   3.175   4.221  0.1222  0.3558 -0.2099
  787WAT     H1 2572   3.851   3.088   4.190  0.2947  0.4041 -0.2159
  787WAT     H2 2573   3.863   3.234   4.155  2.8586  0.6321  1.3533
  788WAT      O 2574   3.227   4.179   3.115  0.7951 -0.2415  0.1791
  788WAT     H1 2575   3.206   4.206   3.025  1.6547  1.8183  0.5404
  788WAT     H2 2576   3.157   4.216   3.169  1.4269  0.3944  0.5773
  789WAT      O 2577   1.132   3.704   3.534 -0.4908  0.7234  0.2834
  789WAT     H1 2578   1.086   3.622   3.551 -0.4182  0.1828 -1.8777
  789WAT     H2 2579   1.225   3.680   3.537 -0.4757  0.4321 -1.4226
  790WAT      O 2580   3.933   5.027   3.243  0.1813 -0.1770  0.2015
  790WAT     H1 2581   3.838   5.017   3.254  0.0991 -0.7409 -0.8202
  790WAT     H2 2582   3.947   5.122   3.243 -0.5824 -0.0326 -0.9262
  791WAT      O 2583   1.885   0.136   4.794 -0.3657  0.1735 -0.0146
  791WAT     H1 2584   1.928   0.078   4.730 -0.5895 -0.2273  0.1917
  791WAT     H2 2585   1.887   0.222   4.753  1.3280  0.3287  0.3113
  792WAT      O 2586   3.120   0.684   1.331 -0.2568  0.1097 -0.1337
  792WAT     H1 2587   3.181   0.612   1.351  0.5015  0.0645 -2.3678
  792WAT     H2 2588   3.155   0.758   1.380  1.0030 -0.1836 -0.5421
  793WAT      O 2589   2.861   0.855   2.561  0.0289  0.1953  0.6402
  793WAT     H1 2590   2.817   0.783   2.516  0.2123 -0.3409  1.2864
  793WAT     H2 2591   2.951   0.824   2.573  0.9395  1.7288 -1.6630
  794WAT      O 2592   2.687   2.733   0.155  0.3972 -0.0238  0.2219
  794WAT     H1 2593   2.730   2.651   0.179 -0.1596 -0.5082 -0.4160
  794WAT     H2 2594   2.595   2.721   0.181  0.3427  0.4581  0.2715
  795WAT      O 2595   2.001   0.217   1.446 -0.3970  0.0081 -0.6830
  795WAT     H1 2596   1.907   0.231   1.449 -0.5549 -1.1454  0.3918
  795WAT     H2 2597   2.016   0.171   1.364 -0.8342 -0.2733 -0.6032
  796WAT      O 2598   0.712   2.620   2.085  0.2358  0.4543  0.4086
  796WAT     H1 2599   0.693   2.530   2.111 -1.1010 -0.1416 -2.2824
  796WAT     H2 2600   0.691   2.623   1.992  3.9768  2.5272 -0.5855
  797WAT      O 2601   2.906   2.986   4.308  0.4486  0.2292  0.7329
  797WAT     H1 2602   2.963   2.977   4.384  2.7889  0.4819 -0.9032
  797WAT     H2 2603   2.956   2.948   4.235 -0.6914  2.0728 -1.1383
  798WAT      O 2604   2.499   4.749   1.622 -0.3624  0.0326 -0.3822
  798WAT     H1 2605   2.572   4.730   1.682 -0.5775  1.3279  0.3077
  798WAT     H2 2606   2.432   4.685   1.645  0.5001 -1.1172 -0.9626
  799WAT      O 2607   2.394   3.042   3.248 -0.2346  0.1822  0.2842
  799WAT     H1 2608   2.381   3.131   3.214 -1.1577 -0.4082 -0.9673
  799WAT     H2 2609   2.306   3.011   3.269 -0.0796 -0.9484 -0.6591
  800WAT      O 2610   1.916   3.034   4.483  0.6124  0.1100  0.5279
  800WAT     H1 2611   1.840   3.004   4.533  0.4927 -1.1592 -0.3756
  800WAT     H2 2612   1.879   3.065   4.400  1.0609 -0.2636  0.1857
  801WAT      O 2613   2.601   1.207   2.193  0.2938 -0.0259  0.1632
  801WAT     H1 2614   2.668   1.253   2.243 -0.0001  0.4167  0.1567
  801WAT     H2 2615   2.649   1.144   2.139  0.7177  0.4213  0.0141
  802WAT      O 2616   4.024   5.040   0.565  0.0417 -0.4300  0.1610
  802WAT     H1 2617   4.016   5.104   0.635  0.3966 -0.9756  0.7138
  802WAT     H2 2618   4.023   5.092   0.484 -2.9282  0.0478  0.3896
  803WAT      O 2619   3.347   4.020   4.333  0.0264 -0.4150 -0.0597
  803WAT     H1 2620   3.252   4.036   4.336 -0.0382 -0.7016 -0.4992
  803WAT     H2 2621   3.384   4.104   4.304  0.0019  0.0024  1.0602
  804WAT      O 2622   2.505   4.887   0.905  0.1491 -0.4709  0.7774
  804WAT     H1 2623   2.586   4.885   0.957  0.9946 -0.1235 -0.4966
  804WAT     H2 2624   2.511   4.968   0.855 -0.6069 -0.8482  0.0709
  805WAT      O 2625   3.534   1.013   2.860  0.7538 -0.3992  0.0380
  805WAT     H1 2626   3.462   0.968   2.816 -1.6904  1.9231  1.3565
  805WAT     H2 2627   3.529   0.982   2.951  0.8735  0.3712  0.3133
  806WAT      O 2628   1.528   1.887   1.076  0.0639  0.2375  0.5529
  806WAT     H1 2629   1.472   1.957   1.044  2.2867  1.8306 -0.0581
  806WAT     H2 2630   1.554   1.915   1.164  0.2590 -0.2713  0.6632
  807WAT      O 2631   3.390   2.402   2.747 -0.6707 -0.0197 -0.1572
  807WAT     H1 2632   3.318   2.349   2.713 -0.3137 -0.5708 -0.0623
  807WAT     H2 2633   3.385   2.483   2.696 -2.5101  0.7335  1.1108
  808WAT      O 2634   4.416   4.567   1.269  0.1828  0.9767 -0.0418
  808WAT     H1 2635   4.361   4.555   1.192 -0.3734  2.4370  0.1015
  808WAT     H2 2636   4.382   4.504   1.333  0.1934  0.2578 -0.7369
  809WAT      O 2637   3.756   2.145   2.132  0.3552 -0.0288  0.2893
  809WAT     H1 2638   3.822   2.078   2.149  0.0673 -0.4543 -0.2486
  809WAT     H2 2639   3.757   2.157   2.037 -2.3003 -2.1103 -0.1169
  810WAT      O 2640   1.393   1.428   2.545 -0.1733  0.2301  0.3608
  810WAT     H1 2641   1.344   1.482   2.606 -0.0185  0.9658 -0.1501
  810WAT     H2 2642   1.365   1.339   2.564 -1.4188  0.5977  0.3462
  811WAT      O 2643   1.002   1.630   0.454  0.5487 -0.3805 -0.2693
  811WAT     H1 2644   0.972   1.625   0.363  0.3672 -0.8178 -0.1838
  811WAT     H2 2645   1.016   1.724   0.469 -1.4275 -0.0831 -0.0885
  812WAT      O 2646   3.691   2.305   2.349  0.0025  0.7073 -0.6202
  812WAT     H1 2647   3.691   2.237   2.282 -0.9780 -0.4365  0.4805
  812WAT     H2 2648   3.611   2.289   2.399  2.3690 -0.9747  3.1642
  813WAT      O 2649   1.690   3.192   0.596  0.2377 -0.0608 -0.3496
  813WAT     H1 2650   1.629   3.128   0.560 -1.3537  0.6194  1.0487
  813WAT     H2 2651   1.644   3.232   0.670  1.9211  1.3258  0.0316
  814WAT      O 2652   0.170   2.984   0.737 -0.4298  0.9994 -0.3118
  814WAT     H1 2653   0.205   3.043   0.670 -2.2102  0.9425 -1.3568
  814WAT     H2 2654   0.075   2.994   0.731 -0.7186 -0.6822  0.6850
  815WAT      O 2655   3.002   4.331   3.582  0.1123 -0.0119  0.0420
  815WAT     H1 2656   3.033   4.382   3.657  2.1007  1.4123 -1.6442
  815WAT     H2 2657   2.941   4.390   3.537  2.7426  1.2507 -2.1544
  816WAT      O 2658   3.389   4.562   2.998  0.4650  0.1648 -0.5468
  816WAT     H1 2659   3.309   4.544   3.047 -1.2041  1.8368 -2.4619
  816WAT     H2 2660   3.419   4.477   2.967 -1.5887 -0.3509 -1.2365
  817WAT      O 2661   0.403   3.727   4.264 -0.5532  0.0420  0.0213
  817WAT     H1 2662   0.321   3.710   4.219 -0.6562  1.0417 -0.2020
  817WAT     H2 2663   0.423   3.646   4.311 -1.7517 -0.1537  0.2077
  818WAT      O 2664   3.473   1.001   2.165 -0.4412 -0.5371  0.2465
  818WAT     H1 2665   3.403   1.018   2.102 -1.3191 -1.9438  0.8134
  818WAT     H2 2666   3.532   0.941   2.119 -0.6274 -0.8825  0.4613
  819WAT      O 2667   0.858   2.378   2.579  0.1432 -0.0648  0.2825
  819WAT     H1 2668   0.868   2.311   2.646  0.4035  1.5135  1.8834
  819WAT     H2 2669   0.862   2.329   2.496 -0.4465 -2.0977  1.3786
  820WAT      O 2670   2.827   0.367   1.199  0.2715  0.4230  0.0205
  820WAT     H1 2671   2.733   0.353   1.190  0.6378 -2.1682 -0.3299
  820WAT     H2 2672   2.859   0.290   1.246  2.5165  0.2169 -1.6968
  821WAT      O 2673   1.065   4.332   1.102  0.1004 -0.1778 -0.2508
  821WAT     H1 2674   1.158   4.353   1.097  0.1037 -0.2666 -0.5567
  821WAT     H2 2675   1.032   4.387   1.173  0.6697 -1.1735  0.8359
  822WAT      O 2676   0.732   1.966   3.184  0.3609 -0.3640  0.0280
  822WAT     H1 2677   0.820   1.993   3.161  0.5972 -0.9106  0.2664
  822WAT     H2 2678   0.729   1.873   3.161 -0.0976 -0.3886  0.1739
  823WAT      O 2679   2.341   3.966   3.900 -0.2312 -0.6968  0.2776
  823WAT     H1 2680   2.415   3.938   3.845 -0.8958 -0.6527 -0.6697
  823WAT     H2 2681   2.382   4.009   3.975  0.7029  0.8670 -1.0544
  824WAT      O 2682   0.306   4.931   3.330  0.7661  0.3334 -0.1212
  824WAT     H1 2683   0.261   4.853   3.296  0.5221 -0.8026  2.5662
  824WAT     H2 2684   0.282   5.001   3.270 -2.4394 -0.7920 -0.3253
  825WAT      O 2685   3.956   2.745   2.765  0.1088  0.0416  0.1118
  825WAT     H1 2686   4.013   2.672   2.741 -0.5865 -0.7372  0.7373
  825WAT     H2 2687   3.990   2.776   2.849  0.2414  0.2560 -0.0220
  826WAT      O 2688   3.598   3.840   0.770 -0.0065  0.5600 -0.6872
  826WAT     H1 2689   3.640   3.801   0.846  1.2621  3.4816  0.2696
  826WAT     H2 2690   3.609   3.776   0.700  0.3154 -1.4761  1.1500
  827WAT      O 2691   1.383   1.200   0.444  0.5269  0.1218 -0.8548
  827WAT     H1 2692   1.447   1.168   0.382 -0.2392 -0.4285 -1.3688
  827WAT     H2 2693   1.309   1.228   0.391 -0.1601 -0.3986 -0.1987
  828WAT      O 2694   0.249   3.355   5.186  0.0125 -0.7791 -0.7395
  828WAT     H1 2695   0.298   3.423   5.231 -1.5181  0.3733 -0.7336
  828WAT     H2 2696   0.195   3.315   5.254 -1.1823 -0.0507 -1.2095
  829WAT      O 2697   2.419   0.135   0.483  0.2772 -0.4843  0.0550
  829WAT     H1 2698   2.367   0.066   0.524  0.1640  0.0168  0.7646
  829WAT     H2 2699   2.388   0.137   0.392 -0.8087 -0.3339  0.4096
  830WAT      O 2700   4.225   0.115   1.384 -0.5108 -0.3048  0.1708
  830WAT     H1 2701   4.133   0.115   1.356 -0.1941 -0.9432 -0.8871
  830WAT     H2 2702   4.275   0.102   1.304  0.5596  0.7779  0.6313
  831WAT      O 2703   3.089   2.232   4.353 -0.0769 -0.3281  0.1062
  831WAT     H1 2704   3.185   2.230   4.354 -0.0401 -2.6102 -0.9936
  831WAT     H2 2705   3.063   2.193   4.437 -0.0233 -0.3602  0.1080
  832WAT      O 2706   3.480   5.097   4.046  0.0532 -0.1053  0.0788
  832WAT     H1 2707   3.554   5.104   3.985  0.1648 -1.7017 -0.0231
  832WAT     H2 2708   3.501   5.021   4.100 -2.6564 -2.2779 -1.6455
  833WAT      O 2709   1.651   4.651   0.568 -0.1995 -0.2780 -0.0043
  833WAT     H1 2710   1.737   4.687   0.546  0.4076 -1.2744  0.6516
  833WAT     H2 2711   1.646   4.659   0.663 -0.5664 -0.7885  0.0238
  834WAT      O 2712   2.842   3.320   0.340  0.6736 -0.3149 -0.2759
  834WAT     H1 2713   2.877   3.404   0.310  0.9926 -1.0682 -2.1827
  834WAT     H2 2714   2.761   3.309   0.290  0.0442 -0.6460  0.7893
  835WAT      O 2715   1.228   3.356   0.059 -0.8926  0.4722 -0.2803
  835WAT     H1 2716   1.165   3.409   0.009 -0.6495  1.9661  0.9334
  835WAT     H2 2717   1.186   3.342   0.144 -0.3943 -0.2060 -0.1331
  836WAT      O 2718   4.014   4.945   3.708  0.2007  0.7294  1.0901
  836WAT     H1 2719   4.095   4.898   3.689 -0.4387  0.0670 -0.1119
  836WAT     H2 2720   3.963   4.883   3.760  0.5453  1.2491  2.0865
  837WAT      O 2721   1.568   4.670   1.749 -0.8333 -0.0592 -0.0064
  837WAT     H1 2722   1.612   4.642   1.668 -0.5946 -0.5848  0.2987
  837WAT     H2 2723   1.571   4.765   1.746  0.3430 -0.0806  0.0031
  838WAT      O 2724   1.783   1.828   1.017  0.0575 -0.0760  0.1580
  838WAT     H1 2725   1.839   1.853   1.091  0.6742  2.3084 -1.0001
  838WAT     H2 2726   1.696   1.856   1.043  0.0644 -0.3196  0.4478
  839WAT      O 2727   3.962   1.393   4.822  0.1915 -0.1026 -0.6911
  839WAT     H1 2728   3.959   1.300   4.798 -0.8482  0.1811 -1.7147
  839WAT     H2 2729   4.032   1.398   4.887 -0.8727 -1.8884  0.6791
  840WAT      O 2730   0.066   0.952   5.088  0.0734 -0.9299 -0.4506
  840WAT     H1 2731  -0.010   1.010   5.101  1.8090  1.5568 -0.7520
  840WAT     H2 2732   0.030   0.864   5.099 -2.3667  0.2083  1.8765
  841WAT      O 2733   2.357   4.567   2.670  0.3159  0.5151  0.2557
  841WAT     H1 2734   2.418   4.634   2.700  1.2771  1.3343 -3.0553
  841WAT     H2 2735   2.399   4.484   2.692  1.7395  1.0672 -0.2951
  842WAT      O 2736   2.570   4.848   2.185  0.4077  0.5685 -0.1144
  842WAT     H1 2737   2.591   4.918   2.246 -1.1291  2.4720 -1.6488
  842WAT     H2 2738   2.606   4.877   2.101  0.3197 -0.8007 -0.6532
  843WAT      O 2739   2.563   0.416   2.526  0.1723 -0.0404  0.7352
  843WAT     H1 2740   2.487   0.433   2.471  0.6334 -1.2632 -0.3296
  843WAT     H2 2741   2.540   0.340   2.578  0.8726 -0.8137 -0.0544
  844WAT      O 2742   4.153   3.443   4.195 -0.2604 -0.3622  0.0793
  844WAT     H1 2743   4.081   3.470   4.138  0.4523 -1.3796 -1.3647
  844WAT     H2 2744   4.224   3.504   4.173 -0.0028 -0.7227 -0.0992
  845WAT      O 2745   1.398   2.223   4.399 -0.1933  0.2979  0.1026
  845WAT     H1 2746   1.481   2.271   4.405 -0.7130  1.1084  0.9926
  845WAT     H2 2747   1.364   2.223   4.488 -1.6207  0.8385 -0.4194
  846WAT      O 2748   1.819   5.046   0.330 -0.1231  0.0633 -0.1011
  846WAT     H1 2749   1.818   4.954   0.303  2.4610  0.7371 -3.0192
  846WAT     H2 2750   1.891   5.052   0.393 -1.3005 -0.1249  1.3133
  847WAT      O 2751   0.927   1.021   3.793  0.0936  0.2984 -0.5490
  847WAT     H1 2752   0.889   1.078   3.726  1.0395 -0.7327 -2.0211
  847WAT     H2 2753   0.855   0.964   3.820 -0.1188  0.1967 -1.2926
  848WAT      O 2754   1.468   2.452   1.203  0.3749  0.0243  0.0329
  848WAT     H1 2755   1.447   2.429   1.112 -1.9404  2.0628 -0.0431
  848WAT     H2 2756   1.384   2.454   1.248  0.9666  2.8998  1.2254
  849WAT      O 2757   0.520   1.567   3.047 -0.1979  0.5457  0.2343
  849WAT     H1 2758   0.486   1.489   3.003  0.4573  0.8462 -0.8428
  849WAT     H2 2759   0.456   1.635   3.027 -0.3068  0.5003  0.4222
  850WAT      O 2760   2.075   0.665   1.198  0.2583  0.1731  0.1513
  850WAT     H1 2761   2.159   0.687   1.238  0.1539 -0.5905  0.8243
  850WAT     H2 2762   2.054   0.579   1.234 -1.5250  0.9880  1.1289
  851WAT      O 2763   0.898   3.934   2.546 -0.0076  0.2494 -0.2757
  851WAT     H1 2764   0.934   4.022   2.543 -0.1785  0.3287 -0.0080
  851WAT     H2 2765   0.862   3.920   2.458 -0.8470  0.8101 -0.0260
  852WAT      O 2766   3.221   1.889   4.105  0.4926  0.4165 -0.0622
  852WAT     H1 2767   3.311   1.903   4.134  1.4724 -1.2517 -2.0213
  852WAT     H2 2768   3.193   1.974   4.072  2.0828  0.5634 -1.1581
  853WAT      O 2769   1.976   2.599   2.444 -0.4589 -0.3963 -0.6550
  853WAT     H1 2770   2.024   2.533   2.493 -1.5319 -2.0413 -1.7256
  853WAT     H2 2771   2.035   2.626   2.374 -0.4060 -1.0712 -0.8791
  854WAT      O 2772   3.575   3.542   2.919  0.7435 -0.0889  0.1822
  854WAT     H1 2773   3.564   3.489   2.998 -1.3465  0.5180  0.3515
  854WAT     H2 2774   3.488   3.546   2.880  1.4550  0.7725 -1.4168
  855WAT      O 2775   0.552   3.129   4.107  0.0120 -0.1297 -0.0984
  855WAT     H1 2776   0.587   3.209   4.147 -0.4852 -0.6000  1.3744
  855WAT     H2 2777   0.529   3.154   4.018  1.1439  0.9971 -0.0880
  856WAT      O 2778   2.545   2.065   0.956  0.4362  0.5593 -0.4812
  856WAT     H1 2779   2.578   2.116   0.882 -0.3332 -1.9033 -2.6750
  856WAT     H2 2780   2.501   1.990   0.915  0.2431 -1.0874  2.4980
  857WAT      O 2781   0.039   2.498   1.894 -0.0860  0.0536 -0.2691
  857WAT     H1 2782  -0.001   2.469   1.812 -1.5912  0.3470  0.3178
  857WAT     H2 2783   0.010   2.434   1.959 -0.2189  0.6991  0.3195
  858WAT      O 2784   4.083   0.179   4.608  0.2389 -0.1222  0.1482
  858WAT     H1 2785   4.112   0.266   4.583  1.3261 -0.5634 -0.1786
  858WAT     H2 2786   4.155   0.144   4.660 -0.5816 -0.4775  1.0826
  859WAT      O 2787   1.496   2.554   4.330 -0.1176 -0.6127 -0.4151
  859WAT     H1 2788   1.438   2.567   4.405  0.6171  2.3218 -0.2617
  859WAT     H2 2789   1.584   2.553   4.367  0.1990 -0.1109 -1.1231
  860WAT      O 2790   3.632   0.869   1.978 -0.4904 -0.0082 -0.3130
  860WAT     H1 2791   3.683   0.789   1.968  1.4680  0.8175  2.0926
  860WAT     H2 2792   3.689   0.939   1.945 -0.8939  0.7308  0.5105
  861WAT      O 2793   1.411   3.659   2.937  0.7457  0.4331 -0.0133
  861WAT     H1 2794   1.487   3.714   2.955  0.4334  0.2472  2.1955
  861WAT     H2 2795   1.444   3.570   2.945  0.4572  0.3417  0.1553
  862WAT      O 2796   1.820   2.549   2.758  0.3413  0.3675  0.5392
  862WAT     H1 2797   1.798   2.521   2.847 -0.7996  0.8470  0.4184
  862WAT     H2 2798   1.857   2.470   2.717 -2.0587 -0.8016  0.4675
  863WAT      O 2799   0.861   1.296   3.881  0.1081 -0.7646 -0.0078
  863WAT     H1 2800   0.916   1.355   3.933 -0.1626 -0.7537  0.2667
  863WAT     H2 2801   0.782   1.284   3.933 -0.0340 -1.0054 -0.2741
  864WAT      O 2802   2.540   1.955   0.592 -0.2766 -0.1830  0.8916
  864WAT     H1 2803   2.479   1.957   0.518  0.2201  1.4517  0.5032
  864WAT     H2 2804   2.485   1.932   0.667 -0.8965 -1.2633  0.1379
  865WAT      O 2805   2.183   3.275   1.116 -0.1324  0.5685 -0.2074
  865WAT     H1 2806   2.213   3.184   1.117  1.1051  0.9570 -0.3852
  865WAT     H2 2807   2.114   3.279   1.181 -0.5112 -0.6050 -0.5242
  866WAT      O 2808   4.293   0.657   2.186  0.2078  0.1919  0.0913
  866WAT     H1 2809   4.298   0.565   2.213 -0.0521  0.2657  0.4003
  866WAT     H2 2810   4.324   0.657   2.096 -1.2244 -0.4440 -0.4367
  867WAT      O 2811   4.258   1.411   4.257  0.2912  0.5474  0.2971
  867WAT     H1 2812   4.331   1.411   4.320  1.7795  3.4365 -1.1836
  867WAT     H2 2813   4.246   1.504   4.236 -2.4327 -0.0403 -1.1651
  868WAT      O 2814   3.677   2.562   1.120 -0.0464 -0.4926  0.2932
  868WAT     H1 2815   3.744   2.529   1.180  0.6432 -1.0994 -0.7708
  868WAT     H2 2816   3.608   2.496   1.123 -0.0611 -0.4688  0.4943
  869WAT      O 2817   3.823   0.494   1.433  0.0716  0.4225 -0.5328
  869WAT     H1 2818   3.842   0.460   1.520  1.2711  1.0802 -0.5116
  869WAT     H2 2819   3.862   0.582   1.432  0.2250  0.3705 -1.7818
  870WAT      O 2820   1.911   3.745   5.213 -0.2749 -0.4573 -0.1116
  870WAT     H1 2821   1.867   3.809   5.269  1.2298 -0.6051  1.2976
  870WAT     H2 2822   1.905   3.782   5.125  1.9224  2.5015  0.8175
  871WAT      O 2823   1.644   2.967   1.758 -0.3889  0.1818  0.3378
  871WAT     H1 2824   1.700   2.893   1.735 -0.3533 -0.1294  1.3725
  871WAT     H2 2825   1.700   3.025   1.809 -0.7863  0.2557  0.6949
  872WAT      O 2826   0.634   1.807   3.898 -0.2215  0.0160 -0.1985
  872WAT     H1 2827   0.651   1.713   3.892 -2.7008 -0.7047  1.9168
  872WAT     H2 2828   0.721   1.846   3.912  1.0545 -1.7047 -2.5658
  873WAT      O 2829   0.731   1.579   0.834  0.0985  0.5027  0.4759
  873WAT     H1 2830   0.753   1.615   0.748 -0.4983  0.3326  0.2486
  873WAT     H2 2831   0.792   1.622   0.894  0.9078  0.1923 -0.1076
  874WAT      O 2832   1.887   3.279   2.229 -0.1859  0.2354  0.2264
  874WAT     H1 2833   1.799   3.240   2.233 -0.7672  1.1660 -1.9708
  874WAT     H2 2834   1.881   3.358   2.283 -0.3028 -0.3534  1.0957
  875WAT      O 2835   4.162   1.625   2.097 -0.0885  0.3139 -0.1488
  875WAT     H1 2836   4.130   1.715   2.096 -1.1356 -0.0439  0.2510
  875WAT     H2 2837   4.140   1.592   2.185  0.6246 -0.2190 -0.1557
  876WAT      O 2838   2.221   3.918   2.342  0.2565 -0.5094  0.6080
  876WAT     H1 2839   2.232   3.993   2.400 -0.8820  0.3132 -0.2047
  876WAT     H2 2840   2.233   3.953   2.254  2.3180 -1.8037  0.2943
  877WAT      O 2841   1.533   0.802   4.319  0.0163 -0.0909  0.3546
  877WAT     H1 2842   1.603   0.796   4.253 -1.9313 -0.1361 -1.8372
  877WAT     H2 2843   1.523   0.713   4.351 -0.9383 -0.7162 -1.5108
  878WAT      O 2844   2.937   0.130   2.993  0.6655 -0.3062 -0.2543
  878WAT     H1 2845   2.992   0.082   3.055  3.1205 -0.2889 -2.2758
  878WAT     H2 2846   2.955   0.222   3.011 -0.2074 -0.2276  0.3054
  879WAT      O 2847   2.348   2.294   3.870 -0.4764  0.1530  0.5349
  879WAT     H1 2848   2.367   2.235   3.797  3.1081  0.4156  1.0795
  879WAT     H2 2849   2.279   2.352   3.837 -0.5788 -1.1896 -1.7860
  880WAT      O 2850   1.887   2.605   0.408 -0.2855  0.0594 -0.6074
  880WAT     H1 2851   1.857   2.691   0.438 -0.8317 -0.8480  1.6405
  880WAT     H2 2852   1.823   2.578   0.343 -0.0083  1.3943 -1.4741
  881WAT      O 2853   3.283   1.985   4.714  0.2455  0.1305  0.0726
  881WAT     H1 2854   3.193   1.964   4.692  0.1654  1.8045 -1.4645
  881WAT     H2 2855   3.335   1.930   4.655  0.1609  0.5901 -0.4409
  882WAT      O 2856   2.521   3.048   5.123  0.5463  0.1552 -0.9283
  882WAT     H1 2857   2.436   3.092   5.132  0.7188  0.5282 -1.0879
  882WAT     H2 2858   2.500   2.955   5.125  0.3676  0.1812  1.4962
  883WAT      O 2859   0.761   0.481   0.759 -0.0722 -0.4291 -0.1590
  883WAT     H1 2860   0.770   0.519   0.846 -0.4962  0.8305 -0.6438
  883WAT     H2 2861   0.813   0.400   0.763  1.0984  0.3316  0.8034
  884WAT      O 2862   0.294   4.327   0.004 -0.1022 -0.1929  0.0746
  884WAT     H1 2863   0.358   4.330  -0.066  1.8908  3.9622  1.7195
  884WAT     H2 2864   0.344   4.347   0.083 -2.9620  0.1728  1.9473
  885WAT      O 2865   2.563   4.756   3.568  0.2222 -0.2450 -0.1993
  885WAT     H1 2866   2.539   4.734   3.478  0.9711  1.7449 -0.9230
  885WAT     H2 2867   2.509   4.697   3.621 -1.5518 -0.2821 -1.9027
  886WAT      O 2868   3.926   4.618   4.465 -0.3065 -0.0090 -0.3945
  886WAT     H1 2869   3.972   4.599   4.383  0.1157  0.0450 -0.1755
  886WAT     H2 2870   3.934   4.537   4.516 -0.4854 -0.0103 -0.3668
  887WAT      O 2871   0.446   2.676   0.716 -0.1770  0.0884  0.3786
  887WAT     H1 2872   0.396   2.704   0.793 -2.0267 -1.4886 -0.1697
  887WAT     H2 2873   0.480   2.590   0.740  0.8963  0.4266  0.1133
  888WAT      O 2874   4.442   4.659   0.519 -0.0142 -0.1303  0.4294
  888WAT     H1 2875   4.498   4.687   0.591  0.5916 -1.3050  0.4455
  888WAT     H2 2876   4.450   4.563   0.518 -3.7888 -0.6143  1.8796
  889WAT      O 2877   1.669   4.277   2.851  0.2683 -0.8706  0.2855
  889WAT     H1 2878   1.607   4.333   2.898  1.1749 -0.6715  1.2890
  889WAT     H2 2879   1.699   4.330   2.778 -0.9817 -1.0972 -0.4310
  890WAT      O 2880   3.867   2.990   4.877  0.3521 -0.1234 -0.4614
  890WAT     H1 2881   3.793   2.972   4.935  1.5600  0.8800  1.4742
  890WAT     H2 2882   3.828   3.035   4.802 -1.1012 -0.3832  0.1074
  891WAT      O 2883   1.902   2.776   2.678 -0.3296 -0.1090 -0.5846
  891WAT     H1 2884   1.946   2.757   2.595 -2.5543  1.1789 -2.1762
  891WAT     H2 2885   1.868   2.691   2.707 -0.3440 -0.4264 -1.4957
  892WAT      O 2886   0.623   0.998   3.339 -0.2264 -0.2164 -0.3072
  892WAT     H1 2887   0.561   0.937   3.378 -0.4226  0.3850  0.3409
  892WAT     H2 2888   0.704   0.947   3.332 -0.4085 -0.5787  0.1482
  893WAT      O 2889   2.646   1.786   2.397 -0.1474 -0.0629 -0.1762
  893WAT     H1 2890   2.680   1.698   2.381  1.6702  0.6289 -0.2670
  893WAT     H2 2891   2.573   1.795   2.336 -1.8910 -2.3153  1.3997
  894WAT      O 2892   1.924   2.015   4.521  0.0766  0.0918  0.3438
  894WAT     H1 2893   1.978   1.976   4.453 -1.1109 -0.5735 -0.2407
  894WAT     H2 2894   1.983   2.076   4.566  1.5715 -1.2801  0.3445
  895WAT      O 2895   1.393   1.450   4.958  0.5591 -0.1726 -0.2921
  895WAT     H1 2896   1.407   1.417   5.046 -2.1973  0.9720  0.6900
  895WAT     H2 2897   1.389   1.372   4.903 -3.4820 -1.5767  1.5833
  896WAT      O 2898   3.452   0.619   4.235 -0.4508  0.1795 -0.3329
  896WAT     H1 2899   3.478   0.580   4.151  1.1268  0.4425  0.0078
  896WAT     H2 2900   3.397   0.553   4.276 -2.0122  0.3900 -1.9272
  897WAT      O 2901   1.432   1.644   1.375  0.3375 -0.2099 -0.0581
  897WAT     H1 2902   1.444   1.568   1.433 -0.7054  0.8760  1.6909
  897WAT     H2 2903   1.345   1.631   1.336 -0.1773  0.4078  0.8344
  898WAT      O 2904   0.490   2.992   0.741 -0.1561  0.0398  0.7907
  898WAT     H1 2905   0.483   2.924   0.675  0.2822 -0.4184  1.2012
  898WAT     H2 2906   0.477   3.074   0.694  0.8602 -0.2330  0.0094
  899WAT      O 2907   3.831   2.344   3.566 -0.1818  0.2382  0.8089
  899WAT     H1 2908   3.798   2.414   3.622 -0.4532  0.7811 -0.0014
  899WAT     H2 2909   3.799   2.264   3.606 -1.3558  0.6820  0.7892
  900WAT      O 2910   2.001   3.523   4.312 -0.4527  0.7487  0.6156
  900WAT     H1 2911   1.953   3.599   4.280  0.9015  0.9369 -1.1218
  900WAT     H2 2912   2.083   3.559   4.345  0.4189  0.0110 -0.7059
  901WAT      O 2913   2.833   1.045   1.830 -0.3719  0.2961 -0.3340
  901WAT     H1 2914   2.763   1.111   1.830  0.0244  0.7197 -0.2275
  901WAT     H2 2915   2.889   1.070   1.903  1.0011  1.1481 -1.6341
  902WAT      O 2916   2.015   0.200   2.700 -0.9538  0.0240 -0.0393
  902WAT     H1 2917   1.967   0.280   2.680 -0.9427 -0.1949 -0.9532
  902WAT     H2 2918   2.084   0.228   2.760 -0.4456  0.8513 -0.9809
  903WAT      O 2919   3.784   4.928   1.856  0.0423  0.4170  0.3310
  903WAT     H1 2920   3.733   4.859   1.898  0.6701  1.1224  2.4090
  903WAT     H2 2921   3.874   4.895   1.857  0.3406  1.2083  1.3079
  904WAT      O 2922   3.065   3.008   4.998  0.0413  0.6142  0.6373
  904WAT     H1 2923   3.040   3.089   4.953 -0.4031  0.8487  1.2946
  904WAT     H2 2924   3.111   3.037   5.076 -2.2286  0.3325  2.1657
  905WAT      O 2925   2.364   1.866   1.432  0.7255  0.3505 -0.0342
  905WAT     H1 2926   2.324   1.787   1.395 -0.4701 -0.3931  2.6165
  905WAT     H2 2927   2.445   1.836   1.472  0.0529  0.3150  1.3661
  906WAT      O 2928   4.437   3.087   0.720  0.1627  0.6447 -0.1162
  906WAT     H1 2929   4.358   3.045   0.753  0.6249 -1.1807 -1.1925
  906WAT     H2 2930   4.409   3.174   0.693 -0.7745  1.2542  2.4716
  907WAT      O 2931   0.926   4.171   3.098  0.8511 -0.3875 -0.2408
  907WAT     H1 2932   0.887   4.220   3.026  0.5615 -0.6746 -0.2815
  907WAT     H2 2933   0.922   4.080   3.070  0.3560 -0.5423  0.3087
  908WAT      O 2934   2.808   2.611   5.014 -0.0344  0.1957  0.3323
  908WAT     H1 2935   2.740   2.610   5.082 -0.2687  0.1943  0.0971
  908WAT     H2 2936   2.880   2.562   5.053 -0.2784 -0.0599  0.4700
  909WAT      O 2937   4.525   3.924   3.969  0.1220  0.4389 -0.3290
  909WAT     H1 2938   4.507   4.014   3.996 -1.2561  0.5337 -1.4426
  909WAT     H2 2939   4.538   3.930   3.874 -0.4543 -0.5880 -0.4882
  910WAT      O 2940   1.570   3.598   0.600  0.1356  0.1412  0.1099
  910WAT     H1 2941   1.664   3.582   0.594 -0.2338 -2.8067  0.8472
  910WAT     H2 2942   1.531   3.541   0.534 -1.2503 -0.3642  1.3048
  911WAT      O 2943   1.606   0.978   0.457  0.4447  0.4619 -0.1237
  911WAT     H1 2944   1.536   0.957   0.518  1.2800 -0.3789  0.5879
  911WAT     H2 2945   1.632   0.894   0.419  0.8907  0.7880 -0.5682
  912WAT      O 2946   0.960   3.698   4.841 -0.2091  0.6893 -0.3708
  912WAT     H1 2947   0.997   3.750   4.912 -1.6975  0.5027  0.5948
  912WAT     H2 2948   1.033   3.644   4.811  0.4621  0.7430  1.0555
  913WAT      O 2949   1.177   2.775   0.664  0.1809  0.4158 -0.1211
  913WAT     H1 2950   1.098   2.730   0.695  0.0443 -1.4446 -2.8351
  913WAT     H2 2951   1.247   2.711   0.678  1.5218  2.3392  3.0159
  914WAT      O 2952   4.236   2.724   4.449  0.2698 -0.0250  0.3002
  914WAT     H1 2953   4.182   2.801   4.465 -1.5374 -1.1377 -0.2339
  914WAT     H2 2954   4.318   2.760   4.415 -0.2603  1.6892  0.7232
  915WAT      O 2955   3.821   4.801   0.356 -0.2249  0.0198  0.7708
  915WAT     H1 2956   3.901   4.848   0.331  0.1334  0.0557  1.9089
  915WAT     H2 2957   3.824   4.799   0.452 -0.4112 -1.9989  0.7789
  916WAT      O 2958   3.852   2.386   0.826 -0.2475 -0.0672 -0.2808
  916WAT     H1 2959   3.868   2.301   0.783  0.7097  0.0786 -0.2474
  916WAT     H2 2960   3.761   2.382   0.854 -0.4851 -0.7227 -1.0979
  917WAT      O 2961   4.332   4.993   4.897 -0.1695 -0.0252  0.6143
  917WAT     H1 2962   4.293   5.067   4.944 -0.9171 -0.3228  0.4715
  917WAT     H2 2963   4.359   4.933   4.967 -1.6690 -0.6631  0.6836
  918WAT      O 2964   0.305   3.830   2.630  0.2023 -0.1967 -0.3877
  918WAT     H1 2965   0.310   3.812   2.724  0.5338 -0.6002 -0.4851
  918WAT     H2 2966   0.275   3.748   2.591  0.9614 -0.3103 -0.7383
  919WAT      O 2967   2.504   3.108   0.411 -0.3340  0.4854 -0.0745
  919WAT     H1 2968   2.585   3.062   0.434 -0.7471 -0.6890 -0.8807
  919WAT     H2 2969   2.454   3.045   0.359 -0.6644  2.0556 -1.7814
  920WAT      O 2970   4.311   1.058   4.755 -0.1011 -0.8239  0.0738
  920WAT     H1 2971   4.304   1.154   4.762 -0.0377 -0.9175  1.8991
  920WAT     H2 2972   4.382   1.044   4.693 -1.1884  0.2768 -1.5148
  921WAT      O 2973   2.872   3.255   3.408  0.3669 -0.2618 -0.0058
  921WAT     H1 2974   2.821   3.233   3.486  0.0022 -1.1555 -0.4731
  921WAT     H2 2975   2.963   3.242   3.434  0.1910 -1.9827 -0.1188
  922WAT      O 2976   0.690   3.019   5.178 -0.4852 -0.0660 -0.2500
  922WAT     H1 2977   0.755   2.997   5.110 -1.0557 -1.2620 -0.4323
  922WAT     H2 2978   0.609   2.981   5.146 -1.1143  0.7258  0.3686
  923WAT      O 2979   2.241   1.944   1.118  0.0783 -0.4187  0.1500
  923WAT     H1 2980   2.283   1.918   1.036 -0.6443 -1.2285  0.0185
  923WAT     H2 2981   2.228   1.862   1.166 -1.1836 -0.1795  0.2597
  924WAT      O 2982   2.364   4.344   3.035  0.7607 -0.6313 -0.2718
  924WAT     H1 2983   2.397   4.343   2.946 -1.8155  0.8891 -1.3503
  924WAT     H2 2984   2.295   4.277   3.036 -1.2804  1.3319 -0.4119
  925WAT      O 2985   3.890   4.156   2.104 -0.6642  0.0836 -0.6055
  925WAT     H1 2986   3.953   4.169   2.175 -0.6023  2.7171 -1.0491
  925WAT     H2 2987   3.943   4.124   2.031 -0.8535 -3.5062  0.6340
  926WAT      O 2988   1.883   3.948   0.115  1.0864 -0.8628  0.1623
  926WAT     H1 2989   1.888   3.894   0.195 -0.6376 -0.0225  0.8930
  926WAT     H2 2990   1.790   3.971   0.108  1.3966  0.0198 -1.4796
  927WAT      O 2991   0.102   0.751   1.845 -0.4286  0.5953  0.4362
  927WAT     H1 2992   0.093   0.791   1.932 -1.1936 -0.5284  0.8819
  927WAT     H2 2993   0.028   0.691   1.838  1.1889 -1.4749  0.1818
  928WAT      O 2994   1.118   3.986   0.106  0.1671 -0.4925 -0.0387
  928WAT     H1 2995   1.152   3.908   0.149  0.3665 -0.6269 -0.4335
  928WAT     H2 2996   1.194   4.025   0.064 -0.3585 -1.5275 -2.0668
  929WAT      O 2997   4.254   3.573   5.148  0.0351  0.0986  0.2599
  929WAT     H1 2998   4.315   3.643   5.124 -0.6344  0.8870  0.8024
  929WAT     H2 2999   4.222   3.540   5.065 -0.0197  0.7788  0.0015
  930WAT      O 3000   4.171   4.728   2.975  0.1861 -0.2071 -0.5506
  930WAT     H1 3001   4.103   4.719   2.909 -0.3245 -1.2376  0.0844
  930WAT     H2 3002   4.196   4.820   2.972  1.3056 -0.4965 -3.2467
  931WAT      O 3003   1.600   2.091   0.161  0.9415 -0.0626 -0.4837
  931WAT     H1 3004   1.579   2.043   0.241 -0.3783 -0.4745 -1.0586
  931WAT     H2 3005   1.666   2.155   0.188 -1.4853  1.7727  1.6137
  932WAT      O 3006   2.567   2.649   4.624 -0.9961 -0.2940  0.3158
  932WAT     H1 3007   2.574   2.624   4.532  0.2902 -0.0763  0.3304
  932WAT     H2 3008   2.657   2.644   4.657 -1.6849 -2.3932  2.1307
  933WAT      O 3009   0.325   4.323   1.030  0.8544  0.1642 -0.4550
  933WAT     H1 3010   0.272   4.244   1.042  1.5098 -0.0022  1.7336
  933WAT     H2 3011   0.383   4.301   0.956 -1.5878  0.1403 -2.5170
  934WAT      O 3012   0.741   5.127   2.776 -0.4179  0.1357 -0.3625
  934WAT     H1 3013   0.787   5.157   2.854  0.2252  1.0464 -1.0873
  934WAT     H2 3014   0.650   5.117   2.805 -0.2193  0.6231  0.4617
  935WAT      O 3015   2.675   1.620   1.067 -0.3168 -0.2519  0.0310
  935WAT     H1 3016   2.639   1.550   1.012  0.1245 -1.0933  0.7845
  935WAT     H2 3017   2.715   1.574   1.141 -2.3072  0.9117  1.9259
  936WAT      O 3018   1.803   2.317   0.192 -0.6515  0.2083  0.0394
  936WAT     H1 3019   1.737   2.385   0.208  0.4305  1.0639  0.9647
  936WAT     H2 3020   1.829   2.330   0.101 -1.7465 -0.1438 -0.3414
  937WAT      O 3021   3.078   4.939   4.005  0.0978 -0.1852 -0.5317
  937WAT     H1 3022   3.135   4.999   3.957  0.4675  0.3817  0.5872
  937WAT     H2 3023   3.026   4.896   3.937 -0.5625  1.7847 -1.3657
  938WAT      O 3024   4.402   1.107   0.219  0.1534  0.2115 -0.3420
  938WAT     H1 3025   4.334   1.142   0.161 -1.2573 -1.4445  0.2283
  938WAT     H2 3026   4.482   1.109   0.166 -0.8696 -0.2230 -1.9872
  939WAT      O 3027   2.336   2.700   2.396 -0.2369  0.5653 -0.4801
  939WAT     H1 3028   2.408   2.671   2.340  0.2277 -0.9611  0.8568
  939WAT     H2 3029   2.276   2.744   2.336  0.4531 -0.6217 -2.1060
  940WAT      O 3030   2.937   4.253   0.331 -0.0081  0.3518  0.0785
  940WAT     H1 3031   2.983   4.248   0.415  0.7282  0.7089 -0.2994
  940WAT     H2 3032   2.853   4.210   0.348  0.0339  0.6218  1.0601
  941WAT      O 3033   0.190   2.771   2.177 -0.3934 -0.0571 -0.1899
  941WAT     H1 3034   0.230   2.735   2.098 -1.2184 -1.9473  0.1809
  941WAT     H2 3035   0.186   2.697   2.238 -0.8635  1.0487  1.1881
  942WAT      O 3036   3.875   1.489   0.957  0.0079 -0.1754  0.2988
  942WAT     H1 3037   3.957   1.526   0.923 -0.1990  0.6751  0.6759
  942WAT     H2 3038   3.874   1.399   0.926  0.6820  0.0519 -0.4194
  943WAT      O 3039   0.124   1.098   0.635 -0.2213 -0.4618 -0.0114
  943WAT     H1 3040   0.081   1.178   0.663  1.1144  0.1890  0.2492
  943WAT     H2 3041   0.061   1.056   0.576 -1.9062 -0.4172  1.6545
  944WAT      O 3042   3.168   3.094   1.934  0.1870 -0.5032 -0.1982
  944WAT     H1 3043   3.138   3.121   2.021  0.0155  1.1595 -0.7481
  944WAT     H2 3044   3.228   3.021   1.952 -0.6845 -0.9085  1.2262
  945WAT      O 3045   1.087   3.302   4.447  0.0868  0.1004 -0.2458
  945WAT     H1 3046   1.030   3.328   4.519 -0.5009  0.0071 -0.6652
  945WAT     H2 3047   1.033   3.243   4.394  0.5646  0.0322 -0.6679
  946WAT      O 3048   4.215   1.776   3.329  0.0867  0.3681  0.3114
  946WAT     H1 3049   4.281   1.838   3.297  0.7296 -0.0664  0.7549
  946WAT     H2 3050   4.132   1.811   3.299  0.6988 -0.9495 -3.5624
  947WAT      O 3051   2.184   1.118   0.152 -0.5304 -0.4654  0.5197
  947WAT     H1 3052   2.253   1.171   0.112 -0.0862  1.8775  3.9828
  947WAT     H2 3053   2.221   1.030   0.158  1.5114  0.3575  0.7241
  948WAT      O 3054   4.473   3.991   3.679  0.0539  0.3432 -0.2560
  948WAT     H1 3055   4.517   3.944   3.608 -2.4499 -2.2610 -0.2813
  948WAT     H2 3056   4.518   4.075   3.684  2.4889 -0.6762 -2.6672
  949WAT      O 3057   0.987   2.053   2.279  0.2202  0.4184 -0.0681
  949WAT     H1 3058   1.047   1.996   2.231 -0.3266  0.4833 -0.8379
  949WAT     H2 3059   1.045   2.113   2.327  0.8462 -1.1973  1.3418
  950WAT      O 3060   2.877   2.056   1.717  0.5367 -0.4864  0.1319
  950WAT     H1 3061   2.912   1.967   1.716 -1.3882 -1.2937 -0.0092
  950WAT     H2 3062   2.890   2.087   1.627 -0.0761 -1.1755 -0.2020
  951WAT      O 3063   3.503   0.580   1.284 -0.2017 -0.1638  0.0619
  951WAT     H1 3064   3.475   0.645   1.349  1.9559  0.3779  0.5058
  951WAT     H2 3065   3.434   0.514   1.285 -1.1876  0.8387  1.4523
  952WAT      O 3066   2.685   1.808   0.275 -0.0571  0.0986  0.3690
  952WAT     H1 3067   2.725   1.847   0.352  1.6339  0.9901 -0.8824
  952WAT     H2 3068   2.606   1.859   0.260 -0.1439  0.2191  1.2274
  953WAT      O 3069   0.016   1.713   2.079  0.1945 -0.0257 -0.6519
  953WAT     H1 3070   0.068   1.793   2.078  0.2997 -0.0813 -0.0497
  953WAT     H2 3071  -0.051   1.728   2.146 -0.0153 -0.3003 -0.7962
  954WAT      O 3072   0.910   4.901   0.050  0.0832 -0.6346  0.2783
  954WAT     H1 3073   0.945   4.984   0.019  0.5559 -1.3081 -1.0731
  954WAT     H2 3074   0.987   4.847   0.067 -0.2269 -1.3336 -0.4443
  955WAT      O 3075   4.034   1.198   2.861 -0.5430 -0.1779 -0.0554
  955WAT     H1 3076   3.968   1.180   2.795  0.1815 -0.3208 -0.7511
  955WAT     H2 3077   4.094   1.124   2.857 -0.4010 -0.1139  0.6557
  956WAT      O 3078   4.380   2.458   4.441 -0.7417  0.0618 -0.2178
  956WAT     H1 3079   4.429   2.399   4.499 -0.6370 -0.7056 -1.0560
  956WAT     H2 3080   4.349   2.528   4.498  1.2356  0.5262  0.3706
  957WAT      O 3081   0.174   2.098   0.911  0.1972  0.1851  0.1078
  957WAT     H1 3082   0.117   2.124   0.839  1.5401 -0.0435 -1.0830
  957WAT     H2 3083   0.191   2.005   0.896  0.1213  0.0123  1.0012
  958WAT      O 3084   2.074   3.433   3.837  0.1675  0.7615 -0.1914
  958WAT     H1 3085   2.161   3.405   3.865 -0.7833 -1.2227  1.0008
  958WAT     H2 3086   2.016   3.403   3.907 -1.4606  2.3350 -0.7878
  959WAT      O 3087   3.537   3.449   2.410 -0.2211 -0.5258  0.0821
  959WAT     H1 3088   3.488   3.484   2.484  1.0481  1.7671 -0.0899
  959WAT     H2 3089   3.629   3.459   2.434  0.2094 -0.9030 -1.3045
  960WAT      O 3090   2.906   3.391   4.245 -0.1234 -0.4181  0.1525
  960WAT     H1 3091   2.997   3.363   4.235  0.3791  1.2334 -0.2720
  960WAT     H2 3092   2.880   3.359   4.332  0.6554 -1.4144  0.0273
  961WAT      O 3093   0.893   1.255   3.390  0.3326  0.2660 -0.1330
  961WAT     H1 3094   0.833   1.248   3.463 -1.3653 -0.8542 -1.5447
  961WAT     H2 3095   0.943   1.174   3.391 -2.0043 -1.3566 -2.0182
  962WAT      O 3096   2.006   0.348   0.097  0.9463  0.2455 -0.4309
  962WAT     H1 3097   2.102   0.358   0.094  0.8846  0.6952 -2.2739
  962WAT     H2 3098   1.973   0.425   0.051 -0.3026  0.0053  0.0383
  963WAT      O 3099   0.807   2.606   1.330  0.1335 -0.3867 -0.3579
  963WAT     H1 3100   0.809   2.647   1.244  0.5343 -0.5368 -0.4199
  963WAT     H2 3101   0.754   2.527   1.317 -0.9366  0.2696 -0.1601
  964WAT      O 3102   3.238   1.814   1.954  0.0308  0.1293 -0.4411
  964WAT     H1 3103   3.256   1.738   1.898  0.8244  0.4284 -0.6164
  964WAT     H2 3104   3.301   1.880   1.925  1.7163 -0.2821  1.9621
  965WAT      O 3105   1.710   1.837   5.017  0.2704  0.2296 -0.1598
  965WAT     H1 3106   1.662   1.863   5.096  0.4075 -0.3601  0.1201
  965WAT     H2 3107   1.649   1.779   4.971 -0.2710  1.4901 -1.0864
  966WAT      O 3108   1.513   4.068   4.710  0.6241  0.2539 -0.8421
  966WAT     H1 3109   1.432   4.020   4.694  0.3333  1.2791 -2.7339
  966WAT     H2 3110   1.493   4.123   4.786 -0.1746 -0.1100 -0.7715
  967WAT      O 3111   0.861   3.904   0.430 -0.3320 -0.7901 -0.0812
  967WAT     H1 3112   0.935   3.871   0.380  0.2746 -0.7283  0.7493
  967WAT     H2 3113   0.785   3.885   0.376  0.2094 -1.6243 -0.5644
  968WAT      O 3114   3.123   0.241   0.438 -0.4574 -0.0305  0.2589
  968WAT     H1 3115   3.129   0.333   0.414 -1.0742  0.0145  0.2788
  968WAT     H2 3116   3.045   0.235   0.493 -0.8587 -0.6974 -0.3680
  969WAT      O 3117   2.303   5.160   4.543  0.0106  0.0957  0.8229
  969WAT     H1 3118   2.221   5.111   4.549 -0.6672  0.8454 -1.2600
  969WAT     H2 3119   2.347   5.144   4.626 -0.4260 -3.5248  0.4967
  970WAT      O 3120   3.153   2.516   0.247 -0.1771 -0.4066  0.1567
  970WAT     H1 3121   3.177   2.425   0.229 -0.4735 -0.1163 -1.9376
  970WAT     H2 3122   3.224   2.567   0.207 -0.4198  0.2986  0.6191
  971WAT      O 3123   3.960   1.600   3.684 -0.0796 -0.1339  0.2232
  971WAT     H1 3124   3.875   1.585   3.726  0.2449  0.5990  1.1665
  971WAT     H2 3125   3.939   1.652   3.606 -0.4081  0.8353  0.9478
  972WAT      O 3126   3.669   0.695   0.509 -0.6346 -0.1562  0.6914
  972WAT     H1 3127   3.762   0.692   0.486  0.1194 -0.0588  3.3195
  972WAT     H2 3128   3.659   0.778   0.556 -1.7884 -0.6645  1.3847
  973WAT      O 3129   0.247   4.324   2.980 -0.0496  0.0796  0.2070
  973WAT     H1 3130   0.182   4.394   2.985 -2.6214 -2.1022 -0.3336
  973WAT     H2 3131   0.237   4.287   2.893  2.1914 -0.1923 -0.0090
  974WAT      O 3132   1.827   0.619   2.349 -0.1391 -0.3147 -0.6121
  974WAT     H1 3133   1.918   0.648   2.353 -0.7264  1.9101 -1.8679
  974WAT     H2 3134   1.820   0.573   2.266  0.0819 -1.5548  0.0309
  975WAT      O 3135   0.715   0.187   2.594 -0.3397 -0.0990 -0.1746
  975WAT     H1 3136   0.808   0.196   2.615 -0.4038 -1.2720  0.7109
  975WAT     H2 3137   0.683   0.121   2.656 -1.8791  0.6642 -0.1138
  976WAT      O 3138   0.237   2.360   2.218 -0.2216 -0.2786  0.5337
  976WAT     H1 3139   0.143   2.348   2.205  0.0824 -1.8460 -0.4642
  976WAT     H2 3140   0.243   2.411   2.299 -1.9759  2.0665 -0.7004
  977WAT      O 3141   3.058   4.521   3.822  0.4900 -0.1897  0.3011
  977WAT     H1 3142   3.149   4.553   3.821  0.4342 -0.0188  0.5849
  977WAT     H2 3143   3.005   4.601   3.826  0.2947 -0.2446 -0.7845
  978WAT      O 3144   2.229   1.508   4.669  0.4417 -0.8219 -0.1253
  978WAT     H1 3145   2.277   1.591   4.665  0.6768 -0.9551 -0.0484
  978WAT     H2 3146   2.293   1.444   4.699  0.7026 -1.3468 -1.6703
  979WAT      O 3147   1.774   1.000   2.765  0.1622  0.4638 -0.1103
  979WAT     H1 3148   1.853   1.039   2.727 -0.4248  1.9334  0.1158
  979WAT     H2 3149   1.702   1.054   2.733 -0.4405  1.3591  2.4737
  980WAT      O 3150   2.392   2.411   2.684 -0.2787  0.2775  0.6908
  980WAT     H1 3151   2.440   2.334   2.717  0.2334 -0.8179 -2.3340
  980WAT     H2 3152   2.395   2.473   2.757  1.9850 -1.3881  2.1703
  981WAT      O 3153   4.052   1.133   1.525  0.1119  0.1032  0.0327
  981WAT     H1 3154   4.043   1.224   1.554  1.9198 -0.5308  3.0364
  981WAT     H2 3155   4.146   1.116   1.531  0.1093 -1.3651 -2.6720
  982WAT      O 3156   2.185   1.884   2.140 -0.0665  0.5708  0.2292
  982WAT     H1 3157   2.260   1.922   2.093 -0.2773  1.1500  0.3529
  982WAT     H2 3158   2.113   1.944   2.122 -1.5357 -1.8622 -2.9675
  983WAT      O 3159   2.284   3.361   4.033  0.1329  0.1329  0.0665
  983WAT     H1 3160   2.349   3.361   4.103 -0.3720  1.3535  0.5597
  983WAT     H2 3161   2.204   3.328   4.075  0.2359 -0.6935 -0.3615
  984WAT      O 3162   3.089   5.056   1.626  0.2727 -0.4148  0.4062
  984WAT     H1 3163   3.119   5.027   1.713 -0.2629  0.3954  0.8692
  984WAT     H2 3164   3.092   5.151   1.630 -2.9870 -0.2208  0.7430
  985WAT      O 3165   2.839   3.960   0.038  0.3114  0.2621  0.4745
  985WAT     H1 3166   2.806   4.025  -0.024 -4.0756  1.0828  3.2471
  985WAT     H2 3167   2.913   4.004   0.081 -0.5060  2.1653  0.0430
  986WAT      O 3168   2.282   4.910   4.357 -0.4672  0.7487  0.7882
  986WAT     H1 3169   2.270   4.852   4.282  0.9935  0.4604  0.7579
  986WAT     H2 3170   2.195   4.947   4.372 -1.0416 -0.1011 -0.2903
  987WAT      O 3171   3.926   0.734   1.392  1.1674 -0.3146 -0.0988
  987WAT     H1 3172   3.891   0.818   1.364 -0.0237 -1.0507 -0.8999
  987WAT     H2 3173   4.003   0.720   1.337  1.6276  0.4183  0.3318
  988WAT      O 3174   1.867   3.792   1.039  0.4121  0.5112 -0.0642
  988WAT     H1 3175   1.841   3.728   1.105  0.7369  0.6855  0.2318
  988WAT     H2 3176   1.961   3.801   1.049  0.2729  1.6604  0.4721
  989WAT      O 3177   1.126   0.956   1.538  0.0404  0.2085 -0.2936
  989WAT     H1 3178   1.137   0.961   1.443  0.4241  3.1663 -0.2012
  989WAT     H2 3179   1.032   0.971   1.551  0.2086  1.3554 -0.2198
  990WAT      O 3180   2.835   4.943   1.799  0.1350  0.3719  0.4977
  990WAT     H1 3181   2.847   4.852   1.769 -0.5177  0.6192 -0.5595
  990WAT     H2 3182   2.917   4.987   1.775  1.3444 -0.3869  2.9193
  991WAT      O 3183   2.631   3.318   4.852  0.4633 -0.0158  0.1179
  991WAT     H1 3184   2.572   3.359   4.916  1.5228  1.0713  0.4412
  991WAT     H2 3185   2.599   3.228   4.844 -0.7705  0.3370  0.8448
  992WAT      O 3186   3.629   2.022   0.885  0.2593  0.1947  0.4571
  992WAT     H1 3187   3.706   2.038   0.830 -0.5910 -0.2050 -0.9245
  992WAT     H2 3188   3.650   1.943   0.934  0.8744  0.3075  0.3838
  993WAT      O 3189   1.412   1.704   1.844  0.2619 -0.5453 -0.2900
  993WAT     H1 3190   1.451   1.726   1.760  2.5731  1.2613  1.1201
  993WAT     H2 3191   1.485   1.671   1.897 -1.1058 -1.5844  1.0679
  994WAT      O 3192   3.689   5.029   1.629 -0.4834  0.3874  0.9144
  994WAT     H1 3193   3.709   4.996   1.717  1.5541  0.8107  0.6681
  994WAT     H2 3194   3.733   5.114   1.626 -0.5206  0.3679 -0.5140
  995WAT      O 3195   4.381   2.752   1.702 -0.7937  0.3702 -0.1592
  995WAT     H1 3196   4.407   2.766   1.611 -2.5365  1.3137 -0.5535
  995WAT     H2 3197   4.340   2.665   1.703  2.8529 -1.5589  0.6522
  996WAT      O 3198   1.685   4.691   4.714  0.1418 -0.2334 -0.1441
  996WAT     H1 3199   1.728   4.610   4.685  1.7568  0.1863  0.9056
  996WAT     H2 3200   1.701   4.753   4.643  1.4717 -0.0515  0.2737
  997WAT      O 3201   3.458   0.922   1.080 -0.1317 -0.2835  0.4621
  997WAT     H1 3202   3.527   0.882   1.028 -0.9803 -0.5715 -0.4703
  997WAT     H2 3203   3.488   1.012   1.096 -0.4568  0.2650 -1.7402
  998WAT      O 3204   2.296   2.286   2.982  0.0349  0.0625  0.1947
  998WAT     H1 3205   2.227   2.231   3.019 -0.7096 -0.0495 -1.2892
  998WAT     H2 3206   2.256   2.373   2.973 -0.4336 -0.3066 -1.9287
  999WAT      O 3207   0.168   2.901   0.082 -0.3482 -0.2342 -0.3169
  999WAT     H1 3208   0.213   2.827   0.123  0.9207 -0.1982 -1.5411
  999WAT     H2 3209   0.234   2.970   0.078 -1.6317  1.1553  1.1705
 1000WAT      O 3210   3.839   1.389   0.565 -0.0596  0.3926  0.3372
 1000WAT     H1 3211   3.875   1.311   0.523  1.7321  0.7234  1.1648
 1000WAT     H2 3212   3.912   1.427   0.613 -0.6229  3.1089 -0.7482
 1001WAT      O 3213   3.196   1.516   3.926  0.5424  0.5337  0.2504
 1001WAT     H1 3214   3.152   1.564   3.996 -2.2866 -1.2824 -0.1381
 1001WAT     H2 3215   3.135   1.519   3.852  1.7612 -0.8075 -0.8835
 1002WAT      O 3216   0.291   3.900   0.158  0.2616 -0.0916  0.5714
 1002WAT     H1 3217   0.316   3.894   0.066 -2.5138 -1.3056 -0.1920
 1002WAT     H2 3218   0.316   3.815   0.195 -0.6426 -0.4686  0.3454
 1003WAT      O 3219   1.251   4.780   0.459 -0.0316  0.1281 -0.5473
 1003WAT     H1 3220   1.242   4.705   0.400  0.6763  0.8154 -1.5738
 1003WAT     H2 3221   1.180   4.839   0.433 -2.4479 -1.3494  2.1834
 1004WAT      O 3222   2.564   1.343   0.996 -0.0337  0.0564 -0.3139
 1004WAT     H1 3223   2.490   1.355   0.936 -1.2939  0.0558  1.1809
 1004WAT     H2 3224   2.579   1.248   0.996 -1.9973 -0.3266  1.5493
 1005WAT      O 3225   1.198   2.731   3.201 -0.0636  0.2276 -0.1087
 1005WAT     H1 3226   1.244   2.811   3.178  2.2008 -1.0237 -0.2461
 1005WAT     H2 3227   1.153   2.752   3.283  1.2823  1.3531  0.3788
 1006WAT      O 3228   1.594   3.885   2.219 -0.0899  0.3112  0.7806
 1006WAT     H1 3229   1.683   3.879   2.252 -1.3314  1.5127  4.8332
 1006WAT     H2 3230   1.587   3.811   2.158  2.9815 -1.2015  2.0350
 1007WAT      O 3231   2.350   2.110   1.533 -0.0657  0.1195  0.0992
 1007WAT     H1 3232   2.407   2.130   1.607  0.0688 -0.0485  0.0411
 1007WAT     H2 3233   2.365   2.017   1.515 -0.7658 -0.0613  0.4349
 1008WAT      O 3234   3.842   4.176   0.538 -0.4515  0.2331 -0.3351
 1008WAT     H1 3235   3.817   4.248   0.480  0.1626 -0.2189 -1.1970
 1008WAT     H2 3236   3.938   4.179   0.540 -0.3265 -1.3377 -1.4664
 1009WAT      O 3237   4.218   2.957   1.091 -0.5587  0.4906 -0.6510
 1009WAT     H1 3238   4.236   3.037   1.042  1.1422  0.1547 -0.6382
 1009WAT     H2 3239   4.236   2.979   1.182 -0.2330  0.1302 -0.6263
 1010WAT      O 3240   2.656   4.936   3.230 -0.3934  0.1345  0.3903
 1010WAT     H1 3241   2.746   4.914   3.204 -0.6554  0.8539 -1.2898
 1010WAT     H2 3242   2.623   4.857   3.272  0.4572 -0.7570 -0.5469
 1011WAT      O 3243   3.831   3.579   1.501 -0.1569  0.5802 -0.2834
 1011WAT     H1 3244   3.765   3.586   1.570  0.4671  0.9988  0.2732
 1011WAT     H2 3245   3.867   3.667   1.493 -0.2632  0.5527 -1.1973
 1012WAT      O 3246   2.145   2.837   0.532  0.0208 -0.9343 -0.0759
 1012WAT     H1 3247   2.136   2.806   0.622  0.3222  0.0082  0.2867
 1012WAT     H2 3248   2.237   2.818   0.510  0.0702 -0.7531 -0.0266
 1013WAT      O 3249   2.923   2.085   1.460  0.1637 -0.1117  0.3153
 1013WAT     H1 3250   3.017   2.069   1.461 -0.2529 -3.2211 -0.0800
 1013WAT     H2 3251   2.908   2.136   1.380  1.5001  0.3858  0.3695
 1014WAT      O 3252   0.436   0.008   4.117  0.5830 -0.1734  0.1787
 1014WAT     H1 3253   0.450   0.095   4.079  0.9524 -0.2260  0.1938
 1014WAT     H2 3254   0.341   0.000   4.124  0.4061 -0.7101 -2.0372
 1015WAT      O 3255   2.589   4.663   0.049 -0.8477 -0.7271  0.2344
 1015WAT     H1 3256   2.595   4.572   0.021  0.0586 -0.7453  0.4468
 1015WAT     H2 3257   2.590   4.714  -0.032 -0.4577 -0.8772  0.1394
 1016WAT      O 3258   4.121   3.527   4.693  1.1033  0.1301  0.2333
 1016WAT     H1 3259   4.028   3.508   4.680  1.3208 -4.2213  3.1106
 1016WAT     H2 3260   4.164   3.491   4.616  0.5554  1.0394 -0.5206
 1017WAT      O 3261   0.200   1.421   4.577  0.0551 -0.5395  0.0200
 1017WAT     H1 3262   0.240   1.496   4.621  3.3495 -1.7055 -0.6854
 1017WAT     H2 3263   0.149   1.378   4.646  1.5509  0.0464  1.5807
 1018WAT      O 3264   1.001   0.636   3.207 -0.2807 -0.2350  0.2975
 1018WAT     H1 3265   1.049   0.561   3.171 -0.2383  0.6196 -1.5734
 1018WAT     H2 3266   1.066   0.682   3.260  0.0832 -0.7837  0.3387
 1019WAT      O 3267   1.134   2.909   2.397  0.3183  0.5197 -0.1704
 1019WAT     H1 3268   1.039   2.905   2.388  0.2733  2.3226 -0.8765
 1019WAT     H2 3269   1.159   2.820   2.424 -1.4898 -0.1495 -0.5409
 1020WAT      O 3270   0.050   4.934   1.160 -0.1918 -0.0865  0.3152
 1020WAT     H1 3271   0.091   4.968   1.080  0.5869  0.3522  0.8825
 1020WAT     H2 3272   0.122   4.893   1.207 -0.2079  1.3885  1.7077
 1021WAT      O 3273   2.896   2.928   0.286 -0.1856  0.7282  0.2114
 1021WAT     H1 3274   2.847   2.854   0.251  0.3629  0.2947  0.3555
 1021WAT     H2 3275   2.930   2.972   0.208 -2.0836  1.9611 -0.0001
 1022WAT      O 3276   1.167   3.895   4.753 -0.0252 -0.6550  0.0006
 1022WAT     H1 3277   1.252   3.851   4.760 -0.5423 -1.7061 -0.2717
 1022WAT     H2 3278   1.138   3.905   4.844  0.5338  0.0450  0.1231
 1023WAT      O 3279   3.140   1.231   0.948 -0.0142 -0.1492 -0.2290
 1023WAT     H1 3280   3.055   1.243   0.990 -0.0028 -0.8359  0.0020
 1023WAT     H2 3281   3.143   1.137   0.928  0.3296  0.0298 -1.0089
 1024WAT      O 3282   1.440   4.817   1.272  0.6761  0.5097 -0.0396
 1024WAT     H1 3283   1.379   4.782   1.207  0.5214 -0.5043  0.6222
 1024WAT     H2 3284   1.415   4.909   1.282  1.0019  0.8022 -1.7289
 1025WAT      O 3285   2.499   2.425   0.168 -0.5796 -0.2367 -0.3301
 1025WAT     H1 3286   2.539   2.375   0.239  2.7518  1.3247 -0.9366
 1025WAT     H2 3287   2.521   2.376   0.089 -3.0270 -1.1942 -0.5047
 1026WAT      O 3288   3.961   4.279   3.568 -0.6667  0.1003 -0.5958
 1026WAT     H1 3289   3.921   4.208   3.618 -0.1139  0.1919  0.0005
 1026WAT     H2 3290   3.953   4.253   3.477  0.1974 -1.0920 -0.3554
 1027WAT      O 3291   2.885   4.775   3.844  0.6643 -0.1294 -0.3784
 1027WAT     H1 3292   2.850   4.689   3.818 -0.0819  0.0188  0.0835
 1027WAT     H2 3293   2.809   4.821   3.879  1.0058  0.8187 -0.8561
 1028WAT      O 3294   4.032   0.211   4.960 -0.1271  0.5842  0.6331
 1028WAT     H1 3295   4.089   0.258   4.899  0.7980 -1.8757 -0.5475
 1028WAT     H2 3296   3.944   0.227   4.927  0.3724 -1.2717 -1.9855
 1029WAT      O 3297   4.171   4.416   2.487  0.6032 -0.2760 -0.1412
 1029WAT     H1 3298   4.226   4.368   2.549 -0.6205 -0.3683  0.9137
 1029WAT     H2 3299   4.220   4.496   2.469  0.3723  0.4374  2.0930
 1030WAT      O 3300   0.469   4.162   1.648  0.2842  0.8248  0.0993
 1030WAT     H1 3301   0.546   4.126   1.605  1.0393  0.0468  1.9861
 1030WAT     H2 3302   0.405   4.091   1.647  0.7340  0.3732  1.2473
 1031WAT      O 3303   4.095   4.178   3.275  0.1547 -0.0983  0.2850
 1031WAT     H1 3304   4.099   4.099   3.222  0.2807 -1.1966  1.8406
 1031WAT     H2 3305   4.021   4.227   3.240  0.6623 -0.4191 -1.3262
 1032WAT      O 3306   3.026   4.435   3.136  0.1254 -0.4008  0.6821
 1032WAT     H1 3307   3.060   4.459   3.222 -1.1927  0.3900  1.0110
 1032WAT     H2 3308   2.955   4.374   3.155  0.9123 -1.5717  0.0350
 1033WAT      O 3309   2.493   1.670   4.725 -0.5240 -0.4174  0.1092
 1033WAT     H1 3310   2.527   1.693   4.811 -1.0317 -1.8511  0.7162
 1033WAT     H2 3311   2.546   1.595   4.698 -0.2455  0.1290 -0.9343
 1034WAT      O 3312   2.918   2.059   4.897 -0.0093 -0.1235 -0.5560
 1034WAT     H1 3313   2.902   2.153   4.895  2.3681  0.3896  0.5998
 1034WAT     H2 3314   2.943   2.036   4.808 -1.1296  0.2008 -0.9680
 1035WAT      O 3315   3.161   1.495   2.171  0.7510 -0.7735  0.3354
 1035WAT     H1 3316   3.178   1.407   2.205 -1.8083 -1.9317 -1.0972
 1035WAT     H2 3317   3.154   1.550   2.249 -0.4844 -2.4494  1.4753
 1036WAT      O 3318   2.340   1.831   2.503  0.0278  0.0099  0.1786
 1036WAT     H1 3319   2.416   1.773   2.496  1.5646  1.6786  1.9018
 1036WAT     H2 3320   2.292   1.798   2.578 -0.0072 -0.0316  0.1377
 1037WAT      O 3321   0.588   2.038   4.414  0.0131 -0.0921 -0.0683
 1037WAT     H1 3322   0.607   2.014   4.504 -0.7910 -0.1625  0.0829
 1037WAT     H2 3323   0.658   1.996   4.363  0.6532  0.2115  0.5392
 1038WAT      O 3324   3.038   4.158   2.641  0.0321 -0.5245 -0.0749
 1038WAT     H1 3325   2.959   4.207   2.620  0.9700  0.6105 -1.1545
 1038WAT     H2 3326   3.096   4.173   2.566  1.0886 -1.7363  0.4528
 1039WAT      O 3327   3.241   3.155   0.027 -0.2990 -0.1880 -0.0864
 1039WAT     H1 3328   3.204   3.231   0.072  1.7975  0.0231  1.4756
 1039WAT     H2 3329   3.187   3.081   0.054  0.4322  0.0600  2.3030
 1040WAT      O 3330   0.785   3.741   4.148  0.1246  0.2542  0.0520
 1040WAT     H1 3331   0.767   3.699   4.232  2.5808  0.5494  0.7782
 1040WAT     H2 3332   0.808   3.669   4.090 -0.6201  0.1531 -0.1383
 1041WAT      O 3333   1.458   2.171   0.548  0.1694 -0.0771 -0.0278
 1041WAT     H1 3334   1.528   2.225   0.512  0.5046  0.0265  0.7445
 1041WAT     H2 3335   1.492   2.082   0.546  0.0620 -0.1129 -0.2618
 1042WAT      O 3336   4.149   1.634   0.998 -0.3827 -0.5654  0.5315
 1042WAT     H1 3337   4.222   1.654   1.056  0.0414  0.7174 -0.4255
 1042WAT     H2 3338   4.084   1.702   1.017 -1.8869 -2.3396  2.2125
 1043WAT      O 3339   1.353   0.478   3.290 -0.1284 -0.4114  0.0900
 1043WAT     H1 3340   1.276   0.479   3.233  0.8566  1.1070 -1.3367
 1043WAT     H2 3341   1.387   0.389   3.283 -0.1461 -0.3197 -1.5984
 1044WAT      O 3342   1.905   1.922   4.195 -0.2952  0.0192 -0.1823
 1044WAT     H1 3343   1.976   1.875   4.239 -0.3629 -0.0047 -0.0990
 1044WAT     H2 3344   1.907   1.890   4.105  0.7376  1.0617 -0.5631
 1045WAT      O 3345   0.355   0.437   2.315  0.0174  0.3766  0.0104
 1045WAT     H1 3346   0.331   0.527   2.291  1.3899  0.4167 -1.3278
 1045WAT     H2 3347   0.444   0.443   2.349  0.0419 -0.4552  0.1296
 1046WAT      O 3348   1.756   1.749   3.190 -0.3056  0.7464  0.1998
 1046WAT     H1 3349   1.777   1.764   3.282 -1.9085 -0.0436  0.7311
 1046WAT     H2 3350   1.778   1.658   3.174 -1.2864  0.4917  0.2067
 1047WAT      O 3351   1.855   2.359   1.640 -0.2216 -0.2370 -0.6156
 1047WAT     H1 3352   1.943   2.390   1.664 -0.6761  0.5239  0.1019
 1047WAT     H2 3353   1.847   2.274   1.684  0.0941 -0.2408 -0.5623
 1048WAT      O 3354   3.125   3.688   4.065  0.5083  0.0830  0.2483
 1048WAT     H1 3355   3.040   3.645   4.058  0.4824  0.2144 -0.3226
 1048WAT     H2 3356   3.118   3.742   4.143 -0.6630  1.6690 -0.8890
 1049WAT      O 3357   3.524   3.154   3.084  0.6591 -0.0026  0.2580
 1049WAT     H1 3358   3.576   3.149   3.004 -0.6491  0.4578 -0.6492
 1049WAT     H2 3359   3.486   3.242   3.083 -0.6384 -0.5252  0.5544
 1050WAT      O 3360   1.439   0.327   4.187  0.0579  0.2510  0.2794
 1050WAT     H1 3361   1.534   0.326   4.200  0.3523 -2.1884 -1.3415
 1050WAT     H2 3362   1.410   0.240   4.215 -2.0901  1.5898  2.6373
 1051WAT      O 3363   2.279   2.874   1.760 -0.2274 -0.1964  0.2594
 1051WAT     H1 3364   2.192   2.839   1.744 -0.3477 -0.2927  1.0681
 1051WAT     H2 3365   2.311   2.824   1.835  0.7429 -0.5317 -0.3570
 1052WAT      O 3366   0.501   0.922   4.855 -0.3899 -0.5072 -0.1276
 1052WAT     H1 3367   0.554   0.862   4.908  0.9807  0.1472 -0.7229
 1052WAT     H2 3368   0.519   0.897   4.765 -1.1831 -0.3262 -0.3435
 1053WAT      O 3369   0.048   1.994   4.587  0.7844 -0.3359  0.5794
 1053WAT     H1 3370   0.106   1.973   4.660 -0.3485  0.1855  1.6762
 1053WAT     H2 3371   0.101   2.047   4.528  1.4374  0.1082  1.5325
 1054WAT      O 3372   2.841   2.404   2.538  0.2423  0.7041  0.5388
 1054WAT     H1 3373   2.912   2.343   2.514  0.1872  0.5328  0.8050
 1054WAT     H2 3374   2.778   2.397   2.466  0.4377  0.7657  0.3606
 1055WAT      O 3375   3.925   3.469   1.008  0.1738  0.4785 -1.1086
 1055WAT     H1 3376   3.880   3.502   1.086 -0.9083 -1.8010 -0.7061
 1055WAT     H2 3377   4.017   3.470   1.031  0.0319  1.5373 -0.5105
 1056WAT      O 3378   3.061   0.767   1.088 -0.2718  0.1421  0.1674
 1056WAT     H1 3379   2.965   0.765   1.078 -0.2808  1.4839 -0.2390
 1056WAT     H2 3380   3.077   0.727   1.174 -1.2060 -0.0050  0.2848
 1057WAT      O 3381   4.072   2.848   5.002  0.3003  0.3041 -0.1540
 1057WAT     H1 3382   4.096   2.839   4.910  2.2187  1.8853  0.1199
 1057WAT     H2 3383   3.997   2.906   5.002  1.0410  1.2857 -0.6793
 1058WAT      O 3384   2.516   3.716   4.140  0.7278 -0.3141 -0.1950
 1058WAT     H1 3385   2.494   3.801   4.176 -2.0724 -0.9588 -0.1932
 1058WAT     H2 3386   2.545   3.664   4.215 -2.5561 -0.8617  0.8159
 1059WAT      O 3387   2.631   2.642   0.549  0.0153 -0.0720 -0.0980
 1059WAT     H1 3388   2.647   2.634   0.643  0.1924  2.2965  0.1242
 1059WAT     H2 3389   2.701   2.590   0.508 -0.2111 -1.3210  1.0638
 1060WAT      O 3390   2.760   1.350   2.349 -0.1287  0.1709 -0.8472
 1060WAT     H1 3391   2.689   1.355   2.414  0.5608 -0.9298  0.0045
 1060WAT     H2 3392   2.816   1.425   2.370  0.9579 -1.0750  0.8964
 1061WAT      O 3393   3.521   0.341   5.175 -0.3603 -0.4048  0.4679
 1061WAT     H1 3394   3.476   0.391   5.243  0.7206 -0.6667  1.4117
 1061WAT     H2 3395   3.482   0.371   5.093 -0.7763  0.8936  1.1144
 1062WAT      O 3396   3.322   3.581   3.413 -0.1725 -0.3001 -0.4870
 1062WAT     H1 3397   3.339   3.620   3.327 -1.7879  2.2710  0.2260
 1062WAT     H2 3398   3.228   3.595   3.427  0.0520 -0.6581  1.6946
 1063WAT      O 3399   1.245   4.681   4.809  0.1978 -0.0192  0.6598
 1063WAT     H1 3400   1.254   4.609   4.746  2.2754  0.9087 -0.1863
 1063WAT     H2 3401   1.328   4.683   4.856 -0.8548  0.1148  2.6089
 1064WAT      O 3402   3.778   4.573   2.887 -0.7040  0.0496 -0.3702
 1064WAT     H1 3403   3.712   4.507   2.864 -1.7299  0.6332  0.7807
 1064WAT     H2 3404   3.825   4.589   2.806  0.9887 -3.5973 -0.3284
 1065WAT      O 3405   3.997   5.149   4.316  0.1987 -0.0041  0.7186
 1065WAT     H1 3406   4.046   5.071   4.344  0.4620  0.3750  1.3348
 1065WAT     H2 3407   3.985   5.200   4.396 -1.3325 -0.1464  0.6144
 1066WAT      O 3408   0.721   4.272   0.931 -0.2408 -0.2354  0.0414
 1066WAT     H1 3409   0.701   4.301   1.020  1.1391 -0.2148  0.3649
 1066WAT     H2 3410   0.810   4.301   0.915 -0.4660 -0.2082 -1.3806
 1067WAT      O 3411   0.687   2.441   3.828 -0.5695 -0.0832 -0.7338
 1067WAT     H1 3412   0.761   2.490   3.863  0.2942 -1.0183 -1.1969
 1067WAT     H2 3413   0.611   2.498   3.842 -0.1100  0.0575  1.6345
 1068WAT      O 3414   3.925   4.049   0.835  0.0390 -0.2161  0.1345
 1068WAT     H1 3415   3.846   4.041   0.887 -0.8166 -2.4737 -1.3625
 1068WAT     H2 3416   3.912   4.128   0.782 -1.1768 -0.4942  0.0007
 1069WAT      O 3417   2.101   4.413   0.962  0.3600 -0.9334  0.0267
 1069WAT     H1 3418   2.055   4.449   0.887  0.2917  0.3551  0.6545
 1069WAT     H2 3419   2.039   4.352   1.002 -0.5915  0.2910  0.4866
 1070WAT      O 3420   3.175   3.947   4.611  0.2855  0.3596  0.0583
 1070WAT     H1 3421   3.148   4.032   4.646  3.0611  1.0165  0.8508
 1070WAT     H2 3422   3.143   3.883   4.674 -0.0120  1.0124  0.5740
 1071WAT      O 3423   1.804   0.845   4.092 -0.4627 -0.4824  0.0673
 1071WAT     H1 3424   1.742   0.855   4.020  1.0331  1.3013 -1.0875
 1071WAT     H2 3425   1.843   0.759   4.079  1.1650  0.5155 -2.5399
 1072WAT      O 3426   2.593   4.643   1.891 -0.2232 -0.1233 -0.5857
 1072WAT     H1 3427   2.524   4.705   1.915  0.1847  0.2883 -0.4763
 1072WAT     H2 3428   2.571   4.563   1.940  1.4980  1.1735  2.5558
 1073WAT      O 3429   1.896   0.803   1.319 -0.6596 -0.3778  0.2080
 1073WAT     H1 3430   1.925   0.874   1.376  0.1576  0.2765 -0.9765
 1073WAT     H2 3431   1.977   0.761   1.291 -0.9470  0.1519 -1.5039
 1074WAT      O 3432   1.202   3.249   4.949 -0.3816  0.2515  0.0486
 1074WAT     H1 3433   1.161   3.336   4.948  1.1117  1.0143 -1.3238
 1074WAT     H2 3434   1.132   3.189   4.922 -1.0017  1.2791 -0.7088
 1075WAT      O 3435   2.741   4.094   3.341 -0.4252 -0.2062 -0.0820
 1075WAT     H1 3436   2.748   4.002   3.314 -0.4867 -0.2709  0.1266
 1075WAT     H2 3437   2.676   4.094   3.411 -1.8417  0.2466 -1.3256
 1076WAT      O 3438   0.322   4.781   3.556  0.0280 -0.2454 -0.0657
 1076WAT     H1 3439   0.264   4.830   3.614 -1.3333 -0.4971 -1.1536
 1076WAT     H2 3440   0.337   4.840   3.482  0.6850 -0.4058 -0.0650
 1077WAT      O 3441   0.900   0.720   2.035 -0.0231  0.1798  0.0378
 1077WAT     H1 3442   0.988   0.691   2.058 -0.0534 -0.5321 -0.6882
 1077WAT     H2 3443   0.905   0.740   1.942 -0.7772 -0.5003 -0.1609
 1078WAT      O 3444   4.356  -0.008   4.284  0.1703 -0.3652  0.5662
 1078WAT     H1 3445   4.340   0.055   4.354  0.8092  0.2764  0.1552
 1078WAT     H2 3446   4.451  -0.008   4.273  0.0136  0.6182 -1.2337
 1079WAT      O 3447   2.282   1.456   3.472 -0.4644 -0.4006  0.0254
 1079WAT     H1 3448   2.354   1.491   3.525 -0.1216 -1.7927  0.5192
 1079WAT     H2 3449   2.204   1.470   3.525 -0.0969 -1.9799  1.0496
 1080WAT      O 3450   2.590   2.100   2.592  0.5203  0.1199  0.2932
 1080WAT     H1 3451   2.679   2.064   2.594  0.2045 -0.7273 -0.2009
 1080WAT     H2 3452   2.572   2.125   2.682  1.2202  0.2020  0.4170
 1081WAT      O 3453   4.056   3.793   1.521  0.4618  0.1829  0.7935
 1081WAT     H1 3454   4.012   3.877   1.534  2.2590  1.4289 -0.6240
 1081WAT     H2 3455   4.098   3.774   1.605 -1.6328 -0.3872  1.7575
 1082WAT      O 3456   1.331   0.417   4.934  0.4090  0.0383 -0.3754
 1082WAT     H1 3457   1.338   0.509   4.912 -2.5117  0.3775 -0.2637
 1082WAT     H2 3458   1.280   0.415   5.014 -0.5028 -1.6899 -0.9419
 1083WAT      O 3459   2.873   5.138   0.996 -0.1119 -0.7712  0.3448
 1083WAT     H1 3460   2.952   5.157   0.946  0.4386 -2.0764  0.6823
 1083WAT     H2 3461   2.842   5.054   0.963 -0.0595 -1.3828  1.7698
 1084WAT      O 3462   2.948   1.324   4.674 -0.1999 -0.6709  0.0568
 1084WAT     H1 3463   2.923   1.233   4.690  1.3766 -1.0009  0.7808
 1084WAT     H2 3464   2.903   1.373   4.743 -2.2421 -0.6509 -1.1926
 1085WAT      O 3465   0.917   3.935   2.931 -0.4195 -0.1910  0.6111
 1085WAT     H1 3466   0.854   3.970   2.868 -1.0824 -0.4615  1.1192
 1085WAT     H2 3467   0.997   3.923   2.880 -0.6716  0.4799  0.0383
 1086WAT      O 3468   4.321   4.094   0.776  0.7171 -0.0911 -0.7141
 1086WAT     H1 3469   4.406   4.077   0.736  0.2768 -1.2905 -1.1928
 1086WAT     H2 3470   4.283   4.007   0.790  0.8248  0.2271  2.3288
 1087WAT      O 3471   2.312   2.053   0.173 -0.0077  0.3760 -0.2531
 1087WAT     H1 3472   2.340   1.962   0.167 -0.0021  0.4707 -1.9587
 1087WAT     H2 3473   2.343   2.094   0.093 -1.0200  1.6077 -0.0537
 1088WAT      O 3474   0.791   5.101   0.399 -0.0835  0.2321 -0.3084
 1088WAT     H1 3475   0.847   5.153   0.341 -0.0696 -0.4990 -0.9548
 1088WAT     H2 3476   0.707   5.147   0.397 -1.0877 -1.4314 -3.4257
 1089WAT      O 3477   2.350   3.336   0.306  0.2321 -0.4071 -0.6314
 1089WAT     H1 3478   2.256   3.345   0.323  0.2511 -1.5399  0.2191
 1089WAT     H2 3479   2.390   3.408   0.354 -0.2131  0.4498 -1.4832
 1090WAT      O 3480   4.327   4.071   2.682 -0.3574 -0.3381  0.8230
 1090WAT     H1 3481   4.405   4.017   2.669 -0.4677 -0.5379  0.9724
 1090WAT     H2 3482   4.260   4.029   2.628 -0.8403 -1.2186  2.0528
 1091WAT      O 3483   4.232   4.084   0.237 -0.1293  0.0866 -0.4466
 1091WAT     H1 3484   4.200   4.153   0.178 -1.3687 -1.0619 -1.1676
 1091WAT     H2 3485   4.190   4.004   0.205 -0.2997 -0.6852  1.5976
 1092WAT      O 3486   3.235   3.267   0.675  0.4887 -0.0759 -0.1984
 1092WAT     H1 3487   3.280   3.190   0.710  1.8409  0.9302  0.3666
 1092WAT     H2 3488   3.165   3.231   0.620  0.5369 -1.6915  0.7439
 1093WAT      O 3489   2.716   0.484   3.995 -0.7299 -0.5955  0.4016
 1093WAT     H1 3490   2.695   0.457   4.085 -1.2746  2.5859  1.3495
 1093WAT     H2 3491   2.678   0.572   3.987  2.0647  0.5535 -1.8417
 1094WAT      O 3492   1.505   2.886   2.133  0.2810  0.4598 -0.1728
 1094WAT     H1 3493   1.534   2.830   2.061  2.9026  2.4239 -0.7850
 1094WAT     H2 3494   1.409   2.883   2.128  0.2587 -3.3055 -0.5640
 1095WAT      O 3495   3.814   2.985   2.669  0.0260  0.6407 -0.5866
 1095WAT     H1 3496   3.850   2.921   2.730  3.2077  2.4608 -0.3631
 1095WAT     H2 3497   3.760   2.933   2.609 -1.0658 -1.5785  2.0735
 1096WAT      O 3498   1.473   5.121   0.400 -0.1322  0.2812 -0.5217
 1096WAT     H1 3499   1.418   5.123   0.322  0.6600  0.6516 -1.0821
 1096WAT     H2 3500   1.497   5.029   0.411 -1.1605  0.0617 -0.0527
 1097WAT      O 3501   2.074   3.672   1.632  0.0548 -0.2879 -0.2741
 1097WAT     H1 3502   2.133   3.701   1.701 -0.1135 -0.4297 -0.0701
 1097WAT     H2 3503   1.987   3.679   1.671 -0.4355  3.1514 -1.6005
 1098WAT      O 3504   3.757   0.387   2.753  0.5949 -0.6519 -0.4678
 1098WAT     H1 3505   3.780   0.464   2.806  1.8931 -2.1867  1.3524
 1098WAT     H2 3506   3.768   0.313   2.813 -2.5622 -2.1517 -1.5508
 1099WAT      O 3507   2.007   1.782   3.974 -0.8676 -0.3501  0.0276
 1099WAT     H1 3508   1.928   1.741   3.937 -1.0010  0.7778 -1.0005
 1099WAT     H2 3509   2.048   1.713   4.026 -3.0251 -0.7004  1.3696
 1100WAT      O 3510   3.459   0.298   2.434  0.0246  1.0125  0.4446
 1100WAT     H1 3511   3.437   0.349   2.356 -1.2139  2.0624  1.4382
 1100WAT     H2 3512   3.404   0.220   2.429  1.4272  0.0399 -0.7290
 1101WAT      O 3513   3.262   3.476   2.862  0.1926 -0.3297 -0.5667
 1101WAT     H1 3514   3.181   3.509   2.900  0.8119  0.8624 -0.2340
 1101WAT     H2 3515   3.259   3.381   2.877 -0.5528 -0.1432  0.5605
 1102WAT      O 3516   1.569   3.845   3.093 -0.4609  0.3644  0.0731
 1102WAT     H1 3517   1.589   3.808   3.179  1.9991  0.2279 -0.4997
 1102WAT     H2 3518   1.520   3.925   3.113  1.1893  1.0318  1.6919
 1103WAT      O 3519   3.514   4.805   0.850  0.6993 -0.3632 -0.3197
 1103WAT     H1 3520   3.495   4.792   0.757 -1.9921  0.3556  0.0410
 1103WAT     H2 3521   3.488   4.723   0.892  0.7167 -0.2405 -0.0653
 1104WAT      O 3522   4.502   4.524   3.362  0.1733 -0.6260 -0.0651
 1104WAT     H1 3523   4.563   4.457   3.332 -0.8247 -1.3425 -0.5747
 1104WAT     H2 3524   4.423   4.510   3.309 -0.1618  0.7777  0.0197
 1105WAT      O 3525   1.033   4.869   4.824 -0.1182  0.7380  0.4313
 1105WAT     H1 3526   1.028   4.890   4.731 -0.8706  1.8391  0.6933
 1105WAT     H2 3527   1.110   4.814   4.832 -0.3834  0.1084 -0.9328
 1106WAT      O 3528   0.345   2.319   5.166  0.2287  0.1145 -0.0580
 1106WAT     H1 3529   0.402   2.363   5.102 -0.0165  0.9927  0.3227
 1106WAT     H2 3530   0.349   2.374   5.244  0.3903 -0.8625  0.6471
 1107WAT      O 3531   4.189   4.659   1.970  0.4302 -0.0542  0.1047
 1107WAT     H1 3532   4.178   4.565   1.985 -0.3076  0.4118  3.1751
 1107WAT     H2 3533   4.284   4.672   1.970  0.5325 -0.7647 -0.0527
 1108WAT      O 3534   3.302   1.930   2.213  0.4075 -0.0006 -0.0336
 1108WAT     H1 3535   3.294   1.854   2.156  0.8074  0.4339 -0.6912
 1108WAT     H2 3536   3.279   2.004   2.156  1.6177  0.5211  0.1289
 1109WAT      O 3537   2.975   1.772   2.167  0.2946  0.5784  0.2535
 1109WAT     H1 3538   2.900   1.731   2.124  0.7777 -0.4579  0.3709
 1109WAT     H2 3539   3.051   1.735   2.123  0.7713  0.4195  1.1946
 1110WAT      O 3540   2.508   4.967   1.827 -0.1644  0.5930 -0.3575
 1110WAT     H1 3541   2.432   4.909   1.828 -1.4438  2.1954  0.1532
 1110WAT     H2 3542   2.549   4.952   1.742  1.2843 -3.1044  0.7770
 1111WAT      O 3543   0.769   1.334   1.222 -0.2090 -0.7199  0.1007
 1111WAT     H1 3544   0.836   1.276   1.186  0.7679 -0.7321  1.8783
 1111WAT     H2 3545   0.811   1.380   1.294 -0.9209  2.3045 -1.2316
 1112WAT      O 3546   0.665   4.766   2.119 -0.3191 -0.1098 -0.2334
 1112WAT     H1 3547   0.692   4.703   2.186  1.4534  0.2583 -0.5548
 1112WAT     H2 3548   0.662   4.716   2.038 -1.8050 -0.4004 -0.0337
 1113WAT      O 3549   2.723   0.894   1.220  0.6466  0.5084  0.2782
 1113WAT     H1 3550   2.803   0.879   1.270  0.5890  3.0335  1.2716
 1113WAT     H2 3551   2.663   0.937   1.282 -1.3896 -0.9804 -0.5335
 1114WAT      O 3552   1.006   4.138   1.727  0.0059  0.1980  0.5537
 1114WAT     H1 3553   0.973   4.176   1.646 -0.0173 -0.2767  0.3392
 1114WAT     H2 3554   0.927   4.114   1.776  0.0060  1.2251  1.0764
 1115WAT      O 3555   3.666   4.251   2.558  0.4447 -0.7245 -0.1117
 1115WAT     H1 3556   3.702   4.265   2.470  1.3794  2.0694  0.6169
 1115WAT     H2 3557   3.642   4.158   2.559  1.4447 -1.1255 -2.9102
 1116WAT      O 3558   3.169   2.547   0.515  0.1324 -0.1549  0.5086
 1116WAT     H1 3559   3.138   2.554   0.425  0.3626 -0.5298  0.3988
 1116WAT     H2 3560   3.253   2.501   0.508  1.2455  1.7098  0.6934
 1117WAT      O 3561   2.545   3.724   4.850  0.0502  0.8716  0.2501
 1117WAT     H1 3562   2.618   3.666   4.874  0.9275  1.8120 -0.1156
 1117WAT     H2 3563   2.469   3.665   4.844  0.4230  0.1117  2.2261
 1118WAT      O 3564   2.913   0.212   5.027  0.1599 -0.2186  0.3338
 1118WAT     H1 3565   3.007   0.213   5.044  0.1294 -0.9537  0.5980
 1118WAT     H2 3566   2.903   0.152   4.953 -0.0308  0.4404 -0.1812
 1119WAT      O 3567   2.376   2.723   3.103 -0.3630 -0.0605 -0.3728
 1119WAT     H1 3568   2.406   2.740   3.193  0.8948 -1.8901 -0.3940
 1119WAT     H2 3569   2.364   2.810   3.065  0.6149  0.7543  1.0774
 1120WAT      O 3570   1.067   2.723   4.901 -0.4250 -0.2910  0.0188
 1120WAT     H1 3571   1.108   2.656   4.955 -1.0655 -0.6622  0.0545
 1120WAT     H2 3572   0.974   2.718   4.922 -0.4776  0.6479  0.0602
 1121WAT      O 3573   1.150   2.745   3.769  0.2328  0.6200  0.0048
 1121WAT     H1 3574   1.210   2.672   3.753 -1.3890 -0.5690 -1.0325
 1121WAT     H2 3575   1.064   2.704   3.778 -0.7831  2.4150 -0.8997
 1122WAT      O 3576   1.675   3.285   3.723 -0.1897  0.3283  0.1328
 1122WAT     H1 3577   1.586   3.259   3.700  0.5125 -0.3768 -2.0332
 1122WAT     H2 3578   1.675   3.380   3.716 -0.6555  0.2981 -0.3663
 1123WAT      O 3579   0.478   4.894   1.493  0.0865 -0.6487  0.2598
 1123WAT     H1 3580   0.444   4.805   1.483 -2.4534  0.0555  1.7707
 1123WAT     H2 3581   0.464   4.915   1.586 -1.0064  1.9048 -0.3949
 1124WAT      O 3582   4.056   3.857   4.974  0.1705  0.2622  0.3801
 1124WAT     H1 3583   4.097   3.774   4.950 -0.6805 -0.5495  1.5920
 1124WAT     H2 3584   4.128   3.921   4.973  1.1321 -0.7789  0.8052
 1125WAT      O 3585   0.583   1.870   1.481 -0.5070  0.4267  0.6399
 1125WAT     H1 3586   0.646   1.855   1.552  0.8691 -0.0128 -0.6055
 1125WAT     H2 3587   0.581   1.787   1.433 -2.3459  0.3121  0.8439
 1126WAT      O 3588   0.143   4.164   0.495 -0.3277  0.1030 -0.2078
 1126WAT     H1 3589   0.217   4.169   0.435 -1.3774 -0.0045 -1.5506
 1126WAT     H2 3590   0.068   4.144   0.439 -1.4372  0.5447  1.0712
 1127WAT      O 3591   0.353   3.332   1.419 -0.2275  0.4955 -0.1651
 1127WAT     H1 3592   0.438   3.290   1.408 -0.7755 -0.1185 -2.6064
 1127WAT     H2 3593   0.372   3.426   1.421  0.4767  0.3869 -1.2520
 1128WAT      O 3594   1.486   4.011   2.433 -0.0889  0.1145 -0.2301
 1128WAT     H1 3595   1.565   4.047   2.474  0.2085  1.2384 -1.7148
 1128WAT     H2 3596   1.516   3.973   2.351 -1.2042  1.6896 -1.4517
 1129WAT      O 3597   0.959   1.390   5.179 -0.2613  0.5719 -0.0667
 1129WAT     H1 3598   0.960   1.483   5.201 -2.1202  0.4832  0.5764
 1129WAT     H2 3599   0.954   1.388   5.083 -0.5504  1.1491 -0.0664
 1130WAT      O 3600   4.376   2.481   1.328 -0.4910  0.0062  0.5278
 1130WAT     H1 3601   4.411   2.446   1.246 -0.0858  1.5614  0.0112
 1130WAT     H2 3602   4.442   2.544   1.357 -1.3838  0.6457  1.2104
 1131WAT      O 3603   1.805   4.679   1.525 -0.4974 -0.6124 -0.3784
 1131WAT     H1 3604   1.790   4.731   1.446 -0.8020 -2.5366 -1.6467
 1131WAT     H2 3605   1.860   4.606   1.495  0.2435 -0.8324  1.4215
 1132WAT      O 3606   1.383   5.098   1.297  0.0844  0.3812  0.3506
 1132WAT     H1 3607   1.291   5.072   1.287  0.5162 -1.3334  0.5008
 1132WAT     H2 3608   1.382   5.157   1.372 -0.9570  0.7884  0.0450
 1133WAT      O 3609   0.390   3.525   2.070  0.0490  0.2462 -0.0708
 1133WAT     H1 3610   0.406   3.434   2.095  2.7104  0.6424 -0.0307
 1133WAT     H2 3611   0.329   3.557   2.136 -1.1854 -1.5651 -0.2738
 1134WAT      O 3612   3.609   2.414   2.097 -0.0392 -0.1948  0.1006
 1134WAT     H1 3613   3.658   2.341   2.134  0.8569  0.1576 -0.3395
 1134WAT     H2 3614   3.642   2.491   2.143  0.1514  0.0986 -0.5185
 1135WAT      O 3615   2.741   4.533   3.762 -0.0124  0.2670  0.5118
 1135WAT     H1 3616   2.755   4.524   3.668 -1.2047 -0.4712  0.3834
 1135WAT     H2 3617   2.652   4.568   3.770  0.4734  1.3897  1.3504
 1136WAT      O 3618   3.509   4.314   2.946  0.2817  0.0939 -0.2473
 1136WAT     H1 3619   3.578   4.347   2.888 -1.3118  1.5803 -1.4134
 1136WAT     H2 3620   3.486   4.228   2.909 -0.3924  0.8219 -1.6186
 1137WAT      O 3621   2.150   5.053   2.878  0.2782 -0.2556  0.2241
 1137WAT     H1 3622   2.075   5.098   2.840  0.3866  0.0094  0.3187
 1137WAT     H2 3623   2.152   5.082   2.970 -0.5503 -1.6264  0.6993
 1138WAT      O 3624   2.746   0.808   0.473  0.0920  0.2168  0.0821
 1138WAT     H1 3625   2.660   0.767   0.468 -0.1128  0.8215 -3.0356
 1138WAT     H2 3626   2.806   0.735   0.486 -0.7302 -0.3630  0.7743
 1139WAT      O 3627   1.957   2.051   0.915 -0.2412 -0.1439 -0.7584
 1139WAT     H1 3628   1.878   2.007   0.882  0.0453 -0.8273 -0.5518
 1139WAT     H2 3629   2.009   1.981   0.954 -0.1242  0.4946  0.2794
 1140WAT      O 3630   2.927   2.881   3.905  0.0342  0.1295 -0.1523
 1140WAT     H1 3631   2.989   2.826   3.857 -0.2268 -1.3351  1.0879
 1140WAT     H2 3632   2.966   2.889   3.992 -1.2868 -0.4836  0.5325
 1141WAT      O 3633   3.264   2.271   1.831 -0.4349  0.2423 -0.0123
 1141WAT     H1 3634   3.300   2.348   1.787 -0.4834  0.5814  0.5314
 1141WAT     H2 3635   3.171   2.271   1.807 -0.9269  1.5874  1.6820
 1142WAT      O 3636   2.468   3.478   2.969 -0.3654  0.5393 -0.0920
 1142WAT     H1 3637   2.420   3.561   2.971 -1.7426 -0.1910 -1.2140
 1142WAT     H2 3638   2.408   3.415   3.008  1.3334  0.3158  2.3808
 1143WAT      O 3639   3.414   0.844   3.915 -0.0699 -0.5029 -0.0754
 1143WAT     H1 3640   3.403   0.774   3.850 -1.5899 -0.6760  0.3168
 1143WAT     H2 3641   3.326   0.879   3.927  0.6803  1.6694 -0.4125
 1144WAT      O 3642   0.602   0.449   2.618  0.8550 -0.4106 -0.6944
 1144WAT     H1 3643   0.648   0.367   2.603 -0.5523 -1.5331  0.7638
 1144WAT     H2 3644   0.511   0.424   2.628  0.5717  1.1158  1.2481
 1145WAT      O 3645   2.792   1.635   3.765 -0.2931  0.7656 -0.6287
 1145WAT     H1 3646   2.734   1.566   3.796  0.7390  0.4369  0.6767
 1145WAT     H2 3647   2.739   1.714   3.767 -0.4725  0.6325  1.4022
 1146WAT      O 3648   4.371   0.187   4.479 -0.2573 -0.0456 -0.0508
 1146WAT     H1 3649   4.341   0.134   4.553 -0.5038 -0.6846 -0.5931
 1146WAT     H2 3650   4.460   0.213   4.502 -0.1508 -0.6629  0.2524
 1147WAT      O 3651   1.159   3.550   5.161  0.1012 -0.1501 -0.5286
 1147WAT     H1 3652   1.102   3.508   5.097  0.5390 -1.0547 -0.3438
 1147WAT     H2 3653   1.099   3.589   5.225 -0.3302  0.4247 -1.2618
 1148WAT      O 3654   1.070   4.835   1.023 -0.7101  0.0009  0.4192
 1148WAT     H1 3655   1.152   4.793   0.998  0.1637  0.8854  1.6329
 1148WAT     H2 3656   1.003   4.790   0.973  0.6302  0.0064 -1.4735
 1149WAT      O 3657   3.705   2.974   1.520  0.0459  0.2008 -0.3666
 1149WAT     H1 3658   3.649   3.032   1.571 -1.0777 -0.2157 -1.0707
 1149WAT     H2 3659   3.765   2.936   1.583 -0.6690  0.4414  0.4776
 1150WAT      O 3660   3.782   0.077   5.145 -0.3729  0.3271  0.0039
 1150WAT     H1 3661   3.831   0.159   5.133  0.8659 -0.4433 -0.3587
 1150WAT     H2 3662   3.826   0.014   5.089 -0.9633 -0.7482  0.7136
 1151WAT      O 3663   2.503   2.159   0.328 -0.2035  0.2899 -0.2292
 1151WAT     H1 3664   2.471   2.218   0.397 -0.8814 -0.9871  0.5747
 1151WAT     H2 3665   2.423   2.125   0.287  0.1853  0.9977 -1.6517
 1152WAT      O 3666   1.632   3.592   4.610  0.0923  0.6086  0.4829
 1152WAT     H1 3667   1.538   3.575   4.607  0.2361 -0.2419  0.5500
 1152WAT     H2 3668   1.644   3.669   4.555 -0.4729 -0.0840 -0.6522
 1153WAT      O 3669   1.171   1.187   5.051 -0.0803  0.2591 -0.8696
 1153WAT     H1 3670   1.205   1.277   5.053  0.9442 -0.1146 -0.7904
 1153WAT     H2 3671   1.142   1.171   5.141 -1.1520  0.8204 -1.0952
 1154WAT      O 3672   0.085   4.885   0.819  0.4756  0.1127 -0.3336
 1154WAT     H1 3673   0.114   4.804   0.859  0.8295  0.2291 -0.3518
 1154WAT     H2 3674   0.161   4.943   0.825 -0.4049  1.1662  1.5955
 1155WAT      O 3675   1.527   4.216   2.076  0.1259 -1.0061  0.1019
 1155WAT     H1 3676   1.508   4.310   2.082  2.3116 -0.5843  1.6431
 1155WAT     H2 3677   1.444   4.177   2.050 -0.6548  1.4217 -1.4647
 1156WAT      O 3678   4.078   3.153   0.220 -1.0190 -0.6671  0.4585
 1156WAT     H1 3679   4.043   3.078   0.172 -1.6325 -2.2593  3.2070
 1156WAT     H2 3680   4.133   3.115   0.288 -0.4303  1.4580  1.2657
 1157WAT      O 3681   3.151   5.046   3.644 -0.0241  0.3282 -0.0803
 1157WAT     H1 3682   3.165   5.075   3.734 -0.6979 -0.0627  0.1614
 1157WAT     H2 3683   3.231   4.999   3.621  0.1090  0.3375  0.3551
 1158WAT      O 3684   3.932   0.330   5.217 -0.0155  0.0148 -0.2547
 1158WAT     H1 3685   3.980   0.294   5.143  0.7738  1.6151 -0.5583
 1158WAT     H2 3686   3.875   0.397   5.179  1.0526  1.4949  0.6496
 1159WAT      O 3687   2.443   2.538   0.953  0.1220  0.4992 -0.0509
 1159WAT     H1 3688   2.352   2.528   0.981  0.4670 -1.6166  0.4475
 1159WAT     H2 3689   2.455   2.633   0.945 -1.4207  0.9654  2.2117
 1160WAT      O 3690   0.366   3.458   4.467  0.1167 -0.4386 -0.1914
 1160WAT     H1 3691   0.366   3.362   4.464  2.1267 -0.4802 -0.5665
 1160WAT     H2 3692   0.442   3.480   4.521  0.0840  0.9550 -0.6746
 1161WAT      O 3693   3.129   1.893   0.568  0.5270 -0.2043 -0.3200
 1161WAT     H1 3694   3.101   1.863   0.654  1.2660  3.1118  1.2325
 1161WAT     H2 3695   3.220   1.864   0.560  0.5226 -0.3340  0.0989
 1162WAT      O 3696   1.627   0.252   1.958 -0.0710  0.1175 -0.2068
 1162WAT     H1 3697   1.586   0.215   2.036 -0.9399  1.0817 -0.1792
 1162WAT     H2 3698   1.696   0.190   1.935  0.4336  0.0070  1.5203
 1163WAT      O 3699   2.744   3.496   3.784  0.2501 -0.3614 -0.2529
 1163WAT     H1 3700   2.715   3.410   3.753 -0.4500 -0.0679 -0.4149
 1163WAT     H2 3701   2.678   3.557   3.752  0.9461  0.2988 -0.4691
 1164WAT      O 3702   4.508   0.617   1.187  0.2389  0.4905 -0.1306
 1164WAT     H1 3703   4.591   0.643   1.228  0.2681  1.0301 -0.5236
 1164WAT     H2 3704   4.442   0.672   1.229 -0.0106 -0.3062  0.5635
 1165WAT      O 3705   2.828   4.718   4.146 -0.9704  0.0229  0.4227
 1165WAT     H1 3706   2.855   4.711   4.238 -0.5389 -0.8493  0.2426
 1165WAT     H2 3707   2.876   4.794   4.113 -0.9538  0.2069  0.8641
 1166WAT      O 3708   1.050   2.477   0.996 -0.3543  0.3057  0.2528
 1166WAT     H1 3709   0.962   2.441   1.009 -0.0463  0.3167  2.6833
 1166WAT     H2 3710   1.036   2.555   0.941 -2.5223  2.7755  3.9098
 1167WAT      O 3711   2.136   1.130   3.690  0.3574  0.4051 -0.7487
 1167WAT     H1 3712   2.179   1.117   3.775  0.0353 -1.5306 -0.8250
 1167WAT     H2 3713   2.054   1.081   3.698  0.1241  0.5658 -2.0370
 1168WAT      O 3714   3.534   2.713   1.880 -0.0905 -0.5513 -0.2892
 1168WAT     H1 3715   3.487   2.643   1.834  1.6392 -0.5437 -2.1928
 1168WAT     H2 3716   3.625   2.684   1.882  0.1405  0.1652  1.8853
 1169WAT      O 3717   3.966   3.046   3.138 -0.0961 -0.0864  0.4315
 1169WAT     H1 3718   3.943   3.137   3.159  0.4787  0.4842 -1.2411
 1169WAT     H2 3719   3.884   3.006   3.111 -0.2178  0.1468  0.4490
 1170WAT      O 3720   0.653   0.403   2.269 -0.7428 -0.1702  0.5542
 1170WAT     H1 3721   0.665   0.466   2.198  2.2833 -1.3068 -0.0772
 1170WAT     H2 3722   0.610   0.328   2.227  1.6609 -1.1305 -0.4134
 1171WAT      O 3723   1.461   1.521   2.281  0.4146 -0.2788  0.2789
 1171WAT     H1 3724   1.401   1.494   2.350 -0.5227  3.2851  1.0437
 1171WAT     H2 3725   1.405   1.565   2.217  1.4870 -2.1439 -2.1003
 1172WAT      O 3726   2.020   1.301   4.527 -0.6121  0.1731  0.4333
 1172WAT     H1 3727   2.036   1.372   4.465 -1.9434 -0.5944 -0.8637
 1172WAT     H2 3728   2.095   1.242   4.514 -1.1960 -0.3125 -1.0031
 1173WAT      O 3729   1.812   3.683   1.719 -0.2598 -0.1578 -0.1692
 1173WAT     H1 3730   1.751   3.756   1.720 -0.1006 -0.0252 -0.0223
 1173WAT     H2 3731   1.772   3.617   1.776 -0.6346 -0.3787 -0.6826
 1174WAT      O 3732   1.064   3.149   1.757  0.1194 -0.0119 -0.5807
 1174WAT     H1 3733   1.102   3.068   1.722 -1.1458 -1.3054  0.9083
 1174WAT     H2 3734   0.990   3.167   1.700  0.2315 -0.0543 -0.7409
 1175WAT      O 3735   1.672   4.282   1.534 -0.3907 -0.0655  0.5300
 1175WAT     H1 3736   1.758   4.311   1.564  0.7754 -1.1717 -1.5348
 1175WAT     H2 3737   1.631   4.361   1.499  0.6072  0.1194 -0.2604
 1176WAT      O 3738   4.154   3.585   2.917 -0.4574  0.1810 -0.5793
 1176WAT     H1 3739   4.143   3.625   2.831  3.9695 -0.4157 -1.7149
 1176WAT     H2 3740   4.140   3.491   2.902  0.6657  0.0325 -0.8217
 1177WAT      O 3741   0.343   2.927   4.030  0.5896  0.1211 -0.0217
 1177WAT     H1 3742   0.264   2.971   4.062  1.2026  1.5349 -0.3532
 1177WAT     H2 3743   0.415   2.977   4.070  1.4296 -3.0754  2.9522
 1178WAT      O 3744   3.627   2.999   0.082 -0.5591 -0.1775 -0.5330
 1178WAT     H1 3745   3.624   2.931   0.149 -1.1493  0.4338  0.0842
 1178WAT     H2 3746   3.680   3.069   0.121 -0.5045 -0.0157 -0.8925
 1179WAT      O 3747   0.456   1.941   4.865  0.4568 -0.0991 -0.2074
 1179WAT     H1 3748   0.383   1.953   4.803 -0.8196  0.5496  1.3663
 1179WAT     H2 3749   0.438   1.857   4.906  1.9529 -1.1110 -1.4786
 1180WAT      O 3750   2.794   1.572   5.161  0.2283 -0.1963  0.6142
 1180WAT     H1 3751   2.867   1.633   5.174  1.5669 -0.9415 -2.4744
 1180WAT     H2 3752   2.809   1.503   5.225  1.7799  0.1029  0.6082
 1181WAT      O 3753   3.388   0.768   1.564  0.2725 -0.6040  0.3139
 1181WAT     H1 3754   3.355   0.827   1.496 -0.4762  0.4822  1.5684
 1181WAT     H2 3755   3.482   0.784   1.567  0.5664 -1.7756 -1.4710
 1182WAT      O 3756   4.285   2.028   0.622  0.0989 -0.3427 -0.2717
 1182WAT     H1 3757   4.379   2.046   0.610 -0.2435  2.9344  0.9148
 1182WAT     H2 3758   4.282   1.966   0.695  1.3484 -0.3318 -0.1833
 1183WAT      O 3759   1.149   4.208   3.962  0.1071 -0.0801  0.4134
 1183WAT     H1 3760   1.054   4.203   3.957  0.1711 -0.5576 -0.4620
 1183WAT     H2 3761   1.168   4.302   3.973 -0.4126  0.1675 -0.7075
 1184WAT      O 3762   3.592   2.824   2.800 -0.2558 -0.1456 -0.0304
 1184WAT     H1 3763   3.533   2.774   2.743 -0.8211  1.4113 -0.8811
 1184WAT     H2 3764   3.539   2.896   2.832  0.4831 -0.1734  1.3300
 1185WAT      O 3765   1.664   0.031   4.585 -0.3600 -0.2002  0.3051
 1185WAT     H1 3766   1.625   0.055   4.669 -0.7874  0.3717 -0.0526
 1185WAT     H2 3767   1.756   0.056   4.593 -0.0661 -1.4173  1.0937
 1186WAT      O 3768   0.851   0.371   1.627  0.4519 -0.4909 -0.7762
 1186WAT     H1 3769   0.944   0.395   1.636  0.9611 -2.3874 -0.5660
 1186WAT     H2 3770   0.826   0.341   1.714 -0.5217  0.4807 -0.7103
 1187WAT      O 3771   2.291   4.271   1.877 -0.0906  0.1193 -0.6502
 1187WAT     H1 3772   2.208   4.299   1.916  0.0173  0.6770 -0.8025
 1187WAT     H2 3773   2.267   4.246   1.787 -0.3666 -1.3208 -0.2041
 1188WAT      O 3774   2.712   4.968   3.959  0.1853  0.0033 -0.5764
 1188WAT     H1 3775   2.682   5.006   4.042  2.1698  1.4756 -0.4518
 1188WAT     H2 3776   2.660   5.012   3.892 -0.8714 -0.6107 -0.1860
 1189WAT      O 3777   4.134   0.721   2.917 -0.7147  0.2793  0.2066
 1189WAT     H1 3778   4.112   0.812   2.896 -0.1168  0.4337  0.2286
 1189WAT     H2 3779   4.120   0.713   3.011  2.3923  1.3081  0.8621
 1190WAT      O 3780   0.177   1.216   2.030 -0.2712 -0.1861 -0.0157
 1190WAT     H1 3781   0.193   1.219   1.936 -0.1720  1.8624  0.0030
 1190WAT     H2 3782   0.260   1.189   2.068  0.0051  0.0149 -0.4666
 1191WAT      O 3783   1.737   2.712   1.039 -0.2347  0.4074  0.2472
 1191WAT     H1 3784   1.729   2.700   1.134 -0.2745  0.0603  0.2026
 1191WAT     H2 3785   1.649   2.701   1.005  0.1690 -2.3866 -0.1314
 1192WAT      O 3786   3.891   3.360   1.640 -0.1424 -0.3133 -0.3317
 1192WAT     H1 3787   3.886   3.443   1.593 -1.2836 -0.5436 -0.6635
 1192WAT     H2 3788   3.871   3.294   1.574 -0.5521 -0.7385  0.2092
 1193WAT      O 3789   0.784   0.209   3.496  0.0835 -0.0332  0.4525
 1193WAT     H1 3790   0.833   0.149   3.439  0.3209  1.4576 -0.9975
 1193WAT     H2 3791   0.833   0.209   3.578  1.9277  0.5620 -0.5896
 1194WAT      O 3792   3.583   3.745   3.419  0.0567  0.4461 -0.3863
 1194WAT     H1 3793   3.572   3.826   3.469 -0.2758  0.1491  0.0273
 1194WAT     H2 3794   3.493   3.720   3.396  0.2066  0.5910 -1.1566
 1195WAT      O 3795   0.360   2.194   0.659  0.0435 -0.3058 -0.2245
 1195WAT     H1 3796   0.358   2.250   0.736  0.3570  0.0678 -0.4865
 1195WAT     H2 3797   0.423   2.125   0.681 -0.5682 -0.7366  0.2149
 1196WAT      O 3798   4.113   4.773   1.521  0.0152 -0.0074  0.4569
 1196WAT     H1 3799   4.180   4.812   1.464 -0.0602  1.4820  1.3323
 1196WAT     H2 3800   4.041   4.836   1.520 -0.1873 -0.2022  1.7970
 1197WAT      O 3801   1.104   4.473   3.559 -0.5175  0.2005 -0.0991
 1197WAT     H1 3802   1.179   4.501   3.610  0.2493 -1.8010 -0.0422
 1197WAT     H2 3803   1.109   4.377   3.559 -2.9307  0.0036 -0.2940
 1198WAT      O 3804   3.862   4.628   1.313  0.1402 -0.4764  0.6232
 1198WAT     H1 3805   3.954   4.604   1.324 -0.0957 -0.7977  2.0035
 1198WAT     H2 3806   3.858   4.720   1.338  0.2088 -0.2545 -0.1586
 1199WAT      O 3807   1.285   3.606   1.702 -0.2501 -1.1246  0.0862
 1199WAT     H1 3808   1.318   3.587   1.614  0.0334 -1.4173  0.2498
 1199WAT     H2 3809   1.285   3.520   1.745  2.4084 -0.6271  1.3089
 1200WAT      O 3810   1.128   4.504   2.876 -0.1348  0.2189 -0.2072
 1200WAT     H1 3811   1.047   4.455   2.860  0.1331  0.2007 -1.6369
 1200WAT     H2 3812   1.197   4.438   2.867  0.0373  0.0807  1.7115
 1201WAT      O 3813   0.919   4.702   2.381  0.2561 -0.1843  0.3379
 1201WAT     H1 3814   0.886   4.789   2.402  1.3467  0.3131  0.0277
 1201WAT     H2 3815   1.014   4.711   2.381  0.4049 -0.6134 -2.6344
 1202WAT      O 3816   3.164   1.281   4.084  0.0908 -0.0240  0.3675
 1202WAT     H1 3817   3.070   1.299   4.094 -0.0252 -0.8228  0.8065
 1202WAT     H2 3818   3.196   1.353   4.030 -1.4988 -1.6885 -3.1404
 1203WAT      O 3819   1.829   0.544   3.031  0.0635 -0.4648 -0.9020
 1203WAT     H1 3820   1.746   0.497   3.038  0.0001 -0.1168  1.0526
 1203WAT     H2 3821   1.807   0.622   2.980 -0.9033 -0.2179 -0.1482
 1204WAT      O 3822   0.300   3.442   4.081 -0.0279  0.0928 -0.1259
 1204WAT     H1 3823   0.392   3.427   4.102 -0.3433 -1.4849  0.2693
 1204WAT     H2 3824   0.292   3.537   4.074  2.0966  0.1906 -2.3792
 1205WAT      O 3825   3.168   3.533   2.319 -0.1851 -0.5739  0.6559
 1205WAT     H1 3826   3.080   3.514   2.286 -0.4783  0.1998  0.9769
 1205WAT     H2 3827   3.188   3.459   2.376 -1.2239 -0.0780  1.7183
 1206WAT      O 3828   2.622   3.499   4.647 -0.2491 -0.6430  0.1190
 1206WAT     H1 3829   2.688   3.561   4.676  2.0322 -1.8519 -2.1012
 1206WAT     H2 3830   2.615   3.436   4.718  0.4923 -0.1366  0.6534
 1207WAT      O 3831   3.052   2.313   5.170 -0.5177 -0.4924  0.3595
 1207WAT     H1 3832   3.002   2.239   5.204  0.4432 -1.3498 -0.0393
 1207WAT     H2 3833   3.138   2.303   5.210 -0.2777  0.2189  0.0263
 1208WAT      O 3834   2.931   4.283   4.436  0.5295  0.3038  0.0890
 1208WAT     H1 3835   2.931   4.190   4.413  0.5529  0.0620  1.0473
 1208WAT     H2 3836   2.900   4.327   4.356  3.2229 -0.2516 -1.3795
 1209WAT      O 3837   0.541   2.736   2.844 -0.1628  0.3098 -0.4126
 1209WAT     H1 3838   0.547   2.736   2.748  0.7523 -1.6361 -0.4009
 1209WAT     H2 3839   0.533   2.644   2.867  1.0560  0.6285  1.4615
 1210WAT      O 3840   3.493   2.705   1.565  0.3634  0.2862  0.1541
 1210WAT     H1 3841   3.457   2.774   1.621  0.5688 -1.0497  2.0443
 1210WAT     H2 3842   3.588   2.713   1.576  0.4062  0.0329 -0.0354
 1211WAT      O 3843   4.050   0.320   2.891  0.4845  0.1715  0.1547
 1211WAT     H1 3844   4.125   0.276   2.931  0.4512  2.3772  2.9986
 1211WAT     H2 3845   3.974   0.269   2.921  0.6672 -0.6261 -0.6848
 1212WAT      O 3846   4.123   4.139   3.796  0.2029  0.8359  0.1782
 1212WAT     H1 3847   4.113   4.161   3.704  0.6150 -0.0682 -0.0941
 1212WAT     H2 3848   4.194   4.074   3.798 -1.3224 -0.9177  0.8421
 1213WAT      O 3849   1.666   2.575   5.065 -0.2476 -0.1711 -0.4093
 1213WAT     H1 3850   1.634   2.596   4.977  2.1894 -0.9547 -1.5900
 1213WAT     H2 3851   1.722   2.649   5.088  1.2158 -1.1323 -0.7204
 1214WAT      O 3852   1.749   0.267   3.381 -0.1178  0.0563  0.5165
 1214WAT     H1 3853   1.739   0.345   3.434 -0.3296 -0.1038  0.7140
 1214WAT     H2 3854   1.661   0.246   3.350 -0.5452 -1.6321  2.6584
 1215WAT      O 3855   3.186   0.817   2.297 -0.5796  0.0752  0.1547
 1215WAT     H1 3856   3.196   0.723   2.279 -1.6804 -0.2131  0.8810
 1215WAT     H2 3857   3.275   0.851   2.299 -0.2042 -0.7719 -1.0123
 1216WAT      O 3858   4.220   3.167   4.177  0.3392 -0.3577 -0.4533
 1216WAT     H1 3859   4.151   3.129   4.122 -1.0557 -1.7816  2.0633
 1216WAT     H2 3860   4.190   3.257   4.193 -0.3029 -0.5748 -0.3930
 1217WAT      O 3861   2.843   2.036   2.015 -0.6508 -0.2016 -0.1525
 1217WAT     H1 3862   2.869   2.036   1.923  0.7218  0.4017  0.2222
 1217WAT     H2 3863   2.814   1.946   2.031  2.9443 -1.5215 -0.1658
 1218WAT      O 3864   2.942   1.145   1.587  0.6192 -0.4178 -0.0586
 1218WAT     H1 3865   2.864   1.145   1.642  0.9869 -0.7298  0.4744
 1218WAT     H2 3866   2.971   1.054   1.587  1.3635 -0.1888  0.3066
 1219WAT      O 3867   2.818   1.766   1.917  0.4838  0.4386  0.0329
 1219WAT     H1 3868   2.906   1.753   1.882  1.1402 -0.1196  1.8007
 1219WAT     H2 3869   2.760   1.729   1.850  1.7385 -1.5425 -0.0389
 1220WAT      O 3870   3.882   4.738   0.829 -0.3194  0.3610  0.4773
 1220WAT     H1 3871   3.813   4.788   0.784 -1.0693 -0.6135  0.4981
 1220WAT     H2 3872   3.937   4.805   0.870 -0.8287  1.1920 -0.1519
 1221WAT      O 3873   0.499   3.904   4.799  0.1007  0.0596 -0.2482
 1221WAT     H1 3874   0.562   3.837   4.774  1.0681  0.4582  1.0699
 1221WAT     H2 3875   0.421   3.884   4.747  1.3868 -0.2461 -2.1578
 1222WAT      O 3876   4.516   1.317   0.747  0.0759  0.0347  0.1052
 1222WAT     H1 3877   4.449   1.356   0.691  0.4764 -0.6385 -0.8729
 1222WAT     H2 3878   4.468   1.261   0.808 -0.3923  1.0319  0.6716
 1223WAT      O 3879   1.270   3.108   4.276 -0.7515  0.1465  0.0611
 1223WAT     H1 3880   1.268   3.171   4.348  3.5898 -1.2560  1.6846
 1223WAT     H2 3881   1.273   3.163   4.197 -2.3261  1.7637  1.0409
 1224WAT      O 3882   1.768   4.477   4.289 -0.3176 -0.2687 -0.5115
 1224WAT     H1 3883   1.807   4.403   4.242  1.1904  1.0401 -1.4427
 1224WAT     H2 3884   1.683   4.445   4.319  1.4635 -3.3624  1.7760
 1225WAT      O 3885   4.366   0.667   3.626 -0.3483  0.7150  0.0293
 1225WAT     H1 3886   4.360   0.573   3.643  0.4784  0.4212 -1.1648
 1225WAT     H2 3887   4.295   0.705   3.678 -0.4842 -0.5230  0.7973
 1226WAT      O 3888   3.068   2.550   4.666 -0.2418  0.3982 -0.3166
 1226WAT     H1 3889   3.055   2.493   4.742 -0.6089  0.2368 -0.4978
 1226WAT     H2 3890   2.982   2.589   4.651  0.0757  1.2533  0.0003
 1227WAT      O 3891   2.896   2.289   2.056  0.3229 -0.1704 -0.1205
 1227WAT     H1 3892   2.846   2.208   2.050  0.8522 -0.4190 -1.6347
 1227WAT     H2 3893   2.913   2.314   1.965  0.8978  1.1856  0.3249
 1228WAT      O 3894   0.930   3.352   0.065  0.3282  0.5691 -0.3637
 1228WAT     H1 3895   0.872   3.376   0.137  0.7451  1.6150 -0.3585
 1228WAT     H2 3896   0.951   3.260   0.081 -2.3284 -0.2472 -1.0800
 1229WAT      O 3897   4.174   2.385   2.925  0.2429  0.3096 -0.2228
 1229WAT     H1 3898   4.149   2.409   2.836 -0.0165  0.9031  0.0119
 1229WAT     H2 3899   4.091   2.371   2.970  0.3596  0.6989  0.1160
 1230WAT      O 3900   2.164   4.646   3.080  0.4263 -0.2468  0.1515
 1230WAT     H1 3901   2.245   4.668   3.032 -0.1870  1.3659 -0.2138
 1230WAT     H2 3902   2.118   4.730   3.087 -1.3196 -1.1775  0.1586
 1231WAT      O 3903   3.287   2.309   2.990 -0.8094 -0.3938  0.3044
 1231WAT     H1 3904   3.351   2.248   3.026 -0.7013  0.2114  1.1656
 1231WAT     H2 3905   3.329   2.343   2.910 -0.3695 -0.5639  0.4572
 1232WAT      O 3906   2.703   1.280   1.681 -0.2564 -0.0885  0.3297
 1232WAT     H1 3907   2.699   1.345   1.611 -1.3722  0.6520  1.0342
 1232WAT     H2 3908   2.682   1.330   1.760  0.0710 -1.0842  1.0678
 1233WAT      O 3909   2.380   1.848   0.846 -0.1256  0.0361 -0.1070
 1233WAT     H1 3910   2.343   1.760   0.859 -0.1651  0.1070  0.2454
 1233WAT     H2 3911   2.319   1.889   0.784 -0.9936  0.3697  0.9515
 1234WAT      O 3912   4.381   3.150   0.188  0.4160 -0.2566  0.5702
 1234WAT     H1 3913   4.420   3.217   0.243  1.8231  0.5221 -1.2740
 1234WAT     H2 3914   4.328   3.198   0.125  1.1325 -0.8767 -0.5354
 1235WAT      O 3915   0.080   2.315   3.738  0.5628  0.0756 -0.3322
 1235WAT     H1 3916   0.056   2.229   3.703 -0.7256  0.1694  0.2540
 1235WAT     H2 3917   0.039   2.317   3.825  1.8613  0.6898  0.2928
 1236WAT      O 3918   1.199   0.779   5.239 -0.4616 -0.8127  0.0843
 1236WAT     H1 3919   1.197   0.820   5.153 -0.5287 -2.0335 -0.5098
 1236WAT     H2 3920   1.206   0.852   5.300 -0.4834  0.0702 -0.9490
 1237WAT      O 3921   3.486   2.113   0.277 -0.0493  0.1038  0.6199
 1237WAT     H1 3922   3.531   2.035   0.310 -0.4385 -0.4301 -0.1052
 1237WAT     H2 3923   3.532   2.135   0.196  0.2638  0.8259  0.9817
 1238WAT      O 3924   0.044   2.667   1.032 -0.1665 -0.0541  0.1423
 1238WAT     H1 3925  -0.050   2.680   1.026 -0.1681 -0.4515 -1.0421
 1238WAT     H2 3926   0.054   2.575   1.055 -0.0812 -0.4035 -1.1797
 1239WAT      O 3927   3.906   3.817   3.205 -0.2389  0.8554  0.2245
 1239WAT     H1 3928   3.967   3.890   3.190 -1.1281  1.5391 -0.2091
 1239WAT     H2 3929   3.820   3.854   3.183 -0.3793 -1.3703 -3.9099
 1240WAT      O 3930   1.569   2.577   0.555 -0.5992 -0.0179 -0.0951
 1240WAT     H1 3931   1.641   2.614   0.606  0.7979  0.5500 -2.3449
 1240WAT     H2 3932   1.553   2.641   0.486 -2.8081 -0.4856 -0.0918
 1241WAT      O 3933   3.314   3.633   1.422 -0.3605 -1.0859  0.1566
 1241WAT     H1 3934   3.295   3.572   1.350 -2.7268 -1.6711  1.1785
 1241WAT     H2 3935   3.382   3.690   1.387  0.9614 -3.3950 -1.3679
 1242WAT      O 3936   2.231   1.265   3.269  0.1507 -0.1930 -0.2085
 1242WAT     H1 3937   2.278   1.314   3.336 -0.3487  0.5458 -0.3880
 1242WAT     H2 3938   2.172   1.329   3.230  1.0446 -0.3884 -1.9614
 1243WAT      O 3939   0.707   1.081   1.723  0.8350 -0.7469  0.0232
 1243WAT     H1 3940   0.665   0.995   1.715  0.8453 -0.8371  0.8595
 1243WAT     H2 3941   0.700   1.102   1.816  1.5933 -0.2234 -0.0362
 1244WAT      O 3942   3.123   0.491   0.029 -0.7676  0.2810  0.2453
 1244WAT     H1 3943   3.218   0.485   0.022 -0.8313  0.2030 -0.6610
 1244WAT     H2 3944   3.096   0.407   0.066 -0.4808  0.3240  0.5527
 1245WAT      O 3945   0.669   2.657   1.831  0.1909  0.0691  0.4068
 1245WAT     H1 3946   0.605   2.641   1.761  0.1460 -0.0910  0.4843
 1245WAT     H2 3947   0.662   2.750   1.849 -0.5021 -0.0697  0.8887
 1246WAT      O 3948   0.169   2.133   5.076 -0.0710  0.3636  0.4833
 1246WAT     H1 3949   0.224   2.211   5.075  1.1424 -0.4671  0.1798
 1246WAT     H2 3950   0.160   2.111   5.169  0.1039  0.5264  0.5392
 1247WAT      O 3951   1.227   4.795   1.609 -0.4342  0.6511 -0.5327
 1247WAT     H1 3952   1.170   4.847   1.552 -1.0053 -0.1096 -0.6647
 1247WAT     H2 3953   1.186   4.709   1.612  0.6989  0.0964 -0.6118
 1248WAT      O 3954   1.366   3.514   1.436  0.0534  0.2552  0.1334
 1248WAT     H1 3955   1.443   3.463   1.460 -1.0358 -1.5557 -0.0603
 1248WAT     H2 3956   1.396   3.571   1.366  1.6084  0.7857  1.1769
 1249WAT      O 3957   4.000   3.190   2.654  0.0041  0.1766  0.5925
 1249WAT     H1 3958   4.065   3.164   2.719  1.7318  0.6366 -0.8642
 1249WAT     H2 3959   3.936   3.119   2.655  1.6479 -1.3850  0.6150
 1250WAT      O 3960   2.722   4.409   0.219 -0.2367  0.0387 -0.6779
 1250WAT     H1 3961   2.788   4.340   0.229 -0.6439 -0.2330  0.2224
 1250WAT     H2 3962   2.650   4.366   0.171  0.2206  0.3357 -1.6600
 1251WAT      O 3963   2.678   0.365   4.937  0.0199 -0.3975  0.2115
 1251WAT     H1 3964   2.765   0.326   4.932  0.5362  0.7876 -0.5332
 1251WAT     H2 3965   2.644   0.360   4.848 -0.4511 -0.3508  0.3854
 1252WAT      O 3966   1.951   4.125   1.695 -0.3792 -0.3336  0.1615
 1252WAT     H1 3967   1.936   4.054   1.632  0.0064 -1.5851  1.4404
 1252WAT     H2 3968   1.898   4.102   1.771  1.6202 -0.5713  1.5524
 1253WAT      O 3969   1.329   1.961   4.373 -0.1801 -0.3075 -0.3517
 1253WAT     H1 3970   1.353   2.053   4.388  0.1494 -0.6311  1.1897
 1253WAT     H2 3971   1.411   1.918   4.349 -0.0197 -0.5273  0.5720
 1254WAT      O 3972   0.613   0.813   0.368  0.2195  0.3514 -0.0821
 1254WAT     H1 3973   0.611   0.718   0.355 -1.0751  0.5984 -2.1081
 1254WAT     H2 3974   0.542   0.830   0.429 -0.0271  0.0760 -0.2887
 1255WAT      O 3975   4.275   4.390   4.375 -0.3043 -0.3094  0.0420
 1255WAT     H1 3976   4.347   4.425   4.322  0.3298 -2.2233 -0.4293
 1255WAT     H2 3977   4.196   4.426   4.334  0.1933 -1.3500 -1.9470
 1256WAT      O 3978   2.028   4.292   3.371 -0.6454  0.1306  0.3496
 1256WAT     H1 3979   1.961   4.233   3.338 -1.2694  1.4425 -0.8201
 1256WAT     H2 3980   1.983   4.376   3.381  0.8803  1.1140 -0.7493
 1257WAT      O 3981   4.122   2.525   2.702 -0.4521 -0.1221 -0.0956
 1257WAT     H1 3982   4.095   2.485   2.619  1.1222 -1.1291 -0.1794
 1257WAT     H2 3983   4.211   2.556   2.685  0.4791 -1.7028  1.6113
 1258WAT      O 3984   4.069   0.049   2.044 -0.1428 -0.0060 -0.2610
 1258WAT     H1 3985   4.157   0.057   2.081  0.2853  2.5802 -1.5657
 1258WAT     H2 3986   4.082   0.052   1.950 -1.5846 -0.2841 -0.4885
 1259WAT      O 3987   2.562   3.881   3.780  0.5241  0.7234 -0.2464
 1259WAT     H1 3988   2.543   3.796   3.739 -1.8493  1.4075 -0.7103
 1259WAT     H2 3989   2.641   3.865   3.832  0.2301 -1.7426 -0.4271
 1260WAT      O 3990   4.479   0.259   4.896  0.2281 -0.4005 -0.0425
 1260WAT     H1 3991   4.527   0.190   4.941 -0.2307  0.3433  1.6969
 1260WAT     H2 3992   4.525   0.340   4.920 -1.5687  0.2905  1.3562
 1261WAT      O 3993   1.888   1.010   3.733  0.7659  0.1879 -0.1099
 1261WAT     H1 3994   1.886   1.006   3.829  0.1194 -1.2761 -0.1574
 1261WAT     H2 3995   1.826   1.079   3.711  1.3522  0.9361  0.5366
 1262WAT      O 3996   1.406   2.104   2.318  0.2271  0.2511 -0.0571
 1262WAT     H1 3997   1.484   2.079   2.367  0.4585  0.3944 -0.3519
 1262WAT     H2 3998   1.438   2.125   2.230  0.0824  1.7666  0.2224
 1263WAT      O 3999   2.581   4.415   1.247 -0.0383 -0.6299 -0.1710
 1263WAT     H1 4000   2.661   4.463   1.267 -0.4001 -0.5863  1.3006
 1263WAT     H2 4001   2.513   4.462   1.295 -0.5058 -2.2056  0.7657
 1264WAT      O 4002   3.261   4.530   2.681  0.4035 -0.0528 -0.2121
 1264WAT     H1 4003   3.355   4.546   2.693  0.4925 -1.2730  0.9533
 1264WAT     H2 4004   3.224   4.535   2.769 -0.1561 -2.2628 -0.2659
 1265WAT      O 4005   1.200   1.619   0.089 -0.6209  0.1072  0.4769
 1265WAT     H1 4006   1.175   1.673   0.014 -1.2096 -0.6523  0.1167
 1265WAT     H2 4007   1.134   1.638   0.156 -0.2323  0.6039  0.7293
 1266WAT      O 4008   4.377   2.883   0.115 -0.1383  0.1700 -0.0700
 1266WAT     H1 4009   4.453   2.887   0.057  0.3694  0.2686  0.5891
 1266WAT     H2 4010   4.348   2.974   0.123 -0.0744  0.1846 -0.0010
 1267WAT      O 4011   0.572   0.480   3.272 -0.1545  0.2370 -0.0773
 1267WAT     H1 4012   0.602   0.478   3.181  2.6010 -1.1370  0.7502
 1267WAT     H2 4013   0.537   0.392   3.288  0.1234  0.2053  0.3863
 1268WAT      O 4014   4.192   0.728   0.132  0.1675  0.3950  0.1204
 1268WAT     H1 4015   4.245   0.661   0.088  0.2389  0.5230  0.0115
 1268WAT     H2 4016   4.104   0.691   0.134  0.3013  0.0886  0.4931
 1269WAT      O 4017   3.800   4.097   5.047  0.5085  0.0545 -0.4114
 1269WAT     H1 4018   3.852   4.043   5.107  1.1940  1.4018  0.2364
 1269WAT     H2 4019   3.766   4.168   5.102 -3.7831 -1.7725 -0.2901
 1270WAT      O 4020   2.497   0.003   3.223  0.2261  0.0714  0.4826
 1270WAT     H1 4021   2.559  -0.066   3.248 -1.5422 -1.4707  0.8007
 1270WAT     H2 4022   2.550   0.082   3.221  2.4501 -1.3453 -0.3755
 1271WAT      O 4023   3.722   1.360   4.587 -0.4253 -0.1250 -0.0882
 1271WAT     H1 4024   3.736   1.302   4.512  2.2257  0.8385 -0.4911
 1271WAT     H2 4025   3.805   1.409   4.594 -1.7513  2.0789  1.5128
 1272WAT      O 4026   0.606   1.139   3.097  0.0644 -0.3738 -0.6441
 1272WAT     H1 4027   0.677   1.203   3.103 -0.1553 -0.2111  0.3885
 1272WAT     H2 4028   0.609   1.092   3.181 -1.3745 -0.0001 -0.3538
 1273WAT      O 4029   2.750   2.408   3.315 -0.8258 -0.1560  0.0144
 1273WAT     H1 4030   2.792   2.469   3.375 -0.0330 -0.4146 -0.2672
 1273WAT     H2 4031   2.736   2.458   3.235 -0.8738 -0.1284  0.0398
 1274WAT      O 4032   0.594   4.414   0.060  0.1167 -0.1097  0.4085
 1274WAT     H1 4033   0.561   4.397  -0.028 -1.2904  0.4207  0.8007
 1274WAT     H2 4034   0.572   4.505   0.077  2.2616  0.4340  0.5440
 1275WAT      O 4035   3.755   4.312   5.243 -0.6610  0.2721  0.0031
 1275WAT     H1 4036   3.738   4.392   5.292  0.8483 -0.2372  1.4774
 1275WAT     H2 4037   3.674   4.262   5.248 -1.0900  1.0035  0.4758
 1276WAT      O 4038   0.307   2.321   2.641 -0.1469 -0.2891  0.1605
 1276WAT     H1 4039   0.361   2.260   2.590  1.2601  1.8359 -1.0589
 1276WAT     H2 4040   0.272   2.269   2.713 -0.5963 -2.9740 -1.8484
 1277WAT      O 4041   3.869   0.966   0.522 -0.4932 -0.2595  0.0002
 1277WAT     H1 4042   3.883   0.880   0.483 -1.7232  0.1082 -1.3520
 1277WAT     H2 4043   3.800   1.006   0.468  0.7541  1.9843 -0.0613
 1278WAT      O 4044   0.852   3.396   3.411 -0.2770 -0.2515  0.2985
 1278WAT     H1 4045   0.907   3.435   3.343 -0.1869  1.9302  1.5109
 1278WAT     H2 4046   0.894   3.422   3.493 -1.0534 -1.7825  1.2315
 1279WAT      O 4047   0.289   1.444   3.882 -0.0503  0.1780  0.6527
 1279WAT     H1 4048   0.329   1.517   3.928 -1.1212  1.3615 -0.2181
 1279WAT     H2 4049   0.304   1.368   3.939  1.9115  0.8620  1.1303
 1280WAT      O 4050   2.156   3.043   1.985  0.3192 -0.1056  0.0618
 1280WAT     H1 4051   2.218   3.067   1.917  1.1040 -0.9417  0.4644
 1280WAT     H2 4052   2.104   2.973   1.946 -1.5841  1.7258 -0.9040
 1281WAT      O 4053   4.090   0.808   2.093 -0.3840 -0.7743  0.2442
 1281WAT     H1 4054   4.120   0.898   2.102  0.8614 -0.7435 -2.8596
 1281WAT     H2 4055   4.160   0.755   2.132 -0.0675 -0.4502  0.1197
 1282WAT      O 4056   3.357   4.320   4.261 -0.1243  0.0224 -0.6066
 1282WAT     H1 4057   3.291   4.321   4.330  0.6950 -0.0406  0.1942
 1282WAT     H2 4058   3.316   4.366   4.188 -1.3538 -0.7128 -0.4180
 1283WAT      O 4059   3.698   2.843   2.452  0.7597 -0.4940  0.0109
 1283WAT     H1 4060   3.696   2.868   2.360  2.0502 -0.6034 -0.0655
 1283WAT     H2 4061   3.644   2.764   2.457  1.7772 -1.2697 -0.9123
 1284WAT      O 4062   4.089   1.613   1.600  0.2172 -0.0919 -0.0589
 1284WAT     H1 4063   4.168   1.561   1.591  1.1069  1.4354 -1.7051
 1284WAT     H2 4064   4.114   1.687   1.656 -0.6420 -0.6450  1.1045
 1285WAT      O 4065   0.366   0.303   0.744 -0.1274 -0.4621 -0.4916
 1285WAT     H1 4066   0.324   0.310   0.830 -0.8356 -1.4099 -0.7371
 1285WAT     H2 4067   0.363   0.392   0.709 -1.3114 -0.3589 -0.1918
 1286WAT      O 4068   0.475   4.730   2.402 -0.1610  0.6158  0.3125
 1286WAT     H1 4069   0.476   4.815   2.358  0.7116  0.8151  0.7016
 1286WAT     H2 4070   0.532   4.674   2.349 -1.8929 -0.1932 -0.7904
 1287WAT      O 4071   0.319   0.543   2.906 -0.2204  0.5582 -0.2159
 1287WAT     H1 4072   0.322   0.627   2.862  1.5421  0.4492 -0.3651
 1287WAT     H2 4073   0.406   0.532   2.945 -0.7237 -0.7462  0.6440
 1288WAT      O 4074   1.158   1.367   2.977  0.2769 -0.3849  0.1559
 1288WAT     H1 4075   1.138   1.304   2.908 -0.1083  1.5913 -1.6793
 1288WAT     H2 4076   1.230   1.329   3.026  1.8551 -1.0894 -2.5435
 1289WAT      O 4077   1.424   2.613   5.279  0.3123  0.0603  0.4905
 1289WAT     H1 4078   1.418   2.706   5.257 -1.6332 -0.2932 -0.7995
 1289WAT     H2 4079   1.517   2.592   5.273  0.7011  1.7496  0.1134
 1290WAT      O 4080   2.530   0.153   4.418  1.0033  0.0212 -0.9571
 1290WAT     H1 4081   2.447   0.108   4.430  1.1522  0.0005  0.0734
 1290WAT     H2 4082   2.588   0.087   4.382  0.8526 -0.2566 -0.6961
 1291WAT      O 4083   2.079   4.897   2.464 -0.6754 -0.2271 -0.0938
 1291WAT     H1 4084   2.082   4.833   2.535 -0.1228 -0.3696 -0.2425
 1291WAT     H2 4085   2.113   4.850   2.388  0.4518  0.4504 -0.0357
 1292WAT      O 4086   4.332   2.034   2.355  0.1093 -0.0700 -0.1027
 1292WAT     H1 4087   4.415   2.068   2.389 -0.5285 -0.0279  1.4981
 1292WAT     H2 4088   4.331   1.942   2.383 -0.6038  0.0690  0.3498
 1293WAT      O 4089   0.141   0.059   4.974 -0.0874 -0.3164 -0.4008
 1293WAT     H1 4090   0.228   0.099   4.982  0.1907 -0.6389 -1.5550
 1293WAT     H2 4091   0.150  -0.028   5.014  0.0221 -0.2112 -0.1973
 1294WAT      O 4092   1.875   1.066   4.919 -0.1310  0.0480  0.1008
 1294WAT     H1 4093   1.919   1.149   4.901 -1.3370  0.4247 -1.2793
 1294WAT     H2 4094   1.850   1.032   4.833  0.2072 -1.6892  0.6446
 1295WAT      O 4095   1.337   0.359   4.535  0.3009 -0.6101  0.5456
 1295WAT     H1 4096   1.381   0.364   4.620 -1.4074  2.3062  1.4207
 1295WAT     H2 4097   1.289   0.276   4.537  0.5020 -0.7144  2.3504
 1296WAT      O 4098   4.064   4.003   1.916 -0.0709 -0.0656 -0.0120
 1296WAT     H1 4099   4.063   4.001   1.820  0.8769 -0.3461 -0.0254
 1296WAT     H2 4100   4.098   3.917   1.942 -0.2152  0.0478  0.5772
 1297WAT      O 4101   2.159   2.162   4.731 -0.4074  0.9593 -0.0907
 1297WAT     H1 4102   2.236   2.147   4.785 -2.4492 -2.1026  2.2772
 1297WAT     H2 4103   2.190   2.151   4.641  2.0267  0.6051  0.7267
 1298WAT      O 4104   1.338   5.089   5.231 -0.3704  0.8405 -0.1910
 1298WAT     H1 4105   1.287   5.093   5.150  2.0156  0.1327 -1.8398
 1298WAT     H2 4106   1.385   5.172   5.234  0.1610  0.5329  0.0467
 1299WAT      O 4107   0.103   4.727   0.280  0.8833 -0.0131  0.1282
 1299WAT     H1 4108   0.047   4.764   0.348  1.5558 -0.8462  1.1690
 1299WAT     H2 4109   0.051   4.655   0.243  0.9047 -0.1833  0.4322
 1300WAT      O 4110   3.170   0.191   1.620  0.1056 -0.2174  0.4627
 1300WAT     H1 4111   3.242   0.229   1.570 -0.6117  2.8033  1.5315
 1300WAT     H2 4112   3.098   0.185   1.558  1.0311 -2.8818 -0.5049
 1301WAT      O 4113   2.008   4.972   5.188 -0.8304 -0.2838  0.2420
 1301WAT     H1 4114   2.044   4.923   5.263  0.8716  0.1131 -0.2750
 1301WAT     H2 4115   1.974   5.053   5.226 -1.1769 -0.6543  0.7381
 1302WAT      O 4116   1.128   0.128   1.789 -0.0430 -0.3657  0.4062
 1302WAT     H1 4117   1.187   0.201   1.810 -1.3692  0.9537 -0.2780
 1302WAT     H2 4118   1.172   0.051   1.824  1.0977  0.8433  1.7611
 1303WAT      O 4119   3.289   2.980   4.131 -0.4750 -0.1242 -0.2275
 1303WAT     H1 4120   3.282   2.948   4.041  1.6858 -0.5005 -0.3176
 1303WAT     H2 4121   3.350   3.053   4.125  1.7413 -1.7275  1.2174
 1304WAT      O 4122   3.301   4.206   3.553  0.2614  0.0029  0.4658
 1304WAT     H1 4123   3.334   4.122   3.520 -1.8161  0.0120 -1.8689
 1304WAT     H2 4124   3.219   4.183   3.596 -1.1465  0.9614 -1.5922
 1305WAT      O 4125   2.509   2.169   2.886 -0.5009  0.1660  0.7126
 1305WAT     H1 4126   2.489   2.077   2.901 -2.4262 -0.2170 -3.0216
 1305WAT     H2 4127   2.428   2.215   2.908  0.5168  1.1074  2.7731
 1306WAT      O 4128   2.461   4.084   2.933  0.8048  0.0528 -0.3930
 1306WAT     H1 4129   2.488   4.016   2.995  1.6943  0.8111  0.0909
 1306WAT     H2 4130   2.371   4.063   2.911 -0.0024  0.5088  2.1998
 1307WAT      O 4131   2.009   3.053   5.190  0.6723 -0.5169 -0.3795
 1307WAT     H1 4132   2.017   2.980   5.251  0.3506 -2.3656 -2.4266
 1307WAT     H2 4133   2.097   3.063   5.153  0.1630 -1.7506 -2.0600
 1308WAT      O 4134   0.579   0.251   1.210 -0.2767 -0.0659 -0.1057
 1308WAT     H1 4135   0.593   0.191   1.284 -1.9972 -0.4322 -0.0353
 1308WAT     H2 4136   0.501   0.218   1.166 -0.6626  1.5141 -0.6926
 1309WAT      O 4137   2.840   4.237   3.156 -0.3810 -0.0471  0.4468
 1309WAT     H1 4138   2.887   4.182   3.093  0.9384 -0.5455  1.8131
 1309WAT     H2 4139   2.800   4.176   3.217  1.4472  0.3911  2.2321
 1310WAT      O 4140   1.184   3.681   3.083 -0.3452  0.1781 -0.3042
 1310WAT     H1 4141   1.118   3.673   3.014  1.0102 -1.6682 -1.5112
 1310WAT     H2 4142   1.267   3.685   3.035  0.5332  0.5710  1.2090
 1311WAT      O 4143   3.549   1.765   4.868 -0.0754  0.3551  1.0276
 1311WAT     H1 4144   3.589   1.716   4.796  1.2347  1.3217  1.0434
 1311WAT     H2 4145   3.459   1.735   4.871  0.2723 -0.8711  0.0189
 1312WAT      O 4146   0.329   4.936   3.916  0.1190 -0.6712 -0.3325
 1312WAT     H1 4147   0.378   5.018   3.915  0.1987 -0.6832  0.9072
 1312WAT     H2 4148   0.255   4.951   3.857 -0.8203  0.9215  1.1551
 1313WAT      O 4149   4.277   1.921   2.743  0.1652 -0.0129  0.4494
 1313WAT     H1 4150   4.341   1.966   2.798  1.0181 -1.7318  0.9427
 1313WAT     H2 4151   4.298   1.947   2.654  0.4686  0.7396  0.7371
 1314WAT      O 4152   2.155   0.477   3.617  0.1121  0.1529 -0.5425
 1314WAT     H1 4153   2.112   0.494   3.534 -0.0606  2.0221 -0.1090
 1314WAT     H2 4154   2.219   0.548   3.626 -0.0238  0.1119  1.0146
 1315WAT      O 4155   1.110   3.815   4.114 -0.7422  0.3248 -0.3747
 1315WAT     H1 4156   1.148   3.757   4.048  2.5544  2.2733 -0.3905
 1315WAT     H2 4157   1.104   3.762   4.193  0.2758 -0.5886 -0.8926
 1316WAT      O 4158   2.991   3.233   0.570 -0.1390  0.5729 -0.2315
 1316WAT     H1 4159   2.942   3.287   0.633 -0.8421  0.1646 -0.4289
 1316WAT     H2 4160   2.947   3.247   0.487  1.2089  1.6535 -0.8056
 1317WAT      O 4161   0.334   1.378   2.566  0.3737  0.0776  0.0012
 1317WAT     H1 4162   0.270   1.426   2.618 -2.4090 -2.7994 -0.4548
 1317WAT     H2 4163   0.327   1.417   2.478 -0.8959 -0.2558 -0.0704
 1318WAT      O 4164   0.378   1.149   4.811 -0.0481 -0.2188 -0.9716
 1318WAT     H1 4165   0.450   1.187   4.760 -0.3662 -1.7292 -2.6315
 1318WAT     H2 4166   0.408   1.061   4.833 -0.9152 -0.4440 -0.6639
 1319WAT      O 4167   2.973   3.755   2.859  0.0531 -0.1563  0.2429
 1319WAT     H1 4168   3.037   3.816   2.896  0.0729 -0.1851  0.2563
 1319WAT     H2 4169   2.984   3.763   2.764  0.9618 -1.0932  0.2548
 1320WAT      O 4170   1.070   3.354   0.800  0.3436 -0.5206  0.4927
 1320WAT     H1 4171   1.079   3.399   0.716 -0.8967 -0.4373  0.3890
 1320WAT     H2 4172   1.058   3.424   0.864 -0.5151 -0.6332  0.4749
 1321WAT      O 4173   0.057   4.898   3.021 -0.3644 -0.5801 -0.4291
 1321WAT     H1 4174   0.092   4.815   3.055  1.3401 -0.3606 -1.5180
 1321WAT     H2 4175   0.026   4.876   2.934 -4.0126 -0.9732  0.8061
 1322WAT      O 4176   2.549   0.308   3.813  0.3215 -0.6780 -0.1589
 1322WAT     H1 4177   2.569   0.222   3.851 -1.4872 -0.3743  1.6268
 1322WAT     H2 4178   2.592   0.371   3.871  0.6394 -0.3172 -0.7740
 1323WAT      O 4179   1.183   1.258   2.191 -0.0746  0.7459 -0.0026
 1323WAT     H1 4180   1.101   1.301   2.217 -0.4221  0.8668 -1.2418
 1323WAT     H2 4181   1.176   1.169   2.226 -1.5305  0.1956 -1.5566
 1324WAT      O 4182   1.803   4.681   2.593  0.1763  0.1038 -0.1301
 1324WAT     H1 4183   1.898   4.672   2.605  0.0618 -1.5365 -0.2121
 1324WAT     H2 4184   1.781   4.762   2.639  1.1849 -0.9968  2.4608
 1325WAT      O 4185   0.669   3.333   3.699 -0.0653 -0.5516 -0.2771
 1325WAT     H1 4186   0.605   3.298   3.761 -0.1875  0.8005  0.4161
 1325WAT     H2 4187   0.658   3.280   3.620 -1.3160 -1.0266  0.1829
 1326WAT      O 4188   1.238   4.152   2.102  0.2864 -0.1604 -0.5320
 1326WAT     H1 4189   1.210   4.175   2.013 -0.7836  0.2524 -0.1023
 1326WAT     H2 4190   1.273   4.063   2.093 -0.8419 -0.5718 -1.1833
 1327WAT      O 4191   1.356   1.261   4.728  0.0145 -0.5253  0.0390
 1327WAT     H1 4192   1.294   1.226   4.665 -2.4529 -0.8688  2.4851
 1327WAT     H2 4193   1.432   1.202   4.722 -0.6279 -1.2403 -1.6973
 1328WAT      O 4194   0.097   2.521   3.592 -0.4477 -0.1844 -0.0247
 1328WAT     H1 4195   0.066   2.432   3.608 -0.3903 -0.2102 -0.0563
 1328WAT     H2 4196   0.109   2.558   3.679  0.3569 -0.4972  0.0065
 1329WAT      O 4197   2.211   4.950   2.075  0.4607  0.1012  0.2808
 1329WAT     H1 4198   2.219   5.040   2.107  0.9576  0.2082 -0.1356
 1329WAT     H2 4199   2.256   4.897   2.141  0.6184  0.2157  0.2654
 1330WAT      O 4200   0.712   2.976   4.604  1.1347  0.1348 -0.5389
 1330WAT     H1 4201   0.665   2.967   4.522 -1.4175  0.4111  0.7753
 1330WAT     H2 4202   0.684   3.061   4.639  2.3158  0.1234  0.5252
 1331WAT      O 4203   4.282   4.814   3.680 -0.3958 -0.3177  0.0364
 1331WAT     H1 4204   4.265   4.759   3.604 -2.5130  0.2163  0.0380
 1331WAT     H2 4205   4.335   4.886   3.646 -0.5238 -0.5731 -0.7246
 1332WAT      O 4206   2.633   0.551   3.604 -0.0761  0.4523  0.1658
 1332WAT     H1 4207   2.651   0.624   3.545  1.0267 -0.0245 -0.1053
 1332WAT     H2 4208   2.538   0.551   3.613 -0.1909  1.0902 -0.8907
 1333WAT      O 4209   0.165   4.298   0.745 -0.0807  0.2349 -0.3099
 1333WAT     H1 4210   0.155   4.261   0.657 -0.6383 -0.1087 -0.1075
 1333WAT     H2 4211   0.135   4.228   0.804  1.4606 -0.0150  0.2298
 1334WAT      O 4212   2.900   2.422   4.469 -0.1139 -0.3261  0.1965
 1334WAT     H1 4213   2.968   2.369   4.426  0.7541  0.0288  1.1037
 1334WAT     H2 4214   2.948   2.494   4.510 -1.0759  0.0936  0.6169
 1335WAT      O 4215   4.453   4.152   4.083  0.0592 -0.4199  0.3577
 1335WAT     H1 4216   4.406   4.223   4.041 -1.4744 -2.0061 -0.7332
 1335WAT     H2 4217   4.390   4.114   4.144  0.7891 -0.9882  0.7804
 1336WAT      O 4218   2.586   0.273   0.088 -0.8215 -0.1796  0.0178
 1336WAT     H1 4219   2.634   0.226   0.156  1.8413  1.1298 -0.8346
 1336WAT     H2 4220   2.596   0.218   0.010  0.8116  0.9005 -0.5657
 1337WAT      O 4221   4.087   4.357   1.153  0.2487 -0.0539 -0.1883
 1337WAT     H1 4222   4.072   4.277   1.204  0.7714  0.2576  0.4713
 1337WAT     H2 4223   4.124   4.419   1.216 -0.4425  0.8148 -0.6219
 1338WAT      O 4224   3.681   2.252   5.090  0.3628 -0.6343  0.4199
 1338WAT     H1 4225   3.595   2.220   5.066  0.3579  0.3084 -0.8899
 1338WAT     H2 4226   3.688   2.339   5.050  2.9646 -1.7769 -1.9697
 1339WAT      O 4227   0.293   2.940   4.502  0.3029 -0.1616 -0.0636
 1339WAT     H1 4228   0.322   3.031   4.511  0.3072 -0.0837 -0.8101
 1339WAT     H2 4229   0.254   2.918   4.587 -0.4489  0.8016 -0.1508
 1340WAT      O 4230   2.096   4.424   5.049 -0.2421 -0.4504  0.0057
 1340WAT     H1 4231   2.034   4.420   5.122 -0.4197 -2.1905 -0.1972
 1340WAT     H2 4232   2.156   4.351   5.065 -2.2946 -3.2193 -3.2524
 1341WAT      O 4233   3.668   2.786   0.229  0.5246 -0.0462 -0.3700
 1341WAT     H1 4234   3.708   2.702   0.254  0.4339  0.0518  0.1217
 1341WAT     H2 4235   3.627   2.817   0.309  0.6947  0.5508 -0.5094
 1342WAT      O 4236   2.513   3.367   4.192 -0.2294  0.2959 -0.2143
 1342WAT     H1 4237   2.501   3.298   4.258 -1.8869 -0.2528 -1.0367
 1342WAT     H2 4238   2.589   3.339   4.142  0.1732 -0.0222  0.5601
 1343WAT      O 4239   3.647   4.596   4.042 -0.1570 -0.3592 -0.5740
 1343WAT     H1 4240   3.566   4.647   4.047  0.7411  1.1342 -0.6791
 1343WAT     H2 4241   3.625   4.513   4.084 -0.8503  1.2301  2.5096
 1344WAT      O 4242   2.901   0.404   4.299  0.6083  0.3030  0.2496
 1344WAT     H1 4243   2.922   0.497   4.290 -0.5692  0.6380  0.7672
 1344WAT     H2 4244   2.973   0.358   4.255  1.2387  1.4515  0.0588
 1345WAT      O 4245   2.037   4.779   1.062 -0.1514  0.2082 -0.1103
 1345WAT     H1 4246   2.066   4.795   0.972 -0.5555  1.1641 -0.0883
 1345WAT     H2 4247   2.025   4.867   1.099 -0.0575 -0.1725  0.8554
 1346WAT      O 4248   0.319   0.468   1.815 -0.2635 -0.0269  0.2791
 1346WAT     H1 4249   0.378   0.529   1.860 -0.9444  0.8180  0.0609
 1346WAT     H2 4250   0.267   0.429   1.886  0.8467 -1.1263  0.5187
 1347WAT      O 4251   1.851   0.397   1.006  0.2501  0.5521  0.2225
 1347WAT     H1 4252   1.797   0.475   0.990  0.6612  0.3345 -2.8046
 1347WAT     H2 4253   1.798   0.342   1.064 -0.5110  2.5597  1.5465
 1348WAT      O 4254   3.963   0.593   0.145 -0.1836  0.2128  0.6151
 1348WAT     H1 4255   3.956   0.499   0.163  0.5526  0.4385  2.1892
 1348WAT     H2 4256   3.877   0.617   0.110 -0.8913 -0.7404  1.6447
 1349WAT      O 4257   3.832   0.282   4.569  0.5157  0.2162 -0.1722
 1349WAT     H1 4258   3.836   0.349   4.500  0.7405  1.0465  0.6226
 1349WAT     H2 4259   3.921   0.245   4.572  1.2268  1.8670  1.2565
 1350WAT      O 4260   0.077   0.397   5.199 -0.4557 -0.2808  0.0719
 1350WAT     H1 4261   0.131   0.325   5.234  0.1819  0.5114  0.7660
 1350WAT     H2 4262   0.123   0.424   5.119 -1.4175 -1.4886 -0.9370
 1351WAT      O 4263   3.545   2.709   3.664 -0.3740 -0.5454 -0.3561
 1351WAT     H1 4264   3.601   2.632   3.673  1.8980  1.0276  0.0787
 1351WAT     H2 4265   3.527   2.737   3.754  0.7539  0.6689 -0.4689
 1352WAT      O 4266   0.488   2.702   1.625 -0.6054 -0.6179  0.2878
 1352WAT     H1 4267   0.456   2.615   1.601 -0.0408 -0.8947  0.5231
 1352WAT     H2 4268   0.410   2.749   1.652 -0.9679 -0.9396 -0.1793
 1353WAT      O 4269   3.569   4.759   4.760 -0.0972 -0.3240  0.0288
 1353WAT     H1 4270   3.588   4.669   4.788  2.4221  0.1099 -0.0568
 1353WAT     H2 4271   3.473   4.762   4.753 -0.4463 -2.2521  2.4880
 1354WAT      O 4272   2.785   0.541   0.213 -0.6071 -0.2830 -0.6056
 1354WAT     H1 4273   2.825   0.605   0.154  0.4615 -0.3309  0.0379
 1354WAT     H2 4274   2.817   0.456   0.181 -2.2345 -0.5448 -1.6245
 1355WAT      O 4275   3.144   5.038   1.881 -0.0591 -0.5963  0.5648
 1355WAT     H1 4276   3.222   5.093   1.870 -0.4241  0.2697  2.1029
 1355WAT     H2 4277   3.176   4.961   1.928 -0.0436 -0.4548  0.7875
 1356WAT      O 4278   0.018   1.993   2.632  0.7321 -0.1782 -0.8507
 1356WAT     H1 4279   0.102   2.029   2.658  0.0395  0.5680  0.4928
 1356WAT     H2 4280   0.023   1.901   2.659  1.0379 -0.0820 -0.5672
 1357WAT      O 4281   3.199   4.029   1.157  0.5887 -0.1343 -0.7219
 1357WAT     H1 4282   3.136   3.967   1.121 -0.4532  1.3638 -1.5878
 1357WAT     H2 4283   3.203   4.099   1.092  1.0933  1.1181  0.6073
 1358WAT      O 4284   0.047   4.658   3.855  0.2568 -0.2109  0.0260
 1358WAT     H1 4285  -0.018   4.627   3.792 -0.5659 -2.0647  1.6642
 1358WAT     H2 4286   0.116   4.591   3.852  2.1380  1.6693 -1.6063
 1359WAT      O 4287   3.659   0.422   0.480  0.4709 -0.3049  0.1849
 1359WAT     H1 4288   3.692   0.508   0.507  2.0564 -1.0994  0.8652
 1359WAT     H2 4289   3.670   0.367   0.557  2.8578 -2.0260 -1.2654
 1360WAT      O 4290   2.609   0.327   0.770 -0.6230 -0.2596  0.6058
 1360WAT     H1 4291   2.688   0.306   0.820  0.0826  1.0191  0.0773
 1360WAT     H2 4292   2.583   0.413   0.802 -2.3529 -1.0260  1.4005
 1361WAT      O 4293   2.146   0.521   3.344  0.7723  0.1273  0.1974
 1361WAT     H1 4294   2.233   0.560   3.347  0.8747  0.1776 -1.8215
 1361WAT     H2 4295   2.152   0.453   3.277 -0.4798 -0.5555  0.7411
 1362WAT      O 4296   0.775   1.041   0.373 -0.0031 -0.0235 -0.5009
 1362WAT     H1 4297   0.720   0.963   0.385  1.4137 -0.7516  1.8854
 1362WAT     H2 4298   0.754   1.097   0.447 -0.7075  1.7757 -1.9723
 1363WAT      O 4299   0.271   2.586   4.801  0.0724  0.1597  0.3245
 1363WAT     H1 4300   0.205   2.564   4.868 -0.2104  0.2867  0.0903
 1363WAT     H2 4301   0.224   2.578   4.718 -0.1825  2.0954  0.2444
 1364WAT      O 4302   3.381   5.083   1.264  0.0655  0.4932  0.4931
 1364WAT     H1 4303   3.290   5.095   1.237 -0.4082  0.0309  1.7644
 1364WAT     H2 4304   3.422   5.035   1.193 -0.8366  0.2367  0.1384
 1365WAT      O 4305   2.456   0.131   1.111 -0.1078 -0.4739  0.1769
 1365WAT     H1 4306   2.404   0.164   1.038  0.1751 -0.5852 -0.0737
 1365WAT     H2 4307   2.492   0.210   1.152 -0.3552 -0.4050  0.2666
 1366WAT      O 4308   2.572   3.381   0.826  0.1907 -0.2960  0.7120
 1366WAT     H1 4309   2.538   3.361   0.738  3.2427  0.4826 -0.7799
 1366WAT     H2 4310   2.510   3.444   0.862 -1.3717 -0.9604 -0.6749
 1367WAT      O 4311   4.152   4.349   1.994  0.0462 -0.5669 -0.3982
 1367WAT     H1 4312   4.145   4.365   1.900 -2.1581  0.0561 -0.1847
 1367WAT     H2 4313   4.203   4.268   2.001 -0.9792 -1.4384 -2.2148
 1368WAT      O 4314   0.902   5.169   3.048  0.5786 -0.1965 -0.1850
 1368WAT     H1 4315   0.811   5.142   3.061  0.1767  0.6146 -1.2106
 1368WAT     H2 4316   0.945   5.091   3.012  0.8546 -1.2996  2.3049
 1369WAT      O 4317   0.815   0.026   2.261  0.6656 -0.1166  0.1818
 1369WAT     H1 4318   0.733   0.075   2.265 -0.7620 -2.4366  1.8159
 1369WAT     H2 4319   0.883   0.093   2.248 -1.4911  1.8231 -2.0008
 1370WAT      O 4320   2.281   4.921   5.168  0.1112  0.3119 -0.0480
 1370WAT     H1 4321   2.204   4.976   5.155  0.7604  0.7918 -2.3972
 1370WAT     H2 4322   2.246   4.840   5.205 -1.1567  1.4274  1.3334
 1371WAT      O 4323   0.613   2.404   3.168 -0.0640  0.2435  0.4086
 1371WAT     H1 4324   0.618   2.318   3.209 -1.1432  0.5144  1.1675
 1371WAT     H2 4325   0.573   2.460   3.235 -0.9369  0.9431 -0.6655
 1372WAT      O 4326   3.259   4.793   0.068 -1.0632 -0.0743 -1.0032
 1372WAT     H1 4327   3.274   4.878   0.027  0.8910 -0.3666 -1.0023
 1372WAT     H2 4328   3.338   4.777   0.119 -2.4797 -0.7327  1.1427
 1373WAT      O 4329   2.154   1.206   2.081 -0.4284 -0.0729 -0.3495
 1373WAT     H1 4330   2.201   1.175   2.158 -0.5103 -0.7631 -0.5689
 1373WAT     H2 4331   2.098   1.277   2.114  1.2299  1.2239 -0.2078
 1374WAT      O 4332   1.613   0.639   1.825 -0.0714  0.4648 -0.0504
 1374WAT     H1 4333   1.600   0.623   1.732  0.4335 -3.5937  0.3850
 1374WAT     H2 4334   1.706   0.663   1.833  0.1613 -0.2717 -0.5101
 1375WAT      O 4335   4.464   0.827   3.451  0.3081 -0.0010  0.1200
 1375WAT     H1 4336   4.426   0.756   3.503 -0.8556 -0.4859 -1.2862
 1375WAT     H2 4337   4.397   0.895   3.452  0.7199  0.4062  0.1233
 1376WAT      O 4338   3.905   0.470   1.682 -0.3008  0.1404 -0.1051
 1376WAT     H1 4339   3.884   0.529   1.754 -1.3662  0.7653 -0.8969
 1376WAT     H2 4340   4.000   0.471   1.676 -0.2675  1.1111  0.4508
 1377WAT      O 4341   2.904   1.226   1.086  0.2979 -0.5380  0.4462
 1377WAT     H1 4342   2.924   1.150   1.140  0.8395 -1.7483 -1.3478
 1377WAT     H2 4343   2.822   1.203   1.042  0.5658 -0.1772 -0.2529
 1378WAT      O 4344   0.606   4.018   0.318  0.2901 -0.2736  0.8506
 1378WAT     H1 4345   0.565   4.068   0.389  0.5103  0.3973  0.5054
 1378WAT     H2 4346   0.569   3.930   0.327 -0.5012  0.0783  1.1434
 1379WAT      O 4347   3.772   4.293   2.322  0.2934  0.0375  0.1014
 1379WAT     H1 4348   3.793   4.259   2.235 -1.5003 -1.3742  0.1725
 1379WAT     H2 4349   3.836   4.363   2.336  1.3586 -0.4724 -1.8564
 1380WAT      O 4350   0.939   0.526   0.541 -0.4259  0.2153 -0.5106
 1380WAT     H1 4351   0.903   0.478   0.466 -1.0519 -0.5068  0.2357
 1380WAT     H2 4352   0.878   0.508   0.612  0.7653 -0.0547  0.4765
 1381WAT      O 4353   1.988   4.482   2.421  0.0308 -0.0776  0.2262
 1381WAT     H1 4354   2.017   4.531   2.498 -0.3630  0.8838 -0.2239
 1381WAT     H2 4355   1.927   4.417   2.455 -0.3433  0.5106  0.7052
 1382WAT      O 4356   4.163   2.052   3.649  0.0227  0.1267 -0.1456
 1382WAT     H1 4357   4.218   1.979   3.677 -1.3482 -0.9480 -0.1954
 1382WAT     H2 4358   4.076   2.014   3.636 -0.8476  1.8613  0.3245
 1383WAT      O 4359   2.447   1.588   3.661  0.4163 -0.2835  0.1162
 1383WAT     H1 4360   2.500   1.530   3.715  0.0368 -0.2098  0.5724
 1383WAT     H2 4361   2.396   1.640   3.724  0.2530  0.0690 -0.3013
 1384WAT      O 4362   2.909   4.017   3.962 -0.3755  0.2583  0.3091
 1384WAT     H1 4363   2.840   4.051   4.020  0.6319 -0.9325  2.3032
 1384WAT     H2 4364   2.879   3.929   3.938  0.1850 -0.0611  0.7569
 1385WAT      O 4365   1.341   1.264   3.468  0.6774 -0.1360  0.6256
 1385WAT     H1 4366   1.256   1.295   3.436  1.2060 -0.4920 -1.2270
 1385WAT     H2 4367   1.401   1.337   3.451  0.8805 -0.1179  1.3600
 1386WAT      O 4368   0.919   3.736   0.741  0.0012 -0.3056  0.1797
 1386WAT     H1 4369   0.913   3.698   0.653  0.6857 -1.7999  0.7484
 1386WAT     H2 4370   0.842   3.792   0.747 -0.4602 -0.7441 -1.1129
 1387WAT      O 4371   0.250   4.122   4.916 -0.0791 -0.3109 -0.3252
 1387WAT     H1 4372   0.337   4.083   4.914  0.2440  0.4204 -1.3279
 1387WAT     H2 4373   0.263   4.212   4.886 -0.8970  0.4011  1.3300
 1388WAT      O 4374   0.433   4.834   0.923 -0.4809 -0.0814 -0.2196
 1388WAT     H1 4375   0.366   4.766   0.919  0.1853 -0.7516 -0.2095
 1388WAT     H2 4376   0.501   4.804   0.862  0.2353  0.1149  0.4680
 1389WAT      O 4377   3.868   0.107   4.118  0.0355  0.2063  0.0886
 1389WAT     H1 4378   3.921   0.080   4.044  0.0896  1.3991 -0.3332
 1389WAT     H2 4379   3.917   0.077   4.195  0.8877  0.5113 -0.3175
 1390WAT      O 4380   4.071   0.758   4.060 -0.3902 -0.8862  0.1461
 1390WAT     H1 4381   4.045   0.794   3.975 -1.5534 -1.6896  0.1436
 1390WAT     H2 4382   4.118   0.677   4.039 -1.8116 -1.7753  0.2832
 1391WAT      O 4383   3.577   2.887   1.302 -0.5258 -0.5195  0.1521
 1391WAT     H1 4384   3.645   2.932   1.353  2.0303 -1.3301 -2.2897
 1391WAT     H2 4385   3.540   2.823   1.363 -0.0587  0.8197  1.9326
 1392WAT      O 4386   1.957   1.834   0.625  0.0047 -0.0755  0.2603
 1392WAT     H1 4387   1.874   1.874   0.652 -1.2955 -0.1229 -3.1995
 1392WAT     H2 4388   1.948   1.742   0.650 -0.4547  0.1639  1.0058
 1393WAT      O 4389   2.624   0.406   4.332  0.2728 -0.1370  0.1402
 1393WAT     H1 4390   2.720   0.406   4.338  0.3334 -2.7760  0.5880
 1393WAT     H2 4391   2.597   0.327   4.380 -2.0186 -0.3211 -1.2973
 1394WAT      O 4392   3.097   4.167   4.734  0.2659 -0.0850  0.1570
 1394WAT     H1 4393   3.093   4.124   4.819 -0.0381 -2.0252 -0.7888
 1394WAT     H2 4394   3.005   4.184   4.711  0.1692 -1.6307 -0.7382
 1395WAT      O 4395   3.593   2.805   0.977 -0.1845 -0.1549  0.3336
 1395WAT     H1 4396   3.602   2.796   1.072  1.0110  1.3479  0.4171
 1395WAT     H2 4397   3.667   2.756   0.941  0.0588  0.2580  0.2589
 1396WAT      O 4398   2.059   2.654   1.581  0.3084 -0.1012  0.8644
 1396WAT     H1 4399   2.136   2.614   1.622  1.9255  0.5479 -1.3726
 1396WAT     H2 4400   2.068   2.634   1.488 -2.2520  0.0309  0.5205
 1397WAT      O 4401   3.481   1.714   0.151  0.0615 -0.0833  0.4786
 1397WAT     H1 4402   3.499   1.782   0.086  0.5985 -0.6664  0.0126
 1397WAT     H2 4403   3.513   1.751   0.233  0.5036  0.1670  0.1968
 1398WAT      O 4404   3.926   0.443   4.354  0.0193  0.9519 -0.8135
 1398WAT     H1 4405   3.978   0.408   4.282  0.1958  1.2146 -0.8176
 1398WAT     H2 4406   3.886   0.522   4.318  0.5700  1.4001 -0.4536
 1399WAT      O 4407   4.045   2.574   3.793  0.0993 -0.1333 -0.1932
 1399WAT     H1 4408   4.012   2.484   3.804 -0.4859  0.0423 -0.4553
 1399WAT     H2 4409   4.121   2.579   3.851  0.8804 -1.1760 -1.0823
 1400WAT      O 4410   4.482   1.862   5.120  0.7714  0.5962 -0.3553
 1400WAT     H1 4411   4.395   1.892   5.094  1.2513  0.5214 -2.1592
 1400WAT     H2 4412   4.471   1.767   5.133  0.4615  0.6788  0.0036
 1401WAT      O 4413   1.667   2.513   1.549  0.4427  0.1709 -0.7561
 1401WAT     H1 4414   1.593   2.482   1.602  0.1098  0.0828 -1.2681
 1401WAT     H2 4415   1.740   2.458   1.575  0.5531  0.8242  0.3909
 1402WAT      O 4416   0.631   1.198   4.316 -0.3689  0.1819  0.0228
 1402WAT     H1 4417   0.718   1.170   4.345 -0.8479  0.0098  1.3632
 1402WAT     H2 4418   0.581   1.117   4.311 -0.5814  0.3330 -0.3256
 1403WAT      O 4419   1.153   1.566   1.447 -0.4875  0.0872 -0.4544
 1403WAT     H1 4420   1.149   1.661   1.439  0.7559  0.1858 -0.0372
 1403WAT     H2 4421   1.183   1.551   1.537 -1.9756 -0.7454 -0.0511
 1404WAT      O 4422   0.847   2.212   4.558  0.2211 -0.3321 -0.3491
 1404WAT     H1 4423   0.833   2.203   4.464 -1.1928  1.7587 -0.3983
 1404WAT     H2 4424   0.790   2.146   4.597 -0.1594 -0.3424 -0.9116
 1405WAT      O 4425   2.633   1.400   3.798  0.3133 -0.3307 -0.0304
 1405WAT     H1 4426   2.626   1.305   3.794 -0.4551 -0.3215  0.8179
 1405WAT     H2 4427   2.607   1.423   3.887  0.1131  0.7048 -0.3357
 1406WAT      O 4428   4.538   3.092   3.461  0.2347 -0.1295 -0.8531
 1406WAT     H1 4429   4.470   3.061   3.401  0.2726 -0.7000 -0.6004
 1406WAT     H2 4430   4.514   3.183   3.479 -1.3018 -0.7463  0.4043
 1407WAT      O 4431   1.530   1.695   4.892  0.4770 -0.1832  0.2914
 1407WAT     H1 4432   1.552   1.679   4.800  1.2644 -0.6632  0.5524
 1407WAT     H2 4433   1.464   1.629   4.913  1.9083 -1.5763  0.6663
 1408WAT      O 4434   4.042   2.493   0.646 -0.4094 -0.4459  0.2301
 1408WAT     H1 4435   3.977   2.460   0.708 -0.1216  0.0058  0.7886
 1408WAT     H2 4436   4.007   2.576   0.616  0.3989  0.3586  1.3949
 1409WAT      O 4437   1.952   3.226   0.593 -0.5380 -0.0404 -0.1155
 1409WAT     H1 4438   1.963   3.134   0.568 -0.2492 -0.7792  2.4795
 1409WAT     H2 4439   1.859   3.234   0.615 -1.0431  0.8963 -2.3469
 1410WAT      O 4440   1.501   1.654   0.567  0.2251  0.0845 -0.0821
 1410WAT     H1 4441   1.556   1.640   0.644  1.6134  0.3864 -0.9917
 1410WAT     H2 4442   1.527   1.586   0.505 -2.6082 -1.7611  0.5446
 1411WAT      O 4443   1.939   4.236   0.398  0.2208 -0.6214 -0.0820
 1411WAT     H1 4444   1.993   4.268   0.470  0.1329  0.5863 -0.5131
 1411WAT     H2 4445   1.994   4.174   0.351  0.3846 -1.1846  0.8344
 1412WAT      O 4446   2.090   0.652   2.294 -0.2843  0.2757 -0.2527
 1412WAT     H1 4447   2.153   0.698   2.349  0.8190  0.4044 -1.5552
 1412WAT     H2 4448   2.126   0.564   2.285 -1.5166 -0.3735  0.8636
 1413WAT      O 4449   4.026   1.734   4.717 -0.1493 -0.2904  0.2696
 1413WAT     H1 4450   3.972   1.810   4.699 -0.6759 -0.4219  1.2722
 1413WAT     H2 4451   4.115   1.762   4.695  0.2762  1.8824  3.9449
 1414WAT      O 4452   2.552   1.086   0.022 -0.3291 -0.3734 -0.0418
 1414WAT     H1 4453   2.604   1.076  -0.058 -0.2735 -0.6604  0.0328
 1414WAT     H2 4454   2.612   1.065   0.093 -0.5970 -0.8898  0.0360
 1415WAT      O 4455   2.657   4.092   0.758 -0.3003 -0.2602  0.2189
 1415WAT     H1 4456   2.617   4.170   0.796 -0.2395  0.4340 -1.0537
 1415WAT     H2 4457   2.627   4.093   0.667  0.5093 -1.1765 -0.0704
 1416WAT      O 4458   3.411  -0.011   3.426 -0.5493 -0.2521 -0.5765
 1416WAT     H1 4459   3.389   0.046   3.500 -0.2958  0.0648 -0.7469
 1416WAT     H2 4460   3.506  -0.005   3.418 -0.3676 -1.6771  0.2044
 1417WAT      O 4461   4.303   4.801   4.682  0.4727 -0.5987  0.1578
 1417WAT     H1 4462   4.317   4.869   4.749  1.6547 -1.4141  0.7673
 1417WAT     H2 4463   4.221   4.826   4.640  0.3958  0.6859  1.0068
 1418WAT      O 4464   1.068   0.732   4.780  0.2438  0.4512 -0.7147
 1418WAT     H1 4465   1.059   0.810   4.725  0.1539  0.4663 -0.6794
 1418WAT     H2 4466   1.098   0.664   4.720 -0.0247  0.4232 -0.8168
 1419WAT      O 4467   1.854   4.970   2.043 -0.6230  0.0597 -0.0174
 1419WAT     H1 4468   1.797   4.893   2.033 -0.3542 -0.5651  2.6315
 1419WAT     H2 4469   1.880   4.969   2.135  0.2020  2.7913 -0.1431
 1420WAT      O 4470   2.424   0.896   4.050 -0.7442 -0.3827 -0.0563
 1420WAT     H1 4471   2.375   0.874   4.130  0.1783 -1.6308  0.1874
 1420WAT     H2 4472   2.466   0.979   4.070  1.0379 -1.5886  1.5261
 1421WAT      O 4473   3.344   5.068   0.825  0.6194  0.0088  0.1796
 1421WAT     H1 4474   3.295   5.106   0.752 -0.0771 -0.0640  0.5978
 1421WAT     H2 4475   3.365   4.979   0.796  0.1010 -0.1165  0.1703
 1422WAT      O 4476   1.177   1.351   0.805  0.1336 -0.7072  0.0354
 1422WAT     H1 4477   1.213   1.321   0.889 -2.3768  0.0995  1.5044
 1422WAT     H2 4478   1.220   1.435   0.789 -0.8068  0.1475  1.6510
 1423WAT      O 4479   3.980   5.013   2.218  0.1336  0.0772 -0.2056
 1423WAT     H1 4480   4.015   5.064   2.144 -1.6791  0.5288 -0.8114
 1423WAT     H2 4481   4.012   5.059   2.296  2.9576 -1.0082 -0.6077
 1424WAT      O 4482   4.512   3.447   3.976  0.0916 -0.1437  0.1269
 1424WAT     H1 4483   4.464   3.364   3.975 -1.4885  0.6052  3.0301
 1424WAT     H2 4484   4.575   3.437   4.048  1.9881  0.1752 -1.4033
 1425WAT      O 4485   1.790   0.082   1.143 -0.9936  0.0581  0.3754
 1425WAT     H1 4486   1.706   0.038   1.132 -0.3856 -1.6768  2.0262
 1425WAT     H2 4487   1.768   0.164   1.188 -1.9346  0.4381 -0.7299
 1426WAT      O 4488   3.159   1.007   3.998  0.1205  0.6722 -0.4740
 1426WAT     H1 4489   3.141   0.948   4.071 -2.8181 -0.0940 -1.6643
 1426WAT     H2 4490   3.156   1.094   4.036 -0.5826  0.2502  0.4691
 1427WAT      O 4491   0.892   3.679   2.273  0.0008  0.0822  0.2073
 1427WAT     H1 4492   0.806   3.640   2.289 -0.8508  2.3883  1.9633
 1427WAT     H2 4493   0.948   3.641   2.340 -0.5383  0.9154  1.1738
 1428WAT      O 4494   1.796   4.635   1.051 -0.5799  0.1846  0.1961
 1428WAT     H1 4495   1.888   4.659   1.048 -0.9084  1.4879 -0.2152
 1428WAT     H2 4496   1.795   4.544   1.081  0.8399  0.0586 -0.1021
 1429WAT      O 4497   1.862   4.941   0.830  0.2381 -0.1315  0.3688
 1429WAT     H1 4498   1.844   5.035   0.834 -1.0378 -0.3965  1.2500
 1429WAT     H2 4499   1.859   4.913   0.921  0.0824 -1.1371  0.0584
 1430WAT      O 4500   0.898   4.730   0.829 -0.1055  0.0825 -0.1210
 1430WAT     H1 4501   0.989   4.711   0.804 -0.0464 -1.6064  1.1352
 1430WAT     H2 4502   0.870   4.798   0.768  2.3198  1.4030  0.0909
 1431WAT      O 4503   1.402   2.899   0.817  0.1192  0.2646 -0.0881
 1431WAT     H1 4504   1.313   2.874   0.791  1.0010 -0.3086 -2.8378
 1431WAT     H2 4505   1.437   2.820   0.858 -0.2317  0.0865 -0.1230
 1432WAT      O 4506   2.737   3.769   0.605 -0.3649  0.5164 -0.1778
 1432WAT     H1 4507   2.691   3.717   0.539 -1.6052 -1.4660  2.0441
 1432WAT     H2 4508   2.828   3.737   0.602 -0.4409  0.3604 -0.8475
 1433WAT      O 4509   2.074   2.960   2.831 -0.6851 -0.0506  0.1031
 1433WAT     H1 4510   2.047   3.048   2.858 -0.4832 -0.0895  0.4342
 1433WAT     H2 4511   2.010   2.935   2.765  0.1393  0.9652 -1.1257
 1434WAT      O 4512   0.199   1.142   4.465  0.1044  0.2460 -0.2489
 1434WAT     H1 4513   0.205   1.141   4.370  1.5630  2.2490 -0.2261
 1434WAT     H2 4514   0.214   1.233   4.490 -1.2383 -0.0259  1.8619
 1435WAT      O 4515   3.256   2.554   0.790 -0.1419 -0.3498  0.7856
 1435WAT     H1 4516   3.311   2.633   0.788 -0.4564 -0.1034  1.4142
 1435WAT     H2 4517   3.256   2.522   0.700 -0.3833  0.6423  0.4196
 1436WAT      O 4518   3.517   1.234   3.072 -0.2070  0.2413  0.2433
 1436WAT     H1 4519   3.488   1.297   3.006 -0.0940  0.7538  0.6769
 1436WAT     H2 4520   3.499   1.148   3.033 -0.3760  0.5414 -0.3449
 1437WAT      O 4521   2.757   5.155   4.369  0.4047 -0.3813  0.2431
 1437WAT     H1 4522   2.730   5.066   4.393  2.1674 -0.3699  2.6565
 1437WAT     H2 4523   2.844   5.144   4.331  0.9842  0.3201  1.2981
 1438WAT      O 4524   2.179   3.815   5.289 -0.4249  0.1180 -0.5342
 1438WAT     H1 4525   2.089   3.795   5.262  0.5981 -1.8679 -2.9272
 1438WAT     H2 4526   2.222   3.729   5.291  1.3897  1.0044  0.7380
 1439WAT      O 4527   4.258   4.660   2.428 -0.0499 -0.0201  0.1266
 1439WAT     H1 4528   4.325   4.664   2.497 -2.6883 -1.0241  2.9877
 1439WAT     H2 4529   4.227   4.750   2.421 -0.0970  0.0091  0.6388
 1440WAT      O 4530   1.266   3.521   3.895 -0.1322  0.3469  0.2026
 1440WAT     H1 4531   1.305   3.608   3.898 -0.5045  0.7164 -2.6444
 1440WAT     H2 4532   1.182   3.531   3.942 -1.3174  2.2784 -2.0996
 1441WAT      O 4533   0.350   4.776   1.826 -0.1380  0.1469 -0.3602
 1441WAT     H1 4534   0.376   4.867   1.810  1.6088 -0.1926  0.3186
 1441WAT     H2 4535   0.340   4.770   1.921  2.9511 -1.0945 -0.0124
 1442WAT      O 4536   2.805   3.882   1.200 -0.5512 -0.3792  0.1994
 1442WAT     H1 4537   2.766   3.799   1.227 -1.1691  0.0588  0.7183
 1442WAT     H2 4538   2.748   3.914   1.130 -0.3461 -0.3649  0.0373
 1443WAT      O 4539   0.641   4.975   4.172 -0.6384  0.1578 -0.3122
 1443WAT     H1 4540   0.568   5.030   4.144  0.7559  1.6474 -1.2365
 1443WAT     H2 4541   0.685   5.025   4.240 -1.2220 -1.3371  1.2271
 1444WAT      O 4542   3.012   4.916   0.793 -0.1828 -0.7964 -0.0632
 1444WAT     H1 4543   2.948   4.920   0.721 -1.0882  1.4055  0.7728
 1444WAT     H2 4544   3.077   4.852   0.764 -1.8100 -1.7725 -1.7472
 1445WAT      O 4545   0.873   3.976   3.515 -0.3134  0.4166  0.1477
 1445WAT     H1 4546   0.882   3.913   3.444  2.3738 -0.7204  1.3378
 1445WAT     H2 4547   0.804   3.940   3.571 -0.0244 -0.5608 -0.1050
 1446WAT      O 4548   3.151   0.834   0.279  0.2081 -0.2382  0.4501
 1446WAT     H1 4549   3.116   0.834   0.189 -0.5404 -0.0004  0.7366
 1446WAT     H2 4550   3.087   0.785   0.330  0.2963  0.2003  0.9877
 1447WAT      O 4551   3.686   0.639   3.987 -0.2772 -0.1034  0.2069
 1447WAT     H1 4552   3.714   0.680   3.905 -0.8825 -0.3641 -0.1424
 1447WAT     H2 4553   3.651   0.711   4.039  1.4107  0.2990  0.8346
 1448WAT      O 4554   0.455   0.348   0.047 -0.1281  0.1257 -0.2822
 1448WAT     H1 4555   0.420   0.428   0.009  0.9064  0.1247 -1.2823
 1448WAT     H2 4556   0.384   0.284   0.037 -0.2394  0.3915 -1.3521
 1449WAT      O 4557   0.223   4.714   4.597 -0.4078 -0.0422 -0.1102
 1449WAT     H1 4558   0.134   4.722   4.564 -0.6506 -1.0470  0.2461
 1449WAT     H2 4559   0.219   4.752   4.685 -0.8091 -1.1789  0.3910
 1450WAT      O 4560   3.884   3.175   2.344 -0.8542  0.4902  0.0247
 1450WAT     H1 4561   3.827   3.226   2.401 -0.2393 -0.1884  1.2907
 1450WAT     H2 4562   3.843   3.089   2.340  1.1292 -0.7602  2.8437
 1451WAT      O 4563   4.122   1.410   3.033 -0.4114  0.2604 -0.0511
 1451WAT     H1 4564   4.086   1.341   2.977 -0.8031  0.6491 -0.2839
 1451WAT     H2 4565   4.057   1.423   3.101  0.0213 -0.1432  0.4481
 1452WAT      O 4566   4.132   0.062   1.782 -0.0241  0.0945 -0.6475
 1452WAT     H1 4567   4.178   0.126   1.727  1.4368 -0.4254 -0.0715
 1452WAT     H2 4568   4.166  -0.023   1.754  0.5698 -0.1933  0.8624
 1453WAT      O 4569   1.545   4.367   4.066  0.3380 -0.0985 -0.6808
 1453WAT     H1 4570   1.480   4.430   4.098  1.3110  1.1278 -1.0521
 1453WAT     H2 4571   1.521   4.355   3.973  0.2517 -0.1571 -0.6514
 1454WAT      O 4572   1.095   2.364   1.866 -0.1002 -0.2668  0.1692
 1454WAT     H1 4573   1.147   2.303   1.813  0.4634 -0.4311  0.9003
 1454WAT     H2 4574   1.024   2.392   1.807  0.9236  0.1377 -0.9184
 1455WAT      O 4575   3.396   4.364   5.029 -0.3862 -0.1084  0.2109
 1455WAT     H1 4576   3.446   4.292   5.067  2.3548  1.6383  0.2244
 1455WAT     H2 4577   3.324   4.377   5.090  0.3850 -1.3518  1.4612
 1456WAT      O 4578   0.446   5.012   1.740 -0.5087  0.0795 -0.6379
 1456WAT     H1 4579   0.520   5.061   1.775 -0.2899 -0.3028 -0.5618
 1456WAT     H2 4580   0.387   5.079   1.705 -0.0329  0.3737 -0.8811
 1457WAT      O 4581   2.579   2.839   3.843 -0.3176 -0.4435 -0.4303
 1457WAT     H1 4582   2.532   2.920   3.862  2.5491  0.4692  4.7874
 1457WAT     H2 4583   2.646   2.865   3.779  0.5153  1.4510  1.0909
 1458WAT      O 4584   0.715   2.347   3.493 -0.4950  0.1209 -0.1502
 1458WAT     H1 4585   0.632   2.376   3.454 -1.0071 -3.0635 -1.7412
 1458WAT     H2 4586   0.689   2.302   3.573 -0.1194  0.6497  0.2706
 1459WAT      O 4587   1.754   2.203   2.510 -0.0075 -0.0044  0.1912
 1459WAT     H1 4588   1.717   2.290   2.527 -0.1254  0.1847 -0.9619
 1459WAT     H2 4589   1.843   2.221   2.478 -0.4322 -0.2199 -1.1877
 1460WAT      O 4590   2.720   1.059   0.978  0.1550  0.1714 -0.4089
 1460WAT     H1 4591   2.725   0.994   0.908 -0.8096  0.7962 -1.0821
 1460WAT     H2 4592   2.723   1.008   1.059  1.0325 -0.5773 -0.8951
 1461WAT      O 4593   4.412   3.702   0.661  0.4778  0.0337  0.4942
 1461WAT     H1 4594   4.319   3.716   0.677  0.3208 -0.4118  0.0008
 1461WAT     H2 4595   4.453   3.785   0.684  0.0688 -0.0579  1.5905
 1462WAT      O 4596   0.105   2.542   5.029 -0.3623  0.3265  0.1562
 1462WAT     H1 4597   0.019   2.566   4.996 -0.2437  1.9330  0.9181
 1462WAT     H2 4598   0.089   2.467   5.086 -1.0142 -0.3674 -0.9065
 1463WAT      O 4599   4.314   3.752   4.744 -0.2426  0.1048  0.5588
 1463WAT     H1 4600   4.343   3.777   4.656  0.1399 -2.7801 -0.2620
 1463WAT     H2 4601   4.244   3.689   4.728  1.4254 -2.3277  2.1487
 1464WAT      O 4602   1.726   2.716   4.196  0.0149  0.1538  0.1243
 1464WAT     H1 4603   1.651   2.685   4.146  2.0863 -0.9294 -2.5759
 1464WAT     H2 4604   1.753   2.641   4.249  0.3910 -0.1617 -0.4979
 1465WAT      O 4605   0.329   0.422   4.371  0.9237 -0.1081  0.0611
 1465WAT     H1 4606   0.399   0.360   4.350  0.9106 -0.3060  0.5858
 1465WAT     H2 4607   0.368   0.482   4.435  0.7027 -0.0502  0.1438
 1466WAT      O 4608   2.434   1.140   1.658 -0.1756 -0.5850  0.0427
 1466WAT     H1 4609   2.523   1.173   1.670 -0.8079  1.5602 -0.6150
 1466WAT     H2 4610   2.393   1.150   1.743  0.0191 -0.9856  0.1872
 1467WAT      O 4611   0.871   2.530   1.686 -0.0933 -0.5977  0.2233
 1467WAT     H1 4612   0.808   2.522   1.758 -1.8608 -1.1242 -1.3123
 1467WAT     H2 4613   0.848   2.460   1.626 -0.6991  1.6214 -2.3380
 1468WAT      O 4614   2.427   3.280   0.599 -0.1603 -0.0289 -0.1846
 1468WAT     H1 4615   2.459   3.350   0.542 -1.1485  1.3101  0.8236
 1468WAT     H2 4616   2.427   3.202   0.544 -0.9065  1.1622 -1.9718
 1469WAT      O 4617   2.118   2.780   5.072  0.0730 -0.0097  0.0674
 1469WAT     H1 4618   2.052   2.813   5.012 -0.4484 -1.1959 -0.0283
 1469WAT     H2 4619   2.076   2.781   5.158 -0.5567 -1.9745 -0.1767
 1470WAT      O 4620   3.311   0.128   3.202  0.2465  0.3001 -0.2048
 1470WAT     H1 4621   3.324   0.073   3.280 -0.8747 -0.9810 -0.8860
 1470WAT     H2 4622   3.229   0.098   3.164  0.9002  0.7010 -2.0641
 1471WAT      O 4623   2.154   0.382   2.216  0.3310  0.0610  0.3157
 1471WAT     H1 4624   2.163   0.357   2.308 -1.2687  2.3680  1.1966
 1471WAT     H2 4625   2.082   0.328   2.183 -0.7888  0.9646  1.1912
 1472WAT      O 4626   1.443   2.755   0.406  0.1288  0.6576  0.6176
 1472WAT     H1 4627   1.433   2.674   0.356  0.7516  1.3285 -0.6616
 1472WAT     H2 4628   1.396   2.821   0.356  1.5273  1.5432  0.3882
 1473WAT      O 4629   4.405   0.769   0.277  0.3438  0.4988  0.2627
 1473WAT     H1 4630   4.331   0.730   0.231  1.0495 -1.3074  0.5471
 1473WAT     H2 4631   4.445   0.827   0.214 -0.3822  0.2593 -0.4336
 1474WAT      O 4632   0.409   3.817   3.879 -0.4904 -0.1142 -0.1385
 1474WAT     H1 4633   0.504   3.826   3.872 -0.1175 -1.9793  1.6101
 1474WAT     H2 4634   0.375   3.857   3.799  1.7499  0.5514 -0.8288
 1475WAT      O 4635   0.214   3.444   0.315  0.9552 -0.1051  0.1117
 1475WAT     H1 4636   0.177   3.401   0.238  0.5797 -0.8531  0.6986
 1475WAT     H2 4637   0.144   3.501   0.346  1.0557  0.0864 -0.0086
 1476WAT      O 4638   1.861   0.533   1.552 -0.2950 -0.9007  0.2893
 1476WAT     H1 4639   1.810   0.463   1.592 -1.5717 -0.2539 -0.1497
 1476WAT     H2 4640   1.816   0.551   1.469  1.2089 -0.9507 -0.5670
 1477WAT      O 4641   4.411   4.334   2.627 -0.4132 -1.0014  0.9799
 1477WAT     H1 4642   4.386   4.242   2.636 -1.8721 -0.8842 -1.1361
 1477WAT     H2 4643   4.498   4.331   2.585 -0.4996 -1.4260  0.8269
 1478WAT      O 4644   0.335   1.041   3.661 -0.0663  0.0793  0.1735
 1478WAT     H1 4645   0.259   1.092   3.630  0.3099  0.3816 -0.2749
 1478WAT     H2 4646   0.310   1.011   3.748 -0.3004  1.0492  0.4562
 1479WAT      O 4647   0.318   2.430   3.815  0.0611  0.4009 -0.2915
 1479WAT     H1 4648   0.328   2.395   3.904  0.4657  1.2691  0.0120
 1479WAT     H2 4649   0.253   2.372   3.774 -0.0455 -0.0772  0.5250
 1480WAT      O 4650   4.271   0.199   3.376 -0.8026  0.0642 -0.4751
 1480WAT     H1 4651   4.257   0.130   3.440  0.0684  1.2197  1.0150
 1480WAT     H2 4652   4.248   0.159   3.292 -0.6291 -1.9143  0.3779
 1481WAT      O 4653   3.105   2.694   1.980  0.1667  0.0734 -0.5097
 1481WAT     H1 4654   3.147   2.610   1.996 -0.5022 -0.1116  0.3327
 1481WAT     H2 4655   3.173   2.759   1.999  0.5859 -0.2559 -0.8554
 1482WAT      O 4656   3.485   4.910   4.246 -0.7251  0.0724  0.3248
 1482WAT     H1 4657   3.569   4.937   4.283 -0.6441 -0.4094  0.5006
 1482WAT     H2 4658   3.457   4.837   4.301 -0.9650 -0.1654 -0.1068
 1483WAT      O 4659   0.601   3.491   3.335  0.2203 -0.3825  0.3781
 1483WAT     H1 4660   0.587   3.562   3.398  2.1308 -0.5215  1.0216
 1483WAT     H2 4661   0.686   3.454   3.359  1.2029 -0.2330 -2.4661
 1484WAT      O 4662   3.395   1.814   0.580 -0.5587  0.1547 -0.4637
 1484WAT     H1 4663   3.396   1.720   0.563 -0.7844 -0.0662  0.6158
 1484WAT     H2 4664   3.443   1.824   0.663  0.5561  1.1438 -1.1997
 1485WAT      O 4665   4.278   4.495   0.882  0.3427 -0.2509 -0.0278
 1485WAT     H1 4666   4.272   4.569   0.942  0.6795 -2.0260  2.3539
 1485WAT     H2 4667   4.188   4.481   0.853  0.5609  2.5297 -2.6028
 1486WAT      O 4668   4.355   2.596   4.971 -0.9452  0.1266  0.2362
 1486WAT     H1 4669   4.320   2.617   5.058  1.2574  3.0418  0.5911
 1486WAT     H2 4670   4.314   2.659   4.913 -2.0068 -1.4699 -0.8109
 1487WAT      O 4671   1.062   3.639   1.335  0.0210  0.3646  0.3880
 1487WAT     H1 4672   1.033   3.598   1.417  1.8237  0.9991  1.3999
 1487WAT     H2 4673   1.031   3.730   1.343 -2.3279 -0.2344 -1.0034
 1488WAT      O 4674   2.892   1.718   4.589  0.3088  0.0229  0.2264
 1488WAT     H1 4675   2.971   1.723   4.642  2.3280  0.5763 -2.5908
 1488WAT     H2 4676   2.902   1.638   4.538 -0.4253  0.6238 -0.9164
 1489WAT      O 4677   0.068   3.605   1.932 -0.2494 -0.3129 -0.4713
 1489WAT     H1 4678  -0.001   3.588   1.868 -1.2531  1.9346 -0.0590
 1489WAT     H2 4679   0.141   3.638   1.879  0.3641 -2.1044 -0.8311
 1490WAT      O 4680   1.532   0.570   2.078  0.2123  0.3013 -0.5898
 1490WAT     H1 4681   1.556   0.659   2.105 -1.8392  0.8371 -0.3473
 1490WAT     H2 4682   1.532   0.573   1.982 -0.7583  0.8556 -0.5833
 1491WAT      O 4683   3.691   3.247   3.779  0.0483 -0.0468  0.0308
 1491WAT     H1 4684   3.679   3.238   3.684 -1.1244 -1.0225  0.2411
 1491WAT     H2 4685   3.615   3.297   3.808  0.5078  0.4283  0.4439
 1492WAT      O 4686   2.986   1.173   3.471 -0.1328 -0.5731 -0.2869
 1492WAT     H1 4687   2.958   1.234   3.402  0.7054  1.9269  1.4604
 1492WAT     H2 4688   3.076   1.196   3.489 -0.1343 -1.6017  1.2463
 1493WAT      O 4689   3.177   1.571   2.431  0.6880 -0.0434  0.1652
 1493WAT     H1 4690   3.268   1.584   2.456  0.8647 -1.5618  0.4154
 1493WAT     H2 4691   3.148   1.497   2.484 -0.2740 -0.4702 -0.9211
 1494WAT      O 4692   0.102   0.696   0.031  0.5084 -0.2416  0.1272
 1494WAT     H1 4693   0.113   0.637  -0.043  0.1921 -1.1453  0.7763
 1494WAT     H2 4694   0.164   0.767   0.015 -1.6197  1.1811 -2.5009
 1495WAT      O 4695   2.823   1.465   4.876 -0.1509 -0.2153 -0.1196
 1495WAT     H1 4696   2.798   1.453   4.968 -0.2131 -2.7614 -0.3845
 1495WAT     H2 4697   2.886   1.537   4.878 -0.8473  0.4240  1.7616
 1496WAT      O 4698   0.436   4.645   1.397  0.0378  1.0046  0.0229
 1496WAT     H1 4699   0.346   4.627   1.371  0.0673 -1.2680  1.2120
 1496WAT     H2 4700   0.488   4.619   1.322 -0.2003  0.1305  0.1455
 1497WAT      O 4701   4.496   2.034   3.679  0.1798 -0.6164 -0.1340
 1497WAT     H1 4702   4.537   1.949   3.693  0.1944 -0.8653 -1.5306
 1497WAT     H2 4703   4.465   2.031   3.589 -0.8470  0.4382  0.1590
 1498WAT      O 4704   4.234   0.932   0.455  0.0746  0.2907  0.4229
 1498WAT     H1 4705   4.218   0.839   0.439 -1.1120  0.0534  2.6359
 1498WAT     H2 4706   4.323   0.935   0.490 -0.4382 -0.2587  1.8550
 1499WAT      O 4707   2.408   0.814   5.124  0.5343 -0.0056  0.2990
 1499WAT     H1 4708   2.351   0.829   5.199 -0.4083 -0.1249 -0.3800
 1499WAT     H2 4709   2.355   0.763   5.063  0.2385  2.5178 -1.7084
 1500WAT      O 4710   3.844   0.100   1.632 -0.6286 -0.5559 -0.4117
 1500WAT     H1 4711   3.938   0.108   1.648 -1.2029  1.1340  3.1486
 1500WAT     H2 4712   3.830   0.147   1.550  1.4660  0.3071 -0.3570
 1501WAT      O 4713   2.173   3.877   0.875  0.3796  0.2148 -0.1912
 1501WAT     H1 4714   2.094   3.874   0.821  0.3584  2.3541 -0.3688
 1501WAT     H2 4715   2.143   3.853   0.963 -0.7599  2.0638 -0.0144
 1502WAT      O 4716   3.858   3.757   2.085 -0.6648  0.4701  0.3788
 1502WAT     H1 4717   3.772   3.741   2.124 -0.0706 -0.4357  1.3720
 1502WAT     H2 4718   3.852   3.716   1.998 -0.7282 -1.0944  1.0785
 1503WAT      O 4719   4.200   4.073   3.479  0.5681  0.4051 -0.5856
 1503WAT     H1 4720   4.211   3.980   3.463  0.1061  0.1415  0.5147
 1503WAT     H2 4721   4.155   4.106   3.401 -2.7727 -1.0448  0.5192
 1504WAT      O 4722   3.215   3.934   1.959 -0.2435  0.2498 -0.1325
 1504WAT     H1 4723   3.209   4.029   1.950 -0.8259  0.3481  1.0535
 1504WAT     H2 4724   3.273   3.920   2.034 -1.4201 -0.2612  0.7220
 1505WAT      O 4725   1.460   2.461   2.005 -0.4163 -0.5827  0.1610
 1505WAT     H1 4726   1.497   2.406   2.074 -0.7307 -2.1823 -0.8879
 1505WAT     H2 4727   1.525   2.529   1.991  0.0400 -0.7238  1.4365
 1506WAT      O 4728   2.068   3.216   4.658  0.0982  0.5449 -1.0225
 1506WAT     H1 4729   2.065   3.176   4.571 -2.7801  3.3001 -2.4242
 1506WAT     H2 4730   1.978   3.208   4.691  0.8634  0.5767  1.2288
 1507WAT      O 4731   3.158   3.131   1.213  0.3243  0.0109  0.3960
 1507WAT     H1 4732   3.223   3.073   1.175 -0.9897 -1.4413  0.2616
 1507WAT     H2 4733   3.104   3.158   1.138 -0.3341 -0.2902  0.7551
 1508WAT      O 4734   0.368   1.206   0.929 -0.2339 -0.2146  0.2101
 1508WAT     H1 4735   0.419   1.285   0.946  0.8247 -0.3899 -1.8148
 1508WAT     H2 4736   0.421   1.135   0.967 -0.3392 -0.1218  0.5310
 1509WAT      O 4737   3.411   2.903   2.497 -0.3571 -0.3050 -0.2345
 1509WAT     H1 4738   3.344   2.934   2.436 -0.3290 -0.5313 -0.3808
 1509WAT     H2 4739   3.461   2.981   2.521 -1.4096  0.0793  0.7961
 1510WAT      O 4740   1.952   1.342   2.208  0.5658  0.4567  0.1808
 1510WAT     H1 4741   1.863   1.325   2.238 -0.0330  2.2338 -0.4242
 1510WAT     H2 4742   1.980   1.419   2.258  0.7281  1.5341 -1.4660
 1511WAT      O 4743   4.170   5.057   0.167  0.2207 -0.0099  0.2367
 1511WAT     H1 4744   4.085   5.102   0.161  0.3669  0.2307 -0.0326
 1511WAT     H2 4745   4.148   4.971   0.202 -0.1520  0.0114  0.0620
 1512WAT      O 4746   1.060   1.791   3.809  0.1242  0.2005  0.7504
 1512WAT     H1 4747   0.987   1.756   3.758  0.5202  0.8627 -0.2872
 1512WAT     H2 4748   1.136   1.740   3.781  0.8101  2.1061 -1.1475
 1513WAT      O 4749   1.154   0.540   4.593 -0.6135 -1.0465  0.1551
 1513WAT     H1 4750   1.080   0.507   4.541 -0.8888 -1.2119  0.6389
 1513WAT     H2 4751   1.223   0.475   4.579 -0.0837 -0.1825 -1.3837
 1514WAT      O 4752   4.195   1.378   5.013  0.5886  0.0939 -0.2161
 1514WAT     H1 4753   4.161   1.300   5.057 -0.1388  0.9043  0.6931
 1514WAT     H2 4754   4.232   1.345   4.931  0.1013 -1.1708  0.0519
 1515WAT      O 4755   2.696   3.259   5.164 -0.5202 -0.0932 -0.1058
 1515WAT     H1 4756   2.646   3.337   5.140 -0.8234 -0.3458 -0.3078
 1515WAT     H2 4757   2.645   3.186   5.127 -0.7145 -0.4507  0.8317
 1516WAT      O 4758   0.235   3.709   4.049  0.2802  0.3483 -0.6105
 1516WAT     H1 4759   0.310   3.742   4.000  0.4969  1.8848  0.6673
 1516WAT     H2 4760   0.159   3.750   4.007  0.2740 -0.1451 -1.0767
 1517WAT      O 4761   0.148   1.344   4.844  0.3665  0.5307 -0.7934
 1517WAT     H1 4762   0.210   1.276   4.818 -0.5166 -0.5019 -0.2603
 1517WAT     H2 4763   0.139   1.334   4.939 -2.2424 -0.8063 -1.0951
 1518WAT      O 4764   1.440   2.913   4.135 -0.2328  0.4220 -0.4537
 1518WAT     H1 4765   1.419   2.942   4.224  2.1142 -0.2940  0.4221
 1518WAT     H2 4766   1.409   2.983   4.078 -0.5103  1.5703  1.0499
 1519WAT      O 4767   0.875   5.058   0.921  0.1149 -0.5179 -0.2747
 1519WAT     H1 4768   0.964   5.052   0.886  1.4257 -0.7635  2.8065
 1519WAT     H2 4769   0.869   4.988   0.985 -0.8418  1.8426  2.4466
 1520WAT      O 4770   3.033   1.921   5.132  0.0259 -0.6565 -0.1913
 1520WAT     H1 4771   2.994   1.978   5.066 -0.2789  0.2827  0.7629
 1520WAT     H2 4772   3.001   1.956   5.215  1.5077 -0.9363  0.5294
 1521WAT      O 4773   4.104   3.943   4.467  0.4089 -0.1533  0.3943
 1521WAT     H1 4774   4.084   3.852   4.444  0.8776 -0.1919  0.1395
 1521WAT     H2 4775   4.097   3.946   4.562  0.6258 -0.5088  0.4199
 1522WAT      O 4776   2.745   1.649   3.082 -0.8502 -0.3018  0.0720
 1522WAT     H1 4777   2.789   1.603   3.011 -1.5604 -3.3777  1.4761
 1522WAT     H2 4778   2.652   1.637   3.065 -1.0425 -0.3238  1.0503
 1523WAT      O 4779   2.359   1.279   2.929  0.1069 -0.0018 -0.0565
 1523WAT     H1 4780   2.373   1.191   2.895  0.6728  0.0475  0.0255
 1523WAT     H2 4781   2.270   1.279   2.963  0.0397 -0.4833 -0.2328
 1524WAT      O 4782   4.247   2.645   1.082  0.1964 -0.0613 -0.0904
 1524WAT     H1 4783   4.181   2.596   1.033  1.3207 -0.4100 -1.3218
 1524WAT     H2 4784   4.232   2.736   1.057  0.2041 -0.1423 -0.3986
 1525WAT      O 4785   3.433   3.452   0.891 -0.2584 -0.1066  0.5950
 1525WAT     H1 4786   3.498   3.440   0.961 -0.5580  1.1075  1.1185
 1525WAT     H2 4787   3.482   3.437   0.810  1.1035  2.1317  0.9014
 1526WAT      O 4788   3.264   2.335   3.754 -0.5604  0.0618  0.0043
 1526WAT     H1 4789   3.296   2.368   3.670  3.2507  0.3003  1.3750
 1526WAT     H2 4790   3.225   2.412   3.796  2.9676  1.6206  0.7679
 1527WAT      O 4791   3.146   2.550   3.861  0.0962 -0.2571 -0.1655
 1527WAT     H1 4792   3.199   2.608   3.916 -0.6755  0.4973 -0.2052
 1527WAT     H2 4793   3.084   2.509   3.922 -0.1731 -0.0950 -0.3291
 1528WAT      O 4794   1.798   3.960   3.454  0.1717  0.0928  0.1762
 1528WAT     H1 4795   1.829   4.020   3.521  1.2157  0.0104 -0.2094
 1528WAT     H2 4796   1.807   4.009   3.372 -2.7069  0.8359  0.1963
 1529WAT      O 4797   3.936   4.894   0.066  0.5180 -0.0502 -0.0472
 1529WAT     H1 4798   3.955   4.806   0.097  2.0133  0.2598 -0.0304
 1529WAT     H2 4799   3.986   4.902  -0.015  0.2578  0.7255 -0.1380
 1530WAT      O 4800   1.725   3.621   2.765 -0.6839 -0.1094  0.8002
 1530WAT     H1 4801   1.798   3.680   2.750 -0.4958 -0.2285  1.2411
 1530WAT     H2 4802   1.724   3.607   2.859 -1.3064 -0.0681  0.8038
 1531WAT      O 4803   1.534   2.356   4.848  0.2961  0.1984  0.2152
 1531WAT     H1 4804   1.607   2.295   4.861 -0.3549 -0.4110  1.1290
 1531WAT     H2 4805   1.467   2.303   4.804  0.4529  0.7962 -0.7586
 1532WAT      O 4806   1.954   4.603   0.362 -0.0770 -0.1840  0.2090
 1532WAT     H1 4807   1.965   4.509   0.346  1.1459 -0.0089 -0.1409
 1532WAT     H2 4808   2.033   4.627   0.412 -0.4888  0.6172  0.4901
 1533WAT      O 4809   4.071   3.535   2.299 -0.5136  1.0067  0.6893
 1533WAT     H1 4810   4.040   3.623   2.318  0.4844  1.8552 -1.3263
 1533WAT     H2 4811   4.002   3.496   2.245 -1.2347  0.2731  2.0702
 1534WAT      O 4812   1.540   1.116   2.580  0.5247  0.4438  0.0893
 1534WAT     H1 4813   1.602   1.087   2.514  0.5572 -0.3461  0.4537
 1534WAT     H2 4814   1.474   1.165   2.531  0.8545  0.3587 -0.4459
 1535WAT      O 4815   3.643   2.131   5.339  0.2322 -0.0926 -0.5011
 1535WAT     H1 4816   3.593   2.060   5.298  2.2232 -2.1288  0.4244
 1535WAT     H2 4817   3.684   2.176   5.265 -1.3538  0.4123 -1.1309
 1536WAT      O 4818   3.508   1.058   2.586  0.2485 -0.4103  0.1905
 1536WAT     H1 4819   3.563   1.023   2.517  2.0986  0.0522  1.3494
 1536WAT     H2 4820   3.503   0.987   2.651  0.8567  0.1039  0.8186
 1537WAT      O 4821   1.980   1.663   0.968  0.0364  0.2370 -0.7619
 1537WAT     H1 4822   1.911   1.729   0.970 -0.7972 -0.6047 -1.1353
 1537WAT     H2 4823   1.958   1.602   1.038 -0.4073 -0.7956 -1.7562
 1538WAT      O 4824   0.939   0.557   3.751 -0.1539  0.1318 -0.3370
 1538WAT     H1 4825   1.026   0.575   3.786 -0.2555  0.6673 -0.3485
 1538WAT     H2 4826   0.887   0.633   3.778 -0.0511  0.9634 -2.2679
 1539WAT      O 4827   2.852   1.956   2.522 -0.6206 -0.1356  0.3411
 1539WAT     H1 4828   2.778   1.925   2.469 -0.7609  0.4020  0.2189
 1539WAT     H2 4829   2.929   1.935   2.469 -0.8522  2.2097 -1.0503
 1540WAT      O 4830   3.624   4.950   2.985  0.2214 -0.2498  0.3691
 1540WAT     H1 4831   3.610   4.913   2.898 -0.0720  2.1171 -0.6856
 1540WAT     H2 4832   3.719   4.968   2.988  0.1714  0.0253  0.3626
 1541WAT      O 4833   4.055   1.800   0.375 -0.3692  0.6441 -0.3491
 1541WAT     H1 4834   3.994   1.813   0.448  0.9916  0.7904  0.7955
 1541WAT     H2 4835   4.001   1.812   0.297 -1.9077  0.2958  0.6141
 1542WAT      O 4836   2.104   5.092   0.165  0.1192  0.0732  0.1757
 1542WAT     H1 4837   2.188   5.122   0.130 -0.0096 -0.9461 -1.0540
 1542WAT     H2 4838   2.039   5.151   0.126  0.2691  1.1261  1.4508
 1543WAT      O 4839   3.602   0.059   0.051  0.2314 -0.3809  0.5470
 1543WAT     H1 4840   3.676   0.091  -0.002 -1.1416  1.8236 -0.1512
 1543WAT     H2 4841   3.525   0.101   0.012 -1.5256 -3.0816  0.8530
 1544WAT      O 4842   3.530   1.213   0.168  0.0029 -0.1210 -0.2331
 1544WAT     H1 4843   3.502   1.287   0.115  1.0470 -0.0002 -0.6209
 1544WAT     H2 4844   3.566   1.150   0.106  0.1201 -0.5006  0.2058
 1545WAT      O 4845   3.952   1.218   1.278  0.0077  0.3276  0.1079
 1545WAT     H1 4846   4.025   1.232   1.218 -0.5631 -0.1230 -0.7050
 1545WAT     H2 4847   3.993   1.182   1.357  0.6667  0.0406 -0.3543
 1546WAT      O 4848   2.992   0.293   2.706 -0.4738  0.3518 -0.4749
 1546WAT     H1 4849   3.003   0.271   2.798 -2.0173  0.6270 -0.2052
 1546WAT     H2 4850   2.944   0.219   2.669 -1.6133  1.1301 -0.5980
 1547WAT      O 4851   3.344   2.708   0.190  0.1183  0.2959  0.8587
 1547WAT     H1 4852   3.292   2.787   0.180  0.3374  0.2018 -2.2643
 1547WAT     H2 4853   3.417   2.719   0.128  1.0916 -1.6340  1.5481
 1548WAT      O 4854   3.259   2.479   2.060 -0.5700  0.2300  0.0006
 1548WAT     H1 4855   3.244   2.408   1.998 -2.4378  1.1718 -0.7073
 1548WAT     H2 4856   3.354   2.493   2.058 -0.5468  0.1162 -2.5464
 1549WAT      O 4857   0.653   4.459   2.875 -0.3608  0.0814 -0.6072
 1549WAT     H1 4858   0.586   4.495   2.816 -0.6036 -0.7026 -0.8235
 1549WAT     H2 4859   0.606   4.394   2.928  0.3665 -0.9750 -1.2269
 1550WAT      O 4860   3.803   2.946   1.792 -0.0032  0.4827  0.4379
 1550WAT     H1 4861   3.860   2.998   1.735 -0.6414  2.4422  1.4511
 1550WAT     H2 4862   3.782   3.006   1.864 -1.2602 -1.0437  1.4086
 1551WAT      O 4863   0.283   0.061   2.066 -0.4492  0.8949  0.4192
 1551WAT     H1 4864   0.210  -0.000   2.074 -1.5668  2.1024 -0.2017
 1551WAT     H2 4865   0.359   0.012   2.099 -1.4637 -0.4932  0.7880
 1552WAT      O 4866   1.124   0.441   1.615  0.6273  0.4031 -0.0118
 1552WAT     H1 4867   1.167   0.459   1.699 -1.2209  1.6875  0.7340
 1552WAT     H2 4868   1.185   0.475   1.549  1.8437 -0.0969  0.8247
 1553WAT      O 4869   2.984   3.808   4.913 -0.1455  0.5215 -0.5565
 1553WAT     H1 4870   3.013   3.896   4.935 -1.0725  0.5645  0.5900
 1553WAT     H2 4871   3.025   3.751   4.978 -1.1204  0.3700 -0.0472
 1554WAT      O 4872   3.404   1.554   3.771 -0.0044 -0.4847 -0.7312
 1554WAT     H1 4873   3.322   1.551   3.820 -0.7992 -1.6468 -2.0480
 1554WAT     H2 4874   3.416   1.647   3.750  0.6139  0.1303  1.9582
 1555WAT      O 4875   1.126   2.279   4.297  0.2336 -0.2058 -0.1962
 1555WAT     H1 4876   1.080   2.332   4.363 -2.0284 -1.4863 -0.6300
 1555WAT     H2 4877   1.210   2.257   4.338  0.2585  1.7350  0.9029
 1556WAT      O 4878   3.715   3.168   2.875 -0.8287  0.2568 -0.0547
 1556WAT     H1 4879   3.792   3.134   2.830 -1.2208  0.4815 -0.9176
 1556WAT     H2 4880   3.642   3.147   2.817 -1.6142 -1.2249  1.4081
 1557WAT      O 4881   0.781   0.326   4.509 -0.2661 -0.5572  0.0556
 1557WAT     H1 4882   0.758   0.418   4.524 -1.9532 -0.7483 -1.0422
 1557WAT     H2 4883   0.835   0.328   4.430  0.5702 -0.4377  0.6157
 1558WAT      O 4884   0.371   1.784   0.682 -0.3280 -0.2280  0.6162
 1558WAT     H1 4885   0.369   1.689   0.669 -0.2161 -0.1349 -0.1152
 1558WAT     H2 4886   0.386   1.820   0.595  1.5076  0.3984  1.1379
 1559WAT      O 4887   1.532   1.486   3.098 -0.0361  0.1763 -0.0730
 1559WAT     H1 4888   1.624   1.461   3.093  0.3178  1.1970  0.9553
 1559WAT     H2 4889   1.523   1.555   3.032 -0.2879 -0.5306 -0.7903
 1560WAT      O 4890   2.551   4.683   3.298  0.1717 -0.3247 -0.0598
 1560WAT     H1 4891   2.597   4.622   3.241  2.5095  2.4997 -1.4704
 1560WAT     H2 4892   2.461   4.683   3.266  0.8516 -0.7029 -2.1056
 1561WAT      O 4893   3.717   1.457   4.926 -0.1203 -0.2547 -0.3849
 1561WAT     H1 4894   3.808   1.438   4.903  0.6696  1.6688  0.9744
 1561WAT     H2 4895   3.692   1.527   4.866  0.3640  1.3874  1.2519
 1562WAT      O 4896   2.126   3.977   3.458  0.0389  0.1021  0.2619
 1562WAT     H1 4897   2.076   4.055   3.432  1.4058  0.5064 -1.3438
 1562WAT     H2 4898   2.134   3.984   3.553  0.0461  1.8896  0.1642
 1563WAT      O 4899   3.695   0.098   1.120 -0.5429 -0.7429  0.2642
 1563WAT     H1 4900   3.655   0.182   1.099 -0.9133 -0.4774  1.8716
 1563WAT     H2 4901   3.628   0.051   1.170 -0.8171 -2.5491 -1.6681
 1564WAT      O 4902   1.770   2.843   0.417  0.0372 -0.1990 -0.2217
 1564WAT     H1 4903   1.838   2.908   0.398  0.7269 -0.9476 -0.3960
 1564WAT     H2 4904   1.725   2.878   0.494  0.1849  0.6336 -0.4968
 1565WAT      O 4905   3.583   1.964   3.957  0.2785 -0.0629 -0.2550
 1565WAT     H1 4906   3.588   1.897   4.025 -1.3216 -1.2889 -1.2791
 1565WAT     H2 4907   3.575   1.915   3.876 -0.7316  1.3605 -1.0584
 1566WAT      O 4908   3.452   1.971   2.710  0.5313  0.4492 -0.9451
 1566WAT     H1 4909   3.480   1.989   2.620 -0.5696 -0.2098 -1.4395
 1566WAT     H2 4910   3.357   1.964   2.704  0.3232  1.5729  0.4905
 1567WAT      O 4911   4.083   0.732   4.863  0.2983 -0.0129 -0.1740
 1567WAT     H1 4912   4.120   0.691   4.941 -0.2241 -0.1569  0.0021
 1567WAT     H2 4913   4.002   0.684   4.846  0.1233  0.3797 -0.4783
 1568WAT      O 4914   2.115   1.037   1.025  0.0992 -0.2558 -0.1378
 1568WAT     H1 4915   2.209   1.040   1.005  0.4988 -0.7593  1.4871
 1568WAT     H2 4916   2.073   1.076   0.949  1.6054 -0.3371 -1.0502
 1569WAT      O 4917   1.280   1.659   2.111  0.4767 -0.2744  0.0164
 1569WAT     H1 4918   1.288   1.674   2.017  1.0773  0.3123  0.1530
 1569WAT     H2 4919   1.188   1.635   2.124  0.8470 -2.4360 -0.9753
 1570WAT      O 4920   2.088   3.354   0.379 -0.6866  0.6472  0.3458
 1570WAT     H1 4921   2.038   3.285   0.422 -0.2365 -0.0704 -0.2640
 1570WAT     H2 4922   2.022   3.405   0.332 -0.8660 -0.2759 -0.4293
 1571WAT      O 4923   0.738   0.536   1.435  0.3625  0.5599  0.1650
 1571WAT     H1 4924   0.757   0.480   1.360  0.2137  1.3260 -0.4515
 1571WAT     H2 4925   0.775   0.489   1.510  1.0900  0.0974 -0.4754
 1572WAT      O 4926   1.677   1.209   3.668  0.0395 -0.5339  0.0963
 1572WAT     H1 4927   1.598   1.157   3.651  0.2547 -0.4164 -1.3335
 1572WAT     H2 4928   1.681   1.271   3.595  1.1219 -0.1160  0.4948
 1573WAT      O 4929   0.812   1.974   1.181 -0.2544 -0.0392 -0.4802
 1573WAT     H1 4930   0.802   1.893   1.230 -0.4325  0.1893 -0.1340
 1573WAT     H2 4931   0.728   1.984   1.135  0.5220 -1.1527 -2.2280
 1574WAT      O 4932   2.866   4.953   2.505 -1.2442 -0.5860  0.1094
 1574WAT     H1 4933   2.873   4.858   2.507  1.2632 -0.5051 -1.2413
 1574WAT     H2 4934   2.931   4.983   2.570 -0.4521  0.1863 -1.0026
 1575WAT      O 4935   1.803   0.063   0.834 -0.0044 -0.1626 -0.3540
 1575WAT     H1 4936   1.746   0.116   0.778  1.9970  1.0080 -1.4353
 1575WAT     H2 4937   1.824   0.121   0.907  2.2232  0.6723 -1.5589
 1576WAT      O 4938   2.492   2.696   2.657 -0.6080  0.1895  0.2470
 1576WAT     H1 4939   2.433   2.668   2.727 -0.4270 -0.6512  0.0705
 1576WAT     H2 4940   2.435   2.707   2.581 -0.5301 -0.7878  0.0322
 1577WAT      O 4941   2.798   1.926   3.894  0.2747  0.2153  0.1362
 1577WAT     H1 4942   2.778   1.968   3.810  0.3336  0.0596  0.0439
 1577WAT     H2 4943   2.891   1.907   3.888  0.0886 -0.6360 -0.1383
 1578WAT      O 4944   1.092   3.399   2.297 -0.1403 -0.3959 -0.4098
 1578WAT     H1 4945   1.113   3.307   2.313 -0.1366 -0.2122  0.7160
 1578WAT     H2 4946   1.093   3.440   2.384  0.8818  0.8898 -0.9917
 1579WAT      O 4947   0.663   5.102   5.045 -0.1993 -0.2846 -0.0972
 1579WAT     H1 4948   0.583   5.090   5.097  0.9880 -0.7289  1.7228
 1579WAT     H2 4949   0.665   5.025   4.988 -0.6256 -0.7353  0.4709
 1580WAT      O 4950   1.440   0.078   3.933 -0.2694 -0.3835  0.2261
 1580WAT     H1 4951   1.496   0.141   3.887  1.0590 -0.9654  0.9712
 1580WAT     H2 4952   1.491  -0.003   3.933 -1.0016 -0.8606  1.1658
 1581WAT      O 4953   1.868   0.282   3.136  0.3220  0.6745 -0.5454
 1581WAT     H1 4954   1.852   0.275   3.230 -1.9796 -0.6329 -0.9529
 1581WAT     H2 4955   1.860   0.375   3.117  1.2065  1.0040  0.5908
 1582WAT      O 4956   3.253   0.769   3.572 -0.0513 -0.1131 -0.1418
 1582WAT     H1 4957   3.252   0.847   3.516  1.5992 -0.6041 -0.9187
 1582WAT     H2 4958   3.188   0.788   3.640 -1.9185  0.6179 -2.0394
 1583WAT      O 4959   3.794   2.901   2.173 -0.1150 -0.1087  0.0220
 1583WAT     H1 4960   3.857   2.934   2.109  1.8297 -1.4805  1.1139
 1583WAT     H2 4961   3.821   2.811   2.190 -2.4458 -0.7895  0.5284
 1584WAT      O 4962   1.211   1.107   4.560  0.0591  0.1541 -0.2552
 1584WAT     H1 4963   1.203   1.043   4.630 -0.2742  1.8014  1.2964
 1584WAT     H2 4964   1.250   1.059   4.487  3.1775 -1.0069  1.9660
 1585WAT      O 4965   3.916   3.404   0.604  0.4780  0.5600 -0.0478
 1585WAT     H1 4966   3.989   3.345   0.622 -0.7532 -0.4021  2.0996
 1585WAT     H2 4967   3.878   3.370   0.523 -1.0310 -2.5943  1.8145
 1586WAT      O 4968   2.178   2.294   2.191  0.1242 -0.1333  0.2305
 1586WAT     H1 4969   2.251   2.250   2.233 -1.6204 -2.5547  0.9297
 1586WAT     H2 4970   2.188   2.272   2.098  0.7571  0.3026  0.1889
 1587WAT      O 4971   3.757   2.899   3.054  0.1926  0.7360  0.0090
 1587WAT     H1 4972   3.687   2.877   3.115  1.6594 -2.7396  0.6909
 1587WAT     H2 4973   3.725   2.868   2.969  0.7374 -0.6139  0.2750
 1588WAT      O 4974   1.324   2.761   3.485 -0.1268 -0.8412 -0.0075
 1588WAT     H1 4975   1.349   2.725   3.570  2.4463 -0.7121 -0.6417
 1588WAT     H2 4976   1.367   2.846   3.481 -1.0303 -0.4018 -1.0699
 1589WAT      O 4977   0.188   1.933   2.098 -0.2911  0.1202  0.2897
 1589WAT     H1 4978   0.159   2.014   2.056  0.0678  0.4124  0.6020
 1589WAT     H2 4979   0.277   1.919   2.066 -0.7541 -0.7894 -0.6803
 1590WAT      O 4980   2.402   5.042   0.136  0.0572 -0.0041  0.1480
 1590WAT     H1 4981   2.477   5.006   0.185 -0.3149 -0.4607  0.3952
 1590WAT     H2 4982   2.394   4.985   0.060  0.2784  0.3569 -0.1434
 1591WAT      O 4983   2.948   1.219   2.989 -0.2685  0.4401 -0.5365
 1591WAT     H1 4984   2.897   1.227   3.069 -1.0810 -3.3506 -0.4658
 1591WAT     H2 4985   3.003   1.141   3.004 -0.8342 -0.7354 -3.7730
 1592WAT      O 4986   0.585   1.466   3.351  0.3735  0.3233  0.2469
 1592WAT     H1 4987   0.552   1.376   3.343 -0.5483  0.8224 -2.3154
 1592WAT     H2 4988   0.631   1.482   3.269 -0.2101  2.4801  0.2971
 1593WAT      O 4989   0.285   0.792   3.936 -0.0964 -1.1050 -0.1874
 1593WAT     H1 4990   0.214   0.848   3.905  0.8682  0.1532 -0.1922
 1593WAT     H2 4991   0.258   0.766   4.024  0.3440  1.0894  0.6552
 1594WAT      O 4992   2.769   0.207   1.847  0.3679  0.4232 -0.3817
 1594WAT     H1 4993   2.712   0.167   1.913  1.3098 -0.4641 -0.0825
 1594WAT     H2 4994   2.766   0.147   1.773  1.8801 -0.2952  0.1119
 1595WAT      O 4995   2.847   1.351   1.427  0.0689  0.4292  0.0437
 1595WAT     H1 4996   2.904   1.276   1.444 -1.0531 -0.3685  0.4257
 1595WAT     H2 4997   2.802   1.329   1.346 -2.3424 -0.6892  1.5657
 1596WAT      O 4998   0.643   4.685   4.246  0.4766  0.3440 -0.0049
 1596WAT     H1 4999   0.660   4.766   4.294 -1.5176  0.3172  0.8254
 1596WAT     H2 5000   0.553   4.694   4.214  0.2331 -1.5039  0.0602
 1597WAT      O 5001   3.739   0.586   3.132  0.3611  0.2048 -0.4192
 1597WAT     H1 5002   3.656   0.546   3.110  0.9914 -1.5699  0.2556
 1597WAT     H2 5003   3.791   0.580   3.052 -0.0720  1.1805 -0.7958
 1598WAT      O 5004   1.398   4.799   4.540 -0.2611 -0.4267  0.2685
 1598WAT     H1 5005   1.424   4.846   4.619  1.0171  0.1525 -0.4753
 1598WAT     H2 5006   1.406   4.706   4.564 -1.3804 -0.2917  1.2779
 1599WAT      O 5007   0.283   3.731   3.349  0.4696 -0.2549 -0.2065
 1599WAT     H1 5008   0.365   3.748   3.396  0.6155 -0.5058 -0.3733
 1599WAT     H2 5009   0.288   3.639   3.323  0.9581  0.1983 -1.8308
 1600WAT      O 5010   2.845   1.955   3.416 -0.8393  0.1985  0.1388
 1600WAT     H1 5011   2.765   1.981   3.370 -2.0457 -1.4087  1.1823
 1600WAT     H2 5012   2.841   1.859   3.418  2.1000 -0.0775 -1.3890
 1601WAT      O 5013   3.465   4.474   0.668  0.0752  0.3864  0.2065
 1601WAT     H1 5014   3.424   4.559   0.684 -0.1823  0.4651 -0.7841
 1601WAT     H2 5015   3.423   4.443   0.588  0.9286 -0.1971 -0.0224
 1602WAT      O 5016   0.634   0.143   1.480  0.0365 -0.3655  0.5277
 1602WAT     H1 5017   0.566   0.147   1.547 -0.0488  0.4672  0.4042
 1602WAT     H2 5018   0.711   0.182   1.522 -0.1919  0.7652 -0.0376
 1603WAT      O 5019   3.574   2.508   0.872 -0.1307  0.8793  0.3333
 1603WAT     H1 5020   3.491   2.476   0.836  0.5595  1.3383 -1.8182
 1603WAT     H2 5021   3.550   2.546   0.957 -2.0371  0.5598 -0.0161
 1604WAT      O 5022   2.152   1.578   4.107 -0.8533 -0.2195 -0.3778
 1604WAT     H1 5023   2.226   1.627   4.142 -1.4452  2.4127 -2.4522
 1604WAT     H2 5024   2.189   1.493   4.084  1.3554  0.7311 -0.6147
 1605WAT      O 5025   0.613   1.133   0.070 -0.2849  0.5767 -0.2227
 1605WAT     H1 5026   0.626   1.040   0.092 -0.1877 -0.3695 -3.6822
 1605WAT     H2 5027   0.532   1.157   0.114  0.7606 -0.4248  2.5068
 1606WAT      O 5028   2.311   1.357   4.430  0.1680  0.0821 -0.9069
 1606WAT     H1 5029   2.279   1.429   4.484 -0.4057 -0.5780 -0.3558
 1606WAT     H2 5030   2.236   1.332   4.377  0.2017 -0.4929 -0.6842
 1607WAT      O 5031   2.761   5.152   1.645 -0.5654  0.3395  0.7026
 1607WAT     H1 5032   2.679   5.139   1.598  0.1885  2.8519 -1.5675
 1607WAT     H2 5033   2.775   5.070   1.693 -3.4401 -0.8372 -0.2771
 1608WAT      O 5034   1.071   2.161   1.117 -0.0347  0.1827 -0.1437
 1608WAT     H1 5035   1.105   2.140   1.204 -1.3474  1.4647  0.7189
 1608WAT     H2 5036   0.977   2.148   1.124 -0.5003  2.7766 -0.5662
 1609WAT      O 5037   1.395   3.388   4.536 -0.7699  0.2707  0.1509
 1609WAT     H1 5038   1.431   3.303   4.510 -2.2660 -0.8068  1.4061
 1609WAT     H2 5039   1.405   3.443   4.458  2.4325 -0.2789  0.0592
 1610WAT      O 5040   3.359   1.987   1.336  0.3278  0.3831 -0.0179
 1610WAT     H1 5041   3.350   1.892   1.323  1.3504 -0.1197  2.3602
 1610WAT     H2 5042   3.435   2.011   1.284  1.5123 -0.6241  1.1485
 1611WAT      O 5043   4.116   3.005   3.697 -0.4744  0.0070  0.1198
 1611WAT     H1 5044   4.037   2.974   3.653 -0.2541  0.5259 -0.6803
 1611WAT     H2 5045   4.144   3.080   3.644  0.3652  0.0353  0.5897
 1612WAT      O 5046   2.613   2.877   2.908 -0.3405 -0.3678  0.4014
 1612WAT     H1 5047   2.522   2.902   2.924 -0.5432 -0.3760 -0.6623
 1612WAT     H2 5048   2.614   2.851   2.816  0.9311  0.5013  0.1513
 1613WAT      O 5049   2.317   0.744   2.400 -0.3357 -0.5966  0.2792
 1613WAT     H1 5050   2.298   0.755   2.493  0.8905  0.1948  0.4645
 1613WAT     H2 5051   2.364   0.661   2.394  1.2229  0.2373  0.6471
 1614WAT      O 5052   2.828   1.281   2.745 -0.2906  0.2366  0.3569
 1614WAT     H1 5053   2.879   1.245   2.818 -0.9630  1.5757  1.5420
 1614WAT     H2 5054   2.760   1.216   2.729 -1.4625  0.8242  2.4382
 1615WAT      O 5055   2.242   0.362   5.297 -0.2440  0.6815 -0.3892
 1615WAT     H1 5056   2.333   0.390   5.287  0.2975 -0.3790  1.2194
 1615WAT     H2 5057   2.204   0.375   5.211  1.1457  2.1291 -0.8355
 1616WAT      O 5058   0.661   3.154   0.518  0.1918  0.5984  0.3468
 1616WAT     H1 5059   0.638   3.215   0.448  1.8261 -0.8940 -1.6245
 1616WAT     H2 5060   0.694   3.076   0.472 -0.5271 -1.2506  2.7610
 1617WAT      O 5061   0.007   1.410   0.032 -0.0922 -0.4273 -0.2014
 1617WAT     H1 5062   0.011   1.479   0.098  0.6416 -1.7704  1.2284
 1617WAT     H2 5063   0.054   1.337   0.071 -1.1353 -1.8671 -1.5094
 1618WAT      O 5064   0.863   0.994   1.509 -0.1699 -0.5523 -0.2360
 1618WAT     H1 5065   0.825   0.908   1.489 -0.1261 -0.3981 -1.0132
 1618WAT     H2 5066   0.813   1.026   1.584 -0.3554 -1.1451 -0.1024
 1619WAT      O 5067   3.555   3.374   0.343 -0.2052  0.3446 -0.3775
 1619WAT     H1 5068   3.580   3.433   0.273 -0.2259  0.6262 -0.1474
 1619WAT     H2 5069   3.633   3.321   0.359 -0.0393  0.6226 -0.2674
 1620WAT      O 5070   0.146   0.874   4.812 -0.3643 -0.0576  0.4171
 1620WAT     H1 5071   0.071   0.814   4.817 -0.5118  0.0588 -0.2520
 1620WAT     H2 5072   0.119   0.950   4.864 -0.5471 -0.1865  0.5120
 1621WAT      O 5073   0.274   1.421   1.824 -0.0021 -0.3539  0.0912
 1621WAT     H1 5074   0.358   1.388   1.858  0.2345  0.6396  0.5012
 1621WAT     H2 5075   0.285   1.516   1.822 -1.6434 -0.0737  1.6170
 1622WAT      O 5076   1.910   2.225   5.236  0.5414  0.6087 -1.0530
 1622WAT     H1 5077   1.935   2.142   5.196 -0.2012 -0.0597 -0.1767
 1622WAT     H2 5078   1.827   2.248   5.193  0.8018  0.9602 -1.3725
 1623WAT      O 5079   0.826   4.551   0.610 -0.3299 -0.0119  0.2877
 1623WAT     H1 5080   0.874   4.471   0.631  1.4735  0.7871 -0.5473
 1623WAT     H2 5081   0.843   4.609   0.684  0.3543  0.4060 -0.1828
 1624WAT      O 5082   2.938   0.903   4.925 -0.2319  0.4058 -0.1223
 1624WAT     H1 5083   3.001   0.844   4.966  0.5774  0.0296 -1.7981
 1624WAT     H2 5084   2.856   0.855   4.926  0.1916 -0.3521 -0.5402
 1625WAT      O 5085   3.087   0.468   3.640  0.6007  0.5140  0.1512
 1625WAT     H1 5086   3.006   0.457   3.690  0.6720 -0.0115  0.1545
 1625WAT     H2 5087   3.106   0.381   3.605  1.9721  0.2868  1.3937
 1626WAT      O 5088   1.715   1.373   4.418 -0.4135 -0.2440 -0.3243
 1626WAT     H1 5089   1.644   1.310   4.408 -1.0095 -0.0694  2.0180
 1626WAT     H2 5090   1.780   1.327   4.472 -0.5446  0.8412  0.8279
 1627WAT      O 5091   4.510   0.678   5.070 -0.0537  0.2213 -0.2799
 1627WAT     H1 5092   4.415   0.674   5.068 -0.0642  0.5970 -1.0752
 1627WAT     H2 5093   4.539   0.600   5.023  0.0850 -0.9626  1.6774
 1628WAT      O 5094   1.335   0.603   1.839 -0.3163 -0.3731 -0.8600
 1628WAT     H1 5095   1.421   0.645   1.843 -0.6719  0.2949  1.8622
 1628WAT     H2 5096   1.280   0.664   1.791  0.5611 -0.5470 -2.1284
 1629WAT      O 5097   0.587   2.248   2.919 -0.1612 -0.4833 -0.4956
 1629WAT     H1 5098   0.603   2.292   3.003  1.0468 -2.4710  0.3723
 1629WAT     H2 5099   0.548   2.316   2.864  2.4610  1.9669  0.4361
 1630WAT      O 5100   1.400   2.396   4.126  0.1971 -0.3472  0.0010
 1630WAT     H1 5101   1.475   2.340   4.105  2.0196  0.9276  2.6401
 1630WAT     H2 5102   1.425   2.442   4.206 -2.8115  1.3258  0.1430
 1631WAT      O 5103   1.493   1.070   0.967  0.3460 -0.4030  0.5951
 1631WAT     H1 5104   1.558   1.060   0.896  0.2469  0.7140  0.3175
 1631WAT     H2 5105   1.543   1.107   1.040 -0.2254  2.1216 -0.1746
 1632WAT      O 5106   4.072   2.563   1.870  0.3653  0.3360  0.2400
 1632WAT     H1 5107   4.111   2.649   1.858  2.5665 -0.8019 -1.5021
 1632WAT     H2 5108   4.147   2.504   1.881 -0.9754 -1.5931 -0.4223
 1633WAT      O 5109   0.613   1.093   1.312  0.0186 -0.4229  0.5100
 1633WAT     H1 5110   0.654   1.007   1.300  1.0014  0.2587 -1.4142
 1633WAT     H2 5111   0.686   1.155   1.308 -0.8924  0.6297 -0.1782
 1634WAT      O 5112   1.637   4.924   1.776  0.1480  0.1289  0.8544
 1634WAT     H1 5113   1.672   4.914   1.865  2.1538  0.9414  0.2099
 1634WAT     H2 5114   1.714   4.943   1.722 -1.0418 -0.1937 -1.0465
 1635WAT      O 5115   4.284   4.125   2.063 -0.5233 -0.6599  0.2206
 1635WAT     H1 5116   4.296   4.135   2.158 -0.5529 -0.3027  0.1884
 1635WAT     H2 5117   4.200   4.080   2.054 -1.1069  0.3887  0.3296
 1636WAT      O 5118   1.128   1.270   3.757  0.0091 -0.1835 -0.5065
 1636WAT     H1 5119   1.083   1.227   3.829 -0.4864 -0.8372 -1.1951
 1636WAT     H2 5120   1.219   1.278   3.787  0.1283 -1.7362 -0.3574
 1637WAT      O 5121   4.543   1.739   2.761  0.1354 -0.1006  0.6346
 1637WAT     H1 5122   4.539   1.644   2.773 -1.5309  0.2131  3.7062
 1637WAT     H2 5123   4.451   1.767   2.761  0.5616  1.4560 -1.1951
 1638WAT      O 5124   0.654   3.975   3.833 -0.0397 -0.4329  0.0595
 1638WAT     H1 5125   0.734   3.950   3.879 -0.5313 -1.1509  0.5349
 1638WAT     H2 5126   0.639   4.066   3.860 -0.0843 -0.7064  0.9965
 1639WAT      O 5127   2.280   3.890   5.055  0.3837 -0.1359 -0.5382
 1639WAT     H1 5128   2.216   3.878   4.985 -0.4237  1.2341 -0.0635
 1639WAT     H2 5129   2.237   3.857   5.133 -0.1999  1.7861 -0.0156
 1640WAT      O 5130   0.668   3.303   1.064  0.3589  0.4151  0.2609
 1640WAT     H1 5131   0.612   3.280   0.989  0.5328  0.6106  0.0695
 1640WAT     H2 5132   0.752   3.260   1.044  0.8697  1.6610 -0.3786
 1641WAT      O 5133   2.248   0.269   4.934 -0.3052  0.5402  0.1109
 1641WAT     H1 5134   2.266   0.246   4.842 -2.5001 -0.0816 -0.2305
 1641WAT     H2 5135   2.317   0.223   4.983  0.3604  0.1066 -1.1605
 1642WAT      O 5136   0.572   3.396   3.079  0.1382  0.7220 -0.0552
 1642WAT     H1 5137   0.555   3.304   3.101 -0.3100  0.6433 -0.7173
 1642WAT     H2 5138   0.596   3.436   3.163  0.0947  0.0592  0.2835
 1643WAT      O 5139   3.385   1.970   1.642 -0.1278 -0.0692 -0.4523
 1643WAT     H1 5140   3.374   2.010   1.555 -0.0762 -1.5998 -1.2043
 1643WAT     H2 5141   3.350   1.881   1.632 -2.3637  0.4480  1.7839
 1644WAT      O 5142   2.902   3.144   3.814 -0.5606 -0.5086  0.0566
 1644WAT     H1 5143   2.813   3.143   3.779 -0.5507 -0.3234  0.0255
 1644WAT     H2 5144   2.915   3.055   3.848 -1.0517 -0.3037  0.8039
 1645WAT      O 5145   1.872   3.450   5.010 -0.6040  0.2011  0.1241
 1645WAT     H1 5146   1.862   3.493   4.926 -1.1885  2.3548  1.2151
 1645WAT     H2 5147   1.788   3.463   5.054 -0.1265 -0.3860  1.2656
 1646WAT      O 5148   0.122   3.334   1.234 -0.0048  0.0440  0.5662
 1646WAT     H1 5149   0.165   3.266   1.181 -1.9445 -0.3737 -0.5832
 1646WAT     H2 5150   0.148   3.314   1.323  0.7668 -1.2562  0.0835
 1647WAT      O 5151   0.805   1.096   0.825 -0.1196 -0.3042  0.6638
 1647WAT     H1 5152   0.779   1.137   0.743 -0.7836  2.2744  2.0732
 1647WAT     H2 5153   0.897   1.120   0.836 -0.3901  0.5052  1.2770
 1648WAT      O 5154   4.436   3.390   0.347 -0.2793  0.9274 -0.1027
 1648WAT     H1 5155   4.362   3.445   0.375 -2.4354 -2.3476  1.3177
 1648WAT     H2 5156   4.495   3.390   0.422  0.1727  1.8822 -0.4353
 1649WAT      O 5157   2.041   2.004   1.789 -0.2630  0.4406 -0.5421
 1649WAT     H1 5158   2.045   1.938   1.719 -0.9657  1.1666 -1.2951
 1649WAT     H2 5159   1.988   1.963   1.858 -1.4900  0.5401 -1.3910
 1650WAT      O 5160   2.282   0.067   1.637 -0.1494 -0.4235 -0.1380
 1650WAT     H1 5161   2.368   0.024   1.635 -0.1242 -0.4425  0.8554
 1650WAT     H2 5162   2.262   0.076   1.730 -0.0645  1.8921 -0.2883
 1651WAT      O 5163   2.411   0.271   3.375 -0.2312 -0.0939  0.0460
 1651WAT     H1 5164   2.322   0.239   3.394 -0.1187  0.1081  0.9780
 1651WAT     H2 5165   2.460   0.251   3.454  0.0274  1.7065  0.3797
 1652WAT      O 5166   0.281   0.376   0.992 -0.0024 -0.3168 -0.1183
 1652WAT     H1 5167   0.297   0.290   1.032  0.2790 -0.1339  0.1687
 1652WAT     H2 5168   0.300   0.438   1.062 -0.7876 -0.0414 -0.1435
 1653WAT      O 5169   3.362   1.714   1.584 -0.2558  0.2227  0.3456
 1653WAT     H1 5170   3.323   1.669   1.659  1.8693  0.7578  1.8663
 1653WAT     H2 5171   3.403   1.645   1.533 -1.2870 -0.0862 -0.0906
 1654WAT      O 5172   2.337   4.357   5.210 -0.5470 -0.4253 -0.4347
 1654WAT     H1 5173   2.312   4.359   5.302 -0.3561  1.0123 -0.3878
 1654WAT     H2 5174   2.396   4.282   5.202 -0.4792 -0.4924  0.6326
 1655WAT      O 5175   0.982   3.414   4.975 -0.5941 -0.3935 -0.2191
 1655WAT     H1 5176   0.930   3.357   4.918  0.4765 -0.4403 -1.1880
 1655WAT     H2 5177   0.932   3.497   4.976  0.7080  0.6301 -3.6506
 1656WAT      O 5178   1.869   1.731   2.611  0.0766 -0.0383 -0.2273
 1656WAT     H1 5179   1.927   1.779   2.553  1.4755 -0.1778  1.0009
 1656WAT     H2 5180   1.926   1.697   2.680 -1.5110  0.0906  1.2224
 1657WAT      O 5181   0.693   4.048   1.527  0.4698 -0.2777  0.0570
 1657WAT     H1 5182   0.770   4.092   1.491  1.0789 -2.0555 -0.9639
 1657WAT     H2 5183   0.718   3.956   1.530 -1.2806 -0.7684  0.6419
 1658WAT      O 5184   3.419   1.311   0.422  0.0502  0.6535 -0.6722
 1658WAT     H1 5185   3.341   1.255   0.420  0.0461  0.6816 -1.5499
 1658WAT     H2 5186   3.470   1.284   0.346  0.3578  1.3965 -0.7399
 1659WAT      O 5187   4.381   0.831   3.166 -0.0259 -0.5004 -0.0925
 1659WAT     H1 5188   4.297   0.850   3.208  0.0874 -1.0371  0.4027
 1659WAT     H2 5189   4.441   0.814   3.239 -0.1587 -2.8349 -0.4366
 1660WAT      O 5190   3.429   4.896   1.619  0.2330  0.2726  0.2696
 1660WAT     H1 5191   3.416   4.976   1.568  1.4192 -1.2084 -2.6391
 1660WAT     H2 5192   3.518   4.904   1.655  0.8637 -0.1816 -1.0934
 1661WAT      O 5193   0.064   1.239   3.956  0.2571  0.1720 -0.1774
 1661WAT     H1 5194  -0.025   1.209   3.975  0.6930 -0.1259  1.5904
 1661WAT     H2 5195   0.054   1.295   3.879 -1.0547 -1.8560 -1.5930
 1662WAT      O 5196   1.559   4.381   4.751 -0.6937 -0.2697 -0.1471
 1662WAT     H1 5197   1.529   4.471   4.764  1.7184  0.5008  0.6272
 1662WAT     H2 5198   1.508   4.329   4.813 -1.6531  0.6581 -0.1346
 1663WAT      O 5199   3.990   3.398   0.277  0.4994 -0.1398  0.2324
 1663WAT     H1 5200   4.027   3.310   0.284 -1.0750 -0.7180  2.2006
 1663WAT     H2 5201   4.038   3.438   0.204  1.8563 -2.3055 -0.1681
 1664WAT      O 5202   4.167   4.887   3.288 -1.1329 -0.5463  0.2172
 1664WAT     H1 5203   4.167   4.965   3.343  0.6750  0.8048 -1.5275
 1664WAT     H2 5204   4.088   4.895   3.235  0.4124  1.7867 -1.9924
 1665WAT      O 5205   1.511   4.384   1.242  0.2425 -0.1014  0.3311
 1665WAT     H1 5206   1.517   4.452   1.309 -1.7399  0.4308  0.0434
 1665WAT     H2 5207   1.597   4.383   1.201  1.2179  0.2067  2.2444
 1666WAT      O 5208   1.655   0.646   2.660  0.0743  0.6964  0.3553
 1666WAT     H1 5209   1.678   0.711   2.727  1.4657  1.1186 -0.4920
 1666WAT     H2 5210   1.682   0.686   2.577  2.0218 -1.3766 -0.1053
 1667WAT      O 5211   0.598   3.381   1.778 -0.8648 -0.1836  0.2146
 1667WAT     H1 5212   0.606   3.317   1.848  1.2156  0.0081  0.2040
 1667WAT     H2 5213   0.505   3.406   1.779 -0.8738 -0.0693  2.9820
 1668WAT      O 5214   2.796   4.529   0.865  0.6216  0.1391  0.3258
 1668WAT     H1 5215   2.846   4.536   0.947 -0.2087 -0.4685  0.8975
 1668WAT     H2 5216   2.861   4.498   0.801  1.2843  0.6339  0.7402
 1669WAT      O 5217   4.317   3.163   2.595  0.0197 -0.5479 -0.3247
 1669WAT     H1 5218   4.288   3.210   2.517 -0.7822 -0.7772 -0.1640
 1669WAT     H2 5219   4.280   3.076   2.586 -1.6665 -0.0458  1.2106
 1670WAT      O 5220   4.070   3.016   2.896  0.4397  0.7623 -0.0715
 1670WAT     H1 5221   4.050   3.044   2.985  1.5821  1.1981  0.0550
 1670WAT     H2 5222   4.132   2.944   2.907  0.5223  0.7639 -0.5231
 1671WAT      O 5223   1.364   5.013   1.745  0.7655  0.1554  0.3445
 1671WAT     H1 5224   1.321   4.934   1.713  0.5443  0.9770 -1.5432
 1671WAT     H2 5225   1.456   4.990   1.751  0.4639 -0.8214  1.8196
 1672WAT      O 5226   3.124   0.124   4.541  0.2421 -0.2499  0.2255
 1672WAT     H1 5227   3.090   0.109   4.629  1.3758 -0.8296  0.5905
 1672WAT     H2 5228   3.115   0.218   4.527 -0.2608 -0.2067  0.8160
 1673WAT      O 5229   4.541   4.555   0.809  0.2379 -0.1064  0.0890
 1673WAT     H1 5230   4.578   4.468   0.794 -0.4081 -0.1720 -1.2130
 1673WAT     H2 5231   4.448   4.540   0.823 -0.0122  0.4389 -0.9192
 1674WAT      O 5232   1.594   4.118   3.828  0.2700 -0.6567 -0.5898
 1674WAT     H1 5233   1.575   4.211   3.820 -0.1873 -0.7137 -0.1747
 1674WAT     H2 5234   1.510   4.077   3.847  0.8925 -0.8068  2.2442
 1675WAT      O 5235   0.494   1.253   1.956  0.4305 -0.2433 -0.4864
 1675WAT     H1 5236   0.430   1.208   1.902  0.5391  0.4963 -1.2564
 1675WAT     H2 5237   0.559   1.186   1.977  1.2483 -0.2070 -2.6243
 1676WAT      O 5238   0.330   1.513   0.703 -0.1565 -0.3227  0.1699
 1676WAT     H1 5239   0.303   1.506   0.795  1.9369 -0.0173  0.8622
 1676WAT     H2 5240   0.269   1.456   0.656 -2.3727  0.8406  1.4590
 1677WAT      O 5241   0.281   3.557   2.498  0.0704 -0.3660  0.3683
 1677WAT     H1 5242   0.192   3.544   2.531  0.0890  0.8694  0.9668
 1677WAT     H2 5243   0.269   3.592   2.410 -0.1096  1.8115  1.2111
 1678WAT      O 5244   0.471   2.947   1.437 -0.0168  0.5939 -0.0133
 1678WAT     H1 5245   0.422   2.952   1.519  1.7741  1.7187  1.0585
 1678WAT     H2 5246   0.548   2.894   1.458  1.7095  2.8590 -0.2057
 1679WAT      O 5247   2.600   3.075   0.718  0.4173 -0.2261  0.4889
 1679WAT     H1 5248   2.642   3.045   0.638 -1.0875 -0.1719 -0.3561
 1679WAT     H2 5249   2.520   3.119   0.689 -0.9609 -1.5195  2.0680
 1680WAT      O 5250   2.243   2.407   5.138  0.5581 -0.4188 -0.1796
 1680WAT     H1 5251   2.330   2.421   5.101  0.1932 -0.9430 -1.2534
 1680WAT     H2 5252   2.186   2.465   5.087  0.2678 -0.0735  0.5227
 1681WAT      O 5253   3.943   2.994   0.486  0.0090  0.2204 -0.2971
 1681WAT     H1 5254   4.026   3.031   0.518  0.6780  0.3069 -2.0192
 1681WAT     H2 5255   3.885   2.996   0.562  0.8184  2.4585  0.3332
 1682WAT      O 5256   1.223   0.946   3.823  0.1789  0.1678 -0.0880
 1682WAT     H1 5257   1.129   0.952   3.806 -0.1722  1.7945  2.0714
 1682WAT     H2 5258   1.230   0.916   3.913  1.7219  0.3052 -0.1261
 1683WAT      O 5259   4.132   4.515   1.416 -0.1054 -0.3382  0.0477
 1683WAT     H1 5260   4.184   4.453   1.466  1.9211  0.2984 -1.1331
 1683WAT     H2 5261   4.138   4.597   1.465  1.5229  0.1759 -0.9410
 1684WAT      O 5262   3.206   2.263   2.642  0.3101 -0.3869 -0.7394
 1684WAT     H1 5263   3.136   2.252   2.706 -0.3703  1.8641 -1.0170
 1684WAT     H2 5264   3.160   2.271   2.558  0.7991  1.7975 -0.8425
 1685WAT      O 5265   1.678   4.548   2.174  0.8770 -0.0662  0.0240
 1685WAT     H1 5266   1.594   4.511   2.145  0.0437  2.2963 -0.8582
 1685WAT     H2 5267   1.690   4.514   2.262 -1.4134  0.1012  0.4724
 1686WAT      O 5268   4.246   3.887   3.795  0.0762 -0.8725  0.0455
 1686WAT     H1 5269   4.320   3.932   3.754  0.8946 -1.5062  0.8002
 1686WAT     H2 5270   4.286   3.820   3.850 -1.1046 -1.9442 -0.3700
 1687WAT      O 5271   0.648   0.732   2.160 -0.4474 -0.0649 -0.0395
 1687WAT     H1 5272   0.739   0.736   2.130 -0.0759  1.1705  1.1196
 1687WAT     H2 5273   0.654   0.738   2.256 -1.6519 -2.4545  0.2609
 1688WAT      O 5274   0.239   0.101   4.434 -0.0034 -0.3449  0.8184
 1688WAT     H1 5275   0.322   0.123   4.475 -0.1451  0.5040  0.6776
 1688WAT     H2 5276   0.174   0.113   4.504 -0.1700  0.4829  0.5439
 1689WAT      O 5277   0.742   0.311   0.073 -0.0537 -0.5534  0.4077
 1689WAT     H1 5278   0.754   0.242   0.008 -0.4181 -0.7487  0.5437
 1689WAT     H2 5279   0.647   0.325   0.076 -0.0382 -0.5221  0.8667
 1690WAT      O 5280   2.751   3.918   4.817  0.1718  0.3359 -0.4503
 1690WAT     H1 5281   2.831   3.873   4.842  0.3648  0.7687 -0.2878
 1690WAT     H2 5282   2.692   3.848   4.788  0.4711 -0.0164 -0.2063
 1691WAT      O 5283   0.867   0.901   3.269 -0.0506  0.5574  0.9839
 1691WAT     H1 5284   0.917   0.983   3.276  1.3020 -0.3365  2.4636
 1691WAT     H2 5285   0.932   0.834   3.249 -1.1487 -0.1882 -0.2530
 1692WAT      O 5286   3.460   4.874   2.541  0.1206  0.7373 -0.1678
 1692WAT     H1 5287   3.553   4.867   2.521  0.0278  0.4665 -0.5272
 1692WAT     H2 5288   3.455   4.871   2.636  0.5550  1.7335 -0.1000
 1693WAT      O 5289   3.931   4.062   4.106  0.2774  0.0192 -0.1320
 1693WAT     H1 5290   4.007   4.120   4.108  0.9350 -0.7646 -1.1028
 1693WAT     H2 5291   3.958   3.986   4.158 -0.1564  0.0780  0.1883
 1694WAT      O 5292   2.355   2.579   4.054 -0.3295  0.3227  0.1202
 1694WAT     H1 5293   2.364   2.634   3.976 -1.2350  1.3481  0.7163
 1694WAT     H2 5294   2.266   2.545   4.050 -0.6791  1.0538  1.1021
 1695WAT      O 5295   3.761   1.945   3.310 -0.4651 -0.8247 -0.5121
 1695WAT     H1 5296   3.734   1.875   3.250  1.5689 -1.2948 -0.9868
 1695WAT     H2 5297   3.852   1.963   3.285  0.1406 -0.3545  1.8206
 1696WAT      O 5298   1.136   2.857   4.013 -0.1298 -0.4311  0.4258
 1696WAT     H1 5299   1.143   2.835   3.920 -2.7801  2.4651 -0.6493
 1696WAT     H2 5300   1.200   2.927   4.027  0.8799 -1.4554  1.0581
 1697WAT      O 5301   4.192   0.697   2.516 -0.1994  0.4602 -0.3909
 1697WAT     H1 5302   4.207   0.603   2.503 -0.5258  0.1283  1.4294
 1697WAT     H2 5303   4.103   0.711   2.484 -1.3529 -0.5308  2.0855
 1698WAT      O 5304   2.843   2.449   5.275 -0.0561  0.0538  0.2207
 1698WAT     H1 5305   2.910   2.392   5.236  0.4267  0.4125  0.5109
 1698WAT     H2 5306   2.760   2.411   5.246  0.1729 -1.9359  1.9217
 1699WAT      O 5307   4.192   4.757   0.557  0.0769 -0.5148  0.2243
 1699WAT     H1 5308   4.209   4.804   0.638 -0.3345 -0.4494  0.2747
 1699WAT     H2 5309   4.271   4.705   0.543 -0.0042 -0.8273  0.8745
 1700WAT      O 5310   3.376   3.333   1.309  0.1889  0.0823  0.2564
 1700WAT     H1 5311   3.301   3.274   1.301  1.0846 -1.0433 -0.1557
 1700WAT     H2 5312   3.389   3.342   1.404  0.1241 -0.5104  0.3284
 1701WAT      O 5313   0.688   2.765   3.642  0.0625  0.5490  0.2401
 1701WAT     H1 5314   0.611   2.709   3.635  0.9699 -0.9248  1.3614
 1701WAT     H2 5315   0.655   2.847   3.678 -1.0106 -0.0241  0.6065
 1702WAT      O 5316   1.614   3.225   4.310 -0.5133 -0.1856  0.1169
 1702WAT     H1 5317   1.649   3.269   4.388 -0.8988  0.2254  0.0665
 1702WAT     H2 5318   1.665   3.145   4.303  0.5200  0.4672 -0.0479
 1703WAT      O 5319   4.395   3.392   0.681 -0.3494 -0.8120 -0.5460
 1703WAT     H1 5320   4.355   3.479   0.678 -0.2389 -0.7901 -1.9816
 1703WAT     H2 5321   4.466   3.401   0.744 -0.4957  0.0714 -0.4840
 1704WAT      O 5322   2.568   1.358   3.124  0.8670  0.1199  0.5964
 1704WAT     H1 5323   2.530   1.353   3.036  0.9399  0.0455  0.5691
 1704WAT     H2 5324   2.510   1.304   3.178  1.3548 -0.6027  0.4066
 1705WAT      O 5325   0.800   4.894   3.499  0.3987  0.7432 -0.3169
 1705WAT     H1 5326   0.724   4.951   3.497 -0.8647 -0.8816 -0.2192
 1705WAT     H2 5327   0.773   4.819   3.553  1.8016 -0.2249 -0.8989
 1706WAT      O 5328   1.070   1.112   0.789  0.5173 -0.6144  0.1905
 1706WAT     H1 5329   1.111   1.198   0.800 -1.6325  0.8216 -1.8955
 1706WAT     H2 5330   1.117   1.073   0.715 -1.1393  0.6968 -1.6809
 1707WAT      O 5331   4.058   0.842   1.826  0.0432 -0.1693 -0.0761
 1707WAT     H1 5332   4.067   0.837   1.921 -1.5662 -2.2278  0.0324
 1707WAT     H2 5333   4.147   0.862   1.795  0.8191 -0.5041  1.7798
 1708WAT      O 5334   4.166   3.763   0.217 -0.3515 -0.0243 -0.7851
 1708WAT     H1 5335   4.161   3.801   0.129 -0.8452  1.7300 -0.0568
 1708WAT     H2 5336   4.083   3.787   0.258  0.7244  1.1383  0.8547
 1709WAT      O 5337   1.962   4.588   2.064  0.3755  0.4451  0.3503
 1709WAT     H1 5338   1.908   4.583   2.143  0.9151  0.8104  0.7456
 1709WAT     H2 5339   1.937   4.671   2.024  0.6546  0.6235  0.5436
 1710WAT      O 5340   2.790   4.478   3.509 -0.0165 -0.4077  0.4131
 1710WAT     H1 5341   2.825   4.538   3.442 -1.7514  1.9092  1.4283
 1710WAT     H2 5342   2.719   4.432   3.465  0.0902 -0.3108  0.1359
 1711WAT      O 5343   3.264   1.650   2.891 -0.3697  0.4224 -0.8675
 1711WAT     H1 5344   3.234   1.574   2.842  0.3265  0.1039 -0.8057
 1711WAT     H2 5345   3.243   1.629   2.982  1.4519 -0.5096 -0.6260
 1712WAT      O 5346   2.263   0.527   4.076  0.9048 -0.5260  0.0677
 1712WAT     H1 5347   2.355   0.549   4.092  0.8246  0.8501 -1.1372
 1712WAT     H2 5348   2.266   0.466   4.002  0.8770 -0.9865  0.4440
 1713WAT      O 5349   0.721   4.271   4.796 -0.5440  0.0828  0.0573
 1713WAT     H1 5350   0.680   4.351   4.765  0.3261  0.6846  0.4285
 1713WAT     H2 5351   0.653   4.229   4.850 -1.4746 -0.1330 -1.2330
 1714WAT      O 5352   3.973   1.618   3.987 -0.5268  0.0353 -0.1602
 1714WAT     H1 5353   3.877   1.612   3.993 -0.5363  0.8773  0.8427
 1714WAT     H2 5354   3.989   1.708   3.960 -0.0075 -0.0265 -0.0555
 1715WAT      O 5355   2.303   1.670   3.876 -0.3888  0.0815 -0.0707
 1715WAT     H1 5356   2.322   1.754   3.919 -1.3984  0.9749 -1.2616
 1715WAT     H2 5357   2.228   1.635   3.924 -0.2478  0.0790  0.1488
 1716WAT      O 5358   3.663   0.969   2.366 -0.3280  0.2058  0.3319
 1716WAT     H1 5359   3.732   1.019   2.322 -0.4845 -1.6147 -2.2142
 1716WAT     H2 5360   3.587   0.978   2.308 -0.1583 -3.3957 -0.6641
 1717WAT      O 5361   4.140   1.252   2.439 -0.0609  0.0332 -0.8245
 1717WAT     H1 5362   4.193   1.172   2.429 -2.5670 -1.7923 -0.5069
 1717WAT     H2 5363   4.058   1.221   2.478  0.2708  3.3470  3.1404
 1718WAT      O 5364   0.567   2.745   2.571 -0.3841  0.3949  0.5302
 1718WAT     H1 5365   0.549   2.689   2.496 -1.7395 -0.6199  1.5622
 1718WAT     H2 5366   0.615   2.819   2.534  1.5403 -1.4246 -0.8665
 1719WAT      O 5367   0.483   0.462   1.369  0.6354 -0.0886 -0.4947
 1719WAT     H1 5368   0.513   0.378   1.334  1.0948  0.3363 -1.1552
 1719WAT     H2 5369   0.562   0.501   1.406  0.1730 -0.5009  1.0023
 1720WAT      O 5370   3.910   3.198   3.464  0.5539 -0.0223  0.7008
 1720WAT     H1 5371   3.822   3.210   3.500  0.0517 -0.9859 -0.1491
 1720WAT     H2 5372   3.906   3.239   3.378  0.8463 -0.3539  0.5292
 1721WAT      O 5373   0.319   0.776   5.045  0.0318 -0.4899 -0.7456
 1721WAT     H1 5374   0.227   0.802   5.049  0.0159 -0.5938 -0.4700
 1721WAT     H2 5375   0.356   0.831   4.976 -0.2141 -0.3806 -0.7911
 1722WAT      O 5376   1.934   1.832   3.489 -0.0968  0.0075  0.2596
 1722WAT     H1 5377   1.845   1.865   3.497  0.4732  2.3582 -1.8831
 1722WAT     H2 5378   1.982   1.877   3.558  0.0604  1.3271 -0.6924
 1723WAT      O 5379   0.645   2.809   0.192 -0.1947 -0.4088 -0.1823
 1723WAT     H1 5380   0.699   2.764   0.127  1.8589  0.2863  0.9202
 1723WAT     H2 5381   0.657   2.902   0.172 -0.9796 -0.2374  0.1066
 1724WAT      O 5382   2.188   4.708   2.253  0.3983 -0.0276  0.4858
 1724WAT     H1 5383   2.265   4.667   2.214  1.3435  0.7326  1.5048
 1724WAT     H2 5384   2.114   4.659   2.216  1.1805  0.7217 -2.3756
 1725WAT      O 5385   1.856   0.788   5.080  0.1308  0.2993 -0.5812
 1725WAT     H1 5386   1.908   0.825   5.008 -0.4459  0.5569 -0.8693
 1725WAT     H2 5387   1.800   0.860   5.109  0.5971  0.3040  0.3646
 1726WAT      O 5388   3.606   1.008   4.455  0.1944  0.0445  0.1836
 1726WAT     H1 5389   3.556   1.037   4.532 -0.3823  1.1143 -0.5620
 1726WAT     H2 5390   3.593   1.078   4.391  0.7931 -0.7562 -0.8364
 1727WAT      O 5391   2.100   2.516   2.883  0.0734 -0.0346  0.4850
 1727WAT     H1 5392   2.059   2.477   2.960  0.6573 -0.7434  0.4526
 1727WAT     H2 5393   2.071   2.461   2.810 -1.0361  1.0466  0.0875
 1728WAT      O 5394   0.871   3.201   1.538  0.1217  0.5575 -0.2182
 1728WAT     H1 5395   0.949   3.201   1.483 -1.2495  1.3715 -2.2784
 1728WAT     H2 5396   0.826   3.119   1.516 -0.5533  1.0000 -0.5153
 1729WAT      O 5397   1.521   5.082   2.484  0.3988 -0.0585  0.2435
 1729WAT     H1 5398   1.529   5.063   2.577  1.3626  0.5952  0.3076
 1729WAT     H2 5399   1.551   5.002   2.441  1.5588  0.2114  0.5082
 1730WAT      O 5400   0.545   3.676   2.986  0.2767 -0.1015  0.5192
 1730WAT     H1 5401   0.554   3.585   3.014 -1.1153 -0.2672  0.4696
 1730WAT     H2 5402   0.634   3.711   2.991  0.7643 -1.3435  0.9298
 1731WAT      O 5403   4.131   3.451   2.675  0.3195  0.4279 -0.3058
 1731WAT     H1 5404   4.072   3.376   2.674  0.5362  0.2466 -1.4217
 1731WAT     H2 5405   4.218   3.412   2.688  0.2044  0.7167  1.6290
 1732WAT      O 5406   3.301   2.934   1.584 -0.0523  0.0073  0.3839
 1732WAT     H1 5407   3.234   3.001   1.597 -0.5798 -0.1142 -1.4210
 1732WAT     H2 5408   3.384   2.983   1.584 -0.5305  1.0106 -2.6292
 1733WAT      O 5409   1.590   4.771   4.003 -0.8733  0.2018 -0.3540
 1733WAT     H1 5410   1.650   4.846   4.000 -0.9921  0.3155  0.0711
 1733WAT     H2 5411   1.573   4.758   4.096  1.1069 -1.9336 -0.2070
 1734WAT      O 5412   2.993   2.083   2.739  0.3331 -0.6976 -0.1233
 1734WAT     H1 5413   3.049   2.009   2.764 -1.7552 -2.2962  0.0499
 1734WAT     H2 5414   2.946   2.052   2.662 -1.4029  0.0124  0.6155
 1735WAT      O 5415   1.460   3.546   4.301  0.0917 -0.3116 -0.5856
 1735WAT     H1 5416   1.452   3.624   4.246  0.3471  0.5385  0.5472
 1735WAT     H2 5417   1.541   3.505   4.272  1.5297  1.4398  0.7089
 1736WAT      O 5418   2.485   0.176   5.035 -0.0852 -0.4697 -0.0389
 1736WAT     H1 5419   2.535   0.126   5.099 -1.0460 -2.7537 -0.9765
 1736WAT     H2 5420   2.542   0.249   5.011  1.4184 -1.1586  1.3179
 1737WAT      O 5421   2.175   3.360   0.680 -0.2171 -0.0834 -0.9769
 1737WAT     H1 5422   2.102   3.308   0.648 -0.4001 -0.4768  0.0329
 1737WAT     H2 5423   2.253   3.314   0.648 -0.3868  0.5380 -2.3624
 1738WAT      O 5424   1.494   1.718   2.819 -0.5648  0.1279 -0.2141
 1738WAT     H1 5425   1.414   1.665   2.819  0.6525 -1.8346 -1.1169
 1738WAT     H2 5426   1.552   1.673   2.757  2.4094 -0.3788  2.6734
 1739WAT      O 5427   3.756   0.010   3.827 -0.1410 -0.4443 -0.2259
 1739WAT     H1 5428   3.769   0.098   3.864 -0.8309 -0.3214 -0.2720
 1739WAT     H2 5429   3.831  -0.040   3.860 -0.2626 -0.0990  0.6157
 1740WAT      O 5430   4.383   4.357   3.910  0.6006 -0.5157  0.5084
 1740WAT     H1 5431   4.351   4.446   3.891 -1.6125 -1.2111  0.7053
 1740WAT     H2 5432   4.425   4.329   3.828 -0.9803 -0.2055 -0.4533
 1741WAT      O 5433   0.751   2.901   1.430 -0.4030  0.4762 -0.2894
 1741WAT     H1 5434   0.795   2.905   1.346 -0.0368 -0.3780 -0.1478
 1741WAT     H2 5435   0.749   2.808   1.452  0.6395  0.7657  1.2267
 1742WAT      O 5436   1.574   1.471   0.384  0.4423  0.1544  0.3900
 1742WAT     H1 5437   1.552   1.382   0.413  0.9839 -0.1292 -0.0532
 1742WAT     H2 5438   1.669   1.471   0.380  0.4213 -0.5666 -3.5843
 1743WAT      O 5439   3.535   3.156   1.913 -0.4346 -0.0500 -0.1812
 1743WAT     H1 5440   3.552   3.098   1.987 -1.8487 -1.3263 -0.7994
 1743WAT     H2 5441   3.474   3.221   1.948 -0.7826 -0.4084 -0.1192
 1744WAT      O 5442   2.992   2.303   1.768  0.1172  0.1690 -0.6246
 1744WAT     H1 5443   2.997   2.346   1.683 -0.6414 -1.2573 -1.4214
 1744WAT     H2 5444   2.920   2.241   1.760 -2.3858  2.4430  2.2254
 1745WAT      O 5445   3.010   0.668   3.927 -0.3815 -0.0087  0.0696
 1745WAT     H1 5446   3.068   0.734   3.888  1.2458 -1.5103 -0.1987
 1745WAT     H2 5447   2.975   0.619   3.852 -2.1576  0.9726  0.2261
 1746WAT      O 5448   1.647   4.152   1.820 -0.0169  0.4296  0.0915
 1746WAT     H1 5449   1.577   4.156   1.754  0.1803 -0.4854 -0.1802
 1746WAT     H2 5450   1.605   4.182   1.901 -0.7943 -0.3424 -0.0142
 1747WAT      O 5451   0.429   0.289   4.053  0.1992  0.4312  0.0891
 1747WAT     H1 5452   0.420   0.352   4.125  2.0750 -0.3057  1.0264
 1747WAT     H2 5453   0.359   0.313   3.992 -1.3700  1.1685  2.0618
 1748WAT      O 5454   0.625   2.145   2.053  0.0095 -0.1934 -0.0943
 1748WAT     H1 5455   0.602   2.235   2.077 -3.4095 -1.0478  0.3829
 1748WAT     H2 5456   0.630   2.099   2.136  1.7067 -0.5243 -0.3406
 1749WAT      O 5457   2.646   4.607   2.316  0.8500  0.4803  0.4802
 1749WAT     H1 5458   2.638   4.687   2.264  1.6297  0.6822  0.6664
 1749WAT     H2 5459   2.560   4.596   2.356  0.2850  0.4180 -0.7127
 1750WAT      O 5460   0.583   3.287   0.772 -0.7244  0.5349 -0.3612
 1750WAT     H1 5461   0.499   3.329   0.757 -1.7667 -1.6694 -1.1360
 1750WAT     H2 5462   0.612   3.258   0.686  0.1737  0.1055  0.0660
 1751WAT      O 5463   2.999   1.706   4.901  0.2243  0.2404 -0.0324
 1751WAT     H1 5464   2.990   1.738   4.991  0.4256  0.8111 -0.2090
 1751WAT     H2 5465   3.087   1.667   4.898  0.0883 -0.0820  0.1059
 1752WAT      O 5466   2.692   0.049   0.588  0.2775  0.1467  0.1003
 1752WAT     H1 5467   2.629   0.078   0.522  0.4078 -2.5665 -1.3710
 1752WAT     H2 5468   2.640   0.034   0.667 -0.3326  1.0065 -0.1282
 1753WAT      O 5469   0.591   4.311   2.109  0.1110  0.4805  0.1651
 1753WAT     H1 5470   0.643   4.327   2.030  1.1425 -2.2248  0.1947
 1753WAT     H2 5471   0.512   4.268   2.077  0.0732  0.2858  0.5179
 1754WAT      O 5472   2.007   3.805   4.553  0.2492  0.3588 -0.0939
 1754WAT     H1 5473   2.032   3.817   4.462  1.0460 -0.0243  0.0657
 1754WAT     H2 5474   1.914   3.781   4.550  0.5254 -0.6751 -0.8755
 1755WAT      O 5475   3.481   3.683   1.183 -0.0655  0.1328 -0.5646
 1755WAT     H1 5476   3.400   3.646   1.149 -0.7190  1.4876 -0.5616
 1755WAT     H2 5477   3.481   3.773   1.150  1.7356 -0.0163 -1.0502
 1756WAT      O 5478   1.674   3.643   3.900  0.2808 -0.1279  0.4432
 1756WAT     H1 5479   1.670   3.590   3.979 -0.9010  1.3917  1.4468
 1756WAT     H2 5480   1.585   3.674   3.887  0.4571 -0.2728 -1.4686
 1757WAT      O 5481   2.845   4.371   4.962  0.2857 -0.2163  0.6381
 1757WAT     H1 5482   2.766   4.422   4.945 -0.0672 -0.8084  0.4966
 1757WAT     H2 5483   2.828   4.285   4.923  0.7060 -0.5840  1.2424
 1758WAT      O 5484   2.147   1.066   3.434 -0.2919 -0.6511  0.7905
 1758WAT     H1 5485   2.170   1.109   3.517  1.6416  0.7659 -0.3805
 1758WAT     H2 5486   2.177   1.127   3.367 -1.2845 -2.0182 -0.9749
 1759WAT      O 5487   3.569   2.741   4.622  0.0615  0.0078  0.2723
 1759WAT     H1 5488   3.628   2.755   4.548  0.0750  0.1344  0.3080
 1759WAT     H2 5489   3.481   2.745   4.585  0.0842 -1.2531  0.0154
 1760WAT      O 5490   4.498   0.046   3.800  0.6248  0.3634  0.0995
 1760WAT     H1 5491   4.424  -0.005   3.833  0.5183  0.2205 -0.3502
 1760WAT     H2 5492   4.512   0.012   3.712  2.1360 -0.6162  0.6818
 1761WAT      O 5493   2.109   0.418   1.323 -0.0698  0.2584 -0.0073
 1761WAT     H1 5494   2.068   0.342   1.363 -0.8028  0.3019 -0.6495
 1761WAT     H2 5495   2.153   0.463   1.396  0.2963 -0.7104  0.3907
 1762WAT      O 5496   2.372   3.587   3.347 -0.1274 -0.2240 -0.2717
 1762WAT     H1 5497   2.393   3.681   3.342  1.2384 -0.4543  0.6841
 1762WAT     H2 5498   2.277   3.585   3.359 -0.5982  0.9318 -2.9475
 1763WAT      O 5499   0.745   1.695   3.141 -0.3184 -0.3368  0.4152
 1763WAT     H1 5500   0.667   1.651   3.107 -0.6740 -0.4505  1.3490
 1763WAT     H2 5501   0.802   1.624   3.170 -0.2481 -0.2340  0.5311
 1764WAT      O 5502   1.637   1.132   2.326  0.2817 -0.2311  0.0246
 1764WAT     H1 5503   1.621   1.118   2.233 -1.1316 -1.2114  0.3758
 1764WAT     H2 5504   1.670   1.048   2.357 -0.7768 -0.4270  0.6855
 1765WAT      O 5505   1.434   1.708   3.519 -0.2854  0.5242  0.0495
 1765WAT     H1 5506   1.378   1.751   3.455 -1.7538  0.8834  1.5155
 1765WAT     H2 5507   1.455   1.623   3.479 -1.6992  0.4683 -0.6278
 1766WAT      O 5508   0.015   2.425  -0.012 -0.2359  0.3668 -0.4154
 1766WAT     H1 5509   0.105   2.419   0.021 -0.4824  0.5340  0.3192
 1766WAT     H2 5510  -0.027   2.345   0.019 -0.4572  0.5009 -0.3641
 1767WAT      O 5511   3.781   0.954   4.037 -0.1425 -0.1394  0.1105
 1767WAT     H1 5512   3.723   1.013   3.990  1.0217  0.4752 -0.6087
 1767WAT     H2 5513   3.736   0.936   4.120 -0.6809  1.4998  0.2052
 1768WAT      O 5514   0.009  -0.003   2.600  0.0771  0.0972 -0.1931
 1768WAT     H1 5515  -0.007   0.058   2.528 -2.5859  0.0191  0.2522
 1768WAT     H2 5516   0.040   0.052   2.672 -1.0607  0.7598 -0.1977
 1769WAT      O 5517   0.034   1.169   2.923 -0.4028  0.0202  0.2871
 1769WAT     H1 5518   0.123   1.197   2.948 -0.9080  2.4537 -0.3931
 1769WAT     H2 5519   0.027   1.191   2.830 -1.4601 -0.9238  0.1239
 1770WAT      O 5520   4.322   3.002   3.301  0.7723 -0.4383 -0.0439
 1770WAT     H1 5521   4.323   2.915   3.262  0.5191 -0.3659 -0.2117
 1770WAT     H2 5522   4.232   3.014   3.332  0.5085  0.2073 -1.0186
 1771WAT      O 5523   1.159   0.950   2.242  0.6695  0.1211 -0.4593
 1771WAT     H1 5524   1.244   0.926   2.280 -0.1336 -1.3779  0.4977
 1771WAT     H2 5525   1.148   0.890   2.168  1.0200  1.2483 -1.4786
 1772WAT      O 5526   3.584   0.263   3.407 -0.0647  0.1902 -0.5794
 1772WAT     H1 5527   3.551   0.253   3.318  0.8812 -0.0398 -0.9255
 1772WAT     H2 5528   3.506   0.273   3.461 -0.7064 -0.7514 -1.2928
 1773WAT      O 5529   2.679   1.522   2.811  0.0143 -0.0707 -0.2949
 1773WAT     H1 5530   2.717   1.434   2.805  0.2394  0.0858 -1.4850
 1773WAT     H2 5531   2.754   1.581   2.819 -0.0109  0.1467 -1.4662
 1774WAT      O 5532   1.182   0.914   5.010 -0.0036 -0.4864 -0.1392
 1774WAT     H1 5533   1.190   1.006   5.033 -0.1652 -1.1347  2.9919
 1774WAT     H2 5534   1.106   0.910   4.952 -0.4444  1.2430  0.2670
 1775WAT      O 5535   0.581   0.108   1.905  0.1601  0.3086 -0.0690
 1775WAT     H1 5536   0.586   0.156   1.988  0.6788  0.9448 -0.4672
 1775WAT     H2 5537   0.671   0.081   1.887  0.4156  1.9462 -1.4556
 1776WAT      O 5538   0.598   1.621   3.554  0.3812 -0.3283  0.0009
 1776WAT     H1 5539   0.592   1.703   3.504  0.3946  0.6121  1.4686
 1776WAT     H2 5540   0.606   1.553   3.487  0.6116  0.8814 -1.2635
 1777WAT      O 5541   2.893   0.186   1.456  0.0073  0.9963  0.1751
 1777WAT     H1 5542   2.868   0.122   1.522  1.9691 -0.3922 -0.3223
 1777WAT     H2 5543   2.870   0.145   1.373 -2.4734  2.7438 -0.0898
 1778WAT      O 5544   4.215   3.705   1.763 -0.3261 -0.2803 -0.0531
 1778WAT     H1 5545   4.310   3.710   1.762 -0.2333  0.8742  3.3306
 1778WAT     H2 5546   4.196   3.616   1.795 -0.2520  0.4609  2.1547
 1779WAT      O 5547   3.410   0.163   4.643 -0.0451  0.2342  0.1154
 1779WAT     H1 5548   3.323   0.130   4.620  0.2394 -0.3950 -0.1096
 1779WAT     H2 5549   3.466   0.085   4.639  0.0810  0.1065  2.7975
 1780WAT      O 5550   3.734   3.546   1.215  0.3885 -0.1902 -0.1565
 1780WAT     H1 5551   3.652   3.595   1.221 -0.0456 -0.9721  0.4951
 1780WAT     H2 5552   3.773   3.553   1.302 -0.0916 -1.6838  0.2053
 1781WAT      O 5553   2.766   4.862   0.990 -0.0558  0.4393  0.1673
 1781WAT     H1 5554   2.790   4.796   0.925 -1.1144  1.8004 -1.7055
 1781WAT     H2 5555   2.782   4.820   1.075  1.9025 -1.2103 -0.9455
 1782WAT      O 5556   1.067   1.450   3.544 -0.3960 -0.2031  0.3832
 1782WAT     H1 5557   1.087   1.382   3.609  1.0452  0.4017  0.6247
 1782WAT     H2 5558   1.001   1.411   3.487  0.5825 -1.9084  0.3593
 1783WAT      O 5559   1.549   1.860   4.210 -0.7363  0.1459 -0.3552
 1783WAT     H1 5560   1.638   1.881   4.236 -0.5051 -0.4047 -0.6956
 1783WAT     H2 5561   1.536   1.909   4.129 -0.8311  0.4154 -0.1801
 1784WAT      O 5562   3.793   4.849   3.441  0.1238 -0.1860  0.4512
 1784WAT     H1 5563   3.876   4.897   3.446  0.1870  0.1531 -2.2906
 1784WAT     H2 5564   3.726   4.918   3.440 -0.1550 -0.4199  1.7475
 1785WAT      O 5565   0.270   4.374   4.830 -0.1860  0.8005  0.1029
 1785WAT     H1 5566   0.254   4.393   4.738  1.2820  2.6301  0.1645
 1785WAT     H2 5567   0.210   4.431   4.878 -0.4022  0.4177  0.2973
 1786WAT      O 5568   3.181   4.664   0.882  0.1971  0.5018  0.3477
 1786WAT     H1 5569   3.269   4.650   0.917  0.2702 -0.1072 -0.0713
 1786WAT     H2 5570   3.195   4.710   0.800  0.1740 -0.1930 -0.0550
 1787WAT      O 5571   3.209   0.504   2.809 -0.5293  0.5005 -0.3431
 1787WAT     H1 5572   3.282   0.449   2.782  0.4653  0.6329  1.8466
 1787WAT     H2 5573   3.251   0.579   2.852 -1.9263  0.3001  1.4618
 1788WAT      O 5574   0.562   2.701   4.894  0.8650  0.3273 -0.1599
 1788WAT     H1 5575   0.468   2.705   4.876  0.6082 -1.7008  0.4605
 1788WAT     H2 5576   0.602   2.679   4.810  0.6794  0.3536 -0.2555
 1789WAT      O 5577   1.293   2.634   2.957 -1.1095  0.4161 -0.1732
 1789WAT     H1 5578   1.271   2.681   3.038 -0.7018 -1.2096  0.9318
 1789WAT     H2 5579   1.385   2.655   2.941 -1.3311  1.1531 -0.5287
 1790WAT      O 5580   3.502   2.450   0.138  0.7183  0.1276  0.5360
 1790WAT     H1 5581   3.593   2.441   0.111  0.2347 -0.2838 -1.1147
 1790WAT     H2 5582   3.472   2.529   0.093 -0.4398 -1.2159 -1.2546
 1791WAT      O 5583   1.497   2.114   3.139 -0.0037  0.4321  0.0429
 1791WAT     H1 5584   1.498   2.068   3.055  1.7103 -0.6033  0.5807
 1791WAT     H2 5585   1.588   2.139   3.154 -0.1043 -0.2071  1.9996
 1792WAT      O 5586   4.136   0.966   2.589  0.1776  0.0005 -0.2800
 1792WAT     H1 5587   4.148   0.871   2.580 -1.8159 -0.3651  0.4193
 1792WAT     H2 5588   4.186   0.988   2.668  1.1407 -0.3535 -0.7775
 1793WAT      O 5589   1.682   3.872   4.748 -0.4743  0.2431 -0.0570
 1793WAT     H1 5590   1.742   3.852   4.676 -1.0922  0.3039 -0.5961
 1793WAT     H2 5591   1.627   3.943   4.715 -1.5569 -0.5382  0.0293
 1794WAT      O 5592   1.745   2.755   0.040 -0.4473  0.3562 -0.2241
 1794WAT     H1 5593   1.822   2.812   0.029 -0.9932  1.4600  1.3062
 1794WAT     H2 5594   1.671   2.811   0.019 -0.9677  0.1204  0.8957
 1795WAT      O 5595   1.745   2.891   4.631 -0.1258 -0.4900 -0.0909
 1795WAT     H1 5596   1.656   2.890   4.596 -0.1351 -0.0452 -0.0916
 1795WAT     H2 5597   1.739   2.844   4.714 -0.3550 -0.4944 -0.1100
 1796WAT      O 5598   0.127   4.898   3.735 -0.6265 -0.4088 -0.3808
 1796WAT     H1 5599   0.045   4.915   3.688 -0.9357  1.0800  0.6198
 1796WAT     H2 5600   0.109   4.820   3.788 -0.6088 -1.4802 -1.8788
 1797WAT      O 5601   1.647   1.158   5.274  0.5939  0.0016  0.8133
 1797WAT     H1 5602   1.641   1.078   5.221  0.5817 -0.5963  1.6991
 1797WAT     H2 5603   1.718   1.208   5.233 -0.2768  0.1782 -0.5696
 1798WAT      O 5604   0.802   2.204   3.883 -0.1013 -0.4046 -0.4557
 1798WAT     H1 5605   0.886   2.218   3.839 -0.7923 -0.0381 -1.6895
 1798WAT     H2 5606   0.757   2.288   3.877  0.0128 -0.1592  1.5157
 1799WAT      O 5607   0.520   0.836   2.450 -0.1024 -0.0426  0.3159
 1799WAT     H1 5608   0.445   0.786   2.416  0.2876 -0.7867  0.5359
 1799WAT     H2 5609   0.483   0.921   2.474 -0.9725 -0.5404  0.8015
 1800WAT      O 5610   2.953   3.278   2.577  0.0159  0.2776  0.8991
 1800WAT     H1 5611   2.903   3.246   2.652  3.2060 -3.1278  1.8226
 1800WAT     H2 5612   3.037   3.305   2.613  1.5149 -1.1085 -1.3444
 1801WAT      O 5613   2.693   0.728   5.190  0.8864  0.6481  0.2666
 1801WAT     H1 5614   2.726   0.640   5.173  0.0562  0.6095 -1.3881
 1801WAT     H2 5615   2.598   0.721   5.174  0.7111  1.6825  0.7804
 1802WAT      O 5616   2.364   0.941   0.307  0.4579 -0.3494 -0.4266
 1802WAT     H1 5617   2.406   1.013   0.258  3.0111  0.1050  2.1706
 1802WAT     H2 5618   2.365   0.867   0.246 -1.5844  1.4840 -2.9265
 1803WAT      O 5619   0.888   1.703   2.290 -0.1559 -0.7076  0.4900
 1803WAT     H1 5620   0.820   1.726   2.353  1.0371  1.5998  1.0175
 1803WAT     H2 5621   0.968   1.744   2.324  0.9753 -1.1912 -1.4205
 1804WAT      O 5622   1.234   2.992   2.810  0.1989 -0.6985  0.3262
 1804WAT     H1 5623   1.291   2.980   2.886 -0.5342 -0.6238  0.9000
 1804WAT     H2 5624   1.176   3.064   2.834  0.2875 -0.3363 -0.5103
 1805WAT      O 5625   0.872   5.143   3.342 -0.1576 -0.6340 -0.4429
 1805WAT     H1 5626   0.790   5.098   3.365 -0.3431  0.0019  0.1883
 1805WAT     H2 5627   0.939   5.075   3.349 -0.6173 -1.1368 -0.8645
 1806WAT      O 5628   2.088   1.049   2.652  0.1073 -0.4684  0.0206
 1806WAT     H1 5629   2.106   1.042   2.746  0.4425  0.3807  0.0346
 1806WAT     H2 5630   2.174   1.065   2.613 -0.0216 -0.8831 -0.4417
 1807WAT      O 5631   0.364   0.138   1.090 -0.2700  0.1128 -0.4569
 1807WAT     H1 5632   0.349   0.080   1.165  0.0521  1.0684  0.3668
 1807WAT     H2 5633   0.344   0.084   1.014 -0.0221 -1.0717  0.2901
 1808WAT      O 5634   2.128   3.763   1.119 -0.6193  0.1935  0.0362
 1808WAT     H1 5635   2.213   3.720   1.107 -0.8154 -0.1059 -0.2811
 1808WAT     H2 5636   2.095   3.728   1.201 -0.9525 -0.5650 -0.4094
 1809WAT      O 5637   0.372   3.052   4.866 -0.2393 -0.8081  0.0214
 1809WAT     H1 5638   0.305   2.993   4.831 -1.0107 -0.3846  0.7320
 1809WAT     H2 5639   0.352   3.137   4.825 -0.1730 -0.6691  0.2756
 1810WAT      O 5640   3.703   1.943   4.454  0.0825 -0.3045 -0.1257
 1810WAT     H1 5641   3.782   1.888   4.456  0.2310 -0.1272 -0.9130
 1810WAT     H2 5642   3.734   2.028   4.423  0.4431  1.2174  3.8133
 1811WAT      O 5643   1.143   2.214   2.450 -0.3037  0.2390  0.3218
 1811WAT     H1 5644   1.118   2.184   2.538  0.3043 -0.5046  0.2521
 1811WAT     H2 5645   1.230   2.176   2.436 -1.5243 -2.0955 -1.7546
 1812WAT      O 5646   0.534   4.330   2.601  0.0326  0.6933 -0.5884
 1812WAT     H1 5647   0.538   4.269   2.527 -0.5634  0.9449 -0.8302
 1812WAT     H2 5648   0.501   4.411   2.563  0.4246  1.0423 -0.1831
 1813WAT      O 5649   2.642   5.039   2.367 -0.8212 -0.0904 -0.5101
 1813WAT     H1 5650   2.722   5.030   2.420 -1.0071  0.1994 -0.1737
 1813WAT     H2 5651   2.592   5.108   2.412 -0.4943  0.9281 -1.6601
 1814WAT      O 5652   1.710   0.385   2.792 -0.1621  0.1060 -0.0136
 1814WAT     H1 5653   1.638   0.368   2.731 -0.4274 -1.0284  0.5759
 1814WAT     H2 5654   1.695   0.474   2.823 -0.6669  0.2884 -0.7512
 1815WAT      O 5655   3.345   2.897   1.985 -0.8231 -0.3067 -0.2005
 1815WAT     H1 5656   3.379   2.941   2.063  0.7963  1.5513 -1.8346
 1815WAT     H2 5657   3.415   2.837   1.959 -0.7085  0.1474 -0.9960
 1816WAT      O 5658   4.210   4.047   4.199  0.2951 -0.6017  0.5334
 1816WAT     H1 5659   4.234   3.960   4.168  1.9825 -0.5016  1.4259
 1816WAT     H2 5660   4.179   4.033   4.288  0.9735 -0.2606  0.8306
 1817WAT      O 5661   2.159   0.734   0.619 -0.5304  0.1065 -0.1152
 1817WAT     H1 5662   2.235   0.689   0.583  1.4848  1.6093  1.9243
 1817WAT     H2 5663   2.182   0.827   0.614 -2.3079  0.6196  0.4424
 1818WAT      O 5664   2.807   1.659   3.344 -0.1327  0.0661 -0.4991
 1818WAT     H1 5665   2.794   1.635   3.253  0.1400  1.5306 -0.9572
 1818WAT     H2 5666   2.805   1.576   3.392 -1.7972 -0.6115 -1.6354
 1819WAT      O 5667   4.415   3.149   1.563 -0.3080 -0.7264  0.1213
 1819WAT     H1 5668   4.381   3.181   1.646 -0.7302  0.1999 -0.3887
 1819WAT     H2 5669   4.491   3.206   1.545 -0.6606 -0.4330 -0.4755
 1820WAT      O 5670   3.171   3.088   3.895  0.3481 -0.1633 -0.1847
 1820WAT     H1 5671   3.183   3.031   3.819  1.3274 -0.9058  0.4871
 1820WAT     H2 5672   3.083   3.124   3.885 -1.3357 -3.6218  0.4921
 1821WAT      O 5673   1.579   5.115   2.774  0.2162 -0.1113  0.0445
 1821WAT     H1 5674   1.503   5.112   2.831 -1.4173 -0.1171 -2.0050
 1821WAT     H2 5675   1.620   5.029   2.783  1.4871  0.6919  2.9891
 1822WAT      O 5676   2.955   3.950   0.423  0.4168 -0.2859  0.4255
 1822WAT     H1 5677   2.949   3.984   0.512  0.3584 -0.8522  0.6450
 1822WAT     H2 5678   3.022   3.882   0.428  0.4504 -0.2841  0.0265
 1823WAT      O 5679   3.605   3.144   0.917 -0.3892  0.2479  0.0788
 1823WAT     H1 5680   3.517   3.112   0.900 -0.1608  0.4301 -1.6122
 1823WAT     H2 5681   3.594   3.209   0.986 -1.6493  0.5860 -0.4173
 1824WAT      O 5682   1.095   3.208   3.158  0.3030 -0.2408  0.5485
 1824WAT     H1 5683   1.154   3.140   3.125  0.0048 -0.6671  0.8705
 1824WAT     H2 5684   1.087   3.188   3.252  0.1760  0.2113  0.6327
 1825WAT      O 5685   0.368   2.085   4.603 -0.0982  0.0090 -0.1072
 1825WAT     H1 5686   0.402   2.163   4.648  0.5880  0.7276 -1.8176
 1825WAT     H2 5687   0.355   2.112   4.513 -0.0715 -1.8014 -0.7024
 1826WAT      O 5688   1.403   3.753   3.946 -0.5339 -0.2881 -0.5873
 1826WAT     H1 5689   1.447   3.782   4.025  2.1663 -1.2446 -1.6178
 1826WAT     H2 5690   1.383   3.834   3.898  1.7552  0.1877 -0.8566
 1827WAT      O 5691   2.290   2.557   0.468 -0.3433  0.4074 -0.0809
 1827WAT     H1 5692   2.296   2.469   0.432  1.9678  1.4641 -2.6717
 1827WAT     H2 5693   2.380   2.579   0.493 -1.0145  1.7466  1.3288
 1828WAT      O 5694   1.296   4.199   2.363 -0.6657  0.4441 -0.0090
 1828WAT     H1 5695   1.267   4.180   2.274 -2.3784  0.2313  0.5586
 1828WAT     H2 5696   1.352   4.125   2.387 -0.6279  0.2404 -0.7068
 1829WAT      O 5697   1.750   3.358   4.526 -0.3552 -0.0286  0.4496
 1829WAT     H1 5698   1.819   3.349   4.593  0.5468  0.7759 -0.3459
 1829WAT     H2 5699   1.705   3.439   4.549  0.0295  0.3100  0.0354
 1830WAT      O 5700   1.175   0.771   3.351  0.2840  0.8587  0.5938
 1830WAT     H1 5701   1.146   0.775   3.442  0.1287  0.8975  0.5439
 1830WAT     H2 5702   1.240   0.841   3.344 -1.5976  2.6513  0.0202
 1831WAT      O 5703   1.317   0.076   4.748  0.4053  0.0571 -0.1745
 1831WAT     H1 5704   1.397   0.129   4.750  0.6784 -0.1817 -2.1926
 1831WAT     H2 5705   1.348  -0.014   4.752  0.4461 -0.1105 -2.7782
 1832WAT      O 5706   3.110   2.184   0.491 -0.1137 -0.0760  0.2760
 1832WAT     H1 5707   3.039   2.238   0.525  1.0564  0.9477  1.2053
 1832WAT     H2 5708   3.107   2.104   0.542  0.4387  0.6744  1.5344
 1833WAT      O 5709   2.267   4.835   1.444 -0.0865 -0.1396  0.2639
 1833WAT     H1 5710   2.273   4.854   1.351 -0.2932  0.3336  0.3437
 1833WAT     H2 5711   2.324   4.759   1.457  1.0860  0.6581 -0.0101
 1834WAT      O 5712   1.006   1.062   4.061  0.4074  0.3977  0.1064
 1834WAT     H1 5713   0.988   1.072   3.968  2.3230 -0.5526 -0.4092
 1834WAT     H2 5714   1.071   1.130   4.080 -1.9897  2.4793  1.4688
 1835WAT      O 5715   2.500   4.174   0.130  0.3692  0.0912 -0.0556
 1835WAT     H1 5716   2.427   4.126   0.167 -0.1246 -0.1202 -1.2404
 1835WAT     H2 5717   2.496   4.155   0.036  1.5932  0.5432 -0.2240
 1836WAT      O 5718   4.487   3.449   4.375  0.0898 -0.2857  0.2477
 1836WAT     H1 5719   4.520   3.376   4.323 -0.6908  0.4181 -1.3220
 1836WAT     H2 5720   4.532   3.442   4.459  2.3457 -0.7645 -0.9352
 1837WAT      O 5721   1.703   0.095   1.581 -0.3269 -0.7912 -0.6773
 1837WAT     H1 5722   1.727   0.026   1.519  0.3816 -0.8026 -0.3981
 1837WAT     H2 5723   1.774   0.096   1.645 -1.2443 -1.0430  0.3714
 1838WAT      O 5724   3.512   1.923   5.166  0.4685  0.1628  0.1649
 1838WAT     H1 5725   3.577   1.866   5.125 -1.1245 -2.6664  1.2600
 1838WAT     H2 5726   3.439   1.924   5.105 -0.6681 -1.4944  1.4093
 1839WAT      O 5727   1.367   3.890   1.631  0.0844  0.4355 -0.4736
 1839WAT     H1 5728   1.396   3.799   1.625  1.0182  0.5811  1.2557
 1839WAT     H2 5729   1.277   3.888   1.597 -0.8665 -1.6384  1.8445
 1840WAT      O 5730   0.745   3.805   1.432 -0.0935  0.1233 -0.2747
 1840WAT     H1 5731   0.788   3.737   1.484  0.4955  1.0830  0.5275
 1840WAT     H2 5732   0.737   3.766   1.345  0.3695 -0.9187  0.1228
 1841WAT      O 5733   3.136   1.140   4.424  0.4222  0.5377  0.6086
 1841WAT     H1 5734   3.195   1.213   4.442 -0.0376  0.4806  2.5665
 1841WAT     H2 5735   3.076   1.138   4.499  0.2028 -1.6213  0.4478
 1842WAT      O 5736   0.512   3.843   0.916 -0.2455 -0.2352  0.1402
 1842WAT     H1 5737   0.457   3.834   0.994  0.7200 -0.1389  0.8528
 1842WAT     H2 5738   0.597   3.872   0.950  0.7943 -2.0681 -0.7105
 1843WAT      O 5739   4.447   2.277   4.634 -0.5976 -0.1664 -0.4634
 1843WAT     H1 5740   4.445   2.197   4.581 -2.1741 -0.7488  0.3976
 1843WAT     H2 5741   4.458   2.246   4.724  2.3328  0.8277 -0.3852
 1844WAT      O 5742   2.816   2.507   4.079 -0.2010 -0.0113 -0.3652
 1844WAT     H1 5743   2.792   2.600   4.089 -2.1495 -0.5452  0.5774
 1844WAT     H2 5744   2.777   2.482   3.996 -0.7845 -0.2711 -0.0214
 1845WAT      O 5745   2.062   1.957   1.449 -0.2367  0.5280 -0.0151
 1845WAT     H1 5746   2.127   1.901   1.406  0.2443  1.1739 -0.1461
 1845WAT     H2 5747   2.113   2.030   1.485 -0.6468  0.0838  1.5285
 1846WAT      O 5748   0.843   3.485   4.043 -0.0923  0.2292  0.4849
 1846WAT     H1 5749   0.806   3.517   3.961 -1.0164  1.9558  1.5214
 1846WAT     H2 5750   0.865   3.393   4.025  0.6398  0.8342 -1.9461
 1847WAT      O 5751   0.683   1.204   4.930 -0.1780  0.4626  0.0696
 1847WAT     H1 5752   0.603   1.153   4.915  0.8560 -1.3622  0.4186
 1847WAT     H2 5753   0.726   1.159   5.002  1.0895  1.5088 -0.0056
 1848WAT      O 5754   0.278   0.382   3.845 -0.2424 -0.0514  0.2353
 1848WAT     H1 5755   0.259   0.336   3.763 -0.0157 -0.8167  0.6030
 1848WAT     H2 5756   0.226   0.462   3.840  1.0308  0.7277 -1.3937
 1849WAT      O 5757   0.469   0.104   4.824  0.5603  0.2930 -0.2183
 1849WAT     H1 5758   0.460   0.152   4.907  2.3531  0.9355 -0.3526
 1849WAT     H2 5759   0.552   0.058   4.832  0.4282 -0.1756 -1.3992
 1850WAT      O 5760   1.849   1.998   3.835  0.1854  0.0039  0.0737
 1850WAT     H1 5761   1.918   1.971   3.775  0.2381 -1.6169  0.8142
 1850WAT     H2 5762   1.895   2.041   3.907  0.4440 -0.9892  0.5196
 1851WAT      O 5763   0.748   1.799   0.218 -0.0915 -0.4967 -0.5379
 1851WAT     H1 5764   0.653   1.795   0.218 -0.2931  2.6151 -0.4846
 1851WAT     H2 5765   0.770   1.866   0.282  2.1700 -1.1091 -0.5695
 1852WAT      O 5766   3.399   3.569   3.773 -0.2975 -0.4287 -0.3547
 1852WAT     H1 5767   3.352   3.621   3.707  0.5458  0.3330 -0.3704
 1852WAT     H2 5768   3.457   3.632   3.816 -1.0872 -0.8222  1.3857
 1853WAT      O 5769   3.650   4.081   0.901  0.7885  0.0148 -0.4552
 1853WAT     H1 5770   3.626   4.006   0.847  0.8217 -2.0855  2.2228
 1853WAT     H2 5771   3.622   4.157   0.850 -0.2666 -1.8080 -2.8225
 1854WAT      O 5772   3.998   4.156   5.244 -0.2943 -0.1753 -0.1943
 1854WAT     H1 5773   4.052   4.204   5.307 -0.5523  0.1940 -0.2480
 1854WAT     H2 5774   3.912   4.198   5.249 -0.1834  0.1954 -1.1519
 1855WAT      O 5775   2.376   3.599   3.909  0.3818 -0.1205 -0.7036
 1855WAT     H1 5776   2.428   3.633   3.983 -1.4510 -1.4235  1.3061
 1855WAT     H2 5777   2.342   3.515   3.941 -3.3270  0.8632 -1.6795
 1856WAT      O 5778   3.178   2.141   4.049 -0.1318  0.4718 -0.1994
 1856WAT     H1 5779   3.118   2.212   4.025 -0.2210  0.1741 -0.9088
 1856WAT     H2 5780   3.261   2.185   4.067 -0.6004  0.9054  0.9673
 1857WAT      O 5781   1.451   4.289   3.008 -0.0449 -0.4165  0.1858
 1857WAT     H1 5782   1.380   4.233   2.977  0.4605 -0.8273 -0.2463
 1857WAT     H2 5783   1.464   4.263   3.100 -0.6233 -0.1531  0.3475
 1858WAT      O 5784   2.138   0.394   1.045  0.0239 -0.2737 -0.5077
 1858WAT     H1 5785   2.047   0.387   1.017 -0.0903  1.4581 -0.6727
 1858WAT     H2 5786   2.133   0.410   1.140  0.2650 -2.2451 -0.1250
 1859WAT      O 5787   3.881   2.938   4.096  0.4957 -0.0096 -0.0996
 1859WAT     H1 5788   3.967   2.924   4.057  0.8671 -0.9932  1.0112
 1859WAT     H2 5789   3.824   2.874   4.054  0.8201 -0.8390  0.6832
 1860WAT      O 5790   3.100   4.928   2.985 -0.0510 -0.1126  0.4916
 1860WAT     H1 5791   3.163   4.931   2.913 -0.1375 -0.0303  0.4199
 1860WAT     H2 5792   3.111   5.011   3.031 -1.1833  0.5727 -0.4299
 1861WAT      O 5793   1.223   1.176   1.685  1.0418 -0.0733 -0.5191
 1861WAT     H1 5794   1.227   1.140   1.774  2.5892 -0.5164 -0.7323
 1861WAT     H2 5795   1.177   1.110   1.634 -1.5683  1.0184  0.2907
 1862WAT      O 5796   0.361   4.166   0.243 -0.5525 -0.3030  0.5236
 1862WAT     H1 5797   0.432   4.104   0.258 -0.3228  0.1564  1.4213
 1862WAT     H2 5798   0.303   4.122   0.181  0.9645 -0.3398 -0.9263
 1863WAT      O 5799   0.208   4.589   1.042 -0.7471  0.3663  0.2005
 1863WAT     H1 5800   0.138   4.560   0.983 -0.8771 -0.3229  0.6752
 1863WAT     H2 5801   0.278   4.525   1.028 -0.1841  1.0852 -0.3119
 1864WAT      O 5802   2.884   1.101   2.340  0.4832  0.0754  0.4361
 1864WAT     H1 5803   2.860   1.187   2.373 -4.4517 -0.4175 -1.0861
 1864WAT     H2 5804   2.871   1.042   2.414 -1.6896  0.0555  0.0933
 1865WAT      O 5805   3.682   0.835   3.277 -0.0824 -0.2706  0.2578
 1865WAT     H1 5806   3.718   0.820   3.364  0.0812  0.4997  0.3324
 1865WAT     H2 5807   3.680   0.748   3.236 -0.2271 -0.6454  1.0491
 1866WAT      O 5808   1.016   1.739   4.891 -0.3683  0.0129  0.1229
 1866WAT     H1 5809   1.100   1.783   4.875  1.0640 -0.7878  4.2180
 1866WAT     H2 5810   1.022   1.657   4.841  1.8975 -0.6001  1.2635
 1867WAT      O 5811   1.900   1.096   0.136 -0.0468 -0.5010  0.3993
 1867WAT     H1 5812   1.995   1.111   0.136 -0.1102 -0.0127  1.3207
 1867WAT     H2 5813   1.866   1.158   0.072  0.1736 -0.0465  0.7137
 1868WAT      O 5814   0.289   1.782   2.485  0.7396  0.3704 -0.0031
 1868WAT     H1 5815   0.288   1.780   2.581  2.4418  1.5015  0.0933
 1868WAT     H2 5816   0.274   1.874   2.463 -0.3896 -0.0111 -0.8593
 1869WAT      O 5817   1.901   3.789   3.912 -0.7180  0.1971  0.0256
 1869WAT     H1 5818   1.952   3.736   3.973 -0.1225 -0.8129 -1.2999
 1869WAT     H2 5819   1.823   3.737   3.894 -0.1484 -0.2409 -1.2537
 1870WAT      O 5820   1.824   0.458   2.114  0.1182 -0.5260 -0.3470
 1870WAT     H1 5821   1.736   0.450   2.078  0.2718 -1.6657 -0.5146
 1870WAT     H2 5822   1.874   0.503   2.046 -0.3152  0.0904 -0.2664
 1871WAT      O 5823   4.502   1.258   0.437  0.1451 -0.1666  0.2786
 1871WAT     H1 5824   4.546   1.282   0.355 -0.4318  1.8067  0.4970
 1871WAT     H2 5825   4.454   1.178   0.416 -0.5226  0.6566 -1.5206
 1872WAT      O 5826   4.113   4.011   1.053  0.4294  0.0735 -0.6852
 1872WAT     H1 5827   4.152   3.933   1.014 -0.4237 -0.3994 -0.6066
 1872WAT     H2 5828   4.037   4.030   0.999  0.0550  0.2520 -0.1115
 1873WAT      O 5829   2.683   1.095   4.056  0.2929  0.1258  0.0476
 1873WAT     H1 5830   2.698   1.130   3.968  0.1950 -1.5383 -0.6715
 1873WAT     H2 5831   2.741   1.018   4.061 -1.1151 -0.9451  0.6955
 1874WAT      O 5832   2.808   0.438   1.560 -0.4793  0.1394 -0.0086
 1874WAT     H1 5833   2.853   0.486   1.490 -0.7403  0.0139 -0.2692
 1874WAT     H2 5834   2.845   0.350   1.555 -2.4205 -0.6558 -1.8248
 1875WAT      O 5835  -0.009   1.927   4.010 -0.0371  0.4557 -0.1977
 1875WAT     H1 5836   0.065   1.889   3.962  1.6053  2.3681  0.6905
 1875WAT     H2 5837   0.027   2.005   4.051 -2.7217  1.7971 -0.2067
 1876WAT      O 5838   1.046   4.242   0.182  0.4857  0.7756  0.1120
 1876WAT     H1 5839   1.066   4.149   0.191 -0.0903  0.5109 -1.1282
 1876WAT     H2 5840   1.075   4.265   0.094  1.5708  2.0455  0.7662
 1877WAT      O 5841   3.080   0.956   3.010  0.3113  0.1788  0.1480
 1877WAT     H1 5842   3.014   0.892   2.984 -0.2658  0.2646  1.3555
 1877WAT     H2 5843   3.115   0.923   3.093  0.5638  1.0224  0.3902
 1878WAT      O 5844   4.475   3.187   5.082 -0.4201  0.6998  0.7249
 1878WAT     H1 5845   4.504   3.103   5.118 -0.1774  0.8054  0.7746
 1878WAT     H2 5846   4.400   3.212   5.136  0.2597  1.1164  1.4975
 1879WAT      O 5847   3.506   0.607   2.276 -0.3468  0.4380  0.3180
 1879WAT     H1 5848   3.593   0.635   2.247  0.7056 -1.1578  1.7665
 1879WAT     H2 5849   3.486   0.532   2.219 -1.1887  1.3064 -0.5726
 1880WAT      O 5850   2.268   2.183   0.926  0.3380  0.0222 -0.5501
 1880WAT     H1 5851   2.363   2.181   0.931  0.2789  0.5301  1.1903
 1880WAT     H2 5852   2.239   2.133   1.002 -0.7764  2.3154  0.6261
 1881WAT      O 5853   3.198   3.915   3.427  0.2036 -0.2230  0.2253
 1881WAT     H1 5854   3.130   3.932   3.363  0.4273  0.1410  0.0846
 1881WAT     H2 5855   3.151   3.902   3.509 -0.2160 -2.2172 -0.2673
 1882WAT      O 5856   1.503   3.031   2.576 -0.2232  0.0241 -0.1292
 1882WAT     H1 5857   1.413   3.062   2.563 -0.1965 -0.5833 -2.1211
 1882WAT     H2 5858   1.495   2.936   2.586 -0.2011  0.2850  4.8519
 1883WAT      O 5859   0.321   1.701   2.785 -0.3447  0.2276 -0.3642
 1883WAT     H1 5860   0.252   1.635   2.786  0.3657 -0.5724  1.4943
 1883WAT     H2 5861   0.403   1.651   2.781  0.1802  1.1625 -2.8409
 1884WAT      O 5862  -0.000   4.473   3.618  0.2503 -0.1587 -0.3148
 1884WAT     H1 5863   0.076   4.416   3.623  0.7527  0.4369 -0.8510
 1884WAT     H2 5864  -0.007   4.495   3.525 -0.3271  0.1214 -0.2105
 1885WAT      O 5865   1.054   1.072   4.825  0.1401 -0.1360  0.9186
 1885WAT     H1 5866   1.016   1.143   4.773 -0.5559 -0.1656  1.3710
 1885WAT     H2 5867   1.082   1.115   4.906  0.3640 -0.2567  0.9059
 1886WAT      O 5868   0.168   2.496   4.557 -0.4019  0.3341  0.6875
 1886WAT     H1 5869   0.095   2.554   4.533 -1.1733 -0.1678  1.6836
 1886WAT     H2 5870   0.244   2.533   4.514 -1.5095 -0.0334 -1.7194
 1887WAT      O 5871   3.383   0.206   3.612  0.2849  0.1663 -0.0555
 1887WAT     H1 5872   3.315   0.244   3.668  0.4690 -0.6886  0.7919
 1887WAT     H2 5873   3.465   0.242   3.646  0.3694 -0.0804  0.0076
 1888WAT      O 5874   2.387   1.119   5.070 -0.1928  0.3939  0.1770
 1888WAT     H1 5875   2.368   1.026   5.054 -2.3392  0.8367 -0.1071
 1888WAT     H2 5876   2.406   1.124   5.163  0.0430 -0.3364  0.1740
 1889WAT      O 5877   0.605   4.253   3.875  0.6186  0.1119 -0.0491
 1889WAT     H1 5878   0.515   4.253   3.910  0.9024  0.1465  0.6974
 1889WAT     H2 5879   0.599   4.301   3.793 -0.4578 -1.6328 -1.0682
 1890WAT      O 5880   0.606   4.188   4.211 -0.0024  0.0047  0.1107
 1890WAT     H1 5881   0.569   4.101   4.191 -1.3260 -0.1069  2.7084
 1890WAT     H2 5882   0.678   4.170   4.271 -0.2874  0.6885  0.6677
 1891WAT      O 5883   3.882   1.127   4.271 -0.1079 -0.1172 -0.4383
 1891WAT     H1 5884   3.901   1.220   4.277 -0.0689 -0.1047 -0.7268
 1891WAT     H2 5885   3.841   1.116   4.185 -1.1976 -0.1843  0.0752
 1892WAT      O 5886   1.524   4.797   4.290  0.1866  0.3379 -0.0299
 1892WAT     H1 5887   1.436   4.821   4.261  0.3633  1.9169  0.6435
 1892WAT     H2 5888   1.519   4.799   4.385  0.9522  0.4214  0.0153
 1893WAT      O 5889   2.989   3.648   0.657  0.1419 -0.3541  0.0774
 1893WAT     H1 5890   3.040   3.668   0.736 -2.0879  0.6004  1.3731
 1893WAT     H2 5891   2.958   3.559   0.670 -0.0853 -0.2562  0.2211
 1894WAT      O 5892   3.962   1.380   4.261 -0.0471 -0.3249  0.2965
 1894WAT     H1 5893   4.044   1.384   4.309 -0.9008 -0.1714  1.7889
 1894WAT     H2 5894   3.973   1.443   4.189  0.2467  1.6287  1.9646
 1895WAT      O 5895   1.305   4.243   3.605  0.4079  0.5698 -0.1189
 1895WAT     H1 5896   1.217   4.207   3.608  1.7550 -3.2541 -1.0740
 1895WAT     H2 5897   1.323   4.257   3.512  1.6465 -1.3307 -0.2285
 1896WAT      O 5898   2.673  -0.016   4.647 -0.4697 -0.3570  0.4484
 1896WAT     H1 5899   2.589   0.008   4.686 -0.4708  1.1029 -0.4060
 1896WAT     H2 5900   2.686   0.045   4.575  0.8186 -1.2612 -0.1463
 1897WAT      O 5901   4.324   3.298   2.846 -0.0862 -0.0624  0.0356
 1897WAT     H1 5902   4.393   3.364   2.844 -0.2281  0.0748 -0.8987
 1897WAT     H2 5903   4.345   3.239   2.773 -0.9364 -0.0252 -0.2612
 1898WAT      O 5904   4.238   1.310   1.756  0.2986 -0.3027  0.5700
 1898WAT     H1 5905   4.257   1.340   1.667 -0.7591 -0.1310  0.3874
 1898WAT     H2 5906   4.267   1.382   1.812 -0.2932  0.1881  0.2649
 1899WAT      O 5907   0.029   2.357   2.617  0.4035 -0.3532 -0.8711
 1899WAT     H1 5908   0.121   2.355   2.644  0.6146 -0.7943 -1.6073
 1899WAT     H2 5909  -0.018   2.312   2.687  0.7094  0.0996 -0.3672
 1900WAT      O 5910   1.394   4.155   1.681 -0.4596  0.0941 -0.0887
 1900WAT     H1 5911   1.364   4.190   1.597 -1.6143 -0.2638  0.1683
 1900WAT     H2 5912   1.405   4.061   1.664  0.3729  0.1913 -0.1313
 1901WAT      O 5913   3.895   4.002   2.943  0.1587  0.2383  0.2761
 1901WAT     H1 5914   3.831   3.940   2.906 -1.6223  1.5051  1.0774
 1901WAT     H2 5915   3.858   4.024   3.029  1.7964  0.9070  0.8370
 1902WAT      O 5916   2.480   3.419   5.043 -0.0628  0.8200 -0.5953
 1902WAT     H1 5917   2.504   3.503   5.082 -1.5092  1.4074 -0.8750
 1902WAT     H2 5918   2.387   3.410   5.064  0.1137 -0.8026 -0.4352
 1903WAT      O 5919   1.753   3.807   4.453 -0.0804 -0.0219 -0.1025
 1903WAT     H1 5920   1.831   3.804   4.397  0.1710  1.8596  0.0632
 1903WAT     H2 5921   1.704   3.883   4.422  0.0736  1.1017  2.1571
 1904WAT      O 5922   2.405   3.374   1.265  0.3111 -0.4152  0.4416
 1904WAT     H1 5923   2.333   3.406   1.211  0.2767 -0.1529  0.6399
 1904WAT     H2 5924   2.375   3.289   1.296 -0.7765  0.5249  2.1343
 1905WAT      O 5925   1.180   2.986   3.670  0.0580  0.0842 -0.3131
 1905WAT     H1 5926   1.093   3.018   3.693 -0.8227 -1.1427 -1.7977
 1905WAT     H2 5927   1.195   2.912   3.728 -0.2619 -0.2454 -0.6506
 1906WAT      O 5928   0.685   3.579   3.814  0.3002 -0.4940 -0.0539
 1906WAT     H1 5929   0.591   3.597   3.813  0.2697 -0.5553  1.0629
 1906WAT     H2 5930   0.697   3.511   3.748 -0.4045 -0.3349 -0.3492
 1907WAT      O 5931   3.722   4.953   2.246 -0.5361  0.4096 -0.4868
 1907WAT     H1 5932   3.804   5.002   2.255 -0.4679 -0.0208  1.8204
 1907WAT     H2 5933   3.659   5.018   2.213  0.2193  1.2987 -0.2186
 1908WAT      O 5934   2.883   1.597   2.360 -0.0184  0.3258  0.1578
 1908WAT     H1 5935   2.897   1.659   2.288  0.6981 -0.0715 -0.0577
 1908WAT     H2 5936   2.956   1.613   2.420  0.0663 -0.1705  0.1958
 1909WAT      O 5937   1.729   3.353   2.665  0.0020 -0.5804 -0.0736
 1909WAT     H1 5938   1.745   3.345   2.571  2.9114  0.8309  0.1898
 1909WAT     H2 5939   1.701   3.444   2.677  0.1290 -0.6100  0.4821
 1910WAT      O 5940   3.977   4.924   5.006  0.1879 -0.2417  0.2727
 1910WAT     H1 5941   3.966   4.993   4.940  2.0776 -1.6039 -1.5933
 1910WAT     H2 5942   3.987   4.844   4.956  2.7183 -1.2313  2.1336
 1911WAT      O 5943   0.478   0.058   0.434  0.0744  0.2805 -0.2652
 1911WAT     H1 5944   0.487   0.075   0.528  0.5462 -0.5077 -0.1653
 1911WAT     H2 5945   0.385   0.036   0.423 -0.1210  0.9789 -0.0932
 1912WAT      O 5946   0.918   4.885   4.096  0.2974  0.3643  0.4811
 1912WAT     H1 5947   0.839   4.920   4.137  1.0258  1.6262  0.8724
 1912WAT     H2 5948   0.979   4.959   4.095  1.4500 -0.5607  0.1138
 1913WAT      O 5949   2.239   0.249   2.898  0.0054 -0.0293  0.0056
 1913WAT     H1 5950   2.193   0.253   2.981 -0.2337  2.9606 -0.1687
 1913WAT     H2 5951   2.331   0.240   2.922 -0.2204 -1.1744  0.4952
 1914WAT      O 5952   4.015   2.879   2.443  0.5575  0.8780  0.1891
 1914WAT     H1 5953   3.946   2.820   2.415  0.4593  0.1685  1.8099
 1914WAT     H2 5954   3.973   2.937   2.507  0.9485  1.9111 -0.4535
 1915WAT      O 5955   0.045   4.926   1.971 -0.1185 -0.1654 -0.0043
 1915WAT     H1 5956   0.062   5.005   1.920  1.8462  0.3293  1.2845
 1915WAT     H2 5957   0.038   4.957   2.062 -1.1375 -1.2732  0.3190
 1916WAT      O 5958   0.279   2.016   1.397  0.1901 -0.5621  0.5385
 1916WAT     H1 5959   0.304   1.941   1.451 -1.7359 -0.9953  0.8933
 1916WAT     H2 5960   0.229   1.977   1.325  2.3468  0.0457 -1.4102
 1917WAT      O 5961   3.920   3.235   3.907 -0.1001  0.3690 -0.0960
 1917WAT     H1 5962   3.830   3.220   3.880 -0.2892  1.4485 -0.1111
 1917WAT     H2 5963   3.943   3.320   3.870 -0.3978  2.0033  3.0876
 1918WAT      O 5964   1.518   4.971   4.763 -0.1414 -0.6974  0.3986
 1918WAT     H1 5965   1.519   4.893   4.818  0.3597 -0.8662  0.1574
 1918WAT     H2 5966   1.563   5.038   4.815  0.1613 -0.8024  0.2721
 1919WAT      O 5967   0.576   2.826   2.298  0.2246 -0.0599 -0.3173
 1919WAT     H1 5968   0.563   2.752   2.239  0.2591  0.8504 -1.5244
 1919WAT     H2 5969   0.607   2.896   2.241 -2.7090  1.8405  0.1904
 1920WAT      O 5970   3.996   3.800   2.321  0.0158 -0.0220  0.0780
 1920WAT     H1 5971   3.920   3.803   2.263  1.0271  1.2252 -1.2465
 1920WAT     H2 5972   3.979   3.868   2.386 -1.1508 -1.4677  1.3890
 1921WAT      O 5973   1.764   4.520   3.941 -0.0426  0.2864 -0.0843
 1921WAT     H1 5974   1.711   4.471   4.004  0.5675  0.8580  0.9093
 1921WAT     H2 5975   1.733   4.611   3.948 -0.5051  0.2318 -1.1994
 1922WAT      O 5976   4.278   5.063   4.024  0.1859 -0.3195  0.3636
 1922WAT     H1 5977   4.324   5.114   4.091 -0.0005 -0.5885  0.7019
 1922WAT     H2 5978   4.300   4.972   4.043  2.2372 -0.2957 -1.5198
 1923WAT      O 5979   2.559   0.442   2.073 -0.1087 -0.4081  0.1335
 1923WAT     H1 5980   2.623   0.454   2.004 -1.0070 -0.4141 -0.7298
 1923WAT     H2 5981   2.596   0.375   2.130  0.7341 -0.2548 -0.2251
 1924WAT      O 5982   0.640   0.365   3.822 -0.0056 -0.5662 -0.0688
 1924WAT     H1 5983   0.589   0.299   3.870 -1.2414  0.0354 -0.5102
 1924WAT     H2 5984   0.595   0.373   3.738  0.7944  0.0456 -0.4544
 1925WAT      O 5985   3.773   3.083   1.156  0.6163 -0.0552 -0.5553
 1925WAT     H1 5986   3.824   3.007   1.185  0.8127 -0.5054 -1.9990
 1925WAT     H2 5987   3.695   3.045   1.116 -1.4721  0.6212  2.4951
 1926WAT      O 5988   3.670   4.631   1.985  0.1920 -0.1529  0.3522
 1926WAT     H1 5989   3.590   4.580   1.980 -0.4953  0.9123  0.0961
 1926WAT     H2 5990   3.738   4.568   2.007 -0.8992 -0.9119  1.7480
 1927WAT      O 5991   4.024   1.195   5.178 -0.4545  0.1125  0.5545
 1927WAT     H1 5992   3.980   1.200   5.263 -1.1236  2.3856  0.1386
 1927WAT     H2 5993   3.979   1.124   5.132 -0.6205 -0.6132  1.7921
 1928WAT      O 5994   1.138   4.412   1.624 -0.2547 -0.5418  0.0170
 1928WAT     H1 5995   1.173   4.340   1.675  0.0781 -0.8991 -0.6933
 1928WAT     H2 5996   1.058   4.437   1.669  0.1363 -0.7151  0.8121
 1929WAT      O 5997   2.095   4.655   2.639  0.4538 -0.7181  0.1572
 1929WAT     H1 5998   2.189   4.635   2.640  0.7538  0.6074  0.5669
 1929WAT     H2 5999   2.061   4.614   2.719  0.6344 -1.3808 -0.0996
 1930WAT      O 6000   2.535   0.358   3.001  0.0766  0.1050  0.1896
 1930WAT     H1 6001   2.600   0.327   3.064  0.1178  1.1151  0.6546
 1930WAT     H2 6002   2.492   0.431   3.044  1.8286  2.5065 -1.8407
 1931WAT      O 6003   2.798   1.693   1.511 -0.4267 -0.6111  0.0654
 1931WAT     H1 6004   2.752   1.612   1.531  1.3567 -1.6092  0.3714
 1931WAT     H2 6005   2.816   1.687   1.417 -1.2825 -0.0037 -0.1504
 1932WAT      O 6006   1.583   4.031   1.453  0.3888  0.0417  0.2216
 1932WAT     H1 6007   1.512   4.089   1.425 -0.7102 -1.0089  0.7698
 1932WAT     H2 6008   1.639   4.087   1.507 -0.5741  0.6405  0.6278
 1933WAT      O 6009   0.660   1.458   4.776  0.5702 -0.1580 -0.2109
 1933WAT     H1 6010   0.660   1.471   4.871  0.8246 -1.8779  0.0551
 1933WAT     H2 6011   0.681   1.366   4.764 -1.3252 -0.4544 -1.8855
 1934WAT      O 6012   3.646   1.602   4.667  0.6761 -0.2152  0.4350
 1934WAT     H1 6013   3.623   1.509   4.667 -0.5087  0.0489 -0.7183
 1934WAT     H2 6014   3.726   1.607   4.616 -0.4553 -0.3841 -1.4546
 1935WAT      O 6015   0.156   4.837   4.866  0.4633  0.1714  0.0178
 1935WAT     H1 6016   0.119   4.750   4.884 -0.4476  0.8456  1.5805
 1935WAT     H2 6017   0.117   4.894   4.932 -0.2810  2.1386 -1.9947
 1936WAT      O 6018   2.438   2.967   0.159 -0.3738 -0.2211  0.2934
 1936WAT     H1 6019   2.435   2.872   0.149 -0.1489 -0.1394 -0.6868
 1936WAT     H2 6020   2.527   2.991   0.135 -0.0322  0.1302  1.7801
 1937WAT      O 6021   1.145   0.531   2.803  0.4469  0.2792  0.3750
 1937WAT     H1 6022   1.191   0.452   2.773 -1.1087 -0.9155  1.0013
 1937WAT     H2 6023   1.053   0.513   2.785  0.1683  2.6124 -0.8517
 1938WAT      O 6024   1.633   4.685   0.842 -0.8616 -0.0683  0.4971
 1938WAT     H1 6025   1.681   4.680   0.925  0.4927  1.4926 -0.1281
 1938WAT     H2 6026   1.610   4.778   0.834  0.3435  0.1017 -1.5613
 1939WAT      O 6027   4.386   0.310   0.187 -0.4051  0.0278 -0.1684
 1939WAT     H1 6028   4.336   0.343   0.261  0.9931  0.9777  0.3883
 1939WAT     H2 6029   4.408   0.220   0.211  3.1770  1.3836  2.3717
 1940WAT      O 6030   3.347   3.878   5.203 -0.2539  0.0743 -0.3333
 1940WAT     H1 6031   3.305   3.842   5.125  1.2552  2.2901 -2.3248
 1940WAT     H2 6032   3.432   3.834   5.208 -0.1846  0.2232 -0.1635
 1941WAT      O 6033   2.853   4.321   3.876  0.7704  0.3338  0.0832
 1941WAT     H1 6034   2.946   4.323   3.851  0.7259  0.0589 -0.1109
 1941WAT     H2 6035   2.813   4.390   3.822  0.6226 -0.4553 -0.8374
 1942WAT      O 6036   3.059   3.625   3.471 -0.0414 -0.0919  0.4848
 1942WAT     H1 6037   3.056   3.666   3.558 -1.1456  2.7571 -0.7533
 1942WAT     H2 6038   2.969   3.635   3.438  0.0555 -2.2544 -0.5374
 1943WAT      O 6039   3.039   2.805   4.158  0.0853  0.0949 -0.6483
 1943WAT     H1 6040   2.971   2.739   4.141  0.5198 -0.2921 -0.9068
 1943WAT     H2 6041   3.111   2.755   4.196 -0.3503  0.7351  1.1180
 1944WAT      O 6042   4.546   4.574   2.287  0.1997  0.4196 -0.0354
 1944WAT     H1 6043   4.472   4.607   2.235  0.5448  1.3441  0.0431
 1944WAT     H2 6044   4.543   4.479   2.275  0.6099  0.6440 -2.2053
 1945WAT      O 6045   3.924   2.090   5.129 -0.1130  0.4800  0.5227
 1945WAT     H1 6046   3.930   2.001   5.095  3.3771  1.0200 -0.6804
 1945WAT     H2 6047   3.843   2.125   5.092  0.1477 -1.1242 -1.7643
 1946WAT      O 6048   4.352   1.114   0.837 -0.1184  0.5695  0.0645
 1946WAT     H1 6049   4.262   1.103   0.806  0.5247  0.3198 -1.8372
 1946WAT     H2 6050   4.396   1.032   0.815  0.8097  1.0444  0.0765
 1947WAT      O 6051   0.057   4.015   0.710 -0.1942 -0.1957 -0.2542
 1947WAT     H1 6052   0.138   3.975   0.738 -0.2710  1.1135  2.0361
 1947WAT     H2 6053   0.081   4.067   0.633  1.6338  1.6811  1.4550
 1948WAT      O 6054   3.775   1.088   3.189  0.0812  0.5776 -0.3944
 1948WAT     H1 6055   3.700   1.116   3.137 -0.5899 -0.7558 -0.1906
 1948WAT     H2 6056   3.746   1.008   3.232  1.8410 -0.3383 -0.8120
 1949WAT      O 6057   4.277   4.601   3.866  0.1006  0.2565  0.4262
 1949WAT     H1 6058   4.274   4.689   3.828 -1.0024  0.6995  1.4519
 1949WAT     H2 6059   4.206   4.553   3.822  2.0814 -0.8854 -1.7541
 1950WAT      O 6060   2.752   4.443   4.123 -0.8354  0.3313  0.3132
 1950WAT     H1 6061   2.795   4.404   4.048 -0.0686 -1.5762  1.6758
 1950WAT     H2 6062   2.787   4.532   4.128 -1.7160  0.8903 -2.1471
 1951WAT      O 6063   4.345   2.693   2.072 -0.3294 -0.4267 -0.5976
 1951WAT     H1 6064   4.374   2.605   2.050 -0.7294 -0.7701  0.2186
 1951WAT     H2 6065   4.329   2.690   2.167  1.4644  1.0260 -0.1850
 1952WAT      O 6066   3.981   3.779   3.810 -0.3395 -0.2828  0.0321
 1952WAT     H1 6067   4.058   3.835   3.824 -0.8678 -0.0095  2.2426
 1952WAT     H2 6068   3.955   3.796   3.720  0.0911  2.3584  0.3313
 1953WAT      O 6069   0.192   2.974   1.841 -0.6437  0.3029 -0.5562
 1953WAT     H1 6070   0.183   2.917   1.765 -1.3175  1.9738 -1.8124
 1953WAT     H2 6071   0.110   2.963   1.889 -0.9645  0.5158 -1.0388
 1954WAT      O 6072   3.139   4.202   5.181  0.1943  0.3121 -0.2760
 1954WAT     H1 6073   3.137   4.163   5.269 -2.0345  0.5054 -0.1681
 1954WAT     H2 6074   3.162   4.294   5.197 -0.0483  0.3134  0.1008
 1955WAT      O 6075   1.804   4.738   4.229  0.1249  0.1055  0.2767
 1955WAT     H1 6076   1.728   4.787   4.262 -0.7345  0.0731 -1.5462
 1955WAT     H2 6077   1.786   4.647   4.253  0.1261  0.2458  0.8135
 1956WAT      O 6078   3.801   2.585   0.344  0.0251 -0.3026  0.7076
 1956WAT     H1 6079   3.773   2.494   0.341 -1.3869  0.1350 -1.1863
 1956WAT     H2 6080   3.763   2.619   0.425 -1.1467 -0.8965  0.4262
 1957WAT      O 6081   3.932   0.412   1.127  0.1584 -0.5932  0.0479
 1957WAT     H1 6082   3.859   0.444   1.180 -0.7542  1.6902 -2.3480
 1957WAT     H2 6083   3.906   0.431   1.037  3.9400  0.9537 -0.9082
 1958WAT      O 6084   4.045   1.145   4.819 -0.1729 -0.2224 -0.6469
 1958WAT     H1 6085   4.021   1.086   4.891 -0.9182 -0.5936 -1.1787
 1958WAT     H2 6086   4.114   1.098   4.773 -0.3182 -0.3989 -0.6910
 1959WAT      O 6087   2.992   4.675   3.366  0.2795  0.0068 -0.0627
 1959WAT     H1 6088   3.021   4.749   3.419 -1.7784  0.5792  0.3544
 1959WAT     H2 6089   3.063   4.611   3.372  1.1245  1.0439  1.4181
 1960WAT      O 6090   0.378   3.185   4.428 -0.5555 -0.5926  0.3542
 1960WAT     H1 6091   0.329   3.187   4.346  1.4676  2.7817 -0.9743
 1960WAT     H2 6092   0.448   3.121   4.412 -0.2754 -0.0875 -0.5212
 1961WAT      O 6093   1.603   3.159   2.797  0.2674 -0.6994  0.0256
 1961WAT     H1 6094   1.561   3.131   2.716  1.9827 -0.7575 -0.9087
 1961WAT     H2 6095   1.658   3.233   2.772  1.4624 -1.2260  0.9445
 1962WAT      O 6096   3.734   1.489   5.205  0.1863  0.5410 -0.0221
 1962WAT     H1 6097   3.720   1.456   5.116 -0.1108  0.5317  0.0297
 1962WAT     H2 6098   3.783   1.570   5.192 -0.5841  0.9807 -0.2479
 1963WAT      O 6099   1.042   5.028   2.819 -0.2197 -0.2176  0.2292
 1963WAT     H1 6100   1.049   5.033   2.723 -0.7285  1.8182  0.2650
 1963WAT     H2 6101   1.020   4.936   2.836 -0.8253 -0.4694 -1.6615
 1964WAT      O 6102   2.226   4.055   2.127  0.0854  0.4264  0.0324
 1964WAT     H1 6103   2.149   4.112   2.131  1.0491  1.8182 -0.6541
 1964WAT     H2 6104   2.227   4.024   2.036  0.7651  1.0658 -0.1899
 1965WAT      O 6105   0.488   2.165   0.273 -0.2118 -0.0789  0.1989
 1965WAT     H1 6106   0.474   2.256   0.300  0.7436 -0.0919  0.8231
 1965WAT     H2 6107   0.461   2.162   0.182 -0.4264  0.7934  0.2252
 1966WAT      O 6108   0.259   2.777   0.892  0.4142 -0.3978  0.2442
 1966WAT     H1 6109   0.179   2.775   0.944  1.3958  0.7472  1.9375
 1966WAT     H2 6110   0.245   2.846   0.828  0.2551  0.2073  0.9227
 1967WAT      O 6111   2.994   5.088   4.231  0.0164 -0.0375 -0.4185
 1967WAT     H1 6112   3.032   5.035   4.161  1.0061  0.2624 -0.1211
 1967WAT     H2 6113   3.069   5.123   4.279 -0.5975  1.5374 -0.5295
 1968WAT      O 6114   0.606   2.753   4.323 -0.0680  0.0803 -0.1631
 1968WAT     H1 6115   0.693   2.727   4.354 -0.3588  0.4362  0.9940
 1968WAT     H2 6116   0.598   2.712   4.237  0.5591 -1.3972  0.4492
 1969WAT      O 6117   0.324   2.682   5.122  0.6231 -0.0285  0.5276
 1969WAT     H1 6118   0.241   2.641   5.098  0.3886 -0.2725  1.7088
 1969WAT     H2 6119   0.388   2.611   5.114  0.9535  0.4485 -1.5525
 1970WAT      O 6120   2.578   2.343   1.109  0.0395 -0.1584  0.0223
 1970WAT     H1 6121   2.517   2.277   1.142  0.6647 -1.8838 -2.0462
 1970WAT     H2 6122   2.525   2.397   1.051 -0.3013  0.7118  1.1169
 1971WAT      O 6123   3.613   3.685   2.203 -0.0658  0.5241  0.2896
 1971WAT     H1 6124   3.525   3.708   2.174  0.5920  0.3900 -2.0837
 1971WAT     H2 6125   3.601   3.609   2.261 -1.4469 -0.1947 -0.8783
 1972WAT      O 6126   0.854   1.941   3.959  0.1190 -0.3210 -0.4556
 1972WAT     H1 6127   0.934   1.906   3.920 -0.3041  0.9309 -2.6064
 1972WAT     H2 6128   0.857   2.035   3.940 -0.7938  0.1448  1.4366
 1973WAT      O 6129   2.647   4.139   3.961  0.0865 -0.1953 -0.4731
 1973WAT     H1 6130   2.717   4.202   3.943  1.0181 -1.2648 -0.6542
 1973WAT     H2 6131   2.614   4.114   3.874  1.1924 -1.5706 -0.5292
 1974WAT      O 6132   4.283   4.309   3.115 -0.1156  0.1163 -0.0894
 1974WAT     H1 6133   4.335   4.234   3.085  0.4640 -0.0473  1.2394
 1974WAT     H2 6134   4.216   4.271   3.172 -0.4510  0.5154 -0.2121
 1975WAT      O 6135   2.161   3.631   5.036  0.0073 -0.7491  0.8029
 1975WAT     H1 6136   2.076   3.675   5.038 -0.4230 -1.2622 -1.9292
 1975WAT     H2 6137   2.154   3.562   5.102 -1.7238 -0.7926  0.6117
 1976WAT      O 6138   4.477   4.527   0.126  0.6285  0.3592  0.6173
 1976WAT     H1 6139   4.479   4.431   0.127 -0.4276  0.3041 -0.3772
 1976WAT     H2 6140   4.387   4.550   0.149  0.6862  1.0835  0.1746
 1977WAT      O 6141   2.247   3.976   2.805  0.3532  0.4635  0.7846
 1977WAT     H1 6142   2.180   3.948   2.868 -0.1506 -0.4314 -0.1281
 1977WAT     H2 6143   2.282   3.895   2.769  1.4547  0.9417  0.7262
 1978WAT      O 6144   3.453   0.528   3.103  0.0403 -0.0017 -0.8194
 1978WAT     H1 6145   3.488   0.443   3.130 -2.2654 -1.1261 -1.1217
 1978WAT     H2 6146   3.399   0.556   3.177  0.6870  1.1775 -0.7701
 1979WAT      O 6147   2.782   2.103   3.658 -0.0355  0.0652  0.0089
 1979WAT     H1 6148   2.867   2.144   3.673  0.1967 -0.9579  1.6521
 1979WAT     H2 6149   2.793   2.053   3.577  0.5607  0.8622 -0.4122
 1980WAT      O 6150   3.885   1.991   4.705 -0.2004 -0.3058  0.3036
 1980WAT     H1 6151   3.980   2.008   4.704 -0.2185  0.0039 -2.0462
 1980WAT     H2 6152   3.848   2.063   4.654 -1.7736 -0.2220  1.5130
 1981WAT      O 6153   3.163   3.200   2.834  0.5084  0.9751 -0.4842
 1981WAT     H1 6154   3.070   3.181   2.824  0.7323  0.4239 -1.8032
 1981WAT     H2 6155   3.201   3.118   2.865  0.4482  1.4465  0.8860
 1982WAT      O 6156   0.474   0.966   4.200 -0.7433 -0.1714  0.2390
 1982WAT     H1 6157   0.527   0.888   4.184 -0.3239  0.2604 -0.5069
 1982WAT     H2 6158   0.417   0.941   4.273  2.0871  0.1274  2.7327
 1983WAT      O 6159   1.264   4.024   4.194  0.4525 -0.8110 -0.3839
 1983WAT     H1 6160   1.259   4.112   4.158 -0.0129  0.2028  1.9301
 1983WAT     H2 6161   1.201   3.974   4.143 -0.8844  0.7577 -0.3591
 1984WAT      O 6162   2.479   0.854   1.612 -0.1091 -1.0849 -0.3620
 1984WAT     H1 6163   2.451   0.940   1.645  0.9714 -0.8692  0.0199
 1984WAT     H2 6164   2.403   0.798   1.627 -0.7372 -0.2627 -0.3706
 1985WAT      O 6165   1.387   3.747   4.546 -0.2572  0.9958 -0.7631
 1985WAT     H1 6166   1.399   3.746   4.641  0.0943  1.6743 -0.7960
 1985WAT     H2 6167   1.371   3.839   4.525 -2.4022  0.6093 -1.1069
 1986WAT      O 6168   2.613   3.281   0.176 -0.2698 -0.1499  0.5848
 1986WAT     H1 6169   2.558   3.233   0.238 -1.6446  1.0259  0.3356
 1986WAT     H2 6170   2.609   3.229   0.096  1.1518 -1.4397  1.3046
 1987WAT      O 6171   0.119   1.278   5.107 -0.0277  0.0895  0.5182
 1987WAT     H1 6172   0.165   1.310   5.185  2.1543 -0.4362 -0.4676
 1987WAT     H2 6173   0.063   1.208   5.140 -0.3941  0.9634  1.8358
 1988WAT      O 6174   4.302   1.381   0.586 -0.9420  0.0141  0.5118
 1988WAT     H1 6175   4.290   1.475   0.570 -1.4182  0.0269  0.9009
 1988WAT     H2 6176   4.357   1.351   0.514 -1.0163  0.5410  0.2289
 1989WAT      O 6177   1.888   0.641   1.856 -0.1424  0.7304 -0.1304
 1989WAT     H1 6178   1.973   0.680   1.877 -0.5426  1.9321 -0.6739
 1989WAT     H2 6179   1.910   0.565   1.801  0.6335  0.2037  0.8687
 1990WAT      O 6180   3.195   0.021   4.843 -0.1378 -0.5070  0.0641
 1990WAT     H1 6181   3.225  -0.027   4.766 -0.6664  0.4133 -0.7496
 1990WAT     H2 6182   3.110   0.057   4.817 -0.3493 -0.2200  1.0986
 1991WAT      O 6183   1.415   1.845   5.118 -0.5343 -1.1415 -0.4797
 1991WAT     H1 6184   1.322   1.823   5.116 -0.7677 -1.3899  3.7756
 1991WAT     H2 6185   1.458   1.764   5.145  0.5958 -0.4033  0.0142
 1992WAT      O 6186   4.189   3.175   0.899  0.0621 -0.4511  0.1333
 1992WAT     H1 6187   4.093   3.171   0.899  0.0781 -0.9207  0.1089
 1992WAT     H2 6188   4.210   3.252   0.952 -0.3405  0.0558 -0.4241
 1993WAT      O 6189   0.961   1.166   2.399  0.3286 -0.0626 -0.2350
 1993WAT     H1 6190   0.911   1.086   2.382 -2.0103  1.2051  0.2004
 1993WAT     H2 6191   0.939   1.224   2.325 -0.2017  1.0991  0.7855
 1994WAT      O 6192   1.101   1.804   5.166  0.1552 -0.3852 -0.2804
 1994WAT     H1 6193   1.078   1.744   5.095  0.8505 -1.7765  0.6171
 1994WAT     H2 6194   1.018   1.845   5.189 -0.6758 -2.1480  0.0678
 1995WAT      O 6195   0.469   2.053   5.269  0.2906 -0.5253  0.0863
 1995WAT     H1 6196   0.547   2.020   5.224  1.4340  1.3978  0.5503
 1995WAT     H2 6197   0.434   2.120   5.211 -0.0144 -0.1812  0.6622
 1996WAT      O 6198   4.499   4.218   3.280 -0.1139 -0.3335  0.0911
 1996WAT     H1 6199   4.443   4.171   3.219 -0.4993  0.7282 -0.3912
 1996WAT     H2 6200   4.438   4.257   3.344  0.0976  0.3654 -0.1177
 1997WAT      O 6201   3.734   1.551   3.844  0.6796 -0.3887 -0.1634
 1997WAT     H1 6202   3.740   1.457   3.856 -0.2273 -0.5701 -1.0623
 1997WAT     H2 6203   3.668   1.580   3.907  0.3469 -0.4802 -0.4662
 1998WAT      O 6204   3.915   3.304   3.211 -0.2964  0.3520 -0.8151
 1998WAT     H1 6205   3.824   3.327   3.190 -0.3976  1.7050  0.9347
 1998WAT     H2 6206   3.967   3.372   3.168 -0.4150  2.1522  1.6944
 1999WAT      O 6207   0.784   3.476   5.157 -0.0694  0.4145  0.0110
 1999WAT     H1 6208   0.728   3.409   5.117  1.3133  0.3523 -1.9200
 1999WAT     H2 6209   0.856   3.427   5.197 -0.3966  0.6217  0.8931
 2000WAT      O 6210   0.461   2.169   2.460 -0.0787 -0.2903 -0.2461
 2000WAT     H1 6211   0.390   2.133   2.409 -0.5876  0.0772  0.1864
 2000WAT     H2 6212   0.536   2.112   2.441 -0.5240 -0.7754 -0.5775
 2001WAT      O 6213   3.794   2.200   4.361  0.0748 -0.1521 -0.5072
 2001WAT     H1 6214   3.711   2.216   4.316 -0.1120  0.4236  0.0219
 2001WAT     H2 6215   3.787   2.250   4.442  0.1310 -1.6992  0.4834
 2002WAT      O 6216   0.791   4.880   0.621  0.1494 -0.2247 -0.1111
 2002WAT     H1 6217   0.863   4.940   0.603 -0.6264  1.1022  0.9880
 2002WAT     H2 6218   0.752   4.862   0.536  1.6784 -0.8677 -0.7055
 2003WAT      O 6219   0.633   2.415   1.260  0.0659  0.2368  0.0055
 2003WAT     H1 6220   0.668   2.429   1.172  1.3309 -1.3142  0.1997
 2003WAT     H2 6221   0.581   2.335   1.252  0.4919 -0.1218  0.7257
 2004WAT      O 6222   1.325   4.786   3.068 -0.1356 -0.0747 -0.0110
 2004WAT     H1 6223   1.377   4.723   3.018  0.4951 -0.9060  1.6177
 2004WAT     H2 6224   1.256   4.733   3.108 -0.5151  0.5262  0.1356
 2005WAT      O 6225   2.437   4.168   2.219 -0.0138  0.0613 -0.3955
 2005WAT     H1 6226   2.412   4.257   2.243  1.3331  0.3739 -0.0772
 2005WAT     H2 6227   2.358   4.131   2.178 -1.7633  0.2124  2.5226
 2006WAT      O 6228   0.913   4.545   4.599 -0.1392 -0.1263  0.6086
 2006WAT     H1 6229   0.980   4.577   4.538 -1.1186 -0.0983 -0.4904
 2006WAT     H2 6230   0.939   4.454   4.617 -0.2531 -0.3939 -0.4904
 2007WAT      O 6231   1.630   0.592   5.065  0.5308 -0.2680 -0.1474
 2007WAT     H1 6232   1.634   0.686   5.083  0.0304 -0.2652 -0.0311
 2007WAT     H2 6233   1.542   0.579   5.029 -0.9864 -1.2970  3.4324
 2008WAT      O 6234   0.122   4.057   5.151 -0.4997 -0.7718  0.3490
 2008WAT     H1 6235   0.161   4.125   5.206 -1.8011  0.3284 -0.0261
 2008WAT     H2 6236   0.144   4.082   5.062 -1.4994 -0.4925  0.1717
 2009WAT      O 6237   1.543   4.953   0.847  0.3241  0.1582  0.2696
 2009WAT     H1 6238   1.552   5.013   0.773  1.6443  0.3438  0.5547
 2009WAT     H2 6239   1.534   5.011   0.923 -1.5426 -0.0247  0.2485
 2010WAT      O 6240   1.012   0.128   2.550  0.4797  0.3001 -0.1206
 2010WAT     H1 6241   1.107   0.131   2.560  0.5106  2.1996 -0.6672
 2010WAT     H2 6242   0.995   0.180   2.472 -1.1636  1.8974  1.2266
 2011WAT      O 6243   3.008   4.745   0.532 -0.2730 -0.0637  0.8458
 2011WAT     H1 6244   2.930   4.796   0.555  0.3057  0.0926  2.6269
 2011WAT     H2 6245   2.974   4.664   0.494 -1.2372  0.8876 -0.4133
 2012WAT      O 6246   3.276   2.486   1.392 -0.2762  0.3234  0.2675
 2012WAT     H1 6247   3.207   2.463   1.329 -1.1265  0.3252  1.1647
 2012WAT     H2 6248   3.269   2.580   1.402  0.5339  0.4646 -0.3789
 2013WAT      O 6249   1.420   1.142   0.167 -0.3672 -0.4458  0.0081
 2013WAT     H1 6250   1.504   1.152   0.121  0.7287 -1.2291  1.7250
 2013WAT     H2 6251   1.370   1.220   0.144  0.4922 -0.3578 -1.7170
 2014WAT      O 6252   2.367   1.119   1.912 -0.4197 -0.1749  0.8023
 2014WAT     H1 6253   2.295   1.110   1.975  0.0136 -0.5807  1.2503
 2014WAT     H2 6254   2.427   1.047   1.934  0.1088  0.1432  0.4186
 2015WAT      O 6255   1.492   4.582   2.996 -0.3574 -0.1487 -0.6357
 2015WAT     H1 6256   1.462   4.492   2.986 -0.7472 -0.0134 -0.7097
 2015WAT     H2 6257   1.581   4.574   3.029 -0.5327 -0.5617 -0.2434
 2016WAT      O 6258   2.490   0.880   0.723 -0.6692 -0.8052  0.0872
 2016WAT     H1 6259   2.449   0.803   0.682 -1.2751 -0.4334 -0.0169
 2016WAT     H2 6260   2.451   0.954   0.677  1.1381 -0.4559 -0.9796
 2017WAT      O 6261   0.888   0.398   0.306  0.0826 -0.5266  0.7159
 2017WAT     H1 6262   0.975   0.358   0.298 -0.9459 -2.7100 -0.3289
 2017WAT     H2 6263   0.837   0.359   0.235 -1.8028  0.5972  1.3918
 2018WAT      O 6264   1.240   3.706   1.126 -0.4722 -0.6008 -0.4787
 2018WAT     H1 6265   1.186   3.691   1.049 -0.1492  0.2049 -0.8731
 2018WAT     H2 6266   1.186   3.678   1.200 -0.7520 -1.4483 -1.0019
 2019WAT      O 6267   3.893   2.723   5.226  0.2226 -0.3708 -0.2006
 2019WAT     H1 6268   3.976   2.714   5.272 -0.0233  3.4374  1.2976
 2019WAT     H2 6269   3.913   2.700   5.135  2.2972 -1.7107  0.5308
 2020WAT      O 6270   2.110   1.809   5.249  0.2413 -0.3151 -0.5157
 2020WAT     H1 6271   2.069   1.865   5.183 -0.0918  0.3651  0.2489
 2020WAT     H2 6272   2.184   1.768   5.203  0.3435  0.5549 -1.1622
 2021WAT      O 6273   0.031   0.383   1.723  0.0927 -0.6059  0.4612
 2021WAT     H1 6274  -0.008   0.453   1.775 -0.9842  0.0037 -1.0764
 2021WAT     H2 6275   0.123   0.381   1.750 -0.1912  0.3997  1.5864
 2022WAT      O 6276   2.674   1.826   4.940  0.4104 -0.4177 -0.7710
 2022WAT     H1 6277   2.689   1.909   4.895  0.9072  0.8756  1.5724
 2022WAT     H2 6278   2.758   1.781   4.937  1.3632  1.0164  1.2621
 2023WAT      O 6279   2.639   3.001   3.325 -0.3340  0.1484  0.4632
 2023WAT     H1 6280   2.666   2.920   3.282 -1.7818  0.6550 -1.5490
 2023WAT     H2 6281   2.559   3.027   3.280  0.0651  2.6973  1.0394
 2024WAT      O 6282   1.834   4.154   3.657 -0.1074 -0.0095  0.3658
 2024WAT     H1 6283   1.884   4.218   3.708 -1.7245  0.9456  0.8270
 2024WAT     H2 6284   1.761   4.130   3.714  0.1091 -1.8201 -0.0583
 2025WAT      O 6285   1.379   1.802   4.580  0.7903 -0.2941 -0.1340
 2025WAT     H1 6286   1.353   1.846   4.499  2.0763 -1.0833 -1.0136
 2025WAT     H2 6287   1.445   1.738   4.553  1.6496 -0.2246  1.6097
 2026WAT      O 6288   1.911   4.189   0.979 -0.0249 -0.1139 -0.1570
 2026WAT     H1 6289   1.943   4.141   0.902  0.0439 -0.7245  0.2426
 2026WAT     H2 6290   1.818   4.202   0.961 -0.2301 -1.1384  0.0905
 2027WAT      O 6291   0.883   2.827   2.349  0.1348 -0.4049 -0.1098
 2027WAT     H1 6292   0.793   2.815   2.380 -0.0824  0.5506 -0.3409
 2027WAT     H2 6293   0.890   2.768   2.274 -0.1608 -0.7886  0.1585
 2028WAT      O 6294   0.072   2.113   0.640 -0.0906 -0.0574  0.0809
 2028WAT     H1 6295   0.069   2.055   0.564  0.2768  0.9248 -0.7037
 2028WAT     H2 6296   0.164   2.140   0.646 -0.0006 -0.5615  1.2270
 2029WAT      O 6297   3.420   0.845   4.904  0.1801 -0.0690 -0.0243
 2029WAT     H1 6298   3.509   0.865   4.875 -0.0781  0.7471 -0.2835
 2029WAT     H2 6299   3.366   0.858   4.826  0.0681 -2.6183 -0.4662
 2030WAT      O 6300   2.521   4.974   4.251  0.0268  0.0000 -0.5449
 2030WAT     H1 6301   2.598   4.934   4.292  0.0442 -0.3357 -0.8985
 2030WAT     H2 6302   2.450   4.958   4.314 -0.3054 -1.9733 -1.3562
 2031WAT      O 6303   4.081   4.850   4.542 -0.2388  0.0051 -0.2031
 2031WAT     H1 6304   4.120   4.885   4.462  2.3699 -1.0736  0.5043
 2031WAT     H2 6305   4.023   4.780   4.512  1.5188 -1.1068 -1.1319
 2032WAT      O 6306   2.026   1.396   3.589 -0.1447 -0.1234 -0.0496
 2032WAT     H1 6307   1.957   1.403   3.655 -0.0195  0.1481  0.0551
 2032WAT     H2 6308   2.068   1.312   3.607  0.5800  0.4270  0.8998
 2033WAT      O 6309   1.058   0.199   4.804  0.0621 -0.3550 -0.2179
 2033WAT     H1 6310   1.138   0.175   4.758 -0.6368  0.7016 -2.0997
 2033WAT     H2 6311   1.019   0.116   4.830 -0.8895 -1.2863 -4.0468
 2034WAT      O 6312   0.869   3.562   1.974 -0.3895  0.3174  0.1156
 2034WAT     H1 6313   0.866   3.542   1.881 -1.6779  0.3228  0.1380
 2034WAT     H2 6314   0.794   3.620   1.989 -0.0085  0.5883  1.0934
 2035WAT      O 6315   2.074   1.608   0.130 -0.2292  0.2027 -0.0628
 2035WAT     H1 6316   2.096   1.651   0.213  1.6176 -0.2443 -0.2758
 2035WAT     H2 6317   2.041   1.678   0.075  0.9265  1.0128  0.2352
 2036WAT      O 6318   2.603   3.537   0.079  0.1490  0.4704 -0.4363
 2036WAT     H1 6319   2.686   3.579   0.059  0.7968 -1.3496 -1.7241
 2036WAT     H2 6320   2.626   3.455   0.123 -0.8356 -0.8201 -2.1890
 2037WAT      O 6321   3.769   0.331   0.721  0.4974 -0.0645 -0.0746
 2037WAT     H1 6322   3.810   0.400   0.774  1.6122  0.2943 -1.3414
 2037WAT     H2 6323   3.680   0.325   0.755  0.4242  1.8717  0.2148
 2038WAT      O 6324   3.100   0.917   0.605 -0.0378 -0.4714 -0.5814
 2038WAT     H1 6325   3.168   0.943   0.542  1.6784 -2.2721  0.4021
 2038WAT     H2 6326   3.144   0.921   0.690 -1.3020 -1.2937  0.1354
 2039WAT      O 6327   3.017   2.548   0.889  0.1751  0.6466  0.4505
 2039WAT     H1 6328   3.109   2.567   0.869  0.5206 -0.1898  1.1593
 2039WAT     H2 6329   3.014   2.543   0.985 -0.6537  0.8689  0.4422
 2040WAT      O 6330   3.824   4.076   3.860 -0.6891  0.7116  0.6538
 2040WAT     H1 6331   3.908   4.087   3.815 -0.8357  0.8107  0.4060
 2040WAT     H2 6332   3.848   4.058   3.951 -0.4248  1.9731  0.8452
 2041WAT      O 6333   1.484   0.011   0.686 -0.4254  0.2067 -1.0371
 2041WAT     H1 6334   1.520   0.097   0.709 -0.4522 -0.2003  0.6415
 2041WAT     H2 6335   1.524  -0.009   0.601  3.8085 -0.3836  0.8272
 2042WAT      O 6336   3.356   2.825   0.901 -0.2806 -0.3079 -0.5207
 2042WAT     H1 6337   3.447   2.812   0.928 -0.6420 -1.6544  0.1533
 2042WAT     H2 6338   3.309   2.844   0.982 -0.5677  0.7020 -0.9086
 2043WAT      O 6339   3.990   0.923   3.868 -0.1608 -0.2708  0.0758
 2043WAT     H1 6340   3.939   0.931   3.948 -0.0979 -0.3691  0.1267
 2043WAT     H2 6341   4.033   1.008   3.858  0.3576 -0.4691  0.5110
 2044WAT      O 6342   0.667   0.575  -0.022  0.0775 -0.3538 -0.2566
 2044WAT     H1 6343   0.623   0.495   0.006  0.5924 -0.6398 -0.2702
 2044WAT     H2 6344   0.754   0.570   0.018  0.4884 -0.3102 -1.1327
 2045WAT      O 6345   3.249   4.761   0.645 -0.1603 -0.0730 -0.2240
 2045WAT     H1 6346   3.326   4.796   0.599  0.7699 -0.3381  1.0677
 2045WAT     H2 6347   3.183   4.750   0.576  0.6152  1.0955 -1.2106
 2046WAT      O 6348   3.453   4.212   0.714  0.0618  0.6854  0.4467
 2046WAT     H1 6349   3.376   4.208   0.770  0.2297  0.7784  0.6835
 2046WAT     H2 6350   3.471   4.306   0.705  1.4030  0.6149  2.1136
 2047WAT      O 6351   0.174   1.454   0.927 -0.3136  0.3059  0.4895
 2047WAT     H1 6352   0.106   1.436   0.862  0.3980  0.8376 -0.4259
 2047WAT     H2 6353   0.170   1.380   0.988 -0.4912 -0.6003 -0.5984
 2048WAT      O 6354   3.733   2.167   1.473 -0.0035  0.2748  0.0987
 2048WAT     H1 6355   3.727   2.262   1.463 -1.2025  0.4634  2.0863
 2048WAT     H2 6356   3.821   2.146   1.442  0.7740  2.2090  0.8028
 2049WAT      O 6357   1.552   3.189   4.832 -0.1363 -0.0370 -0.5448
 2049WAT     H1 6358   1.583   3.140   4.908  0.0486  0.0641 -0.5527
 2049WAT     H2 6359   1.464   3.156   4.816 -0.1006 -0.2004 -0.4082
 2050WAT      O 6360   2.748   1.492   0.698 -0.2719 -0.2771 -0.0498
 2050WAT     H1 6361   2.809   1.425   0.667  0.1360  0.6896 -1.4381
 2050WAT     H2 6362   2.661   1.455   0.681 -0.0751 -1.0422  0.5584
 2051WAT      O 6363   0.305   4.248   3.886 -0.4283 -0.3447  0.1558
 2051WAT     H1 6364   0.311   4.341   3.864 -1.2122 -0.0044  1.2940
 2051WAT     H2 6365   0.279   4.247   3.979  1.0766 -1.6880  0.6131
 2052WAT      O 6366   3.600   2.515   5.046  0.0826  0.3177  0.1613
 2052WAT     H1 6367   3.637   2.539   5.131 -0.3891 -0.4069  0.5787
 2052WAT     H2 6368   3.616   2.591   4.991  1.4937  0.3263  0.5500
 2053WAT      O 6369   2.192   3.094   0.222  0.6797  0.3922 -0.3459
 2053WAT     H1 6370   2.245   3.031   0.174  0.7901  0.6753 -0.5988
 2053WAT     H2 6371   2.245   3.174   0.223 -0.0212  0.8884 -1.1880
 2054WAT      O 6372   0.461   0.847   1.225 -0.0183  0.5156 -0.1577
 2054WAT     H1 6373   0.448   0.873   1.316  0.7400 -1.7887  0.6873
 2054WAT     H2 6374   0.545   0.802   1.225  0.8600  2.0096 -2.4069
 2055WAT      O 6375   2.019   4.883   3.185 -0.2957  0.2874  0.1159
 2055WAT     H1 6376   2.017   4.866   3.279 -0.8202 -0.2852  0.0104
 2055WAT     H2 6377   2.064   4.967   3.176  1.4774 -0.5342  0.7506
 2056WAT      O 6378   2.879   0.158   3.595 -0.3462  0.5032 -0.0678
 2056WAT     H1 6379   2.798   0.210   3.591 -0.5383  0.2763  0.6146
 2056WAT     H2 6380   2.873   0.112   3.679 -0.0455 -0.4089 -0.5387
 2057WAT      O 6381   0.552   4.500   1.583 -0.2231  1.3040  0.1416
 2057WAT     H1 6382   0.591   4.433   1.527  0.6747 -1.1494  3.3778
 2057WAT     H2 6383   0.474   4.529   1.536 -0.0263 -1.2183 -1.9250
 2058WAT      O 6384   1.037   5.103   0.571 -0.1500 -0.2052 -0.2574
 2058WAT     H1 6385   0.961   5.090   0.516  1.5478  0.0544 -2.8374
 2058WAT     H2 6386   1.078   5.182   0.537  1.3494 -0.3961  0.9758
 2059WAT      O 6387   2.610   1.825   3.616  0.2068  0.0855 -0.0823
 2059WAT     H1 6388   2.594   1.844   3.523 -0.2335 -0.1474 -0.0578
 2059WAT     H2 6389   2.573   1.738   3.629  2.6995 -1.1203 -0.3395
 2060WAT      O 6390   2.218   1.984   4.208  0.5665  0.4488 -0.8551
 2060WAT     H1 6391   2.176   2.061   4.169 -1.8610 -1.3137 -1.9473
 2060WAT     H2 6392   2.259   1.939   4.134  0.5135 -0.1648 -0.5190
 2061WAT      O 6393   3.624   1.093   3.565  0.9008  0.4529 -0.1006
 2061WAT     H1 6394   3.683   1.155   3.522 -0.2070  0.2924 -1.9514
 2061WAT     H2 6395   3.652   1.007   3.534  0.4490  0.2837 -0.0526
 2062WAT      O 6396   0.480   1.938   1.943  0.5096  0.0139  0.3298
 2062WAT     H1 6397   0.538   2.002   1.984  3.0406 -0.5167 -2.1545
 2062WAT     H2 6398   0.466   1.970   1.854 -1.7883 -0.7167  0.3525
 2063WAT      O 6399   1.958   1.147   0.515  0.1842  0.2022 -0.6562
 2063WAT     H1 6400   1.948   1.075   0.577 -0.2218  1.5068  0.8634
 2063WAT     H2 6401   1.869   1.166   0.486  0.1623  0.8259 -0.1831
 2064WAT      O 6402   3.734   1.460   3.019 -0.6388 -0.6595 -0.1666
 2064WAT     H1 6403   3.739   1.432   3.110 -0.1594  1.0124  0.3617
 2064WAT     H2 6404   3.646   1.434   2.990 -1.0640 -0.5607  1.0070
 2065WAT      O 6405   1.400   3.268   4.093 -0.5742  0.3754  0.2239
 2065WAT     H1 6406   1.394   3.355   4.053  0.0385  0.1132 -0.4665
 2065WAT     H2 6407   1.456   3.281   4.170  0.9010  0.3026 -0.7971
 2066WAT      O 6408   1.064   2.435   4.082  0.1036  0.0383 -0.7897
 2066WAT     H1 6409   1.125   2.411   4.012  1.2288 -0.7482  0.4196
 2066WAT     H2 6410   1.095   2.387   4.159 -1.0970  0.8778  0.2646
 2067WAT      O 6411   2.364   0.643   0.225 -0.0187 -0.3117 -0.4412
 2067WAT     H1 6412   2.311   0.572   0.262 -0.9993 -0.0142 -1.2338
 2067WAT     H2 6413   2.443   0.643   0.279 -0.4217 -1.3586  0.2038
 2068WAT      O 6414   1.919   2.393   3.126  0.1051  0.1204 -0.5028
 2068WAT     H1 6415   1.836   2.415   3.084  0.4247  1.6776 -0.3770
 2068WAT     H2 6416   1.908   2.421   3.217 -0.5628 -3.1827  0.5566
 2069WAT      O 6417   3.129   4.017   4.969 -0.4076  0.2101  0.1129
 2069WAT     H1 6418   3.222   4.012   4.994 -0.6507  0.2193  1.0273
 2069WAT     H2 6419   3.094   4.090   5.020 -0.7747  0.6352 -0.7289
 2070WAT      O 6420   2.486   0.497  -0.006 -0.0207  0.0639 -0.4051
 2070WAT     H1 6421   2.462   0.554   0.067 -0.0945 -0.0668 -0.3262
 2070WAT     H2 6422   2.544   0.431   0.032  0.5525  0.4392 -0.6192
 2071WAT      O 6423   1.365   0.859   2.441 -0.6519  0.7024  0.3906
 2071WAT     H1 6424   1.461   0.854   2.446 -0.6805 -0.4850 -0.0786
 2071WAT     H2 6425   1.335   0.798   2.508 -1.0514 -1.8591 -1.9744
 2072WAT      O 6426   1.069   1.542   2.639 -0.4029 -0.1317 -0.0614
 2072WAT     H1 6427   1.051   1.596   2.561 -2.0135 -0.0340  0.3454
 2072WAT     H2 6428   1.000   1.566   2.701 -0.1260 -1.4288  0.7799
 2073WAT      O 6429   3.622   5.092   0.719 -0.0724  0.0379 -0.4809
 2073WAT     H1 6430   3.685   5.149   0.763 -0.8713  1.2752 -0.8983
 2073WAT     H2 6431   3.611   5.018   0.779  0.1035  0.8881  0.6216
 2074WAT      O 6432   1.842   4.345   3.086  0.5443 -0.0703  0.3398
 2074WAT     H1 6433   1.817   4.343   2.994 -0.1950 -0.0240  0.5299
 2074WAT     H2 6434   1.802   4.425   3.121  1.9892  0.6658  0.3966
 2075WAT      O 6435   0.025   0.440   4.479  0.6410 -0.5836  0.0088
 2075WAT     H1 6436  -0.014   0.464   4.395  0.5008 -0.7555  0.0265
 2075WAT     H2 6437   0.119   0.440   4.462  0.5817 -1.3203 -0.3275
 2076WAT      O 6438   0.933   0.559   0.068 -0.0704 -0.0111 -0.6762
 2076WAT     H1 6439   0.946   0.476   0.115 -0.2741  0.8179  0.9240
 2076WAT     H2 6440   1.011   0.569   0.015  1.6488  0.3735  1.7290
 2077WAT      O 6441   2.370   4.550   1.392  0.5798 -0.0232 -0.1572
 2077WAT     H1 6442   2.289   4.574   1.347  0.3287 -0.5300  0.0119
 2077WAT     H2 6443   2.348   4.551   1.485  0.6673 -0.4953 -0.1253
 2078WAT      O 6444   3.827   4.316   1.808  0.4064 -0.4311  0.6165
 2078WAT     H1 6445   3.885   4.329   1.733 -0.9520 -0.0562 -0.4049
 2078WAT     H2 6446   3.850   4.387   1.868 -2.4610  3.1193 -2.0716
 2079WAT      O 6447   0.316   0.585   3.401  0.4891  0.2672 -0.7512
 2079WAT     H1 6448   0.349   0.674   3.394  1.9121 -0.0936  0.7212
 2079WAT     H2 6449   0.384   0.531   3.362  0.4638 -0.2922 -0.0468
 2080WAT      O 6450   0.878   3.658   2.646 -0.4068 -0.2640  0.0172
 2080WAT     H1 6451   0.784   3.661   2.662 -0.5971 -2.0256 -0.5796
 2080WAT     H2 6452   0.905   3.750   2.647 -1.7900  0.1911  1.9909
 2081WAT      O 6453   2.738   1.224   4.393  0.0896  0.3930  0.3935
 2081WAT     H1 6454   2.742   1.316   4.419  0.2799  0.9023 -1.3292
 2081WAT     H2 6455   2.655   1.193   4.429  0.5828  0.8687  2.0370
 2082WAT      O 6456   1.324   4.381   3.322  0.1438  0.6866  0.7290
 2082WAT     H1 6457   1.288   4.463   3.288  1.1064  1.0273  0.5048
 2082WAT     H2 6458   1.263   4.314   3.291  0.3467  1.1139 -0.6664
 2083WAT      O 6459   0.516   3.568   4.706 -0.1236 -0.1283 -0.1288
 2083WAT     H1 6460   0.428   3.603   4.707 -0.7948 -1.7320  1.0955
 2083WAT     H2 6461   0.572   3.644   4.693 -1.6203  1.0476  0.0764
 2084WAT      O 6462   2.014   3.338   3.583 -0.2634  0.1641 -0.0554
 2084WAT     H1 6463   2.091   3.283   3.599 -1.1602 -0.9818  0.4763
 2084WAT     H2 6464   2.008   3.394   3.660 -1.0898 -1.1486  0.8771
 2085WAT      O 6465   1.086   4.591   5.021  0.0597 -0.2930  0.3148
 2085WAT     H1 6466   1.142   4.571   4.945  2.0028  1.4494  1.2019
 2085WAT     H2 6467   1.019   4.650   4.986 -0.5848 -1.4565 -0.5121
 2086WAT      O 6468   1.138   0.209   0.537 -0.0758  0.2768 -0.1607
 2086WAT     H1 6469   1.158   0.219   0.444 -1.4350  0.0732 -0.4977
 2086WAT     H2 6470   1.219   0.232   0.581  0.0669  2.2352 -1.3219
 2087WAT      O 6471   0.379   3.069   5.330  0.4199 -0.1160 -0.2992
 2087WAT     H1 6472   0.399   3.030   5.245 -0.9867  0.4935 -0.9444
 2087WAT     H2 6473   0.422   3.154   5.328  1.6559 -0.7038  0.2329
 2088WAT      O 6474   2.261   1.793   2.784  0.0691  0.1922 -0.3649
 2088WAT     H1 6475   2.214   1.844   2.850 -1.5922 -0.7662 -0.7449
 2088WAT     H2 6476   2.340   1.763   2.829 -0.8518 -0.1434  1.0994
 2089WAT      O 6477   2.306   4.539   1.648 -0.3808  0.2233  0.0491
 2089WAT     H1 6478   2.286   4.446   1.656  0.2518  0.0696 -0.1323
 2089WAT     H2 6479   2.225   4.583   1.673 -0.0065 -0.3302  2.4858
 2090WAT      O 6480   0.389   3.661   0.240 -0.5738  0.1534 -0.1590
 2090WAT     H1 6481   0.332   3.592   0.274 -0.6296  0.8792  1.2970
 2090WAT     H2 6482   0.462   3.665   0.303 -0.0689  0.7415 -0.7710
 2091WAT      O 6483   1.527   1.194   4.345  0.2057 -0.0988  0.0791
 2091WAT     H1 6484   1.473   1.256   4.297  1.5165  1.3352  0.3626
 2091WAT     H2 6485   1.474   1.115   4.351 -3.1996  2.0816  2.9356
 2092WAT      O 6486   1.158   4.971   2.513 -0.0330  0.3511 -0.1925
 2092WAT     H1 6487   1.064   4.967   2.498 -0.0758  1.4323 -0.2969
 2092WAT     H2 6488   1.187   4.880   2.512 -0.8195  0.0952 -1.8157
 2093WAT      O 6489   3.059   2.445   4.929  0.1088  0.1599 -0.1718
 2093WAT     H1 6490   3.059   2.379   4.998  0.1527  0.8963  0.5446
 2093WAT     H2 6491   3.149   2.477   4.928 -0.2727  1.2939  0.5511
 2094WAT      O 6492   0.983   4.412   0.863 -0.1789 -0.2863 -0.5067
 2094WAT     H1 6493   1.031   4.481   0.817 -1.5218  1.2614  0.3331
 2094WAT     H2 6494   1.018   4.413   0.952  0.1571 -1.0759 -0.6172
 2095WAT      O 6495   1.130   3.129   3.431  0.6913  0.2071  0.3759
 2095WAT     H1 6496   1.073   3.071   3.380  0.7761 -0.1564  0.6898
 2095WAT     H2 6497   1.151   3.079   3.509  0.0751  0.9921  1.0657
 2096WAT      O 6498   1.461   2.250   5.299  0.1499  0.0258  0.6195
 2096WAT     H1 6499   1.507   2.187   5.355  0.9298 -1.3023 -1.4092
 2096WAT     H2 6500   1.531   2.298   5.255 -0.4023 -0.3189 -0.6727
 2097WAT      O 6501   4.310   2.859   0.732  0.5122  0.7542  0.4442
 2097WAT     H1 6502   4.394   2.885   0.693  1.4051  0.0862  1.8265
 2097WAT     H2 6503   4.304   2.765   0.714  0.0661  0.7992  0.3657
 2098WAT      O 6504   2.248   1.591   3.030  0.0380  0.0787 -0.2262
 2098WAT     H1 6505   2.274   1.651   3.100  0.5366 -0.2165 -0.1560
 2098WAT     H2 6506   2.177   1.539   3.068 -0.6462  0.8686 -0.4086
 2099WAT      O 6507   3.158   1.990   3.099 -0.2521 -0.4680 -0.7640
 2099WAT     H1 6508   3.114   1.919   3.054  0.3547 -0.3492 -1.5602
 2099WAT     H2 6509   3.088   2.048   3.129 -0.6889 -0.8774 -0.9975
 2100WAT      O 6510   3.963   0.847   2.374 -0.7322  0.1485  0.0107
 2100WAT     H1 6511   3.996   0.817   2.290 -0.1372 -2.3078  1.0068
 2100WAT     H2 6512   3.998   0.935   2.385 -0.2981  0.2582 -1.9916
 2101WAT      O 6513   3.318   4.614   3.761  0.5496  0.5921 -0.1927
 2101WAT     H1 6514   3.333   4.666   3.682 -0.2112 -0.0420 -0.7720
 2101WAT     H2 6515   3.363   4.532   3.744  0.4060  0.4641  0.0493
 2102WAT      O 6516   1.805   2.705   1.734  0.8417  0.0196 -0.1752
 2102WAT     H1 6517   1.756   2.652   1.671  0.6558  0.9282 -0.8134
 2102WAT     H2 6518   1.897   2.690   1.711  0.7752  0.3510 -0.6754
 2103WAT      O 6519   2.116   3.976   3.721  0.2951 -0.4197 -0.1630
 2103WAT     H1 6520   2.080   3.900   3.768  1.5058 -0.8276  0.1413
 2103WAT     H2 6521   2.193   4.001   3.772 -0.2612  1.2427 -0.0746
 2104WAT      O 6522   3.549   1.718   2.908 -0.1550 -0.0555  0.5841
 2104WAT     H1 6523   3.466   1.688   2.873  0.7974 -0.3038 -1.5888
 2104WAT     H2 6524   3.552   1.811   2.886  0.7586 -0.3661 -0.7298
 2105WAT      O 6525   1.321   2.051   1.013  0.0327 -0.5314  0.3741
 2105WAT     H1 6526   1.256   2.118   1.030  0.9907  0.1408  1.5699
 2105WAT     H2 6527   1.286   2.001   0.939 -1.2181  0.5829  0.1836
 2106WAT      O 6528   0.779   2.476   0.999  0.0592 -0.0717 -0.2167
 2106WAT     H1 6529   0.696   2.524   0.993  0.0224 -0.2498 -1.3377
 2106WAT     H2 6530   0.758   2.388   0.967  0.9104  0.1927 -1.5644
 2107WAT      O 6531   0.530   4.286   1.194  0.5111  0.2277  0.0147
 2107WAT     H1 6532   0.530   4.196   1.229 -0.2711 -0.1105 -0.8228
 2107WAT     H2 6533   0.448   4.293   1.146  1.6967  0.5480 -2.0713
 2108WAT      O 6534   2.409   0.646   0.576 -0.4787  0.1045  0.2611
 2108WAT     H1 6535   2.473   0.622   0.509 -2.5412  0.7466 -2.1060
 2108WAT     H2 6536   2.407   0.571   0.635  0.0539 -1.3962 -1.5162
 2109WAT      O 6537   0.271   1.874   0.059  0.2001  0.3075 -0.4284
 2109WAT     H1 6538   0.344   1.932   0.036  0.3604  0.4971  0.4789
 2109WAT     H2 6539   0.193   1.927   0.044  0.2000 -0.1285 -2.0555
 2110WAT      O 6540   0.365   5.027   4.695  1.0070  0.2143 -0.3102
 2110WAT     H1 6541   0.288   4.981   4.729  0.9303  0.7110  0.2128
 2110WAT     H2 6542   0.373   5.104   4.752  0.9535  1.0072 -1.3518
 2111WAT      O 6543   2.059   0.757   0.374 -0.1579 -0.1554 -0.8332
 2111WAT     H1 6544   2.090   0.746   0.464 -1.6439  0.6469 -0.1920
 2111WAT     H2 6545   2.075   0.673   0.332  0.6175 -0.5159  0.1633
 2112WAT      O 6546   3.848   0.546   0.886  0.3200  0.0392 -0.1303
 2112WAT     H1 6547   3.773   0.570   0.940  0.5498 -0.2963  0.3467
 2112WAT     H2 6548   3.907   0.621   0.892  0.8165 -0.4055  0.9562
 2113WAT      O 6549   0.151   4.902   0.063  0.1449 -0.0441  0.1160
 2113WAT     H1 6550   0.120   4.836   0.125  0.3088 -1.2752 -1.0627
 2113WAT     H2 6551   0.231   4.937   0.104 -0.9451  0.8112  1.6242
 2114WAT      O 6552   2.722   0.792   3.499  0.1654 -0.1579 -0.5116
 2114WAT     H1 6553   2.710   0.834   3.414  0.2477  1.2884  0.1628
 2114WAT     H2 6554   2.809   0.754   3.496 -0.1072 -0.7376 -1.3195
 2115WAT      O 6555   0.908   2.260   0.459 -0.2056 -0.5775 -0.0868
 2115WAT     H1 6556   0.991   2.214   0.446 -0.1473 -1.1663  2.0161
 2115WAT     H2 6557   0.906   2.279   0.553 -1.1063  2.0976 -0.5622
 2116WAT      O 6558   1.893   4.699   5.111 -0.1820  0.1219  0.1501
 2116WAT     H1 6559   1.877   4.792   5.099 -1.1951 -0.1329 -0.5401
 2116WAT     H2 6560   1.957   4.677   5.043 -0.1715  0.2500  0.1179
 2117WAT      O 6561   2.572   0.578   0.862 -0.1962 -0.8267 -0.1991
 2117WAT     H1 6562   2.566   0.588   0.957  0.3553 -0.4026 -0.2036
 2117WAT     H2 6563   2.520   0.650   0.827  0.5705 -0.2707 -0.2169
 2118WAT      O 6564   4.333   0.216   2.814  0.2489  0.1224  0.4470
 2118WAT     H1 6565   4.428   0.208   2.823  0.6093 -0.7046 -2.8633
 2118WAT     H2 6566   4.319   0.303   2.777 -0.3471  0.4464  1.4137
 2119WAT      O 6567   0.228   0.368   2.716 -0.2843  0.5438 -0.2368
 2119WAT     H1 6568   0.191   0.298   2.770  0.1575  0.4742 -0.0142
 2119WAT     H2 6569   0.280   0.420   2.778  2.0613 -0.8161 -0.9658
 2120WAT      O 6570   2.047   1.357   0.034 -0.1517 -1.2146  0.0906
 2120WAT     H1 6571   2.075   1.300   0.105 -1.2385 -0.7107  0.9586
 2120WAT     H2 6572   2.048   1.445   0.073 -2.4216 -1.1248  0.0414
 2121WAT      O 6573   0.698   3.611   4.379  0.1875  0.5337 -0.1040
 2121WAT     H1 6574   0.724   3.519   4.375 -0.0443  0.4913 -0.7873
 2121WAT     H2 6575   0.671   3.625   4.469 -1.1457 -0.4458 -0.3272
 2122WAT      O 6576   3.101   1.666   3.338 -0.1179  0.5244  0.2533
 2122WAT     H1 6577   3.140   1.710   3.413  0.2601  1.1893 -0.3113
 2122WAT     H2 6578   3.007   1.668   3.354 -0.1221  1.6748  0.1919
 2123WAT      O 6579   2.097   3.912   0.424 -0.4288 -0.3395 -0.3667
 2123WAT     H1 6580   2.057   3.842   0.372 -0.9991  1.2234 -2.1773
 2123WAT     H2 6581   2.033   3.930   0.493 -0.0012 -1.9620  0.4839
 2124WAT      O 6582   0.153   1.905   1.191  0.3142 -0.0956  0.0562
 2124WAT     H1 6583   0.244   1.893   1.165  0.4572 -0.6031  0.7583
 2124WAT     H2 6584   0.102   1.874   1.116  0.6996  0.8803 -0.6457
 2125WAT      O 6585   1.866   1.727   1.796 -0.2325 -0.3091  0.0394
 2125WAT     H1 6586   1.867   1.642   1.840  0.9053  0.0610  0.7770
 2125WAT     H2 6587   1.866   1.791   1.867  0.5679  0.3067 -0.4980
 2126WAT      O 6588   4.442   2.471   4.184  0.0592 -0.0091  0.0130
 2126WAT     H1 6589   4.440   2.565   4.161 -0.5142  0.0422  0.2420
 2126WAT     H2 6590   4.448   2.470   4.279  2.7484 -0.2272 -0.0874
 2127WAT      O 6591   1.849   1.117   4.620 -0.2431 -0.1340 -0.6126
 2127WAT     H1 6592   1.882   1.036   4.581  1.2477 -0.5086  1.3014
 2127WAT     H2 6593   1.914   1.183   4.596 -0.3153  0.0305 -0.3590
 2128WAT      O 6594   1.807   1.866   1.577 -0.2252 -0.3058 -0.0152
 2128WAT     H1 6595   1.884   1.910   1.543  0.1919 -1.3051 -0.3809
 2128WAT     H2 6596   1.840   1.811   1.648 -0.5690 -0.8810 -0.2980
 2129WAT      O 6597   0.318   1.667   1.162  0.3256  0.0854  0.2112
 2129WAT     H1 6598   0.253   1.602   1.135  1.9375 -0.9702 -1.4319
 2129WAT     H2 6599   0.364   1.689   1.081  3.2051 -0.6451  1.5171
 2130WAT      O 6600   1.680   1.862   4.570  0.0118 -0.2198  0.2431
 2130WAT     H1 6601   1.699   1.773   4.539 -0.6874 -0.5013  0.5910
 2130WAT     H2 6602   1.760   1.912   4.551  0.3430 -0.8757 -0.1265
 2131WAT      O 6603   2.803   4.920   0.602  0.0231  0.4969  0.1585
 2131WAT     H1 6604   2.792   5.012   0.580  1.0410  0.7782  0.7707
 2131WAT     H2 6605   2.726   4.877   0.564 -1.0562  1.7568  0.8223
 2132WAT      O 6606   3.077   3.902   0.885 -0.3455  0.1782  0.8325
 2132WAT     H1 6607   3.166   3.915   0.853 -1.1741  1.1083 -1.3082
 2132WAT     H2 6608   3.023   3.958   0.829 -2.5597 -2.0976  0.4881
 2133WAT      O 6609   4.375   3.959   5.191 -0.0889 -0.6212  0.4213
 2133WAT     H1 6610   4.462   3.999   5.195  0.0296 -0.8736  0.4276
 2133WAT     H2 6611   4.386   3.885   5.131 -1.0267  1.1265 -2.0752
 2134WAT      O 6612   2.733   1.916   5.204  0.0545 -0.1642  0.1901
 2134WAT     H1 6613   2.716   1.906   5.110  0.8954  0.4989 -0.0483
 2134WAT     H2 6614   2.652   1.887   5.246 -0.6276  0.2989 -0.7630
 2135WAT      O 6615   0.490   4.347   5.114  0.1754  0.3069  0.6412
 2135WAT     H1 6616   0.486   4.421   5.054 -3.0159  0.4472  0.8742
 2135WAT     H2 6617   0.488   4.270   5.058 -3.5725  0.4215  0.3882
 2136WAT      O 6618   4.055   2.237   3.456 -0.0094 -0.2422 -0.3828
 2136WAT     H1 6619   3.975   2.282   3.484 -0.1740 -0.1205 -1.0497
 2136WAT     H2 6620   4.087   2.196   3.536 -0.3193  0.3506  0.0571
 2137WAT      O 6621   0.759   3.955   1.090 -0.3022 -0.2668  0.3495
 2137WAT     H1 6622   0.766   3.970   0.996 -1.0684 -0.1653  0.2977
 2137WAT     H2 6623   0.842   3.986   1.127 -0.3851  0.6113 -0.1792
 2138WAT      O 6624   3.066   2.416   4.123  0.0706  0.0954  0.6083
 2138WAT     H1 6625   3.078   2.340   4.179  0.0391  0.9267  1.7871
 2138WAT     H2 6626   2.972   2.432   4.123  0.0066 -0.2489 -0.1756
 2139WAT      O 6627   3.125   3.698   0.403 -0.5091 -0.7653  0.2861
 2139WAT     H1 6628   3.207   3.745   0.418 -0.8377 -0.1554  0.2172
 2139WAT     H2 6629   3.102   3.661   0.488  0.3880 -1.8594  0.0740
 2140WAT      O 6630   3.039   4.490   1.041  0.2437  0.3588  0.1844
 2140WAT     H1 6631   3.090   4.564   1.008 -0.2083  0.7934  0.4579
 2140WAT     H2 6632   3.098   4.415   1.031  1.7836  1.1750  2.5012
 2141WAT      O 6633   1.282   0.375   1.081 -0.0289 -0.2318 -0.2808
 2141WAT     H1 6634   1.204   0.322   1.069  0.3881 -0.3871 -2.7544
 2141WAT     H2 6635   1.258   0.461   1.047  0.4779  0.0918  0.1599
 2142WAT      O 6636   1.012   3.239   2.884 -0.0978  0.0716 -0.5816
 2142WAT     H1 6637   1.052   3.239   2.971  1.5822  2.1997 -1.2660
 2142WAT     H2 6638   0.920   3.260   2.899  0.2843  0.9189  0.6517
 2143WAT      O 6639   1.076   2.479   0.163 -0.3643  0.2470  0.0247
 2143WAT     H1 6640   1.112   2.509   0.246 -0.9728 -1.0049  0.7830
 2143WAT     H2 6641   1.019   2.405   0.187  0.1809 -0.7616 -1.5786
 2144WAT      O 6642   3.919   0.040   1.274 -0.3246  0.0692  0.0280
 2144WAT     H1 6643   3.865   0.112   1.307 -0.8427  0.1255 -0.9221
 2144WAT     H2 6644   3.911   0.045   1.179 -0.2744 -1.1854 -0.0597
 2145WAT      O 6645   2.460   4.441   3.987 -0.6192 -0.1954 -0.2663
 2145WAT     H1 6646   2.482   4.531   3.966 -0.4530  0.0076  0.7227
 2145WAT     H2 6647   2.544   4.398   4.003 -0.7426 -0.2798  0.1840
 2146WAT      O 6648   1.543   2.604   3.752  0.0504  0.0149 -0.2694
 2146WAT     H1 6649   1.547   2.616   3.847 -0.3817 -0.2422 -0.2160
 2146WAT     H2 6650   1.572   2.688   3.716 -1.0308  0.5576  0.0962
 2147WAT      O 6651   4.226   3.531   0.428 -0.5930 -0.2212 -0.1175
 2147WAT     H1 6652   4.136   3.500   0.442 -0.9944  1.1723  0.6437
 2147WAT     H2 6653   4.215   3.615   0.384  0.3714 -0.2748 -0.4789
 2148WAT      O 6654   0.786   4.369   1.858  0.0589  0.1666  0.6317
 2148WAT     H1 6655   0.816   4.415   1.779 -1.2960 -0.4433 -0.2791
 2148WAT     H2 6656   0.815   4.424   1.930  4.0387 -0.7540 -0.0515
 2149WAT      O 6657   4.445   2.160   4.891 -0.0859  0.5076  0.2480
 2149WAT     H1 6658   4.531   2.151   4.933  0.7177  1.5184 -1.1025
 2149WAT     H2 6659   4.399   2.225   4.943 -0.1598 -0.2384  1.1416
 2150WAT      O 6660   3.584   4.259   1.943  0.5152 -0.2191  0.2204
 2150WAT     H1 6661   3.609   4.218   2.025  0.2560 -1.8196 -0.4507
 2150WAT     H2 6662   3.665   4.266   1.893  0.5191 -0.1457  0.2368
 2151WAT      O 6663   2.481   3.792   4.559  0.1971  0.9433 -0.1360
 2151WAT     H1 6664   2.553   3.832   4.508  0.2408 -0.0894 -0.9125
 2151WAT     H2 6665   2.504   3.700   4.564 -1.0808  0.5982 -0.3991
 2152WAT      O 6666   1.378   3.505   4.854 -0.3017 -0.2357  0.1866
 2152WAT     H1 6667   1.379   3.470   4.943  1.4484 -1.1183 -0.1392
 2152WAT     H2 6668   1.418   3.436   4.801  1.4992  1.4789 -0.8023
 2153WAT      O 6669   2.783   0.128   2.602  0.2991 -0.6853  0.6298
 2153WAT     H1 6670   2.729   0.200   2.635  2.1192  0.1815  1.8554
 2153WAT     H2 6671   2.760   0.053   2.657 -0.2141 -0.5428  0.6121
 2154WAT      O 6672   4.055   4.802   1.777  0.3822 -0.5577 -0.2415
 2154WAT     H1 6673   4.092   4.796   1.689  1.3135  3.4065 -0.3056
 2154WAT     H2 6674   4.105   4.738   1.828  2.2787 -0.4704 -1.8607
 2155WAT      O 6675   1.311   2.271   0.310  0.0830  0.1302 -0.7771
 2155WAT     H1 6676   1.328   2.188   0.355  0.1128 -0.2830 -1.5320
 2155WAT     H2 6677   1.351   2.260   0.224 -1.3045  0.3197 -1.4743
 2156WAT      O 6678   1.683   4.258   4.531  0.5643  0.0225 -0.1805
 2156WAT     H1 6679   1.626   4.314   4.477 -0.4718  0.0770  0.9328
 2156WAT     H2 6680   1.648   4.266   4.619  0.9395 -1.7210  0.1560
 2157WAT      O 6681   3.369   1.002   1.771 -0.4761  0.6880 -0.2312
 2157WAT     H1 6682   3.365   0.908   1.750 -2.5492  0.7408 -0.2273
 2157WAT     H2 6683   3.337   1.007   1.861  0.6718  1.3115  0.1582
 2158WAT      O 6684   4.536   1.768   0.574  0.9340 -0.1773 -0.4150
 2158WAT     H1 6685   4.563   1.683   0.541 -0.4761 -0.0414 -2.1174
 2158WAT     H2 6686   4.475   1.749   0.645 -0.3417 -0.6880 -1.5858
 2159WAT      O 6687   1.943   3.025   2.301  0.3268  0.4978  0.5953
 2159WAT     H1 6688   1.856   3.029   2.341 -0.1129  1.4832 -0.4082
 2159WAT     H2 6689   1.947   3.102   2.244  0.4238 -1.4100 -2.1916
 2160WAT      O 6690   1.053   1.175   0.216  0.1502  0.1661 -0.4634
 2160WAT     H1 6691   0.966   1.206   0.191  0.5166  1.4962 -0.1776
 2160WAT     H2 6692   1.039   1.124   0.296 -0.5525 -0.9963 -1.3046
 2161WAT      O 6693   2.023   1.467   3.161 -0.8540  0.5535  0.2371
 2161WAT     H1 6694   1.938   1.437   3.130 -0.5707 -0.6350  0.5563
 2161WAT     H2 6695   2.005   1.509   3.245 -1.1515  0.5256  0.1860
 2162WAT      O 6696   3.741   0.989   5.080 -0.2261 -0.2021 -0.2184
 2162WAT     H1 6697   3.704   0.966   4.995 -1.2485 -0.0272  0.1676
 2162WAT     H2 6698   3.666   1.019   5.132  0.5192  0.5415  0.4617
 2163WAT      O 6699   0.813   2.147   2.749 -0.3207  0.5805 -0.0499
 2163WAT     H1 6700   0.753   2.168   2.820 -0.2491 -0.5361  0.3684
 2163WAT     H2 6701   0.778   2.066   2.712  1.2410 -0.4422  0.6042
 2164WAT      O 6702   3.418   4.056   4.949  0.4952  0.1112  0.1902
 2164WAT     H1 6703   3.426   4.117   4.876  2.9670  1.1739  1.2554
 2164WAT     H2 6704   3.454   3.973   4.916  1.2015  0.4684  0.0521
 2165WAT      O 6705   3.346   0.159   1.392 -0.6353 -0.3117  0.2254
 2165WAT     H1 6706   3.400   0.160   1.471 -0.0636  0.7800 -0.1566
 2165WAT     H2 6707   3.371   0.078   1.348  2.9867  1.4344 -1.4214
 2166WAT      O 6708   4.349   2.120   4.090  0.3292 -0.5110  0.1321
 2166WAT     H1 6709   4.353   2.025   4.079 -0.3083 -0.6312  0.9005
 2166WAT     H2 6710   4.256   2.141   4.082  0.0570 -0.3414  2.8929
 2167WAT      O 6711   1.458   2.123   3.688 -0.4061  0.4707  0.3127
 2167WAT     H1 6712   1.480   2.174   3.609  1.3679  1.2493  1.2494
 2167WAT     H2 6713   1.363   2.133   3.696 -0.5702  0.7843 -1.4374
 2168WAT      O 6714   0.438   4.630   3.165  0.4737 -0.0670  0.3772
 2168WAT     H1 6715   0.532   4.638   3.184  0.4995 -0.1881  0.3027
 2168WAT     H2 6716   0.421   4.536   3.174  0.8322 -0.3840 -1.8652
 2169WAT      O 6717   1.986   0.574   3.818  0.6703  0.4166  0.1606
 2169WAT     H1 6718   2.062   0.535   3.776 -0.0817 -0.4918 -0.3849
 2169WAT     H2 6719   1.936   0.500   3.852  0.0367  0.9938  0.5301
 2170WAT      O 6720   0.524   2.553   0.982  0.2947 -0.3670  0.1198
 2170WAT     H1 6721   0.463   2.488   0.948 -0.4303  0.2753  0.1548
 2170WAT     H2 6722   0.468   2.621   1.018  1.0419  0.4240 -0.1855
 2171WAT      O 6723   3.928   4.898   1.120  0.1291  0.9708 -0.2502
 2171WAT     H1 6724   4.000   4.940   1.073  0.0033  1.9469  0.4064
 2171WAT     H2 6725   3.947   4.804   1.114  1.7907  1.2260  0.4428
 2172WAT      O 6726   1.477   4.072   0.321  0.5681  0.2595  0.1522
 2172WAT     H1 6727   1.448   4.015   0.392  2.9287 -1.2340  0.0306
 2172WAT     H2 6728   1.398   4.117   0.292 -1.2606 -2.2289  0.9223
 2173WAT      O 6729   0.507   4.116   0.535 -0.4282 -0.6744  0.1812
 2173WAT     H1 6730   0.544   4.193   0.491  1.1046 -1.6379 -0.2977
 2173WAT     H2 6731   0.508   4.139   0.628 -0.0907 -0.0633  0.0350
 2174WAT      O 6732   1.905   3.696   2.086  0.1317 -0.2700  0.5257
 2174WAT     H1 6733   1.900   3.746   2.167  1.1621  1.6169 -0.5130
 2174WAT     H2 6734   1.835   3.630   2.094  0.3163 -0.2525  2.9754
 2175WAT      O 6735   1.909   1.550   0.624 -0.4663  0.4331 -0.0339
 2175WAT     H1 6736   1.903   1.496   0.545  0.2225  2.5231 -1.6285
 2175WAT     H2 6737   1.822   1.547   0.662 -0.8188 -0.6226 -0.8745
 2176WAT      O 6738   2.661   4.582   5.042  0.0244  0.3328 -0.3600
 2176WAT     H1 6739   2.604   4.531   4.984 -0.1540  0.2626 -0.1254
 2176WAT     H2 6740   2.618   4.667   5.050  0.0361  0.3340 -0.3102
 2177WAT      O 6741   2.118   2.212   0.582  0.1220  0.1825  0.4344
 2177WAT     H1 6742   2.035   2.188   0.623  0.3519 -1.6770 -0.0734
 2177WAT     H2 6743   2.093   2.249   0.497 -0.2144 -3.2107 -1.0984
 2178WAT      O 6744   4.202   2.644   3.559 -0.0287 -0.3307 -0.0171
 2178WAT     H1 6745   4.177   2.645   3.651 -0.1483  0.7095 -0.0473
 2178WAT     H2 6746   4.294   2.671   3.559  1.1635 -3.9006  0.0758
 2179WAT      O 6747   1.193   0.623   3.807  0.2982 -0.9589 -0.2094
 2179WAT     H1 6748   1.217   0.714   3.822 -0.2912 -1.1281  2.4249
 2179WAT     H2 6749   1.260   0.573   3.854 -0.4376 -1.7658  0.0083
 2180WAT      O 6750   1.313   0.802   0.770 -0.5488  0.0562  0.3788
 2180WAT     H1 6751   1.303   0.744   0.694  1.1716  0.0262  0.1569
 2180WAT     H2 6752   1.296   0.890   0.735  1.0300  0.1311 -0.2395
 2181WAT      O 6753   2.235   3.643   4.463 -0.6802  0.5787  0.5685
 2181WAT     H1 6754   2.329   3.659   4.475 -1.1306  1.7581  3.3500
 2181WAT     H2 6755   2.196   3.665   4.548 -3.5664  0.7468 -0.6792
 2182WAT      O 6756   4.194   3.405   1.070 -0.0077 -0.4516  0.1442
 2182WAT     H1 6757   4.143   3.383   1.148  0.9222 -3.3488  0.0576
 2182WAT     H2 6758   4.273   3.445   1.104 -1.4249  2.4448  0.3584
 2183WAT      O 6759   0.119   2.179   1.547 -0.7724  0.0591 -0.1484
 2183WAT     H1 6760   0.065   2.157   1.470  1.5774  1.1303 -2.2540
 2183WAT     H2 6761   0.196   2.123   1.538  0.6086  1.8338  0.0637
 2184WAT      O 6762   3.655   1.515   1.949 -0.0299 -0.2477  0.5663
 2184WAT     H1 6763   3.612   1.430   1.942 -0.5860  0.1033 -0.5552
 2184WAT     H2 6764   3.749   1.495   1.948 -0.1585 -0.8607  0.5708
 2185WAT      O 6765   1.567   0.897   3.101  0.2990 -0.6141  0.2494
 2185WAT     H1 6766   1.549   0.823   3.160 -1.7483 -0.5556 -0.2235
 2185WAT     H2 6767   1.482   0.917   3.062  1.4015  0.0348 -1.9395
 2186WAT      O 6768   4.485   3.818   0.237  0.0937 -0.3603 -0.4340
 2186WAT     H1 6769   4.543   3.770   0.177 -1.0236 -0.9871 -1.0459
 2186WAT     H2 6770   4.397   3.797   0.207 -0.6279 -2.2807  2.5732
 2187WAT      O 6771   0.401   3.380   3.538 -0.2672 -0.4462  0.4713
 2187WAT     H1 6772   0.441   3.467   3.545 -0.7336 -0.0997 -0.8972
 2187WAT     H2 6773   0.342   3.376   3.613  0.6961 -0.1103  1.2858
 2188WAT      O 6774   4.290   0.319   4.224  0.0840 -0.3368  0.1895
 2188WAT     H1 6775   4.200   0.346   4.204  0.2813 -1.0439 -1.9085
 2188WAT     H2 6776   4.283   0.273   4.307 -0.8357  2.7935  2.0344
 2189WAT      O 6777   4.192   4.358   4.684 -0.0441 -0.3179  0.1007
 2189WAT     H1 6778   4.097   4.368   4.685 -0.2983 -1.8163 -1.6473
 2189WAT     H2 6779   4.219   4.403   4.604  1.0054  1.7440  1.5502
 2190WAT      O 6780   3.847   1.714   2.591  0.7110 -0.0014 -0.0294
 2190WAT     H1 6781   3.832   1.808   2.602  0.6088  0.0903 -0.8904
 2190WAT     H2 6782   3.780   1.687   2.528 -1.9688 -1.4698  3.1819
 2191WAT      O 6783   1.152   3.674   4.435  0.0941  0.3179 -0.5261
 2191WAT     H1 6784   1.246   3.681   4.453  0.5513 -0.1611 -2.4970
 2191WAT     H2 6785   1.144   3.602   4.372 -1.6599  0.0575 -0.0779
 2192WAT      O 6786   3.882   4.309   3.185  0.9660 -0.2617 -0.5219
 2192WAT     H1 6787   3.791   4.282   3.178  1.1153 -0.9735  0.1396
 2192WAT     H2 6788   3.882   4.402   3.160  0.0160 -0.1744 -0.2092
 2193WAT      O 6789   1.410   0.961   1.528 -0.0079 -0.2998 -0.1358
 2193WAT     H1 6790   1.317   0.943   1.544  0.0132 -0.0775  0.2362
 2193WAT     H2 6791   1.449   0.875   1.515  0.0899 -0.5630  1.6403
 2194WAT      O 6792   2.288   4.233   4.900 -0.0409  0.0219 -0.1170
 2194WAT     H1 6793   2.217   4.231   4.836  1.2417 -1.2545 -1.5825
 2194WAT     H2 6794   2.326   4.145   4.896  1.0653  0.3950  1.2856
 2195WAT      O 6795   2.121   5.052   1.477 -0.0778 -0.0939 -0.1747
 2195WAT     H1 6796   2.178   5.113   1.524  0.0096  0.3764 -0.8758
 2195WAT     H2 6797   2.170   4.969   1.476 -0.1101 -0.1307  0.6111
 2196WAT      O 6798   2.045   0.794   4.322  0.6495 -0.2841 -0.1209
 2196WAT     H1 6799   2.030   0.816   4.231  0.2140  1.0019  0.2432
 2196WAT     H2 6800   2.004   0.708   4.333 -2.3345  0.9716 -0.3719
 2197WAT      O 6801   2.613   1.281   5.068  0.0556  0.1992 -0.1441
 2197WAT     H1 6802   2.672   1.250   5.137  0.2749  0.1764 -0.3428
 2197WAT     H2 6803   2.556   1.206   5.051 -0.6224  0.5084  0.6781
 2198WAT      O 6804   1.823   0.753   3.636  0.3113  0.4232  0.2156
 2198WAT     H1 6805   1.845   0.839   3.671  0.3128  0.2739  0.5826
 2198WAT     H2 6806   1.889   0.694   3.673  0.5848  0.3381 -0.3935
 2199WAT      O 6807   1.151   4.366   1.957 -0.1007  0.3543  0.0184
 2199WAT     H1 6808   1.095   4.441   1.939 -0.9910 -0.4786 -0.8222
 2199WAT     H2 6809   1.239   4.396   1.935 -0.7281  0.4389 -2.7692
 2200WAT      O 6810   2.952   0.690   1.879 -0.0608  0.3067 -0.0356
 2200WAT     H1 6811   2.949   0.698   1.974 -1.7694 -2.5950  0.2888
 2200WAT     H2 6812   3.043   0.707   1.856  0.0181  2.9498  1.8368
 2201WAT      O 6813   3.717   1.481   3.307  0.1034 -0.2816  0.4097
 2201WAT     H1 6814   3.721   1.443   3.395 -0.6755 -0.3667  0.4170
 2201WAT     H2 6815   3.798   1.453   3.265 -0.2340 -1.5443  0.5822
 2202WAT      O 6816   2.006   0.988   1.449  0.1167 -0.1124 -0.0861
 2202WAT     H1 6817   2.094   0.952   1.462  1.2234  1.8001 -1.6222
 2202WAT     H2 6818   2.015   1.081   1.472 -0.6780  0.7777 -2.9451
 2203WAT      O 6819   2.552   2.318   2.442  0.6800 -0.0306  0.0693
 2203WAT     H1 6820   2.467   2.346   2.475  0.4469  0.9270 -1.2617
 2203WAT     H2 6821   2.573   2.240   2.493 -0.7501  0.0221  0.7851
 2204WAT      O 6822   2.443   3.054   3.870  0.0716 -0.2617 -0.0207
 2204WAT     H1 6823   2.385   3.116   3.826  0.3111 -0.8061 -1.1162
 2204WAT     H2 6824   2.398   3.035   3.953 -1.0484 -0.2346 -0.5948
 2205WAT      O 6825   3.640   5.118   3.229  0.2786 -0.1733 -0.3305
 2205WAT     H1 6826   3.619   5.050   3.166 -0.5953 -1.6134  1.4208
 2205WAT     H2 6827   3.659   5.196   3.176 -0.2810 -1.3412 -2.3232
 2206WAT      O 6828   2.862   1.732   2.721  0.1992  0.1066 -1.0304
 2206WAT     H1 6829   2.845   1.797   2.653 -1.3822  0.4393 -0.3562
 2206WAT     H2 6830   2.890   1.784   2.796  0.3300 -0.1148 -0.9284
 2207WAT      O 6831   2.680   2.544   0.817 -0.1046 -0.0534  0.3663
 2207WAT     H1 6832   2.599   2.523   0.864  0.2834  0.1999  1.1662
 2207WAT     H2 6833   2.739   2.578   0.885  0.1299  1.2804 -0.4677
 2208WAT      O 6834   3.329   3.024   0.293 -0.4647 -0.0147  0.2620
 2208WAT     H1 6835   3.239   3.036   0.324 -0.1229  1.4336  0.7977
 2208WAT     H2 6836   3.348   3.104   0.243  0.2077 -0.7382 -0.6761
 2209WAT      O 6837   3.412   2.466   0.435 -0.1725 -0.8125 -0.0765
 2209WAT     H1 6838   3.432   2.483   0.342 -0.0641  1.7003  0.3490
 2209WAT     H2 6839   3.493   2.429   0.470  0.9367  1.2707 -0.3024
 2210WAT      O 6840   2.028   3.527   0.795 -0.3207 -0.0581  0.1170
 2210WAT     H1 6841   2.083   3.462   0.751 -0.8521 -0.5706  0.1982
 2210WAT     H2 6842   2.060   3.528   0.885  1.3049  1.5771 -0.4329
 2211WAT      O 6843   0.770   1.340   3.168  0.7637  0.2451 -0.1765
 2211WAT     H1 6844   0.834   1.364   3.101 -0.5974  1.6746 -1.0421
 2211WAT     H2 6845   0.823   1.311   3.242  2.3307 -1.4438 -1.8457
 2212WAT      O 6846   0.580   3.018   4.372 -0.2116  0.3261  0.3884
 2212WAT     H1 6847   0.583   3.043   4.280  0.5097 -0.9338  0.0377
 2212WAT     H2 6848   0.584   2.922   4.371 -1.9064  0.1810  1.6691
 2213WAT      O 6849   3.343   1.870   3.241 -0.6946  0.2124  0.1898
 2213WAT     H1 6850   3.416   1.863   3.180 -1.0300  0.2129 -0.2182
 2213WAT     H2 6851   3.265   1.871   3.185 -1.1755 -2.1859  0.6988
 2214WAT      O 6852   4.320   3.166   4.456  0.2623 -0.4104  0.1434
 2214WAT     H1 6853   4.281   3.252   4.469  1.0869  0.2701 -1.5357
 2214WAT     H2 6854   4.321   3.154   4.361  2.5260 -1.1295  0.1954
 2215WAT      O 6855   0.005   2.229   2.391 -0.0000  0.2438 -0.3951
 2215WAT     H1 6856   0.009   2.257   2.482  1.4427 -1.1408  0.0077
 2215WAT     H2 6857  -0.002   2.310   2.341  1.6104  1.1777  0.8175
 2216WAT      O 6858   1.744   3.254   3.997  0.4798 -0.2792  0.3099
 2216WAT     H1 6859   1.746   3.258   3.902 -0.0299  1.3951  0.3281
 2216WAT     H2 6860   1.703   3.170   4.017  0.8774 -0.7870 -0.9295
 2217WAT      O 6861   2.572   0.950   1.945 -0.2160 -0.3585 -0.1639
 2217WAT     H1 6862   2.556   0.863   1.983  0.1237 -0.6372 -0.6365
 2217WAT     H2 6863   2.666   0.949   1.924 -0.0652  0.3666  0.4184
 2218WAT      O 6864   3.820   5.090   0.937  0.4507  0.7956 -0.3147
 2218WAT     H1 6865   3.860   5.024   0.994 -2.4640 -0.7512  0.1620
 2218WAT     H2 6866   3.758   5.136   0.993 -1.8026 -0.1118 -1.8877
 2219WAT      O 6867   3.061   4.527   4.923  0.3540  0.6950  0.0518
 2219WAT     H1 6868   2.987   4.469   4.941  1.3520 -0.8991 -0.7274
 2219WAT     H2 6869   3.027   4.615   4.940 -1.5270 -0.0227  0.3007
 2220WAT      O 6870   3.450   3.383   3.542  0.3852  0.0265  0.2306
 2220WAT     H1 6871   3.421   3.442   3.472 -1.9111 -0.3585  0.7751
 2220WAT     H2 6872   3.457   3.440   3.619  0.4918  0.0034  0.2380
 2221WAT      O 6873   2.740   4.669   2.940  0.1437 -0.0330  0.0218
 2221WAT     H1 6874   2.788   4.714   3.010  1.7504  0.6724 -1.4399
 2221WAT     H2 6875   2.689   4.602   2.985  0.4570  0.9427  1.9389
 2222WAT      O 6876   2.867   0.740   1.423 -0.3018 -0.0558 -0.2327
 2222WAT     H1 6877   2.888   0.790   1.502 -1.3834  2.2536 -1.3011
 2222WAT     H2 6878   2.952   0.709   1.390  0.5098  1.6312  0.1715
 2223WAT      O 6879   3.682   3.206   4.716 -0.1841  0.6689  0.4424
 2223WAT     H1 6880   3.686   3.127   4.663  1.6065 -1.3867  3.3848
 2223WAT     H2 6881   3.589   3.218   4.734 -0.5174 -0.5638 -0.3198
 2224WAT      O 6882   2.957   3.234   4.916 -0.0164 -0.3889  0.6124
 2224WAT     H1 6883   2.960   3.317   4.964 -0.5892  1.2238 -1.9675
 2224WAT     H2 6884   2.868   3.229   4.882 -0.2022 -2.4619  1.2692
 2225WAT      O 6885   0.535   2.908   3.109  0.4424 -0.0567  0.2098
 2225WAT     H1 6886   0.533   2.840   3.042 -1.0184  0.5485 -0.3985
 2225WAT     H2 6887   0.621   2.899   3.150  1.2019 -0.7249 -1.4558
 2226WAT      O 6888   1.312   2.306   0.745 -0.2509  0.0999 -0.3846
 2226WAT     H1 6889   1.357   2.254   0.679  0.5551 -1.8493  1.6052
 2226WAT     H2 6890   1.219   2.286   0.732 -0.3150  1.3233 -2.1610
 2227WAT      O 6891   1.835   0.348   3.901  0.3801 -0.1105  0.0453
 2227WAT     H1 6892   1.883   0.273   3.865 -1.5061 -1.2917 -0.1169
 2227WAT     H2 6893   1.751   0.348   3.855  0.6115  2.6467 -0.5843
 2228WAT      O 6894   3.396   5.115   1.841 -0.3404  0.1942  0.2865
 2228WAT     H1 6895   3.476   5.147   1.799  0.1933  0.7074  1.6211
 2228WAT     H2 6896   3.423   5.035   1.885 -0.8073 -0.1632 -0.0784
 2229WAT      O 6897   3.609   4.504   4.861 -0.1120  0.8593  0.6132
 2229WAT     H1 6898   3.702   4.483   4.865 -0.1684  0.8674  2.2868
 2229WAT     H2 6899   3.566   4.419   4.853 -0.1018  0.5765  3.0302
 2230WAT      O 6900   3.973   4.579   3.098 -0.3220 -0.4277  0.1466
 2230WAT     H1 6901   3.915   4.567   3.022 -2.3226  2.0448  1.1441
 2230WAT     H2 6902   4.040   4.640   3.069 -1.5073  1.0940  0.4952
 2231WAT      O 6903   2.391   0.495   2.305 -0.1490 -0.0792  0.3831
 2231WAT     H1 6904   2.304   0.468   2.274 -0.6547  2.8864 -1.0951
 2231WAT     H2 6905   2.450   0.465   2.236 -0.6520  2.0037 -1.0371
 2232WAT      O 6906   1.659   2.389   3.270 -0.2612 -0.1654 -0.8662
 2232WAT     H1 6907   1.669   2.479   3.302  1.3780 -0.4581 -0.4688
 2232WAT     H2 6908   1.670   2.397   3.175 -3.9689  0.5351 -1.3847
 2233WAT      O 6909   1.183   0.858   4.129 -0.2480  0.2676  0.3616
 2233WAT     H1 6910   1.096   0.889   4.102 -0.2985  0.6141  0.9088
 2233WAT     H2 6911   1.165   0.785   4.188 -0.1492 -0.1261 -0.0912
 2234WAT      O 6912   4.202   1.372   2.674  0.4371  0.0712 -0.1294
 2234WAT     H1 6913   4.172   1.332   2.756  1.6113  0.5123  0.5358
 2234WAT     H2 6914   4.152   1.327   2.606 -2.3035  1.2766  0.9349
 2235WAT      O 6915   3.153   3.227   4.709 -0.1405  0.5466  0.5497
 2235WAT     H1 6916   3.072   3.213   4.758  0.0828  0.2408  0.8343
 2235WAT     H2 6917   3.220   3.182   4.761 -0.2496 -1.8613 -1.2540
 2236WAT      O 6918   2.242   2.742   3.859  0.1748 -0.3567 -0.0054
 2236WAT     H1 6919   2.166   2.690   3.883  0.3383 -0.7991 -0.4277
 2236WAT     H2 6920   2.233   2.823   3.909  0.2170 -1.0240  1.0963
 2237WAT      O 6921   4.425   3.152   2.025 -0.0838 -0.1243 -0.0772
 2237WAT     H1 6922   4.423   3.168   2.119 -0.3836 -0.1389 -0.0816
 2237WAT     H2 6923   4.474   3.070   2.015 -0.7218 -0.5326  0.1199
 2238WAT      O 6924   2.155   2.389   3.699  0.0803  0.3384 -0.1581
 2238WAT     H1 6925   2.212   2.450   3.651  0.4779 -0.5903 -0.8951
 2238WAT     H2 6926   2.092   2.360   3.633 -0.8563  0.8564  0.4909
 2239WAT      O 6927   3.747   4.451   0.843 -0.3783  0.3626  0.1658
 2239WAT     H1 6928   3.662   4.449   0.798 -0.0566 -0.1029 -0.4374
 2239WAT     H2 6929   3.771   4.544   0.844  0.1210  0.2913 -1.6422
 2240WAT      O 6930   0.929   1.143   1.959 -0.0401 -0.4410  0.3151
 2240WAT     H1 6931   0.950   1.237   1.958 -0.9567 -0.2288  0.4293
 2240WAT     H2 6932   1.015   1.100   1.961  0.3905  0.3959  0.5003
 2241WAT      O 6933   2.214   0.354   1.607  0.0279 -0.0420 -0.2773
 2241WAT     H1 6934   2.269   0.283   1.572 -2.3604 -1.7939 -0.8031
 2241WAT     H2 6935   2.223   0.347   1.702 -0.3839 -1.3032 -0.3075
 2242WAT      O 6936   0.115   5.032   2.224 -0.4621  0.0512 -0.4143
 2242WAT     H1 6937   0.157   5.107   2.266  0.9615 -1.1061  0.3003
 2242WAT     H2 6938   0.047   5.005   2.286  0.2317 -0.3468  0.1908
 2243WAT      O 6939   4.182   3.286   2.395 -0.3994  0.6157 -0.0557
 2243WAT     H1 6940   4.104   3.233   2.411 -0.8566  1.3894  0.3645
 2243WAT     H2 6941   4.148   3.365   2.353  0.2151  0.7645 -0.2761
 2244WAT      O 6942   3.443   1.523   2.428  0.4300  0.5275 -0.1946
 2244WAT     H1 6943   3.506   1.595   2.435  1.1063 -0.0228 -0.4215
 2244WAT     H2 6944   3.492   1.453   2.385  0.3471 -0.6893  1.5794
 2245WAT      O 6945   1.333   5.038   2.938  0.3630  0.7751 -0.0695
 2245WAT     H1 6946   1.242   5.033   2.909  1.1329 -2.2740 -2.4147
 2245WAT     H2 6947   1.351   4.953   2.977  2.5745  0.6844 -1.1107
 2246WAT      O 6948   0.177   0.909   1.169  0.4151 -0.4049  0.0161
 2246WAT     H1 6949   0.271   0.897   1.182  0.4283 -0.1055  0.2220
 2246WAT     H2 6950   0.169   0.934   1.077  0.4937 -0.8346 -0.1114
 2247WAT      O 6951   3.573   4.335   4.096  0.2306 -0.4741 -0.8343
 2247WAT     H1 6952   3.642   4.276   4.125  0.1819  0.1176  0.5873
 2247WAT     H2 6953   3.513   4.339   4.170 -1.2283 -0.8046 -1.9633
 2248WAT      O 6954   2.818   4.812   0.171 -0.1409 -0.1120 -0.3529
 2248WAT     H1 6955   2.746   4.749   0.164  0.6805 -1.1992  0.7580
 2248WAT     H2 6956   2.872   4.795   0.094  0.7540 -1.6791  0.5731
 2249WAT      O 6957   3.815   2.101   0.717  0.1412  0.6115 -0.4153
 2249WAT     H1 6958   3.903   2.099   0.678 -0.1946 -0.2138 -1.1607
 2249WAT     H2 6959   3.755   2.097   0.643 -0.5167 -0.7737  0.1497
 2250WAT      O 6960   3.686   2.306   0.345 -0.0533  0.0746  0.5633
 2250WAT     H1 6961   3.739   2.231   0.318 -0.0588 -0.1228  1.0720
 2250WAT     H2 6962   3.606   2.299   0.294 -0.2244 -0.5092  0.9002
 2251WAT      O 6963   1.874   2.770   2.156  0.1370  0.4344 -0.5040
 2251WAT     H1 6964   1.955   2.743   2.113 -0.5357 -1.2050 -0.8009
 2251WAT     H2 6965   1.899   2.785   2.247  0.8708  0.4305 -0.7026
 2252WAT      O 6966   0.109   1.207   1.377  0.2446  0.3379 -0.5769
 2252WAT     H1 6967   0.077   1.239   1.293  0.2959 -0.1579 -0.7887
 2252WAT     H2 6968   0.192   1.165   1.357  1.0699  1.6543 -0.0194
 2253WAT      O 6969   4.230   0.210   3.088  0.0750  0.3741 -0.4538
 2253WAT     H1 6970   4.312   0.258   3.101 -0.0070  0.5657 -0.6250
 2253WAT     H2 6971   4.256   0.130   3.043  0.0615  0.8890 -1.4214
 2254WAT      O 6972   4.041   2.688   1.566 -0.0866  0.4463 -0.4308
 2254WAT     H1 6973   4.087   2.701   1.483  0.9947  1.1117  0.2409
 2254WAT     H2 6974   4.079   2.608   1.602 -1.1541 -0.3173 -0.9400
 2255WAT      O 6975   1.036   2.750   3.465 -0.0430 -0.2154 -0.3927
 2255WAT     H1 6976   1.126   2.746   3.498  0.6035  1.0256 -1.8893
 2255WAT     H2 6977   0.995   2.671   3.499  1.4290 -0.4938  0.8535
 2256WAT      O 6978   2.164   1.610   2.243 -0.3262 -0.7610  0.3040
 2256WAT     H1 6979   2.094   1.574   2.297 -3.0523 -0.1752 -2.5391
 2256WAT     H2 6980   2.129   1.693   2.209  2.8405  0.9520  0.7662
 2257WAT      O 6981   0.618   3.022   2.822 -0.4635  0.3301 -0.0003
 2257WAT     H1 6982   0.601   2.928   2.807 -1.9389  0.7550 -1.2964
 2257WAT     H2 6983   0.704   3.024   2.863 -0.3573 -1.5954  0.0045
 2258WAT      O 6984   2.572   0.286   4.694 -0.2475  0.3452 -0.1461
 2258WAT     H1 6985   2.629   0.265   4.620  0.0496 -0.1248  0.2110
 2258WAT     H2 6986   2.485   0.295   4.656  0.0191  0.8046 -0.6566
 2259WAT      O 6987   2.562   0.253   2.279  0.0292 -0.1373 -0.5732
 2259WAT     H1 6988   2.611   0.319   2.327  0.5023 -0.8676 -0.0421
 2259WAT     H2 6989   2.524   0.197   2.346 -2.3019  0.8992 -0.9053
 2260WAT      O 6990   0.994   2.472   2.271 -0.0987 -0.6394  0.4792
 2260WAT     H1 6991   1.067   2.463   2.209  0.7942  2.1486  0.9945
 2260WAT     H2 6992   1.035   2.496   2.354 -1.5484  2.0294  0.5463
 2261WAT      O 6993   1.767   1.274   1.787 -0.1244 -0.4509  0.7578
 2261WAT     H1 6994   1.673   1.291   1.785 -0.1379 -0.5676 -0.5646
 2261WAT     H2 6995   1.777   1.190   1.741  0.8239  0.7756 -1.4587
 2262WAT      O 6996   2.133   2.674   0.276  0.0595  0.4617  0.0384
 2262WAT     H1 6997   2.047   2.688   0.315  0.0755  1.0615 -0.1263
 2262WAT     H2 6998   2.186   2.636   0.346 -0.7844 -1.5184 -0.3247
 2263WAT      O 6999   1.992   2.999   0.394  0.2641  0.5779 -0.0146
 2263WAT     H1 7000   2.062   2.944   0.430 -0.4274 -0.3189  0.0123
 2263WAT     H2 7001   2.035   3.051   0.326  1.1304  0.6901  0.6033
 2264WAT      O 7002   4.139   4.417   2.874  0.1818  0.7183  0.0664
 2264WAT     H1 7003   4.131   4.325   2.850  1.5069  0.9871 -1.6882
 2264WAT     H2 7004   4.148   4.417   2.969  0.8463 -1.0335  0.0427
 2265WAT      O 7005   2.032   4.296   1.980 -0.7185  0.7792  0.6882
 2265WAT     H1 7006   2.000   4.385   1.999 -1.1371  0.5137  1.2740
 2265WAT     H2 7007   1.953   4.247   1.956 -0.7101  0.2043  1.7808
 2266WAT      O 7008   4.300   4.558   4.860 -0.3478  0.1289 -0.2388
 2266WAT     H1 7009   4.264   4.495   4.797 -0.2375  0.1552 -0.3288
 2266WAT     H2 7010   4.283   4.643   4.820  1.1036  0.0995 -0.9887
 2267WAT      O 7011   0.134   4.294   2.475  0.2604  0.2804  0.3799
 2267WAT     H1 7012   0.230   4.292   2.481  0.2974  2.6012  2.0547
 2267WAT     H2 7013   0.116   4.298   2.381  1.6951 -1.4777 -0.0361
 2268WAT      O 7014   1.811   5.141   4.125 -0.0410 -0.0025 -0.2338
 2268WAT     H1 7015   1.751   5.099   4.188 -1.8682  0.8578 -1.3168
 2268WAT     H2 7016   1.757   5.158   4.048  2.5402 -2.7410 -2.8927
 2269WAT      O 7017   0.148   4.020   3.277 -0.5730 -0.1092 -0.6049
 2269WAT     H1 7018   0.134   4.023   3.182 -1.4286  0.9573 -0.4596
 2269WAT     H2 7019   0.083   4.080   3.313  0.6143  0.5235  0.5675
 2270WAT      O 7020   1.394   3.920   0.527 -0.6203 -0.3771  0.2658
 2270WAT     H1 7021   1.337   3.982   0.572  0.1563  0.1647  0.5170
 2270WAT     H2 7022   1.438   3.873   0.597 -1.8638 -1.8723  0.0939
 2271WAT      O 7023   0.380   4.954   4.999  0.0204  0.5955 -0.0010
 2271WAT     H1 7024   0.434   4.875   5.002 -0.4187  0.3222  1.2585
 2271WAT     H2 7025   0.294   4.923   4.971 -0.7990  0.1975  2.7276
 2272WAT      O 7026   0.958   0.830   2.573 -0.1381  0.3920  0.4620
 2272WAT     H1 7027   0.905   0.812   2.650  1.1431  0.5175  1.3949
 2272WAT     H2 7028   0.911   0.787   2.501  0.3152 -2.6863  1.8280
 2273WAT      O 7029   1.654   4.019   5.142  0.1649 -0.1501 -0.0976
 2273WAT     H1 7030   1.639   4.002   5.235  0.4330 -0.1224 -0.0490
 2273WAT     H2 7031   1.735   4.069   5.140 -0.9804  1.8112 -0.1684
 2274WAT      O 7032   1.670   2.542   0.223 -0.4990 -0.1205  0.0759
 2274WAT     H1 7033   1.698   2.605   0.157  0.7222 -1.9519 -1.2603
 2274WAT     H2 7034   1.575   2.547   0.224 -0.5548 -0.1572 -1.9800
 2275WAT      O 7035   1.802   0.106   3.720  0.3071  0.6901  0.0739
 2275WAT     H1 7036   1.889   0.088   3.757 -0.4409 -1.2679  1.0375
 2275WAT     H2 7037   1.803   0.065   3.634 -0.0382 -0.4299  0.5874
 2276WAT      O 7038   0.754   3.954   2.316 -0.0362 -0.0759 -1.0841
 2276WAT     H1 7039   0.730   3.866   2.288  0.7912 -1.0066  0.9385
 2276WAT     H2 7040   0.807   3.989   2.244  0.4044 -1.5857 -1.5248
 2277WAT      O 7041   2.120   1.811   4.385 -0.4351  0.0767 -0.5191
 2277WAT     H1 7042   2.190   1.814   4.451 -1.3583  0.5192  0.4818
 2277WAT     H2 7043   2.149   1.870   4.316 -0.6597  1.7717  0.7797
 2278WAT      O 7044   4.363   2.170   3.374  0.1632 -0.3010  0.1505
 2278WAT     H1 7045   4.353   2.209   3.461  1.5896  0.0153  0.1991
 2278WAT     H2 7046   4.370   2.246   3.315 -1.0955 -0.5118 -0.2970
 2279WAT      O 7047   3.784   0.515   2.406 -0.0363 -0.0449  0.3391
 2279WAT     H1 7048   3.724   0.542   2.476 -1.5309  0.3308 -1.0367
 2279WAT     H2 7049   3.784   0.420   2.410 -3.7263 -0.3329 -1.9076
 2280WAT      O 7050   3.802   0.189   2.056  0.2608 -0.3135  0.1322
 2280WAT     H1 7051   3.789   0.258   2.121 -0.1585 -0.0081 -0.2686
 2280WAT     H2 7052   3.887   0.152   2.077  0.9782  1.0218 -0.2803
 2281WAT      O 7053   1.317   2.737   1.374 -0.0958  0.2082 -0.5617
 2281WAT     H1 7054   1.265   2.724   1.453 -1.2509  0.4431 -1.2478
 2281WAT     H2 7055   1.357   2.823   1.386 -1.8211  1.1390 -1.0204
 2282WAT      O 7056   3.478   3.819   4.166  0.4886 -0.0520 -0.2811
 2282WAT     H1 7057   3.432   3.878   4.225 -0.1755 -0.6539 -0.1753
 2282WAT     H2 7058   3.469   3.733   4.207  3.0092 -0.0240  0.5249
 2283WAT      O 7059   0.988   4.250   4.285 -0.1028 -0.1963  0.3312
 2283WAT     H1 7060   0.945   4.165   4.288 -0.8930  0.2165  1.8427
 2283WAT     H2 7061   0.916   4.313   4.282  0.4598  0.4495  0.0363
 2284WAT      O 7062   3.960   4.603   0.577 -0.3812  0.8578  0.6880
 2284WAT     H1 7063   3.941   4.613   0.670  0.9999 -0.3823  1.1490
 2284WAT     H2 7064   4.037   4.658   0.562 -0.7140  1.2019  0.2347
 2285WAT      O 7065   1.451   3.760   0.080 -0.0194 -0.5771 -0.8206
 2285WAT     H1 7066   1.421   3.730   0.165 -0.3439  0.0992 -0.6854
 2285WAT     H2 7067   1.490   3.683   0.039 -3.5333 -2.0770 -1.7309
 2286WAT      O 7068   0.555   1.985   2.954 -0.2220  0.1169 -0.0180
 2286WAT     H1 7069   0.572   2.077   2.934 -0.2781  0.3077  0.7638
 2286WAT     H2 7070   0.554   1.981   3.050 -1.8005 -0.4032 -0.0196
 2287WAT      O 7071   0.163   3.743   0.951 -0.0146  0.1566 -0.3065
 2287WAT     H1 7072   0.211   3.778   0.876 -0.1084  0.5428 -0.1879
 2287WAT     H2 7073   0.224   3.754   1.024 -1.3805  3.5922  0.4913
 2288WAT      O 7074   3.624   0.405   0.169  0.4752  0.3278 -0.1445
 2288WAT     H1 7075   3.613   0.363   0.254 -1.2796 -1.4126 -1.1246
 2288WAT     H2 7076   3.717   0.395   0.149  0.4496 -1.5345  0.4897
 2289WAT      O 7077   2.363   4.819   2.982 -0.2480 -0.7147  0.4353
 2289WAT     H1 7078   2.454   4.820   2.954  0.2210  1.5479  1.7901
 2289WAT     H2 7079   2.326   4.900   2.948 -1.9064 -1.7683 -0.4160
 2290WAT      O 7080   1.565   2.010   3.926 -0.2275  0.4066  0.2153
 2290WAT     H1 7081   1.646   1.985   3.881  0.3243  2.2829  0.0566
 2290WAT     H2 7082   1.508   2.041   3.855 -0.9898 -0.6168  0.3641
 2291WAT      O 7083   3.977   2.045   4.236  0.2668  0.2035  0.6271
 2291WAT     H1 7084   3.944   2.056   4.147  0.7438  0.7541  0.5155
 2291WAT     H2 7085   3.925   2.104   4.289  0.7756  0.7556  0.5192
 2292WAT      O 7086   0.567   1.401   1.046  0.2115  0.2154  0.0464
 2292WAT     H1 7087   0.611   1.428   0.965 -0.3458 -1.1908 -0.7650
 2292WAT     H2 7088   0.636   1.393   1.111  0.6017  1.8938 -0.1204
 2293WAT      O 7089   0.146   3.329   3.055  0.1443  0.1903  0.0369
 2293WAT     H1 7090   0.195   3.372   3.124 -0.0083  0.4685 -0.0282
 2293WAT     H2 7091   0.150   3.236   3.077  0.3265  0.2543  0.2691
 2294WAT      O 7092   1.081   4.327   5.225 -0.2967 -0.5914 -0.0520
 2294WAT     H1 7093   1.009   4.303   5.166 -1.4117 -0.0596  1.0327
 2294WAT     H2 7094   1.074   4.422   5.233  1.9109 -0.2417 -1.6004
 2295WAT      O 7095   0.466   4.074   2.725 -0.3321 -0.0174  0.1523
 2295WAT     H1 7096   0.449   4.161   2.690 -0.4275 -0.2935 -0.5050
 2295WAT     H2 7097   0.405   4.017   2.678  0.1503 -0.5243  0.1355
 2296WAT      O 7098   1.820   4.407   3.522  0.1919 -0.0915  0.4955
 2296WAT     H1 7099   1.829   4.375   3.612  1.8804 -0.2341  0.3092
 2296WAT     H2 7100   1.737   4.371   3.492 -0.6701  0.3931  2.1634
 2297WAT      O 7101   2.747   3.663   3.003  0.9864  0.2787  0.0508
 2297WAT     H1 7102   2.805   3.690   2.932 -0.4536 -0.2311 -1.3934
 2297WAT     H2 7103   2.733   3.569   2.988  0.1146  0.3093  0.5814
 2298WAT      O 7104   4.429   2.030   2.994 -0.1659 -0.6354  0.4844
 2298WAT     H1 7105   4.392   1.973   3.061 -3.1040  0.0014 -0.4373
 2298WAT     H2 7106   4.485   2.091   3.042  0.0952 -1.9749  1.9405
 2299WAT      O 7107   2.743   2.270   0.346  0.0311  0.4606 -0.3350
 2299WAT     H1 7108   2.807   2.206   0.316 -0.5973 -0.6095  0.5193
 2299WAT     H2 7109   2.659   2.223   0.346 -0.2881  0.9490  1.2688
 2300WAT      O 7110   2.001   0.836   0.122  0.3810  0.1337  0.3399
 2300WAT     H1 7111   1.994   0.831   0.218 -2.1468 -2.4933  0.1585
 2300WAT     H2 7112   1.958   0.919   0.100 -0.0835  0.2066  1.4217
 2301WAT      O 7113   3.671   2.383   2.743  0.7285 -0.0223  0.2791
 2301WAT     H1 7114   3.588   2.398   2.788 -0.5819 -2.3145 -1.2187
 2301WAT     H2 7115   3.684   2.463   2.690 -0.4525  0.4108  0.6146
 2302WAT      O 7116   3.290   0.731   4.464 -0.0445 -0.1091 -0.0982
 2302WAT     H1 7117   3.256   0.654   4.510  1.1753  1.0288  2.8961
 2302WAT     H2 7118   3.370   0.699   4.421 -0.1759 -0.7789  0.1318
 2303WAT      O 7119   0.426   1.238   1.618  0.2385  0.4031  0.5913
 2303WAT     H1 7120   0.474   1.171   1.569 -3.4158 -0.3477 -2.4228
 2303WAT     H2 7121   0.358   1.190   1.665 -0.1536  1.7258  1.4409
 2304WAT      O 7122   4.006   2.790   0.319 -0.4251  0.0429 -0.0570
 2304WAT     H1 7123   3.919   2.754   0.337 -0.3179 -0.1364  0.0982
 2304WAT     H2 7124   4.010   2.870   0.371 -0.5408  0.1136 -0.1546
 2305WAT      O 7125   3.705   4.293   1.114  0.3700 -0.2003 -0.4591
 2305WAT     H1 7126   3.616   4.300   1.148  0.2118  1.1709 -1.1032
 2305WAT     H2 7127   3.701   4.221   1.051 -0.7438  0.9786 -1.7916
 2306WAT      O 7128   0.882   4.615   1.256  0.3340 -0.5533  0.1589
 2306WAT     H1 7129   0.838   4.644   1.175  1.4155  1.1963  0.1369
 2306WAT     H2 7130   0.852   4.677   1.322  1.5692 -0.2765  0.4711
 2307WAT      O 7131   0.496   1.492  -0.024 -0.8624 -0.2111 -0.0996
 2307WAT     H1 7132   0.511   1.481   0.070 -2.5281  1.2132  0.3741
 2307WAT     H2 7133   0.407   1.524  -0.031 -0.7807 -0.2817 -2.1958
 2308WAT      O 7134   1.206   5.145   4.992  0.2261  0.0092 -0.5129
 2308WAT     H1 7135   1.229   5.161   4.900  0.8257 -0.1168 -0.3916
 2308WAT     H2 7136   1.112   5.128   4.990  0.4930 -1.5706 -1.3274
 2309WAT      O 7137   3.104   2.964   0.783 -0.3875  0.1127 -0.0855
 2309WAT     H1 7138   3.090   2.915   0.702 -0.6465 -3.1236  1.7222
 2309WAT     H2 7139   3.176   2.918   0.826 -0.3161  1.6743  1.5641
 2310WAT      O 7140   3.591   2.160   1.693 -0.5051  0.1282  0.0646
 2310WAT     H1 7141   3.643   2.156   1.613 -2.0104  1.6387 -1.0575
 2310WAT     H2 7142   3.528   2.088   1.684 -0.6196  0.2454 -0.0807
 2311WAT      O 7143   2.797   1.335   0.021  0.4386  0.3002 -0.2425
 2311WAT     H1 7144   2.853   1.344   0.098  0.9249  0.2145 -0.5832
 2311WAT     H2 7145   2.854   1.297  -0.046 -0.1019 -0.0515 -0.5090
 2312WAT      O 7146   2.154   2.426   1.774 -0.3336 -0.0946 -0.2517
 2312WAT     H1 7147   2.177   2.402   1.685 -0.4362 -0.9487 -0.0565
 2312WAT     H2 7148   2.174   2.348   1.826 -3.5921 -0.9741 -0.0623
 2313WAT      O 7149   1.725   2.891   4.976  0.2026  0.1658  0.1460
 2313WAT     H1 7150   1.654   2.886   5.041 -1.7394  1.3445 -1.7681
 2313WAT     H2 7151   1.756   2.981   4.982 -1.4474  0.9695 -1.8688
 2314WAT      O 7152   3.725   3.857   2.652  0.2832 -0.0576 -0.3466
 2314WAT     H1 7153   3.676   3.891   2.577  1.7023  1.9930 -0.4163
 2314WAT     H2 7154   3.816   3.872   2.629  0.9131 -2.0676  0.5968
 2315WAT      O 7155   3.285   2.795   0.568 -0.1940 -0.2172  0.2709
 2315WAT     H1 7156   3.227   2.862   0.533  0.0686 -0.6892 -1.1310
 2315WAT     H2 7157   3.237   2.713   0.554 -0.9059 -0.3203  2.7577
 2316WAT      O 7158   1.057   1.370   1.914 -0.1071 -0.7325 -0.0524
 2316WAT     H1 7159   1.109   1.394   1.837 -1.0420 -0.1699 -0.5228
 2316WAT     H2 7160   1.031   1.453   1.953 -0.3834 -1.0122  0.3664
 2317WAT      O 7161   2.876   0.795   2.942  0.4493 -0.3906 -0.0858
 2317WAT     H1 7162   2.803   0.842   2.902  0.1536 -0.5377  0.2736
 2317WAT     H2 7163   2.849   0.703   2.940  0.4817 -0.4107  0.3504
 2318WAT      O 7164   4.004   1.875   3.873  0.6013 -0.2718  0.1426
 2318WAT     H1 7165   4.099   1.879   3.866  0.7138 -2.1282  0.1929
 2318WAT     H2 7166   3.973   1.882   3.783  0.8890 -1.2913 -0.0479
 2319WAT      O 7167   1.984   0.090   1.710  0.3562 -0.4172 -0.6096
 2319WAT     H1 7168   2.068   0.090   1.755  1.6986 -5.3167 -2.4727
 2319WAT     H2 7169   2.004   0.117   1.620 -0.1391 -1.0519 -0.9208
 2320WAT      O 7170   2.140   4.178   3.010  0.4465  0.2486 -0.2478
 2320WAT     H1 7171   2.137   4.082   3.008 -0.1606  0.2709 -0.5323
 2320WAT     H2 7172   2.055   4.204   3.045  0.3088  0.7069 -0.9106
 2321WAT      O 7173   1.187   0.851   0.374  0.0376 -0.5020 -0.3281
 2321WAT     H1 7174   1.230   0.772   0.343  1.2646  0.4422 -1.1292
 2321WAT     H2 7175   1.104   0.855   0.326 -0.0084 -1.2624 -0.3120
 2322WAT      O 7176   0.819   2.675   0.508 -0.1064 -0.3428 -0.2978
 2322WAT     H1 7177   0.818   2.665   0.603  1.9673 -2.6900 -0.4153
 2322WAT     H2 7178   0.765   2.603   0.475  1.0728 -1.0009 -0.8899
 2323WAT      O 7179   4.129   0.736   3.722 -0.2696 -0.1297 -0.2126
 2323WAT     H1 7180   4.073   0.802   3.762 -0.7065 -0.0799 -0.8850
 2323WAT     H2 7181   4.076   0.656   3.724  0.2034 -0.4305  0.4737
 2324WAT      O 7182   0.373   2.775   1.149 -0.1549 -0.6099  0.8932
 2324WAT     H1 7183   0.327   2.778   1.065 -1.0963 -0.1497  1.4010
 2324WAT     H2 7184   0.409   2.863   1.160 -1.1378 -0.2578  1.5346
 2325WAT      O 7185   0.072   0.669   2.746  0.5155  0.1915 -0.3911
 2325WAT     H1 7186   0.016   0.679   2.823  0.6615  0.2665 -0.2942
 2325WAT     H2 7187   0.160   0.687   2.779  0.7446 -1.0567 -0.2894
 2326WAT      O 7188   4.473   2.951   4.913  0.2168  0.2688 -0.2371
 2326WAT     H1 7189   4.499   2.920   5.000  0.8110 -0.2999 -0.6106
 2326WAT     H2 7190   4.461   3.046   4.924 -2.1195 -0.1222  1.0352
 2327WAT      O 7191   0.552   1.932   1.109  0.0951 -0.8312  0.4446
 2327WAT     H1 7192   0.540   1.895   1.197 -0.5329 -1.2821  0.1756
 2327WAT     H2 7193   0.535   1.858   1.050 -0.9484 -0.1773 -0.1019
 2328WAT      O 7194   2.352   4.106   0.729 -0.3966 -0.2460 -0.0815
 2328WAT     H1 7195   2.266   4.064   0.726 -0.6370  0.1987  0.2896
 2328WAT     H2 7196   2.389   4.078   0.813 -0.0576 -0.6621 -0.3667
 2329WAT      O 7197   2.530   4.805   5.109 -0.1953  0.0418 -0.1471
 2329WAT     H1 7198   2.445   4.845   5.129 -0.7808 -1.1024 -0.2237
 2329WAT     H2 7199   2.583   4.876   5.074 -1.6287  0.4855 -1.5232
 2330WAT      O 7200   4.365   0.209   5.218  0.8474 -0.0949 -0.0848
 2330WAT     H1 7201   4.360   0.201   5.313  0.1754  0.1841 -0.0942
 2330WAT     H2 7202   4.439   0.267   5.203  0.0642  1.0310  0.3298
 2331WAT      O 7203   1.315   3.143   1.109  0.1417 -0.7663  0.2378
 2331WAT     H1 7204   1.273   3.229   1.116  0.6000 -0.5731  0.7419
 2331WAT     H2 7205   1.243   3.082   1.098 -0.2315 -0.3780  0.4719
 2332WAT      O 7206   0.738   0.880   4.322 -0.0197  0.3344 -0.3328
 2332WAT     H1 7207   0.774   0.809   4.268 -0.1487  0.0872 -0.0989
 2332WAT     H2 7208   0.800   0.952   4.311  0.5846 -0.1049  0.1012
 2333WAT      O 7209   3.628   4.055   2.196 -1.0284 -0.0686  0.0553
 2333WAT     H1 7210   3.594   4.018   2.115 -1.4793 -1.4247  0.8175
 2333WAT     H2 7211   3.721   4.070   2.179 -0.9747 -0.9534 -0.5101
 2334WAT      O 7212   1.012   0.415   2.048  0.0828  0.2712 -0.5045
 2334WAT     H1 7213   1.048   0.494   2.089  1.6482 -0.3507 -0.5997
 2334WAT     H2 7214   1.072   0.345   2.074 -2.4831 -1.3864  1.4477
 2335WAT      O 7215   2.495   2.226   4.241 -0.2115 -0.2309 -0.0075
 2335WAT     H1 7216   2.464   2.307   4.282  2.7819  1.8053 -1.3428
 2335WAT     H2 7217   2.556   2.189   4.305  0.5871  0.1735 -0.5151
 2336WAT      O 7218   4.233   4.311   0.038  0.2024  0.2044 -0.2186
 2336WAT     H1 7219   4.237   4.340  -0.054  2.4612 -0.8106 -0.5124
 2336WAT     H2 7220   4.320   4.275   0.055 -0.4323 -0.3729  2.1067
 2337WAT      O 7221   0.937   1.597   2.871 -0.5616 -0.1007 -0.0118
 2337WAT     H1 7222   0.951   1.584   2.965 -0.9902 -1.5905 -0.1288
 2337WAT     H2 7223   0.952   1.691   2.857  1.3471 -0.1805  1.1998
 2338WAT      O 7224   4.225   0.557   3.949  0.5373 -0.3280  0.1416
 2338WAT     H1 7225   4.172   0.526   3.875  0.4790  0.6850 -0.2584
 2338WAT     H2 7226   4.265   0.478   3.984  1.0505 -0.7633 -1.3528
 2339WAT      O 7227   0.663   4.334   0.479 -0.2124 -0.0168 -0.0436
 2339WAT     H1 7228   0.701   4.366   0.397  0.8906  0.7352  0.7374
 2339WAT     H2 7229   0.694   4.395   0.546 -1.0825 -0.6222  0.9472
 2340WAT      O 7230   2.105   2.191   4.024  0.1940 -0.1050  0.2234
 2340WAT     H1 7231   2.034   2.255   4.028  0.2472 -0.0657  0.6687
 2340WAT     H2 7232   2.184   2.243   4.010 -0.0465 -0.2823 -2.0157
 2341WAT      O 7233   3.574   5.060   4.536 -0.2288  0.3302 -0.1096
 2341WAT     H1 7234   3.645   4.999   4.556  1.2594  2.3560  1.1329
 2341WAT     H2 7235   3.616   5.128   4.483 -1.2902  1.4183  0.4125
 2342WAT      O 7236   3.121   2.578   3.441 -0.2529  0.2830 -0.4260
 2342WAT     H1 7237   3.202   2.574   3.491  0.5900 -0.4148 -1.7893
 2342WAT     H2 7238   3.149   2.571   3.350 -1.9036 -0.7649 -0.8963
 2343WAT      O 7239   4.487   2.714   4.640 -0.0234 -0.2747  0.0404
 2343WAT     H1 7240   4.413   2.746   4.693  0.5869  0.2800  0.5717
 2343WAT     H2 7241   4.463   2.735   4.550 -0.3541  0.2266  0.2444
 2344WAT      O 7242   0.880   4.537   1.655  0.0273  0.4801  0.3136
 2344WAT     H1 7243   0.908   4.629   1.658  0.0883  0.4634  0.2647
 2344WAT     H2 7244   0.816   4.535   1.584  2.1990 -0.1000 -1.7566
 2345WAT      O 7245   2.023   3.326   4.112  0.1705 -0.2451  0.3946
 2345WAT     H1 7246   1.938   3.284   4.122 -0.4708  0.9829  0.2502
 2345WAT     H2 7247   2.027   3.390   4.183  1.0961 -0.4616  0.5580
 2346WAT      O 7248   0.300   0.904   4.576 -0.0555  0.1226 -0.3703
 2346WAT     H1 7249   0.284   0.991   4.539  1.5161  0.8692  0.5879
 2346WAT     H2 7250   0.238   0.898   4.649  0.3745  0.7848  0.0570
 2347WAT      O 7251   0.865   0.742   2.844 -0.3468 -0.0704 -0.3004
 2347WAT     H1 7252   0.933   0.808   2.859 -0.3459  0.2994 -1.8040
 2347WAT     H2 7253   0.785   0.783   2.875  0.3598 -1.5488  4.2396
 2348WAT      O 7254   1.505   1.330   1.811  0.1400 -0.1079 -0.3124
 2348WAT     H1 7255   1.488   1.238   1.788 -1.8036  0.2443 -0.4475
 2348WAT     H2 7256   1.472   1.339   1.900 -0.7376  0.7165 -0.7075
 2349WAT      O 7257   0.585   3.261   4.611  0.0750 -0.0622  0.8582
 2349WAT     H1 7258   0.613   3.342   4.652  1.6596 -1.5724  2.9794
 2349WAT     H2 7259   0.496   3.247   4.643  0.1131  0.4138  1.1733
 2350WAT      O 7260   3.202   3.284   3.225  0.0358 -0.3277  0.0123
 2350WAT     H1 7261   3.271   3.346   3.202 -0.6627  0.6752  0.5698
 2350WAT     H2 7262   3.120   3.332   3.211 -0.5592 -1.4297 -0.4316
 2351WAT      O 7263   4.362   5.099   1.163  0.6550 -0.6924  0.0761
 2351WAT     H1 7264   4.448   5.058   1.162  1.2597  0.5277  0.2237
 2351WAT     H2 7265   4.377   5.188   1.132 -0.6962 -0.7071 -0.7117
 2352WAT      O 7266   4.219   3.429   4.456 -0.4067 -0.3597  0.0430
 2352WAT     H1 7267   4.302   3.439   4.410 -0.6356  1.3118 -0.0748
 2352WAT     H2 7268   4.153   3.453   4.391 -0.9013 -0.4620  0.5016
 2353WAT      O 7269   2.387   3.674   1.065  0.1851 -0.8307 -0.0804
 2353WAT     H1 7270   2.379   3.602   1.002  0.0527 -0.5886 -0.3431
 2353WAT     H2 7271   2.370   3.753   1.013  2.4250 -0.4118 -0.3139
 2354WAT      O 7272   1.073   3.525   4.235  0.3017 -0.3317  0.2461
 2354WAT     H1 7273   0.992   3.535   4.185  1.3613  1.0763 -1.3130
 2354WAT     H2 7274   1.069   3.436   4.270 -0.6749 -1.2855 -2.0862
 2355WAT      O 7275   2.978   0.343   1.994 -0.3494  0.0016  0.0861
 2355WAT     H1 7276   3.050   0.323   1.935  0.0454 -2.7609  1.3337
 2355WAT     H2 7277   2.900   0.312   1.947 -0.3899  0.3629 -0.0911
 2356WAT      O 7278   3.931   2.360   1.693  0.2552 -0.0599 -0.1877
 2356WAT     H1 7279   3.880   2.323   1.765 -0.5204 -0.7440 -1.0789
 2356WAT     H2 7280   3.957   2.447   1.725  0.1290 -0.4471  1.0042
 2357WAT      O 7281   2.885   0.784   0.079  0.0585  0.1510 -0.0174
 2357WAT     H1 7282   2.973   0.778   0.040  0.2764  0.3945  0.4295
 2357WAT     H2 7283   2.826   0.768   0.006  0.4878 -2.4171  0.1002
 2358WAT      O 7284   1.036   1.794   2.494  0.3527 -0.4427 -0.1448
 2358WAT     H1 7285   1.131   1.778   2.494  0.5891  0.6668  1.2497
 2358WAT     H2 7286   1.022   1.852   2.570 -1.4505 -0.6113 -0.3054
 2359WAT      O 7287   3.181   1.152   0.452 -0.2626  0.8842 -0.2837
 2359WAT     H1 7288   3.098   1.151   0.405 -0.3379  0.3026 -0.1382
 2359WAT     H2 7289   3.164   1.204   0.530 -0.6318  0.3303  0.0059
 2360WAT      O 7290   0.710   3.124   3.440  0.0400  0.3047  0.1439
 2360WAT     H1 7291   0.732   3.217   3.437  0.6836  0.1801  0.8668
 2360WAT     H2 7292   0.781   3.081   3.392 -1.0922  0.3055 -1.6323
 2361WAT      O 7293   3.206   4.374   1.590  0.1970  0.3314 -0.4829
 2361WAT     H1 7294   3.152   4.363   1.669  0.5945 -0.7013 -0.3420
 2361WAT     H2 7295   3.236   4.464   1.594 -0.1866  0.4334  0.2993
 2362WAT      O 7296   3.094   2.396   1.165 -0.0737 -0.5504  0.3219
 2362WAT     H1 7297   3.155   2.322   1.161  0.2050 -0.2721 -0.9006
 2362WAT     H2 7298   3.012   2.362   1.130 -0.5253 -0.7919  1.5361
 2363WAT      O 7299   4.104   2.516   2.393  0.0317  0.2455  0.0680
 2363WAT     H1 7300   4.163   2.444   2.372  0.2271  0.4189  0.0145
 2363WAT     H2 7301   4.022   2.474   2.420 -0.2948  0.0080 -1.2388
 2364WAT      O 7302   0.499   4.231   0.781  0.2511 -0.0893  0.2207
 2364WAT     H1 7303   0.571   4.272   0.829  0.6046 -0.2548 -0.1674
 2364WAT     H2 7304   0.438   4.303   0.766  0.1562 -0.0225  0.8672
 2365WAT      O 7305   0.411   0.646   4.560 -0.6200  0.1937 -0.0342
 2365WAT     H1 7306   0.364   0.722   4.525 -1.8295 -0.4599  0.1181
 2365WAT     H2 7307   0.370   0.628   4.644 -0.1926 -0.4931  0.0432
 2366WAT      O 7308   1.664   1.851   0.261 -0.1527  0.0200 -0.5101
 2366WAT     H1 7309   1.727   1.855   0.189 -0.3763 -3.0207 -1.0144
 2366WAT     H2 7310   1.589   1.804   0.225 -1.7834  1.5335  0.7450
 2367WAT      O 7311   2.902   2.903   3.411  0.2861  0.1677 -0.5663
 2367WAT     H1 7312   2.981   2.957   3.403  1.2381 -1.0150  0.5416
 2367WAT     H2 7313   2.847   2.932   3.338  1.6130  1.2225 -1.2045
 2368WAT      O 7314   2.645   5.012   3.636  0.0095  0.2013  0.0686
 2368WAT     H1 7315   2.738   4.997   3.649  0.0208 -0.2286 -0.4892
 2368WAT     H2 7316   2.608   4.925   3.620 -0.3089  0.4865 -0.7966
 2369WAT      O 7317   3.144   3.193   1.494  0.3803 -0.4434 -0.1941
 2369WAT     H1 7318   3.127   3.160   1.406 -1.9295  2.7871 -1.1432
 2369WAT     H2 7319   3.187   3.278   1.480 -2.2103  1.3232  1.5118
 2370WAT      O 7320   1.091   3.213   2.542 -0.1373  0.5390  0.1218
 2370WAT     H1 7321   1.127   3.144   2.599 -0.1269  0.0718 -0.4446
 2370WAT     H2 7322   1.027   3.258   2.597 -1.6978 -1.2566 -0.0943
 2371WAT      O 7323   4.374   0.795   4.032 -0.1339  0.3391 -0.3378
 2371WAT     H1 7324   4.420   0.823   3.952  1.8709 -0.9942  0.2670
 2371WAT     H2 7325   4.331   0.714   4.008  0.7130 -0.2192 -0.0316
 2372WAT      O 7326   2.195   4.242   1.627  0.4353 -0.3016 -0.5787
 2372WAT     H1 7327   2.219   4.204   1.543  0.5367  0.6821 -1.0139
 2372WAT     H2 7328   2.104   4.217   1.640  0.6333 -1.0599 -0.6329
 2373WAT      O 7329   0.202   4.570   1.294  0.1482 -0.0384 -0.1635
 2373WAT     H1 7330   0.107   4.567   1.301  0.1687 -0.9976 -0.2168
 2373WAT     H2 7331   0.220   4.574   1.200  0.1554  0.7291 -0.1365
 2374WAT      O 7332   0.444   2.537   4.482 -0.2807 -0.2262 -0.2421
 2374WAT     H1 7333   0.507   2.580   4.540  0.2970 -0.3552 -0.7703
 2374WAT     H2 7334   0.473   2.446   4.478 -1.7868 -0.8348  1.2701
 2375WAT      O 7335   1.535   4.358   5.195 -0.4473  0.0515 -0.1259
 2375WAT     H1 7336   1.593   4.345   5.270 -1.4938  1.8486  1.0384
 2375WAT     H2 7337   1.562   4.442   5.158 -0.7173 -0.2655 -1.0713
 2376WAT      O 7338   1.037   3.495   3.248 -0.0609  0.4136 -0.1459
 2376WAT     H1 7339   1.072   3.407   3.229  0.5828  0.3656  1.0837
 2376WAT     H2 7340   1.072   3.550   3.179 -0.2096 -0.2399 -0.7579
 2377WAT      O 7341   0.693   5.078   1.345 -0.5605 -0.2708 -0.4127
 2377WAT     H1 7342   0.703   5.133   1.424 -1.8905 -0.4231 -0.1203
 2377WAT     H2 7343   0.608   5.103   1.309 -0.5562 -1.1531 -1.0661
 2378WAT      O 7344   3.062   2.731   5.256 -0.3374  0.8021  0.3427
 2378WAT     H1 7345   3.031   2.665   5.317 -2.2132  1.3574  0.0623
 2378WAT     H2 7346   3.129   2.686   5.204 -0.7825 -0.5450  0.8871
 2379WAT      O 7347   2.822   4.019   4.385 -0.2204  0.1651  0.2834
 2379WAT     H1 7348   2.832   3.924   4.388  0.5033  0.2558  2.5390
 2379WAT     H2 7349   2.727   4.033   4.380 -0.4093 -0.6768  1.2483
 2380WAT      O 7350   3.128   4.534   2.913 -0.0328  0.0255  0.1865
 2380WAT     H1 7351   3.053   4.561   2.859  0.2817  0.3185 -0.1096
 2380WAT     H2 7352   3.089   4.509   2.996 -0.6473 -1.4579 -0.5101
 2381WAT      O 7353   1.329   4.760   3.476 -0.2234 -0.0184  0.0073
 2381WAT     H1 7354   1.358   4.793   3.391  0.5727  1.3117  0.7628
 2381WAT     H2 7355   1.369   4.819   3.540 -0.6157 -1.1244  1.3292
 2382WAT      O 7356   3.746   2.763   4.420  0.1420 -0.4473 -0.1497
 2382WAT     H1 7357   3.722   2.681   4.376 -1.7838  0.6382 -1.2697
 2382WAT     H2 7358   3.824   2.741   4.471 -0.8256 -3.2131  0.3307
 2383WAT      O 7359   2.872   2.484   0.459  0.1183 -0.0317  0.1595
 2383WAT     H1 7360   2.813   2.414   0.432  1.1180 -0.6778 -0.4619
 2383WAT     H2 7361   2.879   2.540   0.381  0.0174  0.2586  0.3589
 2384WAT      O 7362   2.520   0.340   1.694  0.0023  0.1161 -0.1689
 2384WAT     H1 7363   2.518   0.382   1.780  0.6922  2.5016 -1.2401
 2384WAT     H2 7364   2.611   0.346   1.666  0.3313 -2.9127 -0.0953
 2385WAT      O 7365   3.156   1.103   4.961 -0.2229  0.2789  0.5033
 2385WAT     H1 7366   3.226   1.041   4.979  0.4361  1.1348  0.9359
 2385WAT     H2 7367   3.104   1.061   4.892  0.8124 -0.2791  0.0472
 2386WAT      O 7368   1.498   0.158  -0.012 -0.3508  0.0997  0.6053
 2386WAT     H1 7369   1.544   0.242  -0.016 -0.2228  0.0377 -2.8179
 2386WAT     H2 7370   1.560   0.099   0.030  0.8990  1.0401  0.1682
 2387WAT      O 7371   2.228   0.494   2.693  0.5873  0.4004  0.4352
 2387WAT     H1 7372   2.246   0.412   2.740 -0.6024  0.1904  0.5680
 2387WAT     H2 7373   2.191   0.552   2.759 -0.5043  0.3222 -0.0837
 2388WAT      O 7374   2.268   0.602   0.949 -0.4019 -0.6032 -0.1911
 2388WAT     H1 7375   2.241   0.514   0.976 -1.6340 -0.5233 -1.0418
 2388WAT     H2 7376   2.186   0.644   0.922  0.0576  1.0707  0.8814
 2389WAT      O 7377   0.920   4.194   1.462 -0.3905  0.0388 -0.3741
 2389WAT     H1 7378   0.940   4.144   1.383 -0.0367  0.3310 -0.4712
 2389WAT     H2 7379   0.933   4.285   1.437 -1.7864  0.2442 -0.4209
 2390WAT      O 7380   3.305   0.202   0.021 -0.3833 -0.1023  0.1732
 2390WAT     H1 7381   3.386   0.235   0.059 -0.8251  0.1773  0.9023
 2390WAT     H2 7382   3.254   0.172   0.096 -0.4673 -1.4144 -0.3731
 2391WAT      O 7383   0.410   1.661   4.965  0.4835 -0.3662 -0.2062
 2391WAT     H1 7384   0.455   1.592   5.014  0.7308 -0.0566  0.0039
 2391WAT     H2 7385   0.317   1.644   4.981  0.4243 -1.9832 -1.9480
 2392WAT      O 7386   3.873   2.438   1.263  0.0630 -0.8772  0.0548
 2392WAT     H1 7387   3.944   2.382   1.295  1.1261  1.5266  2.2975
 2392WAT     H2 7388   3.827   2.465   1.342 -0.3534  1.4117 -0.9046
 2393WAT      O 7389   2.084   1.102   5.165 -0.2432  0.6537  0.2994
 2393WAT     H1 7390   2.160   1.159   5.180 -0.9187  1.5449  0.3913
 2393WAT     H2 7391   2.017   1.160   5.130 -1.1796  0.0540  1.0428
 2394WAT      O 7392   3.645   3.695   1.650  0.2292  0.2166  0.3522
 2394WAT     H1 7393   3.632   3.789   1.641 -1.3713 -0.1391 -2.0099
 2394WAT     H2 7394   3.570   3.666   1.702 -0.9089 -0.0445 -1.3408
 2395WAT      O 7395   3.234  -0.025   3.883  0.3997 -0.5225 -0.0553
 2395WAT     H1 7396   3.221   0.069   3.875  0.7091 -0.5480 -0.9948
 2395WAT     H2 7397   3.312  -0.034   3.937  0.6706 -0.2180 -0.3874
 2396WAT      O 7398   0.440   2.922   5.112  0.0425  0.3472 -0.3631
 2396WAT     H1 7399   0.385   2.845   5.125 -2.3468  2.2187  1.8515
 2396WAT     H2 7400   0.426   2.947   5.021 -3.1911  0.9245  0.1830
 2397WAT      O 7401   3.465   1.502   0.674  0.2576 -0.4674  1.1265
 2397WAT     H1 7402   3.431   1.446   0.604  0.6776 -0.2386  0.7332
 2397WAT     H2 7403   3.450   1.452   0.754 -2.3240  0.2178  1.1667
 2398WAT      O 7404   3.605   0.492   1.034  0.1465 -0.1146  0.1612
 2398WAT     H1 7405   3.583   0.512   1.125  2.5145 -0.2310  0.8328
 2398WAT     H2 7406   3.541   0.427   1.008 -1.6575  1.1670  1.1474
 2399WAT      O 7407   2.503   1.240   4.219 -0.3152 -0.4825  0.1975
 2399WAT     H1 7408   2.489   1.187   4.298 -1.4528 -0.4030  0.0604
 2399WAT     H2 7409   2.576   1.198   4.174 -1.1476 -1.9053  0.1312
 2400WAT      O 7410   2.512   3.205   4.433  0.4393 -0.0858  0.0670
 2400WAT     H1 7411   2.455   3.264   4.482  0.0464 -0.0644 -0.4011
 2400WAT     H2 7412   2.465   3.122   4.432  0.4230 -0.0728 -0.3109
 2401WAT      O 7413   1.631   0.388   5.264 -0.1524  0.0435  0.1624
 2401WAT     H1 7414   1.555   0.442   5.242 -0.3404 -0.6525 -1.0095
 2401WAT     H2 7415   1.683   0.441   5.324 -2.0692  0.1626  1.8415
 2402WAT      O 7416   0.544   4.099   5.008  0.4916  0.0493 -0.0831
 2402WAT     H1 7417   0.502   4.043   4.943  0.5066 -0.7873  0.6042
 2402WAT     H2 7418   0.631   4.061   5.019  1.1938  1.3419 -0.9720
 2403WAT      O 7419   3.051   1.570   3.706  0.2516 -0.4646 -0.3540
 2403WAT     H1 7420   2.963   1.596   3.734  1.2812  1.4328  1.4384
 2403WAT     H2 7421   3.066   1.617   3.624  0.9928  2.6089  1.3837
 2404WAT      O 7422   0.730   2.048   0.359 -0.2704 -0.0374  0.2172
 2404WAT     H1 7423   0.649   2.085   0.323 -0.0116 -0.5500 -0.9243
 2404WAT     H2 7424   0.783   2.125   0.382 -1.8110  0.3457  2.8058
 2405WAT      O 7425   2.937   4.623   2.737  0.2881 -0.5956 -0.0910
 2405WAT     H1 7426   2.856   4.662   2.768  0.3070 -0.7314  0.1295
 2405WAT     H2 7427   2.921   4.605   2.645  1.2711  2.6659 -1.0471
 2406WAT      O 7428   1.961   1.274   4.136 -0.1657 -0.1290  0.2218
 2406WAT     H1 7429   1.914   1.336   4.080 -2.6599  0.9857  3.2728
 2406WAT     H2 7430   2.054   1.294   4.122 -0.7686  1.7406 -1.5953
 2407WAT      O 7431   0.944   3.386   3.661 -0.0329 -0.2958 -0.7832
 2407WAT     H1 7432   0.877   3.324   3.688  0.6639 -0.6153  0.2873
 2407WAT     H2 7433   1.020   3.365   3.716  0.0358  1.8696  0.0521
 2408WAT      O 7434   3.430   4.490   1.936 -0.2708 -0.4509 -0.0892
 2408WAT     H1 7435   3.398   4.499   2.026 -0.6077 -1.1762 -0.1253
 2408WAT     H2 7436   3.470   4.403   1.935  0.0128 -0.3140 -0.5590
 2409WAT      O 7437   2.772   0.068   1.245 -0.0463 -0.2295 -0.3462
 2409WAT     H1 7438   2.679   0.048   1.254 -0.0527 -1.3616 -2.3698
 2409WAT     H2 7439   2.794   0.041   1.156  2.4666 -0.9071  0.4043
 2410WAT      O 7440   1.691   4.381   0.141 -0.0016 -0.5770 -0.0412
 2410WAT     H1 7441   1.637   4.458   0.155 -0.5036 -0.9136 -0.0989
 2410WAT     H2 7442   1.682   4.330   0.221  0.4352 -0.5198  0.0510
 2411WAT      O 7443   3.403   3.368   1.581 -0.1965 -0.1366 -0.0158
 2411WAT     H1 7444   3.445   3.449   1.609  0.4234 -0.3260 -0.3827
 2411WAT     H2 7445   3.330   3.356   1.643 -1.9521  2.0741 -1.4960
 2412WAT      O 7446   0.721   0.212   5.142 -0.2417  0.1058  0.1332
 2412WAT     H1 7447   0.783   0.248   5.079 -0.7858  1.3815  0.2849
 2412WAT     H2 7448   0.687   0.133   5.100  1.0944 -0.3465 -0.1596
 2413WAT      O 7449   0.487   3.047   1.175 -0.3292  0.1246 -0.3400
 2413WAT     H1 7450   0.549   3.118   1.164  0.2236 -0.5960 -2.3655
 2413WAT     H2 7451   0.486   3.029   1.269 -1.3041  3.4656  0.4166
 2414WAT      O 7452   2.455   4.748   4.584 -0.4024  0.2650 -0.0784
 2414WAT     H1 7453   2.450   4.772   4.492  2.2624  3.2528  0.3541
 2414WAT     H2 7454   2.371   4.774   4.621 -0.3169  2.1638 -1.1202
 2415WAT      O 7455   1.073   3.034   1.351  0.5724 -0.2903  0.2365
 2415WAT     H1 7456   1.071   2.982   1.270  0.8839  1.5558 -1.0316
 2415WAT     H2 7457   1.165   3.057   1.362  0.3587  0.4918  0.4249
 2416WAT      O 7458   3.066   5.113   3.213 -0.1935 -0.6001 -0.4176
 2416WAT     H1 7459   3.108   5.040   3.259  1.0291  0.5652  0.3537
 2416WAT     H2 7460   2.991   5.136   3.268 -0.2440 -0.8797 -0.3660
 2417WAT      O 7461   4.291   0.501   2.790  0.2795 -0.2022 -0.2168
 2417WAT     H1 7462   4.202   0.527   2.813 -0.0416 -2.3831  1.2744
 2417WAT     H2 7463   4.347   0.564   2.837 -0.4578  0.3021  0.0100
 2418WAT      O 7464   2.901   2.222   3.961 -0.1883  0.3569 -0.4658
 2418WAT     H1 7465   2.940   2.199   3.876  1.8285 -2.1779  1.0076
 2418WAT     H2 7466   2.807   2.224   3.944  0.2019  1.5546 -3.0597
 2419WAT      O 7467   3.207   3.811   2.500  0.1146 -0.0154 -0.0762
 2419WAT     H1 7468   3.278   3.847   2.554 -0.0380  1.6288 -0.9052
 2419WAT     H2 7469   3.127   3.842   2.542 -0.1533 -1.7405  0.7683
 2420WAT      O 7470   1.913   3.771   2.666 -0.8145  0.4488  0.2038
 2420WAT     H1 7471   1.880   3.861   2.659 -0.5169  0.5232 -0.3516
 2420WAT     H2 7472   1.969   3.761   2.589 -0.4590 -0.0535  0.5237
 2421WAT      O 7473   0.797   1.307   0.189 -0.8402 -0.0818 -0.8879
 2421WAT     H1 7474   0.721   1.283   0.136 -0.7544 -4.0525  0.4138
 2421WAT     H2 7475   0.777   1.271   0.276  0.6885  2.7512  0.7995
 2422WAT      O 7476   3.418   2.986   5.205 -0.0122  0.2260  0.2865
 2422WAT     H1 7477   3.350   3.046   5.235  0.7763  2.0423 -1.3400
 2422WAT     H2 7478   3.486   2.991   5.272 -0.4933  0.1420  0.7936
 2423WAT      O 7479   1.658   2.668   2.001 -0.4088  0.4799 -0.0054
 2423WAT     H1 7480   1.698   2.681   1.916 -0.7322  0.6782 -0.1315
 2423WAT     H2 7481   1.723   2.700   2.064  0.2161 -0.5519 -0.1171
 2424WAT      O 7482   1.549   3.775   5.115 -0.0587  0.0580 -0.1881
 2424WAT     H1 7483   1.593   3.859   5.104  0.8997 -0.5191 -0.9367
 2424WAT     H2 7484   1.456   3.797   5.122  0.2862  1.2709  0.9854
 2425WAT      O 7485   3.817   0.153   3.432  0.1419 -0.6426 -0.4677
 2425WAT     H1 7486   3.879   0.188   3.368  1.0326 -0.7191  0.3159
 2425WAT     H2 7487   3.733   0.192   3.408  0.6820  0.2666 -0.9654
 2426WAT      O 7488   4.127   1.653   2.689  0.0977  0.0313 -0.0174
 2426WAT     H1 7489   4.120   1.558   2.692  0.6887  0.0094  2.6301
 2426WAT     H2 7490   4.044   1.682   2.652 -0.8882 -1.4537  0.9359
 2427WAT      O 7491   1.524   3.208   3.056  0.5700 -0.4011  0.0053
 2427WAT     H1 7492   1.450   3.156   3.088  0.1674  0.7196  0.9528
 2427WAT     H2 7493   1.534   3.182   2.964 -1.0948 -0.4609 -0.1762
 2428WAT      O 7494   0.359   1.696   3.685 -0.0327  0.0195  0.5715
 2428WAT     H1 7495   0.437   1.656   3.724  1.3618  1.7378 -0.3061
 2428WAT     H2 7496   0.342   1.643   3.607  0.2034 -0.4105  0.8038
 2429WAT      O 7497   2.401   4.228   3.653 -0.7914 -0.6777 -0.3927
 2429WAT     H1 7498   2.341   4.271   3.591 -1.3206 -2.0130 -0.8432
 2429WAT     H2 7499   2.346   4.211   3.730  0.1550  2.0748  1.0341
 2430WAT      O 7500   3.249   1.368   4.934 -0.3802 -0.0777  0.4361
 2430WAT     H1 7501   3.212   1.281   4.923 -2.4507  0.6517  1.0747
 2430WAT     H2 7502   3.234   1.388   5.027 -1.0243  1.3939  0.0387
 2431WAT      O 7503   1.201   5.115   3.306  0.1680 -0.4097  0.0143
 2431WAT     H1 7504   1.138   5.181   3.278  1.6767  0.8237 -0.6116
 2431WAT     H2 7505   1.153   5.032   3.300 -0.6711  0.1643 -3.0190
 2432WAT      O 7506   4.249   0.932   5.203 -0.3710 -0.0942 -0.3112
 2432WAT     H1 7507   4.200   0.922   5.122 -2.0198  1.6013  0.4069
 2432WAT     H2 7508   4.230   0.851   5.252 -3.0899  0.7519  0.2108
 2433WAT      O 7509   3.407   2.452   4.477  0.3355 -0.2074 -0.6515
 2433WAT     H1 7510   3.344   2.516   4.442  0.5056 -0.0313 -0.6330
 2433WAT     H2 7511   3.428   2.484   4.564 -0.1317 -0.6783 -0.3577
 2434WAT      O 7512   2.608   2.735   1.718 -0.2746 -0.0473 -0.4560
 2434WAT     H1 7513   2.570   2.821   1.699 -0.1312 -0.5419 -3.3291
 2434WAT     H2 7514   2.701   2.752   1.732 -0.4988  0.4214  0.5583
 2435WAT      O 7515   4.211   0.498   1.668 -0.2839  0.2454  0.1092
 2435WAT     H1 7516   4.255   0.440   1.606 -0.7042 -0.5149  0.5013
 2435WAT     H2 7517   4.190   0.441   1.743  0.4359  1.1982  1.0535
 2436WAT      O 7518   2.418   2.494   3.589 -0.4047 -0.3371  0.5834
 2436WAT     H1 7519   2.464   2.412   3.570 -1.3099 -0.3366 -2.0506
 2436WAT     H2 7520   2.488   2.558   3.602  0.3497 -0.9340 -0.3709
 2437WAT      O 7521   3.850   0.629   1.907 -0.2152  0.1513 -0.1396
 2437WAT     H1 7522   3.873   0.638   2.000 -3.4192  1.4027  0.6491
 2437WAT     H2 7523   3.915   0.684   1.862 -0.4260  2.0865  1.7181
 2438WAT      O 7524   0.210   1.481   4.293 -0.3171 -0.0809 -0.2096
 2438WAT     H1 7525   0.252   1.521   4.370  1.9048  0.2053 -1.5014
 2438WAT     H2 7526   0.147   1.548   4.264  0.6278  0.9002 -0.0864
 2439WAT      O 7527   1.970   0.321   1.885 -0.2079  0.2650  0.3534
 2439WAT     H1 7528   1.945   0.260   1.815 -1.3571  0.0653  0.9089
 2439WAT     H2 7529   1.970   0.268   1.965 -1.7150  1.0595  0.9204
 2440WAT      O 7530   0.150   2.186   1.971 -0.5078  0.3276  0.2613
 2440WAT     H1 7531   0.186   2.234   2.046 -0.2584 -0.0390  0.3774
 2440WAT     H2 7532   0.201   2.218   1.896 -0.5698  0.4919  0.2894
 2441WAT      O 7533   4.530   2.047   5.307 -0.2675  0.0767  0.6587
 2441WAT     H1 7534   4.520   2.007   5.220  0.9713  3.9465 -1.5360
 2441WAT     H2 7535   4.450   2.097   5.320  0.0948  0.5381  1.1510
 2442WAT      O 7536   1.453   4.506   0.412  0.0960  0.3507  0.1354
 2442WAT     H1 7537   1.487   4.534   0.326 -0.6505  0.0808 -0.2541
 2442WAT     H2 7538   1.520   4.535   0.474  0.3563  1.1042 -0.4763
 2443WAT      O 7539   4.289   1.607   2.912 -0.4888 -0.4778 -0.0558
 2443WAT     H1 7540   4.233   1.641   2.843 -0.3868  1.2776  0.6736
 2443WAT     H2 7541   4.229   1.560   2.970 -0.9971  0.1934 -0.0244
 2444WAT      O 7542   0.103   3.980   4.411 -0.2068 -0.0915  0.2120
 2444WAT     H1 7543   0.106   3.968   4.506 -0.0896 -2.5689 -0.0510
 2444WAT     H2 7544   0.082   4.073   4.400  1.3818  0.6419  2.6186
 2445WAT      O 7545   2.083   1.277   4.864 -0.9072 -0.0366  0.3492
 2445WAT     H1 7546   2.171   1.247   4.888 -0.0112  0.9704 -1.4108
 2445WAT     H2 7547   2.099   1.351   4.804 -2.9687  0.8886  0.8482
 2446WAT      O 7548   1.858   3.591   4.798 -0.0811 -0.2111  0.2686
 2446WAT     H1 7549   1.770   3.604   4.761  0.5422  1.4538 -0.7933
 2446WAT     H2 7550   1.914   3.576   4.722  0.8070  0.4696  0.7586
 2447WAT      O 7551   2.033   2.372   0.374 -0.7488 -0.1690  0.0667
 2447WAT     H1 7552   1.978   2.450   0.373 -0.0867  0.3233  0.7275
 2447WAT     H2 7553   2.081   2.375   0.291  0.4407  1.0037  0.7653
 2448WAT      O 7554   0.954   4.256   2.180  0.8463  0.1979  0.1535
 2448WAT     H1 7555   0.906   4.179   2.151  1.7737 -0.9102  1.4121
 2448WAT     H2 7556   1.022   4.268   2.114 -0.4616  1.1465 -1.0776
 2449WAT      O 7557   1.578   2.669   3.262  0.0382 -0.3311  0.4967
 2449WAT     H1 7558   1.518   2.708   3.325 -1.7369 -1.6348 -0.3106
 2449WAT     H2 7559   1.585   2.735   3.193  1.3613  0.7637  1.5994
 2450WAT      O 7560   2.179   1.436   5.098  0.7433  0.1691 -0.6188
 2450WAT     H1 7561   2.096   1.443   5.050 -0.3509 -0.0823  1.1511
 2450WAT     H2 7562   2.156   1.392   5.180  2.5230  0.6729  0.2033
 2451WAT      O 7563   2.840   4.145   1.289  0.4848 -0.1624 -0.1780
 2451WAT     H1 7564   2.872   4.171   1.203  0.5878  1.0125  0.2069
 2451WAT     H2 7565   2.806   4.056   1.276 -0.6496  0.4748 -1.7088
 2452WAT      O 7566   1.004   1.870   4.322  0.2549  0.2634  0.2815
 2452WAT     H1 7567   1.005   1.778   4.347 -0.7330 -0.0646 -0.7943
 2452WAT     H2 7568   1.096   1.897   4.323  1.0050 -1.6933 -2.7409
 2453WAT      O 7569   1.314   4.333   2.773  0.3063 -0.4427  0.0847
 2453WAT     H1 7570   1.263   4.254   2.791  1.3516 -0.9204  1.0026
 2453WAT     H2 7571   1.392   4.325   2.827  1.4665  0.1891 -1.4053
 2454WAT      O 7572   2.567   4.816   0.519 -0.5373  0.3488 -0.3088
 2454WAT     H1 7573   2.553   4.781   0.607  1.6583  1.7443  0.6905
 2454WAT     H2 7574   2.562   4.740   0.461 -0.1417 -0.9023  1.2580
 2455WAT      O 7575   2.125   2.606   3.545 -0.0075 -0.2555 -0.6361
 2455WAT     H1 7576   2.149   2.687   3.590 -0.9452 -0.2757 -0.0534
 2455WAT     H2 7577   2.148   2.621   3.453  2.5850 -0.4723 -0.1006
 2456WAT      O 7578   3.448   4.309   1.224 -0.0199 -0.1320  0.1972
 2456WAT     H1 7579   3.383   4.277   1.287 -0.2749  0.9742  0.5244
 2456WAT     H2 7580   3.403   4.309   1.140 -0.1082 -0.3270  0.2431
 2457WAT      O 7581   4.212   1.999   1.512  0.8204 -0.3571  0.0976
 2457WAT     H1 7582   4.163   1.922   1.483  2.8081 -2.1875  1.3384
 2457WAT     H2 7583   4.233   1.981   1.603  1.1119  1.8322  0.5209
 2458WAT      O 7584   3.180   4.457   5.228  0.3884 -0.3555 -0.1888
 2458WAT     H1 7585   3.197   4.470   5.321  0.1278  0.3921 -0.2361
 2458WAT     H2 7586   3.194   4.543   5.189  1.6423 -0.9154 -1.0247
 2459WAT      O 7587   0.227   3.175   1.054  0.0579 -0.0931  0.5090
 2459WAT     H1 7588   0.222   3.176   0.958 -1.1829 -0.6180  0.5446
 2459WAT     H2 7589   0.281   3.099   1.075  0.4771  0.1232  0.2323
 2460WAT      O 7590   0.467   3.168   3.160  0.5768  0.9732 -0.5701
 2460WAT     H1 7591   0.374   3.164   3.135  0.5674 -0.2465 -0.4351
 2460WAT     H2 7592   0.500   3.080   3.141  1.4134  1.0444  0.4630
 2461WAT      O 7593   3.745   3.261   0.143  0.1382 -0.1780  0.0357
 2461WAT     H1 7594   3.707   3.239   0.228  0.9557 -2.5920 -0.1332
 2461WAT     H2 7595   3.835   3.288   0.163 -0.2397  1.1216  0.0622
 2462WAT      O 7596   2.607   2.318   5.235  0.4870  0.1953 -0.3972
 2462WAT     H1 7597   2.583   2.374   5.161  0.5191 -0.6298 -1.0605
 2462WAT     H2 7598   2.537   2.252   5.238  1.4482 -0.8806 -0.8899
 2463WAT      O 7599   3.167   4.565   4.343  0.3070  0.3217 -0.6350
 2463WAT     H1 7600   3.182   4.529   4.256 -0.6266 -0.9440 -0.2929
 2463WAT     H2 7601   3.164   4.488   4.401 -2.1440  0.8629  0.0610
 2464WAT      O 7602   2.282   0.811   3.379 -0.0722  0.0665 -0.6075
 2464WAT     H1 7603   2.345   0.852   3.320  0.6656 -1.6844 -1.0838
 2464WAT     H2 7604   2.214   0.878   3.391  1.0310  1.3795 -1.4031
 2465WAT      O 7605   0.563   4.759   5.035 -0.1884 -0.1269 -0.1491
 2465WAT     H1 7606   0.542   4.680   4.985  0.1857 -0.5365  0.3219
 2465WAT     H2 7607   0.651   4.784   5.006 -0.3869  0.2295 -0.4399
 2466WAT      O 7608   1.196   2.949   1.627  0.3797  0.2011 -0.2949
 2466WAT     H1 7609   1.231   2.939   1.539  2.4933 -3.2691  0.7516
 2466WAT     H2 7610   1.273   2.967   1.681 -0.4696 -0.4392  1.1818
 2467WAT      O 7611   2.278   5.069   0.587  0.0083 -0.2912 -0.2662
 2467WAT     H1 7612   2.281   5.007   0.515  0.5464 -0.3980 -0.1541
 2467WAT     H2 7613   2.208   5.037   0.644 -0.2403 -0.3539 -0.6068
 2468WAT      O 7614   3.821   1.856   0.510 -0.1498  0.0814 -0.2533
 2468WAT     H1 7615   3.829   1.920   0.580  0.4087  0.0593 -0.2898
 2468WAT     H2 7616   3.790   1.777   0.553  2.5564 -0.7123  0.4694
 2469WAT      O 7617   2.280   0.960   2.202 -0.2677 -0.0111  0.1582
 2469WAT     H1 7618   2.262   0.902   2.128 -2.2462 -1.7165  1.8414
 2469WAT     H2 7619   2.300   0.901   2.275 -0.4186  1.4986  1.4818
 2470WAT      O 7620   3.746   4.620   1.614  0.5341  0.3355  0.0830
 2470WAT     H1 7621   3.831   4.631   1.571  0.4280 -1.7301 -0.7993
 2470WAT     H2 7622   3.767   4.621   1.707  1.3337  1.1339 -0.0917
 2471WAT      O 7623   0.078   4.785   2.470 -0.2533 -0.2475  0.3632
 2471WAT     H1 7624   0.151   4.779   2.532 -0.3628 -0.7344  0.4509
 2471WAT     H2 7625   0.073   4.698   2.430 -0.0852  0.1097 -0.4533
 2472WAT      O 7626   4.347   1.338   4.795 -0.3454 -0.2295  0.6699
 2472WAT     H1 7627   4.429   1.319   4.841 -0.6741 -2.9703  0.2630
 2472WAT     H2 7628   4.360   1.427   4.761  1.8570 -0.0170  1.8655
 2473WAT      O 7629   4.279   0.628   1.385 -0.0461  0.2725  0.2403
 2473WAT     H1 7630   4.331   0.558   1.424 -1.5833 -0.9745  0.1447
 2473WAT     H2 7631   4.213   0.648   1.451  0.0994  1.3489  0.0808
 2474WAT      O 7632   0.887   1.476   1.415  0.4457 -0.1738 -0.2441
 2474WAT     H1 7633   0.858   1.450   1.503  0.0360  1.1109  0.0130
 2474WAT     H2 7634   0.979   1.502   1.427  0.1156  0.9199  0.0099
 2475WAT      O 7635   4.321   2.385   3.549 -0.6766  0.0469  0.0679
 2475WAT     H1 7636   4.288   2.375   3.639  0.6635  0.6333  0.6591
 2475WAT     H2 7637   4.257   2.442   3.507 -0.8404  0.5456  0.9497
 2476WAT      O 7638   4.356   2.761   3.202  0.0000 -0.3768  0.2380
 2476WAT     H1 7639   4.444   2.731   3.223  0.0943 -1.5247 -1.5770
 2476WAT     H2 7640   4.299   2.690   3.231 -0.2953  0.1476  0.9611
 2477WAT      O 7641   1.498   3.711   2.662 -0.6714 -0.0450  0.0734
 2477WAT     H1 7642   1.440   3.733   2.735 -0.2804  1.5477 -0.0512
 2477WAT     H2 7643   1.582   3.692   2.704 -0.9662 -1.1984  0.1688
 2478WAT      O 7644   0.460   0.060   0.741 -0.4335 -0.0008 -0.1137
 2478WAT     H1 7645   0.549   0.065   0.774 -1.6298  0.8574  3.4355
 2478WAT     H2 7646   0.430   0.150   0.739 -0.8897 -0.1300 -2.6299
 2479WAT      O 7647   3.914   0.701   0.405  0.0293 -0.0595 -0.2955
 2479WAT     H1 7648   4.004   0.703   0.437  0.1452  0.4523 -0.6380
 2479WAT     H2 7649   3.921   0.675   0.314 -0.0539  1.1233 -0.6646
 2480WAT      O 7650   4.344   2.229   0.078 -0.0137 -0.1764 -0.6096
 2480WAT     H1 7651   4.274   2.164   0.086 -0.5191  0.4449  0.3105
 2480WAT     H2 7652   4.338   2.280   0.159  1.0952  0.3030 -0.8100
 2481WAT      O 7653   0.736   1.729   4.668 -0.4970 -0.0336  0.1662
 2481WAT     H1 7654   0.712   1.654   4.723 -0.3696  0.1478  0.4690
 2481WAT     H2 7655   0.771   1.689   4.588  1.7317 -0.3452  1.2196
 2482WAT      O 7656   1.551   2.660   2.332 -0.2043  0.1490  0.3960
 2482WAT     H1 7657   1.591   2.740   2.300  1.5201 -0.0098  1.9770
 2482WAT     H2 7658   1.463   2.661   2.296  0.6997  1.2797 -2.0068
 2483WAT      O 7659   1.666   0.352   1.643 -0.0537  0.3238 -0.0807
 2483WAT     H1 7660   1.637   0.359   1.734  0.6602 -0.4979  0.2214
 2483WAT     H2 7661   1.662   0.258   1.623 -0.9278  0.5681 -1.1489
 2484WAT      O 7662   0.559   3.425   4.132  0.4385  0.2395  0.2038
 2484WAT     H1 7663   0.612   3.500   4.104 -0.7209  1.8803  2.1303
 2484WAT     H2 7664   0.603   3.394   4.211  1.0192 -1.3020 -0.6878
 2485WAT      O 7665   1.390   3.391   5.092  0.0144  0.2556  0.0318
 2485WAT     H1 7666   1.336   3.331   5.041  0.6098 -0.6522  0.4351
 2485WAT     H2 7667   1.329   3.437   5.149 -0.4033 -0.3231  0.0544
 2486WAT      O 7668   0.628   4.697   1.834  0.5905  0.0514  0.2752
 2486WAT     H1 7669   0.533   4.699   1.821  0.5169 -1.6435  0.2437
 2486WAT     H2 7670   0.662   4.664   1.751  1.1318 -0.0970  0.5543
 2487WAT      O 7671   4.389   2.586   2.635  0.0662  0.2239 -0.7267
 2487WAT     H1 7672   4.450   2.511   2.633  0.6690  0.7144 -1.1743
 2487WAT     H2 7673   4.390   2.615   2.726  1.5703  1.0668 -0.9742
 2488WAT      O 7674   0.862   2.550   4.956 -0.1048 -0.6236  0.2628
 2488WAT     H1 7675   0.890   2.481   5.017  0.6746 -0.5870 -0.0340
 2488WAT     H2 7676   0.823   2.503   4.882 -1.8009 -0.6370  1.1301
 2489WAT      O 7677   0.044   3.389   3.608  0.1429  0.1767 -0.3088
 2489WAT     H1 7678  -0.040   3.389   3.654 -0.1585 -2.0689 -0.7472
 2489WAT     H2 7679   0.039   3.464   3.548 -1.6347 -0.0438 -0.4804
 2490WAT      O 7680   3.500   4.166   5.191 -0.2886  0.6477  0.3199
 2490WAT     H1 7681   3.467   4.106   5.125  1.7912  0.0983 -0.2697
 2490WAT     H2 7682   3.452   4.142   5.271  0.0804 -1.4107 -0.0384
 2491WAT      O 7683   0.283   1.249   3.062 -0.5437 -0.4733  0.1704
 2491WAT     H1 7684   0.300   1.323   3.004 -0.5998 -0.8091 -0.2824
 2491WAT     H2 7685   0.369   1.226   3.097 -0.3063 -1.0374 -0.7325
 2492WAT      O 7686   2.518   3.621   1.360 -0.0736 -0.0227  0.0068
 2492WAT     H1 7687   2.570   3.651   1.285  0.2994 -1.1109 -0.1835
 2492WAT     H2 7688   2.464   3.550   1.326 -1.0700  0.5266  0.4079
 2493WAT      O 7689   3.773   2.546   3.312 -0.0168  0.0240  0.0407
 2493WAT     H1 7690   3.840   2.492   3.270  0.9284  0.0079  1.5120
 2493WAT     H2 7691   3.810   2.568   3.397 -1.1367  1.5394  0.1668
 2494WAT      O 7692   2.590   4.673   0.772 -0.3882 -0.2037 -0.0335
 2494WAT     H1 7693   2.670   4.634   0.807  0.3690  1.2860 -0.0618
 2494WAT     H2 7694   2.564   4.738   0.837 -1.2502 -0.2321 -0.3275
 2495WAT      O 7695   3.294   1.951   5.001  0.1480 -1.0937 -0.2989
 2495WAT     H1 7696   3.287   1.965   4.907  0.0982  2.2088  0.0609
 2495WAT     H2 7697   3.204   1.957   5.033  0.3143 -0.4561  0.0858
 2496WAT      O 7698   1.354   3.023   5.073 -0.6378 -0.3511  0.1565
 2496WAT     H1 7699   1.293   3.080   5.026  0.3409 -0.2978 -1.1002
 2496WAT     H2 7700   1.354   2.941   5.023 -0.1903 -0.5899  0.5318
 2497WAT      O 7701   0.494   1.782   4.238 -0.4294 -0.4459  0.3343
 2497WAT     H1 7702   0.565   1.845   4.230 -0.2814 -0.3296  2.2321
 2497WAT     H2 7703   0.463   1.791   4.328 -1.6802 -1.7422  0.0772
 2498WAT      O 7704   0.795   1.153   5.175 -0.0994  0.1941  0.0556
 2498WAT     H1 7705   0.861   1.220   5.187 -0.3053  0.3052  0.6035
 2498WAT     H2 7706   0.735   1.164   5.249 -0.7916  0.1688 -0.4845
 2499WAT      O 7707   0.486   2.499   3.409  0.5491 -0.1349 -0.5183
 2499WAT     H1 7708   0.473   2.562   3.479 -0.6477 -3.0257  2.0614
 2499WAT     H2 7709   0.400   2.490   3.368  0.0455 -1.8214  0.7976
 2500WAT      O 7710   1.230   4.720   2.439 -0.0509  0.5415 -0.8097
 2500WAT     H1 7711   1.303   4.740   2.379 -0.2575  1.2108 -0.8441
 2500WAT     H2 7712   1.228   4.624   2.442  0.6880  0.5102 -0.9855
 2501WAT      O 7713   3.918   2.641   3.532  0.8790  0.1022 -0.1973
 2501WAT     H1 7714   3.911   2.737   3.529  0.7213  0.1213  0.5037
 2501WAT     H2 7715   3.983   2.624   3.600 -0.0899 -0.3058  0.6681
 2502WAT      O 7716   4.310   3.421   3.726  0.5980  0.0581 -0.1649
 2502WAT     H1 7717   4.235   3.387   3.677  0.5441  1.0792 -0.8073
 2502WAT     H2 7718   4.316   3.364   3.803 -1.1108  0.2310  0.1321
 2503WAT      O 7719   4.438   0.235   1.153 -0.1611 -0.5312  0.4798
 2503WAT     H1 7720   4.487   0.250   1.072  0.6294 -0.5252  0.9513
 2503WAT     H2 7721   4.357   0.284   1.141 -0.4599 -1.2675 -0.6790
 2504WAT      O 7722   0.527   3.679   1.663  0.1120 -0.3374 -0.0173
 2504WAT     H1 7723   0.578   3.746   1.708 -1.5906  0.6859  0.4791
 2504WAT     H2 7724   0.556   3.596   1.702  0.6004  0.3103  1.0163
 2505WAT      O 7725   0.647   3.645   2.380 -0.2620  0.0921  0.8009
 2505WAT     H1 7726   0.651   3.550   2.364  0.2996  0.3211 -0.4992
 2505WAT     H2 7727   0.650   3.652   2.475 -1.5533 -1.2489  0.9851
 2506WAT      O 7728   1.708   0.295   4.160  0.2098 -0.4264 -0.2293
 2506WAT     H1 7729   1.762   0.344   4.097  1.6166  1.1417  2.0324
 2506WAT     H2 7730   1.763   0.223   4.188  0.8429  0.6108  1.3530
 2507WAT      O 7731   4.016   2.249   1.426 -0.5116  0.7485 -0.4113
 2507WAT     H1 7732   4.059   2.164   1.440  1.1506  1.2597 -2.0450
 2507WAT     H2 7733   4.005   2.285   1.514  0.8640 -0.1908  0.1835
 2508WAT      O 7734   4.335   2.651   2.326 -0.3663 -0.1201  0.4511
 2508WAT     H1 7735   4.384   2.653   2.409 -1.7524  0.2319  1.2993
 2508WAT     H2 7736   4.245   2.636   2.353 -0.5291 -2.7505 -1.1648
 2509WAT      O 7737   4.267   2.210   1.190 -0.3332  0.4936 -0.3907
 2509WAT     H1 7738   4.218   2.287   1.220 -0.1959  0.0452  1.0911
 2509WAT     H2 7739   4.330   2.194   1.260  1.0133  0.2302 -1.6422
 2510WAT      O 7740   2.994   2.175   3.267 -0.1398  0.0809 -0.0537
 2510WAT     H1 7741   2.987   2.269   3.280 -0.1313  0.0477  0.1972
 2510WAT     H2 7742   2.914   2.139   3.304  1.9497 -0.4808  4.7049
 2511WAT      O 7743   0.357   3.310   4.728 -0.4483  0.1380 -0.5097
 2511WAT     H1 7744   0.278   3.357   4.699 -1.6299 -1.1233  0.5294
 2511WAT     H2 7745   0.367   3.336   4.820 -0.4245 -0.7205 -0.2635
 2512WAT      O 7746   2.676   3.680   3.439 -0.1562  0.4305  0.0129
 2512WAT     H1 7747   2.639   3.699   3.525 -0.4036 -0.1295  0.0343
 2512WAT     H2 7748   2.620   3.611   3.403 -0.9629  1.6626 -1.2063
 2513WAT      O 7749   3.713   0.591   3.687  0.1163 -0.2904 -0.0255
 2513WAT     H1 7750   3.679   0.517   3.737 -1.2858 -0.8042 -1.6441
 2513WAT     H2 7751   3.699   0.566   3.595 -1.9931  2.6262 -0.6510
 2514WAT      O 7752   4.463   2.434   2.172  0.1066  0.0401  0.5260
 2514WAT     H1 7753   4.446   2.515   2.221  1.0494  0.9562 -0.6141
 2514WAT     H2 7754   4.381   2.417   2.126 -0.2454  0.0838  1.1132
 2515WAT      O 7755   1.060   2.787   0.152 -0.2057  0.1911 -0.0678
 2515WAT     H1 7756   1.088   2.730   0.223  1.2481  0.2212 -0.5969
 2515WAT     H2 7757   1.007   2.730   0.096 -0.3888 -0.1282  0.4224
 2516WAT      O 7758   0.524   4.680   5.323  0.7003 -0.0736 -0.3787
 2516WAT     H1 7759   0.558   4.707   5.238 -0.4091  2.2764 -0.1712
 2516WAT     H2 7760   0.430   4.697   5.317  0.6428  0.4595  1.4006
 2517WAT      O 7761   0.089   5.166   0.152 -0.2078  0.0793 -0.2655
 2517WAT     H1 7762   0.020   5.175   0.218 -1.9049  0.2439 -1.9741
 2517WAT     H2 7763   0.070   5.082   0.109  0.6896  0.1079 -0.7454
 2518WAT      O 7764   3.811   1.286   3.832  0.1295  0.4296  0.7928
 2518WAT     H1 7765   3.877   1.216   3.827  0.6448  0.9674  0.0622
 2518WAT     H2 7766   3.758   1.262   3.908  0.4632 -0.6198  0.7115
 2519WAT      O 7767   2.187   3.045   3.759  0.0742 -0.0505 -0.8181
 2519WAT     H1 7768   2.159   2.998   3.838 -1.4187  1.1696 -0.5749
 2519WAT     H2 7769   2.113   3.036   3.698  1.6186 -1.8828 -2.5504
 2520WAT      O 7770   4.205   3.741   1.095 -0.6207  0.5744 -0.6789
 2520WAT     H1 7771   4.166   3.707   1.014 -2.7434  1.2224  0.0199
 2520WAT     H2 7772   4.285   3.784   1.066 -2.2525  2.4444 -2.7648
 2521WAT      O 7773   3.691   0.170   2.314  0.8261 -0.4498 -0.1070
 2521WAT     H1 7774   3.618   0.231   2.325  1.6324  0.6416 -0.6712
 2521WAT     H2 7775   3.736   0.170   2.399  1.1224  0.1556 -0.2556
 2522WAT      O 7776   4.307   3.448   1.528 -0.0186  0.3237  0.5540
 2522WAT     H1 7777   4.310   3.378   1.464  0.1163  0.6177  0.2366
 2522WAT     H2 7778   4.248   3.513   1.489 -0.2654  0.3175  0.9143
 2523WAT      O 7779   3.208   2.943   2.329  0.4369 -0.1095 -0.0262
 2523WAT     H1 7780   3.143   3.003   2.365  0.7367 -0.4207  1.0423
 2523WAT     H2 7781   3.169   2.856   2.340 -1.2516 -0.0964 -4.0222
 2524WAT      O 7782   2.286   1.936   3.950 -0.4966  0.2198  0.4614
 2524WAT     H1 7783   2.357   1.967   3.893 -0.5554  0.7781  0.6843
 2524WAT     H2 7784   2.210   1.987   3.922 -1.2596 -1.5828 -0.9597
 2525WAT      O 7785   2.453   0.470   1.447 -0.5394 -0.0793  0.4594
 2525WAT     H1 7786   2.452   0.410   1.522  0.5564 -0.6596  0.0409
 2525WAT     H2 7787   2.532   0.522   1.458 -1.5827  1.4958  0.9302
 2526WAT      O 7788   2.676   3.652   1.135 -0.1426 -0.0093  0.2720
 2526WAT     H1 7789   2.732   3.590   1.088  0.7661  1.2442 -0.3809
 2526WAT     H2 7790   2.614   3.682   1.068 -1.2033 -0.8961  0.8263
 2527WAT      O 7791   0.736   2.983   2.552  0.8122  0.3214  0.0579
 2527WAT     H1 7792   0.703   3.036   2.624  3.2109 -1.3736  2.5835
 2527WAT     H2 7793   0.761   3.047   2.485 -0.9671  1.9757  0.8647
 2528WAT      O 7794   1.351   1.963   0.303 -0.2307 -0.1750 -0.2512
 2528WAT     H1 7795   1.324   1.982   0.213 -0.8248  1.5625  0.2390
 2528WAT     H2 7796   1.378   1.871   0.302 -2.0894 -0.7639 -1.7723
 2529WAT      O 7797   1.611   4.024   4.437  0.3721 -0.1757  0.0992
 2529WAT     H1 7798   1.647   4.107   4.469  0.2989  0.1079 -0.5394
 2529WAT     H2 7799   1.524   4.020   4.477  0.6859 -0.3359  0.7730
 2530WAT      O 7800   3.730   0.994   0.089 -0.1830  0.1890  0.2857
 2530WAT     H1 7801   3.700   1.001  -0.002 -0.7740  0.2318  0.4786
 2530WAT     H2 7802   3.797   1.061   0.098  0.8680 -0.7150 -0.5047
 2531WAT      O 7803   1.197   2.541   5.107  0.1434 -0.3684  0.4976
 2531WAT     H1 7804   1.149   2.465   5.140 -0.0656 -0.8688 -0.9155
 2531WAT     H2 7805   1.234   2.581   5.186 -1.3408 -0.8177  1.4735
 2532WAT      O 7806   4.480   4.455   4.192  0.2527  0.7881  0.0886
 2532WAT     H1 7807   4.568   4.492   4.185  0.1629  0.8031 -1.2548
 2532WAT     H2 7808   4.444   4.463   4.104  0.0388 -2.0388 -0.1743
 2533WAT      O 7809   0.901   0.762   1.757  0.3398 -0.1452  0.1768
 2533WAT     H1 7810   0.927   0.854   1.754  0.0555 -0.0393  0.7292
 2533WAT     H2 7811   0.815   0.760   1.715  0.0038 -0.0228  0.8370
 2534WAT      O 7812   0.280   0.556   1.550 -0.0995  0.1777  0.3874
 2534WAT     H1 7813   0.311   0.504   1.476 -1.3675  1.0838 -0.8138
 2534WAT     H2 7814   0.315   0.510   1.627 -0.5230 -2.0107 -0.6457
 2535WAT      O 7815   3.456   3.200   4.397  0.4889 -0.0409  0.7667
 2535WAT     H1 7816   3.513   3.125   4.415  0.0790 -0.1020  1.8629
 2535WAT     H2 7817   3.418   3.180   4.311  2.1982  0.0680 -0.0646
 2536WAT      O 7818   4.354   1.903   4.851  0.1614  0.0729 -0.1779
 2536WAT     H1 7819   4.400   1.985   4.868  0.7651  0.1873 -2.1523
 2536WAT     H2 7820   4.305   1.918   4.771 -0.2081 -1.3109 -0.2443
 2537WAT      O 7821   0.167   0.075   3.976 -0.4932 -0.3867 -0.8134
 2537WAT     H1 7822   0.241   0.071   3.916 -0.3287  0.8158 -0.7129
 2537WAT     H2 7823   0.092   0.100   3.921 -0.3535  0.6602 -0.5570
 2538WAT      O 7824   2.979   0.663   4.247 -0.2669 -0.4684 -0.2480
 2538WAT     H1 7825   2.941   0.713   4.175  0.4265 -0.0699 -0.3528
 2538WAT     H2 7826   3.040   0.725   4.288  0.6164 -1.2336 -0.3820
 2539WAT      O 7827   2.807   1.464   1.941  0.0700  0.3026  0.1727
 2539WAT     H1 7828   2.721   1.423   1.951  0.1653  0.4247  1.9231
 2539WAT     H2 7829   2.791   1.556   1.961  0.9636 -0.0703  3.2024
 2540WAT      O 7830   2.408   0.861   1.081 -0.0073 -0.1906  0.3495
 2540WAT     H1 7831   2.482   0.807   1.108 -1.1684 -0.6728  2.8137
 2540WAT     H2 7832   2.349   0.799   1.037 -0.3304 -0.5048  1.1968
 2541WAT      O 7833   1.613   3.577   2.428 -0.3526 -0.2876  0.3486
 2541WAT     H1 7834   1.529   3.610   2.395 -0.2760  0.0695  0.5034
 2541WAT     H2 7835   1.599   3.565   2.522  0.5193  2.2734  0.8889
 2542WAT      O 7836   2.108   3.706   1.891 -0.3371  0.0446  0.1136
 2542WAT     H1 7837   2.033   3.725   1.949  0.0103  0.3172  0.4794
 2542WAT     H2 7838   2.158   3.640   1.939 -0.1246  0.1629  0.0524
 2543WAT      O 7839   0.944   1.397   4.912 -0.5549 -0.2397  0.1559
 2543WAT     H1 7840   1.016   1.414   4.850 -1.1573 -0.8479 -0.7424
 2543WAT     H2 7841   0.875   1.360   4.857 -2.8566  3.3054  0.3415
 2544WAT      O 7842   3.859   3.423   2.966  0.2364  0.3204  0.5835
 2544WAT     H1 7843   3.789   3.365   2.934  0.6924  0.2360 -0.2975
 2544WAT     H2 7844   3.869   3.488   2.897 -0.3392  1.5376  1.6062
 2545WAT      O 7845   1.728   4.879   4.528  0.1195 -0.3104 -0.3037
 2545WAT     H1 7846   1.679   4.952   4.568 -0.6169  1.0514 -3.3689
 2545WAT     H2 7847   1.810   4.919   4.499  1.0413 -1.4755  0.6157
 2546WAT      O 7848   2.291   0.058   4.200 -0.0102 -0.5692  0.5247
 2546WAT     H1 7849   2.222  -0.007   4.186  0.1571 -0.5272 -0.5648
 2546WAT     H2 7850   2.372   0.012   4.177  0.0158  0.3130 -1.3725
 2547WAT      O 7851   1.296   5.124   2.229 -0.0172 -0.1810  0.1229
 2547WAT     H1 7852   1.302   5.029   2.235  2.5575 -0.0628  0.4352
 2547WAT     H2 7853   1.271   5.151   2.318  1.2147 -0.4832  0.5811
 2548WAT      O 7854   3.384   4.108   2.787 -0.3415  0.3193 -0.0840
 2548WAT     H1 7855   3.369   4.088   2.694 -1.9742  1.8283 -0.2028
 2548WAT     H2 7856   3.326   4.183   2.805  0.6598  0.6806  1.9137
 2549WAT      O 7857   3.445   2.329   2.446  0.1118 -0.1509  0.0048
 2549WAT     H1 7858   3.409   2.324   2.535 -2.8923 -0.6114 -1.1149
 2549WAT     H2 7859   3.387   2.390   2.400 -0.3443 -2.2357 -2.4056
 2550WAT      O 7860   1.541   1.961   4.783 -0.6474 -0.4191 -0.3669
 2550WAT     H1 7861   1.576   1.947   4.695 -0.8428 -0.8918 -0.3747
 2550WAT     H2 7862   1.552   1.876   4.827 -0.7522 -0.2489 -0.0098
 2551WAT      O 7863   1.620   3.350   0.833  0.4017 -0.3290  0.1448
 2551WAT     H1 7864   1.549   3.292   0.859 -0.0850 -0.8810 -2.1786
 2551WAT     H2 7865   1.578   3.436   0.824  0.4147 -0.2942  0.3933
 2552WAT      O 7866   2.899   4.535   0.414 -0.2302  0.8297 -0.2668
 2552WAT     H1 7867   2.952   4.456   0.408  0.1551  1.0157  0.6780
 2552WAT     H2 7868   2.840   4.529   0.338  0.9292  0.4904 -1.1751
 2553WAT      O 7869   1.215   3.945   1.274 -0.6678  0.2274  0.2854
 2553WAT     H1 7870   1.257   3.894   1.205 -3.7204 -0.5732 -1.1973
 2553WAT     H2 7871   1.220   3.889   1.351 -0.8911 -0.7952 -0.4199
 2554WAT      O 7872   0.538   1.676   2.059  0.3719  0.3923  0.7560
 2554WAT     H1 7873   0.546   1.770   2.042  0.5216  0.7259  2.5497
 2554WAT     H2 7874   0.493   1.671   2.143 -0.6890 -1.1797  0.1420
 2555WAT      O 7875   3.791   4.189   4.762  0.6919 -0.2891 -0.3275
 2555WAT     H1 7876   3.766   4.098   4.775 -1.2730 -0.1023 -2.1376
 2555WAT     H2 7877   3.759   4.234   4.841  1.5722 -1.1094  0.5189
 2556WAT      O 7878   1.197   0.512   3.082  0.0443 -0.0383  0.1380
 2556WAT     H1 7879   1.147   0.563   3.019 -0.4952 -1.3481 -0.5298
 2556WAT     H2 7880   1.255   0.457   3.028  0.7578  0.0101  0.8384
 2557WAT      O 7881   4.036   2.336   5.220  0.6232 -0.5869 -0.1611
 2557WAT     H1 7882   3.999   2.371   5.139 -0.0954 -0.4298  0.2205
 2557WAT     H2 7883   4.001   2.248   5.226 -0.2682 -0.2024  0.5472
 2558WAT      O 7884   0.046   0.035   1.863 -0.2194 -0.4997 -0.1724
 2558WAT     H1 7885   0.007   0.118   1.892 -1.2187 -0.9812 -0.1060
 2558WAT     H2 7886   0.082   0.055   1.776 -1.0582 -0.1617 -0.4545
 2559WAT      O 7887   2.833   3.693   0.032 -0.7258 -0.7777  0.0206
 2559WAT     H1 7888   2.837   3.789   0.033  0.8677 -0.8239  0.2401
 2559WAT     H2 7889   2.851   3.669  -0.058 -1.2919 -0.8744 -0.0699
 2560WAT      O 7890   3.267   3.799   3.874 -0.3300 -0.2609 -0.1593
 2560WAT     H1 7891   3.207   3.867   3.844  0.1331  1.3336  2.2392
 2560WAT     H2 7892   3.218   3.752   3.941  0.4801 -0.0601  0.5932
 2561WAT      O 7893   2.369   1.026   2.808 -0.3794 -0.2708  0.3768
 2561WAT     H1 7894   2.289   1.003   2.855  0.1670 -1.1338  0.9237
 2561WAT     H2 7895   2.382   0.955   2.745 -1.3087  1.0593 -1.4121
 2562WAT      O 7896   1.406   4.508   0.806  0.0842 -0.0325 -0.0326
 2562WAT     H1 7897   1.485   4.562   0.800 -0.1975  0.3023 -0.8330
 2562WAT     H2 7898   1.413   4.447   0.733  0.6115 -1.3968  1.1125
 2563WAT      O 7899   3.055   3.196   2.176  0.0009 -0.2203  0.0252
 2563WAT     H1 7900   2.963   3.218   2.163  0.0298  0.8531  1.4685
 2563WAT     H2 7901   3.054   3.135   2.250  0.3739 -1.0573 -0.6447
 2564WAT      O 7902   0.776   2.410   4.168  0.4578 -0.7207 -0.4250
 2564WAT     H1 7903   0.848   2.364   4.213  1.0507  0.8286  0.2701
 2564WAT     H2 7904   0.812   2.496   4.147 -1.0517 -0.0651 -0.4656
 2565WAT      O 7905   4.223   2.327   0.542 -0.0972 -0.0480  0.3032
 2565WAT     H1 7906   4.160   2.370   0.600  1.6857  0.3583  2.0183
 2565WAT     H2 7907   4.208   2.233   0.555 -0.6272  0.0378  0.3501
 2566WAT      O 7908   1.146   2.389   0.518 -0.2357  0.0337 -0.4219
 2566WAT     H1 7909   1.188   2.328   0.458 -0.0628 -1.2977  0.9883
 2566WAT     H2 7910   1.170   2.476   0.485  1.6833 -0.6664 -1.0110
 2567WAT      O 7911   3.626   3.179   3.526  0.3131 -0.1976  0.1016
 2567WAT     H1 7912   3.577   3.110   3.481 -0.8148 -0.0383  1.0220
 2567WAT     H2 7913   3.565   3.253   3.531  0.6143  0.0019  1.2927
 2568WAT      O 7914   3.413   3.922   3.614 -0.5348 -0.2762  0.1364
 2568WAT     H1 7915   3.369   3.905   3.698 -2.3082  1.2474 -0.4109
 2568WAT     H2 7916   3.342   3.922   3.550  0.6009 -0.0029 -1.1644
 2569WAT      O 7917   3.185   1.196   1.354 -0.1098 -0.0183  0.7644
 2569WAT     H1 7918   3.271   1.198   1.395 -0.3080 -0.8308  1.2432
 2569WAT     H2 7919   3.151   1.284   1.365  0.7596  0.3732  0.3558
 2570WAT      O 7920   2.295   1.627   1.005  0.6767  0.6839  0.2731
 2570WAT     H1 7921   2.210   1.637   0.963  0.3198 -1.3569  0.4295
 2570WAT     H2 7922   2.331   1.547   0.968  1.9556  0.8156  1.1744
 2571WAT      O 7923   4.261   1.004   3.429 -0.0685  0.1877 -0.2647
 2571WAT     H1 7924   4.201   0.991   3.356  1.7536  2.0103 -2.2186
 2571WAT     H2 7925   4.237   1.089   3.466 -1.8524 -1.2923  2.2708
 2572WAT      O 7926   2.797   2.881   0.832 -0.4018  0.0897  0.0217
 2572WAT     H1 7927   2.741   2.935   0.776  0.4720  0.2430 -0.7416
 2572WAT     H2 7928   2.860   2.842   0.772  0.3921  0.0344  0.8664
 2573WAT      O 7929   0.390   1.223   2.204  0.8011 -0.4266  0.2439
 2573WAT     H1 7930   0.457   1.239   2.137  1.2804 -0.3210  0.7383
 2573WAT     H2 7931   0.439   1.192   2.280  0.4615  1.0296  1.1039
 2574WAT      O 7932   4.460   3.487   1.109 -0.1400  0.2045 -0.2221
 2574WAT     H1 7933   4.519   3.560   1.128 -0.2291  0.0140  0.8710
 2574WAT     H2 7934   4.493   3.416   1.164 -0.6876 -0.2533 -0.4856
 2575WAT      O 7935   1.340   1.868   2.543  0.4578  0.1218  0.5350
 2575WAT     H1 7936   1.419   1.835   2.587 -0.8687 -0.0021  3.0224
 2575WAT     H2 7937   1.335   1.960   2.569 -1.4938 -0.4729  2.5971
 2576WAT      O 7938   0.779   4.876   4.919 -0.1919  0.9025 -0.3939
 2576WAT     H1 7939   0.866   4.863   4.881  0.0258  1.0072  0.0617
 2576WAT     H2 7940   0.719   4.866   4.846  0.1631  0.1942 -0.5887
 2577WAT      O 7941   3.298   2.261   0.001 -0.3166 -0.1838 -0.2826
 2577WAT     H1 7942   3.254   2.220   0.076 -0.0607  1.2053  0.6578
 2577WAT     H2 7943   3.357   2.326   0.040  2.7877 -2.0654 -1.4608
 2578WAT      O 7944   4.366   4.563   2.761  0.1693  0.1314 -0.3193
 2578WAT     H1 7945   4.293   4.558   2.822  1.4786  1.3480  1.4672
 2578WAT     H2 7946   4.376   4.474   2.728 -0.6056 -0.5996  1.2750
 2579WAT      O 7947   4.225   0.608   5.056 -0.5755 -0.1081  0.4066
 2579WAT     H1 7948   4.207   0.533   5.000 -2.2059  1.8189 -1.8216
 2579WAT     H2 7949   4.230   0.571   5.144  0.3778 -3.0222 -0.7374
 2580WAT      O 7950   2.623   3.193   1.569 -0.3726  0.3684  0.3163
 2580WAT     H1 7951   2.583   3.202   1.483  0.6461  0.4683 -0.1595
 2580WAT     H2 7952   2.668   3.276   1.584  3.4546 -1.2139 -1.1732
 2581WAT      O 7953   3.285   4.455   4.781  0.4287  0.5766  0.6226
 2581WAT     H1 7954   3.190   4.457   4.794  0.2042 -1.2721 -0.3024
 2581WAT     H2 7955   3.319   4.418   4.863  0.0455 -1.1961  0.0398
 2582WAT      O 7956   3.287   0.493   4.952  0.1226  0.2667 -0.2962
 2582WAT     H1 7957   3.250   0.422   5.005 -0.2012  0.7137  0.0861
 2582WAT     H2 7958   3.367   0.456   4.914  0.1209 -0.2012  0.1504
 2583WAT      O 7959   0.137   4.005   3.019 -0.2689 -0.3837  0.1018
 2583WAT     H1 7960   0.203   4.051   2.967 -0.0118  0.1230  0.8574
 2583WAT     H2 7961   0.151   3.912   2.999  1.4292 -0.3810  1.0698
 2584WAT      O 7962   3.336   1.077   3.355  0.1409  0.2740 -0.4095
 2584WAT     H1 7963   3.400   1.122   3.411  1.1539  1.2069 -2.2231
 2584WAT     H2 7964   3.268   1.142   3.339 -0.0251  0.0904 -0.4450
 2585WAT      O 7965   2.366   1.566   2.035 -0.4527  0.2082  0.2258
 2585WAT     H1 7966   2.445   1.565   2.089 -1.7627  0.3876  2.2396
 2585WAT     H2 7967   2.294   1.572   2.097 -2.0426  1.1551 -1.5843
 2586WAT      O 7968   1.091   1.900   0.409 -0.2267 -0.0732 -0.3385
 2586WAT     H1 7969   1.045   1.962   0.353  1.1856  2.3513  1.0011
 2586WAT     H2 7970   1.184   1.919   0.395  0.1866  0.2004  2.2605
 2587WAT      O 7971   2.985   4.070   3.506  0.3302 -0.1630 -0.0130
 2587WAT     H1 7972   2.915   4.056   3.442  0.5948 -2.1505  0.0449
 2587WAT     H2 7973   2.986   4.164   3.522 -3.9549 -0.2009  1.7973
 2588WAT      O 7974   2.653   4.465   3.107  0.4937  0.4149  0.0125
 2588WAT     H1 7975   2.729   4.407   3.115  1.8814  1.7943 -2.1545
 2588WAT     H2 7976   2.578   4.407   3.119  1.8436 -1.5572 -0.5198
 2589WAT      O 7977   0.033   1.644   1.818 -0.7295  0.8814  0.2194
 2589WAT     H1 7978   0.086   1.566   1.800  0.9867  1.8902  0.6319
 2589WAT     H2 7979   0.023   1.645   1.913 -0.3986  1.3593  0.2529
 2590WAT      O 7980   0.758   5.006   2.043 -1.0105 -0.1171  0.6085
 2590WAT     H1 7981   0.714   4.925   2.067 -0.3128 -0.3357  1.1803
 2590WAT     H2 7982   0.804   5.033   2.123  1.5905 -0.9947 -0.4872
 2591WAT      O 7983   2.214   2.466   2.502 -0.5938  1.0637 -0.1074
 2591WAT     H1 7984   2.260   2.454   2.585 -0.6637  0.3284 -0.1676
 2591WAT     H2 7985   2.266   2.531   2.455  3.2231 -2.8915 -2.1209
 2592WAT      O 7986   3.303   1.219   2.571  0.4323  0.2985 -0.7143
 2592WAT     H1 7987   3.240   1.153   2.600  1.7103 -1.0654 -0.9070
 2592WAT     H2 7988   3.389   1.180   2.588  1.2528  2.0894 -0.4841
 2593WAT      O 7989   4.017   4.416   0.874  0.3791 -0.3976 -0.4216
 2593WAT     H1 7990   3.921   4.415   0.872  0.3587  0.2264  0.0202
 2593WAT     H2 7991   4.039   4.400   0.966  0.6996 -0.4938 -0.5127
 2594WAT      O 7992   0.548   5.129   3.106 -0.2029  0.4312 -0.1310
 2594WAT     H1 7993   0.504   5.050   3.072  0.2847 -0.0776  0.4016
 2594WAT     H2 7994   0.566   5.108   3.198  1.5941  0.4250 -0.4521
 2595WAT      O 7995   2.069   1.237   1.556 -0.0273  0.4229 -0.4718
 2595WAT     H1 7996   2.068   1.234   1.651 -0.3619  2.1376 -0.3779
 2595WAT     H2 7997   2.109   1.322   1.535 -0.9735  0.5731 -1.8194
 2596WAT      O 7998   1.670   1.987   2.346 -0.1606  0.1694 -0.0785
 2596WAT     H1 7999   1.748   2.016   2.300  0.0566  0.3410  0.3897
 2596WAT     H2 8000   1.678   2.025   2.434  0.2147 -1.3837  0.6120
 2597WAT      O 8001   2.460   2.802   0.964  0.3278 -0.3885  0.1495
 2597WAT     H1 8002   2.406   2.880   0.971 -1.6506 -1.6122 -0.7254
 2597WAT     H2 8003   2.535   2.820   1.021 -0.9654  1.3820  1.4130
 2598WAT      O 8004   2.629   0.284   3.558  0.1814 -0.4126 -0.6751
 2598WAT     H1 8005   2.655   0.376   3.558  2.5855 -1.0062 -1.6690
 2598WAT     H2 8006   2.575   0.274   3.636 -3.4087  2.5941 -2.4662
 2599WAT      O 8007   3.859   1.579   0.354  0.5512  0.1265  0.1266
 2599WAT     H1 8008   3.954   1.583   0.363  0.4553  0.0891  1.4451
 2599WAT     H2 8009   3.830   1.540   0.437 -0.7755  2.2827  0.7545
 2600WAT      O 8010   0.936   0.243   0.736  0.2540  0.3261 -0.0495
 2600WAT     H1 8011   0.870   0.175   0.725  0.8149 -0.4696  1.1932
 2600WAT     H2 8012   1.006   0.220   0.675 -0.0566  0.4539 -0.4580
 2601WAT      O 8013   0.903   0.905   5.171 -0.3181 -0.2867 -0.1455
 2601WAT     H1 8014   0.920   0.889   5.264 -2.6488 -1.1815  0.2085
 2601WAT     H2 8015   0.856   0.989   5.170 -0.3462 -0.3067 -0.5000
 2602WAT      O 8016   3.201   1.251   2.295  0.5765  0.1542 -0.3972
 2602WAT     H1 8017   3.243   1.234   2.379  2.3433  0.2592 -1.2017
 2602WAT     H2 8018   3.144   1.175   2.280 -0.8397  0.7727  1.4755
 2603WAT      O 8019   1.171   3.013   0.505 -0.0331 -1.1817  0.3143
 2603WAT     H1 8020   1.159   2.945   0.571  0.9015  0.7339  2.6094
 2603WAT     H2 8021   1.094   3.069   0.513  0.0480 -0.9775 -0.2686
 2604WAT      O 8022   1.490   4.410   4.364  0.3520 -0.4651 -0.2267
 2604WAT     H1 8023   1.412   4.369   4.326  0.4976 -1.5969  0.6331
 2604WAT     H2 8024   1.456   4.479   4.421  0.0286 -0.3169 -0.5971
 2605WAT      O 8025   2.624   2.649   5.194 -0.7903 -0.0812 -0.7689
 2605WAT     H1 8026   2.537   2.684   5.177 -0.2208  0.8883 -1.7925
 2605WAT     H2 8027   2.644   2.677   5.284 -1.7374 -0.7846 -0.3239
 2606WAT      O 8028   3.649   1.337   2.694 -0.3216 -0.0764 -0.1292
 2606WAT     H1 8029   3.572   1.314   2.642 -1.9062  2.3789  0.9498
 2606WAT     H2 8030   3.616   1.341   2.784  0.7226  2.1882  0.2164
 2607WAT      O 8031   2.911   0.547   2.728  0.4558 -0.2609  0.6094
 2607WAT     H1 8032   2.954   0.461   2.732  0.8323 -0.2601 -1.7802
 2607WAT     H2 8033   2.971   0.601   2.677 -0.5730  0.9269  0.6194
 2608WAT      O 8034   2.902   0.217   0.600  0.3252  0.1021  0.5349
 2608WAT     H1 8035   2.861   0.289   0.648 -0.4499 -0.2500  0.4004
 2608WAT     H2 8036   2.831   0.156   0.581  0.2835  0.9073 -2.3348
 2609WAT      O 8037   0.728   4.385   1.391  0.3537 -0.6161 -0.0496
 2609WAT     H1 8038   0.698   4.326   1.322 -1.4169  0.9414 -0.6950
 2609WAT     H2 8039   0.758   4.463   1.344 -0.7720  0.4234  0.8996
 2610WAT      O 8040   1.147   1.512   4.723 -0.3519  0.3301 -0.5974
 2610WAT     H1 8041   1.195   1.522   4.641 -0.7658  1.4255 -0.7285
 2610WAT     H2 8042   1.210   1.474   4.784  1.5964  4.0055 -0.0293
 2611WAT      O 8043   4.393   3.270   3.155  0.6868  0.0106  0.5009
 2611WAT     H1 8044   4.386   3.270   3.059  0.0639 -0.1015  0.5406
 2611WAT     H2 8045   4.374   3.180   3.181  1.0888 -0.0137  0.7183
 2612WAT      O 8046   0.457   2.468   2.833  0.3142 -0.0883  0.0687
 2612WAT     H1 8047   0.414   2.463   2.748  0.5703  0.3831 -0.0946
 2612WAT     H2 8048   0.388   2.448   2.896  0.0525 -0.1504 -0.2376
 2613WAT      O 8049   1.613   0.256   0.688 -0.6991  0.0317 -0.1551
 2613WAT     H1 8050   1.605   0.294   0.775  1.6907 -1.0797  0.6431
 2613WAT     H2 8051   1.658   0.323   0.636 -0.7585  0.1206 -0.0908
 2614WAT      O 8052   0.907   3.539   0.373 -0.1794 -0.3620  0.6813
 2614WAT     H1 8053   0.988   3.495   0.399  0.2146 -1.0954 -1.5983
 2614WAT     H2 8054   0.848   3.468   0.349 -0.0148  0.2360 -1.7272
 2615WAT      O 8055   1.836   3.412   1.028  0.2737 -0.0173 -0.6125
 2615WAT     H1 8056   1.772   3.398   0.958 -0.1426 -2.4649  0.1740
 2615WAT     H2 8057   1.803   3.488   1.076 -2.1666 -1.2767 -0.1491
 2616WAT      O 8058   0.852   0.260   1.908  0.4068  0.3328  0.4126
 2616WAT     H1 8059   0.927   0.318   1.919  0.2456  0.1104  3.8274
 2616WAT     H2 8060   0.891   0.175   1.886  0.8845  0.8385 -0.8084
 2617WAT      O 8061   4.148   0.423   4.513  0.8178 -0.2883  0.2380
 2617WAT     H1 8062   4.055   0.428   4.491  0.3954  0.6296  2.0486
 2617WAT     H2 8063   4.184   0.509   4.488  0.7226  0.0924  1.3602
 2618WAT      O 8064   1.074   5.097   4.637  0.3587  0.1867 -0.3840
 2618WAT     H1 8065   1.147   5.156   4.619  0.5306 -0.3344 -1.4564
 2618WAT     H2 8066   1.046   5.067   4.551  0.0948 -1.0825  0.1273
 2619WAT      O 8067   2.251   0.968   0.548  0.0906 -0.2134  0.0005
 2619WAT     H1 8068   2.302   0.938   0.473  2.4699 -0.8684  1.7766
 2619WAT     H2 8069   2.170   1.002   0.509  0.5016 -1.9992 -2.7005
 2620WAT      O 8070   3.600   0.002   2.106  0.0628  0.1774 -0.2663
 2620WAT     H1 8071   3.643   0.067   2.160 -2.1706  1.4966  0.0641
 2620WAT     H2 8072   3.652  -0.003   2.027  0.3038  2.4011 -0.2955
 2621WAT      O 8073   1.977   1.249   0.831  0.4225  0.2383 -0.2386
 2621WAT     H1 8074   2.019   1.273   0.748  0.1098  0.7262 -0.2602
 2621WAT     H2 8075   1.989   1.326   0.887  0.8727 -0.1871  0.2673
 2622WAT      O 8076   3.209   0.698   1.790 -0.1099  0.4723  0.7015
 2622WAT     H1 8077   3.263   0.705   1.711 -0.0442  1.3319  0.8095
 2622WAT     H2 8078   3.270   0.710   1.862  0.1722 -2.1564  1.0176
 2623WAT      O 8079   2.014   3.471   4.597  0.5940  0.1802 -0.1110
 2623WAT     H1 8080   2.050   3.385   4.620  0.1610 -0.0980 -0.4692
 2623WAT     H2 8081   2.002   3.467   4.502  1.0649  0.8252 -0.2057
 2624WAT      O 8082   1.079   4.165   2.717  0.0716 -0.0964  0.4876
 2624WAT     H1 8083   1.013   4.213   2.767  1.1272 -0.2299  2.0532
 2624WAT     H2 8084   1.076   4.206   2.630  0.0285  1.9579  1.3792
 2625WAT      O 8085   4.504   4.878   1.699  0.3142 -0.4212 -0.2674
 2625WAT     H1 8086   4.511   4.788   1.668 -0.3174 -1.6094  2.7515
 2625WAT     H2 8087   4.558   4.881   1.778  0.9172  2.0880 -0.6753
 2626WAT      O 8088   0.653   1.897   3.468  0.2747 -0.1582 -0.5794
 2626WAT     H1 8089   0.712   1.928   3.399  2.2310 -0.6711  0.7685
 2626WAT     H2 8090   0.661   1.962   3.538  0.5419 -1.0522  0.2617
 2627WAT      O 8091   0.322   0.115   2.413  0.0914 -0.3564  0.1036
 2627WAT     H1 8092   0.417   0.121   2.401  0.3020 -1.8188  0.8507
 2627WAT     H2 8093   0.311   0.088   2.504 -0.9770 -1.6684 -0.3815
 2628WAT      O 8094   3.247   1.439   5.198  0.4899 -0.3849 -0.2094
 2628WAT     H1 8095   3.324   1.449   5.254 -0.4151  1.8537  0.7845
 2628WAT     H2 8096   3.207   1.526   5.198 -2.2708 -1.5569 -0.3136
 2629WAT      O 8097   3.450   4.387   3.733 -0.2610 -0.3320  0.0294
 2629WAT     H1 8098   3.446   4.313   3.794 -0.4679  1.0238  1.7716
 2629WAT     H2 8099   3.413   4.353   3.652 -1.0852 -1.9272  1.0001
 2630WAT      O 8100   2.136   3.910   4.786 -0.2702  0.3304 -0.3969
 2630WAT     H1 8101   2.101   3.900   4.697  1.9061 -3.3538 -1.0329
 2630WAT     H2 8102   2.231   3.904   4.775  0.0235 -2.5294  2.2883
 2631WAT      O 8103   1.124   5.009   1.921  0.0085 -0.4432 -0.0042
 2631WAT     H1 8104   1.127   4.936   1.983  2.0570 -0.8485 -0.5120
 2631WAT     H2 8105   1.210   5.010   1.880 -1.6462 -1.2186 -4.0632
 2632WAT      O 8106   1.476   4.366   3.803 -0.1393 -0.6297  0.1082
 2632WAT     H1 8107   1.507   4.431   3.740 -2.8637  2.1531  1.4360
 2632WAT     H2 8108   1.415   4.312   3.752 -0.7220  0.2612 -0.1596
 2633WAT      O 8109   4.474   3.862   4.220  0.0369 -0.4872 -0.1338
 2633WAT     H1 8110   4.491   3.865   4.126 -0.2943 -0.3184 -0.1896
 2633WAT     H2 8111   4.550   3.903   4.260 -0.3407  0.4908 -0.3911
 2634WAT      O 8112   1.698   2.147   4.905  0.3043 -0.6342 -0.3217
 2634WAT     H1 8113   1.756   2.138   4.830 -0.4773 -0.4449 -0.9570
 2634WAT     H2 8114   1.645   2.067   4.905 -0.0435 -0.4069 -0.2743
 2635WAT      O 8115   0.571   4.175   2.366 -0.0176 -0.3626 -0.7810
 2635WAT     H1 8116   0.572   4.210   2.277  0.3369  0.3651 -0.4989
 2635WAT     H2 8117   0.638   4.107   2.366 -0.5447 -0.8950 -1.2715
 2636WAT      O 8118   3.351   0.990   0.298  0.1626 -0.4927 -0.2215
 2636WAT     H1 8119   3.278   0.931   0.278 -0.2814 -0.5264  1.3940
 2636WAT     H2 8120   3.311   1.059   0.351  0.9358  0.5711 -0.9955
 2637WAT      O 8121   0.056   0.685   1.447 -0.3644 -0.2508  0.6619
 2637WAT     H1 8122   0.123   0.632   1.490 -0.7068 -0.3430  1.0815
 2637WAT     H2 8123  -0.025   0.636   1.459 -0.3356 -0.7475 -0.8733
 2638WAT      O 8124   2.867   0.067   3.871  0.5479 -0.3974 -0.4719
 2638WAT     H1 8125   2.924   0.008   3.920  1.8567  0.6525 -0.6735
 2638WAT     H2 8126   2.789   0.076   3.926  0.2427 -2.3865 -0.5058
 2639WAT      O 8127   3.718   1.256   1.753 -0.6201 -0.1333 -0.2383
 2639WAT     H1 8128   3.685   1.228   1.668 -0.4655 -1.7094  0.1929
 2639WAT     H2 8129   3.776   1.330   1.733 -0.1762 -0.8026 -1.5510
 2640WAT      O 8130   4.282   1.884   3.855 -0.1460 -0.2137  0.4375
 2640WAT     H1 8131   4.302   1.790   3.862 -0.9160 -0.3817  0.4587
 2640WAT     H2 8132   4.364   1.927   3.877  0.0079 -0.8759  1.2262
 2641WAT      O 8133   4.037   5.125   3.907 -0.1816  0.1132 -0.3709
 2641WAT     H1 8134   4.116   5.101   3.957 -1.0021 -0.9448  0.4721
 2641WAT     H2 8135   4.034   5.062   3.835 -0.3291  0.0758 -0.3310
 2642WAT      O 8136   2.989   4.343   1.392 -0.3092 -0.1704 -0.1705
 2642WAT     H1 8137   3.075   4.316   1.424  0.9020  2.1418 -1.2483
 2642WAT     H2 8138   2.936   4.263   1.396  2.0999 -1.8706 -0.2607
 2643WAT      O 8139   0.909   5.070   3.797  0.0214  0.0531  0.0136
 2643WAT     H1 8140   0.881   4.979   3.786  1.0332 -0.0983 -1.7909
 2643WAT     H2 8141   1.005   5.066   3.796  0.1138  0.9575  1.9512
 2644WAT      O 8142   2.273   4.798   3.917  0.3918  0.3112  0.0825
 2644WAT     H1 8143   2.360   4.763   3.898 -0.0381 -1.2934  0.8778
 2644WAT     H2 8144   2.267   4.795   4.013 -0.1362  1.4828  0.1017
 2645WAT      O 8145   3.410   3.207   2.735  0.2093 -0.4848 -0.2959
 2645WAT     H1 8146   3.315   3.207   2.734  0.1719 -1.6348 -1.9484
 2645WAT     H2 8147   3.435   3.280   2.677  0.2856 -1.0061 -0.9355
 2646WAT      O 8148   4.241   3.261   5.244  0.5867  0.1080  0.2088
 2646WAT     H1 8149   4.161   3.211   5.228  0.7451 -0.1628  0.2641
 2646WAT     H2 8150   4.210   3.344   5.281  0.3865 -0.4213  1.2566
 2647WAT      O 8151   0.643   3.757   0.695 -0.0968 -0.5452  0.1014
 2647WAT     H1 8152   0.636   3.684   0.757 -1.4664 -0.3933  0.1451
 2647WAT     H2 8153   0.608   3.833   0.742 -0.3014 -0.2345 -0.5345
 2648WAT      O 8154   3.241   2.244   0.251 -0.3466 -0.2967 -0.0947
 2648WAT     H1 8155   3.318   2.187   0.254 -0.6529 -0.7193 -0.2197
 2648WAT     H2 8156   3.206   2.241   0.340 -2.7691 -3.6607 -0.9359
 2649WAT      O 8157   2.655   3.007   4.186  0.2335  0.0167  0.5897
 2649WAT     H1 8158   2.690   3.062   4.115 -1.2483  0.5729  0.2616
 2649WAT     H2 8159   2.726   3.005   4.250  1.4265 -0.0902 -0.6615
 2650WAT      O 8160   4.100   4.804   0.308  0.0997 -0.3546 -0.2165
 2650WAT     H1 8161   4.121   4.722   0.264  0.5999 -0.7340  0.7205
 2650WAT     H2 8162   4.129   4.792   0.398 -0.3169  0.6535  0.0695
 2651WAT      O 8163   2.099   1.787   0.335  0.6281  0.1291 -0.0780
 2651WAT     H1 8164   2.033   1.770   0.403 -0.4582 -0.0467 -1.1425
 2651WAT     H2 8165   2.083   1.877   0.308  0.6184 -0.0157 -0.5613
 2652WAT      O 8166   0.142   0.889   3.084  0.1310  0.1682  0.6111
 2652WAT     H1 8167   0.118   0.976   3.115  0.0090 -0.7489  3.2888
 2652WAT     H2 8168   0.059   0.845   3.068  0.1615  0.0061  0.8910
 2653WAT      O 8169   4.092   0.233   3.862  0.0171 -0.2875  0.3558
 2653WAT     H1 8170   4.074   0.139   3.856 -1.3050  0.0497 -2.6448
 2653WAT     H2 8171   4.187   0.239   3.875 -0.1461 -1.9961  2.9365
 2654WAT      O 8172   4.412   1.145   5.187  0.6918 -0.3119  0.1476
 2654WAT     H1 8173   4.361   1.069   5.213 -0.6182  0.0755 -1.1577
 2654WAT     H2 8174   4.353   1.219   5.198  1.3627  0.3033 -0.2899
 2655WAT      O 8175   1.521   1.578   4.499  0.1108 -0.6351 -0.9503
 2655WAT     H1 8176   1.607   1.561   4.537  0.0736  1.0060 -0.0164
 2655WAT     H2 8177   1.524   1.539   4.412  2.3160  0.6139 -1.4951
 2656WAT      O 8178   3.550   1.192   1.064 -0.2967  0.4650 -0.4091
 2656WAT     H1 8179   3.639   1.181   1.096 -1.1684 -0.6010  1.8707
 2656WAT     H2 8180   3.507   1.247   1.129 -2.0539 -1.4852  0.2239
 2657WAT      O 8181   0.518   2.001   0.771  0.1947 -0.0105  0.0858
 2657WAT     H1 8182   0.581   1.982   0.702 -0.3178  0.9485 -0.6707
 2657WAT     H2 8183   0.457   1.927   0.770 -0.8823  0.8284 -1.7673
 2658WAT      O 8184   3.375   4.062   2.523  0.5069  0.5667  0.5719
 2658WAT     H1 8185   3.327   4.086   2.444 -3.5781 -3.7519  1.2526
 2658WAT     H2 8186   3.419   3.980   2.501 -1.6241 -1.3535  2.8377
 2659WAT      O 8187   1.923   0.609   0.726  0.3567  0.0696 -0.4771
 2659WAT     H1 8188   1.907   0.663   0.804  0.3956 -0.8321  0.1675
 2659WAT     H2 8189   2.011   0.634   0.697 -0.5578  2.1442 -1.6758
 2660WAT      O 8190   4.258   1.198   1.302 -0.1038  0.0376  0.4133
 2660WAT     H1 8191   4.287   1.118   1.257  0.5725  1.4539 -1.8242
 2660WAT     H2 8192   4.238   1.259   1.232 -1.4683  1.5838  2.0553
 2661WAT      O 8193   3.674   4.869   1.222 -0.0582 -0.1897  0.4869
 2661WAT     H1 8194   3.759   4.895   1.188  0.4961  2.2130  3.3303
 2661WAT     H2 8195   3.611   4.905   1.160  0.9429  1.5785  0.4393
 2662WAT      O 8196   0.868   3.934   5.299 -0.6796 -0.0430  0.1777
 2662WAT     H1 8197   0.820   4.016   5.312 -0.2649  0.3489 -0.6347
 2662WAT     H2 8198   0.959   3.962   5.287 -0.2785 -0.7548  1.4160
 2663WAT      O 8199   2.808   0.393   2.229  0.2765 -0.2828  0.0589
 2663WAT     H1 8200   2.843   0.327   2.289  1.5985 -0.0733 -0.4470
 2663WAT     H2 8201   2.853   0.376   2.146 -0.4866  0.3160 -0.4918
 2664WAT      O 8202   4.457   0.223   2.126 -0.6194 -0.0092 -0.2937
 2664WAT     H1 8203   4.508   0.208   2.205 -0.3676 -0.3384 -0.5171
 2664WAT     H2 8204   4.417   0.138   2.107  0.9148 -0.4748 -1.6461
 2665WAT      O 8205   3.888   1.771   0.174 -0.1396  0.2964 -0.3806
 2665WAT     H1 8206   3.864   1.692   0.223 -3.2864  1.0198 -0.5188
 2665WAT     H2 8207   3.881   1.745   0.082 -1.5205  0.7583 -0.4303
 2666WAT      O 8208   0.860   2.165   4.289  0.7585  0.1164  0.1776
 2666WAT     H1 8209   0.949   2.191   4.265  2.0188 -2.7120  1.3424
 2666WAT     H2 8210   0.834   2.103   4.221 -0.6235  1.3770 -0.4904
 2667WAT      O 8211   1.940   1.568   3.405  0.1425  0.2019 -0.2806
 2667WAT     H1 8212   1.918   1.654   3.439  2.1088  0.4709  0.4348
 2667WAT     H2 8213   1.993   1.527   3.474  0.9160 -0.7792 -1.4103
 2668WAT      O 8214   1.688   5.068   3.267 -0.2112 -0.2005  0.6345
 2668WAT     H1 8215   1.622   5.013   3.309  0.2333 -1.8214 -0.6971
 2668WAT     H2 8216   1.646   5.097   3.185  0.9686 -2.0050 -0.6803
 2669WAT      O 8217   0.255   3.764   1.737 -0.0489  0.0742 -0.1310
 2669WAT     H1 8218   0.347   3.739   1.745  0.3521  1.7215  1.0714
 2669WAT     H2 8219   0.228   3.728   1.652  0.7879 -3.0300  0.7937
 2670WAT      O 8220   3.505   2.719   5.275  0.2564  0.2054 -0.6978
 2670WAT     H1 8221   3.591   2.756   5.294  0.1741 -0.6047  1.5696
 2670WAT     H2 8222   3.460   2.788   5.227  1.6830  1.2094 -0.6626
 2671WAT      O 8223   3.908   0.331   0.185 -0.0451 -0.1574 -0.0552
 2671WAT     H1 8224   3.944   0.297   0.103  0.1519 -1.7039  0.6261
 2671WAT     H2 8225   3.884   0.252   0.235 -0.7145  0.7587  1.1265
 2672WAT      O 8226   4.541   3.581   2.566 -0.7241 -0.6081 -0.2620
 2672WAT     H1 8227   4.469   3.600   2.506 -1.5853 -0.5425  0.7597
 2672WAT     H2 8228   4.538   3.485   2.576 -1.3189 -0.5176  0.5399
 2673WAT      O 8229   4.001   4.729   2.206 -0.2298  0.1538  0.0999
 2673WAT     H1 8230   3.971   4.820   2.210  0.1287  0.3094 -0.7452
 2673WAT     H2 8231   4.062   4.727   2.133 -1.2922 -1.0761 -0.7842
 2674WAT      O 8232   3.292   5.023   5.210 -0.2889  0.1703 -0.0133
 2674WAT     H1 8233   3.324   5.113   5.212 -0.3021  0.1719  0.1995
 2674WAT     H2 8234   3.316   4.991   5.123  0.5057  0.0891  0.2305
 2675WAT      O 8235   1.808   0.729   4.689  0.0074  0.3514 -0.1146
 2675WAT     H1 8236   1.881   0.782   4.657  0.8757  0.2445  1.5729
 2675WAT     H2 8237   1.843   0.685   4.767 -1.1565 -1.4957 -0.5680
 2676WAT      O 8238   4.265   4.038   4.952 -0.4262 -0.2596 -0.3266
 2676WAT     H1 8239   4.287   4.039   5.045 -2.9084  0.9433  0.3457
 2676WAT     H2 8240   4.304   4.118   4.917 -1.7641  0.7249  0.3477
 2677WAT      O 8241   2.706   2.943   0.512 -0.1903  0.0899 -0.5945
 2677WAT     H1 8242   2.675   2.854   0.526 -2.5017  0.7241 -1.2229
 2677WAT     H2 8243   2.773   2.935   0.443 -0.6407 -1.1101 -0.9083
 2678WAT      O 8244   3.169   0.894   4.268  0.0323 -0.0488 -0.2210
 2678WAT     H1 8245   3.133   0.975   4.305 -0.8165 -0.4534 -0.1320
 2678WAT     H2 8246   3.215   0.852   4.341  0.2283  0.2062 -0.1953
 2679WAT      O 8247   0.885   0.291   2.361 -0.1143 -0.3123 -0.2985
 2679WAT     H1 8248   0.943   0.345   2.415 -0.5345 -1.5556  1.4741
 2679WAT     H2 8249   0.814   0.350   2.337 -1.4746 -0.3376  3.0505
 2680WAT      O 8250   4.464   0.545   4.706  0.0476  0.0630 -0.2555
 2680WAT     H1 8251   4.500   0.513   4.624 -0.1889 -1.3076  0.1508
 2680WAT     H2 8252   4.394   0.605   4.680 -0.3752 -0.7625 -1.0608
 2681WAT      O 8253   2.469   0.670   2.943  0.0688  0.1778  0.3106
 2681WAT     H1 8254   2.549   0.722   2.945 -0.4343  1.1821 -2.2202
 2681WAT     H2 8255   2.483   0.602   3.008  2.6844  0.7343  0.4277
 2682WAT      O 8256   1.683   0.320   5.004 -0.1602  0.5699  0.4305
 2682WAT     H1 8257   1.655   0.293   5.092 -0.7521  0.1212  0.1083
 2682WAT     H2 8258   1.697   0.414   5.012 -3.7517  1.2824  0.1624
 2683WAT      O 8259   0.098   1.793   3.656  0.1822 -0.2514  0.0828
 2683WAT     H1 8260   0.192   1.775   3.667  0.1428 -1.2565 -0.9504
 2683WAT     H2 8261   0.057   1.707   3.663 -0.7653  0.2959  1.3639
 2684WAT      O 8262   2.059   0.344   4.116 -0.3174  0.2386 -0.5685
 2684WAT     H1 8263   2.135   0.398   4.137 -1.2375  0.8502  1.3959
 2684WAT     H2 8264   2.000   0.404   4.069 -0.5281  0.4250 -0.0767
 2685WAT      O 8265   1.399   2.074   3.408  0.9216  0.6146 -0.2623
 2685WAT     H1 8266   1.397   2.067   3.313 -0.1307 -1.5653 -0.1470
 2685WAT     H2 8267   1.312   2.105   3.432  0.7821  0.0097  0.0330
 2686WAT      O 8268   0.959   2.672   4.102 -0.4650 -0.0519  0.1632
 2686WAT     H1 8269   1.011   2.745   4.068 -2.1224  0.3760 -1.6198
 2686WAT     H2 8270   1.012   2.594   4.083  0.7413  0.5561  0.9184
 2687WAT      O 8271   2.781   1.149   4.852 -0.3143 -0.2998  0.0528
 2687WAT     H1 8272   2.715   1.180   4.914 -1.4915 -0.1374 -1.2378
 2687WAT     H2 8273   2.853   1.118   4.908  0.5785  3.7297  1.5299
 2688WAT      O 8274   0.132   2.886   1.350  0.1197 -0.1395  0.1609
 2688WAT     H1 8275   0.208   2.866   1.295 -0.5940 -1.1623 -0.5098
 2688WAT     H2 8276   0.155   2.966   1.395  1.6065 -0.4368 -0.0168
 2689WAT      O 8277   4.368   3.618   4.188 -0.0252 -0.0414 -0.4898
 2689WAT     H1 8278   4.420   3.574   4.255 -0.3053  0.1165 -0.1604
 2689WAT     H2 8279   4.373   3.711   4.212 -2.2607 -0.1959  0.8901
 2690WAT      O 8280   4.209   2.384   4.763  0.7430  0.3268  0.0034
 2690WAT     H1 8281   4.254   2.406   4.845  0.6723  1.5967 -0.2728
 2690WAT     H2 8282   4.280   2.359   4.704  0.7001 -1.8288  0.7735
 2691WAT      O 8283   0.032   4.130   1.449  0.0312  0.0587 -0.0576
 2691WAT     H1 8284   0.045   4.051   1.396  1.4519 -0.8592  1.5380
 2691WAT     H2 8285  -0.038   4.107   1.510  0.2543  0.1242  0.2272
 2692WAT      O 8286   2.170   0.055   2.200  0.2362  0.3776 -0.0674
 2692WAT     H1 8287   2.166   0.029   2.292  1.4067  0.4885  0.0368
 2692WAT     H2 8288   2.098   0.117   2.188 -0.8407 -0.7483  0.3907
 2693WAT      O 8289   1.309   4.002   4.463  0.6583  0.5231  0.9120
 2693WAT     H1 8290   1.309   3.998   4.367  0.7946  0.1031  0.9240
 2693WAT     H2 8291   1.217   3.991   4.488  0.8019 -1.0910  0.8723
 2694WAT      O 8292   2.038   4.936   1.760  0.4836 -0.2489  0.3333
 2694WAT     H1 8293   2.062   4.921   1.851 -2.4686 -0.9565  1.1089
 2694WAT     H2 8294   2.018   5.029   1.755  1.7256  0.0130  0.0997
 2695WAT      O 8295   0.324   2.852   3.777 -0.2733  0.2504 -0.5398
 2695WAT     H1 8296   0.289   2.920   3.720 -1.7038  0.5679  0.6707
 2695WAT     H2 8297   0.324   2.891   3.864 -2.8334 -1.7919  0.5143
 2696WAT      O 8298   1.859   1.872   2.046 -0.0510 -0.4933 -1.0794
 2696WAT     H1 8299   1.806   1.821   2.107  0.5034 -0.0252 -0.1820
 2696WAT     H2 8300   1.846   1.963   2.073  0.7460 -0.3277 -1.2216
 2697WAT      O 8301   4.224   0.672   4.294 -0.0904  0.3715  0.1739
 2697WAT     H1 8302   4.243   0.743   4.356  0.7823  0.6425 -0.3923
 2697WAT     H2 8303   4.183   0.716   4.220 -1.0243  0.0624  0.4927
 2698WAT      O 8304   4.368   4.324   1.439  0.0097 -0.3783 -0.3958
 2698WAT     H1 8305   4.302   4.254   1.440 -0.8403  0.4036 -0.2077
 2698WAT     H2 8306   4.452   4.278   1.445 -0.5289 -1.3826 -0.3460
 2699WAT      O 8307   1.234   1.876   3.051  0.5458 -0.1066  0.3619
 2699WAT     H1 8308   1.311   1.932   3.042  0.7515 -0.4067  0.2359
 2699WAT     H2 8309   1.224   1.836   2.965 -1.2879  1.8965 -0.4397
 2700WAT      O 8310   1.556   1.710   3.777 -0.1727  0.5300 -0.3982
 2700WAT     H1 8311   1.485   1.698   3.840  1.5207  2.0435  1.9576
 2700WAT     H2 8312   1.517   1.690   3.692 -2.3282 -2.5681  1.1624
 2701WAT      O 8313  -0.000   2.406   1.659 -0.4446 -0.1720 -0.2597
 2701WAT     H1 8314  -0.041   2.431   1.576  0.6537 -0.4503 -0.9013
 2701WAT     H2 8315   0.048   2.326   1.639  1.3533  0.7534  0.1741
 2702WAT      O 8316   3.112   1.317   0.674 -0.3221  0.1650  0.2572
 2702WAT     H1 8317   3.122   1.412   0.663 -2.2672  0.4305  0.5136
 2702WAT     H2 8318   3.150   1.299   0.760  0.9730  0.5171 -0.2055
 2703WAT      O 8319   2.966   2.714   4.469  0.2830  0.0975 -0.5432
 2703WAT     H1 8320   2.994   2.805   4.474  0.6212  0.0697 -1.6016
 2703WAT     H2 8321   3.039   2.669   4.425 -0.4933 -0.3935 -1.3555
 2704WAT      O 8322   1.911   3.771   0.785 -0.3883  0.0083  0.0557
 2704WAT     H1 8323   1.853   3.779   0.860 -2.4707 -1.2517 -1.3109
 2704WAT     H2 8324   1.947   3.682   0.792  0.1095  0.2036  0.0236
 2705WAT      O 8325   1.852   1.099   3.360 -0.4955 -0.3437  0.3140
 2705WAT     H1 8326   1.848   1.051   3.278 -1.6108  2.1434 -1.1852
 2705WAT     H2 8327   1.945   1.100   3.382  0.1335  0.7545 -2.1014
 2706WAT      O 8328   2.299   0.848   4.281  0.1003 -0.0123  0.5962
 2706WAT     H1 8329   2.207   0.822   4.269  0.3267 -0.2607 -0.8000
 2706WAT     H2 8330   2.330   0.793   4.353 -1.1814  1.0015  1.9952
 2707WAT      O 8331   0.061   3.951   2.712 -0.2294 -0.2604  0.5879
 2707WAT     H1 8332   0.026   3.865   2.736  0.5243 -0.6906  0.1766
 2707WAT     H2 8333   0.147   3.932   2.673  0.2987  0.7459  1.2411
 2708WAT      O 8334   1.228   1.999   5.337 -0.0384 -0.5030 -0.7395
 2708WAT     H1 8335   1.161   1.946   5.293  0.8436 -1.7491 -0.6267
 2708WAT     H2 8336   1.271   2.047   5.267  0.0737 -1.0068 -1.0226
 2709WAT      O 8337   1.934   1.970   5.090 -0.6296  0.3622  0.2729
 2709WAT     H1 8338   1.859   1.919   5.061 -0.1977  0.1162 -0.4118
 2709WAT     H2 8339   1.985   1.986   5.011  1.1293 -1.2362  1.0237
 2710WAT      O 8340   2.111   4.539   4.513 -0.6974 -0.1239  0.2190
 2710WAT     H1 8341   2.029   4.532   4.561 -1.7791  1.2212 -1.3196
 2710WAT     H2 8342   2.104   4.476   4.442  0.0779 -0.7520  0.6793
 2711WAT      O 8343   2.637   2.473   3.891 -0.0046  0.0160  0.5091
 2711WAT     H1 8344   2.548   2.441   3.875 -0.2516  0.8519  0.1603
 2711WAT     H2 8345   2.660   2.522   3.812  1.3063 -1.3179  0.0109
 2712WAT      O 8346   0.882   2.372   0.743 -0.7506  0.0574 -0.8952
 2712WAT     H1 8347   0.958   2.322   0.773  0.0361  1.7909  0.1475
 2712WAT     H2 8348   0.810   2.343   0.800 -0.3354 -0.0104 -0.3952
 2713WAT      O 8349   2.899   1.893   3.016  0.5356 -0.2114 -0.1456
 2713WAT     H1 8350   2.842   1.969   3.021 -1.2373 -1.2134 -2.9223
 2713WAT     H2 8351   2.853   1.825   3.066  0.2789 -0.4465 -0.6903
 2714WAT      O 8352   4.182   2.701   1.334  0.3125 -0.0738 -0.0057
 2714WAT     H1 8353   4.253   2.763   1.348 -1.5631  2.3770 -0.6643
 2714WAT     H2 8354   4.209   2.650   1.258  1.2941  0.9091 -0.3305
 2715WAT      O 8355   2.649   2.612   3.661 -0.2109 -0.0861 -0.2826
 2715WAT     H1 8356   2.712   2.636   3.593 -0.0006 -1.6882 -0.6933
 2715WAT     H2 8357   2.634   2.693   3.710  1.3324  0.5755 -0.8538
 2716WAT      O 8358   1.918   2.975   3.163  0.0740  0.0237  0.2081
 2716WAT     H1 8359   1.905   3.047   3.101 -0.4280 -0.9671 -0.8897
 2716WAT     H2 8360   1.942   2.900   3.108  1.3250 -0.4752  1.3843
 2717WAT      O 8361   0.353   0.484   4.799  0.4141  0.1404  0.1819
 2717WAT     H1 8362   0.377   0.418   4.734 -0.0747  0.9408 -0.8225
 2717WAT     H2 8363   0.431   0.493   4.854  0.7870 -0.6252 -0.2073
 2718WAT      O 8364   3.850   4.429   4.941 -0.0700  0.4587 -0.5955
 2718WAT     H1 8365   3.828   4.413   5.032 -0.5282 -1.2497 -0.9667
 2718WAT     H2 8366   3.923   4.369   4.924 -0.8128 -0.1672 -1.6752
 2719WAT      O 8367   0.883   3.948   3.991 -0.0749 -0.1036  0.3376
 2719WAT     H1 8368   0.867   3.884   4.060  0.6725  1.0803  1.6485
 2719WAT     H2 8369   0.978   3.961   3.990 -0.3159  2.3851  1.4840
 2720WAT      O 8370   1.375   4.445   1.804  0.6329 -0.4886  0.3654
 2720WAT     H1 8371   1.439   4.515   1.787  1.1885 -0.1666  3.2955
 2720WAT     H2 8372   1.398   4.376   1.741  1.9559  0.7979 -0.6209
 2721WAT      O 8373   2.711   2.895   3.595 -0.2422  0.6978  0.3349
 2721WAT     H1 8374   2.791   2.911   3.546 -1.0457  2.5866 -0.4404
 2721WAT     H2 8375   2.641   2.921   3.536 -1.2921  1.7084  1.9433
 2722WAT      O 8376   0.491   4.565   3.474 -0.3377 -0.1455 -0.4928
 2722WAT     H1 8377   0.541   4.613   3.408  1.3172 -1.4024 -0.2153
 2722WAT     H2 8378   0.427   4.628   3.507  0.9954  1.4952 -0.9443
 2723WAT      O 8379   0.890   3.177   2.355 -0.4640  0.1204 -0.3580
 2723WAT     H1 8380   0.935   3.149   2.276  0.9420  0.0758  0.4164
 2723WAT     H2 8381   0.958   3.178   2.422 -1.6285  0.0816  0.8741
 2724WAT      O 8382   2.375   1.763   1.823  0.5043 -0.4402  0.3103
 2724WAT     H1 8383   2.295   1.766   1.770  0.4665  0.4003  0.4047
 2724WAT     H2 8384   2.351   1.716   1.902  0.8942 -2.9176 -0.9593
 2725WAT      O 8385   2.974   3.905   2.617  0.7059  0.1424  0.0333
 2725WAT     H1 8386   2.917   3.906   2.540  0.2993 -0.1080  0.3340
 2725WAT     H2 8387   3.013   3.992   2.618 -0.9662  0.9198  0.7936
 2726WAT      O 8388   0.362   1.506   1.562 -0.9069 -0.6180  0.0082
 2726WAT     H1 8389   0.379   1.562   1.637 -1.2430 -0.0975 -0.3026
 2726WAT     H2 8390   0.375   1.417   1.595  1.0266 -0.3330  0.1665
 2727WAT      O 8391   2.101   3.323   3.264  0.0139  0.7255 -0.3030
 2727WAT     H1 8392   2.085   3.384   3.192  0.1571 -0.3362 -1.2609
 2727WAT     H2 8393   2.013   3.294   3.290 -0.1712  2.4242  1.1743
 2728WAT      O 8394   1.425   4.937   3.295 -0.1078 -0.6752 -0.1485
 2728WAT     H1 8395   1.364   5.000   3.333 -0.7938 -1.5460  0.2181
 2728WAT     H2 8396   1.400   4.931   3.203  0.5164  0.2174 -0.3929
 2729WAT      O 8397   0.166   1.925   4.832 -0.1863 -0.3224 -0.4454
 2729WAT     H1 8398   0.088   1.877   4.860 -0.5649  0.7315  0.3647
 2729WAT     H2 8399   0.196   1.970   4.910  0.4960  0.3077 -1.0571
 2730WAT      O 8400   3.514   1.253   4.921 -0.2058  0.3240  0.0621
 2730WAT     H1 8401   3.442   1.316   4.920  0.8484  1.6043  1.3175
 2730WAT     H2 8402   3.592   1.305   4.902  0.7470 -0.5176  1.4514
 2731WAT      O 8403   2.848   4.580   2.486 -0.5246  0.3681 -0.5191
 2731WAT     H1 8404   2.834   4.486   2.500 -0.5891  0.6143  1.3966
 2731WAT     H2 8405   2.778   4.606   2.427 -1.6546 -0.4661  0.4018
 2732WAT      O 8406   3.716   0.518   3.412 -0.2421  0.1377 -0.3796
 2732WAT     H1 8407   3.710   0.423   3.427 -0.0490  0.0769 -0.6767
 2732WAT     H2 8408   3.732   0.526   3.318  0.7472  0.4266 -0.1923
 2733WAT      O 8409   1.300   3.813   2.532  0.0084 -0.5921  0.0800
 2733WAT     H1 8410   1.380   3.779   2.574  0.1256  0.0295  0.3719
 2733WAT     H2 8411   1.330   3.890   2.483 -0.6519  0.6031  1.4720
 2734WAT      O 8412   3.457   0.724   0.726  0.4839 -0.6655  0.1303
 2734WAT     H1 8413   3.483   0.803   0.679  1.7228 -1.0511  0.1247
 2734WAT     H2 8414   3.508   0.725   0.807 -0.7302 -0.6276  0.9232
 2735WAT      O 8415   3.067   4.224   0.582 -0.5875 -0.1716 -0.1675
 2735WAT     H1 8416   3.021   4.152   0.626 -1.2389  0.6235  0.4925
 2735WAT     H2 8417   3.078   4.290   0.650 -1.0216  0.8227 -1.0423
 2736WAT      O 8418   1.963   0.846   2.527  0.4803 -0.4421  0.0242
 2736WAT     H1 8419   2.004   0.882   2.448 -0.9115  0.2664 -0.4031
 2736WAT     H2 8420   2.003   0.895   2.599 -0.9566  1.6457 -0.5079
 2737WAT      O 8421   0.586   3.919   3.561  0.0373 -0.1487  0.8494
 2737WAT     H1 8422   0.590   3.936   3.655 -2.3654 -2.4493  1.4878
 2737WAT     H2 8423   0.504   3.961   3.533 -0.3031 -1.2017  0.2178
 2738WAT      O 8424   3.451   2.656   4.219  0.2831  0.2326  0.0514
 2738WAT     H1 8425   3.535   2.636   4.179  0.9465  1.6791  0.6558
 2738WAT     H2 8426   3.469   2.730   4.277 -0.8824 -0.9678  2.0766
 2739WAT      O 8427   1.999   1.002   4.096  0.4883  0.2590  0.3501
 2739WAT     H1 8428   1.930   0.936   4.090  1.3930 -0.5839 -2.4214
 2739WAT     H2 8429   1.952   1.086   4.094 -0.5310 -0.3006  0.0579
 2740WAT      O 8430   3.328   4.385   0.486  0.1499 -0.4458 -0.3026
 2740WAT     H1 8431   3.281   4.321   0.541  0.1394  0.6288  1.0068
 2740WAT     H2 8432   3.271   4.398   0.410 -0.6230 -0.7992  0.2011
 2741WAT      O 8433   2.828   0.921   0.739  0.1921 -0.2609 -0.3470
 2741WAT     H1 8434   2.880   0.904   0.661 -0.9044 -2.2827 -0.7324
 2741WAT     H2 8435   2.737   0.917   0.708 -0.2386  0.8694  0.6944
 2742WAT      O 8436   1.503   2.672   4.018  1.0751 -0.2380  0.2435
 2742WAT     H1 8437   1.444   2.616   4.068  0.7906 -0.0641  0.1070
 2742WAT     H2 8438   1.468   2.761   4.029  1.4643 -0.0960  0.3776
 2743WAT      O 8439   2.954   3.564   0.256 -0.1334  0.1010  0.0263
 2743WAT     H1 8440   3.012   3.618   0.310  0.6268 -1.6917  1.0941
 2743WAT     H2 8441   2.923   3.623   0.188  1.2282  1.6807  0.7040
 2744WAT      O 8442   3.971   1.391   3.259 -0.0502  0.6351 -0.3434
 2744WAT     H1 8443   3.969   1.316   3.318  0.3063  1.1230  0.3133
 2744WAT     H2 8444   4.059   1.429   3.272  0.3255  0.3083 -1.7694
 2745WAT      O 8445   0.861   3.738   3.341  0.6405 -0.4457  0.7141
 2745WAT     H1 8446   0.795   3.695   3.287  0.2822 -0.4795  1.1710
 2745WAT     H2 8447   0.939   3.685   3.330  0.9386  0.2356 -0.7436
 2746WAT      O 8448   4.181   2.246   0.869 -0.2408 -0.0615 -0.1106
 2746WAT     H1 8449   4.174   2.341   0.877 -1.0387 -0.2379  2.2248
 2746WAT     H2 8450   4.112   2.212   0.927 -0.3072 -2.0701 -1.2740
 2747WAT      O 8451   3.719   0.695   0.058  0.4906 -0.3153 -0.2497
 2747WAT     H1 8452   3.716   0.790   0.043 -0.4252 -0.4769 -1.1903
 2747WAT     H2 8453   3.648   0.678   0.119  1.3412 -0.2662  0.7743
 2748WAT      O 8454   1.074   0.519   4.113 -0.2766 -0.4289 -0.1797
 2748WAT     H1 8455   1.108   0.606   4.093  0.9007 -0.8653 -0.1463
 2748WAT     H2 8456   1.034   0.528   4.199  0.0254  0.0351 -0.0861
 2749WAT      O 8457   1.034   4.209   3.621  0.3176  0.5764 -0.3447
 2749WAT     H1 8458   1.005   4.231   3.710  0.2650 -0.4247 -0.1022
 2749WAT     H2 8459   0.954   4.180   3.577  0.5228  0.0998 -0.4077
 2750WAT      O 8460   2.421   1.599   1.292 -0.3705  0.1184 -0.2733
 2750WAT     H1 8461   2.439   1.684   1.251 -2.4236  0.1407 -1.2972
 2750WAT     H2 8462   2.348   1.563   1.240 -0.1061 -1.8957  0.6594
 2751WAT      O 8463   4.165   1.081   2.115 -0.0096 -0.2152  0.5409
 2751WAT     H1 8464   4.254   1.117   2.122 -0.5246  1.2450  0.0860
 2751WAT     H2 8465   4.126   1.128   2.041 -0.8516 -1.5265  0.1278
 2752WAT      O 8466   1.371   4.791   5.300 -0.2625  0.1863 -0.3557
 2752WAT     H1 8467   1.348   4.877   5.266  2.7368  0.5779 -1.6585
 2752WAT     H2 8468   1.464   4.797   5.321 -0.5956 -1.9250  2.2679
 2753WAT      O 8469   0.421   3.138   2.710  0.5251  0.0882  0.3031
 2753WAT     H1 8470   0.488   3.093   2.761  0.7874  0.1942  0.0546
 2753WAT     H2 8471   0.368   3.068   2.672  1.5661 -0.0608 -0.9433
 2754WAT      O 8472   3.722   2.236   1.115  0.4224  0.2123  0.2890
 2754WAT     H1 8473   3.634   2.259   1.086 -0.0087  0.7109  1.8591
 2754WAT     H2 8474   3.751   2.312   1.165  1.4612 -0.2321  0.3849
 2755WAT      O 8475   1.893   1.836   1.278  0.1000  0.0821 -0.1670
 2755WAT     H1 8476   1.812   1.831   1.329 -0.4755  2.1639 -0.7564
 2755WAT     H2 8477   1.944   1.904   1.322  0.5493  0.3546 -1.1009
 2756WAT      O 8478   1.620   5.054   3.606  0.1778 -0.2981  0.5358
 2756WAT     H1 8479   1.538   5.092   3.574  0.2307 -0.3308  0.3617
 2756WAT     H2 8480   1.687   5.118   3.583  0.4948 -1.2133 -1.1942
 2757WAT      O 8481   0.706   0.579   4.513  0.7224  0.3042 -0.8736
 2757WAT     H1 8482   0.612   0.592   4.505  0.2020 -1.7985  0.9954
 2757WAT     H2 8483   0.728   0.616   4.598  1.0944 -1.3687 -0.2043
 2758WAT      O 8484   1.188   0.709   2.070  0.0066 -0.3865 -0.5697
 2758WAT     H1 8485   1.245   0.687   1.997  0.7801 -0.2391 -0.0223
 2758WAT     H2 8486   1.214   0.650   2.140  0.3505  0.5196  0.0821
 2759WAT      O 8487   2.361   2.292   0.514 -0.0249 -0.0501  0.1072
 2759WAT     H1 8488   2.287   2.234   0.528 -0.5549 -0.0560 -2.2764
 2759WAT     H2 8489   2.400   2.303   0.601 -1.3623 -1.9736  1.0221
 2760WAT      O 8490   0.383   1.219   1.245  0.1922 -0.2642  0.0091
 2760WAT     H1 8491   0.423   1.305   1.232  0.4005 -0.1839  1.1260
 2760WAT     H2 8492   0.456   1.163   1.271  0.0238 -0.7428 -0.5416
 2761WAT      O 8493   3.104   0.757   2.558  0.7674 -0.1099 -0.5795
 2761WAT     H1 8494   3.093   0.782   2.466  0.1113 -0.9567 -0.7452
 2761WAT     H2 8495   3.198   0.754   2.571  0.9022  2.3991 -0.5387
 2762WAT      O 8496   3.446   3.366   4.608  0.0876  0.0630  0.5735
 2762WAT     H1 8497   3.496   3.442   4.578  2.0368 -1.1534  0.6230
 2762WAT     H2 8498   3.440   3.309   4.531 -0.8884  0.0097  0.6818
 2763WAT      O 8499   1.280   0.201   0.323  0.4929 -0.0053 -0.3148
 2763WAT     H1 8500   1.299   0.111   0.295 -0.5961 -0.7859  1.2634
 2763WAT     H2 8501   1.366   0.243   0.329  1.1125 -1.2585 -0.0689
 2764WAT      O 8502   3.222   1.306   3.484  0.4313 -0.5060 -0.1431
 2764WAT     H1 8503   3.249   1.372   3.549  1.4205 -1.2095  0.1785
 2764WAT     H2 8504   3.262   1.336   3.402 -1.3984  0.7676 -0.6282
 2765WAT      O 8505   4.138   1.935   0.020  0.4410  0.5480 -0.2379
 2765WAT     H1 8506   4.059   1.968  -0.021  0.3119 -0.0757 -0.4965
 2765WAT     H2 8507   4.129   1.960   0.112  1.2266  2.8816 -0.7383
 2766WAT      O 8508   3.637   4.380   3.421  0.1943 -0.4035  0.1939
 2766WAT     H1 8509   3.690   4.324   3.478  2.1295 -1.5718 -2.5559
 2766WAT     H2 8510   3.696   4.450   3.393 -0.5327 -0.1505 -0.7805
 2767WAT      O 8511   3.317   2.537   2.318 -0.1606 -0.4399  0.1349
 2767WAT     H1 8512   3.292   2.516   2.228 -0.1732  1.2462 -0.2946
 2767WAT     H2 8513   3.257   2.608   2.343  0.6833 -0.0200  1.0073
 2768WAT      O 8514   3.755   1.742   1.814  0.2577 -0.3595  0.2932
 2768WAT     H1 8515   3.716   1.657   1.836 -1.0249  0.1014 -0.1068
 2768WAT     H2 8516   3.718   1.802   1.879 -0.1821  0.1979 -0.4557
 2769WAT      O 8517   2.991   1.427   1.726 -0.0087  0.9901 -0.0208
 2769WAT     H1 8518   2.926   1.421   1.796  1.5977 -0.0937  1.4728
 2769WAT     H2 8519   2.956   1.372   1.656 -1.5706  1.9714 -0.0496
 2770WAT      O 8520   4.494   4.696   4.487  0.0408  0.0471 -0.3014
 2770WAT     H1 8521   4.479   4.743   4.406  0.3950  3.2822  1.3461
 2770WAT     H2 8522   4.438   4.739   4.551  0.0338 -2.1576  1.2973
 2771WAT      O 8523   4.529   1.487   2.997  0.0873 -0.0772 -0.0923
 2771WAT     H1 8524   4.445   1.525   2.974 -1.4738 -2.4772  1.1948
 2771WAT     H2 8525   4.516   1.451   3.085  1.9385 -1.9009 -0.4736
 2772WAT      O 8526   0.536   2.098   1.673  0.6442 -0.4223  0.1169
 2772WAT     H1 8527   0.615   2.151   1.663  0.9029 -1.0656 -1.4495
 2772WAT     H2 8528   0.535   2.040   1.597 -0.5299 -1.5039  0.8960
 2773WAT      O 8529   1.571   0.847   4.827 -0.5047  0.1062 -0.2647
 2773WAT     H1 8530   1.648   0.832   4.772 -0.7553  0.7523 -0.8157
 2773WAT     H2 8531   1.514   0.902   4.773 -2.6436 -2.6533 -1.0778
 2774WAT      O 8532   1.950   3.201   2.841 -0.3951  0.4325 -0.2159
 2774WAT     H1 8533   1.971   3.223   2.751 -1.2901  0.4008 -0.4468
 2774WAT     H2 8534   1.886   3.268   2.867 -0.5204  0.1441  0.2262
 2775WAT      O 8535   1.507   0.368   0.405 -0.4587 -0.1556 -0.4311
 2775WAT     H1 8536   1.460   0.405   0.479 -0.1707  0.0414 -0.3464
 2775WAT     H2 8537   1.599   0.380   0.426 -0.3752  0.0832 -0.9096
 2776WAT      O 8538   1.160   4.165   3.244  0.1229 -0.5346 -0.2202
 2776WAT     H1 8539   1.189   4.077   3.270 -0.5146 -0.4950  0.6592
 2776WAT     H2 8540   1.069   4.153   3.216  0.0366 -0.1546 -0.1083
 2777WAT      O 8541   1.525   4.829   0.395 -0.2908 -0.2724  0.2115
 2777WAT     H1 8542   1.541   4.765   0.464 -1.3205 -0.9600 -0.1579
 2777WAT     H2 8543   1.430   4.844   0.397  0.1983  4.7865  3.3797
 2778WAT      O 8544   0.371   4.622   2.881 -0.1062  0.5513 -0.1689
 2778WAT     H1 8545   0.360   4.594   2.972  1.1981 -0.3396 -0.2565
 2778WAT     H2 8546   0.292   4.591   2.837  0.6109 -1.7972  0.0646
 2779WAT      O 8547   4.491   2.893   3.004 -0.0895 -0.1543  0.0595
 2779WAT     H1 8548   4.405   2.885   3.045 -0.0945  0.2230  0.1321
 2779WAT     H2 8549   4.476   2.878   2.911 -0.0568 -1.1645  0.2141
 2780WAT      O 8550   2.519   3.696   0.327  0.0915 -0.6368  0.1203
 2780WAT     H1 8551   2.578   3.770   0.336 -1.3997  0.6365 -0.0627
 2780WAT     H2 8552   2.544   3.655   0.244  0.3404  0.2460 -0.2504
 2781WAT      O 8553   3.766   2.518   0.061 -0.1947  0.5422 -0.2551
 2781WAT     H1 8554   3.803   2.592   0.014 -1.8291  1.4838 -0.1275
 2781WAT     H2 8555   3.839   2.482   0.111  1.0035  1.0105 -1.6111
 2782WAT      O 8556   4.087   1.791   1.392  0.3260 -0.4279  0.0790
 2782WAT     H1 8557   4.075   1.704   1.429 -2.5053 -0.7098 -1.1818
 2782WAT     H2 8558   4.143   1.778   1.316 -0.1415 -1.1943 -0.1424
 2783WAT      O 8559   1.243   0.622   0.956  0.4282  0.0426  0.0008
 2783WAT     H1 8560   1.253   0.622   0.861 -0.8469 -0.1785 -0.1525
 2783WAT     H2 8561   1.249   0.714   0.981 -2.1445  0.4754 -0.6792
 2784WAT      O 8562   1.938   0.331   0.358  1.0500  0.0967 -0.1052
 2784WAT     H1 8563   1.952   0.340   0.264 -1.4640 -2.0472 -0.8084
 2784WAT     H2 8564   1.898   0.245   0.368  1.0573  0.3405  2.9376
 2785WAT      O 8565   2.089   1.953   3.686 -0.0499 -0.2456 -0.3343
 2785WAT     H1 8566   2.115   2.037   3.649  1.3536 -0.7651 -0.5922
 2785WAT     H2 8567   2.171   1.903   3.692 -0.9127 -1.7687 -0.6288
 2786WAT      O 8568   2.087   4.086   1.148 -0.0334  0.2306 -0.0171
 2786WAT     H1 8569   2.072   3.992   1.155  0.7110  0.0614 -0.6686
 2786WAT     H2 8570   2.017   4.117   1.090  1.6878 -0.4780 -2.6366
 2787WAT      O 8571   2.237   3.648   0.565 -0.5797 -0.0123 -0.9910
 2787WAT     H1 8572   2.214   3.675   0.476  0.0963 -0.6728 -1.3788
 2787WAT     H2 8573   2.180   3.573   0.582  2.5868 -3.0867 -2.7984
 2788WAT      O 8574  -0.001   2.384   1.104  0.3895 -0.5868  0.1698
 2788WAT     H1 8575  -0.044   2.341   1.030 -0.3616  1.4043 -0.6336
 2788WAT     H2 8576   0.069   2.324   1.130  0.5014 -1.4711 -1.9822
 2789WAT      O 8577   3.659   0.767   1.561 -0.7784 -0.4532  0.3963
 2789WAT     H1 8578   3.724   0.826   1.600 -1.2739 -0.7352  1.6886
 2789WAT     H2 8579   3.706   0.685   1.547 -0.6220 -0.3733  0.4492
 2790WAT      O 8580   1.649   2.020   1.323  0.4923 -0.2639 -0.0031
 2790WAT     H1 8581   1.668   2.112   1.303  1.7446 -0.0888  1.7378
 2790WAT     H2 8582   1.618   2.021   1.414 -3.1335 -1.2002 -1.0944
 2791WAT      O 8583   3.802   3.174   5.179  0.3439  0.1227  0.4757
 2791WAT     H1 8584   3.711   3.182   5.151  1.0380  3.0199 -1.4785
 2791WAT     H2 8585   3.799   3.186   5.273 -1.2756  0.7312  0.3831
 2792WAT      O 8586   1.152   1.871   1.429 -0.4081 -0.7836 -0.7801
 2792WAT     H1 8587   1.164   1.956   1.386 -1.2404 -0.5894 -0.6387
 2792WAT     H2 8588   1.144   1.892   1.522  2.3577 -1.2833 -0.3553
 2793WAT      O 8589   2.805   1.281   3.241  0.0903  0.1511  0.7683
 2793WAT     H1 8590   2.794   1.320   3.328 -1.0702 -0.4149  0.8980
 2793WAT     H2 8591   2.725   1.304   3.194 -0.2717 -1.3359  0.5843
 2794WAT      O 8592   0.075   4.023   2.269  0.0273  0.0251 -0.4990
 2794WAT     H1 8593   0.156   3.978   2.292 -0.3819 -0.9443 -0.9037
 2794WAT     H2 8594   0.032   3.965   2.206 -0.8235  0.6854 -0.5507
 2795WAT      O 8595   0.885   1.259   4.654  0.3596  0.0902 -0.1520
 2795WAT     H1 8596   0.795   1.234   4.637  0.8291 -1.2090 -0.8732
 2795WAT     H2 8597   0.892   1.349   4.623 -0.1080 -0.5651 -2.2978
 2796WAT      O 8598   2.580   2.251   3.515  0.0179 -0.0542  0.3973
 2796WAT     H1 8599   2.646   2.203   3.566  1.1750 -0.6391 -1.5175
 2796WAT     H2 8600   2.632   2.304   3.455 -1.1720 -1.5115 -2.0826
 2797WAT      O 8601   2.961   1.085   2.093  0.3145  0.5855  0.3535
 2797WAT     H1 8602   2.932   1.101   2.183  0.9874  2.2432  0.3170
 2797WAT     H2 8603   2.984   1.172   2.060 -0.1162  0.0386 -1.4971
 2798WAT      O 8604   1.510   1.618   5.232  0.7036 -0.3796  0.9694
 2798WAT     H1 8605   1.595   1.604   5.274  0.7944 -0.9041  0.6154
 2798WAT     H2 8606   1.489   1.534   5.191  1.3372  0.5366 -1.3462
 2799WAT      O 8607   2.116   1.838   4.783 -0.3155 -0.1145  0.0708
 2799WAT     H1 8608   2.101   1.932   4.772  0.5274  0.2119  1.5144
 2799WAT     H2 8609   2.204   1.823   4.747  0.5774  0.1373  2.0362
 2800WAT      O 8610   3.521   0.410   4.531  0.2235 -0.2643 -0.1988
 2800WAT     H1 8611   3.487   0.343   4.590 -1.5870 -1.2212 -2.2071
 2800WAT     H2 8612   3.546   0.363   4.452  1.6737  1.0997 -0.6161
 2801WAT      O 8613   3.910   2.461   4.397 -0.0221  0.3221 -0.4579
 2801WAT     H1 8614   3.991   2.462   4.347  0.4245  0.1211  0.2461
 2801WAT     H2 8615   3.938   2.444   4.488 -0.9023 -0.6086 -0.3353
 2802WAT      O 8616   4.333   3.857   1.409  0.3341 -0.1310 -0.1197
 2802WAT     H1 8617   4.336   3.940   1.363  0.1939 -1.0398 -1.8522
 2802WAT     H2 8618   4.255   3.813   1.375  0.7241 -1.2128  0.3270
 2803WAT      O 8619   3.101   2.879   2.910  0.2264 -0.0891 -0.1024
 2803WAT     H1 8620   3.090   2.844   2.999 -0.7915 -0.7740 -0.4804
 2803WAT     H2 8621   3.012   2.881   2.875  0.6021  0.3757 -1.0397
 2804WAT      O 8622   2.006   4.623   4.105  0.1958  0.3247 -0.6248
 2804WAT     H1 8623   1.942   4.686   4.138  1.0294  1.4040 -1.0085
 2804WAT     H2 8624   1.991   4.622   4.010  1.1599  1.0818 -0.7985
 2805WAT      O 8625   1.751   3.228   0.303 -0.0663 -0.7768 -0.1943
 2805WAT     H1 8626   1.700   3.151   0.280 -1.3845  0.0944 -0.2469
 2805WAT     H2 8627   1.758   3.225   0.398 -0.9672 -0.4528 -0.1090
 2806WAT      O 8628   1.745   1.584   0.040  0.3924 -0.3066 -0.2048
 2806WAT     H1 8629   1.776   1.673   0.059 -0.2420 -0.2806  0.8172
 2806WAT     H2 8630   1.790   1.529   0.105  1.1424 -0.8140 -1.1310
 2807WAT      O 8631   3.414   1.968   4.277 -0.3493 -0.3118  0.3061
 2807WAT     H1 8632   3.418   2.039   4.342  1.9079  1.0456 -1.1809
 2807WAT     H2 8633   3.491   1.915   4.295  1.2835  1.0361 -2.1545
 2808WAT      O 8634   3.129   2.671   2.698  0.3065  0.5976 -0.0896
 2808WAT     H1 8635   3.116   2.749   2.754  0.6337  1.8110 -1.6406
 2808WAT     H2 8636   3.064   2.608   2.730 -1.0684  2.0829  0.2055
 2809WAT      O 8637   1.401   4.480   2.155  0.3218 -0.4300 -0.2610
 2809WAT     H1 8638   1.329   4.438   2.202  1.5811 -1.8995  0.4369
 2809WAT     H2 8639   1.365   4.564   2.126 -0.7119  0.3088  2.8248
 2810WAT      O 8640   4.499   0.326   3.410  0.6343 -0.6689  0.4735
 2810WAT     H1 8641   4.419   0.280   3.383  0.5951 -0.4917  0.2798
 2810WAT     H2 8642   4.495   0.409   3.363  1.0817 -0.7791  0.2320
 2811WAT      O 8643   0.223   4.311   3.262 -0.3606  0.5109  0.1374
 2811WAT     H1 8644   0.252   4.312   3.170 -0.8874  1.6603 -0.0392
 2811WAT     H2 8645   0.146   4.253   3.262 -0.1581  0.2373 -0.0796
 2812WAT      O 8646   3.231   3.594   1.118  0.2264 -0.2360  0.2352
 2812WAT     H1 8647   3.212   3.511   1.075  0.0624  1.4431 -3.3003
 2812WAT     H2 8648   3.152   3.647   1.104  1.3014  1.3641 -0.0251
 2813WAT      O 8649   1.819   4.149   4.886 -0.2189  0.1535 -0.3046
 2813WAT     H1 8650   1.863   4.077   4.932 -0.8601  1.6545  2.9176
 2813WAT     H2 8651   1.731   4.116   4.868 -0.3078 -0.1064  0.5642
 2814WAT      O 8652   3.569   0.401   4.060  0.0956  0.0915  0.2173
 2814WAT     H1 8653   3.602   0.362   4.141  1.3188  1.1261  0.2509
 2814WAT     H2 8654   3.627   0.475   4.044  1.3872 -1.4040 -2.8636
 2815WAT      O 8655   1.168   0.201   5.227  0.1551  0.5520  0.3601
 2815WAT     H1 8656   1.260   0.197   5.199 -0.0841 -1.5710 -0.2700
 2815WAT     H2 8657   1.130   0.271   5.174  0.5085 -1.1584 -2.3281
 2816WAT      O 8658   4.194   4.914   4.322 -0.1479  0.5685  0.2324
 2816WAT     H1 8659   4.234   4.846   4.269  0.3422 -0.5111  1.8923
 2816WAT     H2 8660   4.247   4.992   4.304  0.2839  0.1148 -0.5089
 2817WAT      O 8661   2.977   2.551   1.582  0.0881 -0.0612  0.0460
 2817WAT     H1 8662   3.035   2.623   1.607  1.4506 -1.8335  2.4075
 2817WAT     H2 8663   2.990   2.541   1.488  3.5695 -0.2800  0.4462
 2818WAT      O 8664   3.761   2.613   2.637 -0.2183  0.1465 -0.0413
 2818WAT     H1 8665   3.831   2.645   2.694 -0.0860 -2.2028  1.2548
 2818WAT     H2 8666   3.683   2.660   2.666  0.1700  0.1912  0.9689
 2819WAT      O 8667   2.306   3.534   0.019  0.0756 -0.2220  0.7233
 2819WAT     H1 8668   2.269   3.447   0.004  1.7748 -1.0237  0.9671
 2819WAT     H2 8669   2.396   3.528  -0.012  0.3215  1.3773  1.0143
 2820WAT      O 8670   3.888   4.899   1.455  0.1650  0.0222 -0.0866
 2820WAT     H1 8671   3.876   4.939   1.369 -1.5038 -1.1956 -0.4694
 2820WAT     H2 8672   3.810   4.924   1.505  0.8362  0.2294  0.8831
 2821WAT      O 8673   3.694   2.122   3.704 -0.0604  1.0581  0.4138
 2821WAT     H1 8674   3.658   2.098   3.789  0.2854  1.6246  0.7286
 2821WAT     H2 8675   3.618   2.151   3.653 -0.2266  1.0043  0.6309
 2822WAT      O 8676   0.095   4.201   3.700  0.2011  0.3215  0.3522
 2822WAT     H1 8677   0.158   4.219   3.630 -0.2421  0.3472 -0.0418
 2822WAT     H2 8678   0.136   4.236   3.779  0.4842  0.7314  0.0237
 2823WAT      O 8679   1.685   1.173   4.063  0.4784 -0.4277  0.1253
 2823WAT     H1 8680   1.627   1.118   4.117 -0.2550  1.1271  1.0047
 2823WAT     H2 8681   1.732   1.227   4.127 -0.3676  1.4238 -0.7343
 2824WAT      O 8682   3.532   1.492   3.551  0.7875  0.1553  0.2486
 2824WAT     H1 8683   3.502   1.569   3.503 -1.1428  0.2283  1.4454
 2824WAT     H2 8684   3.507   1.510   3.642  3.1030 -0.5566  1.1117
 2825WAT      O 8685   2.171   2.204   3.416 -0.2136  0.3388 -0.2325
 2825WAT     H1 8686   2.083   2.238   3.435 -0.6557 -0.9437  0.1472
 2825WAT     H2 8687   2.155   2.126   3.362  0.6999  0.1765 -0.2861
 2826WAT      O 8688   1.633   1.563   2.656  0.1294  0.1488  0.0584
 2826WAT     H1 8689   1.603   1.526   2.572  0.6546  0.4614 -0.2743
 2826WAT     H2 8690   1.713   1.610   2.633 -1.0784  2.4433  0.2488
 2827WAT      O 8691   1.987   4.480   1.445  0.8045  0.0976 -0.2697
 2827WAT     H1 8692   2.032   4.510   1.366 -0.6582  0.7272 -0.8883
 2827WAT     H2 8693   1.981   4.385   1.434  0.1826  0.2296 -1.1496
 2828WAT      O 8694   3.290   0.090   2.416  0.1664  0.3267  0.1574
 2828WAT     H1 8695   3.289   0.103   2.321 -0.6418  0.0695  0.1296
 2828WAT     H2 8696   3.310  -0.004   2.427  1.5185  0.6064  0.2758
 2829WAT      O 8697   3.904   3.776   5.237 -0.2532  0.0311 -0.1343
 2829WAT     H1 8698   3.996   3.802   5.234  0.0008 -0.8584 -3.0646
 2829WAT     H2 8699   3.903   3.686   5.203 -2.1719 -0.0565  0.0147
 2830WAT      O 8700   2.876   2.831   1.757  0.0065  0.3548  0.3772
 2830WAT     H1 8701   2.916   2.791   1.679 -1.2632  1.0190 -0.6641
 2830WAT     H2 8702   2.911   2.920   1.759  0.9299 -0.0072  1.2684
 2831WAT      O 8703   1.183   4.573   3.143 -0.4096  0.0859  0.5077
 2831WAT     H1 8704   1.131   4.508   3.191 -1.9196  0.8490 -0.0498
 2831WAT     H2 8705   1.166   4.555   3.051  1.8344 -0.8420  0.2016
 2832WAT      O 8706   1.164   0.465   5.150  0.2494 -0.1198 -0.0561
 2832WAT     H1 8707   1.108   0.513   5.089  0.1386 -0.3183 -0.1120
 2832WAT     H2 8708   1.221   0.532   5.188 -1.4213  0.4470  1.5728
 2833WAT      O 8709   2.982   1.019   4.645 -0.0822  0.0439  0.0683
 2833WAT     H1 8710   2.938   0.997   4.727  0.4631 -0.6728  0.1878
 2833WAT     H2 8711   2.920   0.992   4.576  0.7655 -2.5057  0.1989
 2834WAT      O 8712   0.864   0.101   1.168 -0.0556 -0.1571  0.2423
 2834WAT     H1 8713   0.876   0.019   1.119  2.0567 -0.6666  1.5065
 2834WAT     H2 8714   0.801   0.079   1.236 -1.5105  0.0323 -0.9836
 2835WAT      O 8715   3.507   0.314   4.891  0.1075 -0.1901  0.1585
 2835WAT     H1 8716   3.479   0.283   4.805 -1.5585  0.2840  0.4997
 2835WAT     H2 8717   3.598   0.286   4.898 -0.0155 -1.0628 -1.3623
 2836WAT      O 8718   0.370   1.226   0.593  0.4307 -0.7344  0.5027
 2836WAT     H1 8719   0.286   1.181   0.598  0.8436 -1.4753  1.0616
 2836WAT     H2 8720   0.401   1.230   0.683  1.1764 -0.8493  0.2603
 2837WAT      O 8721   2.105   2.549   0.686  0.3573  0.1260  0.6736
 2837WAT     H1 8722   2.191   2.568   0.648  0.4694 -0.3151  0.7030
 2837WAT     H2 8723   2.054   2.513   0.614 -0.3412  1.9129  0.2342
 2838WAT      O 8724   2.972   4.771   5.022  0.0080 -0.0325  0.0820
 2838WAT     H1 8725   2.885   4.804   4.999 -0.7926 -1.0220  1.5361
 2838WAT     H2 8726   3.030   4.845   5.009 -1.2507  1.0260  0.2920
 2839WAT      O 8727   3.788   2.599   1.942 -0.1337  0.1904 -0.4925
 2839WAT     H1 8728   3.829   2.650   2.011 -0.6449  0.7802 -0.6213
 2839WAT     H2 8729   3.861   2.570   1.887  0.2308  0.0997  0.0347
 2840WAT      O 8730   0.001   1.477   1.229 -0.0238  0.1351 -0.2568
 2840WAT     H1 8731   0.057   1.482   1.306 -0.1322  0.8422 -0.2103
 2840WAT     H2 8732   0.041   1.410   1.174 -0.1379 -0.6190  0.5622
 2841WAT      O 8733   0.542   0.171   2.862  0.2720 -0.0761 -0.3931
 2841WAT     H1 8734   0.588   0.254   2.850 -1.6401  1.2745  0.9866
 2841WAT     H2 8735   0.506   0.177   2.950  1.7742 -3.3039  0.5978
 2842WAT      O 8736   3.786   2.906   3.646  0.0206 -0.0893 -0.6866
 2842WAT     H1 8737   3.714   2.856   3.607 -0.1445 -0.4303  0.0411
 2842WAT     H2 8738   3.754   2.996   3.650  0.0216 -0.0578 -1.2821
 2843WAT      O 8739   0.463   3.439   2.665  0.0709  0.1063  0.0183
 2843WAT     H1 8740   0.396   3.466   2.601 -1.2720 -0.6299  1.0593
 2843WAT     H2 8741   0.462   3.343   2.661  0.7962  0.0811  0.3357
 2844WAT      O 8742   1.247   2.821   2.056  0.4652  0.0455 -0.2455
 2844WAT     H1 8743   1.163   2.840   2.014  1.3433  0.4761 -1.8858
 2844WAT     H2 8744   1.229   2.745   2.112 -0.0349 -3.0551 -4.1855
 2845WAT      O 8745   0.885   0.893   2.281 -0.2997  0.4200 -0.1982
 2845WAT     H1 8746   0.977   0.918   2.294 -0.1558 -0.2574  0.1220
 2845WAT     H2 8747   0.890   0.812   2.230 -0.7575  0.9460 -1.1149
 2846WAT      O 8748   3.340   3.855   1.693  0.3393 -0.2086  0.1373
 2846WAT     H1 8749   3.289   3.780   1.663  0.7238 -0.4401  0.0624
 2846WAT     H2 8750   3.296   3.882   1.774  0.1684 -0.4807  0.1384
 2847WAT      O 8751   3.851   0.205   2.531  0.6667 -0.6662 -0.4561
 2847WAT     H1 8752   3.903   0.274   2.572 -0.8674  0.4874 -0.3767
 2847WAT     H2 8753   3.838   0.141   2.600  0.4466 -0.0735  0.0599
 2848WAT      O 8754   0.601   3.666   2.656  0.0200 -0.3906 -0.4687
 2848WAT     H1 8755   0.532   3.732   2.655  0.0963 -0.3189 -1.2450
 2848WAT     H2 8756   0.555   3.584   2.672  0.0614 -0.0216  1.9681
 2849WAT      O 8757   1.929   3.810   4.211  0.1300 -0.0536  0.2150
 2849WAT     H1 8758   2.009   3.784   4.164 -0.8504  0.8901 -2.1351
 2849WAT     H2 8759   1.913   3.900   4.182 -2.0098 -0.3629  0.2818
 2850WAT      O 8760   3.737   4.914   2.520  0.5052 -0.1433  0.0266
 2850WAT     H1 8761   3.732   4.996   2.569  2.5539 -0.4573  0.8629
 2850WAT     H2 8762   3.729   4.941   2.428  1.1463  0.9884  0.2828
 2851WAT      O 8763   3.174   4.254   2.853 -0.1514 -0.0429  0.1117
 2851WAT     H1 8764   3.111   4.231   2.785 -0.4535  0.2455  0.2930
 2851WAT     H2 8765   3.172   4.349   2.856  0.4965 -0.0204 -0.0698
 2852WAT      O 8766   2.469   0.263   4.121 -0.0631 -0.2282  0.2209
 2852WAT     H1 8767   2.496   0.320   4.192 -0.7767  1.0988 -0.5346
 2852WAT     H2 8768   2.404   0.204   4.160 -2.8051  2.4591  0.1245
 2853WAT      O 8769   2.428   1.935   2.996  0.3517 -0.3335  0.3936
 2853WAT     H1 8770   2.368   1.951   3.069  0.9296 -1.6210  1.2129
 2853WAT     H2 8771   2.472   1.852   3.020  1.5067 -0.0974 -0.7839
 2854WAT      O 8772   3.054   4.115   0.148  0.4720  0.2784 -0.2211
 2854WAT     H1 8773   3.132   4.069   0.179 -0.6164 -1.1614  0.5268
 2854WAT     H2 8774   3.012   4.147   0.227 -2.0447 -2.9496  0.0047
 2855WAT      O 8775   2.929   0.788   2.133 -0.1973 -0.1413 -0.5798
 2855WAT     H1 8776   2.895   0.752   2.214  0.5817  0.1628 -0.1006
 2855WAT     H2 8777   2.954   0.878   2.156  2.7567 -0.9047 -0.3213
 2856WAT      O 8778   0.233   0.173   5.285 -0.6509 -0.0392 -0.0619
 2856WAT     H1 8779   0.181   0.122   5.347 -1.0847 -0.3463 -0.6653
 2856WAT     H2 8780   0.268   0.108   5.224 -2.0932  0.4282 -1.4905
 2857WAT      O 8781   1.789   1.077   3.032 -0.3366 -0.4873  0.2398
 2857WAT     H1 8782   1.789   1.075   2.936 -4.3327  0.6463  0.0627
 2857WAT     H2 8783   1.731   1.005   3.057 -1.0883  0.5789  1.6775
 2858WAT      O 8784   1.237   1.627   3.690 -0.1824  0.3585 -0.6535
 2858WAT     H1 8785   1.154   1.593   3.658  0.0867  0.3292 -1.3514
 2858WAT     H2 8786   1.274   1.674   3.615  0.2036  0.7897 -0.2015
 2859WAT      O 8787   4.164   2.127   2.112 -0.7121 -0.3483 -0.4614
 2859WAT     H1 8788   4.235   2.095   2.167 -0.3154  0.2146 -0.6270
 2859WAT     H2 8789   4.093   2.147   2.173 -0.0030  1.0138 -0.0420
 2860WAT      O 8790   3.929   3.474   3.769  0.1890 -0.6298 -0.2176
 2860WAT     H1 8791   4.002   3.534   3.755 -0.5931  0.7853  1.3182
 2860WAT     H2 8792   3.858   3.511   3.715 -0.0548 -0.6630  0.0803
 2861WAT      O 8793   3.246   0.019   0.588  0.5179  0.0552 -0.0275
 2861WAT     H1 8794   3.335   0.036   0.558  0.4584  2.5395  0.9723
 2861WAT     H2 8795   3.190   0.065   0.526  0.1275  1.0133  1.0004
 2862WAT      O 8796   0.422   1.096   2.529 -0.4578  0.0169  0.0910
 2862WAT     H1 8797   0.446   1.189   2.532  0.5805 -0.2556  0.6518
 2862WAT     H2 8798   0.329   1.095   2.550 -0.4514  0.9263  0.1985
 2863WAT      O 8799   3.336   3.891   0.446  0.2828 -0.5747 -0.0713
 2863WAT     H1 8800   3.390   3.970   0.440  0.2290 -0.6461 -2.2333
 2863WAT     H2 8801   3.399   3.821   0.464  0.4566 -0.2056  0.8280
 2864WAT      O 8802   2.836   4.170   5.188  0.3713  0.3630 -0.1131
 2864WAT     H1 8803   2.920   4.209   5.163  1.5156 -0.4802  2.0470
 2864WAT     H2 8804   2.787   4.242   5.226  1.3400  0.3615  1.2512
 2865WAT      O 8805   0.725   2.803   3.986  0.1529  0.3535  0.3810
 2865WAT     H1 8806   0.698   2.718   4.022 -2.3594  1.2033  0.6805
 2865WAT     H2 8807   0.770   2.847   4.058 -1.8507  0.7065  1.4669
 2866WAT      O 8808   3.945   1.221   0.864  0.4185 -0.0127 -0.1051
 2866WAT     H1 8809   3.877   1.158   0.841 -0.0938  0.4706  0.0774
 2866WAT     H2 8810   4.024   1.187   0.823  0.4967 -1.6223  1.2812
 2867WAT      O 8811   2.044   5.089   4.654 -0.5360 -0.4996  0.0968
 2867WAT     H1 8812   1.993   5.013   4.626 -0.8355  0.3522 -1.8316
 2867WAT     H2 8813   2.082   5.063   4.738 -3.1122 -1.6175  1.0055
 2868WAT      O 8814   1.476   0.061   3.077 -0.3952 -0.0585 -0.5374
 2868WAT     H1 8815   1.430  -0.002   3.022 -0.4583  1.8118 -2.8118
 2868WAT     H2 8816   1.544   0.097   3.020  0.3466  1.1338  1.0220
 2869WAT      O 8817   1.975   3.277   1.987 -0.0479 -0.3937  0.4235
 2869WAT     H1 8818   2.053   3.221   1.989 -0.3811 -0.8457  0.9230
 2869WAT     H2 8819   1.939   3.270   2.076 -0.4003  0.1777  0.3256
 2870WAT      O 8820   2.110   0.940   4.932 -0.2941 -0.1515 -0.2734
 2870WAT     H1 8821   2.147   0.963   5.018  2.3776  0.4205 -1.4593
 2870WAT     H2 8822   2.031   0.994   4.924 -0.3935  0.0548  1.6541
 2871WAT      O 8823   0.794   0.396   1.209 -0.4452  0.8971  0.1541
 2871WAT     H1 8824   0.851   0.320   1.222  0.4699  1.1346 -2.0981
 2871WAT     H2 8825   0.714   0.359   1.171 -0.7974  0.8516  0.9277
 2872WAT      O 8826   0.903   2.967   2.904 -0.0011  0.0163 -0.0545
 2872WAT     H1 8827   0.918   2.920   2.821 -0.8214 -2.0378  0.8828
 2872WAT     H2 8828   0.940   3.054   2.889  0.9513 -0.6706 -2.1662
 2873WAT      O 8829   0.733   2.321   5.151  0.8012  0.0129 -0.9733
 2873WAT     H1 8830   0.692   2.324   5.238 -0.5545  0.9651 -1.6122
 2873WAT     H2 8831   0.719   2.231   5.122  1.1094 -0.2684 -0.2885
 2874WAT      O 8832   3.855   2.748   3.864 -0.1274  0.0458  0.1898
 2874WAT     H1 8833   3.928   2.688   3.844  1.1068  1.1440  1.1988
 2874WAT     H2 8834   3.838   2.793   3.781  1.3878  0.8352  0.2695
 2875WAT      O 8835   3.845   0.602   4.880  0.0323 -0.4495 -0.0617
 2875WAT     H1 8836   3.785   0.580   4.809 -0.8794 -0.0817  0.5739
 2875WAT     H2 8837   3.806   0.560   4.957  0.8082 -0.5340  0.2879
 2876WAT      O 8838   1.770   4.771   0.248  0.2505  0.4893 -0.0904
 2876WAT     H1 8839   1.691   4.767   0.301  1.4017  0.0248  1.6983
 2876WAT     H2 8840   1.832   4.715   0.294  2.4406  2.8325  0.0433
 2877WAT      O 8841   4.283   2.341   5.052  0.7148 -0.4351 -0.0596
 2877WAT     H1 8842   4.335   2.420   5.065  1.2938 -0.2822 -2.7444
 2877WAT     H2 8843   4.203   2.356   5.102  0.1171  2.5666 -1.7074
 2878WAT      O 8844   1.987   1.610   4.750 -0.2494  0.0132 -0.0415
 2878WAT     H1 8845   2.059   1.558   4.715 -0.0588 -0.3445  0.8446
 2878WAT     H2 8846   2.027   1.695   4.771 -0.0497 -0.2105  0.5225
 2879WAT      O 8847   2.609   0.647   1.136 -0.3933 -0.1916  0.3279
 2879WAT     H1 8848   2.613   0.690   1.221  0.7944 -1.9635  1.2132
 2879WAT     H2 8849   2.686   0.678   1.089 -0.0312 -0.6449  0.6191
 2880WAT      O 8850   0.091   3.293   4.192 -0.2981 -0.5046 -0.6627
 2880WAT     H1 8851   0.105   3.209   4.150  0.7006 -0.4785 -0.4213
 2880WAT     H2 8852   0.173   3.341   4.178 -0.8680  0.4498 -0.8417
 2881WAT      O 8853   4.413   5.117   3.013 -0.4810  0.0217 -0.4411
 2881WAT     H1 8854   4.475   5.187   2.994 -0.4687  0.6116  1.5489
 2881WAT     H2 8855   4.469   5.041   3.031 -0.5068 -0.8791 -3.5694
 2882WAT      O 8856   1.915   2.723   4.877  0.5052  0.6528  0.6382
 2882WAT     H1 8857   1.858   2.670   4.822  1.6973  1.0497 -1.0711
 2882WAT     H2 8858   1.857   2.788   4.917 -0.4436  0.1296  0.1236
 2883WAT      O 8859   0.641   0.765   5.052 -0.2625  0.1474 -0.0241
 2883WAT     H1 8860   0.594   0.719   5.122 -0.9206  0.3386 -0.3325
 2883WAT     H2 8861   0.710   0.813   5.097 -1.4261  1.2505  0.6569
 2884WAT      O 8862   3.362   0.639   2.502  0.3338 -0.1447  0.1867
 2884WAT     H1 8863   3.418   0.639   2.424  0.3586 -2.0314  0.1499
 2884WAT     H2 8864   3.336   0.547   2.512 -0.8980  0.3155  1.5369
 2885WAT      O 8865   0.171   4.563   2.698  0.1718 -0.3981  0.2167
 2885WAT     H1 8866   0.239   4.583   2.633  0.0868  1.0355  0.5338
 2885WAT     H2 8867   0.159   4.469   2.691 -0.0923 -0.2498 -2.0971
 2886WAT      O 8868   4.318   0.088   4.736  0.2606  0.1679 -0.0954
 2886WAT     H1 8869   4.368   0.135   4.802  0.0756 -0.6244  0.6311
 2886WAT     H2 8870   4.345  -0.004   4.747  0.1663  0.0143 -1.0629
 2887WAT      O 8871   3.613   0.859   4.221 -0.0406 -0.0386 -0.4093
 2887WAT     H1 8872   3.604   0.889   4.312 -0.1121 -0.8503 -0.1419
 2887WAT     H2 8873   3.539   0.799   4.209  1.2702 -1.7589 -0.2550
 2888WAT      O 8874   1.377   3.172   0.810 -0.0342  0.3583 -0.3926
 2888WAT     H1 8875   1.285   3.174   0.837  0.0067 -0.9402 -0.0992
 2888WAT     H2 8876   1.406   3.084   0.831  1.4943  0.9749  0.1873
 2889WAT      O 8877   3.625   3.811   5.270 -0.3428 -0.1296  0.4703
 2889WAT     H1 8878   3.711   3.805   5.228 -1.0350  0.5758 -1.1412
 2889WAT     H2 8879   3.625   3.896   5.313  0.0790 -0.5221  1.2768
 2890WAT      O 8880   1.427   0.607   0.297 -0.1309  0.4505 -0.5931
 2890WAT     H1 8881   1.464   0.522   0.321  1.0103  1.1289  0.1395
 2890WAT     H2 8882   1.333   0.591   0.290  0.0027 -0.7390  0.1049
 2891WAT      O 8883   2.886   3.571   4.043  0.3872 -0.0858  0.1965
 2891WAT     H1 8884   2.915   3.498   4.098  2.3953 -0.1223 -0.7843
 2891WAT     H2 8885   2.813   3.535   3.993  2.0719 -1.9190 -1.1392
 2892WAT      O 8886   0.571   3.927   4.165  0.0979  0.1456  0.6091
 2892WAT     H1 8887   0.640   3.865   4.140  1.1952  0.7085  2.0562
 2892WAT     H2 8888   0.495   3.872   4.183 -0.4123 -0.3803 -2.5159
 2893WAT      O 8889   0.305   3.336   0.795 -0.3742 -0.0683 -0.5049
 2893WAT     H1 8890   0.311   3.313   0.702  0.0654  0.1639 -0.5361
 2893WAT     H2 8891   0.218   3.374   0.805  0.8592  3.3630 -1.6074
 2894WAT      O 8892   1.758   2.962   3.383 -0.0231  0.3722 -0.1110
 2894WAT     H1 8893   1.662   2.962   3.376 -0.1292 -1.4838  0.7028
 2894WAT     H2 8894   1.788   2.954   3.292 -0.7725 -2.1597 -0.2200
 2895WAT      O 8895   2.708   0.267   3.290 -0.0146 -0.3243 -0.4189
 2895WAT     H1 8896   2.662   0.270   3.374  0.9343  1.6351  0.0848
 2895WAT     H2 8897   2.767   0.192   3.297 -0.2160 -0.4077  0.5016
 2896WAT      O 8898   0.061   4.989   5.125 -0.2527  0.0252  0.0802
 2896WAT     H1 8899   0.100   4.972   5.212  1.1066  0.2812 -0.4505
 2896WAT     H2 8900  -0.033   4.990   5.141 -0.2682 -3.3412  0.9966
 2897WAT      O 8901   3.594   1.306   2.295 -0.0738 -0.0530 -0.1440
 2897WAT     H1 8902   3.521   1.247   2.310 -0.3887  0.3870  0.0887
 2897WAT     H2 8903   3.665   1.250   2.264 -0.8321 -0.3484 -1.4181
 2898WAT      O 8904   4.346   4.568   3.112 -0.1825 -0.5412 -0.1837
 2898WAT     H1 8905   4.308   4.480   3.109  2.1440 -1.6533  0.6083
 2898WAT     H2 8906   4.289   4.620   3.056 -2.2623 -2.2729  0.1706
 2899WAT      O 8907   2.197   0.092   1.904  0.2654 -0.5639  0.2950
 2899WAT     H1 8908   2.146   0.073   1.983  0.8428 -0.6210  0.6565
 2899WAT     H2 8909   2.272   0.142   1.935 -0.3882  0.9629 -0.4278
 2900WAT      O 8910   3.048   2.276   2.408  0.3758 -0.0357 -0.9015
 2900WAT     H1 8911   3.028   2.214   2.338  1.2532 -1.5939  0.1587
 2900WAT     H2 8912   3.009   2.359   2.379 -2.3635 -1.4430 -1.6082
 2901WAT      O 8913   2.127   1.100   4.371  0.6353  0.0960  0.3250
 2901WAT     H1 8914   2.082   1.095   4.286 -0.4468  0.8793  0.8251
 2901WAT     H2 8915   2.173   1.016   4.379 -1.2511 -1.0181  0.0438
 2902WAT      O 8916   3.318   3.907   0.753  0.4188  0.1213  0.2297
 2902WAT     H1 8917   3.305   3.910   0.658  0.0557  2.2680  0.2756
 2902WAT     H2 8918   3.413   3.906   0.764  0.4656 -1.9177 -0.1302
 2903WAT      O 8919   1.230   1.451   1.721 -0.0674 -0.1653  0.2923
 2903WAT     H1 8920   1.238   1.360   1.692  0.9863  0.4137 -1.3702
 2903WAT     H2 8921   1.307   1.466   1.775 -0.1825 -0.2137  0.4725
 2904WAT      O 8922   3.807   1.118   2.206 -0.4902 -0.0941 -0.0928
 2904WAT     H1 8923   3.866   1.194   2.206  0.3565 -0.7321 -1.2384
 2904WAT     H2 8924   3.809   1.086   2.116  0.1190 -2.2114  0.6270
 2905WAT      O 8925   1.885   0.040   3.431 -0.9793 -0.3354 -0.3490
 2905WAT     H1 8926   1.848   0.127   3.416  1.5165  0.9336  0.2720
 2905WAT     H2 8927   1.827  -0.020   3.383 -3.9761  1.3712  0.9074
 2906WAT      O 8928   0.046   1.016   1.707 -1.0233 -0.3133  0.5306
 2906WAT     H1 8929   0.047   1.050   1.617 -0.6419  0.4950  0.8314
 2906WAT     H2 8930   0.071   0.924   1.698  0.2582  0.0694 -0.0837
 2907WAT      O 8931   4.073   3.327   1.332 -0.1085  0.6000  0.4406
 2907WAT     H1 8932   3.993   3.284   1.364  0.9772 -1.7464  0.2240
 2907WAT     H2 8933   4.059   3.420   1.351 -1.5558 -0.0662  3.3241
 2908WAT      O 8934   1.160   0.610   0.667 -0.1823 -0.2184 -0.2987
 2908WAT     H1 8935   1.094   0.558   0.621  0.0682 -1.3316  0.5550
 2908WAT     H2 8936   1.109   0.671   0.721 -0.5540 -1.4325  0.7654
 2909WAT      O 8937   4.514   0.891   2.652 -0.0766  0.2757 -0.0102
 2909WAT     H1 8938   4.569   0.840   2.712  0.9130 -0.1335 -1.2389
 2909WAT     H2 8939   4.457   0.826   2.612 -0.6720  0.5376  0.4054
 2910WAT      O 8940   2.129   3.575   3.400  0.2198 -0.1990  0.1190
 2910WAT     H1 8941   2.098   3.489   3.426 -0.4001 -0.7180 -2.1098
 2910WAT     H2 8942   2.073   3.636   3.449 -2.4459 -1.1145 -1.5295
 2911WAT      O 8943   3.305   4.542   2.192 -0.1531  0.5479  0.3881
 2911WAT     H1 8944   3.232   4.577   2.243  0.4664  0.2060  1.5471
 2911WAT     H2 8945   3.367   4.510   2.258  1.5661  1.8298 -0.5292
 2912WAT      O 8946   1.130   1.514   4.094  0.3034 -1.1328 -0.0506
 2912WAT     H1 8947   1.175   1.561   4.025 -0.0914 -0.2231  0.2999
 2912WAT     H2 8948   1.039   1.546   4.091 -0.2313 -2.6088 -0.4631
 2913WAT      O 8949   4.341   1.401   2.323 -0.2990  0.0086  0.2006
 2913WAT     H1 8950   4.257   1.365   2.351 -0.8395  1.0972  0.0480
 2913WAT     H2 8951   4.375   1.337   2.261 -0.2195 -1.2493  1.5008
 2914WAT      O 8952   1.245   1.861   4.816 -0.6331 -0.1357  0.0140
 2914WAT     H1 8953   1.335   1.878   4.842 -0.3850 -1.1885 -0.1111
 2914WAT     H2 8954   1.247   1.859   4.721 -0.8197 -0.0337  0.0062
 2915WAT      O 8955   4.466   2.731   3.540 -0.1865 -0.2759  0.3051
 2915WAT     H1 8956   4.517   2.651   3.552  0.5124  0.1291  0.1042
 2915WAT     H2 8957   4.527   2.792   3.498 -0.6048  0.4718  0.7592
 2916WAT      O 8958   0.421   1.062   2.842  0.0093  0.4488 -0.5562
 2916WAT     H1 8959   0.454   1.098   2.759 -0.1343 -0.6441 -1.1112
 2916WAT     H2 8960   0.470   1.108   2.910  0.8009  0.6982 -1.2853
 2917WAT      O 8961   3.832   2.073   3.985 -0.2557 -0.4191 -0.4581
 2917WAT     H1 8962   3.743   2.037   3.982 -0.2001 -0.9389  1.8708
 2917WAT     H2 8963   3.886   2.006   3.944 -0.7600 -0.7555 -0.5896
 2918WAT      O 8964   4.035   2.574   4.632  0.4326 -0.0847 -0.1743
 2918WAT     H1 8965   4.104   2.640   4.620  0.7086 -0.5633 -1.3852
 2918WAT     H2 8966   4.075   2.508   4.689  1.1058 -0.4901 -1.0744
 2919WAT      O 8967   4.026   2.083   0.545  0.5392  0.7583 -0.0361
 2919WAT     H1 8968   4.014   2.048   0.457 -1.0339  1.4219 -0.1239
 2919WAT     H2 8969   4.119   2.068   0.564  0.5775 -0.7582 -1.1919
 2920WAT      O 8970   2.556   2.583   2.270  0.2931 -0.0143  0.7839
 2920WAT     H1 8971   2.640   2.622   2.247  0.2233 -0.3641 -0.0794
 2920WAT     H2 8972   2.577   2.523   2.342  1.2759 -2.0570 -1.0905
 2921WAT      O 8973   1.874   0.856   2.180 -0.3055 -0.1903 -0.0918
 2921WAT     H1 8974   1.954   0.805   2.179 -0.4243 -0.3829  0.0742
 2921WAT     H2 8975   1.900   0.942   2.211 -0.1532 -0.2364 -0.0937
 2922WAT      O 8976   4.139   3.890   0.774  0.7557  0.5090  0.2155
 2922WAT     H1 8977   4.060   3.943   0.787 -1.2739 -2.3928  0.7679
 2922WAT     H2 8978   4.108   3.811   0.730  3.2972 -0.9311  0.8056
 2923WAT      O 8979   2.051   4.232   4.719  0.3256  0.7309  0.0054
 2923WAT     H1 8980   2.024   4.175   4.647  0.2302  2.5955 -1.5002
 2923WAT     H2 8981   1.989   4.213   4.789 -0.3740 -0.2211 -0.8380
 2924WAT      O 8982   0.151   4.649   1.644  0.3526  0.3803 -0.7741
 2924WAT     H1 8983   0.191   4.563   1.627  0.3834  0.4137 -0.8672
 2924WAT     H2 8984   0.192   4.678   1.725  0.4185  0.3545 -0.7983
 2925WAT      O 8985   3.064   1.295   1.977  0.1885 -0.4732  0.0345
 2925WAT     H1 8986   3.103   1.366   2.028 -1.6189 -0.4988  1.5778
 2925WAT     H2 8987   3.052   1.331   1.890  0.7008  0.6084  0.3974
 2926WAT      O 8988   3.579   3.954   1.640  0.2847  0.4740  0.1932
 2926WAT     H1 8989   3.490   3.938   1.673  0.6586  0.7063  1.3741
 2926WAT     H2 8990   3.566   3.997   1.556 -0.7312 -1.6641 -0.8282
 2927WAT      O 8991   3.771   2.220   4.642  0.4603  0.2112 -0.3644
 2927WAT     H1 8992   3.782   2.311   4.671 -1.8405  0.8606 -1.3487
 2927WAT     H2 8993   3.690   2.191   4.683  0.9142 -1.2446 -0.4603
 2928WAT      O 8994   1.906   4.168   0.713 -0.1154 -0.5805 -0.1003
 2928WAT     H1 8995   1.900   4.086   0.663 -1.3707 -0.9944  0.6840
 2928WAT     H2 8996   1.863   4.233   0.657  1.0640 -0.3790 -0.8165
 2929WAT      O 8997   1.007   2.016   3.112 -0.1327 -0.3433 -0.2383
 2929WAT     H1 8998   1.014   2.024   3.207 -0.3060  0.1289 -0.2617
 2929WAT     H2 8999   1.086   1.969   3.085 -0.1283 -0.5553  0.1501
 2930WAT      O 9000   0.913   0.598   1.040  0.0720  0.4041  0.2077
 2930WAT     H1 9001   1.005   0.619   1.057  0.1572 -0.9366  1.6488
 2930WAT     H2 9002   0.890   0.537   1.110 -1.6903  0.0858 -0.6158
 2931WAT      O 9003   1.744   4.903   3.043 -0.8662  0.1286  0.5358
 2931WAT     H1 9004   1.744   4.931   3.135  1.6057 -0.9761  0.9576
 2931WAT     H2 9005   1.830   4.929   3.010 -0.5500 -2.0716 -0.5698
 2932WAT      O 9006   4.012   0.402   2.644  0.5697 -0.3506  0.2397
 2932WAT     H1 9007   4.037   0.372   2.731  1.5364  1.9865  0.8473
 2932WAT     H2 9008   3.925   0.438   2.655 -0.5966 -2.7460 -0.4911
 2933WAT      O 9009   2.512   4.411   1.962 -0.0476  0.0539  0.6947
 2933WAT     H1 9010   2.433   4.370   1.927  0.2241 -0.5013  0.7200
 2933WAT     H2 9011   2.564   4.338   1.995  0.3731  0.4369  0.8904
 2934WAT      O 9012   1.209   2.074   4.133  0.6281  0.0710 -0.1741
 2934WAT     H1 9013   1.199   2.165   4.162  1.7830  0.8598 -2.0689
 2934WAT     H2 9014   1.251   2.030   4.206  0.7029  1.2229  0.5072
 2935WAT      O 9015   3.974   2.911   1.207  0.0833 -0.1008 -0.5848
 2935WAT     H1 9016   4.036   2.938   1.139 -0.6601 -1.3470 -1.7992
 2935WAT     H2 9017   3.986   2.816   1.214 -1.1770 -0.2523 -0.3334
 2936WAT      O 9018   4.413   2.599   2.955 -1.1161 -0.3556  0.0410
 2936WAT     H1 9019   4.370   2.544   3.020 -4.6251  2.3634  0.3236
 2936WAT     H2 9020   4.465   2.660   3.006  0.4213 -1.4771 -0.1152
 2937WAT      O 9021   3.146   0.762   5.300 -0.2860 -0.1197  0.2086
 2937WAT     H1 9022   3.149   0.671   5.329  1.8222  0.0840  0.7277
 2937WAT     H2 9023   3.166   0.758   5.207  0.8114 -0.1260  0.4333
 2938WAT      O 9024   4.334   0.183   1.624  0.3383  0.4284  0.1030
 2938WAT     H1 9025   4.295   0.144   1.546  1.2268 -0.1527 -0.0563
 2938WAT     H2 9026   4.426   0.196   1.601  0.4866  0.7679  0.8599
 2939WAT      O 9027   3.070   2.169   3.630 -0.1196 -0.0624 -0.6594
 2939WAT     H1 9028   3.144   2.212   3.672 -0.1571  0.8958 -1.5373
 2939WAT     H2 9029   3.105   2.134   3.549 -1.0324  2.3614 -2.2149
 2940WAT      O 9030   1.906   1.095   1.182  0.4965  0.1555  0.0658
 2940WAT     H1 9031   1.969   1.074   1.114  0.4562  2.5081 -0.7800
 2940WAT     H2 9032   1.955   1.083   1.264  1.2053 -0.6045 -0.4520
 2941WAT      O 9033   0.998   1.515   3.128  0.4743 -0.9770 -0.0530
 2941WAT     H1 9034   1.055   1.457   3.077  0.2458 -0.7535 -0.5652
 2941WAT     H2 9035   1.036   1.515   3.216  1.6617 -0.3033 -0.5475
 2942WAT      O 9036   4.438   0.423   1.450  0.0084  0.0096  0.2409
 2942WAT     H1 9037   4.510   0.393   1.506 -0.0958 -1.2739 -0.2668
 2942WAT     H2 9038   4.447   0.370   1.370 -2.5604 -1.5250  0.8478
 2943WAT      O 9039   1.966   3.716   3.567  0.5735 -0.1574 -0.1158
 2943WAT     H1 9040   1.947   3.806   3.543  0.3705 -0.1528  0.0577
 2943WAT     H2 9041   2.039   3.723   3.629  0.3621 -0.0877  0.1306
 2944WAT      O 9042   1.485   4.054   0.756 -0.0356  0.1324 -0.6249
 2944WAT     H1 9043   1.473   4.141   0.718  1.6445  1.9116  2.4592
 2944WAT     H2 9044   1.427   4.053   0.832  2.0746 -0.1656  1.0779
 2945WAT      O 9045   2.852   3.398   0.743 -0.0047  0.1506  0.0532
 2945WAT     H1 9046   2.875   3.372   0.832 -1.0159 -0.7263  0.0841
 2945WAT     H2 9047   2.758   3.417   0.747  0.2993  1.8577 -0.4479
 2946WAT      O 9048   3.350   3.287   2.145  0.6302  0.0925 -0.1792
 2946WAT     H1 9049   3.259   3.262   2.159  0.9773 -0.9633  0.3212
 2946WAT     H2 9050   3.347   3.382   2.132 -0.5232  0.0879 -0.0593
 2947WAT      O 9051   3.076   1.607   0.680  0.1056  0.3259 -0.0107
 2947WAT     H1 9052   2.993   1.650   0.658  0.8567  1.7186 -0.2951
 2947WAT     H2 9053   3.110   1.657   0.753  0.7179 -0.2056  0.0754
 2948WAT      O 9054   4.454   4.668   1.992  0.0456 -0.2644 -0.4604
 2948WAT     H1 9055   4.488   4.755   2.009  0.2404 -0.7247  1.9298
 2948WAT     H2 9056   4.531   4.617   1.965  0.2244 -0.0177 -0.4198
 2949WAT      O 9057   0.606   3.213   1.428 -0.3206  0.3708  0.3156
 2949WAT     H1 9058   0.590   3.121   1.446 -0.6489  0.1489 -1.0053
 2949WAT     H2 9059   0.699   3.226   1.444 -0.0692 -0.4322 -0.4499
 2950WAT      O 9060   3.975   4.252   1.540  0.0152  0.3979 -0.4327
 2950WAT     H1 9061   3.924   4.310   1.484 -2.4252  0.4829  1.6976
 2950WAT     H2 9062   3.986   4.172   1.488  0.6104  1.5465 -2.1677
 2951WAT      O 9063   4.412   0.885   2.318  0.5713  0.2989 -0.4521
 2951WAT     H1 9064   4.457   0.808   2.354 -0.5004 -0.0919  0.0904
 2951WAT     H2 9065   4.345   0.849   2.261 -0.4773  0.7879  0.4421
 2952WAT      O 9066   0.048   1.701   4.218 -0.0589  0.3095 -0.1847
 2952WAT     H1 9067   0.040   1.688   4.123  0.0465 -1.1887 -0.0061
 2952WAT     H2 9068   0.085   1.789   4.226  2.8659 -0.6308 -1.6725
 2953WAT      O 9069   2.464   2.071   2.084  0.2024 -0.0593 -0.0174
 2953WAT     H1 9070   2.435   2.162   2.092 -0.6309 -0.3940  1.1084
 2953WAT     H2 9071   2.472   2.041   2.175  1.6856 -0.7441 -0.3517
 2954WAT      O 9072   0.071   4.430   5.182  0.3593 -0.0196 -0.3216
 2954WAT     H1 9073   0.146   4.384   5.220  1.2698  0.6520 -1.2631
 2954WAT     H2 9074   0.038   4.485   5.254  0.4835 -0.6493  0.2242
 2955WAT      O 9075   0.543   0.552   0.328 -0.0442 -0.1937  0.3199
 2955WAT     H1 9076   0.477   0.500   0.374  0.2602 -1.8760 -1.0483
 2955WAT     H2 9077   0.623   0.499   0.333  0.7975  1.0434  0.5097
 2956WAT      O 9078   3.795   3.458   4.662 -0.3822 -0.2586 -0.0300
 2956WAT     H1 9079   3.714   3.508   4.650 -0.1714 -0.4802 -2.9334
 2956WAT     H2 9080   3.768   3.380   4.711 -1.2581  1.1921  1.9468
 2957WAT      O 9081   3.894   5.166   0.105 -0.1459  0.8830  0.4682
 2957WAT     H1 9082   3.867   5.182   0.014  5.1035  1.2330 -1.3515
 2957WAT     H2 9083   3.887   5.071   0.115 -0.9129  0.8498 -0.1992
 2958WAT      O 9084   2.273   3.189   3.540  0.7172  0.1298 -0.0069
 2958WAT     H1 9085   2.282   3.119   3.605 -0.4563 -0.3854 -0.3819
 2958WAT     H2 9086   2.271   3.144   3.456 -2.0154  0.3791 -0.1678
 2959WAT      O 9087   1.661   5.035   3.916 -0.1255  0.3274  0.1210
 2959WAT     H1 9088   1.648   5.049   3.822  0.5810  1.7160  0.2046
 2959WAT     H2 9089   1.739   4.981   3.923 -1.2622 -1.4521 -0.1154
 2960WAT      O 9090   3.146   0.418   4.580  0.7194 -0.1780  0.0137
 2960WAT     H1 9091   3.066   0.448   4.623 -0.4934  0.3069 -2.4063
 2960WAT     H2 9092   3.216   0.466   4.624 -0.5983  1.4659  0.4184
 2961WAT      O 9093   1.067   1.924   3.425 -0.3788  0.3251 -0.2353
 2961WAT     H1 9094   1.099   2.012   3.444 -0.1071  0.2645 -0.3917
 2961WAT     H2 9095   1.067   1.879   3.510  0.6088  0.1227 -0.3261
 2962WAT      O 9096   1.103   2.228   2.972  0.0302  0.2196  0.1354
 2962WAT     H1 9097   1.154   2.286   3.028  0.6050  0.5350 -0.7028
 2962WAT     H2 9098   1.058   2.170   3.033  0.4237  0.7403  0.9344
 2963WAT      O 9099   1.748   1.335   3.418  0.4628  0.2049  0.0001
 2963WAT     H1 9100   1.829   1.387   3.412  0.2185  0.4579 -1.4369
 2963WAT     H2 9101   1.776   1.245   3.402  0.5654  0.1953  0.2325
 2964WAT      O 9102   1.174   2.135   1.373  0.6357 -0.3244  0.6216
 2964WAT     H1 9103   1.226   2.209   1.342  0.5951  0.3183  2.0380
 2964WAT     H2 9104   1.108   2.174   1.430  1.9239 -1.5716  3.1349
 2965WAT      O 9105   0.190   2.514   3.321 -0.1467  0.1533  0.3156
 2965WAT     H1 9106   0.184   2.511   3.416 -0.3142 -1.3037  0.2768
 2965WAT     H2 9107   0.169   2.605   3.299 -1.2846  0.2315  1.5886
 2966WAT      O 9108   1.030   4.916   0.350  0.1733 -0.3321  0.0365
 2966WAT     H1 9109   0.971   4.845   0.375  0.5284 -0.4545  0.5480
 2966WAT     H2 9110   0.973   4.982   0.310 -0.2213 -0.7120 -0.0261
 2967WAT      O 9111   0.285   2.450   0.096  0.8587  0.1184  0.1692
 2967WAT     H1 9112   0.253   2.536   0.125 -0.4784 -0.7892  1.5661
 2967WAT     H2 9113   0.342   2.421   0.167 -1.5878 -1.6613  1.6092
 2968WAT      O 9114   3.986   0.160   3.205 -0.2610  0.4142 -0.6122
 2968WAT     H1 9115   4.072   0.182   3.169 -1.1106  0.3848 -2.8024
 2968WAT     H2 9116   3.925   0.176   3.133 -1.8217 -1.7514  0.1314
 2969WAT      O 9117   4.057   0.736   0.900  0.4444  0.2500  0.5031
 2969WAT     H1 9118   4.139   0.686   0.900  0.9953  1.0675 -1.2418
 2969WAT     H2 9119   4.050   0.769   0.989  1.0847 -1.2757  1.1700
 2970WAT      O 9120   2.057   0.172   3.880 -0.0452 -0.0122  0.3653
 2970WAT     H1 9121   2.126   0.236   3.862 -1.5060  1.6407  0.3591
 2970WAT     H2 9122   2.054   0.167   3.976  0.6826 -0.7947  0.3558
 2971WAT      O 9123   1.615   2.380   2.287 -0.0382 -0.4162  0.2841
 2971WAT     H1 9124   1.589   2.472   2.294  3.5541  0.6140  1.9682
 2971WAT     H2 9125   1.592   2.342   2.371 -0.2514 -0.7249  0.0908
 2972WAT      O 9126   3.120   1.832   2.499  0.0897 -0.4015  0.3187
 2972WAT     H1 9127   3.183   1.894   2.462  0.5558 -1.1067 -0.0667
 2972WAT     H2 9128   3.140   1.749   2.458  1.1139 -1.4007  2.6533
 2973WAT      O 9129   1.813   4.109   4.236  0.8140  0.0615 -0.4828
 2973WAT     H1 9130   1.724   4.078   4.253  0.5645  0.1385 -1.5756
 2973WAT     H2 9131   1.818   4.116   4.141  1.9539  0.1751 -0.4271
 2974WAT      O 9132   4.307   1.781   2.461  0.4196 -0.6233  0.3020
 2974WAT     H1 9133   4.387   1.730   2.446 -0.4252 -2.0950  0.6284
 2974WAT     H2 9134   4.270   1.744   2.541 -2.1376 -2.0652 -1.4040
 2975WAT      O 9135   0.212   2.705   0.269  0.6457 -0.3082 -0.5070
 2975WAT     H1 9136   0.271   2.764   0.318  1.2168 -0.3877 -1.0881
 2975WAT     H2 9137   0.210   2.625   0.322  0.7629 -0.1700 -0.2880
 2976WAT      O 9138   2.419   3.971   4.787 -0.1356  0.1499 -0.6445
 2976WAT     H1 9139   2.449   3.891   4.745 -0.7740 -0.5025  0.1076
 2976WAT     H2 9140   2.438   3.957   4.880 -0.5658  0.7273 -0.4668
 2977WAT      O 9141   1.929   2.325   3.430 -0.0843  0.3528  0.7773
 2977WAT     H1 9142   1.840   2.302   3.458 -0.8911 -1.5355 -2.7382
 2977WAT     H2 9143   1.927   2.421   3.422 -1.4030  0.4440  1.8764
 2978WAT      O 9144   1.867   0.557   5.300 -0.2584 -0.1777 -0.1501
 2978WAT     H1 9145   1.875   0.642   5.343 -0.3091 -0.6019  0.7263
 2978WAT     H2 9146   1.893   0.573   5.210  0.9042  0.5122  0.2855
 2979WAT      O 9147   4.232   2.474   1.591  0.2448  0.3172 -0.2641
 2979WAT     H1 9148   4.214   2.395   1.642  0.1386  0.5297  0.0341
 2979WAT     H2 9149   4.260   2.442   1.506 -0.5483 -0.0361 -0.4017
 2980WAT      O 9150   3.659   1.690   2.391  0.3038 -0.4620 -0.1763
 2980WAT     H1 9151   3.650   1.784   2.405  1.1443 -0.2412 -1.0868
 2980WAT     H2 9152   3.618   1.674   2.306 -0.7143 -1.0896  0.4034
 2981WAT      O 9153   0.100   0.639   0.933 -0.1168  0.2050  0.1947
 2981WAT     H1 9154   0.178   0.584   0.928 -0.2342  0.1300 -1.1202
 2981WAT     H2 9155   0.070   0.630   1.023  1.6335  0.5750  0.8499
 2982WAT      O 9156   4.246   2.283   3.786  0.2333 -0.1088 -0.4120
 2982WAT     H1 9157   4.329   2.262   3.829 -0.0308 -2.1174 -0.7542
 2982WAT     H2 9158   4.224   2.203   3.737 -0.9174  1.0860 -1.9255
 2983WAT      O 9159   2.589   1.882   1.611  0.1876  0.2492  0.1052
 2983WAT     H1 9160   2.661   1.860   1.552  0.2254  0.5558  0.0348
 2983WAT     H2 9161   2.595   1.817   1.682  0.4813  0.2243  0.0567
 2984WAT      O 9162   0.983   3.022   4.562  0.0709 -0.1669 -0.5998
 2984WAT     H1 9163   0.959   3.094   4.620  0.3991 -0.0045 -0.6647
 2984WAT     H2 9164   0.899   2.987   4.531 -0.1638 -0.9869  0.8541
 2985WAT      O 9165   2.359   2.588   2.879  0.1208  0.2886  0.2218
 2985WAT     H1 9166   2.370   2.634   2.962  1.3076  3.5400 -1.5566
 2985WAT     H2 9167   2.265   2.571   2.873 -0.1512  1.1318  1.6726
 2986WAT      O 9168   2.903   3.129   2.815 -0.2752 -0.0092 -0.3593
 2986WAT     H1 9169   2.902   3.039   2.784 -0.8854  0.0150 -0.4158
 2986WAT     H2 9170   2.828   3.135   2.874  0.3719  0.1729  0.4757
 2987WAT      O 9171   3.099   2.976   4.550 -0.1731 -0.1093  0.2233
 2987WAT     H1 9172   3.156   2.937   4.616  0.1413 -0.2208 -0.1049
 2987WAT     H2 9173   3.083   3.065   4.581  0.3532 -0.0104  0.2242
 2988WAT      O 9174   1.371   1.248   3.090 -0.2419  0.3423 -0.8145
 2988WAT     H1 9175   1.445   1.189   3.073  1.2686  1.1785  2.1452
 2988WAT     H2 9176   1.410   1.335   3.089 -1.2621  0.8384  0.3312
 2989WAT      O 9177   2.982   0.698   3.510 -0.1173  0.5813 -0.0173
 2989WAT     H1 9178   3.040   0.640   3.559 -0.9542  1.1215  1.7210
 2989WAT     H2 9179   2.977   0.659   3.423  1.8054 -0.1732  0.1618
 2990WAT      O 9180   1.238   4.310   4.700  0.1910 -0.0617 -0.1981
 2990WAT     H1 9181   1.155   4.305   4.653  0.9119  0.3615 -1.5635
 2990WAT     H2 9182   1.218   4.279   4.788 -2.4657  4.1375  0.9731
 2991WAT      O 9183   1.349   4.550   4.577 -0.4822  0.2331 -0.0098
 2991WAT     H1 9184   1.338   4.457   4.598  2.1949 -0.0923  0.3796
 2991WAT     H2 9185   1.281   4.569   4.513 -0.8076 -2.1212 -0.4426
 2992WAT      O 9186   0.262   4.339   3.521  0.6112  0.5158 -0.1476
 2992WAT     H1 9187   0.347   4.379   3.539  1.4729 -0.8463 -1.0345
 2992WAT     H2 9188   0.259   4.331   3.426  0.4833 -1.5010 -0.0104
 2993WAT      O 9189   1.293   2.507   3.666 -0.3684 -0.3603 -0.5772
 2993WAT     H1 9190   1.387   2.496   3.654 -0.2702  0.7290 -0.9046
 2993WAT     H2 9191   1.259   2.517   3.577 -0.4738  1.5299 -0.3633
 2994WAT      O 9192   3.063   3.575   3.063 -0.0326 -0.3408  0.0166
 2994WAT     H1 9193   3.000   3.627   3.013 -0.2788 -0.6988 -0.0485
 2994WAT     H2 9194   3.010   3.511   3.110  0.1759  0.1669  0.9667
 2995WAT      O 9195   2.416   2.141   1.274 -0.5593 -0.1169  0.3421
 2995WAT     H1 9196   2.414   2.132   1.370 -2.7019  0.4353  0.3966
 2995WAT     H2 9197   2.445   2.055   1.243 -0.5238 -0.5301  1.4563
 2996WAT      O 9198   0.985   4.620   4.180  0.3999 -0.7027  0.1716
 2996WAT     H1 9199   0.899   4.583   4.157  0.3852  0.6898 -2.4439
 2996WAT     H2 9200   0.972   4.715   4.178  1.6652 -0.4691  1.3638
 2997WAT      O 9201   1.498   4.675   4.895 -0.6451 -0.1070  0.5431
 2997WAT     H1 9202   1.544   4.650   4.976  0.6446  1.8005  0.4537
 2997WAT     H2 9203   1.568   4.680   4.829 -1.0832  1.9266  0.1784
 2998WAT      O 9204   2.715   2.779   3.191 -0.0485  0.3750  0.0266
 2998WAT     H1 9205   2.659   2.702   3.185 -2.3014  1.8979  0.2358
 2998WAT     H2 9206   2.779   2.768   3.121 -1.3459 -0.9177 -1.0058
 2999WAT      O 9207   4.332   4.868   1.355  0.1884 -0.0252 -0.0683
 2999WAT     H1 9208   4.355   4.957   1.329 -0.9293  0.8944  1.9560
 2999WAT     H2 9209   4.415   4.820   1.351  0.9781  1.3232 -0.3104
 3000WAT      O 9210   0.893   4.695   0.385  0.2354 -0.1460 -0.0879
 3000WAT     H1 9211   0.861   4.677   0.473  1.7980 -0.9973  0.3448
 3000WAT     H2 9212   0.847   4.632   0.330  1.5649 -1.7838  0.6111
 3001WAT      O 9213   1.912   4.371   3.796  0.1495 -0.5738  0.2533
 3001WAT     H1 9214   1.871   4.443   3.844  1.4651  0.2162  0.2392
 3001WAT     H2 9215   1.983   4.341   3.854  1.2627 -0.1234 -0.8325
 3002WAT      O 9216   0.070   0.166   2.338  0.0273 -0.3285 -0.0700
 3002WAT     H1 9217   0.066   0.247   2.388 -0.3986 -1.3399  1.5858
 3002WAT     H2 9218   0.162   0.141   2.339 -0.0500 -0.6137  0.6922
 3003WAT      O 9219   3.542   4.466   2.330 -0.4517 -0.5090 -0.2630
 3003WAT     H1 9220   3.610   4.400   2.348 -0.7717 -0.8441 -0.2793
 3003WAT     H2 9221   3.590   4.549   2.325  0.0392 -0.8315 -0.9290
 3004WAT      O 9222   4.105   3.463   4.959 -0.0256  0.5535 -0.3363
 3004WAT     H1 9223   4.061   3.379   4.967  1.9066 -0.4168  0.6332
 3004WAT     H2 9224   4.127   3.470   4.866 -0.9242  0.4082 -0.5688
 3005WAT      O 9225   0.157   1.318   3.322 -0.0979  0.2802 -0.3937
 3005WAT     H1 9226   0.218   1.321   3.248  0.1890 -1.0791 -0.2429
 3005WAT     H2 9227   0.102   1.242   3.305 -0.5632  0.4312  0.3847
 3006WAT      O 9228   1.286   4.875   4.180 -0.1386 -0.6085 -0.0158
 3006WAT     H1 9229   1.286   4.848   4.088 -1.7946  0.3445 -0.3333
 3006WAT     H2 9230   1.196   4.899   4.198  0.2416 -0.3607  1.7627
 3007WAT      O 9231   2.187   4.399   2.240 -0.3110 -0.0318  0.1168
 3007WAT     H1 9232   2.124   4.455   2.285 -0.0686  0.7744 -0.5185
 3007WAT     H2 9233   2.232   4.458   2.179 -1.8421 -1.3381 -2.4924
 3008WAT      O 9234   0.200   3.119   1.522 -0.6198  0.1898 -0.0035
 3008WAT     H1 9235   0.257   3.180   1.475  2.5389  0.0666  3.2438
 3008WAT     H2 9236   0.192   3.155   1.610 -1.0579 -2.5708  1.2196
 3009WAT      O 9237   1.745   2.671   0.749 -0.1841  0.3300  0.0646
 3009WAT     H1 9238   1.699   2.660   0.832  0.6025 -0.8975  0.3646
 3009WAT     H2 9239   1.815   2.734   0.769  0.7462 -0.8583  0.6696
 3010WAT      O 9240   3.774   3.790   4.007  0.3610  0.2272 -0.0275
 3010WAT     H1 9241   3.822   3.798   4.090  1.4331  1.9235 -0.7650
 3010WAT     H2 9242   3.842   3.794   3.940 -0.6936  1.2245 -1.0568
 3011WAT      O 9243   0.387   1.845   4.470 -0.0868 -0.1989 -0.4724
 3011WAT     H1 9244   0.348   1.787   4.536  0.8011  0.4654  0.6820
 3011WAT     H2 9245   0.421   1.919   4.521  3.3499 -1.0701 -1.2600
 3012WAT      O 9246   4.067   4.189   2.304  0.0897 -0.1195  0.1691
 3012WAT     H1 9247   4.052   4.252   2.375 -3.0744 -1.2635  0.6620
 3012WAT     H2 9248   4.160   4.166   2.313  0.1996  0.9426  2.9634
 3013WAT      O 9249   2.394   1.407   0.789  0.7384 -0.0176 -0.2100
 3013WAT     H1 9250   2.326   1.455   0.741  1.1940  0.7822 -0.0581
 3013WAT     H2 9251   2.399   1.322   0.744  0.3419  0.2899 -0.8450
 3014WAT      O 9252   1.015   0.913   4.516 -0.0024 -0.1679 -0.3119
 3014WAT     H1 9253   0.927   0.888   4.489  0.2106 -1.9827  0.5424
 3014WAT     H2 9254   1.002   0.982   4.581 -0.8057 -0.5524 -0.0594
 3015WAT      O 9255   4.170   2.248   2.403 -0.0898  0.3545  0.6528
 3015WAT     H1 9256   4.100   2.212   2.456 -1.0659 -1.8141 -1.8936
 3015WAT     H2 9257   4.234   2.178   2.395  0.3438  0.8416 -0.4623
 3016WAT      O 9258   2.000   5.011   3.596 -0.2936 -0.4930  0.0869
 3016WAT     H1 9259   2.005   4.932   3.542  1.5625  0.5511 -1.4055
 3016WAT     H2 9260   1.969   5.079   3.536  0.3159  0.3740  0.7246
 3017WAT      O 9261   3.139   1.907   4.372 -0.1868 -0.5731 -0.2832
 3017WAT     H1 9262   3.215   1.948   4.330 -0.7721 -0.5214 -1.3468
 3017WAT     H2 9263   3.120   1.831   4.317 -0.9489 -0.5386 -0.0762
 3018WAT      O 9264   3.725   2.557   4.206 -0.2871  0.0872  0.2213
 3018WAT     H1 9265   3.709   2.495   4.135 -1.2420  1.0582 -0.4506
 3018WAT     H2 9266   3.804   2.524   4.250 -0.7424 -1.5584 -0.1276
 3019WAT      O 9267   1.689   4.753   2.001  0.1079  0.7518  0.1162
 3019WAT     H1 9268   1.653   4.691   1.937  2.0547  0.2785 -0.5846
 3019WAT     H2 9269   1.687   4.705   2.084  0.9651 -0.0292 -0.2954
 3020WAT      O 9270   1.112   4.542   4.415  0.1567 -0.6099  0.5249
 3020WAT     H1 9271   1.059   4.579   4.344 -0.3448 -0.2575  1.0737
 3020WAT     H2 9272   1.140   4.457   4.382 -1.2357 -1.0615  0.4455
 3021WAT      O 9273   2.839   0.017   3.353 -0.1473 -0.2630 -0.2122
 3021WAT     H1 9274   2.846   0.056   3.439 -0.5283  0.7655 -0.6346
 3021WAT     H2 9275   2.797  -0.068   3.368 -4.2749  1.6209  0.2238
 3022WAT      O 9276   2.624   3.981   1.015 -0.2261 -0.1460 -0.2287
 3022WAT     H1 9277   2.626   3.946   0.925 -0.7171  1.9254 -1.1026
 3022WAT     H2 9278   2.619   4.076   1.003  2.0523  0.3355  2.0234
 3023WAT      O 9279   2.643   3.220   3.563 -0.0428  0.3503 -0.4492
 3023WAT     H1 9280   2.631   3.156   3.492  0.4641  0.0562 -0.2789
 3023WAT     H2 9281   2.571   3.282   3.552 -1.3399 -0.9637  0.1641
 3024WAT      O 9282   1.390   1.421   4.184  0.5700 -0.0502  0.2695
 3024WAT     H1 9283   1.313   1.473   4.161  0.0331 -0.5497  0.8680
 3024WAT     H2 9284   1.457   1.447   4.121 -0.2139  0.0954 -0.5236
 3025WAT      O 9285   0.921   1.118   1.082  0.0712 -0.2833  0.6943
 3025WAT     H1 9286   0.856   1.068   1.033 -0.7981  0.4015  1.1261
 3025WAT     H2 9287   0.992   1.133   1.020 -0.2681 -0.8752  0.1569
 3026WAT      O 9288   3.198   4.915   3.297  0.6297  0.1764  0.1475
 3026WAT     H1 9289   3.227   4.884   3.383  1.9919  0.0036 -0.3492
 3026WAT     H2 9290   3.263   4.879   3.236  1.4823  2.7893 -0.6271
 3027WAT      O 9291   0.064   0.053   3.492 -0.2446  0.1272 -0.3982
 3027WAT     H1 9292   0.042   0.146   3.495  0.2721  0.2494 -0.0264
 3027WAT     H2 9293   0.118   0.043   3.414 -2.7666 -0.4656 -2.1869
 3028WAT      O 9294   0.384   1.619   2.280  0.1809 -0.4942 -0.1013
 3028WAT     H1 9295   0.342   1.676   2.344  0.6205 -0.7646  0.4357
 3028WAT     H2 9296   0.312   1.576   2.235 -0.1913  1.1705 -1.1639
 3029WAT      O 9297   3.287   3.542   2.084 -0.1505  0.6807  0.5104
 3029WAT     H1 9298   3.243   3.585   2.010  0.6672  1.4704  0.4739
 3029WAT     H2 9299   3.261   3.593   2.160  0.6674  1.1246  0.4940
 3030WAT      O 9300   0.349   3.770   1.177  0.4304  0.8534 -0.1023
 3030WAT     H1 9301   0.376   3.691   1.225 -2.6774  0.9357  2.0780
 3030WAT     H2 9302   0.399   3.841   1.218  1.1283  0.3627 -0.0917
 3031WAT      O 9303   2.737   2.120   1.232  0.1994 -0.3087  0.0098
 3031WAT     H1 9304   2.659   2.067   1.216 -0.7416  0.4702  1.7794
 3031WAT     H2 9305   2.764   2.150   1.145 -0.5756 -1.8018 -0.7830
 3032WAT      O 9306   0.967   3.218   0.543  0.2563 -0.4238  0.3217
 3032WAT     H1 9307   0.883   3.217   0.498 -0.7751  2.1362  1.9693
 3032WAT     H2 9308   0.948   3.193   0.633  0.8412  1.8364  1.1601
 3033WAT      O 9309   3.126   5.104   1.176  0.5618 -0.4837  0.5120
 3033WAT     H1 9310   3.043   5.073   1.140  0.9828 -2.0086  0.7888
 3033WAT     H2 9311   3.123   5.199   1.166 -1.5849 -0.4234  1.3095
 3034WAT      O 9312   4.456   1.098   4.526 -0.3680 -0.2314 -0.8222
 3034WAT     H1 9313   4.539   1.077   4.482 -0.4208 -1.9508 -0.1882
 3034WAT     H2 9314   4.438   1.189   4.502  2.9941  1.0969  0.9879
 3035WAT      O 9315   3.627   2.591   2.318  0.4400  0.4751  0.0344
 3035WAT     H1 9316   3.667   2.505   2.304  0.3846  0.4295  0.1583
 3035WAT     H2 9317   3.536   2.572   2.341  0.0846  0.6131 -1.2121
 3036WAT      O 9318   1.656   3.530   5.155  0.0269 -0.5056 -0.6183
 3036WAT     H1 9319   1.612   3.611   5.130 -0.3307 -0.1440  1.1224
 3036WAT     H2 9320   1.587   3.464   5.155 -0.0052 -0.4717 -0.4196
 3037WAT      O 9321   0.752   2.284   1.537 -0.0815  0.1533  0.3868
 3037WAT     H1 9322   0.787   2.201   1.506 -0.2945 -0.5423  1.9374
 3037WAT     H2 9323   0.704   2.320   1.462  1.3501 -0.3280 -0.8070
 3038WAT      O 9324   3.902   4.345   0.203  0.2553 -0.5143  0.2319
 3038WAT     H1 9325   3.972   4.369   0.263  1.2364  0.0659 -1.1005
 3038WAT     H2 9326   3.865   4.428   0.175  0.2560 -0.7507 -0.4844
 3039WAT      O 9327   4.415   0.959   1.222  0.4733 -0.2880  0.5430
 3039WAT     H1 9328   4.511   0.954   1.225  0.4006 -2.6100  1.0225
 3039WAT     H2 9329   4.392   0.942   1.131  0.5126  2.4858 -0.0789
 3040WAT      O 9330   3.726   1.953   2.895  0.0972 -0.2582  0.0272
 3040WAT     H1 9331   3.713   1.980   2.804 -0.9545 -3.5231 -0.9148
 3040WAT     H2 9332   3.818   1.931   2.901  0.0686 -0.5081 -0.4087
 3041WAT      O 9333   0.078   5.048   1.465  0.2045 -0.3914 -0.2082
 3041WAT     H1 9334   0.036   5.029   1.549 -0.6843  1.7485 -0.1014
 3041WAT     H2 9335   0.116   4.964   1.438 -0.2031 -1.3311  1.9053
 3042WAT      O 9336   0.940   1.676   1.023  0.5948  0.4181 -0.2906
 3042WAT     H1 9337   1.035   1.668   1.037  0.7938 -1.2517 -2.2410
 3042WAT     H2 9338   0.905   1.694   1.111  2.6148  0.1865  0.6290
 3043WAT      O 9339   2.284   0.741   1.377  0.4576 -0.4976 -0.0101
 3043WAT     H1 9340   2.346   0.673   1.352 -0.3664 -1.5939  0.8481
 3043WAT     H2 9341   2.236   0.705   1.451 -0.6447  0.6501 -0.1212
 3044WAT      O 9342   0.762   2.608   3.036 -0.0367 -0.2427  0.3653
 3044WAT     H1 9343   0.811   2.598   2.955  0.4836  2.1492  0.3030
 3044WAT     H2 9344   0.717   2.524   3.048  1.4756 -1.3554 -1.2940
 3045WAT      O 9345   3.360   4.909   3.536 -0.6250 -0.3614 -0.9102
 3045WAT     H1 9346   3.444   4.890   3.577 -1.2883  0.5405  0.9722
 3045WAT     H2 9347   3.379   4.977   3.471  0.1198 -0.2759 -0.6056
 3046WAT      O 9348   0.637   0.825   1.692 -0.3466 -0.1844  0.3046
 3046WAT     H1 9349   0.588   0.801   1.613 -1.9061  2.7875  0.2231
 3046WAT     H2 9350   0.577   0.807   1.764  0.1573 -0.6133  0.6263
 3047WAT      O 9351   4.464   3.462   2.154  0.1831  0.3901 -0.4098
 3047WAT     H1 9352   4.542   3.466   2.099 -0.8045 -0.3075 -1.9217
 3047WAT     H2 9353   4.473   3.379   2.202 -0.7257 -0.9443 -2.3965
 3048WAT      O 9354   2.033   4.637   4.842 -0.0385  0.3575 -0.1598
 3048WAT     H1 9355   1.956   4.634   4.786 -1.4553  0.1809  1.7229
 3048WAT     H2 9356   2.045   4.546   4.871  0.4392  0.5104  0.1396
 3049WAT      O 9357   0.317   3.436   3.265 -0.1571 -0.9183  0.3453
 3049WAT     H1 9358   0.398   3.431   3.214 -0.3852 -0.9539 -0.0215
 3049WAT     H2 9359   0.340   3.402   3.351  0.5483  0.3163  0.6634
 3050WAT      O 9360   2.569   0.823   3.724  0.2873  0.1936  0.2238
 3050WAT     H1 9361   2.613   0.764   3.786 -0.8071 -0.6189  0.2644
 3050WAT     H2 9362   2.621   0.817   3.644 -0.4061 -1.7379 -0.1405
 3051WAT      O 9363   3.282   3.324   0.395  0.2261  0.0939  0.3805
 3051WAT     H1 9364   3.254   3.335   0.485 -0.4063  1.2881  0.0611
 3051WAT     H2 9365   3.375   3.348   0.395  0.3672 -0.4453  0.8032
 3052WAT      O 9366   1.940   3.797   4.968 -0.4707  0.2411  0.1763
 3052WAT     H1 9367   1.892   3.730   4.920  1.8035  0.3840 -2.5076
 3052WAT     H2 9368   1.991   3.844   4.902  0.6154  2.4429  2.3756
 3053WAT      O 9369   3.860   3.581   4.387 -0.0433 -0.2423  0.0889
 3053WAT     H1 9370   3.858   3.548   4.477 -1.7552 -1.1272 -0.2207
 3053WAT     H2 9371   3.793   3.529   4.342 -1.2886  2.1752 -0.9959
 3054WAT      O 9372   1.283   3.348   3.382 -0.1744 -0.3791 -0.1692
 3054WAT     H1 9373   1.239   3.266   3.404 -0.2170 -0.3405 -0.1115
 3054WAT     H2 9374   1.370   3.322   3.354  0.0243 -0.3988  0.4464
 3055WAT      O 9375   4.294   0.562   0.913  0.2900  0.1306 -0.0997
 3055WAT     H1 9376   4.335   0.537   0.830  0.6931  1.2165 -0.2463
 3055WAT     H2 9377   4.354   0.530   0.980  0.2549 -0.2378 -0.2410
 3056WAT      O 9378   0.947   2.628   0.778 -0.1619 -0.2358 -0.2306
 3056WAT     H1 9379   0.866   2.664   0.815  0.2094 -0.8227  1.2340
 3056WAT     H2 9380   0.925   2.537   0.756  0.0975 -0.4157  0.2298
 3057WAT      O 9381   1.338   3.891   2.168  0.2605  0.1917 -0.1438
 3057WAT     H1 9382   1.298   3.813   2.206 -0.1670 -0.1126 -1.2107
 3057WAT     H2 9383   1.432   3.879   2.182  0.0667  0.8354  2.2210
 3058WAT      O 9384   0.690   1.613   4.177  0.1666  0.0106 -0.1054
 3058WAT     H1 9385   0.653   1.549   4.117  1.4050 -1.6901  0.8528
 3058WAT     H2 9386   0.615   1.665   4.206 -0.7291 -0.4064 -1.5981
 3059WAT      O 9387   3.097   2.713   2.428 -0.4657  0.4153  0.1951
 3059WAT     H1 9388   3.119   2.689   2.518 -1.0715 -0.2988  0.1626
 3059WAT     H2 9389   3.016   2.666   2.410 -0.3578  0.5623 -0.7226
 3060WAT      O 9390   3.370   2.224   5.045 -0.1904  0.2843  0.5410
 3060WAT     H1 9391   3.358   2.251   5.136  3.1336 -1.8805  1.8074
 3060WAT     H2 9392   3.338   2.134   5.042 -3.0206  1.2238 -1.3380
 3061WAT      O 9393   3.774   3.892   4.873  0.2898 -0.0214  0.3983
 3061WAT     H1 9394   3.762   3.965   4.934  0.1870  1.0820 -0.8938
 3061WAT     H2 9395   3.868   3.872   4.876  0.3148  0.1579  0.7619
 3062WAT      O 9396   4.508   0.933   4.248  0.7659  0.8936  0.0886
 3062WAT     H1 9397   4.437   0.949   4.185  0.4147  0.4802  0.3779
 3062WAT     H2 9398   4.463   0.912   4.330  1.1846 -1.2473 -0.1827
 3063WAT      O 9399   1.108   3.860   5.009 -0.3088  0.5280 -0.8676
 3063WAT     H1 9400   1.170   3.929   5.031 -0.6209  1.1329 -1.7978
 3063WAT     H2 9401   1.103   3.805   5.087  0.3022  1.2935 -0.2817
 3064WAT      O 9402   3.277   4.999   4.641 -0.1113  0.3506 -0.0955
 3064WAT     H1 9403   3.272   4.904   4.646  4.0602 -0.0246  0.6889
 3064WAT     H2 9404   3.368   5.017   4.616 -0.6768  4.1548 -0.0478
 3065WAT      O 9405   3.128   0.507   1.007  0.3738  0.1491  0.5072
 3065WAT     H1 9406   3.111   0.599   1.029 -1.2365  0.5841 -2.1477
 3065WAT     H2 9407   3.194   0.510   0.938 -1.8273 -0.3747 -1.7709
 3066WAT      O 9408   1.430   1.065   3.690 -0.2119  0.3126 -0.0626
 3066WAT     H1 9409   1.358   1.010   3.722 -0.0798  0.0020 -0.2932
 3066WAT     H2 9410   1.386   1.134   3.640 -0.2752 -1.0039 -1.9170
 3067WAT      O 9411   0.381   4.050   3.412 -0.6358  0.2148 -0.2950
 3067WAT     H1 9412   0.346   4.107   3.481 -2.1793 -0.9615 -0.0495
 3067WAT     H2 9413   0.306   4.032   3.356  0.2598 -0.0830 -1.4369
 3068WAT      O 9414   0.215   2.487   0.421 -0.2987  0.2262  0.4627
 3068WAT     H1 9415   0.188   2.397   0.408  1.5784 -0.0978 -1.9695
 3068WAT     H2 9416   0.171   2.515   0.501 -2.5236 -2.1740  0.1715
 3069WAT      O 9417   2.047   3.310   2.605  0.0551  0.2787  0.1321
 3069WAT     H1 9418   2.108   3.238   2.588 -1.2952 -0.5574 -1.5445
 3069WAT     H2 9419   2.033   3.350   2.519 -1.0669  1.0133  0.6271
 3070WAT      O 9420   1.210   0.540   2.299 -0.0837  0.4501  0.6986
 3070WAT     H1 9421   1.138   0.504   2.350  1.8332 -1.0762  2.4957
 3070WAT     H2 9422   1.289   0.513   2.346  1.7275  1.1758 -1.7221
 3071WAT      O 9423   4.194   3.912   2.511  0.4637 -0.1675 -0.0509
 3071WAT     H1 9424   4.138   3.854   2.561  0.7546 -0.0518  0.4154
 3071WAT     H2 9425   4.218   3.861   2.433 -1.0149  0.1092 -0.7233
 3072WAT      O 9426   4.132   1.397   0.345  0.1697  0.2338 -0.7197
 3072WAT     H1 9427   4.171   1.363   0.265 -0.0171 -1.8368  0.0216
 3072WAT     H2 9428   4.086   1.323   0.384 -0.4934  1.4016  0.8723
 3073WAT      O 9429   0.171   4.510   1.939 -0.1801 -0.6482  0.6129
 3073WAT     H1 9430   0.244   4.486   1.882 -0.0924  0.0127  0.4432
 3073WAT     H2 9431   0.212   4.527   2.024  0.3889  2.9723 -0.2371
 3074WAT      O 9432   0.905   3.056   3.697 -0.0722  0.7022 -0.6262
 3074WAT     H1 9433   0.932   3.007   3.619  1.4926 -0.3163  0.4895
 3074WAT     H2 9434   0.816   3.025   3.714 -0.0229  0.0977 -1.3704
 3075WAT      O 9435   3.351   2.019   0.958 -1.2049  0.4541 -0.2891
 3075WAT     H1 9436   3.320   2.092   0.905 -1.5535  2.6189  2.6228
 3075WAT     H2 9437   3.445   2.016   0.942 -1.1316  1.8079 -0.2312
 3076WAT      O 9438   0.951   2.496   3.543  0.1167  0.2357 -0.7952
 3076WAT     H1 9439   0.857   2.497   3.526 -0.0739 -0.0227  0.1889
 3076WAT     H2 9440   0.959   2.464   3.633  1.2010 -0.6987 -1.2001
 3077WAT      O 9441   2.334   0.195   0.233 -0.5708 -0.5610 -0.2673
 3077WAT     H1 9442   2.398   0.215   0.165 -1.9719  2.7360 -0.8166
 3077WAT     H2 9443   2.252   0.184   0.187 -1.4125  0.9869  0.7752
 3078WAT      O 9444   3.545   0.281   3.149 -0.2166  0.3334 -0.0604
 3078WAT     H1 9445   3.457   0.248   3.131  0.1054  0.5155 -2.2437
 3078WAT     H2 9446   3.596   0.254   3.073  0.8723  2.9134 -0.3205
 3079WAT      O 9447   0.192   4.217   4.126 -0.5096  0.1160  0.0556
 3079WAT     H1 9448   0.099   4.197   4.114 -0.7835  0.3942  1.4889
 3079WAT     H2 9449   0.229   4.139   4.168 -0.2367  0.2383  0.0456
 3080WAT      O 9450   2.907   2.575   0.223 -0.5965  0.0964  0.4071
 3080WAT     H1 9451   2.879   2.529   0.144 -0.5876  1.7817 -0.6149
 3080WAT     H2 9452   2.999   2.549   0.234 -0.9574 -1.1501  0.6235
 3081WAT      O 9453   0.321   2.473   1.945  0.3900 -0.4716 -1.4791
 3081WAT     H1 9454   0.329   2.407   1.876 -2.9370 -2.7349  0.0268
 3081WAT     H2 9455   0.237   2.515   1.928 -0.5099 -1.0804  1.1061
 3082WAT      O 9456   0.400   5.027   0.162 -0.6682  0.2695 -0.3124
 3082WAT     H1 9457   0.364   5.015   0.250 -1.3927 -1.4176 -0.8118
 3082WAT     H2 9458   0.489   4.993   0.168 -1.1363 -1.0477 -0.5196
 3083WAT      O 9459   2.400   2.747   0.682  0.0650 -0.2924 -0.4480
 3083WAT     H1 9460   2.476   2.724   0.628 -0.0617 -1.9110 -0.0019
 3083WAT     H2 9461   2.438   2.790   0.758  0.6000 -1.4024 -0.0598
 3084WAT      O 9462   1.920   4.131   4.494  0.3359 -0.5929  0.2152
 3084WAT     H1 9463   1.845   4.164   4.544  1.1968  1.2343  0.3754
 3084WAT     H2 9464   1.891   4.131   4.403  0.2947  0.6041  0.2201
 3085WAT      O 9465   3.635   1.750   3.179  0.7495  0.7271  0.1114
 3085WAT     H1 9466   3.683   1.672   3.208  0.2992  0.9332  1.5179
 3085WAT     H2 9467   3.634   1.744   3.084  2.0418 -0.1885  0.1247
 3086WAT      O 9468   2.525   0.379   1.177 -0.4227  0.0637 -0.5764
 3086WAT     H1 9469   2.545   0.464   1.136  2.3838 -0.4228 -0.3994
 3086WAT     H2 9470   2.496   0.401   1.265 -1.4815  0.8779 -1.0988
 3087WAT      O 9471   3.470   2.919   3.479  0.1993  0.0339 -0.3969
 3087WAT     H1 9472   3.477   2.826   3.505 -2.1038  0.1966  1.1417
 3087WAT     H2 9473   3.408   2.919   3.407 -0.3222  0.4337  0.0478
 3088WAT      O 9474   1.159   4.174   0.607  0.8533 -0.8346 -0.2856
 3088WAT     H1 9475   1.185   4.225   0.530  0.6868  1.2350  0.9432
 3088WAT     H2 9476   1.063   4.179   0.607  0.8539  2.1603  1.7851
 3089WAT      O 9477   0.374   1.661   1.806  0.1668 -0.1118 -0.8843
 3089WAT     H1 9478   0.418   1.670   1.890 -1.4364 -0.0371 -0.0232
 3089WAT     H2 9479   0.354   1.750   1.779  0.1107 -0.1680 -1.0313
 3090WAT      O 9480   2.122   2.642   4.276  0.0705 -0.4787 -0.3899
 3090WAT     H1 9481   2.217   2.629   4.285  0.2385  0.2154 -1.0669
 3090WAT     H2 9482   2.085   2.554   4.283  0.8218 -0.8341 -0.7690
 3091WAT      O 9483   2.136   0.926   2.899 -0.3094  0.2547 -0.2720
 3091WAT     H1 9484   2.121   0.933   2.993 -0.1637  0.3025 -0.2521
 3091WAT     H2 9485   2.109   0.837   2.876 -1.2134  0.5321 -0.3432
 3092WAT      O 9486   3.679   4.540   3.782 -0.2107  0.6364  0.3212
 3092WAT     H1 9487   3.687   4.546   3.877  0.3397 -0.0930  0.3272
 3092WAT     H2 9488   3.617   4.468   3.768  1.3665 -0.7187  0.1068
 3093WAT      O 9489   1.627   2.908   3.139 -0.3560  0.6022 -0.2097
 3093WAT     H1 9490   1.667   2.916   3.053  0.6472 -0.1405  0.1730
 3093WAT     H2 9491   1.534   2.925   3.124  0.1756  3.2522 -0.9791
 3094WAT      O 9492   4.411   1.932   3.250  0.1273 -0.3791  0.0185
 3094WAT     H1 9493   4.411   2.025   3.273 -0.4633 -0.2588 -0.4465
 3094WAT     H2 9494   4.502   1.905   3.260  0.4718  0.4683 -0.7215
 3095WAT      O 9495   0.803   2.284   2.325 -0.4985  0.3553 -0.0380
 3095WAT     H1 9496   0.839   2.199   2.299  1.3308  0.9908  0.3336
 3095WAT     H2 9497   0.858   2.348   2.280 -1.3077  1.3694  0.3859
 3096WAT      O 9498   4.068   1.505   2.416 -0.7286  0.2288 -0.3822
 3096WAT     H1 9499   4.141   1.545   2.464 -0.4259  0.7583 -1.2625
 3096WAT     H2 9500   4.071   1.413   2.440 -1.0161  0.5816  1.1637
 3097WAT      O 9501   4.427   3.554   1.730  0.1935 -0.1992  0.2925
 3097WAT     H1 9502   4.378   3.499   1.668  1.3921  1.2149 -2.0393
 3097WAT     H2 9503   4.494   3.596   1.677  1.4454  0.9524  2.6431
 3098WAT      O 9504   4.139   2.741   0.094 -0.5281  0.2312 -0.1960
 3098WAT     H1 9505   4.225   2.782   0.100 -0.1600 -0.6265  0.7667
 3098WAT     H2 9506   4.104   2.744   0.183 -1.6188  0.7998 -0.6220
 3099WAT      O 9507   2.520   3.634   3.682 -0.2853  0.4896 -1.2312
 3099WAT     H1 9508   2.496   3.551   3.640  2.5807 -1.8064  1.1537
 3099WAT     H2 9509   2.479   3.630   3.768  3.7802 -1.1020  0.8927
 3100WAT      O 9510   2.308   4.933   4.863  0.5520  0.5145 -0.9481
 3100WAT     H1 9511   2.290   4.868   4.795  0.6328 -0.1825 -0.3108
 3100WAT     H2 9512   2.316   4.883   4.944  1.0109  1.2723 -0.5023
 3101WAT      O 9513   3.490   1.440   2.890 -0.3880  0.1905 -0.3943
 3101WAT     H1 9514   3.395   1.449   2.880 -0.1075  1.2625 -2.9399
 3101WAT     H2 9515   3.523   1.530   2.893  0.6260 -0.1405 -0.9318
 3102WAT      O 9516   1.644   4.841   2.772  0.2363  0.2292  0.0441
 3102WAT     H1 9517   1.666   4.858   2.864 -0.4213  0.3561  0.1885
 3102WAT     H2 9518   1.604   4.754   2.772 -0.6441  0.6232  0.0382
 3103WAT      O 9519   2.731   0.115   0.261 -0.1638 -0.6306 -0.0739
 3103WAT     H1 9520   2.759   0.151   0.345 -1.7470 -0.6127  0.4694
 3103WAT     H2 9521   2.704   0.026   0.281 -0.0612 -0.7930 -0.6591
 3104WAT      O 9522   2.207   0.486   0.387 -0.3379  0.3922 -0.6206
 3104WAT     H1 9523   2.271   0.456   0.452 -0.4431  2.4421  0.4970
 3104WAT     H2 9524   2.130   0.430   0.403 -0.0345  0.2315  0.3850
 3105WAT      O 9525   3.233   0.304   1.891 -0.5969 -0.3644  0.8474
 3105WAT     H1 9526   3.227   0.239   1.821  0.9474  0.3166  0.0349
 3105WAT     H2 9527   3.324   0.333   1.889 -1.7768  3.9843 -0.8662
 3106WAT      O 9528   0.987   2.789   1.741  0.2650 -0.1779 -0.1527
 3106WAT     H1 9529   0.949   2.716   1.693  0.9696 -0.5529 -0.1408
 3106WAT     H2 9530   1.071   2.805   1.699 -0.1795  1.0822 -0.6023
 3107WAT      O 9531   3.254   0.426   1.292 -0.1921  0.0757 -0.7755
 3107WAT     H1 9532   3.191   0.408   1.222  1.1847 -0.5414 -1.9002
 3107WAT     H2 9533   3.300   0.342   1.305  1.7012  0.9635 -1.3588
 3108WAT      O 9534   4.349   0.649   1.859 -0.3054  0.5193 -0.9633
 3108WAT     H1 9535   4.340   0.738   1.824 -0.7820  0.0269 -2.1610
 3108WAT     H2 9536   4.287   0.597   1.808 -0.7441 -0.3295  0.3837
 3109WAT      O 9537   1.018   0.813   3.602  0.6403 -0.0376 -0.0281
 3109WAT     H1 9538   0.933   0.830   3.641 -0.2759 -0.6322 -1.6385
 3109WAT     H2 9539   1.032   0.719   3.616  2.3223  0.5146  2.5574
 3110WAT      O 9540   3.144   2.724   1.696 -0.2605 -0.6375  0.0200
 3110WAT     H1 9541   3.183   2.810   1.682  1.0037 -0.9626  1.3311
 3110WAT     H2 9542   3.117   2.725   1.787 -1.4459 -1.1855 -0.3085
 3111WAT      O 9543   2.133   1.711   1.279  0.1316 -0.1296 -0.6836
 3111WAT     H1 9544   2.049   1.742   1.245 -1.4188 -0.3169  2.6183
 3111WAT     H2 9545   2.116   1.621   1.307  1.5409 -0.2847 -0.2430
 3112WAT      O 9546   1.011   3.041   4.902  0.1021 -0.1636 -0.1729
 3112WAT     H1 9547   0.916   3.032   4.901  0.2217 -1.7174  0.3739
 3112WAT     H2 9548   1.044   2.951   4.894  1.5420  0.4502 -1.7447
 3113WAT      O 9549   4.044   0.471   3.743  0.2731 -1.0057 -0.4117
 3113WAT     H1 9550   3.964   0.464   3.691 -0.1467 -1.1394  0.2345
 3113WAT     H2 9551   4.045   0.392   3.796 -0.1308 -0.1734  0.9008
 3114WAT      O 9552   0.377   3.914   2.187  0.1955  0.4557 -0.3263
 3114WAT     H1 9553   0.426   3.986   2.225  2.3380 -1.8786  1.6641
 3114WAT     H2 9554   0.377   3.931   2.093  2.3682  2.0274 -0.0987
 3115WAT      O 9555   0.415   0.838   3.171 -0.6225  0.3753  0.2719
 3115WAT     H1 9556   0.326   0.853   3.138 -1.6243 -2.2013  1.5329
 3115WAT     H2 9557   0.412   0.869   3.262 -1.0474 -1.9622  1.1098
 3116WAT      O 9558   0.278   2.706   4.363  0.4141 -0.0488  0.5375
 3116WAT     H1 9559   0.292   2.794   4.398 -0.3806 -0.4222  1.8930
 3116WAT     H2 9560   0.356   2.657   4.390  0.2742 -0.0764  0.8930
 3117WAT      O 9561   2.738   0.951   0.244 -0.4764  0.5451 -0.0259
 3117WAT     H1 9562   2.758   0.875   0.190  0.4100  0.3299  0.5719
 3117WAT     H2 9563   2.764   0.925   0.332  0.5284  1.7624  0.0774
 3118WAT      O 9564   0.688   0.996   2.731  0.3683 -0.1408  0.0404
 3118WAT     H1 9565   0.652   0.958   2.650  0.7373 -0.1053 -0.1444
 3118WAT     H2 9566   0.650   0.943   2.801 -2.7015  1.9178  0.1325
 3119WAT      O 9567   1.878   1.513   4.971  0.7733  0.3236  0.1327
 3119WAT     H1 9568   1.840   1.599   4.991 -0.4856 -0.1110 -0.2662
 3119WAT     H2 9569   1.913   1.522   4.883  0.1806  0.2992 -0.1126
 3120WAT      O 9570   3.348   2.889   4.396  0.0768 -0.0904  0.1512
 3120WAT     H1 9571   3.327   2.926   4.311  1.3735 -2.4474 -1.3145
 3120WAT     H2 9572   3.279   2.920   4.454 -2.1596 -0.1798 -2.2726
 3121WAT      O 9573   3.735   3.528   3.250 -0.2214 -0.1400  0.2642
 3121WAT     H1 9574   3.735   3.624   3.239 -0.3221 -0.3466 -1.8844
 3121WAT     H2 9575   3.827   3.504   3.251 -0.1856 -0.0193  1.1491
 3122WAT      O 9576   2.989   3.062   2.420 -0.2682  0.2136 -0.1191
 3122WAT     H1 9577   2.916   3.007   2.392  0.1774 -0.4047 -0.1049
 3122WAT     H2 9578   2.948   3.135   2.467 -0.8654 -0.2059  0.0275
 3123WAT      O 9579   4.033   1.178   0.489 -0.0933  0.0848 -0.6268
 3123WAT     H1 9580   3.981   1.099   0.498  0.1393 -0.4006 -2.8521
 3123WAT     H2 9581   4.121   1.147   0.468  0.3025  0.9235 -0.2829
 3124WAT      O 9582   0.669   3.510   1.309 -0.1987 -0.4706 -0.4418
 3124WAT     H1 9583   0.633   3.456   1.239  1.5222  0.0394 -1.7646
 3124WAT     H2 9584   0.724   3.450   1.360 -2.6449 -1.2337  1.5432
 3125WAT      O 9585   3.474   1.590   1.037  0.4252  0.1540  0.1229
 3125WAT     H1 9586   3.511   1.603   1.124  1.1890  0.9001 -0.3032
 3125WAT     H2 9587   3.468   1.495   1.028  2.0476  0.0037  0.3032
 3126WAT      O 9588   4.409   1.225   2.116  0.3661  0.1272  0.1423
 3126WAT     H1 9589   4.500   1.197   2.124  0.8720  1.3996 -0.7969
 3126WAT     H2 9590   4.406   1.270   2.031 -1.1247  0.1580  0.1916
 3127WAT      O 9591   1.449   3.678   3.541 -0.2466  0.9388 -0.3794
 3127WAT     H1 9592   1.462   3.645   3.452 -1.5257 -0.0481 -0.2323
 3127WAT     H2 9593   1.536   3.678   3.580  0.1740  0.3614 -1.2959
 3128WAT      O 9594   3.911   3.174   0.916 -0.0468  0.2840  0.3520
 3128WAT     H1 9595   3.901   3.262   0.951 -2.0082 -0.0144  0.6284
 3128WAT     H2 9596   3.856   3.119   0.972 -0.2958 -0.8056 -0.9091
 3129WAT      O 9597   1.274   4.312   0.392 -0.1703 -0.1769 -0.2361
 3129WAT     H1 9598   1.217   4.325   0.315 -0.7414  0.2623  0.2484
 3129WAT     H2 9599   1.333   4.388   0.390  0.0326 -0.3368 -0.4193
 3130WAT      O 9600   0.933   2.815   2.660 -0.1267 -0.4418  0.3164
 3130WAT     H1 9601   0.985   2.780   2.588 -0.0978  0.8413 -0.3201
 3130WAT     H2 9602   0.877   2.881   2.619 -0.4680 -0.0391  1.4002
 3131WAT      O 9603   4.057   1.452   0.690 -0.3662 -0.2781  0.1243
 3131WAT     H1 9604   4.122   1.381   0.690  0.2098  0.2369 -0.0418
 3131WAT     H2 9605   4.092   1.516   0.628 -0.0139  0.9188  1.4980
 3132WAT      O 9606   0.456   0.886   0.596 -0.1966  0.5217  0.3430
 3132WAT     H1 9607   0.453   0.945   0.671 -0.1095 -0.9372  1.5439
 3132WAT     H2 9608   0.365   0.863   0.579 -0.1341 -0.0297  0.7378
 3133WAT      O 9609   1.031   2.279   1.550  0.2753 -0.4817  0.2534
 3133WAT     H1 9610   0.936   2.266   1.546  0.4032 -1.3240 -0.1920
 3133WAT     H2 9611   1.044   2.370   1.524 -0.5485  0.2282  2.1062
 3134WAT      O 9612   1.395   2.386   2.762  0.1164 -0.1430  0.0977
 3134WAT     H1 9613   1.382   2.361   2.854 -0.9389  0.0043  0.0034
 3134WAT     H2 9614   1.334   2.458   2.748  1.6173  1.1249 -0.2251
 3135WAT      O 9615   3.090   1.664   5.185  0.8777 -0.6569 -0.1112
 3135WAT     H1 9616   3.056   1.648   5.273  1.2861 -0.4791  0.0815
 3135WAT     H2 9617   3.096   1.760   5.180 -0.2119 -0.5990 -0.7403
 3136WAT      O 9618   3.211   1.576   1.785  0.3849  0.1161 -0.0279
 3136WAT     H1 9619   3.121   1.546   1.776  0.0647  0.7660  0.8334
 3136WAT     H2 9620   3.259   1.499   1.816 -0.1664  0.1176  0.8854
 3137WAT      O 9621   2.871   2.501   2.786  0.2828  0.8224  0.2029
 3137WAT     H1 9622   2.902   2.425   2.835  0.3574  0.2291 -0.7387
 3137WAT     H2 9623   2.861   2.469   2.696 -1.6009  1.3876  0.1648
 3138WAT      O 9624   1.717   0.174   0.380 -0.5515 -0.2115 -0.2432
 3138WAT     H1 9625   1.746   0.083   0.370 -0.2271 -0.4577  2.3372
 3138WAT     H2 9626   1.622   0.169   0.382 -0.5185 -0.7670  1.5956
 3139WAT      O 9627   4.188   4.976   2.906 -0.3367  0.0922  0.0151
 3139WAT     H1 9628   4.263   5.014   2.953  0.8644  0.1777 -1.8756
 3139WAT     H2 9629   4.193   5.012   2.818 -2.2637 -0.4127 -0.3502
 3140WAT      O 9630   4.241   1.963   1.769 -0.1126  0.0381  0.3435
 3140WAT     H1 9631   4.328   1.982   1.804 -0.1436  0.8310  0.0017
 3140WAT     H2 9632   4.189   1.942   1.847  0.8376 -2.4562  0.4023
 3141WAT      O 9633   0.852   2.019   1.895  0.3302 -0.0930  0.2230
 3141WAT     H1 9634   0.935   2.060   1.920  1.4263  0.2950 -3.5345
 3141WAT     H2 9635   0.785   2.078   1.930  1.6746  0.8745  1.2707
 3142WAT      O 9636   1.758   3.010   4.246 -0.2798 -0.2281  0.5391
 3142WAT     H1 9637   1.779   3.040   4.158 -0.9027 -0.3461  0.3434
 3142WAT     H2 9638   1.750   2.915   4.239  0.2619 -0.3019  0.8540
 3143WAT      O 9639   1.768   0.466   0.557  0.1963  0.3563 -0.5834
 3143WAT     H1 9640   1.825   0.416   0.498  1.1726  1.2575 -0.4534
 3143WAT     H2 9641   1.828   0.504   0.621 -0.9238 -1.2594  1.5419
 3144WAT      O 9642   0.342   2.254   1.764  0.5638  0.4665  0.7391
 3144WAT     H1 9643   0.323   2.309   1.688 -4.1051 -2.2745 -0.4754
 3144WAT     H2 9644   0.408   2.191   1.732  0.4421  0.8221 -0.2377
 3145WAT      O 9645   2.704   0.730   4.898  0.3355 -0.6693  0.1394
 3145WAT     H1 9646   2.649   0.778   4.835  1.3614 -0.4297 -0.5933
 3145WAT     H2 9647   2.641   0.691   4.958 -0.6995 -1.0138 -1.1063
 3146WAT      O 9648   3.745   1.325   3.546 -0.4001 -0.7557 -0.5085
 3146WAT     H1 9649   3.776   1.339   3.635  1.1870 -0.5081 -1.0566
 3146WAT     H2 9650   3.670   1.384   3.537  2.1886  2.9362 -0.7031
 3147WAT      O 9651   3.662   0.826   0.915  0.0829  0.1511  0.7715
 3147WAT     H1 9652   3.721   0.784   0.979  0.7285 -2.3723 -1.3112
 3147WAT     H2 9653   3.717   0.891   0.872 -0.0125  1.0184  1.9187
 3148WAT      O 9654   2.843   4.502   1.215  0.3990  0.1533 -0.2957
 3148WAT     H1 9655   2.880   4.435   1.273  1.0241  2.3620  2.0907
 3148WAT     H2 9656   2.918   4.538   1.169  0.4442  0.8444  0.3008
 3149WAT      O 9657   2.710   3.094   3.053  0.2834  0.4639  0.2624
 3149WAT     H1 9658   2.707   3.086   3.149  2.2292  0.1950  0.3412
 3149WAT     H2 9659   2.672   3.012   3.021  2.4017 -0.8432  0.8818
 3150WAT      O 9660   1.439   0.283   1.335  0.0404 -0.0830 -0.3070
 3150WAT     H1 9661   1.393   0.233   1.402  1.3982 -3.6216 -1.8011
 3150WAT     H2 9662   1.371   0.304   1.271 -0.8430  1.5062  1.0486
 3151WAT      O 9663   2.498   1.645   2.978  0.1693  0.2038  0.0688
 3151WAT     H1 9664   2.553   1.597   2.916  0.6850  0.1669  0.5489
 3151WAT     H2 9665   2.413   1.602   2.971  0.7440 -1.1305  0.8556
 3152WAT      O 9666   0.917   3.370   1.324 -0.5066 -0.9206  0.4092
 3152WAT     H1 9667   0.946   3.439   1.265  0.4124 -0.6622  1.1429
 3152WAT     H2 9668   0.985   3.365   1.390 -0.8974 -2.0722  0.7471
 3153WAT      O 9669   0.342   0.403   0.390  1.0985  0.4665 -0.1111
 3153WAT     H1 9670   0.359   0.309   0.384  1.1510  0.5415 -1.3545
 3153WAT     H2 9671   0.290   0.423   0.312 -1.7127  0.8914  1.7410
 3154WAT      O 9672   2.163   0.561   1.945 -0.1836  0.7026  0.7555
 3154WAT     H1 9673   2.116   0.489   1.904 -0.2958  1.2471 -0.0940
 3154WAT     H2 9674   2.183   0.530   2.033  0.3372 -0.6233  0.1906
 3155WAT      O 9675   0.135   0.728   4.161 -0.6505  0.0055  0.3406
 3155WAT     H1 9676   0.069   0.661   4.180  0.1619 -0.9849 -0.2112
 3155WAT     H2 9677   0.091   0.811   4.180 -1.5485 -0.6944  1.4369
 3156WAT      O 9678   3.336   4.623   1.689 -0.0210  0.3880  0.3229
 3156WAT     H1 9679   3.321   4.717   1.698 -0.6278  0.3044  0.2859
 3156WAT     H2 9680   3.380   4.597   1.769  1.0071  0.8677 -0.0795
 3157WAT      O 9681   0.803   0.420   3.030  0.2078 -0.2632  0.0223
 3157WAT     H1 9682   0.835   0.388   3.114  0.2801  0.8148  0.4211
 3157WAT     H2 9683   0.843   0.361   2.965 -1.0847 -2.0748  0.7936
 3158WAT      O 9684   2.332   1.526   2.483  0.2678  0.1595 -0.2218
 3158WAT     H1 9685   2.272   1.576   2.428  0.7362  1.1977  0.1893
 3158WAT     H2 9686   2.282   1.509   2.563  0.3207  0.4814 -0.1233
 3159WAT      O 9687   3.539   2.576   3.197  0.2743  0.4203  0.2896
 3159WAT     H1 9688   3.549   2.654   3.143  0.5684  0.7844  0.8482
 3159WAT     H2 9689   3.629   2.552   3.222  0.4137 -1.4369 -1.6895
 3160WAT      O 9690   3.856   1.699   3.460 -0.2173 -0.1232 -0.1141
 3160WAT     H1 9691   3.882   1.729   3.373 -2.4529  1.9330 -0.1942
 3160WAT     H2 9692   3.780   1.642   3.443 -0.5432  0.1358  0.4534
 3161WAT      O 9693   3.947   1.621   2.938  0.1886  0.1783 -0.1478
 3161WAT     H1 9694   3.869   1.572   2.964 -0.4119  0.9457 -0.4341
 3161WAT     H2 9695   3.981   1.574   2.862 -0.7313  0.5345 -0.7964
 3162WAT      O 9696   1.122   3.920   1.549 -0.6355  0.4981 -0.1099
 3162WAT     H1 9697   1.093   3.871   1.625  0.8422 -1.5717 -0.7583
 3162WAT     H2 9698   1.106   4.012   1.571  0.2735  0.0421  2.9301
 3163WAT      O 9699   2.432   3.062   1.080  0.7001  0.4855  0.6210
 3163WAT     H1 9700   2.437   3.120   1.004  0.9562  0.0375  0.2878
 3163WAT     H2 9701   2.517   3.073   1.123  0.7743  0.3205  0.5216
 3164WAT      O 9702   1.749   3.599   3.031  0.0079 -0.2800  0.0156
 3164WAT     H1 9703   1.674   3.543   3.052 -0.6931  0.7145  0.2148
 3164WAT     H2 9704   1.753   3.662   3.103  1.9165 -1.1600  0.7522
 3165WAT      O 9705   0.869   1.587   4.392 -1.1767 -0.0672  0.4077
 3165WAT     H1 9706   0.913   1.505   4.369  0.9503  1.3808 -0.9998
 3165WAT     H2 9707   0.803   1.599   4.325  0.2697  0.6153 -0.9487
 3166WAT      O 9708   1.087   0.187   1.510  0.0732 -0.0526 -0.7679
 3166WAT     H1 9709   1.098   0.273   1.551 -0.3511  0.0795 -0.9232
 3166WAT     H2 9710   1.122   0.126   1.575  0.4445  0.2383 -0.6859
 3167WAT      O 9711   0.882   2.657   3.799 -0.5381 -0.0431 -0.1335
 3167WAT     H1 9712   0.822   2.692   3.733  0.6718  0.1188 -1.2128
 3167WAT     H2 9713   0.865   2.707   3.878 -0.7503  1.0642 -0.8699
 3168WAT      O 9714   0.962   3.877   4.547  0.5015  0.1457 -0.5458
 3168WAT     H1 9715   1.004   3.798   4.513  0.5210 -0.3468  0.5791
 3168WAT     H2 9716   1.017   3.903   4.621 -0.9232 -0.2889  0.7094
 3169WAT      O 9717   3.898   1.212   2.572  0.4473 -0.1326 -0.0901
 3169WAT     H1 9718   3.870   1.299   2.601 -3.2450 -0.7297 -1.3646
 3169WAT     H2 9719   3.848   1.151   2.626 -0.3938 -1.3408 -2.1110
 3170WAT      O 9720   1.742   0.775   2.899 -0.0683  0.3728  0.1138
 3170WAT     H1 9721   1.783   0.849   2.854 -2.4103  1.0547 -1.1172
 3170WAT     H2 9722   1.710   0.812   2.981  1.8107 -0.2056  1.1655
 3171WAT      O 9723   3.398   4.799   3.117 -0.5512  0.1663  0.0553
 3171WAT     H1 9724   3.490   4.822   3.129 -0.4624 -0.8801  1.6239
 3171WAT     H2 9725   3.399   4.708   3.086 -1.0309  0.7866 -1.9636
 3172WAT      O 9726   3.297   0.505   0.722  0.0267  0.0105 -0.6514
 3172WAT     H1 9727   3.268   0.516   0.632  0.0113  0.3708 -0.6052
 3172WAT     H2 9728   3.349   0.583   0.740 -0.2228  0.0916 -0.2551
 3173WAT      O 9729   1.575   1.910   0.520 -0.2147  0.0030 -0.5328
 3173WAT     H1 9730   1.538   1.825   0.543 -1.6052  0.1533 -2.0236
 3173WAT     H2 9731   1.613   1.897   0.433  1.0424  0.5241 -0.0935
 3174WAT      O 9732   4.389   2.948   4.183  0.0186 -0.0762  0.3938
 3174WAT     H1 9733   4.299   2.977   4.192  0.4602  1.3219  0.4921
 3174WAT     H2 9734   4.389   2.894   4.104 -1.0688 -0.8538  0.8973
 3175WAT      O 9735   2.099   0.453   4.564  0.0334 -0.4901 -0.0186
 3175WAT     H1 9736   2.071   0.379   4.510 -0.6978 -0.0127 -0.3109
 3175WAT     H2 9737   2.034   0.457   4.634  1.4571 -1.6524  1.4535
 3176WAT      O 9738   0.067   4.543   2.993  0.0347 -0.0244  0.1142
 3176WAT     H1 9739  -0.015   4.550   3.041 -0.3190  0.9259 -0.5924
 3176WAT     H2 9740   0.043   4.557   2.902  0.6225 -2.2741 -0.4502
 3177WAT      O 9741   0.138   1.168   0.099 -0.0144 -0.2148  0.4342
 3177WAT     H1 9742   0.206   1.192   0.161 -2.0633  0.4753  2.5428
 3177WAT     H2 9743   0.181   1.106   0.039  2.6100  0.7810  1.1682
 3178WAT      O 9744   2.933   3.390   3.195  0.1405 -0.6693  0.1598
 3178WAT     H1 9745   2.912   3.353   3.280 -0.5647  0.7950  0.6482
 3178WAT     H2 9746   2.853   3.379   3.144  0.1728 -0.4791  0.0673
 3179WAT      O 9747   0.413   2.346   4.751 -0.3746  0.0874 -0.3238
 3179WAT     H1 9748   0.391   2.437   4.768 -3.4901 -0.3517 -1.3986
 3179WAT     H2 9749   0.337   2.297   4.782  0.6792 -2.0396 -0.9302
 3180WAT      O 9750   3.421   0.823   2.703 -0.0562  0.1897  0.7725
 3180WAT     H1 9751   3.369   0.806   2.781 -1.0185  1.3846  0.4252
 3180WAT     H2 9752   3.392   0.758   2.640 -0.7516  0.5019  0.7643
 3181WAT      O 9753   1.166   4.629   5.278  0.2585 -0.0866  0.3358
 3181WAT     H1 9754   1.137   4.635   5.187  1.6457 -1.3400 -0.2275
 3181WAT     H2 9755   1.240   4.690   5.284 -0.6793  1.0276  1.0244
 3182WAT      O 9756   3.805   4.590   0.182 -0.4872  0.0374 -0.3186
 3182WAT     H1 9757   3.808   4.666   0.240 -0.0850  0.9577 -1.5258
 3182WAT     H2 9758   3.738   4.611   0.118 -1.3653 -1.2440  0.1447
 3183WAT      O 9759   3.121   0.078   0.218  0.4368 -0.5969  0.2925
 3183WAT     H1 9760   3.102  -0.013   0.239  1.0683 -0.8790 -0.3462
 3183WAT     H2 9761   3.121   0.122   0.303 -1.1799 -0.9250  0.5008
 3184WAT      O 9762   1.648   2.632   1.285 -0.1254  0.2703  0.3109
 3184WAT     H1 9763   1.584   2.570   1.250  2.7367 -1.7818 -1.8064
 3184WAT     H2 9764   1.659   2.605   1.377 -1.8188  0.3522  0.5786
 3185WAT      O 9765   2.985   4.078   2.989 -0.2515  0.4057  0.2765
 3185WAT     H1 9766   3.072   4.072   2.950  0.2028  0.3918  1.2532
 3185WAT     H2 9767   2.924   4.066   2.916  0.5573 -2.2274 -0.0416
 3186WAT      O 9768   0.022   1.954   0.396  0.0944 -0.1289  0.4911
 3186WAT     H1 9769  -0.009   1.902   0.322 -0.4708  0.9188 -0.0227
 3186WAT     H2 9770   0.021   1.894   0.470 -0.0722 -0.9794 -0.1905
 3187WAT      O 9771   4.342   2.597   5.258  0.1416  0.3302  0.0561
 3187WAT     H1 9772   4.415   2.554   5.302 -1.2121 -1.3152  0.7933
 3187WAT     H2 9773   4.268   2.587   5.317 -0.8227  1.4792 -0.9003
 3188WAT      O 9774  -0.012   1.756   4.510 -0.2845 -0.2582  0.3735
 3188WAT     H1 9775   0.019   1.842   4.537  1.0362 -0.2434 -0.9946
 3188WAT     H2 9776   0.023   1.745   4.421  1.3951 -3.0430  1.2404
 3189WAT      O 9777   0.503   5.050   2.151  0.0870  0.2389 -0.2972
 3189WAT     H1 9778   0.515   5.080   2.241  0.1902 -2.7667  0.7947
 3189WAT     H2 9779   0.588   5.064   2.109  0.3942  0.5678  0.4299
 3190WAT      O 9780   2.480  -0.020   0.787  0.1613  0.1527  0.0120
 3190WAT     H1 9781   2.424  -0.034   0.711  1.3637 -0.8168 -0.7421
 3190WAT     H2 9782   2.469   0.072   0.809 -1.9698 -0.0868  0.1196
 3191WAT      O 9783   1.226   1.827   0.855  0.3678  0.7855  0.2150
 3191WAT     H1 9784   1.234   1.781   0.939  0.0091 -0.9830 -0.6634
 3191WAT     H2 9785   1.278   1.774   0.794 -0.4966  1.2587 -0.9714
 3192WAT      O 9786   2.587   0.328   0.506 -0.0890  0.0268  0.1607
 3192WAT     H1 9787   2.504   0.279   0.505 -0.9231  1.3606 -1.5274
 3192WAT     H2 9788   2.605   0.343   0.599 -3.1560  1.8604  0.6147
 3193WAT      O 9789   1.230   3.809   0.766  0.2813  0.8387  0.0715
 3193WAT     H1 9790   1.191   3.883   0.813  1.8892  1.3920  0.6155
 3193WAT     H2 9791   1.157   3.769   0.719 -1.0042  1.5155  1.4071
 3194WAT      O 9792   3.147   3.571   1.606 -0.0029 -0.3605 -0.4841
 3194WAT     H1 9793   3.077   3.548   1.546  0.8671 -2.4280 -0.7698
 3194WAT     H2 9794   3.220   3.596   1.550 -0.1604  0.7726 -0.2058
 3195WAT      O 9795   3.250   1.634   4.829 -0.2075  0.2078  0.6094
 3195WAT     H1 9796   3.255   1.629   4.733  3.1412 -0.9279  0.6890
 3195WAT     H2 9797   3.243   1.542   4.857 -0.8732  0.5145  1.4785
 3196WAT      O 9798   2.368   1.114   0.956 -0.2618 -0.1683  0.5264
 3196WAT     H1 9799   2.395   1.096   0.866 -0.8378 -0.5099  0.4177
 3196WAT     H2 9800   2.408   1.043   1.007  0.1699  0.0961  0.5661
 3197WAT      O 9801   2.512   2.397   4.986  0.4524  0.2975 -0.0668
 3197WAT     H1 9802   2.488   2.482   4.949  0.9047  0.5261  0.1504
 3197WAT     H2 9803   2.539   2.345   4.911 -0.0634  0.2608 -0.2311
 3198WAT      O 9804   2.206   2.363   1.489 -0.6231 -0.0842  0.0331
 3198WAT     H1 9805   2.244   2.284   1.527 -2.9125 -0.5404  1.6336
 3198WAT     H2 9806   2.212   2.350   1.395  0.2232 -1.5505  0.2599
 3199WAT      O 9807   3.421   0.354   2.160  0.1312  0.0874 -0.0718
 3199WAT     H1 9808   3.433   0.322   2.070  0.2206 -1.1730  0.3701
 3199WAT     H2 9809   3.328   0.376   2.166  0.1823  0.4418 -0.5557
 3200WAT      O 9810   1.223   1.510   3.306 -0.1579 -0.4535  0.6163
 3200WAT     H1 9811   1.252   1.601   3.306  1.1333 -0.8386 -0.4209
 3200WAT     H2 9812   1.152   1.507   3.370  0.8441  0.9279  1.8382
 3201WAT      O 9813   2.145   2.864   2.255 -0.2501 -0.1152 -0.3732
 3201WAT     H1 9814   2.073   2.916   2.290  0.0584  0.6456 -0.8370
 3201WAT     H2 9815   2.164   2.904   2.170  1.9466  0.9413  0.5293
 3202WAT      O 9816   1.701   1.409   2.375 -0.2925  0.1787  0.4564
 3202WAT     H1 9817   1.612   1.444   2.377 -0.4051  0.0112 -0.7322
 3202WAT     H2 9818   1.691   1.317   2.399 -0.0351  0.8008  3.2744
 3203WAT      O 9819   3.210   2.513   3.180 -0.5008  0.0966  0.2692
 3203WAT     H1 9820   3.297   2.537   3.210 -0.1444  0.2064 -0.7902
 3203WAT     H2 9821   3.224   2.443   3.117 -1.2359 -0.3291  0.5587
 3204WAT      O 9822   0.150   0.930   1.437 -0.4459  0.0369 -0.3439
 3204WAT     H1 9823   0.090   0.857   1.451  0.5625 -0.7902 -0.2404
 3204WAT     H2 9824   0.154   0.940   1.342 -1.2191  0.5178 -0.3397
 3205WAT      O 9825   2.397   2.866   3.628  0.2688 -0.3779  0.3091
 3205WAT     H1 9826   2.431   2.946   3.669 -1.5660  1.6855 -1.8298
 3205WAT     H2 9827   2.332   2.833   3.690 -0.3583  0.9798  0.4105
 3206WAT      O 9828   3.626   1.784   3.743 -0.0574 -0.6051  0.5824
 3206WAT     H1 9829   3.678   1.703   3.745  2.0871  0.7022  0.2184
 3206WAT     H2 9830   3.577   1.779   3.661  1.7035 -0.5840 -0.5189
 3207WAT      O 9831   0.720   0.657   3.413 -0.0204 -0.2695  0.6035
 3207WAT     H1 9832   0.765   0.717   3.355 -2.7621  1.4253  0.0286
 3207WAT     H2 9833   0.654   0.615   3.357 -0.7242 -0.8921  1.8465
 3208WAT      O 9834   0.458   4.893   3.005 -0.2177 -0.6051  0.1203
 3208WAT     H1 9835   0.467   4.899   2.910  0.0299 -0.4467  0.1542
 3208WAT     H2 9836   0.435   4.802   3.021  0.2821 -0.7640 -0.0458
 3209WAT      O 9837   0.347   4.789   4.185  0.3318 -0.3785  0.1138
 3209WAT     H1 9838   0.354   4.856   4.253  1.5861 -0.6462  0.2745
 3209WAT     H2 9839   0.328   4.838   4.105 -0.2380  0.0212  0.4873
 3210WAT      O 9840   3.574   1.043   3.868  0.5363 -0.5271  0.4307
 3210WAT     H1 9841   3.578   1.057   3.774  0.0340  1.4188  0.6643
 3210WAT     H2 9842   3.532   0.957   3.878  0.2986 -0.6059 -1.0971
 3211WAT      O 9843   3.806   2.136   2.705 -0.0090 -0.1465 -0.5340
 3211WAT     H1 9844   3.896   2.168   2.703  0.1241 -0.5397 -1.5098
 3211WAT     H2 9845   3.753   2.216   2.713  0.3842  0.1803 -1.1157
 3212WAT      O 9846   2.017   2.797   0.025  0.6538 -0.1121 -0.0888
 3212WAT     H1 9847   1.997   2.704   0.016  0.1384  0.0696 -0.8926
 3212WAT     H2 9848   2.076   2.801   0.100  2.2902 -1.3254 -1.2344
 3213WAT      O 9849   4.163   3.521   0.084  0.5062  0.1894 -0.0396
 3213WAT     H1 9850   4.184   3.597   0.137  0.0492  1.0031 -1.0004
 3213WAT     H2 9851   4.158   3.554  -0.006  2.0897 -1.2817 -0.7448
 3214WAT      O 9852   3.625   2.715   4.881  0.3182 -0.2383 -0.3294
 3214WAT     H1 9853   3.629   2.808   4.906 -1.3485 -0.4397  0.8557
 3214WAT     H2 9854   3.611   2.716   4.787  2.9481  0.6219 -0.8088
 3215WAT      O 9855   1.314   4.735   1.973 -0.0055 -0.2548 -0.3147
 3215WAT     H1 9856   1.233   4.693   1.945  0.8077 -0.7385 -2.1657
 3215WAT     H2 9857   1.359   4.756   1.891  1.8967 -0.3197  0.6594
 3216WAT      O 9858   3.575   4.087   1.399 -0.0265  0.4065 -1.0861
 3216WAT     H1 9859   3.480   4.096   1.393  0.1007  2.0203 -0.9127
 3216WAT     H2 9860   3.608   4.176   1.404  1.4369 -0.1451 -0.0488
 3217WAT      O 9861   0.153   3.247   1.775 -0.8896 -0.0787  0.0392
 3217WAT     H1 9862   0.059   3.256   1.791 -0.6378  0.3519  1.3748
 3217WAT     H2 9863   0.171   3.155   1.791 -0.8809  0.0810  0.9879
 3218WAT      O 9864   3.792   1.881   4.968  0.1487 -0.0923 -0.1724
 3218WAT     H1 9865   3.714   1.840   4.930  1.0084 -0.1008 -2.0143
 3218WAT     H2 9866   3.838   1.919   4.894  2.9104 -1.7175  0.5537
 3219WAT      O 9867   0.131   0.384   2.479 -0.4012  0.7931  0.2795
 3219WAT     H1 9868   0.170   0.382   2.566  0.6829  0.7387 -0.1863
 3219WAT     H2 9869   0.206   0.393   2.419 -1.1552  1.2887 -0.6207
 3220WAT      O 9870   3.568   3.746   3.878  0.2061  0.0408  0.3386
 3220WAT     H1 9871   3.494   3.779   3.930 -0.5481 -1.1694  0.0746
 3220WAT     H2 9872   3.641   3.744   3.939  0.0921  1.4416  0.5587
 3221WAT      O 9873   1.489   4.520   3.479  0.6835 -0.2370  0.1609
 3221WAT     H1 9874   1.438   4.475   3.412 -0.8872 -0.8331  1.6853
 3221WAT     H2 9875   1.434   4.592   3.508  0.0232 -1.6367  2.7316
 3222WAT      O 9876  -0.005   2.889   5.181  0.2246  0.1480 -0.6652
 3222WAT     H1 9877  -0.046   2.805   5.202  0.1557  0.4204  0.3710
 3222WAT     H2 9878   0.074   2.891   5.234 -0.3807  1.2286  0.2502
 3223WAT      O 9879   3.845   5.121   4.837 -0.2473  0.2403  0.5986
 3223WAT     H1 9880   3.766   5.094   4.884 -0.2330 -0.2956  0.3172
 3223WAT     H2 9881   3.847   5.066   4.759  0.6936 -0.1432  0.8735
 3224WAT      O 9882   0.886   4.237   5.033 -0.1618  0.1254  0.1319
 3224WAT     H1 9883   0.842   4.272   4.956  0.2066 -0.4969 -0.3736
 3224WAT     H2 9884   0.882   4.142   5.022 -0.8733 -0.0007  1.3177
 3225WAT      O 9885   0.604   1.359   4.077 -0.1566 -0.6245  0.3040
 3225WAT     H1 9886   0.509   1.362   4.065 -0.2029  1.0090  0.8456
 3225WAT     H2 9887   0.617   1.311   4.159 -0.7557  2.1367  2.1140
 3226WAT      O 9888   0.327   2.549   1.274 -1.4516  0.3971  0.0690
 3226WAT     H1 9889   0.372   2.631   1.255 -2.0677  0.7551  0.1040
 3226WAT     H2 9890   0.379   2.482   1.231 -1.0497  0.8346 -0.1322
 3227WAT      O 9891   1.243   3.393   1.113 -0.0632  0.0799 -0.6143
 3227WAT     H1 9892   1.299   3.433   1.047 -0.2062  0.2959 -0.6070
 3227WAT     H2 9893   1.240   3.457   1.184 -1.1593  0.5458 -1.0582
 3228WAT      O 9894   2.410   0.139   2.086  0.2304 -0.0634  0.6935
 3228WAT     H1 9895   2.445   0.200   2.150  0.8127  0.5556 -0.1941
 3228WAT     H2 9896   2.336   0.097   2.130  1.1795 -0.3347  2.0822
 3229WAT      O 9897   3.764   2.470   1.486  0.7536  0.0203 -0.1245
 3229WAT     H1 9898   3.833   2.444   1.547  0.2162 -1.3624 -0.0484
 3229WAT     H2 9899   3.710   2.531   1.536  0.8580 -0.3621  0.4761
 3230WAT      O 9900   4.012   3.206   4.993  0.2628 -0.0318  0.1145
 3230WAT     H1 9901   4.008   3.137   4.927  2.1817 -1.0108  0.9329
 3230WAT     H2 9902   3.940   3.187   5.052 -0.5493 -0.0284 -0.8402
 3231WAT      O 9903   1.417   3.579   0.828  0.1735  0.3301 -0.1487
 3231WAT     H1 9904   1.357   3.653   0.820 -0.4437 -0.2783 -1.4149
 3231WAT     H2 9905   1.482   3.593   0.759  0.0415 -0.3143 -0.4135
 3232WAT      O 9906   2.201   0.025   3.230  0.2032 -0.2167 -0.1013
 3232WAT     H1 9907   2.207   0.004   3.324  1.1617  0.0950 -0.0859
 3232WAT     H2 9908   2.291   0.040   3.203  0.0290 -1.2555 -1.3138
 3233WAT      O 9909   2.185   0.021   2.462  0.0577  0.0562  0.0731
 3233WAT     H1 9910   2.116  -0.038   2.493  0.7781 -0.4802  0.6864
 3233WAT     H2 9911   2.166   0.105   2.505  1.0252 -0.6659  1.9822
 3234WAT      O 9912   4.158   5.010   1.002 -0.4959 -0.3583 -0.1067
 3234WAT     H1 9913   4.158   5.087   0.945 -0.4825  0.0909  0.4964
 3234WAT     H2 9914   4.209   5.036   1.078 -1.6415 -0.4922  0.7357
 3235WAT      O 9915   4.325   3.778   3.004 -0.2419  0.4918  0.5088
 3235WAT     H1 9916   4.270   3.705   2.975 -0.7982  0.6412  1.1644
 3235WAT     H2 9917   4.374   3.803   2.926 -1.6836  0.8716 -0.3173
 3236WAT      O 9918   0.794   2.989   1.718  0.0312 -0.5834 -0.4525
 3236WAT     H1 9919   0.746   2.964   1.639 -1.4871 -0.5017  0.4143
 3236WAT     H2 9920   0.858   2.919   1.730 -1.1140 -1.6826 -0.6032
 3237WAT      O 9921   2.986   1.745   0.364  0.1279 -0.0877 -0.1699
 3237WAT     H1 9922   3.071   1.771   0.400 -0.4055 -0.6032  1.5589
 3237WAT     H2 9923   2.925   1.759   0.436 -0.7748 -2.5717 -0.3738
 3238WAT      O 9924   2.123   4.551   1.218  0.3136  0.3280 -0.2718
 3238WAT     H1 9925   2.135   4.479   1.156  0.9094  0.5498 -0.4183
 3238WAT     H2 9926   2.111   4.628   1.162  0.4302  0.4615 -0.1108
 3239WAT      O 9927   3.332   0.715   2.944 -0.4564 -0.3853  0.2503
 3239WAT     H1 9928   3.332   0.785   3.010 -1.6333 -0.0779 -0.0452
 3239WAT     H2 9929   3.361   0.637   2.991 -0.5034  0.0071  0.9384
 3240WAT      O 9930   2.066   1.198   1.827  1.1673  0.1511  0.6538
 3240WAT     H1 9931   2.089   1.185   1.919 -0.0201 -0.3631  0.8943
 3240WAT     H2 9932   2.047   1.110   1.795 -0.8201  0.5535  0.6023
 3241WAT      O 9933   3.455   1.294   1.944  0.3530  0.4161 -0.0799
 3241WAT     H1 9934   3.486   1.232   1.878 -0.7976 -0.6688  0.3653
 3241WAT     H2 9935   3.436   1.240   2.021  0.7723  1.5338  0.8269
 3242WAT      O 9936   0.351   3.778   4.565  0.1649  0.9695  0.1395
 3242WAT     H1 9937   0.259   3.801   4.580  0.3086  1.3324  0.4900
 3242WAT     H2 9938   0.365   3.794   4.472  0.0974  1.7450  0.2510
 3243WAT      O 9939   1.498   2.670   0.938 -0.0925 -0.5580 -0.3112
 3243WAT     H1 9940   1.460   2.607   0.877 -0.0636 -0.5961 -0.2899
 3243WAT     H2 9941   1.438   2.670   1.013 -0.1797 -0.4399 -0.3814
 3244WAT      O 9942   0.300   1.955   2.744  0.0078 -0.1609 -0.6738
 3244WAT     H1 9943   0.290   1.865   2.775 -1.2718 -0.2674 -1.3003
 3244WAT     H2 9944   0.393   1.974   2.751  0.5090 -2.0114 -1.7998
 3245WAT      O 9945   0.869   3.404   1.718  0.0223  0.1932 -0.8588
 3245WAT     H1 9946   0.881   3.347   1.642 -0.9609 -0.9396 -0.1886
 3245WAT     H2 9947   0.775   3.405   1.733 -0.0322  2.3107 -1.0682
 3246WAT      O 9948   3.931   3.512   5.170  0.1110  0.0564  0.3570
 3246WAT     H1 9949   3.896   3.433   5.212 -2.2138  0.8043 -0.0382
 3246WAT     H2 9950   3.942   3.486   5.078 -2.8609  0.7106 -0.3036
 3247WAT      O 9951   3.617   4.218   3.187 -0.7347 -0.3784  0.0493
 3247WAT     H1 9952   3.586   4.287   3.246  0.5681 -0.6367  1.1028
 3247WAT     H2 9953   3.579   4.240   3.102 -1.7507  0.6499  0.7368
 3248WAT      O 9954   1.051   2.706   4.577  0.7265 -0.1260 -0.4597
 3248WAT     H1 9955   1.046   2.721   4.672 -0.9383  0.4217 -0.5948
 3248WAT     H2 9956   1.085   2.788   4.542 -1.4642  0.8133 -0.5524
 3249WAT      O 9957   4.089   3.220   0.632  0.1744  0.1553 -0.1764
 3249WAT     H1 9958   4.139   3.192   0.708  0.7075  1.3072 -0.0877
 3249WAT     H2 9959   4.154   3.235   0.563 -0.4014 -2.3249 -1.3964
 3250WAT      O 9960   0.658   2.657   4.620  0.2498 -0.3494  0.3399
 3250WAT     H1 9961   0.734   2.689   4.571 -0.3300 -0.4120 -0.6342
 3250WAT     H2 9962   0.690   2.580   4.666  0.9663  0.0579  0.5367
 3251WAT      O 9963   0.705   0.237   4.095 -0.4550 -0.2143  0.1570
 3251WAT     H1 9964   0.653   0.172   4.048  0.0078  0.0096 -0.6789
 3251WAT     H2 9965   0.683   0.320   4.053 -1.1677  0.2153  1.3244
 3252WAT      O 9966   4.388   3.598   3.518  0.1997 -0.6861  0.3626
 3252WAT     H1 9967   4.387   3.588   3.423  1.4837  0.3441  0.2121
 3252WAT     H2 9968   4.336   3.524   3.550 -0.1188 -1.1430 -1.1229
 3253WAT      O 9969   3.505   4.175   0.202 -0.5268  0.2671  0.2659
 3253WAT     H1 9970   3.423   4.125   0.197  0.5322 -1.4595 -0.8360
 3253WAT     H2 9971   3.522   4.183   0.296 -1.0967 -0.8530  0.4871
 3254WAT      O 9972   1.060   4.429   1.372  0.3710  0.0634 -0.2048
 3254WAT     H1 9973   1.017   4.514   1.385  0.5977 -0.0240  1.3174
 3254WAT     H2 9974   1.113   4.417   1.451  0.6979 -1.2952 -0.6060
 3255WAT      O 9975   0.708   3.064   0.135 -0.6776  0.0145  0.2867
 3255WAT     H1 9976   0.675   3.148   0.168 -0.7645 -0.2590  0.9058
 3255WAT     H2 9977   0.688   3.066   0.041 -1.3422  0.3756  0.4309
 3256WAT      O 9978   4.149   3.614   1.333  0.1108  0.4815  0.2950
 3256WAT     H1 9979   4.095   3.680   1.377  0.2638 -0.0912  1.3677
 3256WAT     H2 9980   4.178   3.657   1.252 -0.5597  1.3929  0.5249
 3257WAT      O 9981   0.142   3.601   1.349  0.1522  0.0275 -0.5364
 3257WAT     H1 9982   0.130   3.512   1.317 -0.8941  0.2443 -0.7724
 3257WAT     H2 9983   0.234   3.604   1.377  0.8469 -0.4395 -2.6293
 3258WAT      O 9984   1.126   3.522   2.065  0.5182  0.0864 -0.1159
 3258WAT     H1 9985   1.042   3.536   2.022  0.8415 -0.1741 -0.8530
 3258WAT     H2 9986   1.104   3.479   2.148 -0.0167 -0.7401 -0.6741
 3259WAT      O 9987   4.399   4.240   0.962 -0.4621 -0.4460  0.4481
 3259WAT     H1 9988   4.361   4.323   0.935  0.5392  0.0900  0.6469
 3259WAT     H2 9989   4.355   4.175   0.908  1.8250  0.6152 -3.0199
 3260WAT      O 9990   0.781   2.889   4.870 -0.5358  0.3248 -0.4723
 3260WAT     H1 9991   0.723   2.821   4.905 -1.7678  0.6055 -1.8423
 3260WAT     H2 9992   0.751   2.901   4.779  0.9201  1.3306 -0.8556
 3261WAT      O 9993   0.799   0.983   4.763 -0.3461 -0.7638 -1.0005
 3261WAT     H1 9994   0.878   0.983   4.817  0.4670 -0.6662 -2.1382
 3261WAT     H2 9995   0.768   1.074   4.765 -1.6300 -1.1847  1.0715
 3262WAT      O 9996   2.181   4.211   2.490  0.3360 -0.1932 -0.2682
 3262WAT     H1 9997   2.086   4.204   2.498  0.5039 -1.3729  1.1306
 3262WAT     H2 9998   2.195   4.287   2.433 -1.3768  2.5217  2.6300
 3263WAT      O 9999   2.676   2.066   4.375 -0.1840 -0.1246 -0.3121
 3263WAT     H110000   2.654   1.974   4.389 -0.6432 -0.0823 -0.7300
 3263WAT     H210001   2.729   2.067   4.296 -1.5137  0.1215 -1.2423
 3264WAT      O10002   4.032   4.056   4.734  0.8451  0.6139 -0.1461
 3264WAT     H110003   3.964   4.121   4.751 -0.6058 -0.9931  0.4309
 3264WAT     H210004   4.056   4.022   4.820  1.7566  0.5407 -0.4180
 3265WAT      O10005   0.002   3.476   2.869  0.4035  0.1615  0.0778
 3265WAT     H110006   0.024   3.449   2.958  0.2103  1.9460  0.6999
 3265WAT     H210007   0.075   3.443   2.816  0.9296 -0.2256  1.0192
 3266WAT      O10008   0.749   0.805   1.340  0.0521 -0.2495  0.6109
 3266WAT     H110009   0.739   0.715   1.370 -1.0282  0.0141  1.0973
 3266WAT     H210010   0.771   0.797   1.247 -1.3299 -1.0058  0.3243
 3267WAT      O10011   1.421   3.932   3.435  0.1131  0.2781 -0.2002
 3267WAT     H110012   1.362   3.973   3.499  2.4174 -0.0666  2.3571
 3267WAT     H210013   1.435   3.844   3.470  0.1930 -0.5057 -2.1272
 3268WAT      O10014   0.398   0.828   1.514 -0.6633  0.0752  0.4929
 3268WAT     H110015   0.354   0.750   1.548 -1.0411 -0.2068 -0.6307
 3268WAT     H210016   0.328   0.892   1.502 -0.9988 -0.6695 -2.1646
 3269WAT      O10017   1.422   2.530   0.246 -0.2730 -0.4564  0.6438
 3269WAT     H110018   1.397   2.544   0.154  1.4613 -0.1079  0.1915
 3269WAT     H210019   1.360   2.464   0.277 -1.0815 -0.3716 -0.6834
 3270WAT      O10020   2.341   4.528   3.241  0.3933  0.1276 -0.5065
 3270WAT     H110021   2.257   4.551   3.201  0.3945 -1.6132 -1.5999
 3270WAT     H210022   2.382   4.468   3.178  2.0166  0.1456  0.4741
 3271WAT      O10023   4.020   1.922   2.838 -0.0856  0.6938 -0.5898
 3271WAT     H110024   4.004   1.832   2.866 -0.6188  0.6122 -1.1166
 3271WAT     H210025   4.112   1.924   2.813 -0.4688 -0.1946 -2.2421
 3272WAT      O10026   3.980   3.005   2.004  0.0449  0.1722 -0.2904
 3272WAT     H110027   3.979   3.087   1.956 -0.5785 -0.8023 -2.0081
 3272WAT     H210028   4.042   2.949   1.956 -1.5981 -1.2792 -0.8129
 3273WAT      O10029   4.261   1.825   4.598 -0.1651 -0.1215 -0.5461
 3273WAT     H110030   4.349   1.815   4.560  0.0610  1.1424 -0.3847
 3273WAT     H210031   4.212   1.875   4.533 -0.7745 -0.7873 -0.6174
 3274WAT      O10032   0.761   4.687   2.972 -0.2828 -0.3021 -0.1723
 3274WAT     H110033   0.750   4.606   2.921  0.6589 -0.6619  0.1790
 3274WAT     H210034   0.747   4.660   3.063 -2.5232  0.4470 -0.2302
 3275WAT      O10035   3.783   0.804   2.633 -0.2975 -0.1188  0.0318
 3275WAT     H110036   3.693   0.830   2.613 -1.6104 -4.5486 -0.8688
 3275WAT     H210037   3.832   0.822   2.553 -0.5195  1.4239  0.2043
 3276WAT      O10038   2.218   1.963   0.672 -0.0984 -0.6610  0.2147
 3276WAT     H110039   2.137   1.913   0.661 -2.0653  1.5044  3.2386
 3276WAT     H210040   2.190   2.054   0.675  2.5981  0.2343  0.4807
 3277WAT      O10041   1.618   2.213   4.087 -0.6301  0.5144 -0.0728
 3277WAT     H110042   1.584   2.138   4.039 -0.2092  0.0073  0.3993
 3277WAT     H210043   1.649   2.176   4.170 -2.9757  1.5862  1.4038
 3278WAT      O10044   1.770   2.081   3.139 -0.1005 -0.2888  0.2930
 3278WAT     H110045   1.771   1.987   3.153  0.1407 -0.2609  0.4739
 3278WAT     H210046   1.773   2.119   3.226  2.9475 -0.1148  0.2398
 3279WAT      O10047   1.074   2.194   0.840 -0.1913 -0.0055  0.2077
 3279WAT     H110048   1.093   2.219   0.931 -3.1230  0.3020  0.8483
 3279WAT     H210049   1.027   2.110   0.848  0.7324 -0.6951 -1.1726
 3280WAT      O10050   3.323   1.330   4.488  0.2262  0.4926 -0.2881
 3280WAT     H110051   3.271   1.397   4.531  0.5808 -0.8009  2.3823
 3280WAT     H210052   3.387   1.303   4.554  1.0129 -1.4502 -1.7290
 3281WAT      O10053   3.781   3.602   2.747  0.1982  0.0445 -0.9846
 3281WAT     H110054   3.703   3.581   2.798  0.7425 -0.4276 -0.3397
 3281WAT     H210055   3.768   3.694   2.720 -0.9492 -0.2794 -1.5911
 3282WAT      O10056   3.438   0.236   0.984 -0.6879 -0.0287  0.3826
 3282WAT     H110057   3.458   0.252   0.892  0.3684 -0.0631  0.5991
 3282WAT     H210058   3.344   0.213   0.984 -0.6478 -0.2696 -0.7046
 3283WAT      O10059   2.035   0.706   4.038  0.1624 -0.3943  0.6515
 3283WAT     H110060   2.115   0.656   4.058  1.5473  1.7175  0.7085
 3283WAT     H210061   2.008   0.674   3.952  0.9644 -1.2460  0.6929
 3284WAT      O10062   0.115   2.882   2.516 -0.1833  0.2729 -0.5191
 3284WAT     H110063   0.163   2.877   2.434  1.6997  1.0553  0.4881
 3284WAT     H210064   0.182   2.876   2.584 -1.6966 -0.4896  0.9964
 3285WAT      O10065   3.785   4.285   4.263  0.2090 -0.2187  0.1681
 3285WAT     H110066   3.838   4.228   4.206  0.0027  0.3268 -0.5807
 3285WAT     H210067   3.848   4.323   4.324  0.0505 -3.1673  2.3941
 3286WAT      O10068   2.843   0.483   3.760  0.2177 -0.4823  0.0884
 3286WAT     H110069   2.767   0.502   3.704  0.2780 -0.7373 -0.0827
 3286WAT     H210070   2.805   0.463   3.845  0.1273 -0.0384  0.1575
 3287WAT      O10071   2.368   1.288   0.032 -0.0236 -0.1661  0.6024
 3287WAT     H110072   2.457   1.253   0.031 -0.1229 -0.4386  1.2520
 3287WAT     H210073   2.379   1.380   0.056  0.0684 -0.2507  0.8914
 3288WAT      O10074   0.566   0.498   4.975  0.4738 -0.4698 -0.4057
 3288WAT     H110075   0.612   0.580   4.994 -0.1075 -0.6020  1.7618
 3288WAT     H210076   0.636   0.434   4.965  0.8917  0.0887 -1.2246
 3289WAT      O10077   3.451   0.095   5.102 -0.7636  0.0314 -0.2903
 3289WAT     H110078   3.503   0.064   5.028 -1.7546  2.0497 -1.9133
 3289WAT     H210079   3.485   0.183   5.120 -0.8708 -0.2358  1.3688
 3290WAT      O10080   3.927   3.789   3.501  0.1132  0.2325 -0.5751
 3290WAT     H110081   3.856   3.735   3.535  0.3686 -0.2259 -0.7624
 3290WAT     H210082   3.883   3.865   3.463 -0.3579 -0.5609 -1.6570
 3291WAT      O10083   3.217   1.386   2.765  0.0893  0.8921  0.3059
 3291WAT     H110084   3.128   1.391   2.731 -0.2330 -0.9478  0.7840
 3291WAT     H210085   3.265   1.337   2.699  0.7979  1.9160  0.0262
 3292WAT      O10086   1.892   2.440   2.123  0.7839 -0.1056  0.5624
 3292WAT     H110087   1.922   2.352   2.143  0.7634  0.2739  2.4780
 3292WAT     H210088   1.798   2.438   2.143  0.9041  0.4887  1.2448
 3293WAT      O10089   0.974   2.530   3.184  0.1536  0.3811 -0.0257
 3293WAT     H110090   0.901   2.555   3.127  1.6252  0.9896 -1.7769
 3293WAT     H210091   1.038   2.601   3.172  1.8171 -1.0693 -0.0696
 3294WAT      O10092   1.143   0.958   1.270  0.7655 -0.1870  0.1940
 3294WAT     H110093   1.208   0.911   1.219  1.3796  0.4077  0.4184
 3294WAT     H210094   1.071   0.973   1.209  0.4640 -1.5784  0.1740
 3295WAT      O10095   2.899   0.550   4.673 -0.4756 -0.0205  0.0228
 3295WAT     H110096   2.825   0.543   4.613 -2.0989 -0.3451  1.9592
 3295WAT     H210097   2.881   0.628   4.725 -0.7404 -1.3889  2.0988
 3296WAT      O10098   4.149   0.441   0.345 -0.2987 -0.0949 -0.0675
 3296WAT     H110099   4.093   0.393   0.405 -0.6419 -1.3831 -1.3635
 3296WAT     H210100   4.110   0.425   0.258  0.5821  1.1167 -0.7219
 3297WAT      O10101   3.926   4.377   4.613  0.2903 -0.0668 -0.1511
 3297WAT     H110102   3.968   4.323   4.546 -0.8205  1.0468 -1.8133
 3297WAT     H210103   3.888   4.314   4.674 -0.0714 -1.1781 -1.4627
 3298WAT      O10104   2.226   4.882   0.866  0.3345 -0.1309  0.3609
 3298WAT     H110105   2.322   4.888   0.865  0.4402 -0.6841 -2.8950
 3298WAT     H210106   2.206   4.804   0.815 -1.8826  1.3712 -1.2533
 3299WAT      O10107   1.857   3.984   1.428  0.3891  0.6464 -0.5021
 3299WAT     H110108   1.878   3.892   1.438  0.7485  0.3556 -3.1771
 3299WAT     H210109   1.762   3.987   1.421  0.2862  0.6459  0.7229
 3300WAT      O10110   0.642   2.917   0.955  0.6670 -0.2709 -0.3411
 3300WAT     H110111   0.618   2.958   1.038  0.9789 -0.0958 -0.3337
 3300WAT     H210112   0.590   2.964   0.890 -0.9025 -1.5800 -0.0768
 3301WAT      O10113   1.093   0.425   2.510  0.1467  0.2104 -0.1847
 3301WAT     H110114   1.056   0.493   2.566 -0.0385  0.4699 -0.6128
 3301WAT     H210115   1.137   0.365   2.570 -0.5117  0.1896  0.2834
 3302WAT      O10116   0.794   1.834   1.690 -0.1724 -0.1073  0.0460
 3302WAT     H110117   0.775   1.745   1.720 -0.8906  0.2317  0.6271
 3302WAT     H210118   0.805   1.885   1.770  1.5153  0.0866 -0.2672
 3303WAT      O10119   0.179   2.887   4.780 -0.3609  0.2380  0.1079
 3303WAT     H110120   0.162   2.796   4.755 -1.2372  0.4175  0.0127
 3303WAT     H210121   0.098   2.914   4.824 -0.2274  1.0754 -0.1585
 3304WAT      O10122   0.771   4.420   4.188  0.5125  0.0296 -0.0543
 3304WAT     H110123   0.722   4.498   4.215  0.5052  0.2490 -0.6750
 3304WAT     H210124   0.704   4.362   4.151  0.7774  0.5775 -1.4605
 3305WAT      O10125   3.065   4.938   0.317 -0.2627 -0.4509 -0.2296
 3305WAT     H110126   2.999   4.891   0.267 -0.5148 -1.4467  0.9896
 3305WAT     H210127   3.061   4.899   0.404  0.3749  1.0096  0.4871
 3306WAT      O10128   4.090   4.567   3.655 -0.0150  0.0074  0.5066
 3306WAT     H110129   4.044   4.488   3.626 -1.2239  0.0394  2.1814
 3306WAT     H210130   4.134   4.599   3.576 -1.6329 -0.8989 -0.8486
 3307WAT      O10131   1.925   4.788   0.622  0.3270  0.4931  0.3770
 3307WAT     H110132   1.911   4.845   0.698 -3.0497  0.5588 -0.1385
 3307WAT     H210133   1.947   4.847   0.551 -2.3597  1.2134  0.0326
 3308WAT      O10134   1.386   0.578   0.020  0.1570  0.5243 -0.1378
 3308WAT     H110135   1.335   0.658   0.007 -2.8046 -0.6853  2.6254
 3308WAT     H210136   1.414   0.583   0.112  1.1664 -0.9651 -0.3316
 3309WAT      O10137   3.455   4.931   0.585  0.0597 -0.1015  0.0831
 3309WAT     H110138   3.429   4.946   0.494 -1.4753 -1.2164  0.3040
 3309WAT     H210139   3.500   5.012   0.610 -0.6992  0.7689 -1.2406
 3310WAT      O10140   0.517   4.334   3.080 -0.1671 -0.0299 -0.5026
 3310WAT     H110141   0.559   4.263   3.130 -1.3659 -0.9585 -0.7734
 3310WAT     H210142   0.442   4.292   3.038  0.1084  1.0204 -2.1022
 3311WAT      O10143   4.361   0.428   2.268 -0.3098  0.6630 -0.0385
 3311WAT     H110144   4.361   0.395   2.357 -2.1510 -0.2483 -0.3378
 3311WAT     H210145   4.390   0.354   2.214  1.5477  1.4306 -0.1731
 3312WAT      O10146   1.599   0.974   3.892 -0.1946 -0.7117  0.5831
 3312WAT     H110147   1.539   1.006   3.824 -1.5062  0.1700  2.1010
 3312WAT     H210148   1.635   1.054   3.932  3.0943 -1.1696 -1.1063
 3313WAT      O10149   4.119   3.033   3.969 -0.2216  0.1693  0.4695
 3313WAT     H110150   4.078   3.119   3.961  1.0052  0.7028 -0.3620
 3313WAT     H210151   4.107   2.992   3.883 -1.6374 -0.9132  1.1363
 3314WAT      O10152   2.377   4.398   0.891 -0.0407  0.6266  0.4865
 3314WAT     H110153   2.299   4.453   0.893 -0.2571  0.5691 -2.1954
 3314WAT     H210154   2.344   4.309   0.882  0.3396  0.3929  1.2952
 3315WAT      O10155   3.216   2.085   3.402 -0.3073  0.2829 -0.3533
 3315WAT     H110156   3.166   2.123   3.329 -0.3743  1.4830  0.2937
 3315WAT     H210157   3.267   2.015   3.361 -0.0803  1.1473 -1.6373
 3316WAT      O10158   3.850   1.233   0.099 -0.1710  0.2955  0.1179
 3316WAT     H110159   3.808   1.307   0.055  1.2395  0.2210 -1.4627
 3316WAT     H210160   3.844   1.254   0.192 -1.5656  1.4059 -0.1816
 3317WAT      O10161   2.073   1.920   2.942  0.1506 -0.1696  0.1521
 3317WAT     H110162   1.979   1.922   2.924  0.6135 -0.8090 -2.9714
 3317WAT     H210163   2.096   2.012   2.961 -1.0837 -0.0474  1.1841
 3318WAT      O10164   4.240   0.919   4.468  0.0815  0.0721 -0.8619
 3318WAT     H110165   4.302   0.978   4.510 -0.4991 -0.9751  1.6078
 3318WAT     H210166   4.156   0.967   4.470  0.0692  0.0568 -0.9670
 3319WAT      O10167   1.398   3.597   1.979 -0.1042 -0.3020 -0.2702
 3319WAT     H110168   1.349   3.581   2.061 -0.2153 -1.0614 -0.4753
 3319WAT     H210169   1.330   3.620   1.916 -0.0263  0.2019 -0.1770
 3320WAT      O10170   2.874   0.843   3.220  0.1325 -0.0866  0.4290
 3320WAT     H110171   2.963   0.867   3.244  1.1242  0.3045 -3.1348
 3320WAT     H210172   2.871   0.853   3.125 -3.9528  0.6111  0.4568
 3321WAT      O10173   1.226   2.772   2.642  0.5828 -0.2765  0.1526
 3321WAT     H110174   1.165   2.724   2.698 -0.7218 -1.0306 -1.7837
 3321WAT     H210175   1.230   2.860   2.680 -1.7855 -0.1903  0.3610
 3322WAT      O10176   1.433   4.392   2.506 -0.0793  0.4245 -0.2449
 3322WAT     H110177   1.396   4.374   2.593 -0.1210  0.0601 -0.3364
 3322WAT     H210178   1.399   4.322   2.451  3.4381 -2.0962  0.4055
 3323WAT      O10179   0.326   0.067   2.679  0.0562  0.0689 -0.2547
 3323WAT     H110180   0.397   0.086   2.742 -0.0580 -3.7029  1.2742
 3323WAT     H210181   0.246   0.071   2.732 -0.1887 -1.7352 -0.4384
 3324WAT      O10182   1.769   4.652   3.413 -0.2920 -0.1710 -0.0340
 3324WAT     H110183   1.801   4.574   3.459 -2.4720 -2.2079 -1.7471
 3324WAT     H210184   1.682   4.666   3.449 -0.0238  1.3855  0.0663
 3325WAT      O10185   4.438   0.856   0.853  0.2864 -0.2177  0.1850
 3325WAT     H110186   4.520   0.808   0.866 -0.7808 -1.7536  1.5555
 3325WAT     H210187   4.374   0.789   0.831 -0.4913  1.0552 -1.7740
 3326WAT      O10188   1.278   0.068   2.558 -0.1529  0.3154 -0.0299
 3326WAT     H110189   1.242  -0.021   2.553  0.8972 -0.0691 -1.7532
 3326WAT     H210190   1.368   0.059   2.526  0.3988  1.8022  0.9992
 3327WAT      O10191   3.582   1.973   1.203  0.7892  0.4057  0.1194
 3327WAT     H110192   3.620   2.045   1.153  2.6199  0.5516  1.6442
 3327WAT     H210193   3.656   1.921   1.233  0.1174  1.5677  4.5623
 3328WAT      O10194   0.167   4.813   1.396  0.8366  0.3699  0.4473
 3328WAT     H110195   0.163   4.777   1.485 -0.0211  0.4191  0.4422
 3328WAT     H210196   0.193   4.740   1.341  1.6476  0.4080  0.7735
 3329WAT      O10197   0.913   0.810   4.094  0.3898 -0.0606 -0.6534
 3329WAT     H110198   0.912   0.902   4.064 -3.9481  0.7639  1.2399
 3329WAT     H210199   0.823   0.781   4.082  1.5966 -4.1750 -1.0635
 3330WAT      O10200   1.497   0.707   3.275  0.3494  0.4475 -0.5542
 3330WAT     H110201   1.449   0.626   3.292  0.1629  0.6125 -0.2907
 3330WAT     H210202   1.519   0.741   3.362  0.4038  0.6940 -0.6630
 3331WAT      O10203   1.003   3.173   2.032  0.4808 -0.3067 -0.0232
 3331WAT     H110204   1.083   3.213   2.065 -0.6156  2.5429 -0.4715
 3331WAT     H210205   1.015   3.168   1.937  0.1143  0.3314 -0.1174
 3332WAT      O10206   3.526   2.841   0.458 -0.4984 -0.2231  0.2438
 3332WAT     H110207   3.469   2.898   0.407 -0.4651  0.0483  0.5089
 3332WAT     H210208   3.468   2.772   0.491 -0.3406 -0.9893 -1.0012
 3333WAT      O10209   1.973   4.496   2.849  0.4421  0.4231 -0.0697
 3333WAT     H110210   2.054   4.460   2.885  0.9280  1.2857 -0.2815
 3333WAT     H210211   1.921   4.518   2.926  0.1680 -0.6627  0.0595
 3334WAT      O10212   2.757   2.676   2.551  0.1521  0.0428  0.7106
 3334WAT     H110213   2.667   2.675   2.585 -0.2436 -0.2553 -0.3204
 3334WAT     H210214   2.782   2.584   2.547  1.0422  0.1814  2.3317
 3335WAT      O10215   3.366   4.881   4.975 -0.0460  0.1496 -0.0623
 3335WAT     H110216   3.393   4.801   5.019  1.2515  1.3137  1.3847
 3335WAT     H210217   3.284   4.858   4.931 -1.1154 -1.2910  2.4636
 3336WAT      O10218   0.513   2.415   2.151  0.2357  0.4317 -0.7881
 3336WAT     H110219   0.463   2.424   2.232 -0.2559  2.3745 -1.2576
 3336WAT     H210220   0.447   2.392   2.085  0.6283 -1.1076 -0.7017
 3337WAT      O10221   1.666   2.579   4.722  0.0262  0.3196  0.0493
 3337WAT     H110222   1.667   2.496   4.769 -1.4130  0.5008  0.4346
 3337WAT     H210223   1.576   2.590   4.693 -0.4703  2.8829  2.1099
 3338WAT      O10224   0.570   4.738   0.695 -0.4780 -0.3663 -0.1615
 3338WAT     H110225   0.650   4.775   0.659  0.0002  0.7598  1.9020
 3338WAT     H210226   0.501   4.768   0.636  0.2872  1.1483 -0.3244
 3339WAT      O10227   3.250   1.134   0.052 -0.0324  0.4325  0.2325
 3339WAT     H110228   3.156   1.113   0.054 -0.5587  2.5281  0.1299
 3339WAT     H210229   3.285   1.096   0.132 -1.1695  0.4306  0.7413
 3340WAT      O10230   1.096   2.071   4.627 -0.1656 -0.2718  0.5101
 3340WAT     H110231   1.052   2.153   4.649 -0.1806  0.6911 -2.6219
 3340WAT     H210232   1.043   2.032   4.558  0.9539 -1.8701  0.4891
 3341WAT      O10233   4.488   2.761   4.349  0.0327  0.0127  0.5764
 3341WAT     H110234   4.575   2.742   4.314 -0.0797  0.0344  0.2849
 3341WAT     H210235   4.465   2.846   4.312  1.1310  1.4860  2.9839
 3342WAT      O10236   3.499   1.641   2.142 -0.2042 -0.0210  0.7298
 3342WAT     H110237   3.427   1.580   2.157 -1.7706  1.3165 -0.8477
 3342WAT     H210238   3.547   1.604   2.068 -0.8651  0.4005  0.0837
 3343WAT      O10239   2.031   2.016   0.175 -0.2902  0.4666 -0.4773
 3343WAT     H110240   1.983   2.099   0.168 -0.6181  0.1444 -2.7089
 3343WAT     H210241   2.121   2.043   0.196 -0.5349  1.3607 -0.5183
 3344WAT      O10242   1.030   4.900   3.367 -0.6371 -0.0784 -0.1844
 3344WAT     H110243   0.946   4.890   3.412 -0.7508 -3.0201 -0.8538
 3344WAT     H210244   1.082   4.825   3.395  2.1966  2.0856  0.8531
 3345WAT      O10245   3.949   2.025   2.308 -0.5229  0.1032 -0.3566
 3345WAT     H110246   3.863   2.036   2.349 -0.6397 -0.9525 -0.2820
 3345WAT     H210247   3.981   1.942   2.343  0.5941  0.5555 -0.2816
 3346WAT      O10248   1.054   1.048   3.447 -0.1288 -0.4999  0.8511
 3346WAT     H110249   1.033   0.983   3.514  0.7696  0.3599  2.0003
 3346WAT     H210250   1.146   1.031   3.425  0.6811  1.4151  2.4349
 3347WAT      O10251   1.994   4.772   4.458 -0.2034  0.5953  0.1465
 3347WAT     H110252   2.055   4.702   4.435 -0.0683  0.5112  0.7463
 3347WAT     H210253   1.914   4.749   4.410  0.0678  0.4227 -0.2303
 3348WAT      O10254   1.052   4.716   3.734 -0.2324 -0.6473 -0.1031
 3348WAT     H110255   1.037   4.636   3.685 -2.4455 -0.6807  0.5033
 3348WAT     H210256   0.971   4.729   3.784  1.2291  0.3033  2.1897
 3349WAT      O10257   0.413   4.384   1.785 -0.3073 -1.1107  0.5772
 3349WAT     H110258   0.415   4.296   1.748 -1.4174 -0.0684 -2.2773
 3349WAT     H210259   0.477   4.434   1.734  0.4340 -0.2581  2.2525
 3350WAT      O10260   4.024   1.776   1.824  0.3884 -0.0307  0.4649
 3350WAT     H110261   3.944   1.799   1.775  0.4033  0.5100  0.6909
 3350WAT     H210262   4.002   1.793   1.915  1.0086  0.8341  0.4561
 3351WAT      O10263   0.302   1.261   0.331 -0.0233  0.3667 -0.7011
 3351WAT     H110264   0.325   1.245   0.423 -1.1927 -2.0441 -0.7387
 3351WAT     H210265   0.356   1.336   0.305 -0.1815  1.5790  2.1237
 3352WAT      O10266   3.791   4.895   0.627  0.4276 -0.4767 -0.1173
 3352WAT     H110267   3.864   4.941   0.585 -0.8688 -0.4988 -2.6153
 3352WAT     H210268   3.715   4.950   0.609 -0.5744 -1.7558  0.0659
 3353WAT      O10269   3.676   1.038   0.352  0.0655  0.1756 -0.3066
 3353WAT     H110270   3.593   1.079   0.327  0.4186  0.9075 -0.3031
 3353WAT     H210271   3.721   1.023   0.269  0.4185  0.8467 -0.2446
 3354WAT      O10272   3.582   1.104   1.548  0.3163 -0.2704 -0.4826
 3354WAT     H110273   3.531   1.087   1.627  0.2919 -0.7231 -0.5966
 3354WAT     H210274   3.646   1.034   1.545  1.8342  1.0275  0.3726
 3355WAT      O10275   2.606   4.324   4.317 -0.4555  0.4228 -0.0520
 3355WAT     H110276   2.605   4.402   4.372 -2.0561  0.7919 -0.5568
 3355WAT     H210277   2.645   4.353   4.235 -0.1433  0.4252  0.0927
 3356WAT      O10278   4.117   4.334   4.042  0.0942  0.1316 -0.2809
 3356WAT     H110279   4.092   4.272   3.973  1.1296 -1.2483  0.5336
 3356WAT     H210280   4.211   4.321   4.053  0.5713  2.6134 -0.7797
 3357WAT      O10281   3.716   1.064   1.256 -0.1454  0.3596 -0.1573
 3357WAT     H110282   3.666   1.086   1.335  2.0154 -2.3678  2.1663
 3357WAT     H210283   3.791   1.124   1.257  0.2013 -0.0763  0.2234
 3358WAT      O10284   2.974   3.665   4.627  0.1261 -0.1338  0.0293
 3358WAT     H110285   2.984   3.684   4.720 -0.7221 -1.3508  0.3843
 3358WAT     H210286   3.049   3.609   4.605  0.4486  0.3348 -0.0841
 3359WAT      O10287   4.249   2.806   4.781 -0.1211  0.0275  0.1737
 3359WAT     H110288   4.328   2.844   4.819  0.9300 -0.5891 -1.3186
 3359WAT     H210289   4.208   2.878   4.733 -0.0949  0.1667  0.3578
 3360WAT      O10290   4.187   0.116   0.889 -0.7052 -0.2451 -0.2367
 3360WAT     H110291   4.111   0.135   0.835 -1.1885  1.9427  1.0638
 3360WAT     H210292   4.262   0.147   0.837 -0.4620 -3.3170 -1.9523
 3361WAT      O10293   0.764   0.786   3.690  0.0120 -0.0415 -0.1234
 3361WAT     H110294   0.747   0.721   3.621 -0.1982  0.4914 -0.5757
 3361WAT     H210295   0.680   0.794   3.736 -0.4592  1.1441 -1.1306
 3362WAT      O10296   4.086   0.653   1.190  0.5682 -0.3548 -0.5033
 3362WAT     H110297   4.161   0.669   1.248  1.4232 -0.5622 -1.4991
 3362WAT     H210298   4.106   0.569   1.148 -1.4403 -1.6696  0.9987
 3363WAT      O10299   2.291   4.621   0.742  0.2298  0.7323 -0.8495
 3363WAT     H110300   2.383   4.602   0.762 -0.2633  0.0230  1.0510
 3363WAT     H210301   2.290   4.640   0.649  2.2818  0.6215 -0.9494
 3364WAT      O10302   1.890   3.491   2.404 -0.2251  0.4971  0.4580
 3364WAT     H110303   1.803   3.531   2.398 -0.9149 -1.0332 -0.3363
 3364WAT     H210304   1.950   3.565   2.410 -1.4203  1.6922 -1.2899
 3365WAT      O10305   2.559   2.886   2.015  0.2511 -0.6124 -0.2991
 3365WAT     H110306   2.472   2.848   2.022  0.1152 -0.1424  0.7689
 3365WAT     H210307   2.569   2.907   1.922 -2.1154  2.3910 -0.0598
 3366WAT      O10308   2.643   1.428   4.680  0.5707  0.5566  0.1755
 3366WAT     H110309   2.716   1.418   4.741 -0.9276  0.1243  2.0251
 3366WAT     H210310   2.570   1.385   4.724 -0.9061  1.3342 -1.3995
 3367WAT      O10311   2.392   4.329   0.498 -0.0658 -0.4465  0.2865
 3367WAT     H110312   2.459   4.303   0.561  2.2834  1.0212 -1.4583
 3367WAT     H210313   2.360   4.247   0.461  0.3309 -1.2021  1.5465
 3368WAT      O10314   0.609   4.833   0.425 -0.0698 -0.1742 -0.2861
 3368WAT     H110315   0.623   4.848   0.331 -1.6941 -0.0509 -0.5446
 3368WAT     H210316   0.525   4.787   0.429 -1.2989  1.9969  1.1854
 3369WAT      O10317   3.324   4.201   1.890 -0.3150  0.1029  0.0520
 3369WAT     H110318   3.410   4.159   1.893 -0.8459 -1.1220 -1.0474
 3369WAT     H210319   3.324   4.249   1.807  0.0004  1.7240  0.9428
 3370WAT      O10320   2.623   1.341   1.273 -0.5553  0.1448 -0.2840
 3370WAT     H110321   2.596   1.374   1.187 -1.1468 -1.5544 -0.7947
 3370WAT     H210322   2.572   1.260   1.284 -0.3776  0.2614  1.6120
 3371WAT      O10323  -0.029   2.081   1.783 -0.0624 -0.2690  0.1740
 3371WAT     H110324   0.033   2.103   1.713 -1.1097  0.3923 -0.5848
 3371WAT     H210325   0.011   2.117   1.862  0.5478  0.1220 -0.2947
 3372WAT      O10326   1.110   2.854   4.316  0.1299  0.4148 -0.4542
 3372WAT     H110327   1.136   2.818   4.232  0.4022  0.4904 -0.4048
 3372WAT     H210328   1.144   2.944   4.315 -1.0346  0.8595 -0.8074
 3373WAT      O10329   4.189   0.312   1.104  0.0534  0.2184 -0.0308
 3373WAT     H110330   4.103   0.333   1.140 -0.7877  1.0190 -2.3840
 3373WAT     H210331   4.171   0.265   1.023  1.8968 -1.8437  0.6422
 3374WAT      O10332   1.579   0.355   0.948 -0.0695  0.8939 -0.2267
 3374WAT     H110333   1.492   0.317   0.959 -0.1096  1.6480  3.4805
 3374WAT     H210334   1.578   0.433   1.003  2.5314  1.7778 -1.2534
 3375WAT      O10335   2.917   0.193   2.376 -0.1720 -0.0578  0.2377
 3375WAT     H110336   2.859   0.160   2.445 -2.3564  1.8395 -0.5742
 3375WAT     H210337   2.986   0.239   2.424  0.1782 -1.5181  1.2066
 3376WAT      O10338   3.484   3.950   1.080 -0.0366  0.2436  0.0530
 3376WAT     H110339   3.527   4.001   1.011  0.6409  0.7619  0.8381
 3376WAT     H210340   3.404   3.999   1.100  0.3079  0.6780  0.3813
 3377WAT      O10341   0.480   2.390   0.429 -0.5017 -0.6837 -0.6122
 3377WAT     H110342   0.399   2.438   0.409  0.0679  0.1638 -0.9574
 3377WAT     H210343   0.465   2.351   0.515 -1.5498 -1.1528 -0.9955
 3378WAT      O10344   1.797   1.374   3.054  0.2437  0.5981  0.3735
 3378WAT     H110345   1.784   1.279   3.053  1.4400  0.4108  0.6473
 3378WAT     H210346   1.773   1.402   2.966 -2.3522  0.4093  0.9345
 3379WAT      O10347   2.109   2.636   3.255  0.4487  0.0414  0.1497
 3379WAT     H110348   2.176   2.577   3.222  0.4730  0.1191  0.0627
 3379WAT     H210349   2.056   2.658   3.179  0.7522  0.5486  0.0818
 3380WAT      O10350   4.201   1.965   4.365  0.6233  1.0606 -0.0239
 3380WAT     H110351   4.267   2.032   4.381 -0.4257  1.7481  1.6981
 3380WAT     H210352   4.123   2.013   4.341  0.0898  0.3973  0.3468
 3381WAT      O10353   2.277   4.648   5.039 -0.5400  0.8357 -0.5494
 3381WAT     H110354   2.209   4.620   4.978  0.0824  1.9243 -1.7880
 3381WAT     H210355   2.336   4.573   5.047 -1.2777  0.2679 -0.3205
 3382WAT      O10356   4.164   3.238   3.561  0.1419  0.6493 -0.4230
 3382WAT     H110357   4.070   3.249   3.575  0.2487  0.6768  0.3094
 3382WAT     H210358   4.181   3.281   3.477 -0.4677  0.7930 -0.4765
 3383WAT      O10359   3.192   3.901   2.930  0.2599 -1.2663  0.3364
 3383WAT     H110360   3.263   3.938   2.878  0.3565 -0.9996  0.6581
 3383WAT     H210361   3.200   3.942   3.016 -1.6932  0.5904 -0.2667
 3384WAT      O10362   2.424   1.910   5.034  0.1456 -0.1752 -0.2842
 3384WAT     H110363   2.497   1.869   4.989 -0.8047  0.1672 -2.2238
 3384WAT     H210364   2.385   1.839   5.086  1.9600 -0.2959  1.0215
 3385WAT      O10365   3.210   1.713   1.127 -0.5650  0.0624  1.1279
 3385WAT     H110366   3.155   1.665   1.064  0.0483 -0.4481  0.9695
 3385WAT     H210367   3.296   1.715   1.087 -0.0868 -0.5373  2.0759
 3386WAT      O10368   1.804   0.993   1.685 -0.4526 -0.5114 -0.2597
 3386WAT     H110369   1.830   0.999   1.593  0.9696 -0.5089  0.1204
 3386WAT     H210370   1.864   0.929   1.723 -1.3253 -0.8562  0.5756
 3387WAT      O10371   3.959   2.652   2.159 -0.1435  0.5281 -0.4713
 3387WAT     H110372   3.995   2.648   2.248 -1.5558 -0.4067  0.1021
 3387WAT     H210373   4.033   2.633   2.102  0.1810 -1.9746  0.6683
 3388WAT      O10374   3.514   2.097   2.969  0.2596 -0.5246 -0.4941
 3388WAT     H110375   3.591   2.044   2.949  0.1788 -0.8121 -0.0686
 3388WAT     H210376   3.450   2.072   2.902  0.4423 -0.4915 -0.6797
 3389WAT      O10377   2.227   3.644   0.260  0.5173  0.3548  0.1256
 3389WAT     H110378   2.251   3.591   0.184  0.0003  0.0433  0.1700
 3389WAT     H210379   2.310   3.673   0.297  0.7714  0.7963 -0.7543
 3390WAT      O10380   4.345   1.595   3.848  0.4260 -0.6675 -0.2873
 3390WAT     H110381   4.291   1.527   3.887  0.8062 -1.5449 -1.2480
 3390WAT     H210382   4.320   1.596   3.756  1.4234 -0.5041 -0.5759
 3391WAT      O10383   3.126   0.118   3.478 -0.5289  0.1030 -0.3709
 3391WAT     H110384   3.046   0.147   3.522  0.1185  0.1135  0.8148
 3391WAT     H210385   3.143   0.031   3.513 -0.3328 -0.1360 -1.0503
 3392WAT      O10386   1.069   0.238   0.989 -0.0606  0.5241  0.1123
 3392WAT     H110387   1.034   0.263   0.903 -0.3490  0.3288  0.1696
 3392WAT     H210388   1.005   0.176   1.023  1.2266 -1.2235 -0.5274
 3393WAT      O10389   4.522   4.240   4.474 -0.7467  0.6378 -0.2322
 3393WAT     H110390   4.466   4.202   4.542  0.2401  3.4185  2.3428
 3393WAT     H210391   4.461   4.276   4.410 -1.7889  0.1601  0.4704
 3394WAT      O10392   4.452   1.391   2.589 -0.5401 -0.1539  0.2377
 3394WAT     H110393   4.439   1.408   2.495  0.2310  1.8225  0.4456
 3394WAT     H210394   4.363   1.389   2.626 -0.7787  1.4451 -0.1806
 3395WAT      O10395   1.278   2.699   1.120 -0.4701 -0.2442 -0.6049
 3395WAT     H110396   1.237   2.612   1.118  1.0093 -0.9998  0.2283
 3395WAT     H210397   1.302   2.713   1.211  0.4484  0.4813 -0.9384
 3396WAT      O10398   0.666   4.435   3.625 -0.1507 -0.2020 -0.0257
 3396WAT     H110399   0.606   4.468   3.558  0.3834  0.6444 -0.0967
 3396WAT     H210400   0.706   4.358   3.584 -0.2882 -0.0582 -0.4409
 3397WAT      O10401   3.996   3.673   0.692  0.5112  0.2095 -0.3626
 3397WAT     H110402   3.900   3.672   0.696  0.2307  0.6888 -3.9802
 3397WAT     H210403   4.020   3.580   0.695 -0.1591  0.0163 -0.7052
 3398WAT      O10404   1.882  -0.005   2.779  0.2509  0.4186 -0.1034
 3398WAT     H110405   1.795   0.018   2.812  0.1541  1.5588 -1.1132
 3398WAT     H210406   1.922   0.078   2.755  0.9220 -0.2444 -1.3735
 3399WAT      O10407   0.346   3.477   1.803 -0.2909  0.9333  0.5812
 3399WAT     H110408   0.344   3.506   1.894  0.2776  1.4404  0.4430
 3399WAT     H210409   0.277   3.412   1.797 -0.8199  1.4261  1.1926
 3400WAT      O10410   4.414   3.199   2.284  0.2759 -0.0674 -0.0458
 3400WAT     H110411   4.469   3.202   2.362 -1.1611  0.6910  1.0003
 3400WAT     H210412   4.334   3.246   2.310 -0.4708 -0.2955 -1.7964
 3401WAT      O10413   2.565   0.937   4.757  0.6785  0.0442 -0.7222
 3401WAT     H110414   2.584   1.023   4.792  0.3504 -0.2564  0.2114
 3401WAT     H210415   2.624   0.928   4.682  1.4750  0.6481 -0.1805
 3402WAT      O10416   1.194   2.510   3.402 -0.1117  0.2118  0.2174
 3402WAT     H110417   1.099   2.517   3.413  0.0401  1.5385  1.0120
 3402WAT     H210418   1.213   2.564   3.324  0.0866  0.9083  0.7315
 3403WAT      O10419   4.316   4.868   0.761 -0.4320 -0.0863 -0.1305
 3403WAT     H110420   4.408   4.891   0.771 -0.4703  0.4867 -1.0660
 3403WAT     H210421   4.272   4.916   0.831 -0.4079  2.1691 -1.5647
 3404WAT      O10422   1.772   2.560   4.418 -0.2622  0.7046 -0.2558
 3404WAT     H110423   1.772   2.627   4.487 -0.4640  1.4682 -0.9814
 3404WAT     H210424   1.853   2.511   4.433 -0.5044  0.6067  0.7653
 3405WAT      O10425   4.018   1.867   2.077 -0.6481  0.5148  0.1796
 3405WAT     H110426   4.033   1.961   2.078 -1.3502  0.6313  0.2967
 3405WAT     H210427   3.986   1.847   2.165 -2.8821  0.5855 -0.5614
 3406WAT      O10428   1.696  -0.010   0.083  0.1804 -0.0933  0.4331
 3406WAT     H110429   1.741  -0.022   0.167 -1.8069 -3.0631  1.2502
 3406WAT     H210430   1.757   0.041   0.030  1.4614  2.1050  3.6779
 3407WAT      O10431   3.586   0.247   4.312  0.3462 -0.0242  0.8865
 3407WAT     H110432   3.635   0.166   4.328  0.7449 -0.2526 -1.2800
 3407WAT     H210433   3.504   0.217   4.273  0.5978  0.6095 -0.1577
 3408WAT      O10434   4.509   2.769   4.007  0.0246  0.4996  0.2065
 3408WAT     H110435   4.583   2.739   3.954 -0.1592  1.2731 -0.4923
 3408WAT     H210436   4.434   2.766   3.948 -0.7705 -1.3631  1.2087
 3409WAT      O10437   3.119   4.575   0.237  0.4960 -0.0293 -0.1765
 3409WAT     H110438   3.113   4.642   0.169 -0.0398  0.6907  0.5633
 3409WAT     H210439   3.032   4.573   0.277  0.7596 -0.5345  0.3899
 3410WAT      O10440   0.867   4.837   4.549  0.5908  0.1799  0.0411
 3410WAT     H110441   0.799   4.889   4.592  0.1726 -0.0273 -0.3535
 3410WAT     H210442   0.842   4.746   4.566  0.4701  0.0988 -0.5620
 3411WAT      O10443   0.318   3.753   2.880 -0.4307  0.0242  0.4482
 3411WAT     H110444   0.265   3.730   2.956 -0.4577 -2.0783 -0.1565
 3411WAT     H210445   0.408   3.743   2.910 -0.2885  2.6538  1.1838
 3412WAT      O10446   4.067   4.231   4.412 -0.2216 -0.6125  0.6069
 3412WAT     H110447   4.073   4.140   4.443  0.3306 -0.8092 -0.0736
 3412WAT     H210448   4.154   4.252   4.381 -0.5535 -0.1232 -0.0140
 3413WAT      O10449   4.082   0.984   0.217  0.2864 -0.1785  0.1519
 3413WAT     H110450   4.115   0.909   0.167  0.0370 -0.9327  1.0847
 3413WAT     H210451   4.131   0.980   0.300  0.4800  0.8693  0.0971
 3414WAT      O10452   3.295   2.714   3.985  0.0300 -0.1686  0.5404
 3414WAT     H110453   3.294   2.701   4.080  0.6888  0.5823  0.6624
 3414WAT     H210454   3.379   2.757   3.968 -0.2160 -0.0273 -0.3476
 3415WAT      O10455   2.103   4.077   0.099  0.4680 -0.6741  1.5044
 3415WAT     H110456   2.019   4.033   0.096 -0.4058  0.8941 -1.0363
 3415WAT     H210457   2.162   4.020   0.050  0.1495 -0.5131  0.9226
 3416WAT      O10458   3.557   4.104   0.489 -0.1486  0.0300 -0.3748
 3416WAT     H110459   3.649   4.108   0.515 -0.3202 -1.0788  0.4984
 3416WAT     H210460   3.510   4.131   0.568 -0.6119 -1.0130 -0.2827
 3417WAT      O10461   2.059   4.670   3.820 -0.3917 -0.1103 -0.2210
 3417WAT     H110462   2.142   4.712   3.841 -1.6441  1.6976  1.5054
 3417WAT     H210463   2.073   4.631   3.734  2.6692 -1.1858  0.6458
 3418WAT      O10464   1.595   2.281   1.387  0.2728 -0.3460  0.4957
 3418WAT     H110465   1.622   2.336   1.460  1.2951 -2.2886  1.6562
 3418WAT     H210466   1.557   2.342   1.324  1.6398  1.7141  1.5528
 3419WAT      O10467   1.252   2.213   1.682 -0.1978  0.0035 -0.1333
 3419WAT     H110468   1.191   2.229   1.610  0.6166 -0.8191 -1.0377
 3419WAT     H210469   1.273   2.119   1.675  0.7607  0.1620  0.4724
 3420WAT      O10470   1.640   3.726   1.988 -0.3356  0.7263 -0.0311
 3420WAT     H110471   1.633   3.784   1.913 -0.7964  1.5711  0.6436
 3420WAT     H210472   1.556   3.681   1.991  0.2243 -0.4203 -0.8852
 3421WAT      O10473   1.268   2.629   2.308  0.2825 -0.1081 -0.1823
 3421WAT     H110474   1.261   2.594   2.396 -1.2232 -0.4833 -0.4201
 3421WAT     H210475   1.239   2.557   2.251 -0.7679  0.7914 -0.8228
 3422WAT      O10476   0.168   4.213   2.735  0.3475  0.4528  0.5700
 3422WAT     H110477   0.151   4.245   2.646  4.6478 -2.2208 -1.5430
 3422WAT     H210478   0.097   4.152   2.752 -0.8304  1.3675 -0.7806
 3423WAT      O10479   2.088   3.687   2.428 -0.6081 -0.4747 -0.4262
 3423WAT     H110480   2.113   3.753   2.362  0.0008 -1.6706 -1.4412
 3423WAT     H210481   2.170   3.643   2.449 -0.6185  0.4421  1.8469
 3424WAT      O10482   3.025   3.913   3.201  0.1345  0.5881  0.4390
 3424WAT     H110483   2.944   3.865   3.218 -0.6013  2.5485  2.9535
 3424WAT     H210484   3.001   3.979   3.137  0.4147 -0.3842 -0.7103
 3425WAT      O10485   3.314   0.175   4.173  0.0220 -0.0827 -0.8789
 3425WAT     H110486   3.356   0.103   4.127 -0.5651 -0.3231 -1.0486
 3425WAT     H210487   3.221   0.169   4.148 -0.8246 -1.6602  2.1031
 3426WAT      O10488   0.880   2.668   4.385 -0.0072  0.3815  0.5466
 3426WAT     H110489   0.948   2.687   4.449  0.3612  0.4901  0.1270
 3426WAT     H210490   0.923   2.679   4.300 -0.6111  0.7181  0.2738
 3427WAT      O10491   2.845   2.376   1.054 -0.0612 -0.0631  0.4918
 3427WAT     H110492   2.879   2.289   1.030 -1.3695 -0.4654  0.0052
 3427WAT     H210493   2.751   2.362   1.064 -0.7491  1.8270 -2.2645
 3428WAT      O10494   3.216   3.339   1.801  0.1315 -0.1137  0.1719
 3428WAT     H110495   3.210   3.272   1.869 -0.2725 -0.8195 -0.5553
 3428WAT     H210496   3.188   3.420   1.845  0.0376 -0.5282  0.8891
 3429WAT      O10497   3.708   1.741   0.922  0.3004  0.1823 -0.3930
 3429WAT     H110498   3.767   1.673   0.955  1.0510  2.4622  3.4930
 3429WAT     H210499   3.621   1.701   0.926  0.9391 -1.3545 -0.8048
 3430WAT      O10500   2.939   0.529   0.754 -0.3949  0.1732 -0.5810
 3430WAT     H110501   2.912   0.438   0.766  1.3133 -0.2707  0.2349
 3430WAT     H210502   2.996   0.547   0.829  0.1781  1.5562 -1.3192
 3431WAT      O10503   1.236   1.549   0.610 -0.0286 -0.1073  0.0593
 3431WAT     H110504   1.182   1.584   0.540 -0.2414  0.3492  0.4419
 3431WAT     H210505   1.325   1.579   0.589  0.0490 -0.6828 -0.4569
 3432WAT      O10506   3.390   3.155   4.811  0.0692  0.5425  0.1977
 3432WAT     H110507   3.398   3.224   4.745 -1.4435 -0.1595 -0.7766
 3432WAT     H210508   3.406   3.199   4.894 -0.8386  2.0696 -0.3940
 3433WAT      O10509   2.652   1.769   4.449  0.0076 -0.0875 -0.3674
 3433WAT     H110510   2.732   1.784   4.500 -0.6844  1.1238  0.4085
 3433WAT     H210511   2.640   1.674   4.452  1.0342 -0.2233  0.0956
 3434WAT      O10512   4.300   2.036   0.992 -0.1928 -0.0068 -0.0382
 3434WAT     H110513   4.280   2.047   1.085 -2.0187  0.3448 -0.4295
 3434WAT     H210514   4.277   2.120   0.952  2.7458  0.6803 -0.5413
 3435WAT      O10515   0.865   0.525   2.671 -0.0883  0.0753  0.0880
 3435WAT     H110516   0.883   0.595   2.734  1.7777  0.5923 -0.9443
 3435WAT     H210517   0.769   0.517   2.671 -0.2441  1.4775  1.4498
 3436WAT      O10518   1.277   4.082   2.956 -0.4486  0.0457 -0.1239
 3436WAT     H110519   1.267   4.043   3.043 -2.2104  0.3296 -0.1492
 3436WAT     H210520   1.229   4.023   2.898  1.1472 -0.4239 -1.0229
 3437WAT      O10521   2.774   3.570   4.883  0.0237  0.7406  0.0707
 3437WAT     H110522   2.863   3.564   4.918 -0.3149 -1.1052  0.6986
 3437WAT     H210523   2.747   3.479   4.869 -1.9019  1.2424  0.2456
 3438WAT      O10524   0.151   1.037   0.918 -0.1702  0.5762 -0.0481
 3438WAT     H110525   0.116   1.026   0.829 -3.0168  0.3264  1.0240
 3438WAT     H210526   0.227   1.094   0.905  0.4463 -0.6540 -2.7899
 3439WAT      O10527   3.245   4.999   4.347  0.0676 -0.6332 -0.5655
 3439WAT     H110528   3.261   5.007   4.441  1.8745 -1.9862 -0.7128
 3439WAT     H210529   3.330   4.977   4.310 -1.0022 -2.2816 -2.2426
 3440WAT      O10530   0.442   0.246   3.214 -0.6929  0.0023 -0.0876
 3440WAT     H110531   0.455   0.162   3.170  0.3627  0.5458 -0.8600
 3440WAT     H210532   0.352   0.270   3.193 -0.4823 -0.1693 -1.2640
 3441WAT      O10533   2.844   3.018   1.479 -0.5841 -0.2992 -0.4480
 3441WAT     H110534   2.888   3.060   1.553 -0.7324 -2.0491  0.7140
 3441WAT     H210535   2.753   3.049   1.484 -0.5426 -0.2440 -0.0138
 3442WAT      O10536   1.364   2.574   0.707 -0.1112  0.1421 -0.2944
 3442WAT     H110537   1.341   2.481   0.712 -2.0357  0.5266 -1.0502
 3442WAT     H210538   1.434   2.578   0.641 -1.0642 -0.6264 -1.3983
 3443WAT      O10539   1.931   0.096   5.301  0.7430  0.3002  0.3195
 3443WAT     H110540   1.973   0.121   5.219  1.1567 -2.2306 -0.3415
 3443WAT     H210541   1.915   0.178   5.347  1.0093  1.7348 -2.0390
 3444WAT      O10542   3.344   0.573   4.694 -0.3181  0.0406 -0.1360
 3444WAT     H110543   3.349   0.585   4.789 -0.1135  1.9554 -0.3504
 3444WAT     H210544   3.431   0.541   4.669  0.6364  2.3258  0.0226
 3445WAT      O10545   2.851   1.222   0.644 -0.6941  0.1639  0.9467
 3445WAT     H110546   2.861   1.138   0.689  0.6413 -0.3329 -0.1896
 3445WAT     H210547   2.940   1.247   0.620 -1.1362  1.6142  0.7113
 3446WAT      O10548   2.707   2.823   1.085  0.0085 -0.3945 -0.4549
 3446WAT     H110549   2.743   2.850   1.000  0.0271  1.0193 -0.0253
 3446WAT     H210550   2.781   2.829   1.145 -0.4296  0.5150  0.0216
 3447WAT      O10551   0.243   4.015   1.837 -0.0772 -0.2430  0.3793
 3447WAT     H110552   0.239   3.924   1.806  0.0294 -0.4994  1.0824
 3447WAT     H210553   0.152   4.042   1.843 -0.0860  0.4334 -1.8412
 3448WAT      O10554   0.588   0.847   0.086  0.3941 -0.0684 -0.2227
 3448WAT     H110555   0.602   0.762   0.044  3.7589  0.4044 -0.3003
 3448WAT     H210556   0.569   0.825   0.177 -1.0705 -0.9158 -0.6921
 3449WAT      O10557   0.261   3.138   0.534 -0.0734  0.0959  0.7529
 3449WAT     H110558   0.272   3.073   0.465 -0.1386 -3.2018  3.5582
 3449WAT     H210559   0.317   3.211   0.509  3.0356 -2.6299 -0.8709
 3450WAT      O10560   2.523   1.996   3.809 -0.2023  0.8560 -0.3430
 3450WAT     H110561   2.579   1.944   3.751 -0.8950  1.8207 -1.9465
 3450WAT     H210562   2.584   2.050   3.859  0.4797 -0.8860  0.7955
 3451WAT      O10563   2.754   3.801   3.966  0.0662  0.5286  0.6314
 3451WAT     H110564   2.812   3.744   4.016  0.9307 -0.0760 -1.0250
 3451WAT     H210565   2.673   3.804   4.018 -0.1924 -2.5722  0.5425
 3452WAT      O10566   3.542   4.503   2.678  0.2495  0.0337  0.2366
 3452WAT     H110567   3.626   4.536   2.647  0.5575 -0.5250  0.4688
 3452WAT     H210568   3.529   4.421   2.632 -0.0479 -0.0091  0.3918
 3453WAT      O10569   4.123   1.781   4.959  0.3510 -0.3377  0.0892
 3453WAT     H110570   4.214   1.798   4.934  0.2362  1.1062  0.5693
 3453WAT     H210571   4.076   1.776   4.875  0.6703  0.2067 -0.1276
 3454WAT      O10572   0.518   3.301   0.029 -0.4293 -0.1409 -0.4101
 3454WAT     H110573   0.564   3.329   0.108  0.6832 -0.8202 -0.7912
 3454WAT     H210574   0.506   3.381  -0.022  1.6649 -0.1171 -0.9597
 3455WAT      O10575   0.126   1.114   2.569 -0.4106 -0.1396  0.2366
 3455WAT     H110576   0.072   1.192   2.556 -0.5750 -0.6300 -2.5712
 3455WAT     H210577   0.069   1.054   2.618 -0.2882  1.3844  2.4215
 3456WAT      O10578   0.140   3.521   4.598 -0.0395 -0.0922  0.0974
 3456WAT     H110579   0.135   3.587   4.668 -1.9022 -0.6580  0.5307
 3456WAT     H210580   0.230   3.530   4.564  0.4382  1.1895  1.5719
 3457WAT      O10581   4.187   1.246   0.116 -0.3681 -0.6048  0.5308
 3457WAT     H110582   4.155   1.161   0.147 -0.2726 -0.7501  0.2366
 3457WAT     H210583   4.138   1.262   0.035 -0.1161 -0.5545  0.3860
 3458WAT      O10584   1.083   0.312   0.171 -0.2925 -0.6439  0.4420
 3458WAT     H110585   1.112   0.297   0.081 -1.4182  1.9519 -0.4531
 3458WAT     H210586   1.162   0.306   0.224  0.8650  0.4000 -1.1069
 3459WAT      O10587   1.354   3.599   3.300 -0.0799  0.4333 -0.4394
 3459WAT     H110588   1.279   3.631   3.250 -0.4336  0.3601  0.0380
 3459WAT     H210589   1.322   3.518   3.341  0.4746  0.0293 -0.7861
 3460WAT      O10590   1.713   1.107   0.816 -0.3643  0.3301 -0.1970
 3460WAT     H110591   1.800   1.139   0.838  0.6762 -2.1187 -0.3998
 3460WAT     H210592   1.729   1.037   0.752 -2.4941 -0.0146 -0.4270
 3461WAT      O10593   0.043   0.611   3.339 -0.1432  0.4152 -0.2158
 3461WAT     H110594   0.031   0.695   3.384  0.5226  0.5669 -0.3151
 3461WAT     H210595   0.134   0.587   3.356 -0.5529 -0.7094  0.5223
 3462WAT      O10596   4.338   1.825   0.840  0.3925  0.6650  1.1233
 3462WAT     H110597   4.278   1.754   0.862  2.3346 -1.1989  0.6853
 3462WAT     H210598   4.338   1.881   0.918  0.0660 -0.7332  2.1686
 3463WAT      O10599   3.422   3.065   0.688 -0.4847  0.6242 -0.3599
 3463WAT     H110600   3.425   2.985   0.740 -0.0891 -0.4976 -2.0162
 3463WAT     H210601   3.388   3.036   0.603 -0.3023  2.2146 -0.9994
 3464WAT      O10602   2.180   2.364   0.131  0.9099 -0.0819  0.5953
 3464WAT     H110603   2.274   2.360   0.149  1.3602  1.9108 -1.0076
 3464WAT     H210604   2.172   2.343   0.038  0.0557  1.8114  0.1847
 3465WAT      O10605   0.566   4.587   1.152 -0.0060 -0.3605  0.6133
 3465WAT     H110606   0.597   4.619   1.068  1.2053 -0.3426  1.0464
 3465WAT     H210607   0.561   4.492   1.142  0.0332 -0.3488  0.4845
 3466WAT      O10608   1.236   4.327   4.277 -0.2159 -0.0963 -0.5321
 3466WAT     H110609   1.236   4.346   4.183 -0.8358  1.2040 -0.2862
 3466WAT     H210610   1.150   4.289   4.294  0.6831 -2.5202 -0.8486
 3467WAT      O10611   0.459   4.016   2.994 -0.0885  0.6796 -0.3221
 3467WAT     H110612   0.485   4.031   2.903 -0.8991 -0.7885 -0.8213
 3467WAT     H210613   0.460   3.921   3.004  1.2100  0.8308  1.5911
 3468WAT      O10614   0.148   1.816   3.295 -0.3107  0.2501  0.5115
 3468WAT     H110615   0.226   1.867   3.319  0.7153 -0.4671 -1.0771
 3468WAT     H210616   0.171   1.776   3.211 -2.3331 -0.1739  0.1057
 3469WAT      O10617   2.547   1.905   4.151 -0.1983 -0.4668 -0.3087
 3469WAT     H110618   2.501   1.987   4.166 -0.0765 -0.6091  1.0349
 3469WAT     H210619   2.573   1.907   4.059 -1.5921  0.2670 -0.7061
 3470WAT      O10620   0.914   4.564   2.124 -0.5434  0.1081 -0.0962
 3470WAT     H110621   0.936   4.636   2.183  0.4306  0.5975 -1.0083
 3470WAT     H210622   0.948   4.486   2.167 -0.2193  0.3996  0.1818
 3471WAT      O10623   2.448   0.014   4.819  0.1485  0.0663 -0.2321
 3471WAT     H110624   2.390  -0.061   4.833 -2.6943  2.0566 -0.4677
 3471WAT     H210625   2.450   0.058   4.904 -0.5508  1.2221 -0.7936
 3472WAT      O10626   0.847   1.847   5.281  0.0378  0.3002  0.0892
 3472WAT     H110627   0.839   1.761   5.239  0.8469 -0.5469  1.5629
 3472WAT     H210628   0.822   1.831   5.372 -0.1039  1.7134  0.3131
 3473WAT      O10629   1.878   4.975   2.318  0.1358 -0.1600 -0.0865
 3473WAT     H110630   1.850   5.053   2.365 -0.0843 -0.1025 -0.3066
 3473WAT     H210631   1.949   4.939   2.370  0.9938  0.7998 -0.5713
 3474WAT      O10632   3.500   4.231   4.718 -0.2295 -0.0167 -0.1189
 3474WAT     H110633   3.438   4.302   4.701  0.3633  1.4525  3.0296
 3474WAT     H210634   3.567   4.242   4.651 -0.9369  1.4434 -0.6357
 3475WAT      O10635   3.130   0.836   3.262 -0.0075  0.4086 -0.0277
 3475WAT     H110636   3.185   0.758   3.259  1.8602  1.6475  0.5625
 3475WAT     H210637   3.184   0.903   3.304 -1.1372  2.3447 -1.4725
 3476WAT      O10638   1.873   1.297   5.160 -0.2015  0.4571 -0.9434
 3476WAT     H110639   1.920   1.350   5.225  1.8237 -0.9798 -1.1707
 3476WAT     H210640   1.863   1.355   5.085 -0.6416  1.4414 -0.1474
 3477WAT      O10641   2.925   0.493   3.240  0.0462  0.3285  0.0681
 3477WAT     H110642   2.884   0.413   3.273  1.0802 -0.2676 -0.0833
 3477WAT     H210643   3.000   0.463   3.188 -0.9371  1.2840 -2.0256
 3478WAT      O10644   0.325   0.976   5.276 -0.0483  1.1169  0.1088
 3478WAT     H110645   0.287   0.977   5.188  0.9447  0.4776 -0.3563
 3478WAT     H210646   0.416   0.949   5.262 -0.3498 -0.8547  1.4933
 3479WAT      O10647   3.330   3.062   3.274 -0.4840 -0.3645 -0.2938
 3479WAT     H110648   3.249   3.107   3.248  0.0169 -0.4205 -2.0717
 3479WAT     H210649   3.397   3.097   3.215  0.7948 -0.3854  1.0953
 3480WAT      O10650   3.901   4.474   2.024 -0.4687 -0.0234  0.0587
 3480WAT     H110651   3.927   4.533   2.095 -0.8961 -1.9056  1.8438
 3480WAT     H210652   3.964   4.402   2.028 -0.3774 -0.0826 -1.6363
 3481WAT      O10653   2.911   2.519   2.222  0.1692 -0.3286 -0.1493
 3481WAT     H110654   2.889   2.443   2.168 -1.1130  0.8045 -1.3088
 3481WAT     H210655   2.917   2.591   2.160  4.3404  0.1007  0.4861
 3482WAT      O10656   1.829   4.361   2.642 -0.7585  0.0599 -0.2617
 3482WAT     H110657   1.869   4.438   2.683 -2.3962  1.2897 -0.8760
 3482WAT     H210658   1.893   4.291   2.656 -0.3140  0.8945  2.5141
 3483WAT      O10659   0.850   2.934   4.285 -0.4742 -0.7876  0.1292
 3483WAT     H110660   0.779   2.886   4.328 -0.1730  1.0095  2.8953
 3483WAT     H210661   0.930   2.892   4.318 -0.2274  0.9475  1.9589
 3484WAT      O10662   4.261   1.658   0.139 -0.5189 -0.2890  0.6987
 3484WAT     H110663   4.194   1.709   0.185  1.2753  2.8002  0.1710
 3484WAT     H210664   4.220   1.633   0.056 -0.9953  1.7000  0.3006
 3485WAT      O10665   4.460   0.538   4.246  0.0112 -0.0956  0.0342
 3485WAT     H110666   4.413   0.467   4.202 -0.7816  0.6324 -0.3362
 3485WAT     H210667   4.395   0.608   4.254  1.6858  2.1299 -3.1955
 3486WAT      O10668   2.250   3.587   4.748  0.4920 -0.1083  0.0305
 3486WAT     H110669   2.169   3.557   4.706  0.8529 -0.9623 -0.0766
 3486WAT     H210670   2.229   3.587   4.841  0.4003 -0.4588  0.0129
 3487WAT      O10671   0.764   2.981   2.134 -0.1342 -0.1899  0.3419
 3487WAT     H110672   0.797   3.055   2.185  0.7017 -0.8891  0.8508
 3487WAT     H210673   0.843   2.934   2.107 -0.6656 -2.0257  1.7505
 3488WAT      O10674   1.197   1.247   4.085 -0.1148  0.1409 -0.0683
 3488WAT     H110675   1.286   1.242   4.048 -0.1125 -1.5047  0.1179
 3488WAT     H210676   1.181   1.341   4.095  0.5228  0.6246 -2.7317
 3489WAT      O10677   1.942   2.454   4.965  0.8994  0.1106  0.3757
 3489WAT     H110678   1.932   2.459   5.060  2.3237  0.1515  0.5491
 3489WAT     H210679   1.959   2.544   4.938 -0.8660  0.3339 -0.1291
 3490WAT      O10680   0.625   1.953   2.282  0.6231 -0.2660  0.0806
 3490WAT     H110681   0.616   1.871   2.329  1.9495 -0.0419  0.7883
 3490WAT     H210682   0.718   1.958   2.261  0.4615  0.7836 -0.4380
 3491WAT      O10683   2.563   4.784   2.747 -0.3256 -0.3176 -0.3128
 3491WAT     H110684   2.626   4.758   2.814 -1.1381  0.9635  1.0233
 3491WAT     H210685   2.578   4.878   2.735 -2.4207  0.1982  0.6151
 3492WAT      O10686   3.313   3.974   0.170 -0.7304  0.3066  0.2728
 3492WAT     H110687   3.354   3.903   0.218 -1.1843 -1.4522 -1.8080
 3492WAT     H210688   3.322   3.950   0.078 -1.0773  2.8607 -0.5225
 3493WAT      O10689   0.665   3.272   5.046  0.0677 -0.0744  0.1484
 3493WAT     H110690   0.664   3.230   5.132 -0.1448  0.1067  0.2353
 3493WAT     H210691   0.573   3.286   5.025  0.1226 -0.0404 -0.0717
 3494WAT      O10692   3.760   4.284   2.830 -0.6929  0.2641  0.7312
 3494WAT     H110693   3.834   4.248   2.879 -1.1221 -0.3251  0.9564
 3494WAT     H210694   3.776   4.256   2.740 -0.6333  0.1426  0.7780
 3495WAT      O10695   0.276   4.966   4.384  0.2170  0.1969  0.2557
 3495WAT     H110696   0.268   5.061   4.394  2.4221  0.6080 -1.2872
 3495WAT     H210697   0.325   4.938   4.461 -0.2215  0.3194  0.5861
 3496WAT      O10698   4.531   1.107   3.186  0.0320  0.5607 -0.2542
 3496WAT     H110699   4.447   1.136   3.220  0.4518  0.6520  0.7217
 3496WAT     H210700   4.526   1.124   3.092 -0.8665  0.9687 -0.1364
 3497WAT      O10701   0.054   3.639   0.426  0.5021 -0.2756 -0.0243
 3497WAT     H110702  -0.011   3.631   0.496  1.7788 -2.1509  1.0261
 3497WAT     H210703   0.024   3.714   0.374 -2.1343 -0.6735  0.7704
 3498WAT      O10704   2.864   2.735   2.915 -0.1394  0.2168 -0.4384
 3498WAT     H110705   2.786   2.790   2.909 -0.8090 -0.5679  0.7593
 3498WAT     H210706   2.846   2.661   2.858 -0.1871  0.1223 -0.2994
 3499WAT      O10707   4.011   3.223   1.867 -0.0801 -0.1136 -0.4236
 3499WAT     H110708   4.103   3.248   1.859 -0.4701  1.7859  0.5550
 3499WAT     H210709   3.972   3.245   1.782 -0.1852  1.7551  0.0674
 3500WAT      O10710   3.460   1.373   1.592 -0.2135  0.4215  0.2477
 3500WAT     H110711   3.371   1.358   1.626  0.5477  0.0380  2.2274
 3500WAT     H210712   3.515   1.315   1.644  1.1323  0.0019 -1.5380
 3501WAT      O10713   1.898   3.914   2.273 -0.2220  0.5137 -0.4650
 3501WAT     H110714   1.916   3.899   2.366 -0.7924  0.3005 -0.3886
 3501WAT     H210715   1.958   3.984   2.248  0.0589  0.4499  0.0196
 3502WAT      O10716   2.161   2.931   3.284 -0.4415 -0.0366  0.0273
 3502WAT     H110717   2.172   2.838   3.267 -1.4924  0.1250 -1.7536
 3502WAT     H210718   2.072   2.950   3.256 -0.4573  1.4022  0.9316
 3503WAT      O10719   2.714   3.380   3.004 -0.7846 -0.4361 -0.7691
 3503WAT     H110720   2.728   3.288   3.023  0.3548  0.1928  1.8073
 3503WAT     H210721   2.620   3.393   3.012 -0.8391 -1.1793 -0.1698
 3504WAT      O10722   3.945   0.092   0.742  0.1220  0.0668 -0.1403
 3504WAT     H110723   3.920   0.185   0.737 -0.8091 -0.2038 -0.8728
 3504WAT     H210724   3.883   0.055   0.805 -0.7047 -0.4011 -1.1931
 3505WAT      O10725   0.751   1.895   4.234 -0.3842  0.2045  0.2279
 3505WAT     H110726   0.775   1.877   4.143  1.5217  0.4137  0.6504
 3505WAT     H210727   0.832   1.882   4.283 -1.6029 -0.9322  2.0622
 3506WAT      O10728   3.165   4.227   2.412  0.1293  0.2812 -0.2329
 3506WAT     H110729   3.183   4.317   2.439 -1.9904  0.8226 -0.4414
 3506WAT     H210730   3.149   4.233   2.318 -1.2246 -0.0797 -0.0447
 3507WAT      O10731   2.615   1.206   0.494 -0.4493  0.1584 -0.1911
 3507WAT     H110732   2.707   1.193   0.518 -0.5749  1.2215  1.0047
 3507WAT     H210733   2.618   1.234   0.403  0.3687 -0.3437 -0.3343
 3508WAT      O10734   1.796   3.056   1.963  0.1415 -0.4304  0.0145
 3508WAT     H110735   1.828   3.002   2.034 -0.7944  1.3012  1.8486
 3508WAT     H210736   1.850   3.135   1.966 -1.3176  0.6095  0.2856
 3509WAT      O10737   2.399   2.789   5.101  0.1407  0.6921 -0.2742
 3509WAT     H110738   2.304   2.798   5.110  0.1453  0.7572 -0.2879
 3509WAT     H210739   2.411   2.734   5.024  0.1266  1.1069 -0.5701
 3510WAT      O10740   3.424   3.560   2.633  0.3471 -0.3102  0.1851
 3510WAT     H110741   3.357   3.525   2.691  0.2456 -1.6705 -0.7173
 3510WAT     H210742   3.420   3.655   2.646 -2.2101 -0.2909 -0.3442
 3511WAT      O10743   1.474   0.375   2.329  0.1389  0.0042 -0.9652
 3511WAT     H110744   1.478   0.436   2.255  0.5345  1.0113 -0.1309
 3511WAT     H210745   1.438   0.295   2.291 -2.4231  1.3830 -1.6515
 3512WAT      O10746   0.314   3.046   2.120 -0.1961  0.6554 -0.4205
 3512WAT     H110747   0.303   3.013   2.030  0.0333 -0.7040  0.0150
 3512WAT     H210748   0.254   2.993   2.172  0.9131  0.2210  0.4674
 3513WAT      O10749   3.258   3.509  -0.007  0.1119  0.2213  0.1627
 3513WAT     H110750   3.218   3.450   0.057 -0.4096 -2.1375 -2.1400
 3513WAT     H210751   3.351   3.486  -0.006 -0.1145 -0.8963 -0.8472
 3514WAT      O10752   2.992   2.619   1.319  0.2935  0.2467  0.0273
 3514WAT     H110753   3.000   2.554   1.249 -0.3778 -0.4073  0.5357
 3514WAT     H210754   2.962   2.699   1.276  3.1221  0.8937 -0.9482
 3515WAT      O10755   0.648   2.030   5.049  0.0201 -0.2141 -0.3525
 3515WAT     H110756   0.592   1.979   4.990  0.1985 -1.8241  0.7840
 3515WAT     H210757   0.737   2.018   5.014 -0.1189  0.7199 -1.0404
 3516WAT      O10758   3.507   4.984   1.046 -0.4273  0.0315 -0.2284
 3516WAT     H110759   3.443   5.037   0.998 -0.9667 -0.7053 -0.3505
 3516WAT     H210760   3.527   4.912   0.987  0.0140 -0.1010  0.0802
 3517WAT      O10761   2.413   2.672   0.200 -0.0093  0.4176 -0.6386
 3517WAT     H110762   2.434   2.580   0.181 -2.2691 -0.0070 -1.3768
 3517WAT     H210763   2.323   2.669   0.232  0.9159  2.0523  2.5457
 3518WAT      O10764   3.435   1.589   0.399 -0.7293 -0.5286  0.8231
 3518WAT     H110765   3.408   1.497   0.406 -0.0790 -0.7927  0.1232
 3518WAT     H210766   3.441   1.604   0.304  2.0521 -0.6684  0.8974
 3519WAT      O10767   0.114   3.057   4.109  0.6144 -0.0119 -0.1855
 3519WAT     H110768   0.095   3.042   4.016  2.2015 -1.8187 -0.2881
 3519WAT     H210769   0.037   3.023   4.155  0.2375 -0.0237 -0.8169
 3520WAT      O10770   0.387   5.106   1.317  0.1980  0.3669  0.3599
 3520WAT     H110771   0.429   5.028   1.352  0.1548 -0.3868 -1.1976
 3520WAT     H210772   0.300   5.107   1.357  0.4252 -0.0199  0.8726
 3521WAT      O10773   3.843   4.600   2.615 -0.2692  0.4410  0.2223
 3521WAT     H110774   3.855   4.552   2.534 -0.5514 -1.1124  1.0548
 3521WAT     H210775   3.897   4.679   2.605  0.5058 -0.2241 -1.0428
 3522WAT      O10776   3.263   2.169   1.170  0.2914  0.7563 -0.0467
 3522WAT     H110777   3.293   2.127   1.251  0.3107  2.0052  0.6177
 3522WAT     H210778   3.268   2.100   1.104 -1.2082 -0.7433  1.3103
 3523WAT      O10779   4.255   3.068   0.410  0.0917  0.5826  0.5534
 3523WAT     H110780   4.315   3.067   0.335  0.0029  0.2228  0.4830
 3523WAT     H210781   4.261   2.979   0.446  0.4232  0.8597  1.2096
 3524WAT      O10782   3.888   4.009   1.649  0.0797  0.2393  0.4284
 3524WAT     H110783   3.890   4.098   1.683  1.5983  0.3630  0.1208
 3524WAT     H210784   3.805   3.973   1.679 -0.1243  1.4406  1.3768
 3525WAT      O10785   0.963   0.255   4.264 -0.0081  0.0648 -0.1041
 3525WAT     H110786   0.962   0.290   4.175  0.8108 -1.4253 -0.7333
 3525WAT     H210787   0.901   0.183   4.263  0.8908 -0.7392  0.1740
 3526WAT      O10788   3.328   2.505   4.927  0.0286  0.1174 -0.1946
 3526WAT     H110789   3.315   2.422   4.971  1.3571 -0.0660 -0.0978
 3526WAT     H210790   3.415   2.498   4.887 -0.2874  1.0442 -1.1171
 3527WAT      O10791   0.850   3.044   0.737  0.3376  0.0957  1.0958
 3527WAT     H110792   0.812   2.973   0.685  1.7314  0.4096 -0.4547
 3527WAT     H210793   0.778   3.104   0.754 -0.1845 -0.0802 -0.4148
 3528WAT      O10794   4.498   3.833   2.111  0.3405 -0.0581 -0.5482
 3528WAT     H110795   4.403   3.821   2.098 -0.0866  2.9174 -0.9048
 3528WAT     H210796   4.538   3.766   2.056 -1.5480 -1.1710 -0.6546
 3529WAT      O10797   0.450   3.929   5.226 -0.0661  0.1356 -0.3055
 3529WAT     H110798   0.504   4.007   5.241 -0.4632  0.5563 -1.0320
 3529WAT     H210799   0.514   3.860   5.205  0.5614 -0.5768  3.3895
 3530WAT      O10800   3.610   3.578   0.089 -0.0717  0.4606  0.3584
 3530WAT     H110801   3.636   3.617   0.173  0.7700  1.2138 -0.2332
 3530WAT     H210802   3.617   3.650   0.027  0.4743 -0.3810 -0.5812
 3531WAT      O10803   1.663   0.717   0.388  0.8891 -0.4231 -0.3958
 3531WAT     H110804   1.736   0.672   0.344  1.7433 -0.4077  0.9329
 3531WAT     H210805   1.584   0.678   0.351  1.5939 -2.5028  0.1541
 3532WAT      O10806   1.492   0.541   4.346  0.4705 -0.1162  0.1495
 3532WAT     H110807   1.479   0.505   4.259 -0.0349 -0.9288  0.5466
 3532WAT     H210808   1.433   0.490   4.402 -0.7266  1.7301  0.6562
 3533WAT      O10809   3.964   1.725   4.326 -0.1373 -0.2088 -0.4895
 3533WAT     H110810   4.046   1.691   4.290 -0.3597 -0.2720 -0.9400
 3533WAT     H210811   3.951   1.808   4.282 -0.5718 -0.4333 -0.7843
 3534WAT      O10812   2.021   2.255   2.430  0.2875 -0.3539 -0.5126
 3534WAT     H110813   2.081   2.317   2.389 -0.2538 -0.5403 -1.6367
 3534WAT     H210814   2.061   2.235   2.514  1.5588 -0.1013 -1.0335
 3535WAT      O10815   1.859   4.428   5.196 -0.2506 -0.1662 -0.2793
 3535WAT     H110816   1.839   4.392   5.282  0.5476 -0.6341 -0.2683
 3535WAT     H210817   1.865   4.522   5.210 -0.6513 -0.1894  0.0654
 3536WAT      O10818   0.255   2.537   2.423 -0.0154 -0.0859  0.0080
 3536WAT     H110819   0.182   2.576   2.472  0.0228 -0.3178  0.2540
 3536WAT     H210820   0.318   2.511   2.490 -0.5038 -1.5274 -0.0532
 3537WAT      O10821   0.365   0.825   1.841  0.1313 -0.1445  0.7599
 3537WAT     H110822   0.396   0.765   1.909 -0.1136 -0.3642  0.6783
 3537WAT     H210823   0.282   0.788   1.813 -1.5780  1.8087  2.7985
 3538WAT      O10824   3.761   3.471   0.801 -0.5612 -0.5717  0.5461
 3538WAT     H110825   3.792   3.467   0.892  0.6933  1.2265  0.2475
 3538WAT     H210826   3.831   3.432   0.750 -0.7757 -0.5551  0.2348
 3539WAT      O10827   0.849   3.360   2.594 -0.5065 -0.5721  0.2991
 3539WAT     H110828   0.854   3.451   2.622  0.9386 -0.8588  1.0567
 3539WAT     H210829   0.777   3.359   2.531 -0.1933  1.2040 -0.1601
 3540WAT      O10830   1.079   1.317   4.396  0.2512 -0.9587 -0.1132
 3540WAT     H110831   1.125   1.317   4.312 -0.8412 -1.5031 -0.7203
 3540WAT     H210832   1.143   1.281   4.458  0.9676 -0.7991 -0.7465
 3541WAT      O10833   3.781   4.352   1.364  0.4824 -0.5174  0.7010
 3541WAT     H110834   3.787   4.309   1.279 -0.7073 -0.7938  0.7441
 3541WAT     H210835   3.779   4.446   1.343  0.7457 -0.5630  0.4641
 3542WAT      O10836   1.268   3.133   4.585  0.3186 -0.3970 -0.5196
 3542WAT     H110837   1.254   3.226   4.571  0.7764 -0.1010  0.8434
 3542WAT     H210838   1.179   3.095   4.585 -0.1403  0.5067  1.7935
 3543WAT      O10839   1.090   0.174   3.211 -0.5024 -0.3604  0.1408
 3543WAT     H110840   1.035   0.231   3.265  0.8383  0.6994  0.4471
 3543WAT     H210841   1.033   0.148   3.138 -1.7181 -0.1826  1.0014
 3544WAT      O10842   1.506   4.567   1.452  0.6852  0.5750 -0.2978
 3544WAT     H110843   1.575   4.628   1.476 -0.4483  1.4705  0.8449
 3544WAT     H210844   1.427   4.621   1.445 -0.4458 -0.7543  1.1453
 3545WAT      O10845   1.315   3.921   5.187 -0.0425 -0.2746  0.2065
 3545WAT     H110846   1.327   4.010   5.221  0.6739 -0.2567 -0.0639
 3545WAT     H210847   1.335   3.864   5.262  1.2179 -0.2283 -0.0627
 3546WAT      O10848   4.340   5.135   2.107 -0.3887  0.6168  0.0545
 3546WAT     H110849   4.319   5.074   2.037 -0.8532 -0.1083  0.8068
 3546WAT     H210850   4.372   5.080   2.178 -0.0542  1.3276  0.4677
 3547WAT      O10851   2.385   2.966   4.257  0.4340  0.2093 -0.0674
 3547WAT     H110852   2.364   2.912   4.333 -1.1117  1.1049  0.2079
 3547WAT     H210853   2.480   2.971   4.256  0.4916  0.9621  2.4052
 3548WAT      O10854   0.358   4.209   1.993  0.2426 -0.0144  0.3072
 3548WAT     H110855   0.308   4.142   1.947 -1.0535  0.6597  0.6807
 3548WAT     H210856   0.376   4.276   1.926  1.0942 -0.4802  0.0566
 3549WAT      O10857   0.751   4.059   2.753 -0.2994 -0.2155  0.2899
 3549WAT     H110858   0.662   4.074   2.721  0.3756  2.2812 -0.6547
 3549WAT     H210859   0.797   4.022   2.677 -0.1174  0.2064  0.1894
 3550WAT      O10860   3.802   5.143   2.714  0.3227 -0.2089  0.3984
 3550WAT     H110861   3.778   5.195   2.791 -1.2906 -0.6014  0.2108
 3550WAT     H210862   3.868   5.082   2.746 -1.0765 -1.0765  1.7735
 3551WAT      O10863   2.355   1.286   1.438  0.0420  0.4110 -0.3321
 3551WAT     H110864   2.417   1.282   1.511 -1.6011 -2.1364  1.0865
 3551WAT     H210865   2.324   1.196   1.428 -2.0129  1.2295 -2.2214
 3552WAT      O10866   0.063   3.854   3.485  0.3192  0.2005  0.2274
 3552WAT     H110867   0.039   3.764   3.464  1.5394 -0.1391  0.2528
 3552WAT     H210868   0.081   3.894   3.400 -1.9627  0.9848  0.0232
 3553WAT      O10869   2.060   3.726   3.148 -0.4189  0.9244 -0.2045
 3553WAT     H110870   2.062   3.760   3.238 -0.6276  0.5429 -0.0501
 3553WAT     H210871   2.050   3.631   3.160 -0.8844  0.9199 -0.6413
 3554WAT      O10872   2.906   1.607   1.240 -0.2621 -0.2082 -0.1592
 3554WAT     H110873   2.952   1.530   1.274 -2.0567 -1.0509  0.5407
 3554WAT     H210874   2.945   1.622   1.154  1.8074 -0.3601  0.7072
 3555WAT      O10875   0.946   3.642   1.584  0.7897 -0.4944 -0.4083
 3555WAT     H110876   0.994   3.681   1.657 -0.2803 -0.0588  0.0890
 3555WAT     H210877   0.903   3.564   1.622 -0.1467 -0.0075 -0.4317
 3556WAT      O10878   1.011   4.912   1.451  0.5818 -0.2591 -0.5108
 3556WAT     H110879   0.945   4.844   1.458  0.8757 -0.4002  1.7462
 3556WAT     H210880   0.965   4.993   1.476  0.4054  0.2860 -2.4838
 3557WAT      O10881   0.640   1.528   3.844 -0.1691 -0.5287  0.3021
 3557WAT     H110882   0.655   1.451   3.898 -0.4995  0.0979  1.3222
 3557WAT     H210883   0.616   1.493   3.758 -0.1650 -1.5556  0.7069
 3558WAT      O10884   3.537   3.600   4.519  0.0328 -0.5561 -0.3925
 3558WAT     H110885   3.518   3.693   4.532  3.4552  0.2566 -0.2237
 3558WAT     H210886   3.509   3.582   4.429  0.8775  1.1525 -1.0371
 3559WAT      O10887   2.670   4.122   0.330  0.0086 -0.2902  0.3722
 3559WAT     H110888   2.655   4.029   0.344  0.0302 -0.2452  0.7028
 3559WAT     H210889   2.627   4.141   0.247 -0.2375 -0.5367  0.4413
 3560WAT      O10890   0.433   1.230   3.359  0.3231 -0.3303 -0.5637
 3560WAT     H110891   0.353   1.178   3.346  0.8711 -0.9442 -1.6460
 3560WAT     H210892   0.498   1.166   3.388  0.0671  0.4201  1.8697
 3561WAT      O10893   3.338   2.919   1.146 -0.9841 -0.4280  0.0685
 3561WAT     H110894   3.434   2.918   1.156 -0.9486 -0.1108 -0.2224
 3561WAT     H210895   3.306   2.879   1.227 -0.6335  0.2949  0.5829
 3562WAT      O10896   0.436   2.982   1.707  0.2946 -0.1605 -0.2164
 3562WAT     H110897   0.505   2.965   1.771 -0.0231  1.2836  0.5497
 3562WAT     H210898   0.355   2.984   1.759 -0.0247  0.5371 -0.7227
 3563WAT      O10899   3.428   4.569   0.937 -0.0743 -0.1411 -0.0186
 3563WAT     H110900   3.504   4.569   0.995 -2.4212  0.3338  3.2831
 3563WAT     H210901   3.397   4.479   0.937 -0.6549  0.0558  0.2582
 3564WAT      O10902   1.209   3.135   2.275  0.1866  0.7337  0.0382
 3564WAT     H110903   1.186   3.072   2.344 -0.0700 -0.2045 -0.8631
 3564WAT     H210904   1.267   3.086   2.217 -0.2647  1.2241 -0.8528
 3565WAT      O10905   0.892   1.119   4.320 -0.0455  0.2290  0.1689
 3565WAT     H110906   0.934   1.097   4.238 -0.3056 -0.9973  0.3379
 3565WAT     H210907   0.947   1.186   4.359 -0.4327  1.5259 -1.4260
 3566WAT      O10908   0.130   3.662   4.844 -0.1042  0.2344  0.1635
 3566WAT     H110909   0.158   3.679   4.933 -0.6812 -1.3781  0.7007
 3566WAT     H210910   0.089   3.575   4.848 -1.7052  0.8574 -1.3222
 3567WAT      O10911   0.799   0.056   4.610  0.5659 -0.3080 -0.0071
 3567WAT     H110912   0.778   0.147   4.590 -0.6945 -0.7408 -0.7478
 3567WAT     H210913   0.885   0.060   4.651  1.0685  1.0991 -1.1201
 3568WAT      O10914   0.079   0.492   0.265 -0.4843  0.1859 -0.4112
 3568WAT     H110915   0.094   0.571   0.214  0.5676 -0.2806 -0.8602
 3568WAT     H210916   0.025   0.436   0.209  0.5199 -0.2529 -0.9645
 3569WAT      O10917   2.350   1.794   0.104 -0.2142  0.3422  0.1565
 3569WAT     H110918   2.370   1.702   0.120  0.2143  0.5863  1.0859
 3569WAT     H210919   2.261   1.794   0.069  0.0801 -0.4812 -0.6386
 3570WAT      O10920   2.107   4.538   3.565  0.7433  0.5967 -0.5863
 3570WAT     H110921   2.177   4.484   3.529  0.6319  1.0509 -1.5222
 3570WAT     H210922   2.040   4.476   3.592  0.5442  0.2604 -1.7983
 3571WAT      O10923   3.532   3.807   4.844  0.1676  0.1022 -0.3287
 3571WAT     H110924   3.625   3.830   4.853  0.3995 -1.0902  0.5706
 3571WAT     H210925   3.513   3.822   4.752  1.6706 -1.0506 -0.8727
 3572WAT      O10926   2.958   1.194   0.318 -1.1637  0.0305 -0.0460
 3572WAT     H110927   2.883   1.139   0.295 -1.4929  0.5863 -0.3451
 3572WAT     H210928   2.925   1.283   0.307 -0.6752  0.2841  0.5460
 3573WAT      O10929   0.943   5.117   4.927 -0.6141  0.0915 -0.3129
 3573WAT     H110930   0.969   5.042   4.874 -0.8756  1.3925 -2.4296
 3573WAT     H210931   0.858   5.093   4.963  0.4770 -1.6240  1.2813
 3574WAT      O10932   2.733   0.543   1.820  0.0006 -0.3332  0.2712
 3574WAT     H110933   2.795   0.600   1.865 -0.2656  0.1184  0.0693
 3574WAT     H210934   2.781   0.512   1.743  0.5816 -1.3897  1.0324
 3575WAT      O10935   2.559   4.325   3.407  0.3042  0.3387  0.0182
 3575WAT     H110936   2.581   4.244   3.361 -0.5239 -0.1804  0.5119
 3575WAT     H210937   2.472   4.309   3.443 -0.1555  1.7077 -0.4370
 3576WAT      O10938   2.492   3.899   3.144 -0.4933 -0.1167 -0.0453
 3576WAT     H110939   2.479   3.805   3.129 -1.4573 -0.2915  1.6368
 3576WAT     H210940   2.481   3.910   3.238 -1.4005  1.8389 -0.3241
 3577WAT      O10941   2.290   3.960   4.403  0.4461  0.3773  0.1506
 3577WAT     H110942   2.354   4.024   4.373  1.2590 -0.3098  0.3893
 3577WAT     H210943   2.332   3.917   4.478 -1.0108  1.1639  1.4895
 3578WAT      O10944   0.294   2.380   3.089  0.3708 -0.0812 -0.0101
 3578WAT     H110945   0.372   2.336   3.123 -0.4005 -0.8301  0.8462
 3578WAT     H210946   0.257   2.427   3.165  0.4858  1.0347 -0.6181
 3579WAT      O10947   0.067   0.887   2.088  0.3544 -0.0738 -0.5029
 3579WAT     H110948   0.147   0.934   2.109  0.4859  0.0292 -1.2142
 3579WAT     H210949   0.016   0.888   2.169  0.8376  0.3271 -0.2044
 3580WAT      O10950   1.357   4.791   0.975 -0.0133 -0.5526  0.5877
 3580WAT     H110951   1.390   4.720   0.921 -0.9441  0.7073 -1.7697
 3580WAT     H210952   1.385   4.871   0.929 -3.8044  0.5812 -0.0369
 3581WAT      O10953   1.218   2.031   3.865  0.2321 -0.7003  0.1085
 3581WAT     H110954   1.170   1.949   3.863  0.4539 -0.8131 -0.9283
 3581WAT     H210955   1.234   2.047   3.958 -0.5996 -1.3612  0.3743
 3582WAT      O10956   0.649   0.854   3.021  0.1211 -0.1032 -0.4709
 3582WAT     H110957   0.666   0.936   3.068 -0.2622  0.2976 -1.0321
 3582WAT     H210958   0.582   0.810   3.073  2.1663 -1.3409  1.3461
 3583WAT      O10959   3.862   3.186   1.422  0.4009 -0.3259  0.1389
 3583WAT     H110960   3.849   3.184   1.327  1.5113 -0.2129 -0.0310
 3583WAT     H210961   3.817   3.108   1.454  0.6106 -0.7491 -0.5629
 3584WAT      O10962   1.430   1.323   2.077 -0.3886  0.1548  0.0213
 3584WAT     H110963   1.351   1.303   2.127  0.6740 -1.2804  1.2267
 3584WAT     H210964   1.477   1.387   2.131  0.4856 -0.9640  0.6349
 3585WAT      O10965   3.704   3.048   4.448 -0.1405  0.3470 -0.2753
 3585WAT     H110966   3.749   3.098   4.379  0.2803 -0.4035 -0.5499
 3585WAT     H210967   3.734   2.958   4.436 -0.5953  0.0911  0.4652
 3586WAT      O10968   3.514   0.204   1.601 -0.0005 -0.0403 -0.1134
 3586WAT     H110969   3.497   0.294   1.629  2.0443  0.3786  0.0021
 3586WAT     H210970   3.583   0.173   1.660 -1.1690 -1.9818  0.3321
 3587WAT      O10971   1.413   3.770   4.807  0.1861  0.7701 -0.2413
 3587WAT     H110972   1.403   3.675   4.818  0.8154  0.7777  0.4389
 3587WAT     H210973   1.497   3.790   4.848  0.5714  1.4639 -1.3403
 3588WAT      O10974   4.417   4.956   2.318  0.0476  0.2276  0.0151
 3588WAT     H110975   4.468   4.883   2.353  0.1533  1.0453  1.6955
 3588WAT     H210976   4.337   4.957   2.371  0.6069  2.0521  0.9462
 3589WAT      O10977   3.417   4.529   3.472  0.4582 -0.3525 -0.3800
 3589WAT     H110978   3.460   4.604   3.513 -0.8698  0.4116 -0.3237
 3589WAT     H210979   3.486   4.463   3.465  1.5916  0.7660 -0.1814
 3590WAT      O10980   3.779   2.255   3.034 -0.3057 -0.6044 -0.3488
 3590WAT     H110981   3.782   2.300   2.950 -0.1734  0.4630  0.2113
 3590WAT     H210982   3.686   2.253   3.056 -0.2578  0.0390 -0.0525
 3591WAT      O10983   1.153   0.151   4.435 -0.2079 -0.6522 -0.3201
 3591WAT     H110984   1.208   0.123   4.362 -0.8456 -3.3599  0.1429
 3591WAT     H210985   1.086   0.206   4.395  0.9803  0.1112 -1.3334
 3592WAT      O10986   4.160   3.016   4.611 -0.3532  0.0586 -0.5074
 3592WAT     H110987   4.227   3.056   4.556  1.0458  0.0790  1.1460
 3592WAT     H210988   4.097   3.086   4.628  1.8227  1.6002  1.9826
 3593WAT      O10989   2.602   1.038   1.417  0.0671 -0.1929  0.4770
 3593WAT     H110990   2.526   0.992   1.451  0.9435 -0.9707  1.4763
 3593WAT     H210991   2.644   1.076   1.494 -0.2469  1.7363 -0.2455
 3594WAT      O10992   0.629   1.108   2.323  0.6435  0.5220  0.1837
 3594WAT     H110993   0.650   1.017   2.340 -0.5166  0.4229  1.2519
 3594WAT     H210994   0.663   1.155   2.399  1.3162  1.0054 -0.4028
 3595WAT      O10995   0.570   4.109   3.215  0.3599  0.1764  0.2758
 3595WAT     H110996   0.541   4.081   3.128 -0.3536  2.4245 -0.2613
 3595WAT     H210997   0.498   4.085   3.273 -0.8610  1.9961 -0.3957
 3596WAT      O10998   1.740   3.431   1.860  0.6078 -0.0573  0.3225
 3596WAT     H110999   1.808   3.378   1.901 -0.2090  0.2692  2.2200
 3596WAT     H211000   1.658   3.385   1.883 -0.1840  2.2494  2.5681
 3597WAT      O11001   1.210   0.286   3.711 -0.3332 -0.0368  0.2029
 3597WAT     H111002   1.215   0.314   3.802  0.3528  0.0155  0.1545
 3597WAT     H211003   1.117   0.291   3.689 -0.5855 -0.6127  1.0725
 3598WAT      O11004   2.033   2.747   3.008  0.7740  0.7784  0.1325
 3598WAT     H111005   2.055   2.669   2.956 -0.3347  1.0456 -0.7952
 3598WAT     H211006   2.032   2.818   2.944 -0.3282  1.1740  0.5693
 3599WAT      O11007   3.763   0.235   1.412  0.1576  0.5052  0.1852
 3599WAT     H111008   3.782   0.329   1.406 -0.9820  0.6978 -1.0226
 3599WAT     H211009   3.667   0.230   1.411  0.2047 -0.6813 -0.1558
 3600WAT      O11010   2.247   4.089   1.408  0.2011  0.4687 -0.1001
 3600WAT     H111011   2.191   4.067   1.333  0.5738 -3.7641  0.6111
 3600WAT     H211012   2.334   4.099   1.370  0.2939 -1.1053 -0.3793
 3601WAT      O11013   1.623   1.378   0.946  0.0094  0.5273 -0.0145
 3601WAT     H111014   1.616   1.318   1.021 -0.4197 -0.8340 -1.0913
 3601WAT     H211015   1.593   1.326   0.871 -0.9573  2.3028 -0.9130
 3602WAT      O11016   0.710   4.780   1.406  0.5967 -0.0790  0.5977
 3602WAT     H111017   0.621   4.754   1.381  1.2850 -0.3919 -1.6829
 3602WAT     H211018   0.699   4.866   1.447 -0.8804 -0.7270  1.6527
 3603WAT      O11019   1.807   1.454   4.007  0.1858 -0.0300 -0.0575
 3603WAT     H111020   1.757   1.497   4.076  0.8435  1.2451 -0.3399
 3603WAT     H211021   1.789   1.505   3.928 -0.5676 -1.4743 -0.8581
 3604WAT      O11022   2.246   1.319   4.054  0.0579  0.2150  0.3518
 3604WAT     H111023   2.246   1.240   4.000 -0.7647  0.7894 -0.5014
 3604WAT     H211024   2.336   1.325   4.087 -0.0246 -1.4321  0.9648
 3605WAT      O11025   4.419   4.123   2.954 -0.1711  0.3635  0.6746
 3605WAT     H111026   4.502   4.075   2.956  0.2126  1.0359  1.4174
 3605WAT     H211027   4.403   4.139   2.861  0.0526 -0.5778  0.4584
 3606WAT      O11028   2.377   3.720   0.782  0.7113 -0.0015 -0.4637
 3606WAT     H111029   2.307   3.779   0.812  0.6360 -0.8293  1.0606
 3606WAT     H211030   2.342   3.682   0.701 -1.8306 -2.3380  1.5251
 3607WAT      O11031   1.768   4.395   1.169 -0.1872 -0.1089 -0.1556
 3607WAT     H111032   1.820   4.360   1.241 -2.0184  1.0607  1.8544
 3607WAT     H211033   1.780   4.333   1.098  1.8275 -1.2351  1.0926
 3608WAT      O11034   1.708   0.896   2.422 -0.2050 -0.0721 -0.0378
 3608WAT     H111035   1.790   0.883   2.470  1.2617  3.6527 -1.2683
 3608WAT     H211036   1.719   0.846   2.341 -1.3335 -3.6087  1.7740
 3609WAT      O11037   1.339   0.341   1.905  0.0085  0.3926 -0.1367
 3609WAT     H111038   1.434   0.327   1.901  0.1715  0.8348  1.4078
 3609WAT     H211039   1.329   0.436   1.898 -0.3380  0.3246 -0.5462
 3610WAT      O11040   2.556   4.709   3.996  0.0026  0.2627 -0.3839
 3610WAT     H111041   2.635   4.759   4.016  0.0328 -0.1328  0.5322
 3610WAT     H211042   2.499   4.722   4.072 -1.7414  2.3102 -1.9431
 3611WAT      O11043   2.037   0.832   4.602  0.5708  0.3292  0.4964
 3611WAT     H111044   2.120   0.855   4.644  1.2215 -1.7610  0.4626
 3611WAT     H211045   2.061   0.813   4.512 -0.0739  0.3170  0.3232
 3612WAT      O11046   1.246   1.354   0.119 -0.0957  0.1929  0.3359
 3612WAT     H111047   1.165   1.304   0.132 -0.0084 -0.0464 -0.0387
 3612WAT     H211048   1.216   1.444   0.104 -0.3057  0.0424 -0.1434
 3613WAT      O11049   1.728   0.479   3.546  0.0223  0.5080 -0.2039
 3613WAT     H111050   1.633   0.473   3.555  0.0553 -0.7121 -0.4886
 3613WAT     H211051   1.750   0.567   3.577 -1.2092  0.8510 -0.2649
 3614WAT      O11052   3.096   3.991   3.739 -0.3040 -0.6011 -0.0242
 3614WAT     H111053   3.043   3.992   3.659 -0.7405  0.2135  0.2611
 3614WAT     H211054   3.032   3.995   3.810  0.0718 -1.5457  0.3768
 3615WAT      O11055   3.464   2.163   4.454  0.0100  0.0613  0.0568
 3615WAT     H111056   3.431   2.252   4.449 -0.2206  0.1294  2.1521
 3615WAT     H211057   3.521   2.162   4.530  0.3423 -1.4863 -0.1684
 3616WAT      O11058   0.463   0.260   2.107 -0.4223 -0.2286 -0.2285
 3616WAT     H111059   0.395   0.196   2.085 -1.2928  0.6141 -0.0378
 3616WAT     H211060   0.419   0.324   2.162  1.1453 -0.9914  2.0374
 3617WAT      O11061   1.179   0.753   1.714 -0.2187  0.4958 -0.1537
 3617WAT     H111062   1.150   0.826   1.660  0.9824  0.6975 -0.5549
 3617WAT     H211063   1.099   0.703   1.733 -1.0878  2.0101  0.2987
 3618WAT      O11064   0.477   1.725   0.207 -0.4182 -0.7689  0.1446
 3618WAT     H111065   0.441   1.754   0.291  0.3683 -0.6188  0.4434
 3618WAT     H211066   0.437   1.783   0.143  1.1393  1.0976  0.7265
 3619WAT      O11067   0.905   0.191   3.932 -0.3332 -0.0283 -0.4552
 3619WAT     H111068   0.835   0.216   3.992  0.8486 -0.6433  1.2591
 3619WAT     H211069   0.888   0.099   3.913 -0.2832 -0.0350 -0.4665
 3620WAT      O11070   2.859   0.264   4.560  0.6596  0.6489  0.0919
 3620WAT     H111071   2.874   0.220   4.477  1.2710  1.3435 -0.1770
 3620WAT     H211072   2.896   0.352   4.548  3.1354 -0.0331  1.9284
 3621WAT      O11073   3.601   5.039   4.947 -0.5263 -0.5265 -0.1223
 3621WAT     H111074   3.614   4.979   5.021  0.2563  0.0046  0.1849
 3621WAT     H211075   3.522   5.007   4.904 -0.5149 -1.3574  0.4472
 3622WAT      O11076   0.125   4.128   1.072 -0.0650 -0.3938  0.0271
 3622WAT     H111077   0.051   4.170   1.028 -0.1065 -1.7618 -1.3168
 3622WAT     H211078   0.085   4.079   1.144 -0.2958 -0.0061  0.1636
 3623WAT      O11079   1.247   2.641   1.671 -0.1072 -0.0297 -0.2333
 3623WAT     H111080   1.267   2.674   1.758  1.1616 -1.6111  0.1081
 3623WAT     H211081   1.313   2.573   1.654 -0.4746  0.0503 -2.3170
 3624WAT      O11082   2.913   2.899   2.663  0.0428  0.4887 -0.0770
 3624WAT     H111083   2.975   2.930   2.597  2.3349  0.5849  1.9715
 3624WAT     H211084   2.878   2.818   2.627  2.3906 -0.2964 -0.8144
 3625WAT      O11085   1.500   4.581   0.159 -0.0150  0.3403 -0.8395
 3625WAT     H111086   1.495   4.677   0.157 -0.6804  0.3107 -0.7673
 3625WAT     H211087   1.425   4.552   0.107 -0.1970 -0.1473 -0.3133
 3626WAT      O11088   2.982   2.349   0.673  0.1728 -0.0080  0.1693
 3626WAT     H111089   2.985   2.401   0.753 -2.7017 -0.5135  0.6948
 3626WAT     H211090   2.988   2.413   0.603  1.2628  0.5726  0.7552
 3627WAT      O11091   4.151   1.615   5.155  0.5017 -0.0663  0.0408
 3627WAT     H111092   4.149   1.532   5.108 -0.1646 -0.5793  0.9570
 3627WAT     H211093   4.164   1.681   5.086  0.2671 -0.8591 -0.7744
 3628WAT      O11094   0.924   2.099   5.233 -1.1905 -0.6309  0.3515
 3628WAT     H111095   0.883   2.027   5.281 -1.8246 -0.4950  0.0211
 3628WAT     H211096   0.915   2.074   5.141 -1.2150 -0.2369  0.2457
 3629WAT      O11097   0.578   0.044   2.421 -0.2493  0.1286  0.4089
 3629WAT     H111098   0.615   0.100   2.489 -0.1437 -0.4870  0.8702
 3629WAT     H211099   0.584  -0.045   2.457  2.0033 -0.5421 -1.3507
 3630WAT      O11100   4.111   5.101   3.463 -0.1693  0.7237  0.5380
 3630WAT     H111101   4.043   5.145   3.412 -0.2140  0.0573  0.0238
 3630WAT     H211102   4.068   5.076   3.545 -0.5779  0.2002  0.1663
 3631WAT      O11103   3.673   3.967   3.125  0.0037  0.1380  0.6145
 3631WAT     H111104   3.671   4.058   3.154  0.8615  0.0441  1.0132
 3631WAT     H211105   3.584   3.935   3.138 -0.1901  0.7901  0.9072
 3632WAT      O11106   0.905   3.379   4.629 -0.1993 -0.2562  0.2958
 3632WAT     H111107   0.958   3.459   4.638  1.1093 -1.0880  0.2339
 3632WAT     H211108   0.835   3.390   4.693  1.4043 -0.1495  2.1415
 3633WAT      O11109   0.699   1.252   2.560 -0.3989 -0.2637 -0.9048
 3633WAT     H111110   0.789   1.221   2.560  0.0272  0.8004 -2.9013
 3633WAT     H211111   0.669   1.238   2.650  2.5840  1.7056  0.5654
 3634WAT      O11112   0.331   0.580   1.181 -0.4809 -0.3592  0.0401
 3634WAT     H111113   0.371   0.536   1.255 -3.3275 -0.2983  1.7381
 3634WAT     H211114   0.374   0.666   1.179  2.3632 -1.6682 -0.9213
 3635WAT      O11115   0.684   0.752   0.761  0.4313 -0.1221  0.1995
 3635WAT     H111116   0.620   0.777   0.694  1.1969 -0.1385 -0.5608
 3635WAT     H211117   0.717   0.667   0.731  0.8308 -0.0942  0.5635
 3636WAT      O11118   2.465   5.082   1.271 -0.5685 -0.5843  0.5175
 3636WAT     H111119   2.428   5.003   1.232 -0.7591 -0.1860 -0.1193
 3636WAT     H211120   2.457   5.148   1.203 -1.6021  0.3173  1.4802
 3637WAT      O11121   2.056   3.925   2.983  0.2804  0.1849 -0.2214
 3637WAT     H111122   2.051   3.850   3.041 -1.0213 -0.6984 -1.3913
 3637WAT     H211123   1.979   3.916   2.926  0.4114  2.0843 -0.7767
 3638WAT      O11124   1.319   2.420   0.981 -0.3052  0.3393 -0.1644
 3638WAT     H111125   1.318   2.383   0.892 -0.1679 -1.0805  0.3920
 3638WAT     H211126   1.228   2.419   1.008 -0.3331  0.6622 -0.2481
 3639WAT      O11127   4.385   2.896   1.421  0.1498 -0.7920  0.4956
 3639WAT     H111128   4.457   2.923   1.364 -1.0715 -1.0969 -1.2818
 3639WAT     H211129   4.369   2.971   1.478  0.7814 -0.0796 -0.2400
 3640WAT      O11130   1.878   0.024   2.494 -0.2806 -0.3183 -0.7522
 3640WAT     H111131   1.863   0.013   2.588  1.3000 -1.0240 -0.5514
 3640WAT     H211132   1.818   0.094   2.468 -1.9383 -1.2333  0.4278
 3641WAT      O11133   0.281   3.803   3.645  0.3140 -0.1544 -0.3250
 3641WAT     H111134   0.236   3.869   3.592 -0.7642  0.8231  1.7205
 3641WAT     H211135   0.211   3.761   3.695  1.4402  0.2781  1.7151
 3642WAT      O11136   2.868   5.041   2.854 -0.4118  0.3650 -0.6973
 3642WAT     H111137   2.949   4.994   2.872 -1.6013 -1.2954  0.6275
 3642WAT     H211138   2.882   5.128   2.893 -0.1888 -0.7593  1.9678
 3643WAT      O11139   2.579   0.572   0.376 -0.6500  0.5722 -0.2633
 3643WAT     H111140   2.563   0.481   0.401  0.0569  0.3342 -0.6427
 3643WAT     H211141   2.648   0.567   0.310 -2.1661  1.2184 -1.9790
 3644WAT      O11142   4.246   2.361   2.009 -0.1147 -0.4766  0.7197
 3644WAT     H111143   4.204   2.284   2.049 -0.8878 -1.3437 -1.5856
 3644WAT     H211144   4.245   2.342   1.915 -0.0590  2.2534  0.0998
 3645WAT      O11145   3.669   1.761   1.538  0.2199  0.7576 -0.0915
 3645WAT     H111146   3.592   1.811   1.565  0.5823  1.4341 -0.2789
 3645WAT     H211147   3.719   1.747   1.618 -0.0382  0.4227  0.0111
 3646WAT      O11148   3.143   0.233   3.862 -0.3664  0.3057 -0.0573
 3646WAT     H111149   3.140   0.306   3.924 -0.6821  1.1208 -1.0038
 3646WAT     H211150   3.052   0.204   3.854 -0.1287 -0.8055  0.9974
 3647WAT      O11151   2.966   1.477   2.969  0.2204  0.2690 -0.0010
 3647WAT     H111152   3.049   1.461   3.014 -0.1717  0.9291  0.9842
 3647WAT     H211153   2.931   1.390   2.952  1.4650 -0.0411 -1.1291
 3648WAT      O11154   2.840   0.291   0.912 -0.1627  0.2527 -0.5615
 3648WAT     H111155   2.868   0.335   0.992 -0.8982  0.0186 -0.1645
 3648WAT     H211156   2.881   0.204   0.916 -0.8875 -0.0705 -0.0083
 3649WAT      O11157   0.341   1.331   4.122 -0.0060  0.4639 -0.3902
 3649WAT     H111158   0.316   1.244   4.153  1.9921 -0.2190 -0.5175
 3649WAT     H211159   0.289   1.391   4.175  2.0932 -0.6847  3.3293
 3650WAT      O11160   2.271   3.186   5.158  0.2048 -0.8631 -0.4514
 3650WAT     H111161   2.217   3.230   5.092 -0.2023 -1.3169 -0.4246
 3650WAT     H211162   2.225   3.200   5.240  1.5266  1.1108  0.0504
 3651WAT      O11163   1.749   3.705   3.334  0.4531 -0.4319 -0.5084
 3651WAT     H111164   1.754   3.645   3.408  1.5277 -0.5600 -0.6784
 3651WAT     H211165   1.756   3.792   3.374  0.8660 -0.4944 -0.4402
 3652WAT      O11166   2.280   4.346   3.430 -0.2885  0.0876  0.0800
 3652WAT     H111167   2.325   4.414   3.380  0.1364 -1.2421 -1.4114
 3652WAT     H211168   2.194   4.340   3.388 -0.8004  0.5510  1.0237
 3653WAT      O11169   1.145   4.590   0.722 -0.0609 -0.3968  0.0682
 3653WAT     H111170   1.165   4.625   0.636 -0.9839 -1.4392 -0.6097
 3653WAT     H211171   1.230   4.561   0.757  0.1966 -0.9600 -0.9660
 3654WAT      O11172   0.772   0.724   4.718  0.0096  0.4693 -0.0523
 3654WAT     H111173   0.772   0.810   4.759 -0.3462 -0.2459  1.5643
 3654WAT     H211174   0.851   0.681   4.752  0.5179  0.3621 -1.3261
 3655WAT      O11175   1.478   3.331   1.907 -0.0157  0.7049 -0.0705
 3655WAT     H111176   1.443   3.409   1.949 -0.3212 -0.6686  2.4362
 3655WAT     H211177   1.401   3.289   1.868 -0.6006 -0.2630  1.9711
 3656WAT      O11178   3.340   4.074   2.211  0.6773  0.5828 -0.4236
 3656WAT     H111179   3.425   4.119   2.203  0.8032  0.1159 -2.0093
 3656WAT     H211180   3.278   4.133   2.168  0.0957  1.0979  1.0630
 3657WAT      O11181   3.026   1.273   5.166  0.3580  0.4581  0.1853
 3657WAT     H111182   3.070   1.214   5.104  0.4132  0.7166 -0.0242
 3657WAT     H211183   3.094   1.337   5.189  0.4915  0.0708  0.9075
 3658WAT      O11184   3.516   0.924   0.552 -0.2304  0.1621  0.0208
 3658WAT     H111185   3.472   0.937   0.469  0.2732 -2.1883 -0.6966
 3658WAT     H211186   3.552   1.010   0.575 -1.2790  1.0820 -1.6298
 3659WAT      O11187   0.214   4.660   5.208  0.2200 -0.1203  0.5838
 3659WAT     H111188   0.172   4.610   5.137 -0.5486  1.3055  0.0008
 3659WAT     H211189   0.156   4.734   5.223  2.3618  1.7936 -0.0579
 3660WAT      O11190   4.085   4.301   4.987  0.1533  0.1878  0.6768
 3660WAT     H111191   4.085   4.209   5.014  0.0211  0.0996  0.3923
 3660WAT     H211192   4.160   4.340   5.030  0.6027 -0.2162  0.2728
 3661WAT      O11193   1.587   0.622   1.073 -0.8540  0.3906 -0.2781
 3661WAT     H111194   1.588   0.707   1.117  0.5181  0.5117 -0.4843
 3661WAT     H211195   1.583   0.644   0.980  1.6327  0.3582 -0.4595
 3662WAT      O11196   0.752   4.084   1.824  0.8738  0.1068 -0.3738
 3662WAT     H111197   0.724   4.074   1.734  0.5046 -1.1686 -0.1299
 3662WAT     H211198   0.739   4.177   1.843 -0.3754  0.1116 -1.1812
 3663WAT      O11199   3.179   0.342   3.324  0.1533  0.3673 -0.7085
 3663WAT     H111200   3.229   0.304   3.252  2.8164  0.4052  0.9715
 3663WAT     H211201   3.163   0.268   3.384 -0.3159  0.6994 -0.4088
 3664WAT      O11202   1.353   4.344   1.007 -0.0838 -0.0748  0.5205
 3664WAT     H111203   1.361   4.409   0.937  1.2363  0.0621  0.7741
 3664WAT     H211204   1.411   4.376   1.076 -0.4354 -0.8468  1.1884
 3665WAT      O11205   4.094   4.236   0.629 -0.4141 -0.3583 -0.2961
 3665WAT     H111206   4.070   4.286   0.707 -2.5578 -0.6764 -0.6851
 3665WAT     H211207   4.158   4.173   0.661  1.0250  1.4210  0.5594
 3666WAT      O11208   3.377   2.946   2.932 -0.5225  0.4021  0.3078
 3666WAT     H111209   3.288   2.917   2.911  0.0188 -0.6926 -0.5892
 3666WAT     H211210   3.366   3.038   2.958 -1.9926  0.1019  0.9039
 3667WAT      O11211   2.144   0.347   2.469 -0.3835  0.0332 -0.2239
 3667WAT     H111212   2.049   0.356   2.475 -0.3822 -0.3841  0.5264
 3667WAT     H211213   2.177   0.398   2.543  0.1433  2.5840 -2.0787
 3668WAT      O11214   1.895   0.528   4.292 -0.4050 -0.5866  0.0317
 3668WAT     H111215   1.867   0.437   4.283 -1.1934 -0.2429 -1.1557
 3668WAT     H211216   1.842   0.562   4.364 -0.3316 -0.9791  0.2736
 3669WAT      O11217   1.459   0.425   2.615 -1.6043 -1.0428 -0.8442
 3669WAT     H111218   1.461   0.419   2.519 -0.1086  0.1204 -0.9399
 3669WAT     H211219   1.513   0.502   2.635 -0.5631 -2.1613  0.9940
 3670WAT      O11220   0.863   2.554   2.788 -0.4781 -0.0763  0.0843
 3670WAT     H111221   0.851   2.636   2.739  1.0059 -0.5174 -1.1052
 3670WAT     H211222   0.851   2.486   2.722  0.1043 -0.7453  0.6621
 3671WAT      O11223   0.088   3.913   1.274 -0.0798  0.0060  0.2390
 3671WAT     H111224   0.180   3.886   1.274 -0.2518 -0.6017  0.8241
 3671WAT     H211225   0.040   3.832   1.290 -0.7287  0.3024 -0.1827
 3672WAT      O11226   1.914   0.196   2.162 -0.0960  0.1004 -0.1058
 3672WAT     H111227   1.860   0.274   2.171  0.7502  0.7500 -0.5434
 3672WAT     H211228   1.854   0.123   2.179 -1.0866  0.8003 -0.5173
 3673WAT      O11229   1.970   3.744   0.240 -0.8644 -0.3776 -0.5477
 3673WAT     H111230   2.062   3.725   0.217 -0.7355  0.1677 -0.4837
 3673WAT     H211231   1.927   3.658   0.236 -0.4807 -0.5510 -1.1550
 3674WAT      O11232   4.427   2.673   0.275  0.3264  0.2412  0.1330
 3674WAT     H111233   4.399   2.750   0.225  0.0176 -0.6235 -1.0989
 3674WAT     H211234   4.520   2.663   0.254  0.3654  0.2743  0.2903
 3675WAT      O11235   1.735   2.025   0.718  0.4854  0.1136 -0.3613
 3675WAT     H111236   1.669   2.040   0.786  1.1798 -1.0795  0.6286
 3675WAT     H211237   1.690   1.972   0.652  0.1046  0.3792 -0.3185
 3676WAT      O11238   0.027   4.894   4.270 -0.0726  0.6234 -0.1895
 3676WAT     H111239   0.109   4.846   4.284 -0.7089 -0.3034  0.5186
 3676WAT     H211240   0.054   4.985   4.263  0.8838  0.5711  1.9046
 3677WAT      O11241   3.356   4.989   0.329 -0.2064 -0.0175 -0.4711
 3677WAT     H111242   3.269   4.954   0.311 -0.3703 -0.4368  1.0264
 3677WAT     H211243   3.416   4.929   0.284 -0.6439 -0.0095 -1.0862
 3678WAT      O11244   0.612   2.425   0.113 -0.7199 -0.0520 -0.3815
 3678WAT     H111245   0.682   2.434   0.178 -0.9247 -0.6354 -0.0762
 3678WAT     H211246   0.582   2.514   0.097 -0.5604  0.1102  0.2070
 3679WAT      O11247   1.974   2.784   4.091  0.4916 -0.4192  0.0598
 3679WAT     H111248   2.027   2.721   4.139  0.2731 -1.2443 -0.7439
 3679WAT     H211249   1.885   2.769   4.122  0.6131  0.5042  0.9168
 3680WAT      O11250   3.016   2.063   2.248  0.7775 -0.2293  0.2201
 3680WAT     H111251   2.956   2.092   2.180  0.0143 -0.3367  0.8329
 3680WAT     H211252   3.023   1.968   2.234 -0.7030 -0.5323  1.2881
 3681WAT      O11253   1.820   2.158   2.883  0.0667  0.2583  0.3778
 3681WAT     H111254   1.823   2.066   2.857 -0.7755  0.3107  0.0582
 3681WAT     H211255   1.788   2.156   2.974 -1.2685  0.2830 -0.0658
 3682WAT      O11256   3.221   1.830   0.206  0.0040 -0.0872  0.0766
 3682WAT     H111257   3.287   1.766   0.182 -0.5700 -0.5010 -0.4325
 3682WAT     H211258   3.259   1.878   0.280  1.5694  0.8212 -1.2503
 3683WAT      O11259   3.204   3.504   4.649 -0.0845  0.2219  0.4912
 3683WAT     H111260   3.142   3.433   4.665 -0.4159  0.8520  2.2079
 3683WAT     H211261   3.267   3.468   4.586 -0.9850 -1.1281  0.3411
 3684WAT      O11262   2.634   3.690   0.863  0.4126 -0.0950  0.8145
 3684WAT     H111263   2.541   3.693   0.840  0.6211 -0.6779 -0.1803
 3684WAT     H211264   2.680   3.718   0.784  1.0750  0.7282  1.4746
 3685WAT      O11265   4.231   1.669   3.613 -0.3070  0.5708  0.4306
 3685WAT     H111266   4.150   1.621   3.630 -1.5917  1.7412 -1.9463
 3685WAT     H211267   4.234   1.679   3.518  1.9284  1.7751  0.5622
 3686WAT      O11268   2.012   0.164   5.041  0.4612  0.3089 -0.3522
 3686WAT     H111269   2.090   0.209   5.007  1.0871  1.0004  1.8104
 3686WAT     H211270   1.968   0.130   4.963  2.6857  0.2822 -1.6951
 3687WAT      O11271   0.967   3.079   0.149  0.0821 -0.1811  0.4648
 3687WAT     H111272   0.872   3.069   0.143  0.2026 -1.3408  0.1669
 3687WAT     H211273   0.999   2.991   0.169  1.1831 -0.0648 -0.6344
 3688WAT      O11274   1.327   1.001   3.386  0.0603  0.8221  0.8691
 3688WAT     H111275   1.341   1.095   3.391 -1.9109  1.0910  2.5040
 3688WAT     H211276   1.403   0.963   3.431  2.1960  1.3778 -1.9418
 3689WAT      O11277   0.077   3.490   0.856  0.0127 -0.4953  0.1249
 3689WAT     H111278   0.023   3.473   0.934 -0.9049  1.5817 -0.0004
 3689WAT     H211279   0.106   3.580   0.866  1.7537 -0.9052 -0.8808
 3690WAT      O11280   0.981   1.868   2.856  0.1975 -0.2482  0.1251
 3690WAT     H111281   0.899   1.904   2.820  1.0179  0.3893 -1.1910
 3690WAT     H211282   0.989   1.908   2.943 -1.3453 -1.0672  0.6862
 3691WAT      O11283   0.978   3.659   0.006  0.0350 -0.6138 -0.2712
 3691WAT     H111284   1.003   3.726   0.070  0.1229  0.3754 -1.3067
 3691WAT     H211285   0.897   3.623   0.040 -0.3823  0.5096 -0.0097
 3692WAT      O11286   0.145   1.616   4.985  0.1926 -0.3465 -0.5302
 3692WAT     H111287   0.131   1.549   4.919  0.4810 -1.3536  0.4019
 3692WAT     H211288   0.057   1.643   5.011  0.0727 -0.7524 -0.5158
 3693WAT      O11289   0.768   1.700   1.249 -0.9759 -0.0420 -0.1415
 3693WAT     H111290   0.819   1.623   1.271  0.1970  0.0025 -2.3506
 3693WAT     H211291   0.681   1.666   1.228 -0.3371 -0.8993 -1.5957
 3694WAT      O11292   2.852   2.910   5.132 -0.1510 -0.2947 -0.6193
 3694WAT     H111293   2.846   2.817   5.107 -0.0233 -0.5655  0.3072
 3694WAT     H211294   2.903   2.950   5.062 -1.5260 -0.5858 -1.8605
 3695WAT      O11295   0.987   3.555   2.878  0.0384 -0.7146 -0.1840
 3695WAT     H111296   1.009   3.462   2.866  1.0230 -0.2740 -2.3937
 3695WAT     H211297   0.937   3.577   2.799  2.0756  1.2174 -1.0403
 3696WAT      O11298   0.232   1.669   3.046 -0.0641 -0.2553 -0.3700
 3696WAT     H111299   0.276   1.667   2.961 -0.4920  2.3196 -0.7183
 3696WAT     H211300   0.141   1.649   3.026  0.0085 -0.6058 -0.3618
 3697WAT      O11301   3.502   2.850   3.144  0.4473  0.3173 -0.5155
 3697WAT     H111302   3.456   2.862   3.061 -0.3202 -2.3656 -0.5518
 3697WAT     H211303   3.458   2.910   3.205 -0.7342  0.4058 -1.4231
 3698WAT      O11304   0.756   1.217   0.560 -0.4035 -0.3952  0.1007
 3698WAT     H111305   0.836   1.264   0.582  0.1162 -1.6435  1.0184
 3698WAT     H211306   0.692   1.286   0.540  1.1972  0.6233 -1.9416
 3699WAT      O11307   2.737   1.001   5.151  0.0529 -0.2834  0.0586
 3699WAT     H111308   2.729   0.907   5.161 -0.6463 -0.2002  0.2905
 3699WAT     H211309   2.830   1.019   5.166  0.7702 -1.2510 -2.6252
 3700WAT      O11310   1.199   2.419   2.094 -0.5480  0.0966 -0.5866
 3700WAT     H111311   1.143   2.383   2.025 -0.4100 -2.5103  0.5545
 3700WAT     H211312   1.283   2.433   2.050 -0.8921 -0.0700 -1.3132
 3701WAT      O11313   2.253   5.000   3.702  0.3734 -0.0149  0.1136
 3701WAT     H111314   2.170   5.026   3.662  0.9752  1.1491 -0.4520
 3701WAT     H211315   2.229   4.939   3.771 -1.0691  1.2234  0.7662
 3702WAT      O11316   2.079   0.989   3.178 -0.6644  0.3984 -0.3605
 3702WAT     H111317   2.061   0.895   3.190 -0.6208  0.2393 -1.4688
 3702WAT     H211318   2.119   1.015   3.261  2.5200 -1.3689 -1.1710
 3703WAT      O11319   3.260   1.076   2.013 -0.2341  0.2367 -0.1880
 3703WAT     H111320   3.218   1.142   1.957 -0.5413  1.1184  1.0334
 3703WAT     H211321   3.189   1.037   2.062  0.0407 -0.4918 -0.3565
 3704WAT      O11322   0.219   3.317   2.805  0.2011  0.0506 -0.4427
 3704WAT     H111323   0.310   3.288   2.800  0.3550  0.7108 -2.8613
 3704WAT     H211324   0.199   3.320   2.898  1.9272 -2.3040  0.0746
 3705WAT      O11325   0.338   4.511   2.464 -0.8792  0.1415 -0.7206
 3705WAT     H111326   0.298   4.486   2.381 -1.0691  1.4421 -1.0374
 3705WAT     H211327   0.400   4.581   2.441  1.3514 -1.5405 -0.2047
 3706WAT      O11328   1.118   3.887   2.755 -0.6180 -0.2585 -0.3975
 3706WAT     H111329   1.180   3.841   2.698 -1.7789 -1.6366 -0.6073
 3706WAT     H211330   1.099   3.968   2.708 -0.3725 -0.6676 -1.2311
 3707WAT      O11331   3.872   0.619   2.879  0.4510  0.6128 -0.7883
 3707WAT     H111332   3.847   0.677   2.807  0.0094  0.8999 -0.4135
 3707WAT     H211333   3.967   0.627   2.885  0.5601  0.1399 -1.7133
 3708WAT      O11334   2.658   2.328   4.473  0.3192 -0.1470  0.0823
 3708WAT     H111335   2.686   2.267   4.405 -0.9121 -0.5454 -0.1004
 3708WAT     H211336   2.738   2.373   4.500  0.7408  0.5616 -2.1542
 3709WAT      O11337   0.263   0.057   1.639  0.2126  0.8822 -0.2703
 3709WAT     H111338   0.319   0.135   1.635  1.3370  0.2483  1.7254
 3709WAT     H211339   0.199   0.070   1.570  0.8682  3.1963 -0.5225
 3710WAT      O11340   2.355   3.336   3.197 -0.2284 -0.0960  0.1846
 3710WAT     H111341   2.267   3.318   3.228  0.7833 -0.0900  3.3866
 3710WAT     H211342   2.373   3.426   3.225  0.5672  0.1858 -1.1008
 3711WAT      O11343   3.919   1.947   3.621 -0.2110  0.3067  0.7339
 3711WAT     H111344   3.909   1.868   3.567 -0.6688 -2.1794  4.0956
 3711WAT     H211345   3.858   2.010   3.583  0.5291 -0.6632 -2.4137
 3712WAT      O11346   4.196   4.917   2.474 -0.1878 -0.6483  0.0510
 3712WAT     H111347   4.105   4.945   2.462  0.2702  0.9050 -0.0553
 3712WAT     H211348   4.228   4.972   2.546  0.6735 -1.1580  0.0603
 3713WAT      O11349   2.228   1.359   1.206  0.3152  0.3484 -0.0142
 3713WAT     H111350   2.278   1.330   1.130  1.2017  1.9211 -0.0749
 3713WAT     H211351   2.264   1.309   1.279 -0.4035 -1.0256 -0.5768
 3714WAT      O11352   3.775   4.852   4.312 -0.3951 -0.3426  0.2575
 3714WAT     H111353   3.786   4.797   4.390  1.9678 -0.1003  0.1742
 3714WAT     H211354   3.825   4.807   4.244 -0.2905  0.7464 -0.4041
 3715WAT      O11355   4.476   1.768   1.442  0.0533 -0.7370 -0.4866
 3715WAT     H111356   4.535   1.693   1.434  1.6762  0.0834  2.3597
 3715WAT     H211357   4.431   1.754   1.526  0.1672  1.2413 -0.0400
 3716WAT      O11358   0.624   2.090   3.661 -0.2423  0.1974  0.1800
 3716WAT     H111359   0.532   2.073   3.682 -0.9375  1.6916 -1.4334
 3716WAT     H211360   0.661   2.126   3.742 -0.9209 -0.8870  0.9967
 3717WAT      O11361   0.667   5.143   3.935  0.1018 -0.3211  0.2360
 3717WAT     H111362   0.689   5.071   3.994  2.4751  0.8047  0.8542
 3717WAT     H211363   0.723   5.128   3.858 -1.0498 -0.3354 -0.6287
 3718WAT      O11364   1.872   1.481   1.932 -0.4601 -0.2633 -0.1740
 3718WAT     H111365   1.855   1.420   1.860  0.7093 -0.1342 -0.5815
 3718WAT     H211366   1.910   1.426   2.001  0.1328 -0.0772 -0.3528
 3719WAT      O11367   0.087   4.444   4.631  0.3162  0.2159  1.1701
 3719WAT     H111368   0.063   4.385   4.560  0.8666  1.0296  0.2884
 3719WAT     H211369   0.107   4.527   4.588  1.7496  0.4201  2.1403
 3720WAT      O11370   1.397   1.695   0.262  0.1660  0.3387 -0.4404
 3720WAT     H111371   1.445   1.617   0.288  0.8338  0.5982 -0.8725
 3720WAT     H211372   1.348   1.668   0.184  0.3209  0.3262 -0.5330
 3721WAT      O11373   4.387   0.574   0.662  0.2539  0.7590 -0.2749
 3721WAT     H111374   4.426   0.505   0.608 -3.5418  0.0094 -2.4307
 3721WAT     H211375   4.427   0.655   0.630  0.7796  0.0039 -1.6266
 3722WAT      O11376   1.515   1.326   3.912  0.3134  0.0103  0.4530
 3722WAT     H111377   1.582   1.280   3.961  1.2101  0.0608 -0.6715
 3722WAT     H211378   1.562   1.365   3.838 -0.9627 -0.0175 -0.4076
 3723WAT      O11379   0.946   0.294   3.699 -0.3589  0.2623 -0.6695
 3723WAT     H111380   0.944   0.389   3.709  0.5947  0.1699  0.6451
 3723WAT     H211381   0.912   0.261   3.782  2.2414 -0.5497  0.1418
 3724WAT      O11382   4.200   2.132   0.314 -0.1703  0.2575  0.8110
 3724WAT     H111383   4.127   2.189   0.287  1.0167  0.8731 -1.3745
 3724WAT     H211384   4.258   2.190   0.363  0.0398  0.4309  0.3682
 3725WAT      O11385   3.344   0.259   2.924  0.2355 -0.8164 -0.5437
 3725WAT     H111386   3.366   0.167   2.910  1.0654 -0.5021 -1.4410
 3725WAT     H211387   3.377   0.304   2.846  0.4028  0.3350  0.1620
 3726WAT      O11388   3.458   3.189   4.109 -0.6313  0.2234 -0.0568
 3726WAT     H111389   3.522   3.254   4.138  2.1690 -1.9877 -0.7861
 3726WAT     H211390   3.435   3.216   4.020  0.2161  0.4440 -0.2189
 3727WAT      O11391   2.417   2.623   4.318 -0.0028 -0.0825 -0.3887
 3727WAT     H111392   2.492   2.680   4.333  0.9974 -1.1876 -1.0874
 3727WAT     H211393   2.423   2.599   4.225  0.2943 -2.2658  0.1554
 3728WAT      O11394   2.143   1.756   1.684  0.3230  0.8336 -0.3722
 3728WAT     H111395   2.186   1.697   1.622  0.3484  1.6133 -1.1161
 3728WAT     H211396   2.052   1.727   1.686  0.5176  0.2383 -0.0829
 3729WAT      O11397   2.619   2.205   3.991  0.0268  0.0372 -0.0872
 3729WAT     H111398   2.591   2.278   3.934  1.7152  0.3614 -0.5519
 3729WAT     H211399   2.569   2.218   4.071  3.0670  4.2461  1.5191
 3730WAT      O11400   3.287   3.692   3.165 -0.3811 -0.6536  0.9816
 3730WAT     H111401   3.292   3.786   3.146 -0.4989 -0.4154  2.0663
 3730WAT     H211402   3.202   3.665   3.130  0.3985 -0.7550 -0.9215
 3731WAT      O11403   4.127   3.921   5.306  0.8628  0.4515  0.6916
 3731WAT     H111404   4.077   4.001   5.288 -0.0103 -0.0088  0.9946
 3731WAT     H211405   4.203   3.926   5.248  0.6152  1.3121  0.4298
 3732WAT      O11406   1.171   3.971   3.595 -0.5073 -0.1681  0.5627
 3732WAT     H111407   1.091   4.016   3.623 -0.9917  1.3442 -2.8104
 3732WAT     H211408   1.140   3.885   3.564 -1.9578  1.9154 -5.0051
 3733WAT      O11409   2.203   2.191   1.875 -0.8668  0.9798  0.5630
 3733WAT     H111410   2.286   2.151   1.849 -1.1851  1.0080 -0.5211
 3733WAT     H211411   2.137   2.131   1.841 -1.3023  0.8040  1.6692
 3734WAT      O11412   0.786   1.236   3.624  0.0144  1.2738 -0.3003
 3734WAT     H111413   0.693   1.222   3.642  0.3505 -2.7159 -0.7317
 3734WAT     H211414   0.826   1.244   3.711 -0.5830  2.2708 -0.0959
 3735WAT      O11415   2.463   0.686   1.912 -0.0351  0.8794  0.1571
 3735WAT     H111416   2.471   0.606   1.964 -3.6366 -0.0667 -0.5132
 3735WAT     H211417   2.523   0.672   1.838 -0.0699 -0.8997  0.4264
 3736WAT      O11418   0.265   0.833   2.863 -1.0990  0.0492  0.0224
 3736WAT     H111419   0.232   0.847   2.952 -0.7415 -1.3894  0.4013
 3736WAT     H211420   0.297   0.919   2.835  1.4610  0.0007  2.3924
 3737WAT      O11421   2.345   2.723   1.986  0.3737  0.0071  0.0232
 3737WAT     H111422   2.404   2.656   1.950 -0.6191 -0.4787 -0.7433
 3737WAT     H211423   2.266   2.674   2.010  0.6217  0.4749  1.9900
 3738WAT      O11424   1.641   5.046   4.299  0.4755 -0.1394  0.7957
 3738WAT     H111425   1.595   4.963   4.310 -1.8442  1.1400  1.5604
 3738WAT     H211426   1.633   5.089   4.384 -1.2148  2.1575 -0.4145
 3739WAT      O11427   2.368   2.154   5.220 -0.0796 -0.6555  0.5344
 3739WAT     H111428   2.324   2.230   5.181  2.3436 -0.0258 -1.1945
 3739WAT     H211429   2.352   2.083   5.157 -0.9691 -1.2056  1.3455
 3740WAT      O11430   1.295   4.026   3.848 -0.5406 -0.5194 -0.1289
 3740WAT     H111431   1.254   4.098   3.895 -0.1425  0.1216 -0.7370
 3740WAT     H211432   1.243   4.016   3.768 -0.7747 -1.1088  0.0962
 3741WAT      O11433   3.501   0.415   3.806 -0.1432  0.8967  0.0071
 3741WAT     H111434   3.426   0.474   3.810  0.6087  1.8406  1.1130
 3741WAT     H211435   3.525   0.400   3.898  0.6413  0.1310 -0.3067
 3742WAT      O11436   3.688   0.570   4.664 -0.0841 -0.1543 -0.0470
 3742WAT     H111437   3.689   0.653   4.617  2.0245 -0.0245  0.1143
 3742WAT     H211438   3.621   0.518   4.620 -1.0149  1.3934 -0.5378
 3743WAT      O11439   3.386   3.983   3.254  0.0903 -0.3915  0.0764
 3743WAT     H111440   3.336   4.058   3.222  1.5952  0.0842 -1.2969
 3743WAT     H211441   3.332   3.946   3.323 -1.1066  1.4307  0.1916
 3744WAT      O11442   2.941   2.070   0.252  0.1063 -0.0226  0.2573
 3744WAT     H111443   3.029   2.088   0.282 -0.8313  1.9160  2.0820
 3744WAT     H211444   2.920   1.984   0.289  1.5653 -1.0213 -1.1347
 3745WAT      O11445   2.034   2.387   4.341 -0.2849  0.3322 -0.3910
 3745WAT     H111446   2.033   2.421   4.430 -0.3236  0.1732 -0.3305
 3745WAT     H211447   2.071   2.299   4.350 -0.2626  0.3271 -0.5353
 3746WAT      O11448   2.837   3.747   4.375  0.2209  0.1969 -0.5987
 3746WAT     H111449   2.808   3.678   4.315  0.0423  0.2669 -0.5930
 3746WAT     H211450   2.841   3.704   4.460  2.2206 -0.3993 -0.9218
 3747WAT      O11451   2.990   0.680   0.512 -1.0752  0.6666  0.2025
 3747WAT     H111452   3.021   0.761   0.554 -2.7572  0.7973  1.2588
 3747WAT     H211453   2.991   0.615   0.583 -0.3436 -0.1013 -0.4936
 3748WAT      O11454   2.339   1.336   4.904 -0.2131 -0.6624 -0.1507
 3748WAT     H111455   2.370   1.285   4.979 -0.5578 -1.3339 -0.4570
 3748WAT     H211456   2.291   1.409   4.942  0.9901 -0.0835  0.3149
 3749WAT      O11457   0.856   4.308   2.814 -0.2042  0.4286  0.9499
 3749WAT     H111458   0.814   4.225   2.791 -0.4016  0.6657  0.4212
 3749WAT     H211459   0.783   4.366   2.834 -0.0167  0.0244  2.9817
 3750WAT      O11460   3.757   1.043   0.769  0.2584 -0.8400  0.1019
 3750WAT     H111461   3.804   1.011   0.693  0.6948 -0.1604  0.0751
 3750WAT     H211462   3.698   1.110   0.735 -0.5324 -1.4703  0.1775
 3751WAT      O11463   2.679   5.024   4.973 -0.2115 -0.6391  0.0633
 3751WAT     H111464   2.746   4.994   4.912  0.2602  2.5356 -1.1842
 3751WAT     H211465   2.614   5.067   4.918 -2.0226 -1.4161  1.4799
 3752WAT      O11466   4.391   3.756   5.003  0.0551  0.5914 -0.0739
 3752WAT     H111467   4.357   3.755   4.914 -0.3845 -2.8825 -0.0097
 3752WAT     H211468   4.481   3.724   4.994 -0.2122 -0.4451  0.7473
 3753WAT      O11469   1.139   3.418   0.512 -0.2685 -0.3190 -0.0105
 3753WAT     H111470   1.061   3.363   0.520 -1.5841  1.4619  0.0823
 3753WAT     H211471   1.212   3.358   0.526 -1.5090 -2.3753 -1.7264
 3754WAT      O11472   3.817   4.574   3.329 -0.4629  0.3802 -0.2540
 3754WAT     H111473   3.797   4.657   3.373  0.2584  0.8399 -0.7671
 3754WAT     H211474   3.871   4.600   3.254  0.9358 -0.6734  0.3654
 3755WAT      O11475   3.272   0.941   4.681  0.1940  0.4706  0.5813
 3755WAT     H111476   3.198   0.991   4.647  0.4037  0.5008  0.1643
 3755WAT     H211477   3.285   0.870   4.619  0.3197  0.2857  0.8161
 3756WAT      O11478   4.229   1.500   3.342  0.3562 -0.0899  0.2795
 3756WAT     H111479   4.325   1.501   3.339  0.4340 -0.1164  1.7726
 3756WAT     H211480   4.204   1.592   3.329  0.5331 -0.1704 -0.7335
 3757WAT      O11481   4.078   0.315   1.885 -0.5122 -0.6942 -0.0972
 3757WAT     H111482   4.159   0.282   1.926 -0.3284 -0.6141 -0.3898
 3757WAT     H211483   4.008   0.264   1.925 -0.4559  0.2043  1.2084
 3758WAT      O11484   1.597   4.825   2.371  0.1854  0.2627 -0.3854
 3758WAT     H111485   1.597   4.731   2.357  0.4208  0.3541 -0.9989
 3758WAT     H211486   1.688   4.851   2.357  0.3184  0.4428  0.7264
 3759WAT      O11487   0.805   2.950   0.408 -0.9353  0.1815  0.5506
 3759WAT     H111488   0.776   2.900   0.332  1.6781  0.4684 -0.7394
 3759WAT     H211489   0.859   2.889   0.459 -1.7189  0.3266  1.6015
 3760WAT      O11490   3.756   0.826   4.580  0.2691  0.3206 -0.3374
 3760WAT     H111491   3.831   0.818   4.521  0.3646 -0.1083 -0.1639
 3760WAT     H211492   3.702   0.896   4.542  0.7841  0.6735 -0.4329
 3761WAT      O11493   3.433   2.407   1.149 -0.0247  0.4640  0.5495
 3761WAT     H111494   3.387   2.325   1.163 -1.0557  0.7932 -0.8057
 3761WAT     H211495   3.401   2.465   1.219 -0.8754  0.3591  0.2512
 3762WAT      O11496   2.587   3.577   4.389  0.1633  0.0441  0.2593
 3762WAT     H111497   2.606   3.517   4.461 -0.7335  0.4642  0.8617
 3762WAT     H211498   2.541   3.522   4.325 -1.0789  0.1663  1.0154
 3763WAT      O11499   1.670   2.987   3.981 -0.1362 -0.2361 -0.0351
 3763WAT     H111500   1.717   2.915   3.939  1.1928 -0.7875  2.2259
 3763WAT     H211501   1.605   2.944   4.036 -1.5813  0.4519 -1.1350
 3764WAT      O11502   0.864   4.004   2.075 -0.0751 -0.2656 -0.1115
 3764WAT     H111503   0.933   3.941   2.056  0.1770 -0.5761  1.6315
 3764WAT     H211504   0.821   4.019   1.991  1.9631 -0.2220 -1.2129
 3765WAT      O11505   1.735   0.556   4.502 -0.3711 -0.0534 -0.3770
 3765WAT     H111506   1.727   0.621   4.572 -1.3274 -1.2896  0.7112
 3765WAT     H211507   1.645   0.541   4.473 -0.1611 -0.9239 -0.5941
 3766WAT      O11508   1.689   3.093   2.383  0.3364  0.5786  0.2889
 3766WAT     H111509   1.637   3.085   2.463 -0.2189  1.4960  0.0441
 3766WAT     H211510   1.627   3.072   2.313  0.0758  2.3769 -0.0554
 3767WAT      O11511   0.855   2.052   1.440 -0.5377 -0.3518 -0.1935
 3767WAT     H111512   0.873   1.986   1.506  0.1997 -0.4832 -0.5126
 3767WAT     H211513   0.841   2.002   1.359 -0.2942 -0.1466 -0.3672
 3768WAT      O11514   4.148   2.498   4.272  0.5514 -0.3732  0.3027
 3768WAT     H111515   4.164   2.576   4.325  2.3106 -0.8233  0.5089
 3768WAT     H211516   4.236   2.466   4.249 -0.1359 -1.1507 -1.4725
 3769WAT      O11517   4.208   3.486   1.982 -0.3103  0.2497  0.2289
 3769WAT     H111518   4.137   3.432   2.016  1.0300 -1.5319  0.3653
 3769WAT     H211519   4.267   3.498   2.057 -0.7055  2.1795  0.2715
 3770WAT      O11520   3.112   1.047   2.674 -0.4248 -0.7982 -0.5560
 3770WAT     H111521   3.025   1.049   2.634 -0.8995 -1.2415  0.4114
 3770WAT     H211522   3.107   0.975   2.737  0.2217  0.0126  0.4466
 3771WAT      O11523   2.620   0.016   1.989  0.1497  0.2115  0.1961
 3771WAT     H111524   2.536   0.055   2.013  0.8321  2.1408 -0.3601
 3771WAT     H211525   2.597  -0.057   1.931 -1.2305 -0.9888  2.1522
 3772WAT      O11526   0.710   2.678   5.243 -0.3689 -0.2231  0.0032
 3772WAT     H111527   0.647   2.738   5.203 -0.7003  0.6479  1.7370
 3772WAT     H211528   0.780   2.670   5.178  0.0659  2.6597 -0.0211
 3773WAT      O11529   0.903   1.611   4.008 -0.4506  0.1635 -0.0586
 3773WAT     H111530   0.903   1.687   3.950 -0.6148  1.3300  1.4120
 3773WAT     H211531   0.825   1.622   4.062  0.1457 -0.4333  0.9605
 3774WAT      O11532   3.572   3.327   5.235 -0.0908 -0.4937  0.0824
 3774WAT     H111533   3.593   3.416   5.263  0.1917 -0.1561 -1.1675
 3774WAT     H211534   3.594   3.273   5.311 -1.8115  0.6340  1.4643
 3775WAT      O11535   4.386   2.400   0.317 -0.6313 -0.2016 -0.0760
 3775WAT     H111536   4.342   2.383   0.400  2.1331  0.7708  1.7133
 3775WAT     H211537   4.382   2.495   0.307  1.4338 -0.0259  0.4229
 3776WAT      O11538   3.553   2.140   3.255  0.5157 -0.1135  0.2467
 3776WAT     H111539   3.603   2.069   3.294  0.1894 -0.0626  0.7705
 3776WAT     H211540   3.534   2.110   3.166  0.0975 -0.8290  0.5666
 3777WAT      O11541   2.754   3.838   0.294  0.4349 -0.4945  0.5582
 3777WAT     H111542   2.822   3.873   0.352  0.0420  1.2679  0.0258
 3777WAT     H211543   2.788   3.855   0.206 -0.0459 -0.9517  0.2830
 3778WAT      O11544   3.002   1.810   1.700 -0.1072  0.6470  0.4747
 3778WAT     H111545   3.088   1.795   1.662  0.4895 -2.1318  2.6284
 3778WAT     H211546   2.941   1.764   1.642 -0.1769  2.1820 -0.7581
 3779WAT      O11547   0.905   1.986   4.967 -0.3669  0.3129  0.5187
 3779WAT     H111548   0.892   1.891   4.960 -0.7807  0.4730 -1.4961
 3779WAT     H211549   0.979   2.004   4.909 -1.3436  1.4195 -0.4179
 3780WAT      O11550   1.546   5.139   1.085  0.1454 -0.9121 -0.9735
 3780WAT     H111551   1.461   5.153   1.043 -0.1714  0.1162 -0.0455
 3780WAT     H211552   1.524   5.113   1.175  0.7929 -0.0982 -0.5657
 3781WAT      O11553   1.984   0.303   0.738  0.0137  0.0143  0.4784
 3781WAT     H111554   1.961   0.384   0.784  1.1635  1.4666 -1.3614
 3781WAT     H211555   1.912   0.243   0.758 -1.2260  1.7090  1.3633
 3782WAT      O11556   1.351   2.354   3.045  0.3821 -0.5712  0.4562
 3782WAT     H111557   1.383   2.281   3.098  0.0306 -0.9593  0.1499
 3782WAT     H211558   1.362   2.431   3.100 -0.2035 -0.9922  1.1936
 3783WAT      O11559   0.469   0.287   4.636 -0.5704  0.6064  0.3539
 3783WAT     H111560   0.516   0.276   4.554 -1.4913  1.2531 -0.2855
 3783WAT     H211561   0.479   0.204   4.682  1.3753  0.8016  0.3616
 3784WAT      O11562   2.710   3.442   1.499  0.2332  0.7394 -0.5088
 3784WAT     H111563   2.764   3.410   1.427  0.2474  0.0679 -0.2041
 3784WAT     H211564   2.661   3.516   1.462  0.1561  0.3247 -1.2316
 3785WAT      O11565   1.500   3.901   4.173 -0.6527  0.1419 -0.5330
 3785WAT     H111566   1.531   3.912   4.263  0.0869  1.7087 -0.9439
 3785WAT     H211567   1.412   3.938   4.172 -0.4195  0.7019 -0.5846
 3786WAT      O11568   3.720   0.808   1.178  0.7208 -0.1132 -0.1413
 3786WAT     H111569   3.711   0.900   1.202  3.2324  0.5358 -1.3683
 3786WAT     H211570   3.678   0.760   1.250 -0.6080  1.9637  0.5319
 3787WAT      O11571   1.313   3.056   3.952  0.2376 -0.3078 -0.2089
 3787WAT     H111572   1.352   3.132   3.995 -1.9896  0.1275  1.1875
 3787WAT     H211573   1.265   3.093   3.877 -0.7520 -0.3040  0.4046
 3788WAT      O11574   0.813   4.045   0.827 -0.0193 -0.6560  0.5067
 3788WAT     H111575   0.778   4.119   0.877  0.4899 -0.4146  0.5208
 3788WAT     H211576   0.792   4.065   0.736 -0.3535 -0.7620  0.5583
 3789WAT      O11577   2.415   3.851   3.429  0.4347 -0.1072 -0.2754
 3789WAT     H111578   2.332   3.893   3.450  1.6051  1.3133  1.9952
 3789WAT     H211579   2.446   3.817   3.513  2.1868 -0.5123 -1.0404
 3790WAT      O11580   2.843   2.316   4.867 -0.0101 -0.4545  0.4821
 3790WAT     H111581   2.769   2.370   4.895 -0.7817 -0.4826 -1.3998
 3790WAT     H211582   2.915   2.377   4.858 -0.4545 -0.0075 -0.0676
 3791WAT      O11583   1.982   2.314   2.730  0.4051 -0.0808  0.2159
 3791WAT     H111584   1.920   2.257   2.775  0.1220  0.9320  1.1733
 3791WAT     H211585   2.064   2.265   2.728  0.2597 -0.3841  1.3217
 3792WAT      O11586   3.722   3.620   3.641  0.3144  0.1284  0.1782
 3792WAT     H111587   3.681   3.621   3.554 -1.5583 -0.6794  0.9993
 3792WAT     H211588   3.670   3.682   3.692  2.2069  1.5976  0.4348
 3793WAT      O11589   0.371   4.460   0.683 -0.2281  0.1899 -0.1045
 3793WAT     H111590   0.368   4.459   0.587 -0.0999 -1.0108 -0.1081
 3793WAT     H211591   0.290   4.418   0.710  0.2413 -0.4851  0.2922
 3794WAT      O11592   3.997   2.398   4.958  0.1136  0.5421 -0.1637
 3794WAT     H111593   3.917   2.417   4.909 -0.8134 -0.5372  0.8706
 3794WAT     H211594   4.066   2.394   4.892 -0.8304  0.6931 -1.1756
 3795WAT      O11595   1.307   3.697   0.337  0.0474  0.0311 -0.0093
 3795WAT     H111596   1.343   3.748   0.410 -1.2763  0.3346  0.4761
 3795WAT     H211597   1.329   3.607   0.358 -0.8792  0.0397  1.1610
 3796WAT      O11598   1.091   5.091   4.084  0.4464  0.2649  0.3198
 3796WAT     H111599   1.171   5.102   4.135  0.1538  1.3217  0.5771
 3796WAT     H211600   1.105   5.143   4.005  1.3625 -2.2670 -1.3072
 3797WAT      O11601   0.812   1.336   1.626 -0.1744  0.1252 -0.2325
 3797WAT     H111602   0.855   1.260   1.665 -0.4218  0.1145  0.0253
 3797WAT     H211603   0.738   1.299   1.578  0.1973  0.1279 -0.8098
 3798WAT      O11604   2.308   0.290   4.640  0.4602  0.2625 -0.5815
 3798WAT     H111605   2.281   0.217   4.584 -0.1917 -1.2489  1.5814
 3798WAT     H211606   2.252   0.363   4.612  0.1744 -0.4345 -1.8966
 3799WAT      O11607   2.583   1.398   2.553  0.2610 -0.4793  0.7550
 3799WAT     H111608   2.613   1.460   2.620  0.1597 -0.4509  0.7738
 3799WAT     H211609   2.495   1.428   2.530  1.5548  1.6886 -1.9779
 3800WAT      O11610   1.008   1.613   2.070  0.3098 -0.3559  0.0700
 3800WAT     H111611   0.952   1.642   1.998 -0.0755 -0.1103  0.4601
 3800WAT     H211612   0.957   1.632   2.149  0.9961 -0.0082  0.4427
 3801WAT      O11613   4.473   4.973   3.557  0.5873  0.0466 -0.0268
 3801WAT     H111614   4.527   5.046   3.525 -1.1366  0.8152 -1.3174
 3801WAT     H211615   4.454   4.922   3.479 -0.2019 -0.4471  0.4766
 3802WAT      O11616   0.698   1.997   4.674 -0.5855 -0.0463 -0.1061
 3802WAT     H111617   0.641   2.007   4.750 -1.6259 -0.0216 -0.8721
 3802WAT     H211618   0.720   1.904   4.673  0.2816  0.1290  0.8043
 3803WAT      O11619   4.166   3.756   2.076  0.1239  0.0506  0.1043
 3803WAT     H111620   4.083   3.777   2.117 -0.3065  2.3027 -1.7117
 3803WAT     H211621   4.147   3.683   2.018  0.0092 -1.0023  1.4240
 3804WAT      O11622   4.281   1.203   3.168  0.3052 -0.8354 -0.0928
 3804WAT     H111623   4.229   1.274   3.130  0.2670 -1.2623 -0.8406
 3804WAT     H211624   4.219   1.132   3.181  0.0681 -0.3552  1.8054
 3805WAT      O11625   1.515   4.192   4.959 -0.2453  0.1723 -0.0867
 3805WAT     H111626   1.530   4.271   5.012  1.9648 -0.2238 -0.0086
 3805WAT     H211627   1.549   4.121   5.013 -0.7856 -0.6357 -0.7966
 3806WAT      O11628   3.253   2.769   1.372 -0.6334 -0.1154  0.2528
 3806WAT     H111629   3.163   2.742   1.390 -0.3703 -0.5288  1.0124
 3806WAT     H211630   3.281   2.814   1.452 -0.4803  0.8466 -0.3376
 3807WAT      O11631   3.220   4.885   2.406 -0.3849 -0.7366  0.1131
 3807WAT     H111632   3.316   4.885   2.401 -0.3142  1.7090  0.0212
 3807WAT     H211633   3.201   4.863   2.497  0.3883  0.7827  0.6689
 3808WAT      O11634   1.252   0.989   3.081 -0.5697 -0.1470  0.1699
 3808WAT     H111635   1.263   0.954   3.170  0.2180  0.9686  0.5398
 3808WAT     H211636   1.260   1.084   3.092  1.0292 -0.0730 -1.2957
 3809WAT      O11637   3.003   3.103   1.704 -0.2788  0.0654 -0.4232
 3809WAT     H111638   3.047   3.138   1.626  0.1633 -0.4598 -0.4161
 3809WAT     H211639   3.059   3.130   1.776 -0.7807  0.7003 -0.2670
 3810WAT      O11640   3.492   2.358   3.371 -0.2997 -0.0885 -0.0944
 3810WAT     H111641   3.482   2.430   3.308 -2.3339 -1.4971 -1.4864
 3810WAT     H211642   3.523   2.284   3.319  0.5700 -0.5973  1.0967
 3811WAT      O11643   1.041   2.540   1.444 -0.4162 -0.3703  0.1216
 3811WAT     H111644   0.975   2.597   1.404 -1.7691 -1.0307  1.3248
 3811WAT     H211645   1.045   2.568   1.535  1.4664  0.0762 -0.0634
 3812WAT      O11646   2.481   5.127   3.814  0.7239  0.4981 -0.0598
 3812WAT     H111647   2.521   5.093   3.734  0.0533 -1.0563  0.2247
 3812WAT     H211648   2.389   5.102   3.806  0.0811  2.6542  0.0013
 3813WAT      O11649   3.029   1.557   0.977  0.2809 -0.1061 -0.8823
 3813WAT     H111650   2.934   1.556   0.973  0.0951 -0.7682  1.7963
 3813WAT     H211651   3.056   1.475   0.935 -0.1834  0.7979 -3.0462
 3814WAT      O11652   4.004   2.122   3.037 -0.1137  0.1866 -0.3186
 3814WAT     H111653   4.004   2.075   2.953 -0.9626 -0.5457  0.0705
 3814WAT     H211654   3.914   2.151   3.048 -0.1816 -0.3283  0.6583
 3815WAT      O11655   0.858   1.634   5.119  0.4233 -0.2761  0.1813
 3815WAT     H111656   0.781   1.577   5.124  0.1868  0.1091  1.0397
 3815WAT     H211657   0.876   1.642   5.025 -1.1169  0.3377 -0.0788
 3816WAT      O11658   3.668   2.315   4.002  0.5057 -0.0995 -0.3549
 3816WAT     H111659   3.741   2.252   4.002 -0.5386 -1.4165 -2.1670
 3816WAT     H211660   3.591   2.263   4.024 -0.5844  0.1689 -3.0788
 3817WAT      O11661   2.797   1.956   0.475  0.3887 -0.6524 -0.1420
 3817WAT     H111662   2.715   1.964   0.523 -0.2643  1.3101 -1.4817
 3817WAT     H211663   2.862   1.996   0.533 -0.1781  0.5941 -0.3265
 3818WAT      O11664   1.045   3.807   2.039  0.4320  0.7107 -0.0216
 3818WAT     H111665   0.986   3.744   2.080  0.4193  0.3748 -0.5545
 3818WAT     H211666   1.119   3.813   2.100  0.2786  0.4394  0.1944
 3819WAT      O11667   4.115   1.162   3.803  0.3348  0.5476  0.0689
 3819WAT     H111668   4.126   1.154   3.709  1.0611  0.5936  0.1479
 3819WAT     H211669   4.104   1.256   3.817  0.7296  0.5936  0.0803
 3820WAT      O11670   2.119   1.296   0.347  0.2711 -0.7129  0.8108
 3820WAT     H111671   2.080   1.248   0.420  0.2394 -1.5119  0.2844
 3820WAT     H211672   2.162   1.228   0.295 -0.3911 -0.2756 -0.3376
 3821WAT      O11673   4.242   4.660   3.450  0.3063 -0.5333 -0.4803
 3821WAT     H111674   4.223   4.732   3.390  1.0083  0.7611  0.7808
 3821WAT     H211675   4.329   4.631   3.425  0.8881  0.4662  0.3064
 3822WAT      O11676   3.014   4.776   4.411  0.3143  0.2607 -0.0780
 3822WAT     H111677   3.064   4.848   4.373  0.0881 -0.0256 -0.9591
 3822WAT     H211678   3.078   4.706   4.423  0.4859  0.5247  0.5458
 3823WAT      O11679   1.300   1.947   1.689  0.3256 -0.7284  0.4186
 3823WAT     H111680   1.267   1.877   1.745  0.2985 -1.8840 -0.9896
 3823WAT     H211681   1.372   1.907   1.640  1.0164  0.5460  0.3569
 3824WAT      O11682   0.238   0.990   2.270 -0.4718 -0.6100  0.2245
 3824WAT     H111683   0.268   1.070   2.227 -0.1392 -1.2307 -0.7317
 3824WAT     H211684   0.211   1.018   2.357 -0.1523  0.5047 -0.0238
 3825WAT      O11685   2.145   3.729   4.072 -0.3960  0.3896  0.2246
 3825WAT     H111686   2.180   3.778   3.998  0.3986 -0.6355 -0.0927
 3825WAT     H211687   2.219   3.680   4.107 -1.0998 -0.3906  0.6881
 3826WAT      O11688   4.169   2.772   2.953  0.1819  0.0226 -0.0874
 3826WAT     H111689   4.174   2.748   3.046  0.9226  1.4998  0.2873
 3826WAT     H211690   4.233   2.715   2.910  0.2963 -0.2262  0.4115
 3827WAT      O11691   3.394   1.309   4.227 -0.3814  0.2709  0.1259
 3827WAT     H111692   3.318   1.297   4.170  0.6845 -1.5660 -1.0041
 3827WAT     H211693   3.358   1.307   4.315 -1.8489  1.3408 -0.4079
 3828WAT      O11694   3.981   3.363   2.122 -0.0443  0.0012 -0.0700
 3828WAT     H111695   3.948   3.304   2.190  0.7784 -1.4653 -0.8708
 3828WAT     H211696   3.946   3.327   2.040 -0.1254  1.0832 -0.5334
 3829WAT      O11697   2.548   1.559   5.069 -0.1115  0.4450 -0.1943
 3829WAT     H111698   2.554   1.464   5.072  1.0131  0.5163  1.3230
 3829WAT     H211699   2.638   1.589   5.087 -0.3092  1.7886 -1.2709
 3830WAT      O11700   3.967   3.185   4.618 -0.0296 -0.3511  0.5611
 3830WAT     H111701   3.889   3.158   4.570 -0.4735 -0.2129  1.1894
 3830WAT     H211702   3.951   3.276   4.641  0.1504 -0.4270  1.0097
 3831WAT      O11703   3.109   3.635   1.881 -0.2374  0.4625  0.2851
 3831WAT     H111704   3.098   3.610   1.789  1.2896 -1.3883  0.5282
 3831WAT     H211705   3.115   3.731   1.879  1.8314  0.4011 -1.8678
 3832WAT      O11706   3.411   4.720   4.434 -0.2822 -0.0949 -0.4627
 3832WAT     H111707   3.348   4.681   4.373  1.0335 -1.4154 -1.0510
 3832WAT     H211708   3.487   4.663   4.428  0.3155  0.4307  1.5811
 3833WAT      O11709   2.424   3.822   2.044 -0.2009  0.1185  0.4101
 3833WAT     H111710   2.471   3.803   2.125 -1.1487 -1.3231  0.6671
 3833WAT     H211711   2.364   3.748   2.034 -2.0898  1.6534 -0.1442
 3834WAT      O11712   2.862   2.636   3.463  0.2473 -0.1369  0.8513
 3834WAT     H111713   2.875   2.727   3.435  0.4009 -0.2868  0.4181
 3834WAT     H211714   2.950   2.604   3.482  0.3915 -0.6984 -0.6339
 3835WAT      O11715   1.615   3.203   2.143 -0.3106  0.3135  0.2086
 3835WAT     H111716   1.545   3.251   2.098 -1.5493 -0.8377  0.8151
 3835WAT     H211717   1.639   3.133   2.083 -0.2021  0.2746  0.2974
 3836WAT      O11718   2.736   3.282   4.069  0.0955 -0.6686  0.0762
 3836WAT     H111719   2.793   3.272   3.993  1.1606  0.8833  0.6116
 3836WAT     H211720   2.794   3.311   4.139 -1.1294 -0.4461  1.0449
 3837WAT      O11721   0.626   2.909   1.908  0.0149  0.1161  0.2894
 3837WAT     H111722   0.648   2.921   2.001 -0.0369 -0.9244  0.4536
 3837WAT     H211723   0.694   2.957   1.861 -1.0824  2.3409  0.8617
 3838WAT      O11724   2.158   3.666   3.762 -0.2265 -0.5492 -0.0973
 3838WAT     H111725   2.112   3.591   3.800  0.7653 -1.4061 -0.5371
 3838WAT     H211726   2.241   3.669   3.809 -1.1337  1.7174  1.5297
 3839WAT      O11727   0.971   1.382   0.613  0.0627  0.5591 -0.0084
 3839WAT     H111728   0.998   1.462   0.568  2.1446  0.1124  0.3448
 3839WAT     H211729   1.042   1.364   0.675 -1.6508 -0.0758  1.8994
 3840WAT      O11730   1.815   1.680   3.816  0.0985  0.1492  0.6617
 3840WAT     H111731   1.724   1.706   3.800 -0.6031 -1.7001  1.3253
 3840WAT     H211732   1.866   1.733   3.755 -1.8446 -2.3929 -3.6442
 3841WAT      O11733   0.669   2.202   0.896  0.0360  0.0919  0.6878
 3841WAT     H111734   0.615   2.142   0.844 -1.1495  0.1133  1.8407
 3841WAT     H211735   0.630   2.200   0.983  0.4790  1.8935  0.9729
 3842WAT      O11736   3.469   3.428   3.144 -0.0886 -0.2958  1.0189
 3842WAT     H111737   3.401   3.492   3.124 -0.2379  0.3724  3.4010
 3842WAT     H211738   3.532   3.476   3.199  1.6034 -1.2918  0.0599
 3843WAT      O11739   1.770   1.285   1.429  0.4886 -0.2367 -0.7175
 3843WAT     H111740   1.845   1.294   1.488  0.6995 -1.0660 -0.8497
 3843WAT     H211741   1.800   1.322   1.346 -0.0625  1.6402 -0.1215
 3844WAT      O11742   4.010   2.981   1.598  0.1740  0.6558  0.7136
 3844WAT     H111743   4.006   3.037   1.520  2.6319  1.2755  0.9627
 3844WAT     H211744   4.041   2.896   1.566 -0.6955  0.3055  0.7662
 3845WAT      O11745   2.278   0.915   4.688 -0.0181 -0.6620 -0.1145
 3845WAT     H111746   2.222   0.928   4.765 -0.9221 -0.4988 -0.7787
 3845WAT     H211747   2.367   0.910   4.723 -0.0245  2.6946  0.6897
 3846WAT      O11748   1.168   4.596   0.264 -0.1576  0.3758 -0.1851
 3846WAT     H111749   1.076   4.605   0.288 -0.2104 -0.9081  0.1651
 3846WAT     H211750   1.167   4.594   0.169 -0.6999 -1.3192 -0.1767
 3847WAT      O11751   3.418   4.471   0.187 -0.3360 -0.1381 -0.4358
 3847WAT     H111752   3.343   4.518   0.224 -0.2906  0.3852 -0.9982
 3847WAT     H211753   3.466   4.439   0.263  1.5199  3.5785  0.1797
 3848WAT      O11754   4.316   0.893   1.758  0.5854 -0.5961  0.6918
 3848WAT     H111755   4.302   0.915   1.666 -0.1930 -0.9263  0.7240
 3848WAT     H211756   4.363   0.968   1.793 -0.5338  0.2801  0.3928
 3849WAT      O11757   3.342   3.787   2.262 -0.0745  0.1220  0.0994
 3849WAT     H111758   3.339   3.882   2.247  1.1623  0.5688  2.1496
 3849WAT     H211759   3.290   3.774   2.341  3.2012 -0.1609  2.4186
 3850WAT      O11760   0.425   2.622   3.641  0.4855 -0.2478  0.6666
 3850WAT     H111761   0.384   2.696   3.686  0.1613 -0.5773  0.9191
 3850WAT     H211762   0.400   2.546   3.692 -1.3750 -0.8608 -1.0247
 3851WAT      O11763   0.358   2.924   3.307 -0.4714 -0.6523  0.0075
 3851WAT     H111764   0.423   2.919   3.238 -1.8464  1.5621 -1.5798
 3851WAT     H211765   0.387   2.998   3.362 -0.9648 -0.4722  0.0301
 3852WAT      O11766   2.783   2.796   2.131  0.4428 -0.1411 -0.4034
 3852WAT     H111767   2.709   2.840   2.090 -0.0368 -0.5066  0.0669
 3852WAT     H211768   2.851   2.797   2.063 -0.1843 -0.3331 -1.0505
 3853WAT      O11769   1.367   0.512   1.475  0.1661  0.3044  0.4338
 3853WAT     H111770   1.363   0.559   1.391 -2.4919  0.1753  0.3997
 3853WAT     H211771   1.421   0.435   1.457 -0.9378 -0.1083 -1.4103
 3854WAT      O11772   3.156   1.815   0.850 -0.0016 -0.3471 -0.1568
 3854WAT     H111773   3.188   1.904   0.859  1.1696 -0.7570 -0.1238
 3854WAT     H211774   3.107   1.799   0.930 -0.7351  0.4549 -0.4265
 3855WAT      O11775   0.314   0.948   0.284 -0.5238  0.1886 -0.0315
 3855WAT     H111776   0.297   0.963   0.191  0.2526  0.7951 -0.0856
 3855WAT     H211777   0.323   1.036   0.321  0.6178 -0.0671  0.3265
 3856WAT      O11778   0.909   2.969   3.360 -0.5881 -0.3338 -0.2587
 3856WAT     H111779   0.923   2.884   3.403  1.9574 -0.1075 -0.4829
 3856WAT     H211780   0.852   2.948   3.286 -1.7493 -1.4409  0.8822
 3857WAT      O11781   4.226   3.122   1.332 -0.0888 -0.9157  0.3882
 3857WAT     H111782   4.291   3.127   1.402  0.3423  1.4409 -0.0751
 3857WAT     H211783   4.179   3.205   1.338 -0.9331 -1.2353 -1.2736
 3858WAT      O11784   4.464   1.398   4.415 -0.1785 -0.1832 -0.6020
 3858WAT     H111785   4.553   1.414   4.384 -0.0284 -0.7241 -0.4570
 3858WAT     H211786   4.462   1.435   4.504 -0.6148  1.3853 -1.2322
 3859WAT      O11787   2.458   0.048   2.503 -0.1201  0.7160 -0.3025
 3859WAT     H111788   2.463   0.009   2.590  1.2752 -2.0192 -1.5055
 3859WAT     H211789   2.367   0.033   2.475 -0.2392  0.5055  0.1947
 3860WAT      O11790   0.025   0.313   0.901  0.3594  0.3303  0.1840
 3860WAT     H111791   0.006   0.328   0.808  1.0027 -0.8469 -0.1603
 3860WAT     H211792   0.114   0.347   0.913 -0.3736  2.1410  0.8301
 3861WAT      O11793   1.432   3.156   3.665  0.3203  0.1615 -0.2595
 3861WAT     H111794   1.428   3.125   3.574  1.0328 -3.3855  0.7537
 3861WAT     H211795   1.446   3.077   3.716  1.0911  2.1723  2.9022
 3862WAT      O11796   3.130   3.659   5.094 -0.1610 -0.3210  0.2884
 3862WAT     H111797   3.191   3.622   5.031 -1.1934 -0.1700 -0.8298
 3862WAT     H211798   3.162   3.628   5.179  2.7585  1.5439  0.0191
 3863WAT      O11799   1.200   3.281   3.796  0.0644 -0.1759  0.3649
 3863WAT     H111800   1.221   3.374   3.808 -1.3850  0.4194 -1.2392
 3863WAT     H211801   1.267   3.249   3.735 -2.4186  1.3206 -3.5140
 3864WAT      O11802   1.275   1.559   2.818  0.5007 -0.0923 -0.0925
 3864WAT     H111803   1.245   1.495   2.882 -1.3950  0.0195 -0.8151
 3864WAT     H211804   1.202   1.568   2.757  1.5105  1.2532 -1.1597
 3865WAT      O11805   0.722   1.866   2.758  0.1805  0.0690  0.1767
 3865WAT     H111806   0.676   1.917   2.824  0.7472  0.4631  0.2749
 3865WAT     H211807   0.701   1.775   2.779  0.4931  0.1786  1.0063
 3866WAT      O11808   2.152   0.487   5.041 -0.5641 -0.0195 -0.1071
 3866WAT     H111809   2.214   0.547   4.999 -3.6810  2.3741 -1.7292
 3866WAT     H211810   2.173   0.402   5.005  3.2589  0.1383  1.3266
 3867WAT      O11811   2.615   4.535   4.510  0.2281  0.7977  0.0306
 3867WAT     H111812   2.681   4.539   4.580  0.8729  1.1593 -0.5831
 3867WAT     H211813   2.555   4.607   4.531 -0.8582 -0.4498  1.4287
 3868WAT      O11814   0.999   2.354   5.173  0.1436 -0.0499  0.2621
 3868WAT     H111815   0.904   2.370   5.177 -0.0124 -0.8207 -0.1919
 3868WAT     H211816   1.010   2.265   5.207  0.6327 -0.1968 -0.2592
 3869WAT      O11817   3.927   3.540   4.052  0.1256 -0.0081  0.6792
 3869WAT     H111818   3.931   3.515   3.960  0.7723  1.2786  0.3353
 3869WAT     H211819   3.840   3.580   4.062  0.1900  0.1756  0.5274
 3870WAT      O11820   4.365   2.890   3.785  0.3560 -0.3523 -0.1525
 3870WAT     H111821   4.384   2.818   3.725 -1.3673 -0.1689 -1.0022
 3870WAT     H211822   4.287   2.933   3.747  0.4023  0.9937  1.1620
 3871WAT      O11823   1.101   3.597   2.508  0.3163  0.4308  0.1545
 3871WAT     H111824   1.149   3.679   2.521 -1.3947  1.4780  0.2032
 3871WAT     H211825   1.018   3.611   2.555 -1.0681 -0.3382 -1.9448
 3872WAT      O11826   1.531   1.048   1.777 -0.3640 -0.2004 -0.2502
 3872WAT     H111827   1.461   1.031   1.714  2.2133  0.6354 -3.6614
 3872WAT     H211828   1.609   1.007   1.738  1.3301 -0.0667  2.7204
 3873WAT      O11829   0.102   3.219   0.088  0.1834  0.4751 -0.7983
 3873WAT     H111830   0.023   3.164   0.088  0.7974 -0.5046 -2.8022
 3873WAT     H211831   0.169   3.165   0.129  0.3993  0.3149 -1.3491
 3874WAT      O11832   2.383   1.824   0.391 -0.3114  0.3470 -0.2092
 3874WAT     H111833   2.345   1.828   0.303  0.0371 -0.7571 -0.4340
 3874WAT     H211834   2.308   1.814   0.449 -0.4815 -0.1204 -0.4979
 3875WAT      O11835   1.633   2.880   3.696 -0.1068  0.0114  0.0878
 3875WAT     H111836   1.666   2.951   3.641  0.6450  0.0801  0.6135
 3875WAT     H211837   1.703   2.864   3.760 -0.2918 -1.1398  0.0332
 3876WAT      O11838   1.392   2.941   1.817 -0.7051  0.1215  0.1194
 3876WAT     H111839   1.381   2.901   1.903  0.2285 -0.5126 -0.0436
 3876WAT     H211840   1.486   2.942   1.803 -0.6242  2.7935  0.3015
 3877WAT      O11841   1.372   3.011   1.381 -0.0130 -0.1316  0.0457
 3877WAT     H111842   1.446   3.047   1.429 -0.0923  0.3072 -0.1568
 3877WAT     H211843   1.392   3.026   1.289 -0.5922  0.4794  0.0081
 3878WAT      O11844   4.044   0.340   4.139 -0.0285  0.3326 -0.3186
 3878WAT     H111845   4.056   0.297   4.054  0.1230 -0.9873  0.3499
 3878WAT     H211846   3.957   0.312   4.168  0.5287 -0.4514  0.6361
 3879WAT      O11847   4.338   4.377   5.090  0.1943  0.5602  0.5949
 3879WAT     H111848   4.431   4.378   5.112  0.4867 -0.3661 -0.4943
 3879WAT     H211849   4.331   4.427   5.009 -0.2732  0.7047  0.7193
 3880WAT      O11850   0.651   3.820   1.860 -0.1417  0.1047  0.0874
 3880WAT     H111851   0.664   3.914   1.870 -1.4353  0.4236 -0.8987
 3880WAT     H211852   0.660   3.784   1.949  1.3375  1.0007  0.3242
 3881WAT      O11853   0.213   5.045   0.372  0.1992 -0.4809  0.0751
 3881WAT     H111854   0.168   5.093   0.303 -0.2384  1.1203  1.4137
 3881WAT     H211855   0.144   4.998   0.419  0.1923  0.1827  0.7469
 3882WAT      O11856   0.375   1.900   0.399  0.3578  0.7804 -0.1067
 3882WAT     H111857   0.417   1.986   0.396  0.2494  0.8083 -0.8567
 3882WAT     H211858   0.283   1.917   0.382  0.8468  0.1598 -4.6896
 3883WAT      O11859   2.221   4.691   0.457 -0.5071  0.1859  0.3366
 3883WAT     H111860   2.194   4.781   0.446 -0.4531  0.1575 -0.0291
 3883WAT     H211861   2.297   4.681   0.399  0.0935  0.1769  1.0988
 3884WAT      O11862   4.375   0.056   0.273  0.2598 -0.3734 -0.3447
 3884WAT     H111863   4.311   0.005   0.224  1.1679 -0.3706 -1.5978
 3884WAT     H211864   4.364   0.028   0.364 -0.0301 -1.9817 -0.8415
 3885WAT      O11865   2.105   2.818   4.498 -0.4180  0.0399 -0.5677
 3885WAT     H111866   2.091   2.777   4.413 -1.4519  0.8151 -0.7900
 3885WAT     H211867   2.030   2.877   4.509 -1.2702 -1.3197  1.6300
 3886WAT      O11868   4.206   3.384   3.338  0.1776 -0.0602 -0.0109
 3886WAT     H111869   4.137   3.440   3.303  1.1984  1.3198  0.0562
 3886WAT     H211870   4.247   3.346   3.260  0.1264  0.1019 -0.1182
 3887WAT      O11871   3.862   0.956   1.655  0.6759  0.3517  0.2879
 3887WAT     H111872   3.891   0.904   1.730  0.9889 -1.4881 -1.0429
 3887WAT     H211873   3.939   1.009   1.631  0.4811  1.1789  1.3999
 3888WAT      O11874   0.595   0.409   3.560 -0.5174  0.3112 -0.0572
 3888WAT     H111875   0.651   0.351   3.508 -0.8350  0.1396 -0.2138
 3888WAT     H211876   0.606   0.495   3.520 -1.2840  0.0558 -0.8549
 3889WAT      O11877   1.522   0.137   2.210  0.3087 -0.0292  0.1874
 3889WAT     H111878   1.552   0.112   2.298  1.9472  0.7607 -0.1232
 3889WAT     H211879   1.440   0.089   2.199  1.5816 -2.5533  0.9581
 3890WAT      O11880   1.467   2.132   2.644  0.3504 -0.3278 -0.2744
 3890WAT     H111881   1.560   2.145   2.627  0.6017 -2.5062 -0.8823
 3890WAT     H211882   1.430   2.220   2.645  2.3945  0.5718 -0.1143
 3891WAT      O11883   1.594   0.826   2.141  0.2398  0.6651  0.7329
 3891WAT     H111884   1.587   0.921   2.129 -0.3783  0.6306  0.7795
 3891WAT     H211885   1.688   0.810   2.147  0.3134  1.4113  1.8076
 3892WAT      O11886   4.450   4.868   3.300  0.1347  0.3820  0.0064
 3892WAT     H111887   4.367   4.888   3.257  0.3334 -0.6632 -0.9014
 3892WAT     H211888   4.510   4.848   3.229  0.7148 -0.5104  0.7219
 3893WAT      O11889   2.329   1.203   2.306 -0.1033 -0.5374 -0.1237
 3893WAT     H111890   2.415   1.221   2.267 -0.9645  0.7710 -1.5396
 3893WAT     H211891   2.316   1.109   2.291  1.3610 -0.9187  0.7653
 3894WAT      O11892   4.212   1.370   1.075 -0.0365  0.2901 -0.0649
 3894WAT     H111893   4.178   1.460   1.081  1.1851  0.7239  1.0907
 3894WAT     H211894   4.212   1.350   0.982  0.4011  1.8087 -0.4215
 3895WAT      O11895   1.096   2.660   0.405 -0.0821 -0.1117  0.3665
 3895WAT     H111896   1.118   2.706   0.486 -1.5209 -0.6890  1.1333
 3895WAT     H211897   1.004   2.634   0.417 -0.2921 -0.3067 -1.4151
 3896WAT      O11898   2.243   1.077   3.933  0.4632 -0.1729 -0.6679
 3896WAT     H111899   2.305   1.009   3.959  0.9398  0.0933 -1.0703
 3896WAT     H211900   2.163   1.057   3.981  1.4286  0.5427  1.3520
 3897WAT      O11901   3.103   3.748   4.325  0.2882  0.1889 -0.2469
 3897WAT     H111902   3.012   3.753   4.355 -0.0240 -0.0173 -1.1200
 3897WAT     H211903   3.146   3.823   4.366 -0.2226  0.1726  0.3376
 3898WAT      O11904   0.222   2.015   2.355  0.0965  0.0833  0.1133
 3898WAT     H111905   0.155   2.082   2.339  1.2146  1.2079 -0.0409
 3898WAT     H211906   0.220   1.959   2.277 -0.7787 -0.0009  0.1941
 3899WAT      O11907   0.679   1.743   2.453  0.4884 -0.0485  0.2739
 3899WAT     H111908   0.688   1.763   2.546  0.8591 -1.6783  0.6062
 3899WAT     H211909   0.660   1.650   2.449  1.2326 -0.1741 -1.3233
 3900WAT      O11910   4.209   4.534   0.234  0.2902  0.2661  0.4322
 3900WAT     H111911   4.206   4.470   0.163  0.7165  0.3894  0.2999
 3900WAT     H211912   4.137   4.509   0.292  1.7327 -1.5968  1.5018
 3901WAT      O11913   0.718   4.681   3.275  0.1830  0.0138 -0.3848
 3901WAT     H111914   0.774   4.751   3.243 -0.5180  1.0845  0.6392
 3901WAT     H211915   0.778   4.617   3.313  0.8074  0.2908 -0.9005
 3902WAT      O11916   2.399   4.299   2.742  0.0525 -0.0581 -0.4515
 3902WAT     H111917   2.405   4.225   2.803 -0.3383  0.6070  0.4166
 3902WAT     H211918   2.367   4.261   2.661  3.1175 -1.4429 -1.1349
 3903WAT      O11919   2.642   2.051   3.238 -0.1318 -0.1688  0.1953
 3903WAT     H111920   2.555   2.089   3.230  0.0440  0.3724  0.7988
 3903WAT     H211921   2.683   2.065   3.152 -1.3033 -2.1571 -0.7512
 3904WAT      O11922   1.695   1.591   0.803 -0.1052  0.3982  0.1280
 3904WAT     H111923   1.722   1.651   0.873  2.0186 -0.5452  0.1750
 3904WAT     H211924   1.667   1.512   0.848  1.3524 -0.2455 -0.0517
 3905WAT      O11925   2.439   1.541   0.114 -0.4173  0.6113 -0.1120
 3905WAT     H111926   2.402   1.513   0.198  1.0609  0.9758  0.7014
 3905WAT     H211927   2.533   1.521   0.121 -0.3876 -0.2057 -2.0520
 3906WAT      O11928   4.350   1.188   4.075 -0.2192  0.0088  0.3901
 3906WAT     H111929   4.273   1.148   4.115 -1.5187  0.1671 -1.8030
 3906WAT     H211930   4.355   1.275   4.116  0.1408 -0.7647  2.1065
 3907WAT      O11931   3.148   3.307   4.157 -0.0049 -0.0117  0.2956
 3907WAT     H111932   3.173   3.233   4.102  2.2339  1.8735 -1.4423
 3907WAT     H211933   3.195   3.381   4.120 -2.2690  2.3613  1.8249
 3908WAT      O11934   1.117   2.917   1.092  1.0927 -0.3711  0.0947
 3908WAT     H111935   1.186   2.851   1.086  1.0781 -0.3024 -0.8720
 3908WAT     H211936   1.116   2.959   1.007 -0.0270 -0.2441  0.1565
 3909WAT      O11937   2.941   0.094   4.785  0.3797 -0.0130  0.0941
 3909WAT     H111938   2.901   0.007   4.782 -0.8867  0.5750 -0.7897
 3909WAT     H211939   2.901   0.142   4.712  2.7935  0.5944 -0.9420
 3910WAT      O11940   3.510   1.223   4.640  0.0442  0.4543 -0.0367
 3910WAT     H111941   3.579   1.288   4.628  0.0667  0.3302 -0.6144
 3910WAT     H211942   3.501   1.215   4.735 -0.8264  2.2202  0.0847
 3911WAT      O11943   0.629   4.956   2.572 -0.0132 -0.6517  0.0353
 3911WAT     H111944   0.548   4.917   2.605 -0.2446  0.1482  0.4266
 3911WAT     H211945   0.675   4.987   2.650 -0.4406  1.0157 -0.3322
 3912WAT      O11946   0.180   2.715   1.630 -0.1914  0.1176 -0.0484
 3912WAT     H111947   0.136   2.715   1.545  0.0043  0.3370 -0.1526
 3912WAT     H211948   0.113   2.688   1.692 -0.6011  0.9098 -0.1378
 3913WAT      O11949   1.963   1.421   1.138 -0.4897  0.2764 -0.0379
 3913WAT     H111950   1.894   1.357   1.122 -0.2826  0.1260 -0.3367
 3913WAT     H211951   2.042   1.368   1.150 -0.4987  0.4221  0.7524
 3914WAT      O11952   0.187   5.102   3.165  0.0387  0.0867 -0.0659
 3914WAT     H111953   0.127   5.037   3.128  0.7671 -0.1206 -0.9186
 3914WAT     H211954   0.185   5.174   3.102 -1.9078  1.6170  1.5932
 3915WAT      O11955   3.181   2.602   4.245  0.3471  0.0157  0.9875
 3915WAT     H111956   3.137   2.540   4.187 -0.4613 -2.1286  3.6782
 3915WAT     H211957   3.272   2.574   4.245  0.8217  1.3477 -0.7332
 3916WAT      O11958   3.012   2.985   0.061 -0.0799 -0.7166  0.6361
 3916WAT     H111959   2.945   3.032   0.010  1.4703  0.4222 -0.4177
 3916WAT     H211960   3.024   2.903   0.014 -0.1586 -0.5732  0.3615
 3917WAT      O11961   3.961   4.698   4.860  0.3558 -0.6711  0.1515
 3917WAT     H111962   4.021   4.687   4.786  2.1985 -0.2124  1.5253
 3917WAT     H211963   3.913   4.615   4.863  0.5238 -0.8605 -1.2794
 3918WAT      O11964   4.339   1.514   1.902  0.3245 -0.1651  0.0088
 3918WAT     H111965   4.286   1.563   1.966  1.5002 -1.2984  1.9319
 3918WAT     H211966   4.388   1.582   1.856  0.5397  0.6331  1.3424
 3919WAT      O11967   1.996   4.803   3.452 -0.2865 -0.0625  0.0276
 3919WAT     H111968   2.042   4.741   3.508 -0.1516  0.4816  0.5246
 3919WAT     H211969   1.910   4.765   3.439  0.2283 -1.0118 -0.7757
 3920WAT      O11970   3.287   2.684   4.626  0.0969 -0.2634  0.1943
 3920WAT     H111971   3.276   2.758   4.686 -1.0143 -0.4108  0.1897
 3920WAT     H211972   3.205   2.636   4.632 -0.0792 -0.2409 -1.4992
 3921WAT      O11973   0.743   2.445   0.349 -0.3522  0.1679 -0.4363
 3921WAT     H111974   0.807   2.380   0.378  0.9733  1.6814  0.2215
 3921WAT     H211975   0.659   2.413   0.382  0.5186 -0.3113  1.4459
 3922WAT      O11976   0.445   3.566   5.290  0.1310 -0.5784  0.3318
 3922WAT     H111977   0.425   3.614   5.370 -0.4627 -0.0726 -0.1074
 3922WAT     H211978   0.516   3.616   5.249 -0.8329  0.2595 -0.3840
 3923WAT      O11979   2.028   4.783   0.094 -0.1675 -0.2512  0.1316
 3923WAT     H111980   1.950   4.773   0.149  0.1983 -3.4641  0.2741
 3923WAT     H211981   2.071   4.698   0.098  2.5264  0.9129 -1.2548
 3924WAT      O11982   0.633   1.457   0.521  0.2033 -0.5980  0.2334
 3924WAT     H111983   0.708   1.514   0.537 -0.0945  0.2772 -1.2668
 3924WAT     H211984   0.563   1.495   0.573  0.7887 -1.4402  1.6711
 3925WAT      O11985   2.285   0.394   3.856  0.3913 -0.3241 -0.5536
 3925WAT     H111986   2.357   0.334   3.833 -0.4036 -0.8116 -1.8969
 3925WAT     H211987   2.244   0.414   3.772  0.6587  2.1881 -0.1519
 3926WAT      O11988   2.727   0.935   4.520  0.7319  0.0971  0.4442
 3926WAT     H111989   2.651   0.971   4.474  0.2505 -0.0596  1.0929
 3926WAT     H211990   2.734   0.846   4.487  0.5526  0.0716  0.4707
 3927WAT      O11991   1.332   0.976   4.310 -0.1460 -0.2118  0.3092
 3927WAT     H111992   1.399   0.910   4.292  1.1530  1.2340 -0.3942
 3927WAT     H211993   1.261   0.954   4.250 -0.0667 -1.3812  0.6006
 3928WAT      O11994   1.200   3.357   1.821 -0.3913 -0.3387  0.0690
 3928WAT     H111995   1.142   3.396   1.886 -2.1589 -1.9383 -0.4778
 3928WAT     H211996   1.157   3.275   1.796  0.4419 -0.0050 -2.7794
 3929WAT      O11997   2.593   1.569   0.365  0.4135  0.8950  0.4235
 3929WAT     H111998   2.640   1.647   0.336  0.3521  0.9465  0.4622
 3929WAT     H211999   2.507   1.602   0.392 -0.1669  0.6341 -0.9720
 3930WAT      O12000   4.269  -0.021   2.670 -0.3801 -0.3467 -0.8214
 3930WAT     H112001   4.364  -0.030   2.680 -0.5464 -0.4820  0.9273
 3930WAT     H212002   4.249   0.066   2.706 -1.0295 -0.7241 -0.2522
 3931WAT      O12003   2.656   0.877   2.801  0.5372  0.0882 -0.1814
 3931WAT     H112004   2.689   0.806   2.746  0.2337 -0.3292  0.1696
 3931WAT     H212005   2.649   0.952   2.741 -0.8116 -0.6320 -0.9815
 3932WAT      O12006   3.256   0.424   4.305  0.2365 -0.2189  0.5526
 3932WAT     H112007   3.203   0.407   4.382  0.5507 -0.7691  0.6537
 3932WAT     H212008   3.285   0.338   4.276 -2.1440 -0.3122 -1.8448
 3933WAT      O12009   1.052   3.760   0.290  0.1336  0.0979  0.1521
 3933WAT     H112010   1.137   3.726   0.319  0.7779  0.5681 -1.1185
 3933WAT     H212011   0.993   3.685   0.297  1.1799 -0.8979 -1.1538
 3934WAT      O12012   0.710   3.376   2.336 -0.4014 -0.5388  0.2467
 3934WAT     H112013   0.784   3.316   2.345 -0.9085 -1.1435  0.4743
 3934WAT     H212014   0.658   3.339   2.265 -0.6885 -0.3396  0.3516
 3935WAT      O12015   2.292   0.228   0.901  0.3612  0.1351  0.6509
 3935WAT     H112016   2.252   0.299   0.952  1.5666  1.1390  0.2423
 3935WAT     H212017   2.225   0.160   0.899 -0.1555  0.5304  2.5781
 3936WAT      O12018   4.256   2.561   3.944  0.5405  0.1052  0.0091
 3936WAT     H112019   4.289   2.479   3.907  2.4389  0.6746  0.3297
 3936WAT     H212020   4.222   2.536   4.030  0.3906 -0.4678 -0.2134
 3937WAT      O12021   4.417   2.130   4.384  0.5276 -0.2474  0.3360
 3937WAT     H112022   4.414   2.170   4.297 -2.1902 -0.8230  0.0784
 3937WAT     H212023   4.477   2.056   4.374  0.1829 -0.3594 -1.0958
 3938WAT      O12024   2.128   5.150   0.903  0.0317 -0.3612  0.4301
 3938WAT     H112025   2.163   5.064   0.881  0.7362 -0.4335  1.7318
 3938WAT     H212026   2.059   5.132   0.967  0.3538  0.0546  0.9000
 3939WAT      O12027   0.961   2.800   2.003 -0.0180 -0.4621 -0.0886
 3939WAT     H112028   0.968   2.828   1.911 -0.1477  0.5963  0.2130
 3939WAT     H212029   0.903   2.723   2.000 -0.5390 -0.0579 -0.8259
 3940WAT      O12030   1.548   2.133   0.871 -0.7321  0.0435  0.0580
 3940WAT     H112031   1.525   2.198   0.805 -1.0901  1.0773  1.1723
 3940WAT     H212032   1.464   2.100   0.903 -0.8755  2.8711  3.1920
 3941WAT      O12033   0.838   3.126   1.218  0.5519 -0.0294 -0.4529
 3941WAT     H112034   0.915   3.115   1.273 -0.1691 -0.4506  0.5107
 3941WAT     H212035   0.820   3.220   1.221 -0.0712 -0.1598  0.9105
 3942WAT      O12036   0.582   2.260   4.053  0.1457 -0.4697  0.2467
 3942WAT     H112037   0.627   2.189   4.006 -0.7824 -0.2822 -0.9624
 3942WAT     H212038   0.653   2.315   4.086  0.8404 -0.9679 -0.3705
 3943WAT      O12039   2.937   1.691   0.107  0.2261  0.0147  0.0231
 3943WAT     H112040   2.845   1.716   0.117  0.4014  0.8231 -0.3322
 3943WAT     H212041   2.980   1.729   0.183  0.4696  0.6702 -0.4407
 3944WAT      O12042   0.387   4.402   0.404 -0.1206  0.2587  0.3473
 3944WAT     H112043   0.480   4.378   0.408 -0.6169 -1.6935  1.5771
 3944WAT     H212044   0.348   4.337   0.347 -1.0734 -0.2546  1.5480
 3945WAT      O12045   1.921   2.265   4.779 -0.4909  0.6233 -0.2312
 3945WAT     H112046   2.004   2.222   4.758  0.0021  2.4115 -2.2708
 3945WAT     H212047   1.942   2.321   4.854 -0.8379 -1.6235  1.6427
 3946WAT      O12048   2.219   4.942   0.343 -0.1255  0.0743  0.0496
 3946WAT     H112049   2.155   4.987   0.288  0.1085 -0.5287 -0.7236
 3946WAT     H212050   2.284   4.908   0.282  0.5671  0.0835  0.7717
 3947WAT      O12051   0.456   3.115   3.496  0.0271  0.6885 -0.0889
 3947WAT     H112052   0.455   3.210   3.509  1.2619  0.6818  0.2229
 3947WAT     H212053   0.545   3.097   3.466 -0.1660 -0.3888 -0.0228
 3948WAT      O12054   2.278   1.728   3.281 -0.2154 -0.6124  1.1299
 3948WAT     H112055   2.254   1.670   3.354 -0.3443 -0.2244  1.3969
 3948WAT     H212056   2.373   1.736   3.287 -0.2460 -0.4172  1.3816
 3949WAT      O12057   2.943   2.917   1.219  0.8862  0.4296  0.2993
 3949WAT     H112058   3.006   2.977   1.180  0.8264 -0.6203 -1.4917
 3949WAT     H212059   2.922   2.957   1.303  0.5195  3.1394 -0.9783
 3950WAT      O12060   3.295   0.608   3.772  0.0938 -0.0387 -0.0827
 3950WAT     H112061   3.220   0.549   3.767  0.1551 -0.0945 -0.3373
 3950WAT     H212062   3.300   0.648   3.685  1.4801 -1.3916 -0.6538
 3951WAT      O12063   3.593   2.986   4.956 -0.2570 -0.1346 -0.3634
 3951WAT     H112064   3.525   2.978   5.023  0.7802 -0.9247  0.6397
 3951WAT     H212065   3.550   3.031   4.883 -2.0587 -1.2550 -0.0532
 3952WAT      O12066   0.757   4.227   3.441  0.0984  0.0080 -0.0586
 3952WAT     H112067   0.706   4.210   3.362 -0.7457  0.6104  0.3417
 3952WAT     H212068   0.790   4.141   3.467 -2.3476 -0.7721  0.7489
 3953WAT      O12069   2.006   4.169   2.268  0.2967 -0.1144  0.4591
 3953WAT     H112070   2.042   4.257   2.255  0.9452 -0.3662  0.5457
 3953WAT     H212071   1.941   4.160   2.198  0.7492  0.1576 -0.0061
 3954WAT      O12072   0.396   4.686   0.400  0.8021  0.2393  0.0187
 3954WAT     H112073   0.426   4.600   0.371 -0.3580 -0.2208  0.1172
 3954WAT     H212074   0.309   4.696   0.360  0.6630  1.0959  0.4995
 3955WAT      O12075   1.853   1.850   0.057  0.8024 -0.0290  0.7634
 3955WAT     H112076   1.853   1.885  -0.033  0.6739 -0.9937  0.3777
 3955WAT     H212077   1.933   1.884   0.096  1.2730 -0.2502  0.0135
 3956WAT      O12078   4.221   2.924   2.601 -0.5364 -0.2137  0.2144
 3956WAT     H112079   4.175   2.890   2.523 -0.0331 -0.8199  0.1742
 3956WAT     H212080   4.155   2.921   2.670 -0.8466 -0.1309 -0.0744
 3957WAT      O12081   1.506   2.687   2.613 -0.3817 -0.0610  0.2518
 3957WAT     H112082   1.411   2.690   2.605 -0.5652  1.5163  2.3548
 3957WAT     H212083   1.537   2.686   2.522 -2.3668  2.5363 -0.5788
 3958WAT      O12084   2.295   1.518   0.348 -0.2686 -0.3171  0.3147
 3958WAT     H112085   2.248   1.567   0.416 -1.1361  1.3504 -1.3824
 3958WAT     H212086   2.246   1.436   0.339 -0.9431  0.0207  0.7805
 3959WAT      O12087   4.345   5.000   5.227  0.4766 -0.2576 -0.4075
 3959WAT     H112088   4.278   4.981   5.293  1.1437 -0.2171  0.2968
 3959WAT     H212089   4.307   5.071   5.174 -0.2468 -0.5937 -0.3494
 3960WAT      O12090   1.145   0.736   4.370 -0.4520  0.1625  0.8730
 3960WAT     H112091   1.126   0.820   4.412 -1.0675  0.4639  0.0260
 3960WAT     H212092   1.195   0.687   4.435  0.7719  1.5472  1.0291
 3961WAT      O12093   2.442   1.988   4.741 -0.0500 -0.1062 -0.4812
 3961WAT     H112094   2.527   2.025   4.716  0.2002 -1.3764 -1.6138
 3961WAT     H212095   2.442   1.991   4.837  0.0632  2.4998 -0.4879
 3962WAT      O12096   3.594   1.863   2.028 -0.5666 -0.2310 -0.5503
 3962WAT     H112097   3.548   1.945   2.014 -0.5060 -0.0142  0.4936
 3962WAT     H212098   3.552   1.824   2.105 -1.1128 -1.5574 -1.4603
 3963WAT      O12099   2.061   5.050   4.214 -0.1905  0.4160 -0.2697
 3963WAT     H112100   2.051   4.965   4.170 -0.1986 -0.1328  0.7462
 3963WAT     H212101   1.976   5.092   4.202  0.1414  0.7390 -1.6651
 3964WAT      O12102   1.850   3.240   3.378  0.0719  0.2912 -0.6255
 3964WAT     H112103   1.829   3.147   3.379 -1.7343  0.6541 -0.8195
 3964WAT     H212104   1.883   3.259   3.466 -0.9312 -0.2581 -0.1187
 3965WAT      O12105   1.863   0.395   4.694 -0.3636  0.1225  0.0932
 3965WAT     H112106   1.797   0.432   4.635 -0.3540  1.7822  1.0386
 3965WAT     H212107   1.859   0.452   4.771  0.0105 -1.6170  1.4692
 3966WAT      O12108   4.041   3.702   2.644 -0.1753  0.0137  0.1851
 3966WAT     H112109   3.954   3.686   2.680 -0.1865  0.5979  0.4383
 3966WAT     H212110   4.074   3.616   2.620 -0.1049 -0.4331  1.7578
 3967WAT      O12111   4.513   4.119   1.914  0.4893  0.0686  0.3054
 3967WAT     H112112   4.505   4.207   1.877 -2.2585  0.1387  0.8862
 3967WAT     H212113   4.438   4.110   1.972 -0.3523 -3.2917 -1.0697
 3968WAT      O12114   0.438   2.760   0.406 -0.1122  0.2899  0.1358
 3968WAT     H112115   0.517   2.756   0.352 -0.0199  1.0792  0.2028
 3968WAT     H212116   0.452   2.693   0.474  0.0321 -0.2914 -0.4520
 3969WAT      O12117   2.335   2.439   3.298 -0.8184  0.0277 -0.0478
 3969WAT     H112118   2.321   2.368   3.362 -1.3731  1.1457  1.1345
 3969WAT     H212119   2.358   2.514   3.352 -1.4588  1.0520 -1.1664
 3970WAT      O12120   2.119   0.836   1.721 -0.0310  0.2262 -0.3685
 3970WAT     H112121   2.133   0.753   1.676 -1.9378 -1.0290  1.1560
 3970WAT     H212122   2.162   0.824   1.806 -0.5853  0.6750 -0.0233
 3971WAT      O12123   3.230   1.243   1.686  0.2545 -0.3267  0.2205
 3971WAT     H112124   3.275   1.160   1.704  0.9659 -0.6669 -2.6013
 3971WAT     H212125   3.140   1.218   1.666  0.6292 -0.5946 -1.3236
 3972WAT      O12126   1.582   2.925   5.242 -0.2787 -0.4821  0.1606
 3972WAT     H112127   1.530   2.978   5.181  0.3342  0.8358  0.7550
 3972WAT     H212128   1.585   2.976   5.322  1.1221 -0.9914  0.4565
 3973WAT      O12129   1.594   3.018   0.198  0.4158 -0.0608 -0.0211
 3973WAT     H112130   1.583   2.938   0.250 -1.3769  0.3524  0.3223
 3973WAT     H212131   1.507   3.058   0.198  0.8522  0.9713 -1.7122
 3974WAT      O12132   1.380   0.460   0.605 -0.1025 -0.3159 -0.4335
 3974WAT     H112133   1.362   0.381   0.655  0.8948  0.1640  0.7329
 3974WAT     H212134   1.315   0.524   0.637  1.0927  0.2591  0.9636
 3975WAT      O12135   1.630   1.176   1.193  0.6867  0.2633 -0.1910
 3975WAT     H112136   1.571   1.194   1.265  1.0196  1.9423 -0.2947
 3975WAT     H212137   1.709   1.140   1.234  0.8666  1.1892  0.2860
 3976WAT      O12138   1.364   1.579   3.923 -0.1504 -0.1508  0.3960
 3976WAT     H112139   1.309   1.605   3.848 -2.2145 -0.6776  1.6468
 3976WAT     H212140   1.407   1.498   3.894  0.6552  0.7098 -0.9096
 3977WAT      O12141   0.036   0.668   2.463  0.6429 -0.1434  0.1879
 3977WAT     H112142   0.025   0.573   2.460  0.6493 -0.1510  0.3785
 3977WAT     H212143   0.048   0.688   2.556 -1.6726  0.3076  0.4571
 3978WAT      O12144   1.191   2.473   2.501 -0.0628 -0.0474  0.2641
 3978WAT     H112145   1.143   2.391   2.488  1.0482 -0.9094  1.3230
 3978WAT     H212146   1.192   2.485   2.596  0.7304  0.6117  0.1841
 3979WAT      O12147   0.090   3.687   3.806 -0.0011 -0.2729 -0.2683
 3979WAT     H112148   0.084   3.619   3.874 -0.2762  1.4730  1.5479
 3979WAT     H212149   0.007   3.681   3.759 -0.0959 -1.0764 -0.0195
 3980WAT      O12150   1.215   1.920   2.190  0.0886 -0.0973 -0.1006
 3980WAT     H112151   1.261   1.969   2.258 -2.9479  1.1636  1.2230
 3980WAT     H212152   1.263   1.837   2.183  2.4814  1.0877  1.0927
 3981WAT      O12153   2.530   1.545   2.251 -0.5378  0.2697  0.0219
 3981WAT     H112154   2.457   1.534   2.312 -1.2307  0.6485 -0.7147
 3981WAT     H212155   2.598   1.485   2.283 -1.4990 -0.7519  0.2177
 3982WAT      O12156   2.530   3.894   1.462 -0.1058  0.1288  0.1562
 3982WAT     H112157   2.526   3.823   1.399  1.6933  0.5695 -0.5269
 3982WAT     H212158   2.532   3.974   1.409 -0.6205  0.6283  0.8561
 3983WAT      O12159   0.178   4.569   4.139  0.2185  0.5860  0.6263
 3983WAT     H112160   0.236   4.536   4.071  1.2469 -0.2870  1.8663
 3983WAT     H212161   0.223   4.646   4.174 -0.9875  1.9044 -0.5838
 3984WAT      O12162   3.444   3.866   4.586 -0.2136  0.0328  0.5198
 3984WAT     H112163   3.483   3.950   4.563 -0.5029  0.5357  1.7463
 3984WAT     H212164   3.353   3.888   4.606 -0.6029 -0.7810 -0.2942
 3985WAT      O12165   2.259   4.321   3.855  0.5671  0.0978  0.1186
 3985WAT     H112166   2.331   4.352   3.910  0.3070  2.3522 -0.6860
 3985WAT     H212167   2.189   4.301   3.917  0.7587  1.2089  0.7231
 3986WAT      O12168   0.539   5.069   3.420  0.1244  0.2188 -0.1898
 3986WAT     H112169   0.503   5.148   3.461  0.6013  0.2694  0.1364
 3986WAT     H212170   0.463   5.026   3.381 -0.1022  0.9725 -0.6008
 3987WAT      O12171   1.327   2.814   4.891 -0.6994  0.2963 -0.1473
 3987WAT     H112172   1.369   2.729   4.906 -3.0000 -0.8682  0.0726
 3987WAT     H212173   1.235   2.793   4.876 -1.3589  2.7845  0.0379
 3988WAT      O12174   1.676   2.320   5.123 -0.2879  0.1691 -0.5732
 3988WAT     H112175   1.673   2.411   5.095 -1.9636  0.2280 -0.3006
 3988WAT     H212176   1.663   2.270   5.042 -1.1271  0.2330 -0.4862
 3989WAT      O12177   2.617   1.473   4.416  0.0670  0.0233  0.3705
 3989WAT     H112178   2.533   1.460   4.373  0.8210 -1.3870 -0.7628
 3989WAT     H212179   2.603   1.444   4.506 -0.5217 -0.7907  0.0297
 3990WAT      O12180   1.970   2.067   2.240  0.6078  0.3091 -0.3150
 3990WAT     H112181   2.010   2.121   2.308  1.2456 -0.3709 -0.1339
 3990WAT     H212182   1.900   2.122   2.204  0.5278  0.8292  0.6004
 3991WAT      O12183   4.369   0.279   3.897  0.6089  0.1449 -0.5080
 3991WAT     H112184   4.415   0.209   3.850  0.5540 -0.3024  0.1006
 3991WAT     H212185   4.382   0.259   3.989 -0.5380  0.1912 -0.3222
 3992WAT      O12186   4.233   0.389   4.864 -0.8007 -0.0169 -0.2503
 3992WAT     H112187   4.315   0.351   4.895 -1.9561 -1.3568  1.3686
 3992WAT     H212188   4.255   0.428   4.780  1.7240  0.6012  0.5825
 3993WAT      O12189   3.668   4.580   1.097  0.1247  0.3323  0.0605
 3993WAT     H112190   3.713   4.495   1.097  0.5860  0.5768 -0.0897
 3993WAT     H212191   3.716   4.633   1.160  1.8614  1.5393 -2.1522
 3994WAT      O12192   1.147   4.413   2.322  0.6689  0.0940  0.5429
 3994WAT     H112193   1.064   4.378   2.353  0.3016  0.4657 -0.0072
 3994WAT     H212194   1.211   4.345   2.343 -0.2758 -1.7967 -2.1525
 3995WAT      O12195   2.098   2.498   3.930 -0.1165  0.4533  0.2019
 3995WAT     H112196   2.029   2.444   3.968  0.4443  0.1572  0.8364
 3995WAT     H212197   2.109   2.464   3.841 -1.2851  0.9954 -0.1692
 3996WAT      O12198   2.114   0.602   1.541 -0.2189  0.1910  0.4980
 3996WAT     H112199   2.159   0.527   1.581 -0.5299  0.6513  1.7743
 3996WAT     H212200   2.021   0.579   1.545 -0.3324  0.7291  1.1061
 3997WAT      O12201   3.610   4.567   5.295  0.1641  0.2338  0.1682
 3997WAT     H112202   3.566   4.590   5.213 -0.3318  2.1408  0.9048
 3997WAT     H212203   3.547   4.512   5.341  0.8734 -1.7575 -1.1377
 3998WAT      O12204   3.189   0.226   5.051  0.1473  0.7979  0.0903
 3998WAT     H112205   3.251   0.233   5.124  0.0538 -0.2884  0.2860
 3998WAT     H212206   3.234   0.171   4.987 -1.4173 -1.9461  1.1655
 3999WAT      O12207   2.257   4.694   4.169 -0.0372  0.0536  0.4043
 3999WAT     H112208   2.171   4.666   4.137  0.5159 -1.0312 -0.1859
 3999WAT     H212209   2.298   4.614   4.201  1.2986  0.2905 -0.6207
 4000WAT      O12210   2.881   2.095   4.207  0.1808  0.7042 -0.5302
 4000WAT     H112211   2.869   2.117   4.114  0.0718 -0.4983 -0.8153
 4000WAT     H212212   2.957   2.147   4.234  1.9598 -0.9347 -2.0539
 4001WAT      O12213   1.767   3.974   2.907  0.0999 -0.3290 -0.3363
 4001WAT     H112214   1.733   4.063   2.912  0.5590 -0.1671 -0.0042
 4001WAT     H212215   1.713   3.924   2.967  1.5729  0.3000  1.5941
 4002WAT      O12216   3.365   2.530   3.567  0.3374  0.3388  0.0477
 4002WAT     H112217   3.428   2.591   3.605  0.8429 -1.6849  2.7321
 4002WAT     H212218   3.410   2.491   3.492  2.3946 -1.0331  1.8756
 4003WAT      O12219   1.260   0.284   2.711 -0.1545  0.4078 -0.5204
 4003WAT     H112220   1.341   0.316   2.670  0.8797  0.6822  1.6037
 4003WAT     H212221   1.263   0.189   2.698  0.0885  0.4972 -1.1623
 4004WAT      O12222   2.788   4.183   4.761 -0.3172  0.1270  0.1277
 4004WAT     H112223   2.767   4.092   4.780  1.1618 -0.0520  1.0762
 4004WAT     H212224   2.709   4.218   4.719 -2.2821 -0.6485  2.8822
 4005WAT      O12225  -0.013   0.455   3.118  0.6727  0.9408 -0.1792
 4005WAT     H112226   0.014   0.512   3.190  0.1107 -1.6258  2.2320
 4005WAT     H212227   0.068   0.410   3.093  0.3066 -0.5478  1.1806
   4.52549   5.14596   5.30344
