Generic title
12227
    1ILE      N    1   3.152   1.313   1.089 -0.2738  0.0848 -0.5007
    1ILE     H1    2   3.203   1.319   1.002  0.2522 -0.2864 -0.2290
    1ILE     H2    3   3.070   1.371   1.089 -0.8123 -0.5538  2.2141
    1ILE     H3    4   3.114   1.221   1.107 -1.5146  0.6720 -0.0089
    1ILE     CA    5   3.242   1.357   1.199 -0.4535 -0.1000  0.2583
    1ILE     HA    6   3.182   1.364   1.290  2.1623 -3.0207  2.4583
    1ILE     CB    7   3.353   1.259   1.236 -0.2514 -0.1819 -0.2109
    1ILE     HB    8   3.406   1.310   1.317 -1.6389  2.3175 -0.7627
    1ILE    CG2    9   3.281   1.138   1.296 -0.2900  0.0596 -0.2182
    1ILE   HG21   10   3.231   1.067   1.230 -0.9807 -3.1505  3.3902
    1ILE   HG22   11   3.351   1.070   1.344  0.0395  0.7254  0.2503
    1ILE   HG23   12   3.220   1.169   1.381 -1.4364 -2.8720  0.1445
    1ILE    CG1   13   3.439   1.221   1.116  0.2159 -0.0056  0.0353
    1ILE   HG12   14   3.460   1.308   1.055  1.7709  0.8544  1.7065
    1ILE   HG13   15   3.397   1.138   1.058  2.4603 -1.1958  0.0168
    1ILE    CD1   16   3.575   1.187   1.177 -0.4413 -0.7071  0.2390
    1ILE   HD11   17   3.652   1.170   1.101 -0.2978  0.2323  0.1563
    1ILE   HD12   18   3.604   1.271   1.240  0.1920 -0.9464  0.2722
    1ILE   HD13   19   3.573   1.096   1.235 -1.7715 -0.6070  0.3873
    1ILE      C   20   3.288   1.499   1.175  0.5901  0.0688 -0.4656
    1ILE      O   21   3.308   1.533   1.055  0.4885 -0.0352  0.3028
    2LEU      N   22   3.312   1.573   1.284 -0.1020 -0.4431  0.4338
    2LEU      H   23   3.304   1.524   1.371  1.9165  0.2958  1.0875
    2LEU     CA   24   3.362   1.711   1.277 -0.9874 -0.6963  0.4410
    2LEU     HA   25   3.308   1.761   1.196 -2.6368  0.1735  2.0174
    2LEU     CB   26   3.336   1.784   1.412 -0.3212 -0.3721  0.7785
    2LEU    HB2   27   3.388   1.731   1.492 -0.7628  1.3681  2.2801
    2LEU    HB3   28   3.368   1.888   1.411  3.4768 -1.3120  2.9018
    2LEU     CG   29   3.193   1.780   1.463  0.3726 -0.1818 -0.0910
    2LEU     HG   30   3.144   1.685   1.480  2.2723 -0.9224  1.6354
    2LEU    CD1   31   3.182   1.862   1.591 -0.1690 -0.1003  0.4935
    2LEU   HD11   32   3.230   1.960   1.589  2.3599 -1.2566 -2.6660
    2LEU   HD12   33   3.074   1.869   1.610 -0.3956 -4.3401  1.6319
    2LEU   HD13   34   3.214   1.811   1.682 -0.1835 -0.2825  0.3963
    2LEU    CD2   35   3.109   1.845   1.352  0.3886  0.3129 -0.5071
    2LEU   HD21   36   3.099   1.771   1.272 -1.4726  0.3890 -0.4023
    2LEU   HD22   37   3.012   1.869   1.397  1.3934 -0.2910  2.1200
    2LEU   HD23   38   3.151   1.940   1.319  0.1448  0.3564 -0.7012
    2LEU      C   39   3.514   1.709   1.241  0.4532 -0.9745  0.4371
    2LEU      O   40   3.585   1.618   1.278  0.5459 -0.8251 -0.2750
    3ARG      N   41   3.567   1.807   1.165  0.3916 -0.0895 -0.3927
    3ARG      H   42   3.503   1.874   1.125  0.1806 -0.3575 -0.5074
    3ARG     CA   43   3.710   1.820   1.133 -0.3164 -0.1878  0.0378
    3ARG     HA   44   3.744   1.717   1.138 -1.2566 -0.5319 -0.5025
    3ARG     CB   45   3.716   1.864   0.987  0.0998 -0.5082 -0.2539
    3ARG    HB2   46   3.677   1.965   0.980  0.4165 -0.4199 -0.8043
    3ARG    HB3   47   3.820   1.861   0.954  0.3504 -3.2398  0.4672
    3ARG     CG   48   3.647   1.775   0.882 -0.2624 -0.2215  0.1947
    3ARG    HG2   49   3.539   1.783   0.893 -0.0445  0.0778  2.6441
    3ARG    HG3   50   3.661   1.822   0.784  3.2465 -0.6852  0.3400
    3ARG     CD   51   3.690   1.627   0.876 -0.0215  0.8581  0.6215
    3ARG    HD2   52   3.793   1.617   0.840 -0.1474  1.7484 -0.0393
    3ARG    HD3   53   3.699   1.573   0.970 -1.1076 -1.3685 -0.4773
    3ARG     NE   54   3.611   1.542   0.776 -0.1606 -0.3214  0.1531
    3ARG     HE   55   3.559   1.592   0.706  0.8652  0.1820 -0.2578
    3ARG     CZ   56   3.613   1.410   0.771  0.1674 -0.2457  0.5783
    3ARG    NH1   57   3.670   1.338   0.862 -0.6005  0.4345 -0.1048
    3ARG   HH11   58   3.742   1.382   0.916 -0.9859  0.3397  0.4982
    3ARG   HH12   59   3.658   1.238   0.848  0.4951  0.2240  0.3896
    3ARG    NH2   60   3.556   1.355   0.668 -0.2684  0.0901 -0.8262
    3ARG   HH21   61   3.501   1.410   0.603 -0.6850 -0.2376 -0.7513
    3ARG   HH22   62   3.530   1.259   0.684 -0.2450  0.3714  1.1262
    3ARG      C   63   3.798   1.887   1.240 -0.3503 -0.2925  0.1984
    3ARG      O   64   3.920   1.898   1.219  0.2209  0.0595 -0.0485
    4TRP      N   65   3.740   1.914   1.358 -0.4611  0.2570  0.3506
    4TRP      H   66   3.649   1.873   1.372 -0.3700 -0.4622 -0.9248
    4TRP     CA   67   3.820   1.949   1.479  0.0316 -0.1983  0.3850
    4TRP     HA   68   3.926   1.943   1.452 -0.2620 -1.4809 -0.5936
    4TRP     CB   69   3.786   2.096   1.513  0.2683  0.1849 -0.2434
    4TRP    HB2   70   3.814   2.120   1.615  0.9313  0.0880 -0.3974
    4TRP    HB3   71   3.850   2.161   1.453  2.2291 -1.3714  0.0549
    4TRP     CG   72   3.629   2.133   1.504  0.2490  0.2778  0.0139
    4TRP    CD1   73   3.542   2.089   1.601 -0.1676  0.5856  0.2481
    4TRP    HD1   74   3.560   2.012   1.675 -0.8078 -0.1564 -0.3391
    4TRP    NE1   75   3.421   2.148   1.579  0.7915  0.0008  0.6729
    4TRP    HE1   76   3.340   2.152   1.640 -0.3177  2.6222 -0.8223
    4TRP    CE2   77   3.418   2.226   1.462 -0.5447 -0.3808  0.0724
    4TRP    CZ2   78   3.325   2.297   1.387  0.2164  0.4324 -0.5282
    4TRP    HZ2   79   3.222   2.301   1.417 -0.1255 -1.8800 -1.2252
    4TRP    CH2   80   3.356   2.367   1.270 -0.7348  0.6287 -0.4231
    4TRP    HH2   81   3.284   2.428   1.217 -0.8076  0.8079 -0.1176
    4TRP    CZ3   82   3.489   2.358   1.219 -0.3595 -0.0949 -0.1115
    4TRP    HZ3   83   3.523   2.398   1.124  0.6429 -0.8582 -0.0842
    4TRP    CE3   84   3.581   2.282   1.292 -0.3400 -0.7076 -0.3788
    4TRP    HE3   85   3.686   2.281   1.267 -0.4889 -0.5683 -1.0142
    4TRP    CD2   86   3.552   2.218   1.415  0.3164  0.1477  0.6723
    4TRP      C   87   3.801   1.842   1.595 -0.4078 -0.4984  0.2777
    4TRP      O   88   3.703   1.770   1.591 -0.0671  0.0494 -0.3447
    5PRO      N   89   3.896   1.832   1.694  0.1575 -0.0069 -0.5378
    5PRO     CD   90   4.019   1.901   1.707 -0.2148 -0.5388  0.1388
    5PRO    HD2   91   4.010   2.009   1.692  0.6918 -0.7057 -2.0079
    5PRO    HD3   92   4.091   1.865   1.634  1.6644  0.6630  1.3044
    5PRO     CG   93   4.073   1.871   1.847 -0.3654  0.8062  0.1323
    5PRO    HG2   94   4.026   1.940   1.917  1.8423  1.4359  1.0888
    5PRO    HG3   95   4.182   1.871   1.854 -0.3238 -0.6603 -0.0013
    5PRO     CB   96   4.004   1.730   1.884  0.8216 -0.2672  0.3929
    5PRO    HB2   97   3.989   1.718   1.991 -1.1827  1.0601  0.3092
    5PRO    HB3   98   4.063   1.652   1.836  2.2687  0.6085  0.6852
    5PRO     CA   99   3.867   1.738   1.806 -0.4773  0.7366  0.3831
    5PRO     HA  100   3.850   1.642   1.758  1.9696 -0.6106  1.9859
    5PRO      C  101   3.746   1.781   1.888  0.3153 -0.2205 -0.0423
    5PRO      O  102   3.736   1.894   1.937 -0.3648 -0.1430 -0.2088
    6TRP      N  103   3.661   1.682   1.904 -0.0553 -0.0380  0.3165
    6TRP      H  104   3.684   1.592   1.865  1.2518  0.6928 -0.6620
    6TRP     CA  105   3.527   1.693   1.971  0.0787 -0.3837  0.2525
    6TRP     HA  106   3.503   1.799   1.969 -0.4339 -0.5040 -0.2546
    6TRP     CB  107   3.410   1.638   1.889  0.8422 -0.7648  0.3692
    6TRP    HB2  108   3.399   1.695   1.796 -0.3795 -1.3767  0.1234
    6TRP    HB3  109   3.427   1.533   1.868  1.7732 -0.7774  1.1560
    6TRP     CG  110   3.285   1.646   1.972  0.1506  0.4277 -0.3218
    6TRP    CD1  111   3.216   1.536   2.015  0.8821  0.9879  0.3158
    6TRP    HD1  112   3.248   1.433   2.003 -1.8518  0.2098 -1.0056
    6TRP    NE1  113   3.114   1.571   2.089  0.4142 -0.3997 -0.2770
    6TRP    HE1  114   3.040   1.511   2.121  0.4163  0.2887  1.1211
    6TRP    CE2  115   3.103   1.709   2.089  0.4672  1.1581 -0.1687
    6TRP    CZ2  116   3.008   1.797   2.154 -0.1599 -0.5765  0.4492
    6TRP    HZ2  117   2.916   1.770   2.205 -1.8056 -0.1916 -2.1378
    6TRP    CH2  118   3.024   1.936   2.145 -0.8572  0.4128  0.0781
    6TRP    HH2  119   2.955   2.005   2.191 -0.0679  1.3786 -0.1471
    6TRP    CZ3  120   3.129   1.986   2.071 -0.0397  0.0233 -0.7614
    6TRP    HZ3  121   3.137   2.091   2.047  1.6061  0.1329  0.1304
    6TRP    CE3  122   3.225   1.902   2.020 -0.3311  0.1494 -0.0360
    6TRP    HE3  123   3.291   1.949   1.949  1.5799 -1.1621  0.7677
    6TRP    CD2  124   3.217   1.761   2.023  0.2145 -1.0024 -0.0150
    6TRP      C  125   3.524   1.634   2.113  0.1357 -0.0907 -0.0894
    6TRP      O  126   3.550   1.517   2.133  0.1984 -0.3434  0.1081
    7TRP      N  127   3.494   1.716   2.216 -1.0205  0.0973 -0.4868
    7TRP      H  128   3.492   1.815   2.194  1.9726  0.3899  0.0481
    7TRP     CA  129   3.452   1.659   2.342 -0.5661  0.6306 -0.3514
    7TRP     HA  130   3.446   1.550   2.341  1.1469  0.5031 -1.4966
    7TRP     CB  131   3.567   1.686   2.439 -0.2081  0.0935  0.0443
    7TRP    HB2  132   3.665   1.657   2.401 -0.3837 -1.2306  0.5342
    7TRP    HB3  133   3.572   1.793   2.460  0.8283  0.1748 -0.5625
    7TRP     CG  134   3.552   1.622   2.568  0.0090  1.6240 -0.5767
    7TRP    CD1  135   3.572   1.676   2.686  0.3531  1.2094  0.0768
    7TRP    HD1  136   3.597   1.781   2.699  1.8375  0.6485  2.6660
    7TRP    NE1  137   3.549   1.582   2.783  0.5193  0.5504  0.6147
    7TRP    HE1  138   3.552   1.599   2.882 -0.4578 -0.6250  0.8670
    7TRP    CE2  139   3.530   1.452   2.733 -0.2497 -0.2258  0.2644
    7TRP    CZ2  140   3.516   1.325   2.796  0.0501 -0.0886 -0.1142
    7TRP    HZ2  141   3.517   1.317   2.904  0.9893 -2.7346 -0.2464
    7TRP    CH2  142   3.515   1.211   2.711 -0.2051 -0.2014  0.5304
    7TRP    HH2  143   3.526   1.114   2.757 -1.0334  0.3936  2.0351
    7TRP    CZ3  144   3.542   1.230   2.572  0.5709 -0.2294 -0.6833
    7TRP    HZ3  145   3.563   1.143   2.511 -0.9637 -1.7031  0.7905
    7TRP    CE3  146   3.544   1.358   2.514  0.6311  0.4828 -0.8189
    7TRP    HE3  147   3.568   1.368   2.409  2.3504 -1.1491 -0.6358
    7TRP    CD2  148   3.541   1.475   2.593  0.4973 -0.0346  0.3085
    7TRP      C  149   3.318   1.718   2.381 -0.8149  0.4690 -0.3422
    7TRP      O  150   3.302   1.837   2.380 -0.0686  0.0955 -0.4579
    8PRO      N  151   3.224   1.635   2.432  0.2783  0.4899 -0.5244
    8PRO     CD  152   3.209   1.489   2.413 -0.5838 -0.4666 -0.0988
    8PRO    HD2  153   3.253   1.441   2.500 -0.1287 -1.6697 -0.9641
    8PRO    HD3  154   3.256   1.462   2.318  0.4606  0.2281  0.1967
    8PRO     CG  155   3.059   1.461   2.425 -0.1067 -0.1030 -0.4929
    8PRO    HG2  156   3.057   1.354   2.448  1.6606 -0.8480 -3.2807
    8PRO    HG3  157   3.007   1.485   2.332  0.9965 -1.7154 -1.6022
    8PRO     CB  158   3.015   1.561   2.531 -0.4456 -0.1426 -0.6731
    8PRO    HB2  159   3.042   1.527   2.630 -1.5169  1.1651  0.1016
    8PRO    HB3  160   2.909   1.577   2.515 -0.5188 -0.0108 -0.0601
    8PRO     CA  161   3.099   1.681   2.491 -0.6178 -0.3902  0.0999
    8PRO     HA  162   3.048   1.741   2.415 -2.4228  1.2976  2.5031
    8PRO      C  163   3.111   1.774   2.617  1.0418  0.0824  0.1241
    8PRO      O  164   3.011   1.817   2.675 -0.3354 -0.2242 -0.3060
    9TRP      N  165   3.230   1.824   2.650 -0.4259 -0.4773 -0.1614
    9TRP      H  166   3.310   1.795   2.596 -0.3642 -2.6211  0.9983
    9TRP     CA  167   3.261   1.924   2.753 -0.1873 -0.1596  0.0477
    9TRP     HA  168   3.179   1.989   2.783  0.4976  1.3465 -1.1917
    9TRP     CB  169   3.290   1.843   2.881  0.0308  0.4117  0.5904
    9TRP    HB2  170   3.207   1.780   2.912  2.3086 -2.3378  1.5638
    9TRP    HB3  171   3.377   1.780   2.862  0.0387  0.6699 -0.2441
    9TRP     CG  172   3.323   1.920   3.005  0.4336  0.0839 -0.3780
    9TRP    CD1  173   3.441   1.920   3.073 -0.6848 -0.2014  0.0244
    9TRP    HD1  174   3.524   1.854   3.052  0.6912  1.6484 -0.6286
    9TRP    NE1  175   3.428   1.994   3.191 -0.2837 -0.0930  0.0433
    9TRP    HE1  176   3.491   1.989   3.270 -0.9112  0.7970  0.6343
    9TRP    CE2  177   3.306   2.063   3.192 -0.7891 -0.2669  0.9354
    9TRP    CZ2  178   3.252   2.161   3.276 -0.2222 -0.2765 -0.2754
    9TRP    HZ2  179   3.304   2.195   3.364 -3.6154 -1.3801  2.3942
    9TRP    CH2  180   3.131   2.215   3.242 -0.0573 -0.3776 -0.3664
    9TRP    HH2  181   3.090   2.289   3.310 -0.0216 -0.9934  0.3354
    9TRP    CZ3  182   3.057   2.163   3.140  0.2434  0.0679 -0.1674
    9TRP    HZ3  183   2.968   2.217   3.113 -0.3646 -1.0446 -0.4413
    9TRP    CE3  184   3.105   2.064   3.056  0.3445  0.4038 -0.7348
    9TRP    HE3  185   3.043   2.033   2.974 -2.1922 -0.8451  1.4837
    9TRP    CD2  186   3.236   2.013   3.079  0.0592  0.3030 -0.1602
    9TRP      C  187   3.372   2.018   2.708  0.7200 -0.6614 -0.0301
    9TRP      O  188   3.451   1.978   2.631 -0.0464 -0.2746 -0.0977
   10ARG      N  189   3.384   2.130   2.778 -1.1306  0.5902 -0.5790
   10ARG      H  190   3.343   2.124   2.870  0.5373  1.3072  0.2561
   10ARG     CA  191   3.494   2.228   2.766  0.2877 -0.0407 -0.2187
   10ARG     HA  192   3.507   2.252   2.661  0.8645 -0.3616 -0.2271
   10ARG     CB  193   3.473   2.362   2.842  0.2272  0.2978 -0.3741
   10ARG    HB2  194   3.504   2.356   2.947  1.3191 -2.6632 -0.7915
   10ARG    HB3  195   3.532   2.437   2.789  0.0450 -0.3207 -1.4659
   10ARG     CG  196   3.328   2.407   2.850  0.2582 -0.7412  0.1751
   10ARG    HG2  197   3.277   2.411   2.754  0.1045 -2.6696  0.1474
   10ARG    HG3  198   3.276   2.336   2.912 -0.4975  0.7205  1.2717
   10ARG     CD  199   3.310   2.543   2.914 -0.1771  0.5607  0.1535
   10ARG    HD2  200   3.373   2.542   3.002  2.2781  0.9150 -1.4838
   10ARG    HD3  201   3.365   2.619   2.858  0.6490  1.3711  1.9931
   10ARG     NE  202   3.161   2.568   2.933  0.1708 -0.1929 -0.5704
   10ARG     HE  203   3.099   2.558   2.855 -1.7568 -0.2010  0.8736
   10ARG     CZ  204   3.101   2.589   3.043 -0.2256  0.0678 -0.6377
   10ARG    NH1  205   3.161   2.586   3.161 -0.6471  0.0750  0.8996
   10ARG   HH11  206   3.260   2.567   3.167 -0.0511  1.3678 -2.4100
   10ARG   HH12  207   3.107   2.619   3.239 -2.3041  0.0025 -0.1609
   10ARG    NH2  208   2.974   2.616   3.048  0.0795 -0.1388  0.2161
   10ARG   HH21  209   2.922   2.556   2.986  1.8107 -1.9417  0.4372
   10ARG   HH22  210   2.943   2.626   3.143  3.0326 -0.1016  1.2741
   10ARG      C  211   3.632   2.167   2.797 -0.5633  0.3306  0.6006
   10ARG      O  212   3.647   2.070   2.869  0.0491  0.1141  0.2049
   11ARG      N  213   3.736   2.225   2.736 -0.3408  0.2830 -0.4482
   11ARG      H  214   3.713   2.315   2.696 -1.0824  0.4956  0.4303
   11ARG     CA  215   3.879   2.188   2.742  0.7193  0.3545 -0.1407
   11ARG     HA  216   3.914   2.158   2.841  0.0301  0.0604  0.0205
   11ARG     CB  217   3.920   2.074   2.642  0.2667 -0.3745  0.3577
   11ARG    HB2  218   3.872   2.079   2.544 -1.4295 -4.2266  0.8011
   11ARG    HB3  219   4.026   2.063   2.619  0.2044  1.2679 -0.9394
   11ARG     CG  220   3.873   1.937   2.691  0.1242 -0.5955 -0.4291
   11ARG    HG2  221   3.929   1.909   2.780 -0.8550  1.7615  0.9958
   11ARG    HG3  222   3.767   1.932   2.715  0.1692 -2.4917 -0.4113
   11ARG     CD  223   3.897   1.835   2.581  0.0801 -0.1871  0.0647
   11ARG    HD2  224   3.848   1.743   2.612 -0.0548  0.0753  0.6379
   11ARG    HD3  225   3.843   1.861   2.490 -0.6023  0.4954  0.6608
   11ARG     NE  226   4.044   1.816   2.555 -0.2750 -0.1935 -0.1639
   11ARG     HE  227   4.074   1.888   2.490 -3.1165 -0.2056 -1.6468
   11ARG     CZ  228   4.130   1.762   2.641  0.9395  0.7783 -1.0496
   11ARG    NH1  229   4.084   1.686   2.737  0.1154  0.5823 -0.4431
   11ARG   HH11  230   3.984   1.673   2.737 -0.4182  3.7493 -0.9352
   11ARG   HH12  231   4.151   1.638   2.795 -1.1303 -0.9873 -0.2715
   11ARG    NH2  232   4.255   1.777   2.630  0.3521  0.6463 -0.1075
   11ARG   HH21  233   4.298   1.826   2.553  0.5205 -0.2200 -0.5806
   11ARG   HH22  234   4.308   1.753   2.713  1.0607  1.9170 -0.1668
   11ARG      C  235   3.959   2.308   2.697  0.0203 -0.2068 -0.3105
   11ARG      O  236   3.912   2.400   2.634 -0.4710 -0.4875 -0.2484
   12LYS      N  237   4.086   2.306   2.740  0.1574  0.2457 -0.2694
   12LYS      H  238   4.118   2.216   2.773 -2.0219 -0.5620 -0.2075
   12LYS     CA  239   4.190   2.405   2.707 -0.4106 -0.6125  0.2021
   12LYS     HA  240   4.161   2.457   2.616  0.5384  2.7274  1.6717
   12LYS     CB  241   4.204   2.509   2.822 -0.2523 -0.2995  0.4422
   12LYS    HB2  242   4.241   2.448   2.904  2.0713  1.0498  0.4933
   12LYS    HB3  243   4.283   2.578   2.793 -2.3515  1.0077 -2.8332
   12LYS     CG  244   4.079   2.589   2.865  0.4593 -0.2682 -0.6135
   12LYS    HG2  245   4.034   2.628   2.774  3.3048 -0.4276 -2.2223
   12LYS    HG3  246   3.998   2.524   2.897 -0.7674  1.2608 -0.5018
   12LYS     CD  247   4.101   2.697   2.973  0.3539 -0.6540 -0.3320
   12LYS    HD2  248   4.187   2.747   2.928  0.8369 -0.3735  0.8484
   12LYS    HD3  249   4.015   2.763   2.983  0.1539 -0.9839  0.1182
   12LYS     CE  250   4.158   2.644   3.104 -0.7296  0.3158 -0.3801
   12LYS    HE2  251   4.091   2.578   3.158  1.2999 -1.0180  0.6171
   12LYS    HE3  252   4.245   2.581   3.089 -0.6272  0.1193  0.9843
   12LYS     NZ  253   4.209   2.762   3.177 -0.8273  0.7603  0.1341
   12LYS    HZ1  254   4.132   2.811   3.221 -1.4264  0.1090 -0.1882
   12LYS    HZ2  255   4.263   2.729   3.256  1.1925  0.7637 -1.1903
   12LYS    HZ3  256   4.273   2.817   3.122 -0.8709  0.1394 -0.5339
   12LYS      C  257   4.331   2.343   2.674  0.1426  0.2329 -0.1206
   12LYS      O  258   4.359   2.234   2.720  0.0521  0.0539  0.1260
   13NHE      N  259   4.417   2.419   2.613 -0.5794 -0.5409 -0.3343
   13NHE    HN1  260   4.380   2.507   2.578 -0.6863 -0.2894  0.3927
   13NHE    HN2  261   4.509   2.383   2.598 -1.2918 -1.2011 -4.3036
   14Cl-    Cl-  262   3.218   4.894   2.942 -0.0021  0.2947 -0.1792
   15Cl-    Cl-  263   2.798   1.464   4.678 -0.2275 -0.0965 -0.0728
   16Cl-    Cl-  264   3.672   2.975   2.560  0.3742  0.3083 -0.2433
   17Cl-    Cl-  265   0.121   0.886   4.217  0.1585  0.3225  0.4514
   18Cl-    Cl-  266   3.730   1.914   0.258 -0.1814  0.0645 -0.1561
   19WAT      O  267   2.977   0.733   1.869  0.1251  0.6903  0.2416
   19WAT     H1  268   2.952   0.642   1.889 -2.5285  1.2528 -0.0823
   19WAT     H2  269   3.013   0.766   1.951 -1.4058  0.0768  1.2161
   20WAT      O  270   1.544   3.717   3.652  0.4503 -0.1925 -0.4985
   20WAT     H1  271   1.610   3.746   3.716 -0.9776 -0.0357  0.9912
   20WAT     H2  272   1.553   3.778   3.579  0.5220  1.2087  0.6344
   21WAT      O  273   4.039   1.564   5.008 -0.1444  0.0009 -0.2541
   21WAT     H1  274   4.011   1.479   4.973  0.8107  1.0756 -4.2195
   21WAT     H2  275   4.134   1.562   5.000 -0.1737  1.8241 -1.7108
   22WAT      O  276   1.705   3.837   3.881 -0.3385 -0.0413  0.2813
   22WAT     H1  277   1.637   3.797   3.936 -0.9302  1.4407  0.6699
   22WAT     H2  278   1.755   3.893   3.941 -0.9259  1.5330 -0.6336
   23WAT      O  279   1.869   2.891   3.873 -0.6653  0.3988  0.5230
   23WAT     H1  280   1.920   2.813   3.894  0.0915  0.6552 -0.3070
   23WAT     H2  281   1.783   2.857   3.848 -0.7761 -0.0641  1.4724
   24WAT      O  282   2.850   2.287   1.962 -0.0719  0.4358 -0.5336
   24WAT     H1  283   2.867   2.381   1.964  0.3957  0.3529  0.8407
   24WAT     H2  284   2.936   2.246   1.958 -0.2316  0.0636 -0.3294
   25WAT      O  285   1.317   4.545   5.172 -0.8784  0.9713 -0.7035
   25WAT     H1  286   1.330   4.552   5.266 -1.1926  1.0081 -0.6607
   25WAT     H2  287   1.346   4.457   5.150  0.9971  1.6079 -0.8866
   26WAT      O  288   1.287   3.928   0.640 -0.6417 -0.1251 -0.0849
   26WAT     H1  289   1.301   3.986   0.714 -0.9515  1.4318 -1.2101
   26WAT     H2  290   1.240   3.981   0.576  1.0080 -0.9052 -2.0529
   27WAT      O  291   0.681   2.468   3.142 -0.6935  0.3452  0.3041
   27WAT     H1  292   0.636   2.545   3.107 -2.0243 -0.3283  0.4427
   27WAT     H2  293   0.756   2.455   3.085 -1.6911  0.4573 -1.0766
   28WAT      O  294   0.348   2.451   0.853 -0.4436  0.0439 -0.4405
   28WAT     H1  295   0.266   2.444   0.902 -0.8553 -3.4615 -1.3484
   28WAT     H2  296   0.320   2.459   0.762  0.2936  1.2805 -0.5765
   29WAT      O  297   1.385   0.535   4.792 -0.3081  0.4093  0.2837
   29WAT     H1  298   1.346   0.449   4.812  2.4489 -0.9057  0.4614
   29WAT     H2  299   1.428   0.521   4.708  1.5424  1.0952  1.0754
   30WAT      O  300  -0.022   3.427   0.037  0.0148  0.5068 -0.0069
   30WAT     H1  301   0.072   3.432   0.018  0.1767 -1.0616  0.2382
   30WAT     H2  302  -0.040   3.333   0.038 -1.1519  0.7214  1.9492
   31WAT      O  303   1.371   3.644   0.874 -0.2632 -0.3059  0.3854
   31WAT     H1  304   1.397   3.557   0.903  1.7765  0.6508  1.7277
   31WAT     H2  305   1.298   3.629   0.815  0.7468 -3.0095 -0.3424
   32WAT      O  306   3.508   3.891   2.791  0.2089 -0.7839  0.1958
   32WAT     H1  307   3.487   3.820   2.853  0.9421  0.2542  1.7060
   32WAT     H2  308   3.604   3.891   2.789  0.2259  0.3964  0.5229
   33WAT      O  309   2.938   2.782   1.739 -0.0118  0.2847  0.2994
   33WAT     H1  310   2.988   2.704   1.764 -1.6156 -0.6696  0.6202
   33WAT     H2  311   2.901   2.814   1.821 -0.8721  0.2983 -0.0914
   34WAT      O  312   0.493   4.508   1.265  0.1627  0.3379 -0.1849
   34WAT     H1  313   0.444   4.591   1.266 -1.4046 -0.5608  0.2990
   34WAT     H2  314   0.510   4.491   1.173 -0.2838  0.7629 -0.3508
   35WAT      O  315   0.240   0.424   3.183 -0.3136 -0.1029 -0.0197
   35WAT     H1  316   0.296   0.357   3.146  0.1376  0.4470 -0.3474
   35WAT     H2  317   0.286   0.506   3.166 -1.2312  0.3592 -0.3210
   36WAT      O  318   1.892   0.071   2.878 -0.6753 -0.6182 -0.2744
   36WAT     H1  319   1.856   0.008   2.940 -0.8346 -0.8696 -0.6228
   36WAT     H2  320   1.985   0.051   2.874 -0.0345  1.2965  2.1575
   37WAT      O  321   1.145   1.199   5.204 -0.2491  0.0833 -0.3641
   37WAT     H1  322   1.235   1.206   5.171 -0.0529  0.5836  0.2545
   37WAT     H2  323   1.123   1.107   5.194  0.3377 -0.0429 -0.5233
   38WAT      O  324   3.643   0.214   5.029 -0.6683  0.5577 -0.4587
   38WAT     H1  325   3.738   0.211   5.020 -0.6081  0.6024  0.1342
   38WAT     H2  326   3.628   0.223   5.123 -1.2492  0.9779 -0.5878
   39WAT      O  327   2.227   2.380   1.647  0.1509  0.5740 -0.1002
   39WAT     H1  328   2.279   2.307   1.615 -3.9197 -1.4976 -2.9908
   39WAT     H2  329   2.239   2.449   1.581  0.6221  0.7924  0.2156
   40WAT      O  330   3.434   3.585   3.257 -0.1612  0.7478 -0.0552
   40WAT     H1  331   3.389   3.669   3.248 -0.3194  0.6743  0.0394
   40WAT     H2  332   3.411   3.555   3.345  1.7359  1.6891  0.8187
   41WAT      O  333   0.246   3.151   3.812  0.2957 -0.3248 -0.0865
   41WAT     H1  334   0.330   3.106   3.806  1.3196  1.5565 -0.9258
   41WAT     H2  335   0.253   3.206   3.890 -0.0075  0.1269 -0.3698
   42WAT      O  336   2.901   3.383   0.962  0.4207  0.2879 -0.7757
   42WAT     H1  337   2.828   3.430   1.002  0.0982 -0.7443 -0.1343
   42WAT     H2  338   2.977   3.410   1.013  0.6186  1.8329 -1.8187
   43WAT      O  339   3.812   4.180   3.313 -0.3772 -0.4412  0.9241
   43WAT     H1  340   3.875   4.243   3.279 -0.2398 -0.3150  1.4145
   43WAT     H2  341   3.734   4.232   3.331 -1.1740 -0.8262 -1.0999
   44WAT      O  342   1.126   4.113   4.868  0.7185 -0.6568  0.3954
   44WAT     H1  343   1.113   4.140   4.959 -0.3395  1.2230 -0.2529
   44WAT     H2  344   1.178   4.184   4.829 -1.0615 -0.0875 -1.0823
   45WAT      O  345   1.710   0.839   3.088  0.0728 -0.2575 -0.1004
   45WAT     H1  346   1.788   0.846   3.032 -0.4446  1.4738 -0.6563
   45WAT     H2  347   1.638   0.828   3.027 -0.3900  0.6290  0.2767
   46WAT      O  348   3.771   2.292   0.068  0.2027 -0.2996  0.2007
   46WAT     H1  349   3.687   2.275   0.111 -0.8234  0.8403 -1.2330
   46WAT     H2  350   3.783   2.218   0.009  0.3011 -0.5660  0.5568
   47WAT      O  351   2.488   4.809   4.099 -0.1943 -0.0836 -0.1274
   47WAT     H1  352   2.437   4.888   4.118 -2.0187 -1.2592  0.1514
   47WAT     H2  353   2.432   4.759   4.040  1.1202 -0.9955 -0.6388
   48WAT      O  354   1.161   1.488   2.442 -0.0864 -0.5088 -0.0749
   48WAT     H1  355   1.172   1.551   2.514  0.3010 -0.2711 -0.3340
   48WAT     H2  356   1.244   1.492   2.394 -0.7606  0.2184 -1.2363
   49WAT      O  357   3.646   4.239   1.593 -0.1769 -0.3172  0.6651
   49WAT     H1  358   3.627   4.195   1.676  0.2151 -1.3742  0.2079
   49WAT     H2  359   3.565   4.231   1.543  0.0165 -0.8637  0.4356
   50WAT      O  360   0.467   0.104   4.497 -0.2251 -0.3462 -0.1802
   50WAT     H1  361   0.482   0.197   4.479 -1.8124  0.0272  0.2118
   50WAT     H2  362   0.430   0.069   4.416 -1.7411 -0.0739  0.3586
   51WAT      O  363   0.511   3.045   3.773  0.5587 -0.0931  0.0434
   51WAT     H1  364   0.574   3.055   3.845 -0.5646  2.7720  0.7933
   51WAT     H2  365   0.554   3.088   3.699  0.1230  0.5470  0.1527
   52WAT      O  366   3.090   2.892   0.189  0.3923  0.1575 -0.5068
   52WAT     H1  367   3.154   2.936   0.246  0.4613 -2.9618  2.0907
   52WAT     H2  368   3.143   2.838   0.131  0.2037 -0.3808 -0.1825
   53WAT      O  369   2.797   3.573   2.628 -0.0235 -0.0430 -0.3469
   53WAT     H1  370   2.745   3.508   2.581  1.1310 -0.5935 -0.9136
   53WAT     H2  371   2.761   3.657   2.601 -1.5065 -0.4222  0.3484
   54WAT      O  372   3.446   3.182   0.793 -0.3226 -0.5086  0.2370
   54WAT     H1  373   3.416   3.273   0.787 -0.5330 -0.4752  1.4401
   54WAT     H2  374   3.459   3.168   0.887  0.5489 -1.4590 -0.0129
   55WAT      O  375   1.335   3.683   1.588  0.5507 -0.2545 -0.0813
   55WAT     H1  376   1.376   3.765   1.559 -0.7239  0.8587  1.0866
   55WAT     H2  377   1.335   3.689   1.684 -1.0714 -0.8109 -0.0076
   56WAT      O  378   4.417   4.178   1.771 -0.3951 -0.1881 -0.6367
   56WAT     H1  379   4.326   4.153   1.756 -1.3414  1.9049  1.0742
   56WAT     H2  380   4.438   4.239   1.700  0.2484 -1.8181 -1.9128
   57WAT      O  381   2.414   3.368   2.909 -0.2930 -0.1895 -0.3942
   57WAT     H1  382   2.439   3.385   3.000  1.3853 -1.2750 -0.6080
   57WAT     H2  383   2.497   3.365   2.861 -0.7612 -3.4865 -1.2566
   58WAT      O  384   1.830   1.628   2.252  0.0392 -0.2833  0.2589
   58WAT     H1  385   1.903   1.640   2.191  0.1370  0.4777  0.5087
   58WAT     H2  386   1.857   1.678   2.330  0.5047 -2.2648  1.4385
   59WAT      O  387   2.743   4.366   1.561  0.2406  0.3777  0.5087
   59WAT     H1  388   2.732   4.323   1.476 -2.3982  1.2944  0.3240
   59WAT     H2  389   2.813   4.430   1.547  2.9662 -2.4098  0.3003
   60WAT      O  390   3.960   3.997   0.272  0.1908  0.0421 -0.4517
   60WAT     H1  391   3.976   3.937   0.345 -1.7700 -0.0171 -0.0154
   60WAT     H2  392   4.037   4.055   0.271  1.0471 -1.0217  0.5616
   61WAT      O  393   2.728   2.274   0.065  0.4960  0.0366  0.3963
   61WAT     H1  394   2.667   2.323   0.120 -1.3857 -1.5987 -0.1344
   61WAT     H2  395   2.674   2.209   0.020  2.3731 -0.3816 -1.4254
   62WAT      O  396   3.000   0.134   4.482 -1.3799  0.2692  0.2956
   62WAT     H1  397   3.019   0.079   4.559 -0.9344  0.9072  0.6534
   62WAT     H2  398   3.019   0.223   4.512 -0.1728  0.4365 -0.8727
   63WAT      O  399   2.238   2.981   0.876 -0.4829 -0.2432 -0.4293
   63WAT     H1  400   2.325   2.970   0.912 -1.1352 -1.0007  0.9964
   63WAT     H2  401   2.182   2.998   0.952 -1.2792  2.4208 -1.4834
   64WAT      O  402   1.899   3.990   4.933 -0.4841  0.0708  0.4678
   64WAT     H1  403   1.962   4.045   4.980 -0.3273  0.4015 -0.1163
   64WAT     H2  404   1.864   3.931   4.999  1.2997 -0.9185  0.5651
   65WAT      O  405   0.553   0.418   2.797 -0.3923  0.3646 -0.1251
   65WAT     H1  406   0.544   0.490   2.858  0.9797 -0.3974  1.0226
   65WAT     H2  407   0.504   0.346   2.837  3.3640 -1.2568  2.0300
   66WAT      O  408   1.950   2.638   1.153  0.3680  0.2112  0.3703
   66WAT     H1  409   1.927   2.560   1.101 -1.6696  0.6046  0.5797
   66WAT     H2  410   2.036   2.663   1.122  0.7984 -1.7472 -0.1663
   67WAT      O  411   2.497   4.840   0.344 -0.0719 -0.2436 -0.2556
   67WAT     H1  412   2.588   4.861   0.323 -0.4222  0.6554 -0.9464
   67WAT     H2  413   2.455   4.828   0.259 -0.6638 -0.3788  0.0541
   68WAT      O  414   2.752   4.881   0.242 -0.0554  0.0079 -0.3067
   68WAT     H1  415   2.717   4.863   0.155  0.1739  1.9462 -0.8331
   68WAT     H2  416   2.845   4.895   0.228  0.3902 -1.7363  0.5981
   69WAT      O  417   4.348   2.554   0.724  0.2903 -0.2070  0.5618
   69WAT     H1  418   4.255   2.533   0.735 -0.3824  1.3464 -1.4962
   69WAT     H2  419   4.379   2.572   0.813 -1.4473 -0.4845  1.2597
   70WAT      O  420   1.260   2.311   2.197  0.1387 -0.3502  0.1961
   70WAT     H1  421   1.266   2.286   2.105  0.4457 -1.6841  0.5477
   70WAT     H2  422   1.281   2.231   2.245 -1.7653 -0.1756  1.4493
   71WAT      O  423   2.217   2.707   0.203 -0.5751 -0.0669  0.1151
   71WAT     H1  424   2.242   2.616   0.184  0.2008  0.1747 -0.0361
   71WAT     H2  425   2.215   2.749   0.117 -3.2235 -0.4811 -0.1002
   72WAT      O  426   1.826   3.776   0.237 -0.2328  0.4177 -0.0575
   72WAT     H1  427   1.778   3.701   0.200 -1.1802  0.6169  0.7166
   72WAT     H2  428   1.915   3.742   0.252  0.3159  0.4538 -2.8164
   73WAT      O  429   4.247   0.714   2.628 -0.1981 -0.1655 -0.0347
   73WAT     H1  430   4.288   0.632   2.655 -0.6601 -0.6582 -0.7795
   73WAT     H2  431   4.309   0.782   2.655  0.6949 -0.8367 -0.3571
   74WAT      O  432   4.196   4.089   1.019  0.3406  0.3116 -0.1515
   74WAT     H1  433   4.138   4.061   0.948 -0.2101 -2.2765  1.2076
   74WAT     H2  434   4.267   4.136   0.975  0.4121 -1.8088 -2.5156
   75WAT      O  435   0.555   1.070   4.071  0.0722  0.2684 -0.2750
   75WAT     H1  436   0.630   1.020   4.103  0.8154  0.4486 -1.6495
   75WAT     H2  437   0.515   1.013   4.005 -1.3257 -0.0349  0.7843
   76WAT      O  438   4.156   0.441   4.410  0.3710 -0.3253  0.0729
   76WAT     H1  439   4.163   0.403   4.497  0.1324  0.1356  0.2960
   76WAT     H2  440   4.092   0.386   4.365  0.2945 -0.4034  0.2768
   77WAT      O  441   3.197   1.282   0.810  0.0183 -0.3035 -0.1883
   77WAT     H1  442   3.137   1.332   0.755 -0.7854  0.1686  1.0573
   77WAT     H2  443   3.170   1.191   0.797  0.0298 -0.2258 -0.7885
   78WAT      O  444   2.962   0.543   4.170  0.1984  0.4915 -0.5515
   78WAT     H1  445   2.978   0.468   4.114  0.8229  0.3456 -0.1859
   78WAT     H2  446   2.879   0.523   4.214  0.1700  0.1892 -0.7414
   79WAT      O  447   2.618   5.025   1.189  0.1452 -0.4958  0.0908
   79WAT     H1  448   2.695   4.971   1.172  0.2385 -0.5444  0.6490
   79WAT     H2  449   2.546   4.978   1.148 -0.1058 -2.0476  2.1656
   80WAT      O  450   4.344   2.261   1.477  0.3801  0.5556 -0.4028
   80WAT     H1  451   4.389   2.191   1.428  0.7293 -0.4794  1.3178
   80WAT     H2  452   4.386   2.341   1.447  1.3977 -0.1453 -0.9256
   81WAT      O  453   0.453   2.577   2.256 -0.6178 -0.2547 -0.4901
   81WAT     H1  454   0.502   2.659   2.263 -1.2980  0.0233  1.4349
   81WAT     H2  455   0.391   2.592   2.184  0.3405  0.3026 -1.2290
   82WAT      O  456   1.628   1.188   0.900 -0.4143  0.0710  0.3565
   82WAT     H1  457   1.646   1.271   0.944 -1.1380  1.1616 -1.3235
   82WAT     H2  458   1.709   1.167   0.854  0.3508 -1.0819  2.1375
   83WAT      O  459   0.644   1.783   4.154 -0.2027 -0.1472  0.1292
   83WAT     H1  460   0.612   1.871   4.174 -0.7259 -0.3235  0.0942
   83WAT     H2  461   0.678   1.749   4.237  0.0591  0.1106  0.1281
   84WAT      O  462   4.038   0.248   1.752 -0.1735 -0.2221 -0.5971
   84WAT     H1  463   4.016   0.249   1.845 -3.5209  1.8285 -1.2285
   84WAT     H2  464   4.090   0.327   1.739 -1.1648  0.4339 -0.6913
   85WAT      O  465   3.420   4.861   2.676  0.3331 -0.3760  0.8174
   85WAT     H1  466   3.506   4.855   2.717  0.4317  1.2016  0.9122
   85WAT     H2  467   3.362   4.888   2.747  0.0049 -0.1842  0.4776
   86WAT      O  468   0.838   1.079   0.295 -0.3836 -0.8635 -0.3413
   86WAT     H1  469   0.870   1.035   0.216  0.8581 -1.0857  0.2725
   86WAT     H2  470   0.772   1.140   0.262  1.6348  0.6465 -1.8456
   87WAT      O  471   3.866   2.587   2.407  0.9345  0.3072 -0.0673
   87WAT     H1  472   3.889   2.553   2.493 -0.8989 -1.5768 -0.2526
   87WAT     H2  473   3.789   2.537   2.380  0.5235  1.8889 -2.1600
   88WAT      O  474   0.876   0.795   4.344 -0.5168 -0.2326 -0.0011
   88WAT     H1  475   0.963   0.828   4.365 -0.0683 -0.3597 -1.5522
   88WAT     H2  476   0.825   0.811   4.424  1.1881 -1.1917  1.3630
   89WAT      O  477  -0.023   0.350   1.635 -0.3880 -0.2326  0.1767
   89WAT     H1  478   0.063   0.314   1.615 -1.0171 -1.5242 -0.3832
   89WAT     H2  479  -0.038   0.415   1.566  0.2860  0.2729  0.5015
   90WAT      O  480   1.844   0.072   5.074  0.1084  0.5338  0.1958
   90WAT     H1  481   1.862   0.072   4.980  0.6681  0.0332  0.2962
   90WAT     H2  482   1.764   0.124   5.083  0.2503  0.8887 -0.5162
   91WAT      O  483   2.736   4.601   4.807  0.8521 -0.1746  0.5695
   91WAT     H1  484   2.676   4.591   4.733  0.7163 -0.0966  0.6682
   91WAT     H2  485   2.821   4.620   4.767  0.8980 -0.6737  0.4125
   92WAT      O  486   4.380   2.062   3.870  0.0923 -0.0061  0.5256
   92WAT     H1  487   4.388   2.088   3.778 -4.5428  0.4936 -0.0016
   92WAT     H2  488   4.385   1.966   3.868  0.7640  0.0344 -0.1186
   93WAT      O  489   0.680   0.817   2.609  0.1018  0.1187 -0.0809
   93WAT     H1  490   0.662   0.834   2.516  1.2359  1.4473 -0.0855
   93WAT     H2  491   0.616   0.750   2.634  0.5283 -1.1462 -2.1259
   94WAT      O  492   2.373   0.040   3.300  0.1849  0.0453  0.2579
   94WAT     H1  493   2.458   0.027   3.257  0.2558 -2.2709  0.9701
   94WAT     H2  494   2.382   0.124   3.345  2.2548 -0.3292  0.6464
   95WAT      O  495   3.623   3.753   1.491 -0.8360 -0.7402 -0.3388
   95WAT     H1  496   3.660   3.668   1.467  0.1469 -0.3552 -0.2404
   95WAT     H2  497   3.650   3.812   1.421  0.8755  0.0910  0.9486
   96WAT      O  498   0.364   4.893   1.804  0.3922  0.2545  0.4220
   96WAT     H1  499   0.448   4.931   1.779  0.7261  0.2752  1.5222
   96WAT     H2  500   0.386   4.820   1.861 -0.3410  0.3488  0.8428
   97WAT      O  501   3.839   3.590   2.429  0.0467  0.0427 -0.2049
   97WAT     H1  502   3.877   3.504   2.409 -0.7434 -0.0875 -1.2285
   97WAT     H2  503   3.896   3.626   2.497  0.6635 -1.0953 -0.0899
   98WAT      O  504   3.533   3.684   2.979  0.5403  0.9695 -0.1744
   98WAT     H1  505   3.536   3.591   3.000 -1.6868  1.0860  0.8855
   98WAT     H2  506   3.625   3.712   2.982  1.0293 -0.6268  2.1577
   99WAT      O  507   0.499   1.061   2.494 -0.5121 -0.2121 -0.4478
   99WAT     H1  508   0.552   1.034   2.419  0.9475  1.0221  0.0891
   99WAT     H2  509   0.559   1.057   2.568 -0.9749  1.7249  0.1027
  100WAT      O  510   3.457   1.486   4.665 -0.3100 -0.2838  0.0153
  100WAT     H1  511   3.386   1.470   4.603 -0.6047 -3.0243  0.9480
  100WAT     H2  512   3.422   1.459   4.749  1.3118 -0.1388  0.7784
  101WAT      O  513   3.533   3.719   4.547  0.1267  0.4672  0.1207
  101WAT     H1  514   3.516   3.807   4.583  1.2638  1.2443 -1.1444
  101WAT     H2  515   3.602   3.683   4.603  0.0850  0.6294  0.2775
  102WAT      O  516   3.509   3.849   2.471  0.7076 -0.1585 -0.1103
  102WAT     H1  517   3.563   3.904   2.414  0.1914  0.9806  0.4697
  102WAT     H2  518   3.454   3.911   2.519  0.1822 -1.1844  0.6488
  103WAT      O  519   3.315   0.545   0.799 -0.3591  0.6570 -0.0413
  103WAT     H1  520   3.396   0.559   0.849 -1.1530  3.5624  0.5801
  103WAT     H2  521   3.330   0.462   0.753  1.8283 -0.3272  2.2273
  104WAT      O  522   4.115   3.997   2.375 -0.2758  0.4677 -0.0534
  104WAT     H1  523   4.188   4.031   2.323 -0.8281  2.8885  0.6294
  104WAT     H2  524   4.128   4.035   2.462 -2.4755  1.2310 -0.0032
  105WAT      O  525   0.008   0.617   2.223  0.2248 -0.5093  0.1505
  105WAT     H1  526   0.056   0.648   2.146 -0.0126 -1.5029 -0.4073
  105WAT     H2  527   0.027   0.524   2.228 -1.3854 -0.8740  0.1030
  106WAT      O  528   4.259   3.900   4.063  0.3772  0.1518 -0.5727
  106WAT     H1  529   4.223   3.862   4.144  0.1537  0.1964 -0.6493
  106WAT     H2  530   4.216   3.985   4.056  0.7745  0.3596 -0.4738
  107WAT      O  531   4.086   1.407   4.611 -0.2781 -0.1666  0.1135
  107WAT     H1  532   4.075   1.335   4.674 -1.0899  0.3801  0.6070
  107WAT     H2  533   3.997   1.429   4.584  0.0507 -0.2576 -1.0894
  108WAT      O  534   3.188   2.373   4.751 -0.1263  0.4938 -0.6781
  108WAT     H1  535   3.172   2.363   4.657  0.1134  0.3332 -0.7064
  108WAT     H2  536   3.249   2.447   4.757  1.5222 -0.7937 -0.8321
  109WAT      O  537   3.141   0.459   5.197 -1.1202 -0.5115 -0.9171
  109WAT     H1  538   3.163   0.543   5.157  0.7644 -0.3559  0.3106
  109WAT     H2  539   3.053   0.471   5.233 -1.6439  0.2874 -2.3991
  110WAT      O  540   3.398   3.193   2.952 -0.2965  0.6666  0.5871
  110WAT     H1  541   3.330   3.244   2.908 -0.6688 -0.2319  0.1003
  110WAT     H2  542   3.350   3.130   3.006  0.1444  1.7495  2.3393
  111WAT      O  543   0.057   0.229   1.325 -0.2527 -0.2010 -0.2970
  111WAT     H1  544  -0.011   0.296   1.320  0.3291  0.3376 -1.5251
  111WAT     H2  545   0.139   0.279   1.325  0.1690 -0.8496  0.7808
  112WAT      O  546   2.124   1.628   3.496  0.5490  0.3400  0.0979
  112WAT     H1  547   2.083   1.592   3.417 -0.2605 -3.0592  1.8909
  112WAT     H2  548   2.054   1.678   3.539 -0.3246 -1.3334  0.6949
  113WAT      O  549   0.672   3.272   2.069 -0.4378  0.4548  0.3760
  113WAT     H1  550   0.716   3.327   2.004 -4.0989  1.5586 -1.4522
  113WAT     H2  551   0.697   3.311   2.153  2.8663  0.1973 -0.3338
  114WAT      O  552   3.603   4.053   0.987 -0.7571 -0.3994  0.1657
  114WAT     H1  553   3.535   4.089   0.931 -1.4148  0.7240  1.6097
  114WAT     H2  554   3.684   4.092   0.955 -0.8341 -1.3430 -1.2384
  115WAT      O  555   0.923   4.575   3.921 -0.3276  0.2858 -0.0470
  115WAT     H1  556   0.917   4.560   3.827 -1.5849 -0.2894  0.1067
  115WAT     H2  557   0.846   4.531   3.958  0.7852 -0.5689  1.3749
  116WAT      O  558   3.109   0.168   2.084 -0.2286 -0.3116  0.2318
  116WAT     H1  559   3.124   0.073   2.080  1.0765 -0.0799 -1.9642
  116WAT     H2  560   3.041   0.184   2.019 -1.2164  0.1741  1.3483
  117WAT      O  561   3.815   1.511   1.343  0.1741  0.3926  0.4701
  117WAT     H1  562   3.854   1.503   1.256  0.4958  3.3743  0.2351
  117WAT     H2  563   3.728   1.550   1.327 -0.3060 -0.2595  1.4096
  118WAT      O  564   3.807   0.523   5.063  0.3821 -0.0844  0.2764
  118WAT     H1  565   3.864   0.448   5.076 -0.2403 -0.3596  1.6628
  118WAT     H2  566   3.825   0.553   4.974  0.0984 -2.3391 -0.5967
  119WAT      O  567   3.535   4.889   1.028  0.3099 -0.4235 -0.3869
  119WAT     H1  568   3.533   4.829   0.955  2.6965 -0.3375 -0.6129
  119WAT     H2  569   3.623   4.879   1.065 -0.2290  0.8013  1.3696
  120WAT      O  570   1.571   2.477   3.146  0.3835 -0.4437  0.5025
  120WAT     H1  571   1.605   2.562   3.118 -1.3123 -0.2294 -1.1392
  120WAT     H2  572   1.531   2.494   3.231  0.6156  0.2481  0.4810
  121WAT      O  573   1.821   0.627   0.355  0.0204 -0.1777  0.2370
  121WAT     H1  574   1.849   0.637   0.264 -1.3036  0.5234 -0.1236
  121WAT     H2  575   1.839   0.535   0.375 -1.3651 -0.8602 -1.3744
  122WAT      O  576   0.270   0.413   2.529  0.4032  0.0784  0.2233
  122WAT     H1  577   0.225   0.433   2.611 -1.4658  1.5445 -1.0572
  122WAT     H2  578   0.207   0.361   2.478  0.5090  1.2447 -1.1890
  123WAT      O  579   2.609   3.917   1.758 -0.1796 -0.3263 -0.2423
  123WAT     H1  580   2.597   4.001   1.803  0.8259 -0.7373  0.8554
  123WAT     H2  581   2.703   3.910   1.744 -0.1719 -1.5461  0.2540
  124WAT      O  582   1.487   1.122   4.148  0.2199 -0.1991 -0.4009
  124WAT     H1  583   1.420   1.054   4.155  0.3699 -0.2872  0.2140
  124WAT     H2  584   1.439   1.204   4.159  0.4220 -0.3170  1.7960
  125WAT      O  585   3.983   0.084   3.053  0.1521 -0.1317 -0.1107
  125WAT     H1  586   3.969   0.082   3.147  2.6599 -0.2069  0.3406
  125WAT     H2  587   4.004   0.176   3.034  2.1068 -0.5265 -0.1006
  126WAT      O  588   1.653   3.365   3.961  0.4179 -0.1369  0.0286
  126WAT     H1  589   1.592   3.303   4.001  1.2024 -0.4928  0.6958
  126WAT     H2  590   1.616   3.383   3.874 -0.3776 -0.7051  0.2434
  127WAT      O  591   3.261   4.317   3.380  0.2923  0.5050 -0.0502
  127WAT     H1  592   3.179   4.361   3.354  0.4940  0.5498 -0.6389
  127WAT     H2  593   3.308   4.306   3.297  0.8250  0.3628  0.2720
  128WAT      O  594   3.155   2.467   5.059 -0.5294  0.1202 -0.1780
  128WAT     H1  595   3.157   2.505   4.970 -1.4049  0.2544 -0.1551
  128WAT     H2  596   3.234   2.414   5.064 -0.0895  0.6887 -0.7831
  129WAT      O  597   4.042   1.710   3.748 -0.2728  0.1248 -0.7210
  129WAT     H1  598   4.006   1.798   3.760 -0.9194 -0.3132  0.7631
  129WAT     H2  599   3.965   1.653   3.744  0.0506 -0.2542 -3.3149
  130WAT      O  600   1.198   1.245   1.248  0.2588  0.0180  0.3505
  130WAT     H1  601   1.152   1.162   1.231 -0.5377  0.6516 -0.6742
  130WAT     H2  602   1.128   1.310   1.253  0.9100  0.6908  0.8206
  131WAT      O  603   1.678   1.475   3.970  0.0593  0.8658  0.2880
  131WAT     H1  604   1.729   1.399   4.000 -0.9013  1.0237  2.4968
  131WAT     H2  605   1.742   1.546   3.965  0.9208  0.0540 -1.5661
  132WAT      O  606   0.015   4.850   4.741 -0.3325  0.1769  0.7607
  132WAT     H1  607   0.070   4.928   4.750 -0.8343  0.3109  3.1687
  132WAT     H2  608  -0.013   4.830   4.830 -2.2569 -1.3031 -0.1169
  133WAT      O  609   1.913   2.151   2.391  0.1048  0.3169 -0.4520
  133WAT     H1  610   1.883   2.106   2.311  0.1815  0.1946 -0.4124
  133WAT     H2  611   1.835   2.154   2.447 -0.1496  1.0839 -0.8373
  134WAT      O  612   1.590   2.224   4.435 -0.1835  0.6748 -0.7850
  134WAT     H1  613   1.644   2.223   4.355  0.5637  0.7992 -0.2928
  134WAT     H2  614   1.574   2.317   4.452 -0.9317  0.6235 -1.1703
  135WAT      O  615   3.279   3.006   0.379  0.0297  0.3816  0.1461
  135WAT     H1  616   3.323   3.043   0.302 -1.1177  0.0521 -0.7002
  135WAT     H2  617   3.258   3.082   0.433 -2.9395  1.1806 -1.9095
  136WAT      O  618   1.369   0.937   1.590  0.1820  0.4304  0.4210
  136WAT     H1  619   1.326   0.969   1.511  0.8689  0.6036  0.1055
  136WAT     H2  620   1.463   0.944   1.570  0.4029  1.9321  1.8219
  137WAT      O  621   0.422   1.598   4.267 -0.2171  0.7955  0.0929
  137WAT     H1  622   0.465   1.542   4.332 -3.6664 -1.3531  0.7922
  137WAT     H2  623   0.474   1.587   4.188  0.7317 -1.3556  0.9406
  138WAT      O  624   3.615   3.065   4.267  0.3961 -0.3144 -0.2924
  138WAT     H1  625   3.582   3.154   4.270  2.3597  0.4702 -0.3186
  138WAT     H2  626   3.661   3.053   4.351  0.5136 -1.1466 -0.4610
  139WAT      O  627   1.489   1.093   3.575  0.2748 -0.0769 -0.2211
  139WAT     H1  628   1.544   1.068   3.649 -0.9807 -1.6619  0.2294
  139WAT     H2  629   1.414   1.138   3.614  0.8826  1.4788 -0.7786
  140WAT      O  630   0.595   3.485   4.530 -0.4944  0.4544  0.1961
  140WAT     H1  631   0.523   3.498   4.469  0.1971  0.5027 -0.6416
  140WAT     H2  632   0.652   3.421   4.487  0.8092  1.6657  0.0321
  141WAT      O  633   1.290   0.353   3.361  0.2630  0.5629  0.4359
  141WAT     H1  634   1.324   0.364   3.450  0.3360 -0.1455  0.5045
  141WAT     H2  635   1.354   0.296   3.318  0.1285  0.7486 -0.0159
  142WAT      O  636   3.533   3.850   0.293 -0.2463  0.4229 -0.0220
  142WAT     H1  637   3.455   3.906   0.295  0.6254  1.6504  0.6570
  142WAT     H2  638   3.589   3.889   0.226 -0.3571 -0.7113 -0.8228
  143WAT      O  639   2.128   3.894   2.205 -0.3737 -0.3292  0.7594
  143WAT     H1  640   2.202   3.850   2.162  2.1602  3.2322  1.0838
  143WAT     H2  641   2.059   3.893   2.139  1.9239  1.1514 -1.9125
  144WAT      O  642   3.801   2.179   3.700  0.5072  0.3239 -0.4206
  144WAT     H1  643   3.765   2.206   3.784  1.2541 -0.7548  0.2836
  144WAT     H2  644   3.762   2.238   3.636 -0.0776  1.1640  0.6841
  145WAT      O  645   2.433   1.923   1.493  0.1600  0.5659  0.2131
  145WAT     H1  646   2.506   1.864   1.513  0.2652  0.7375  0.3450
  145WAT     H2  647   2.399   1.892   1.410  2.2272  2.2270 -1.3819
  146WAT      O  648   1.553   4.026   2.114 -0.1373  0.4517  0.8090
  146WAT     H1  649   1.478   4.053   2.167  1.4415  0.1438  3.3992
  146WAT     H2  650   1.609   4.103   2.112 -0.7656  0.9100 -1.7181
  147WAT      O  651   3.591   3.003   3.150 -0.7194  0.2386  0.6413
  147WAT     H1  652   3.567   3.092   3.176 -0.9362  0.4864 -0.3628
  147WAT     H2  653   3.647   3.015   3.073 -1.2444 -0.4999  0.1279
  148WAT      O  654   4.116   4.236   2.095 -0.0083  0.5193 -0.1452
  148WAT     H1  655   4.083   4.326   2.093  0.1351  0.7642  3.3502
  148WAT     H2  656   4.200   4.242   2.141  0.7674 -1.2650 -1.1987
  149WAT      O  657   0.131   2.904   3.875 -0.2424 -0.6088  0.2164
  149WAT     H1  658   0.159   2.991   3.902  0.3089 -0.8332  0.3919
  149WAT     H2  659   0.110   2.913   3.782 -1.1532 -0.0699  0.4669
  150WAT      O  660   0.020   2.380   4.872  0.3892 -0.0944 -0.4520
  150WAT     H1  661   0.032   2.339   4.957 -2.0982  0.8386  0.4390
  150WAT     H2  662  -0.037   2.321   4.824 -1.3768  1.1244  0.0217
  151WAT      O  663   3.295   0.264   4.023  0.0108  0.3268  0.1614
  151WAT     H1  664   3.253   0.340   3.983 -1.3196 -0.6562 -0.4098
  151WAT     H2  665   3.227   0.227   4.080  0.3456 -0.8965 -0.2090
  152WAT      O  666   1.616   0.677   0.062 -0.3703 -0.0568 -0.1559
  152WAT     H1  667   1.540   0.664   0.005 -0.8115 -0.3454  0.4863
  152WAT     H2  668   1.625   0.595   0.110  0.9909 -0.4089 -0.9640
  153WAT      O  669   0.261   3.905   1.530 -0.6444 -0.4211  0.0482
  153WAT     H1  670   0.287   3.813   1.527 -0.1381 -0.2609 -0.7175
  153WAT     H2  671   0.292   3.942   1.447 -2.2574  0.0588 -0.3996
  154WAT      O  672   3.424   0.568   3.420  0.1367 -0.4854  0.1771
  154WAT     H1  673   3.497   0.564   3.482  0.5268 -0.0516 -0.2414
  154WAT     H2  674   3.464   0.597   3.338 -0.4413 -0.6464 -0.1662
  155WAT      O  675   4.150   0.274   1.302  0.4156  0.4611 -0.4390
  155WAT     H1  676   4.178   0.225   1.225  0.8209  2.2047 -1.4700
  155WAT     H2  677   4.194   0.359   1.293 -0.5524  1.1630  1.0493
  156WAT      O  678   1.603   0.901   4.367 -0.0589 -0.5202 -0.0728
  156WAT     H1  679   1.535   0.963   4.342 -2.4870 -2.1731  1.8769
  156WAT     H2  680   1.602   0.902   4.463  2.1030 -1.2297  0.0091
  157WAT      O  681   0.663   3.281   4.149 -0.0469  0.6570 -0.2826
  157WAT     H1  682   0.584   3.272   4.203  0.4184  0.4020  0.3600
  157WAT     H2  683   0.631   3.269   4.059 -0.6755  0.1606 -0.0005
  158WAT      O  684   0.275   4.662   3.609  0.2968  0.4557  0.8682
  158WAT     H1  685   0.233   4.737   3.567  0.4060 -0.2935 -0.6561
  158WAT     H2  686   0.366   4.691   3.623  0.4094  0.5429  0.0465
  159WAT      O  687   3.181   3.713   3.670  0.0163  0.8237  0.3753
  159WAT     H1  688   3.130   3.732   3.749 -0.3418 -1.7548  0.8568
  159WAT     H2  689   3.116   3.707   3.600 -0.1402 -0.4188  0.6014
  160WAT      O  690   2.997   3.271   4.026 -0.1957 -0.3916 -0.1946
  160WAT     H1  691   2.953   3.187   4.039 -3.0366  0.7800 -1.3475
  160WAT     H2  692   3.045   3.260   3.944  0.2113 -1.1652  0.1399
  161WAT      O  693   0.338   3.861   3.870  0.1232  0.0071  0.1838
  161WAT     H1  694   0.348   3.791   3.805 -3.7121 -0.0113 -0.6060
  161WAT     H2  695   0.373   3.938   3.827 -0.9203 -0.3270 -1.3830
  162WAT      O  696   0.710   2.526   1.909 -0.3999 -0.2866  0.6069
  162WAT     H1  697   0.646   2.552   1.842 -0.4682  0.0403  0.7976
  162WAT     H2  698   0.727   2.606   1.958 -0.5684 -0.5870  1.1669
  163WAT      O  699   1.770   4.910   2.738 -0.4540  0.0947 -0.0688
  163WAT     H1  700   1.825   4.988   2.728  2.1861 -1.4607  1.2140
  163WAT     H2  701   1.748   4.885   2.649  0.5036  1.1086 -0.6156
  164WAT      O  702   1.881   4.781   1.237  0.0845  0.0266 -0.1205
  164WAT     H1  703   1.796   4.748   1.267 -0.8973  1.6685 -0.9808
  164WAT     H2  704   1.917   4.710   1.184 -1.2161 -0.3252 -0.5645
  165WAT      O  705   3.705   4.284   1.910 -0.3660 -0.2013  0.4097
  165WAT     H1  706   3.618   4.271   1.871  0.1445  0.4950 -1.0479
  165WAT     H2  707   3.721   4.378   1.903  0.8085 -0.4111 -0.0750
  166WAT      O  708   1.879   4.527   4.166  0.1930  0.1637 -0.1544
  166WAT     H1  709   1.903   4.435   4.168  1.4336  0.4660  0.9637
  166WAT     H2  710   1.959   4.572   4.140 -0.7460  0.8610 -1.9752
  167WAT      O  711   1.818   0.612   1.014 -0.0403  0.7201  0.4000
  167WAT     H1  712   1.823   0.605   0.919 -0.4203  2.5997  0.2029
  167WAT     H2  713   1.907   0.594   1.044  0.4062  1.4386 -0.4344
  168WAT      O  714   1.438  -0.018   1.369 -0.3570  0.4536  0.3147
  168WAT     H1  715   1.381  -0.001   1.444  0.3234 -1.1914  1.2442
  168WAT     H2  716   1.514   0.038   1.383  0.1723 -0.5037  1.3430
  169WAT      O  717   2.858   4.278   4.319  0.0679  0.7278  0.0092
  169WAT     H1  718   2.788   4.340   4.298  0.7900  1.2809 -0.8286
  169WAT     H2  719   2.891   4.306   4.404  0.8167  1.9028 -0.6524
  170WAT      O  720   3.366   3.106   3.775  0.7993 -0.4825 -0.3145
  170WAT     H1  721   3.420   3.176   3.811  0.6417 -1.6662  2.4745
  170WAT     H2  722   3.276   3.134   3.790  0.7361 -1.4649  1.3304
  171WAT      O  723   1.642   4.639   1.293  0.2272  0.8865  0.6047
  171WAT     H1  724   1.563   4.692   1.304 -0.7923  0.2589 -2.7813
  171WAT     H2  725   1.620   4.555   1.333  0.1930  1.4859  1.9222
  172WAT      O  726   2.952   3.575   4.896 -0.0923  0.3316  0.4769
  172WAT     H1  727   2.958   3.647   4.833  2.3244 -1.2383 -1.2782
  172WAT     H2  728   2.860   3.571   4.920 -0.3912  3.6584  0.3110
  173WAT      O  729   1.446   0.927  -0.012  0.3748 -0.2409  0.3863
  173WAT     H1  730   1.356   0.895  -0.013  0.2210  0.1301  1.1900
  173WAT     H2  731   1.481   0.899   0.073  0.0453  2.1260  1.3998
  174WAT      O  732   0.993   1.676   1.082 -0.5478  0.0043 -0.1346
  174WAT     H1  733   0.997   1.709   1.171  1.1061 -0.6736  0.0896
  174WAT     H2  734   1.079   1.696   1.045 -0.9818 -0.2912 -1.3685
  175WAT      O  735   0.448   0.604   3.803  0.1727 -0.1596 -0.4515
  175WAT     H1  736   0.448   0.689   3.847  0.6181 -1.1386  1.5783
  175WAT     H2  737   0.445   0.540   3.875  3.2237 -1.9311 -1.6991
  176WAT      O  738   0.099   4.774   5.209 -0.1799 -0.4017 -0.0613
  176WAT     H1  739   0.051   4.699   5.174 -1.1374 -0.8975  2.1648
  176WAT     H2  740   0.032   4.840   5.227  0.3954  0.1865 -0.0102
  177WAT      O  741   0.625   2.231   4.061  0.1323 -0.8965 -0.1209
  177WAT     H1  742   0.605   2.150   4.014 -1.9470  0.9005 -2.6039
  177WAT     H2  743   0.710   2.258   4.025  0.2934 -1.3704 -0.1132
  178WAT      O  744   2.782   0.445   0.212  0.0218  0.5432  0.1507
  178WAT     H1  745   2.718   0.377   0.233 -0.1987  1.0206  1.0823
  178WAT     H2  746   2.735   0.505   0.154  0.8955 -1.2382 -2.5801
  179WAT      O  747   2.492   1.086   0.987 -0.4117 -0.9409 -0.4251
  179WAT     H1  748   2.460   1.176   0.993 -1.0730 -1.2493  1.1689
  179WAT     H2  749   2.424   1.039   0.938 -0.6569 -0.8321 -0.1889
  180WAT      O  750   0.059   2.085   4.193 -0.1352  0.0479 -0.2238
  180WAT     H1  751   0.076   2.044   4.108  0.6177  0.7684 -0.4400
  180WAT     H2  752   0.115   2.163   4.193 -1.0145  0.7009  0.4535
  181WAT      O  753   1.486   0.468   3.106 -0.3380  0.0326  0.3563
  181WAT     H1  754   1.480   0.531   3.177 -1.3433 -0.5972  0.8456
  181WAT     H2  755   1.559   0.500   3.053 -1.2913  2.0447  0.1438
  182WAT      O  756   3.035   3.731   5.143  0.2444  0.0908  0.0655
  182WAT     H1  757   3.000   3.807   5.096  3.5824  1.0680 -1.1239
  182WAT     H2  758   3.063   3.671   5.074 -0.4177 -1.3142  0.9732
  183WAT      O  759   0.665   0.379   1.692  0.1497 -0.4012  0.1855
  183WAT     H1  760   0.635   0.297   1.652  0.0368 -0.2776  0.0218
  183WAT     H2  761   0.756   0.361   1.715  0.7924  0.1286 -1.7601
  184WAT      O  762   2.910   1.464   0.670 -0.1368 -0.6042 -0.6185
  184WAT     H1  763   2.976   1.525   0.640 -0.5542 -0.3031 -0.9284
  184WAT     H2  764   2.930   1.382   0.624  0.8429 -0.9156  0.3228
  185WAT      O  765   2.911   4.092   4.766  0.2780  0.2419 -0.2533
  185WAT     H1  766   2.999   4.128   4.779  0.5731 -1.1984  2.3082
  185WAT     H2  767   2.853   4.167   4.772  1.1860  0.9262  0.1379
  186WAT      O  768  -0.013   3.101   4.711 -0.5747  0.5011  0.3469
  186WAT     H1  769   0.002   3.014   4.747 -0.3001 -0.4440 -1.8827
  186WAT     H2  770   0.075   3.133   4.688 -0.8708 -0.4661 -2.6509
  187WAT      O  771   4.088   5.100   2.218 -0.5538 -0.3298  0.1713
  187WAT     H1  772   4.061   5.008   2.218 -0.7316 -0.3192  2.0972
  187WAT     H2  773   4.177   5.099   2.183 -0.8737 -1.1026 -0.6665
  188WAT      O  774   4.107   2.618   4.946 -0.3285  0.0565  0.3674
  188WAT     H1  775   4.052   2.637   4.870 -1.4083  0.6193  1.2533
  188WAT     H2  776   4.150   2.701   4.965 -0.0417 -0.0889  0.3465
  189WAT      O  777   3.406   2.036   5.115 -0.0610 -0.2246  0.5213
  189WAT     H1  778   3.340   1.986   5.163 -0.8072 -1.7422 -1.9157
  189WAT     H2  779   3.489   1.991   5.133 -0.4698 -1.3204 -0.2569
  190WAT      O  780   2.698   0.340   2.409  0.4202  0.4848 -0.1629
  190WAT     H1  781   2.731   0.284   2.479 -1.6355 -0.7617 -0.1093
  190WAT     H2  782   2.768   0.340   2.344  0.7390 -1.6705  0.1025
  191WAT      O  783   3.749   4.238   2.820  0.2207 -0.1855  0.4665
  191WAT     H1  784   3.840   4.263   2.803 -0.0322  0.5128  0.0983
  191WAT     H2  785   3.698   4.314   2.792 -0.3743  0.1486  2.2828
  192WAT      O  786   0.973   4.934   0.954 -0.2975  0.6651  0.3636
  192WAT     H1  787   1.032   5.003   0.923 -0.7244  1.3373  1.0168
  192WAT     H2  788   1.023   4.853   0.943  0.8844  1.2510  1.2488
  193WAT      O  789   1.950   2.060   0.412  0.3559 -0.2524  0.0203
  193WAT     H1  790   1.937   1.967   0.433  1.3637 -1.2108 -3.0483
  193WAT     H2  791   1.871   2.085   0.364  0.7861  0.0144 -0.5537
  194WAT      O  792   2.595   4.266   0.913  0.3659 -0.1528  0.0415
  194WAT     H1  793   2.565   4.253   0.823  0.6207  0.3862 -0.1254
  194WAT     H2  794   2.539   4.336   0.947 -0.3510 -0.9842  0.6104
  195WAT      O  795   4.054   1.026   2.456  0.3407  0.2983  0.1779
  195WAT     H1  796   4.126   1.067   2.503  0.3141  1.8014 -1.0264
  195WAT     H2  797   4.092   0.947   2.418  0.9205  0.2346  0.8540
  196WAT      O  798   0.700   0.793   1.675 -0.3459  0.5180  0.0117
  196WAT     H1  799   0.733   0.722   1.621  4.5625  2.4039  0.0068
  196WAT     H2  800   0.675   0.861   1.612 -0.1496  0.6384  0.0641
  197WAT      O  801   4.354   3.528   4.529 -0.1238 -0.5211  0.5112
  197WAT     H1  802   4.304   3.482   4.460 -0.2685  1.4164 -0.7566
  197WAT     H2  803   4.439   3.545   4.489 -0.4700  1.3158  0.4534
  198WAT      O  804   3.326   4.044   2.635 -0.4988  0.1405 -0.0487
  198WAT     H1  805   3.357   4.133   2.648 -1.1882  0.0947  2.2461
  198WAT     H2  806   3.379   3.991   2.694 -2.6011 -0.3977  1.4479
  199WAT      O  807   3.647   3.400   3.584 -0.1513 -1.2414 -0.4175
  199WAT     H1  808   3.738   3.421   3.606 -0.1473 -0.2127 -1.3557
  199WAT     H2  809   3.596   3.439   3.655 -0.1059  1.6679 -1.8291
  200WAT      O  810   0.066   2.464   3.550 -0.1754  0.4500  0.8009
  200WAT     H1  811   0.144   2.412   3.532 -0.3088  0.3783  0.4403
  200WAT     H2  812  -0.006   2.401   3.548 -0.3135  0.6168  0.5546
  201WAT      O  813   4.524   4.915   3.332  0.3328  0.4343 -0.1724
  201WAT     H1  814   4.533   5.005   3.363 -0.3217  1.1074 -1.8119
  201WAT     H2  815   4.464   4.874   3.395  1.1000  0.9474  0.9245
  202WAT      O  816   3.615   0.684   0.632  0.0896 -0.0674  0.6747
  202WAT     H1  817   3.704   0.718   0.628  0.4882 -1.1718 -1.4705
  202WAT     H2  818   3.612   0.632   0.712  1.2316  0.3334  0.9937
  203WAT      O  819   2.081   4.684   3.386  1.0246 -0.0027 -0.1709
  203WAT     H1  820   2.030   4.759   3.417 -0.5911 -0.5732 -1.3359
  203WAT     H2  821   2.172   4.716   3.385  0.3859  1.9280 -0.5780
  204WAT      O  822   2.990   1.352   4.427 -0.0755  0.3659 -0.4035
  204WAT     H1  823   2.941   1.404   4.491 -2.1500 -0.8437 -0.9392
  204WAT     H2  824   2.946   1.368   4.344  0.4898 -0.7086 -0.9347
  205WAT      O  825   4.213   3.694   2.047  0.1523  0.6496  0.0667
  205WAT     H1  826   4.220   3.785   2.075 -2.4188  0.2297  2.5306
  205WAT     H2  827   4.269   3.646   2.107  1.8399  0.5823 -1.5011
  206WAT      O  828   1.929   0.374   0.414  0.3984 -0.6041  0.4120
  206WAT     H1  829   1.954   0.325   0.492  1.9750  0.3406  0.5549
  206WAT     H2  830   1.953   0.317   0.341  0.5200 -0.7877  0.5947
  207WAT      O  831   3.855   4.047   1.819 -0.4340 -0.4436 -0.4826
  207WAT     H1  832   3.794   3.974   1.810  0.3597 -1.0997 -0.6834
  207WAT     H2  833   3.801   4.121   1.845 -1.0455 -1.4846  1.4107
  208WAT      O  834   2.562   0.927   2.265  0.1996 -0.3204 -0.2555
  208WAT     H1  835   2.576   1.004   2.209  0.5747  1.0570  1.6365
  208WAT     H2  836   2.623   0.938   2.337 -1.5320 -1.0410  1.4136
  209WAT      O  837   2.653   0.145   4.774 -0.1963 -0.1584  0.0044
  209WAT     H1  838   2.574   0.197   4.787  0.3501  0.5231  0.7505
  209WAT     H2  839   2.683   0.124   4.862 -0.4113 -1.8010 -0.2716
  210WAT      O  840   4.213   0.172   3.280 -0.0211  0.2178  0.0717
  210WAT     H1  841   4.235   0.149   3.370 -1.4081 -0.2939  0.3085
  210WAT     H2  842   4.177   0.261   3.286  2.4824  1.3465 -0.4120
  211WAT      O  843   3.396   2.115   0.812 -0.3257 -0.1150 -0.1509
  211WAT     H1  844   3.390   2.208   0.830 -2.4031 -0.4535  1.3636
  211WAT     H2  845   3.400   2.074   0.899 -0.4791 -1.4594 -0.7515
  212WAT      O  846   1.273   3.383   3.363 -0.7819  0.2390 -0.2376
  212WAT     H1  847   1.194   3.359   3.410  1.5018 -3.1515  2.3270
  212WAT     H2  848   1.315   3.448   3.420 -0.1480 -0.5395  0.2070
  213WAT      O  849   0.412   4.804   2.605  0.4190 -0.4723  0.0747
  213WAT     H1  850   0.451   4.740   2.665 -1.7554 -2.2121 -0.2364
  213WAT     H2  851   0.387   4.753   2.528 -3.1461  0.2164  0.5681
  214WAT      O  852   4.220   1.914   3.367  0.3559 -0.6630 -0.2274
  214WAT     H1  853   4.144   1.969   3.388 -0.5554 -1.1267 -2.0807
  214WAT     H2  854   4.231   1.858   3.444 -0.0026  0.6497  0.8328
  215WAT      O  855   2.771   0.673   3.582  0.5669 -0.3886 -0.2680
  215WAT     H1  856   2.772   0.665   3.677  0.2287  0.1351 -0.2141
  215WAT     H2  857   2.709   0.744   3.565  1.5766  0.3852 -0.8154
  216WAT      O  858   2.901   1.004   4.873  0.1243  0.0378  0.3173
  216WAT     H1  859   2.898   0.959   4.788  0.1365  0.6329 -0.0042
  216WAT     H2  860   2.910   0.933   4.937 -0.7320 -0.4873 -0.1109
  217WAT      O  861   0.523   3.014   2.051 -0.2456 -0.2503 -0.3083
  217WAT     H1  862   0.551   2.999   1.961 -1.2567 -0.8036 -0.5531
  217WAT     H2  863   0.571   3.091   2.079  0.3123 -0.2560 -1.2187
  218WAT      O  864   4.414   4.601   5.101 -0.8413 -0.3413 -0.1780
  218WAT     H1  865   4.400   4.531   5.037  0.6988 -0.8792  0.0284
  218WAT     H2  866   4.372   4.570   5.181 -0.0586 -1.1068 -0.0530
  219WAT      O  867   2.910   0.514   0.585 -0.3291  0.0360  0.2365
  219WAT     H1  868   3.005   0.509   0.596 -0.2388  0.0787 -0.5091
  219WAT     H2  869   2.875   0.493   0.672  0.3350 -1.0402  0.2572
  220WAT      O  870   3.805   2.526   0.304  0.3950  0.2535  0.1960
  220WAT     H1  871   3.851   2.443   0.295 -1.5812 -0.7351 -1.7308
  220WAT     H2  872   3.868   2.592   0.276  1.6838 -0.6652  0.8484
  221WAT      O  873   1.113   0.570   0.289  0.6795 -0.3348 -0.3079
  221WAT     H1  874   1.069   0.604   0.367 -0.6582 -2.0485 -0.2796
  221WAT     H2  875   1.045   0.569   0.222  1.7770  0.9759 -1.5123
  222WAT      O  876   0.585   1.048   2.786  0.1271 -0.0672  0.3875
  222WAT     H1  877   0.634   0.985   2.839 -0.3526  0.2541  1.2271
  222WAT     H2  878   0.616   1.134   2.817 -1.0672  0.1497  1.0583
  223WAT      O  879   2.968   4.125   1.942  0.0137  0.2709  0.1925
  223WAT     H1  880   3.064   4.132   1.939  0.0557  0.0924  0.8844
  223WAT     H2  881   2.937   4.199   1.892  0.4874  2.1351  2.4856
  224WAT      O  882   3.243   1.831   4.444 -0.1718 -0.6011  0.2105
  224WAT     H1  883   3.281   1.862   4.526 -0.0623 -1.4700  0.4943
  224WAT     H2  884   3.185   1.759   4.470 -0.2305 -0.8033 -0.4610
  225WAT      O  885   2.577   3.736   0.866  0.2295 -0.1615 -0.0622
  225WAT     H1  886   2.616   3.751   0.780 -2.0463 -0.9997 -1.3207
  225WAT     H2  887   2.486   3.763   0.857  0.0000  0.1099  2.2403
  226WAT      O  888   2.776   4.419   3.138  0.6292  0.0627  0.2576
  226WAT     H1  889   2.784   4.332   3.177 -1.7637 -1.1900 -1.8071
  226WAT     H2  890   2.860   4.433   3.094  1.2035 -0.9772  0.9586
  227WAT      O  891   0.245   4.033   0.125  0.1874  0.0240 -0.2013
  227WAT     H1  892   0.247   3.978   0.203 -0.7653 -2.4445 -1.7614
  227WAT     H2  893   0.152   4.057   0.115 -0.1050 -1.4641 -1.6077
  228WAT      O  894   0.087   2.289   2.900  0.0009  0.7872  0.1819
  228WAT     H1  895   0.139   2.229   2.954 -0.0934  0.8376  0.3317
  228WAT     H2  896   0.116   2.272   2.810 -0.0604  0.4852  0.2189
  229WAT      O  897   1.722   1.190   4.292 -0.3210  0.0600  0.4890
  229WAT     H1  898   1.680   1.249   4.354 -0.8990  2.1646 -1.7747
  229WAT     H2  899   1.650   1.146   4.247  0.0799 -0.7971  0.6477
  230WAT      O  900   1.736   4.592   0.703  0.6052  0.9855 -0.1236
  230WAT     H1  901   1.812   4.536   0.722  0.2487  0.0958 -1.1923
  230WAT     H2  902   1.761   4.679   0.735  1.1098  0.2035  1.7493
  231WAT      O  903   3.266   3.011   3.524  0.2495 -0.1088  0.2756
  231WAT     H1  904   3.309   3.040   3.604  2.0656  0.7170 -0.9313
  231WAT     H2  905   3.259   3.090   3.470  2.2015 -1.2082 -1.7348
  232WAT      O  906   1.122   4.731   0.859  0.5009  0.4929 -0.1947
  232WAT     H1  907   1.210   4.711   0.889  0.9897  1.3214 -1.0201
  232WAT     H2  908   1.092   4.651   0.817  1.1483  0.4463 -0.5745
  233WAT      O  909   3.646   1.873   3.915 -0.0014 -0.2298  0.5490
  233WAT     H1  910   3.592   1.877   3.837  0.6916 -0.4603  0.0399
  233WAT     H2  911   3.620   1.948   3.967 -1.0824 -0.5588  0.5077
  234WAT      O  912   4.081   2.686   2.264  0.9823  0.1485  0.2359
  234WAT     H1  913   4.042   2.737   2.192  1.1519 -0.6471 -0.4332
  234WAT     H2  914   4.008   2.669   2.323  0.6390  0.0185 -0.2171
  235WAT      O  915   0.520   2.799   0.445 -0.3602  0.4082 -0.1148
  235WAT     H1  916   0.577   2.873   0.426  1.5567 -0.9958 -0.1189
  235WAT     H2  917   0.455   2.833   0.505 -0.0883  2.3074 -0.8407
  236WAT      O  918   4.041   0.740   4.447 -0.3326 -0.1535  1.1020
  236WAT     H1  919   4.022   0.786   4.365 -0.4177  0.0834  1.2532
  236WAT     H2  920   4.069   0.653   4.420 -0.4489 -0.1051  0.8245
  237WAT      O  921   1.296   0.599   3.819  0.1981  0.1836  0.2682
  237WAT     H1  922   1.226   0.584   3.756  0.6274 -3.2237  0.4084
  237WAT     H2  923   1.361   0.651   3.772 -1.1875  1.0917 -0.7284
  238WAT      O  924   1.853   1.226   3.293 -0.7553 -0.0452 -0.6565
  238WAT     H1  925   1.766   1.187   3.301 -1.3062  0.7813 -2.0967
  238WAT     H2  926   1.857   1.291   3.363 -0.1523 -1.9685  1.2196
  239WAT      O  927   1.685   1.428   5.209 -0.2821  0.0084 -0.1166
  239WAT     H1  928   1.630   1.351   5.198 -0.3884  0.0169  0.3674
  239WAT     H2  929   1.692   1.441   5.303  1.7498 -0.8602 -0.0972
  240WAT      O  930   2.784   3.199   4.242  0.3196  0.6892  0.3391
  240WAT     H1  931   2.692   3.208   4.217  0.0817 -0.5397  0.6844
  240WAT     H2  932   2.814   3.122   4.194  0.7915  0.2940  1.2354
  241WAT      O  933   0.154   1.342   5.163 -0.4475 -0.0999  0.0757
  241WAT     H1  934   0.123   1.362   5.251  0.2419  3.7222 -0.3533
  241WAT     H2  935   0.094   1.389   5.105  0.1866 -1.0066 -1.3748
  242WAT      O  936   3.827   5.006   1.876  0.3419 -0.3597  0.0990
  242WAT     H1  937   3.907   4.952   1.868  1.5335  1.4086 -0.4373
  242WAT     H2  938   3.822   5.054   1.794 -0.9604  0.0085  0.3771
  243WAT      O  939   3.938   1.697   0.257  0.0900 -0.0119  0.1193
  243WAT     H1  940   3.931   1.627   0.192 -0.3251  1.9409 -2.0689
  243WAT     H2  941   3.863   1.753   0.240 -1.0085 -0.2303  3.4733
  244WAT      O  942   4.215   1.921   0.315 -0.4779 -0.1267  0.3185
  244WAT     H1  943   4.157   1.845   0.309 -0.2006 -0.2792 -0.6627
  244WAT     H2  944   4.171   1.989   0.265 -0.5428  0.2439  0.8729
  245WAT      O  945   3.897   2.502   3.439 -0.1500 -0.0424 -0.3175
  245WAT     H1  946   3.822   2.470   3.488  0.5120 -0.3867  0.4966
  245WAT     H2  947   3.887   2.597   3.437  0.9350  0.2064  2.4254
  246WAT      O  948   0.452   4.010   4.413 -0.0789  0.5828  0.2552
  246WAT     H1  949   0.429   4.002   4.320 -0.1148  1.0315  0.2228
  246WAT     H2  950   0.372   4.042   4.455 -0.5220 -1.0144  0.6948
  247WAT      O  951   3.658   0.435   2.091 -0.1041 -0.4910 -0.7329
  247WAT     H1  952   3.745   0.457   2.125 -0.3475 -1.2607  0.4517
  247WAT     H2  953   3.617   0.385   2.162 -1.6645  0.2126 -1.1070
  248WAT      O  954   0.752   2.975   0.754  0.0796 -0.5956 -0.1286
  248WAT     H1  955   0.759   2.970   0.658  1.2487 -0.3174 -0.0719
  248WAT     H2  956   0.831   2.931   0.786  0.2707  0.3017  0.6844
  249WAT      O  957   4.226   0.192   0.130  0.3218 -0.0165  0.1633
  249WAT     H1  958   4.251   0.131   0.062 -0.6708  0.6776 -0.8611
  249WAT     H2  959   4.239   0.279   0.091  0.4349  0.4145  1.1154
  250WAT      O  960   4.470   4.043   0.754  0.4784 -0.3255 -0.0152
  250WAT     H1  961   4.404   3.975   0.743  0.3567 -0.2677  0.3525
  250WAT     H2  962   4.553   3.997   0.743  0.3833 -0.4183 -0.3705
  251WAT      O  963   2.602   2.253   1.367  0.2778  0.3587  0.4067
  251WAT     H1  964   2.570   2.246   1.457 -0.8930  0.3411 -0.0030
  251WAT     H2  965   2.543   2.314   1.325  0.0336 -0.6045 -0.6950
  252WAT      O  966   4.061   1.435   2.128 -0.2885  0.2840 -0.4313
  252WAT     H1  967   4.088   1.364   2.185 -1.1039  0.7723  0.6054
  252WAT     H2  968   3.965   1.438   2.137 -0.2903  1.3768 -0.5989
  253WAT      O  969   0.820   1.869   2.336 -0.0440  0.3754  0.1186
  253WAT     H1  970   0.820   1.958   2.301 -1.7480  0.5974  0.5761
  253WAT     H2  971   0.888   1.869   2.403 -0.5083  1.5590  0.6191
  254WAT      O  972   1.530   3.425   4.802  0.2006 -0.3910  0.0213
  254WAT     H1  973   1.472   3.407   4.728 -2.6922  0.1820  1.9883
  254WAT     H2  974   1.593   3.353   4.802 -0.6878 -1.2241 -2.0426
  255WAT      O  975   0.742   2.558   3.386  0.4182  0.4389 -0.0922
  255WAT     H1  976   0.659   2.563   3.433  0.7938  2.6974  0.4571
  255WAT     H2  977   0.720   2.520   3.301 -1.0774  0.4881  0.2535
  256WAT      O  978   3.296   2.736   0.075  0.2674 -0.0259 -0.5904
  256WAT     H1  979   3.328   2.652   0.042  0.5074 -0.7077  1.2730
  256WAT     H2  980   3.374   2.792   0.076  0.0148  0.3921 -2.2688
  257WAT      O  981   3.163   0.508   0.252  0.2083  0.5437 -0.6862
  257WAT     H1  982   3.094   0.451   0.221  0.4507 -0.6251  0.7985
  257WAT     H2  983   3.179   0.480   0.342  2.6205  0.7694 -0.9750
  258WAT      O  984   0.886   4.046   0.130  0.2642 -0.1649 -0.1351
  258WAT     H1  985   0.891   4.129   0.082  1.6682 -1.4161 -2.3192
  258WAT     H2  986   0.958   3.994   0.095 -0.4320 -2.2513  1.3409
  259WAT      O  987   1.946   2.403   3.806 -0.3372 -0.3707  0.3953
  259WAT     H1  988   2.008   2.425   3.875 -0.9503  0.0393  0.8270
  259WAT     H2  989   1.938   2.483   3.754  2.7302 -1.5988 -2.2966
  260WAT      O  990   2.691   3.575   4.899 -0.1441  0.0110 -0.2566
  260WAT     H1  991   2.636   3.500   4.921 -0.3759  0.2966  0.1714
  260WAT     H2  992   2.658   3.645   4.956 -0.0225  0.4706 -0.7445
  261WAT      O  993   0.335   2.991   0.547  0.1951 -0.1435 -0.0949
  261WAT     H1  994   0.337   3.046   0.625 -0.2117  0.5211 -0.5483
  261WAT     H2  995   0.242   2.976   0.531  0.2410  0.3579 -0.8893
  262WAT      O  996   3.983   4.351   2.704  0.5059  0.1450  0.1987
  262WAT     H1  997   4.014   4.268   2.669 -2.2722 -1.1587  0.5725
  262WAT     H2  998   3.969   4.406   2.626 -0.2746 -0.7382 -0.3036
  263WAT      O  999   0.087   0.665   2.687 -0.5267  0.1109 -0.8064
  263WAT     H1 1000   0.032   0.593   2.656 -0.5890 -0.2342  0.0607
  263WAT     H2 1001   0.130   0.629   2.764  2.0685 -0.1424 -2.2658
  264WAT      O 1002   3.030   2.611   4.584 -0.4117  0.2441 -0.4599
  264WAT     H1 1003   3.055   2.703   4.595 -0.0318  0.1388 -0.4433
  264WAT     H2 1004   2.977   2.591   4.661 -1.5085  0.7877 -1.0455
  265WAT      O 1005   3.563   0.049   3.276 -0.2029 -0.1694 -0.2422
  265WAT     H1 1006   3.614  -0.032   3.276 -0.7626 -0.6379  2.6745
  265WAT     H2 1007   3.487   0.030   3.220 -0.1500 -1.5455  0.1201
  266WAT      O 1008   0.910   0.882   2.198 -0.0889 -0.0164  0.1557
  266WAT     H1 1009   0.876   0.819   2.135  0.7103 -0.4472  0.1552
  266WAT     H2 1010   0.961   0.944   2.145 -0.0268  0.0457  0.2872
  267WAT      O 1011   2.787   0.490   2.895 -0.1405 -0.2368 -0.8014
  267WAT     H1 1012   2.821   0.505   2.983  0.5690  0.9383 -1.2481
  267WAT     H2 1013   2.723   0.420   2.906  0.4631 -0.6256  0.5212
  268WAT      O 1014   2.873   5.018   3.596 -0.2818  0.1853  0.0566
  268WAT     H1 1015   2.888   5.112   3.597  0.9970  0.0374 -1.4634
  268WAT     H2 1016   2.910   4.986   3.678 -0.0519  0.9095  0.2369
  269WAT      O 1017   1.189   1.111   0.702  0.4830  0.1588  0.0242
  269WAT     H1 1018   1.132   1.068   0.638 -0.8830 -2.0165  2.5294
  269WAT     H2 1019   1.267   1.134   0.651 -0.9845 -0.2992 -2.6662
  270WAT      O 1020   2.073   4.126   5.106  0.1185 -0.1420  0.6331
  270WAT     H1 1021   2.124   4.191   5.153 -0.8239  0.3949  0.9540
  270WAT     H2 1022   2.126   4.046   5.111  1.0546  0.4674  0.6692
  271WAT      O 1023   2.097   1.133   1.193 -0.4245  0.0347  0.1545
  271WAT     H1 1024   2.106   1.151   1.099 -0.9785  1.8516  0.4053
  271WAT     H2 1025   2.036   1.059   1.197 -0.0680 -0.3416 -0.9197
  272WAT      O 1026   1.605   0.787   2.549 -0.5430  0.3621  0.0147
  272WAT     H1 1027   1.539   0.803   2.617 -1.2465 -0.7912 -0.3597
  272WAT     H2 1028   1.573   0.835   2.473  0.3191  1.7732  0.4983
  273WAT      O 1029   0.223   0.777   4.630 -0.2519 -0.8462 -0.2333
  273WAT     H1 1030   0.248   0.869   4.626 -2.3143 -0.2768 -1.4897
  273WAT     H2 1031   0.306   0.729   4.627  0.7944  0.9243 -0.8547
  274WAT      O 1032   2.302   3.555   1.229  0.2369 -0.1849 -0.4491
  274WAT     H1 1033   2.337   3.542   1.317  2.0793  0.0149 -1.0943
  274WAT     H2 1034   2.332   3.643   1.205 -0.4758 -0.1316 -1.1687
  275WAT      O 1035   1.575   1.631   3.245 -0.5404 -0.9702  0.4827
  275WAT     H1 1036   1.659   1.657   3.209 -0.8998 -0.3031  0.0961
  275WAT     H2 1037   1.546   1.558   3.190 -0.4947 -0.7985  0.2288
  276WAT      O 1038   2.064   4.078   3.690 -0.6399 -0.5193  0.3606
  276WAT     H1 1039   1.987   4.107   3.642 -1.2767 -3.1326 -0.3887
  276WAT     H2 1040   2.040   4.088   3.782  0.4005  4.0468  0.3457
  277WAT      O 1041   4.068   0.909   4.663  0.0653 -0.2759 -0.4429
  277WAT     H1 1042   4.055   0.843   4.595  2.4238 -0.4587 -0.7901
  277WAT     H2 1043   4.140   0.963   4.631  1.5675 -0.6452  2.0485
  278WAT      O 1044   1.643   2.772   5.006  0.4999  0.1704  0.3641
  278WAT     H1 1045   1.659   2.859   4.970  2.5027  0.2988  1.4125
  278WAT     H2 1046   1.564   2.782   5.060  0.4119  1.2000  0.0576
  279WAT      O 1047   0.487   2.102   1.816 -0.1734 -0.3409 -0.2375
  279WAT     H1 1048   0.455   2.176   1.869  0.0450 -0.4018 -0.0192
  279WAT     H2 1049   0.541   2.052   1.877 -0.8291 -1.0236 -0.2068
  280WAT      O 1050   2.674   2.144   0.959 -0.2167  0.2628  0.2184
  280WAT     H1 1051   2.590   2.190   0.962  0.2995  1.1743  1.0038
  280WAT     H2 1052   2.676   2.093   1.041 -0.9980 -1.5974 -0.8547
  281WAT      O 1053   2.116   0.009   0.595 -0.2019 -0.0649  0.3433
  281WAT     H1 1054   2.181   0.079   0.597 -0.4392  0.3962 -2.9294
  281WAT     H2 1055   2.165  -0.070   0.620  0.6653  0.8201  1.5660
  282WAT      O 1056   1.403   1.666   5.064  0.2313 -0.6559  0.3172
  282WAT     H1 1057   1.319   1.685   5.105  0.4897  0.4433  0.3586
  282WAT     H2 1058   1.461   1.736   5.093  0.5916 -0.1859 -1.4060
  283WAT      O 1059   1.542   3.855   0.921  0.1379  0.0134  0.2682
  283WAT     H1 1060   1.469   3.794   0.913  1.7014 -2.1618  1.5004
  283WAT     H2 1061   1.554   3.866   1.016  1.3835  0.3374  0.0896
  284WAT      O 1062   0.314   4.682   2.385  0.4566 -0.8022  0.4344
  284WAT     H1 1063   0.242   4.731   2.345  0.4510 -0.7858  0.4645
  284WAT     H2 1064   0.272   4.622   2.446  0.5161 -0.2986  0.9740
  285WAT      O 1065   1.055   4.294   4.062 -0.4729  0.3905  0.1692
  285WAT     H1 1066   1.057   4.332   4.150 -3.5688  0.4282  0.3556
  285WAT     H2 1067   0.971   4.247   4.058  0.0658 -0.5335 -2.4016
  286WAT      O 1068   1.397   4.429   3.665 -0.1112  0.1194  0.6968
  286WAT     H1 1069   1.341   4.432   3.587  1.8127  0.5533 -0.7344
  286WAT     H2 1070   1.336   4.438   3.738 -1.7809  2.4389 -0.8328
  287WAT      O 1071   1.981   2.607   4.289  0.1627  0.8690 -0.0714
  287WAT     H1 1072   2.014   2.694   4.313  0.6914  0.6949 -0.1735
  287WAT     H2 1073   2.048   2.546   4.320 -0.5619  0.4354  0.6879
  288WAT      O 1074   4.228   3.038   1.679  0.6402 -0.0220 -0.1806
  288WAT     H1 1075   4.226   3.108   1.745 -0.2118 -0.4968  0.3167
  288WAT     H2 1076   4.187   3.077   1.602  0.1639  0.0301  0.0957
  289WAT      O 1077   3.240   4.505   3.809 -0.2770  0.2071  0.3545
  289WAT     H1 1078   3.278   4.502   3.897  0.7726  0.7603 -0.0611
  289WAT     H2 1079   3.289   4.439   3.761  1.5366  2.2058 -0.6915
  290WAT      O 1080   1.019   0.887   3.979 -0.2900 -0.2400  0.2008
  290WAT     H1 1081   1.040   0.916   3.890 -1.8122 -0.0056 -0.1167
  290WAT     H2 1082   1.036   0.793   3.978  0.3416 -0.1212 -0.1387
  291WAT      O 1083   1.800   1.558   4.403  0.7296 -0.0078  0.1201
  291WAT     H1 1084   1.872   1.496   4.402  3.1031  2.5464  1.4163
  291WAT     H2 1085   1.790   1.583   4.495 -0.8655  0.7912 -0.2217
  292WAT      O 1086   2.293   3.902   5.183  0.0484 -0.3581 -0.2153
  292WAT     H1 1087   2.331   3.814   5.181 -1.7285 -1.2094  1.2201
  292WAT     H2 1088   2.316   3.936   5.270  0.2776  0.3994 -0.5655
  293WAT      O 1089   2.137   1.437   5.254  0.5364  0.5605  0.3581
  293WAT     H1 1090   2.199   1.367   5.234 -1.1948 -1.5216  1.7657
  293WAT     H2 1091   2.127   1.433   5.349 -2.2014  0.3809  0.1304
  294WAT      O 1092   1.299   2.377   0.222  0.3499  0.5239 -0.6034
  294WAT     H1 1093   1.383   2.330   0.216  0.1764  0.3513 -1.8572
  294WAT     H2 1094   1.250   2.330   0.289  0.4947 -0.5935 -1.2685
  295WAT      O 1095   2.414   0.183   4.404 -0.1946 -0.0968  0.1771
  295WAT     H1 1096   2.332   0.143   4.431 -0.4737  0.1701 -0.2579
  295WAT     H2 1097   2.405   0.194   4.309  1.8494 -3.6197 -0.6200
  296WAT      O 1098   2.793   1.962   1.668 -0.5783 -0.0552 -0.4331
  296WAT     H1 1099   2.848   1.899   1.715 -1.0211 -0.5927 -0.6239
  296WAT     H2 1100   2.838   2.046   1.679  0.9136 -0.6696 -1.5682
  297WAT      O 1101   0.223   1.715   0.399  0.0427 -0.0647  0.1799
  297WAT     H1 1102   0.130   1.730   0.381 -0.3020 -1.1039  0.9908
  297WAT     H2 1103   0.254   1.796   0.438 -0.5982  0.1946  0.1605
  298WAT      O 1104   4.397   4.041   5.224 -0.1900 -0.2063  0.0372
  298WAT     H1 1105   4.391   4.123   5.174  1.2132  1.1410  1.9432
  298WAT     H2 1106   4.370   3.973   5.162 -2.0452  1.7430 -1.4153
  299WAT      O 1107   0.364   1.446   5.049 -0.3341  0.4617  0.8653
  299WAT     H1 1108   0.317   1.486   4.976  0.2718 -3.4951 -1.9916
  299WAT     H2 1109   0.298   1.394   5.095  0.0447 -0.3189  0.5496
  300WAT      O 1110   1.757   3.280   4.760 -0.2170 -0.2303  0.5952
  300WAT     H1 1111   1.833   3.313   4.807  0.4572 -0.6627 -0.1552
  300WAT     H2 1112   1.795   3.230   4.686 -1.1736 -1.8722  1.1548
  301WAT      O 1113   4.035   3.457   1.167 -0.2601 -0.2575  0.2087
  301WAT     H1 1114   4.095   3.497   1.104 -0.8004  0.6176  0.2364
  301WAT     H2 1115   3.948   3.467   1.127 -0.3655 -1.8837 -0.0254
  302WAT      O 1116   2.564   0.068   2.227 -0.0664  0.3184 -0.3664
  302WAT     H1 1117   2.642   0.031   2.186 -0.2060 -0.6768  0.2452
  302WAT     H2 1118   2.497   0.065   2.159  0.4757  1.4571 -0.9952
  303WAT      O 1119   2.435   3.779   1.158  0.3834 -0.1792  0.8723
  303WAT     H1 1120   2.419   3.745   1.069  0.9605  1.8040 -0.0274
  303WAT     H2 1121   2.445   3.873   1.146  0.6547  0.1029  3.0480
  304WAT      O 1122   0.683   2.173   2.580 -0.0925  0.6151 -0.5183
  304WAT     H1 1123   0.773   2.152   2.556  0.0399 -0.4957  0.8445
  304WAT     H2 1124   0.651   2.096   2.627 -1.0784  1.7522  0.7873
  305WAT      O 1125   2.860   2.466   2.523  0.1062 -0.3758  0.0760
  305WAT     H1 1126   2.889   2.488   2.434 -0.0011 -0.7599 -0.0564
  305WAT     H2 1127   2.801   2.391   2.511  0.4856 -0.7467  0.5222
  306WAT      O 1128   3.921   1.018   5.000 -0.2661 -0.0751 -0.0300
  306WAT     H1 1129   3.871   1.060   4.929 -0.6698 -0.4636  0.0191
  306WAT     H2 1130   3.975   0.952   4.955  1.8015  1.7380 -0.3454
  307WAT      O 1131   3.393   1.462   4.929 -0.3941 -0.0422 -0.1479
  307WAT     H1 1132   3.397   1.555   4.950  0.4432 -0.2549  0.7285
  307WAT     H2 1133   3.300   1.440   4.930 -0.6994  1.0733 -1.7461
  308WAT      O 1134   1.127   1.438   0.363  0.6421  0.3674  0.2689
  308WAT     H1 1135   1.134   1.344   0.345 -0.6582  0.4096 -0.5797
  308WAT     H2 1136   1.080   1.443   0.446 -0.7627  0.2629 -0.4922
  309WAT      O 1137   2.618   1.049   1.233  0.4479  0.4229 -0.3418
  309WAT     H1 1138   2.642   0.960   1.260  1.0571  0.2295 -1.4737
  309WAT     H2 1139   2.566   1.037   1.154  0.8176  1.0855 -0.6921
  310WAT      O 1140   0.079   3.656   0.959  0.3227 -0.2961  0.0214
  310WAT     H1 1141   0.082   3.576   0.907  2.1891  0.5129 -1.2483
  310WAT     H2 1142   0.057   3.725   0.896 -2.2960  0.1211  1.2808
  311WAT      O 1143   0.385   4.589   0.784  0.4304  0.2557 -0.0845
  311WAT     H1 1144   0.430   4.597   0.700  2.0707 -0.0569  0.7296
  311WAT     H2 1145   0.374   4.495   0.797  0.5329  0.2829  0.2201
  312WAT      O 1146   1.088   3.850   1.199 -0.2496 -0.3101  0.0210
  312WAT     H1 1147   1.034   3.927   1.217 -0.7050  0.3278 -3.3883
  312WAT     H2 1148   1.176   3.885   1.184  0.2126 -0.8566  1.3028
  313WAT      O 1149   2.006   0.801   1.574 -0.4805 -0.0300 -0.4566
  313WAT     H1 1150   1.995   0.717   1.619 -0.5919  1.2404  2.0560
  313WAT     H2 1151   2.027   0.863   1.644 -0.9894  2.1695 -2.1532
  314WAT      O 1152   0.253   3.442   1.402  0.1028 -0.3470 -0.8354
  314WAT     H1 1153   0.306   3.365   1.383  0.1456 -0.8342  1.0582
  314WAT     H2 1154   0.189   3.412   1.467  1.7893  1.7440  2.0105
  315WAT      O 1155   3.127   2.760   2.194 -0.4237  0.2866 -0.2183
  315WAT     H1 1156   3.203   2.725   2.147 -0.6629  0.9936 -1.1572
  315WAT     H2 1157   3.149   2.852   2.209 -0.9651  0.4153 -0.2164
  316WAT      O 1158   1.628   4.610   1.014 -0.2330  0.2618 -0.3466
  316WAT     H1 1159   1.640   4.612   1.109  1.3734  2.0007 -0.5148
  316WAT     H2 1160   1.552   4.665   0.997  0.4829  1.3515 -0.1336
  317WAT      O 1161   1.125   1.411   3.810 -0.9941  0.5385 -0.6299
  317WAT     H1 1162   1.078   1.456   3.739  0.0004  1.4931 -0.7059
  317WAT     H2 1163   1.213   1.449   3.809  0.9618 -3.4131 -2.6368
  318WAT      O 1164   4.071   0.680   3.024  0.4736 -0.0145 -0.8513
  318WAT     H1 1165   4.043   0.762   2.983 -0.4009 -0.3620 -0.9831
  318WAT     H2 1166   4.144   0.649   2.970  0.2834  0.2716 -1.2781
  319WAT      O 1167   2.816   0.482   4.679  0.3389 -0.8404  0.7655
  319WAT     H1 1168   2.897   0.461   4.632  0.2033  0.0863  0.1031
  319WAT     H2 1169   2.748   0.436   4.631 -0.0077  1.3082 -0.9067
  320WAT      O 1170   1.709   3.909   4.738 -0.4011  0.2027 -0.1837
  320WAT     H1 1171   1.760   3.831   4.717 -0.8525 -0.1510  0.0099
  320WAT     H2 1172   1.755   3.949   4.812 -1.3080 -1.0265  1.0824
  321WAT      O 1173   3.670   3.892   0.519 -0.6187  0.0948 -0.0186
  321WAT     H1 1174   3.639   3.890   0.429 -1.1409  0.5508  0.1415
  321WAT     H2 1175   3.765   3.877   0.513 -0.6187  0.3432 -0.6576
  322WAT      O 1176   3.150   4.171   0.176 -0.1325 -0.6011  0.1725
  322WAT     H1 1177   3.076   4.111   0.184 -0.5212 -0.1750 -0.2045
  322WAT     H2 1178   3.115   4.256   0.202  0.2384 -0.4081  0.0485
  323WAT      O 1179   3.086   3.343   5.055 -0.1429 -0.0312 -0.5232
  323WAT     H1 1180   3.013   3.326   5.114 -1.3318  2.0236 -1.2868
  323WAT     H2 1181   3.055   3.413   4.998  2.1711  0.3896 -1.3967
  324WAT      O 1182   3.716   0.877   2.550 -0.0861 -0.4921 -0.2244
  324WAT     H1 1183   3.621   0.880   2.558 -0.0401 -0.9349  0.5125
  324WAT     H2 1184   3.734   0.796   2.502 -0.1071 -0.0917 -0.9264
  325WAT      O 1185   2.011   1.890   2.754  0.2314  0.5039 -0.2094
  325WAT     H1 1186   1.963   1.971   2.772 -0.0545 -0.0269  1.6026
  325WAT     H2 1187   1.985   1.830   2.824 -0.5031 -1.6240 -2.1848
  326WAT      O 1188   2.073   3.335   2.292 -0.4247 -0.4403 -0.3462
  326WAT     H1 1189   2.122   3.370   2.217  2.7372 -0.6433  1.4380
  326WAT     H2 1190   1.992   3.386   2.293  0.9183  1.9427 -1.9459
  327WAT      O 1191   2.176   1.694   4.806 -0.3920  0.3139 -0.3873
  327WAT     H1 1192   2.175   1.648   4.890  0.8984 -0.2527 -0.6599
  327WAT     H2 1193   2.195   1.627   4.741 -2.6400  0.5050 -1.3518
  328WAT      O 1194   1.736   2.169   4.748  0.1981 -0.0870  0.6566
  328WAT     H1 1195   1.752   2.257   4.714 -0.7288 -0.5391 -1.0618
  328WAT     H2 1196   1.653   2.176   4.796 -0.2190 -0.1405 -0.0403
  329WAT      O 1197   4.523   1.157   0.553  0.4025  0.3521  0.2462
  329WAT     H1 1198   4.480   1.217   0.614 -0.7547  0.8417 -0.9956
  329WAT     H2 1199   4.531   1.075   0.602 -0.9647  0.5728  0.8835
  330WAT      O 1200   2.026   1.071   0.940  0.1894 -0.5173  0.1515
  330WAT     H1 1201   1.937   1.098   0.917  0.3538  0.7232  0.8444
  330WAT     H2 1202   2.082   1.138   0.901  0.9401 -1.9574 -1.3395
  331WAT      O 1203   3.596   1.303   3.813 -0.0203 -0.4712  0.7140
  331WAT     H1 1204   3.634   1.242   3.877  0.7358 -1.7975 -0.9202
  331WAT     H2 1205   3.604   1.389   3.854  1.7455 -1.1089  1.8202
  332WAT      O 1206   4.305   3.161   3.591  0.1030  0.3421  0.0629
  332WAT     H1 1207   4.321   3.255   3.598  1.6153  0.3088 -2.1106
  332WAT     H2 1208   4.382   3.121   3.630  1.9223  0.1360 -3.3555
  333WAT      O 1209   1.523   4.754   1.625  0.4569  0.1270 -0.0644
  333WAT     H1 1210   1.532   4.662   1.599  0.2113  0.3374 -0.9533
  333WAT     H2 1211   1.498   4.799   1.544  2.1413  1.2469 -0.0134
  334WAT      O 1212   3.601   0.966   3.967  0.2702  0.0295  0.9170
  334WAT     H1 1213   3.530   0.947   4.029 -0.7070  2.7304  0.7751
  334WAT     H2 1214   3.562   0.948   3.881 -0.6175  2.1984  0.7891
  335WAT      O 1215   1.015   0.686   1.821 -0.4711 -0.0041  0.3429
  335WAT     H1 1216   1.102   0.663   1.852 -0.8476 -1.2336  0.5554
  335WAT     H2 1217   1.016   0.782   1.814  0.9527 -0.0132  0.1350
  336WAT      O 1218   3.816   3.293   1.570  0.2623 -0.2414  0.2065
  336WAT     H1 1219   3.800   3.282   1.664  1.7692  1.0069  0.6578
  336WAT     H2 1220   3.910   3.279   1.560  0.1583 -0.1050 -1.0729
  337WAT      O 1221   3.017   3.544   2.044 -0.3700  0.4931  0.0025
  337WAT     H1 1222   2.958   3.531   2.118  0.0404 -1.4258  0.0351
  337WAT     H2 1223   2.959   3.550   1.968 -0.6698 -0.5447  0.1340
  338WAT      O 1224   3.119   5.036   1.916  0.4015  0.4809  0.5330
  338WAT     H1 1225   3.201   5.056   1.871  0.1268 -1.7370 -1.1401
  338WAT     H2 1226   3.056   5.022   1.845 -0.7521 -0.4634  1.7077
  339WAT      O 1227   2.128   2.971   2.900 -0.6496  0.2934 -0.5930
  339WAT     H1 1228   2.102   3.053   2.943 -1.8057  0.6098 -1.8414
  339WAT     H2 1229   2.150   2.997   2.810  0.4052 -0.5626 -0.6117
  340WAT      O 1230   1.615   1.231   4.851  0.6879  0.1519 -0.0023
  340WAT     H1 1231   1.693   1.188   4.885  0.3974 -0.4059 -0.0405
  340WAT     H2 1232   1.628   1.324   4.872  1.4766  0.0989 -0.2347
  341WAT      O 1233   2.680   2.023   1.218 -0.0742  0.0373  0.6725
  341WAT     H1 1234   2.685   1.935   1.256  0.9170  0.2887  1.1561
  341WAT     H2 1235   2.665   2.081   1.294 -2.0650  0.1890  0.2262
  342WAT      O 1236   2.607   4.204   4.085 -0.1836 -0.3725 -0.2078
  342WAT     H1 1237   2.598   4.295   4.056 -1.4658 -0.3600  0.1437
  342WAT     H2 1238   2.527   4.188   4.135  0.2771 -1.5381  0.1740
  343WAT      O 1239   2.475   1.222   3.205 -0.2586 -0.0934  0.4204
  343WAT     H1 1240   2.501   1.307   3.241  0.1862  0.1191 -0.3718
  343WAT     H2 1241   2.380   1.219   3.216 -0.2154  0.2674  0.9457
  344WAT      O 1242   1.528   1.106   2.954 -0.2739  0.1538  0.1887
  344WAT     H1 1243   1.580   1.150   3.021 -1.1374 -1.7510  2.2455
  344WAT     H2 1244   1.593   1.070   2.893  0.9421 -1.7953  2.4435
  345WAT      O 1245   2.336   3.720   4.218 -0.3755  0.7271 -0.0964
  345WAT     H1 1246   2.280   3.796   4.232 -1.6679 -0.0068 -1.0530
  345WAT     H2 1247   2.425   3.755   4.221 -0.9133  2.9977 -3.9535
  346WAT      O 1248   0.180   1.507   1.629 -0.0115 -0.0403  0.2753
  346WAT     H1 1249   0.113   1.547   1.574 -0.5417 -1.3176 -0.0441
  346WAT     H2 1250   0.132   1.452   1.690  0.7503 -2.1384 -0.8974
  347WAT      O 1251   4.157   1.693   1.015  0.5589  0.4314 -0.0579
  347WAT     H1 1252   4.162   1.760   0.947  1.7500  2.0984  1.5642
  347WAT     H2 1253   4.208   1.729   1.088  0.0038 -1.6124  1.4376
  348WAT      O 1254   2.016   3.079   3.715 -0.0370 -0.0597 -0.5979
  348WAT     H1 1255   1.976   3.158   3.752  2.6602  0.4847  1.5364
  348WAT     H2 1256   1.980   3.008   3.767 -0.8685 -0.0216 -1.1008
  349WAT      O 1257   3.607  -0.003   4.744 -0.4151 -0.5234 -0.2780
  349WAT     H1 1258   3.693   0.015   4.783 -0.8869  1.5764 -0.1086
  349WAT     H2 1259   3.545   0.042   4.801 -1.3431  0.6557 -2.1495
  350WAT      O 1260   0.889   1.343   3.959  0.3384 -0.1995 -0.0264
  350WAT     H1 1261   0.971   1.331   3.912  0.9198 -0.7786  1.0939
  350WAT     H2 1262   0.887   1.437   3.980  1.7902 -0.5159  1.7693
  351WAT      O 1263   3.737   3.678   3.267 -0.0486  0.1939  0.0107
  351WAT     H1 1264   3.735   3.648   3.358 -0.0426 -0.2158 -0.1243
  351WAT     H2 1265   3.655   3.646   3.230  0.9209 -1.5442 -0.7340
  352WAT      O 1266   3.242   0.922   5.259 -0.6745 -0.6319  0.0944
  352WAT     H1 1267   3.282   0.968   5.333 -1.9278 -0.7350  0.8771
  352WAT     H2 1268   3.220   0.991   5.197  0.3040 -0.5340 -0.1600
  353WAT      O 1269   1.021   0.647   1.543  0.1808 -0.2740  0.1825
  353WAT     H1 1270   0.997   0.706   1.614 -0.1239  0.1738 -0.2847
  353WAT     H2 1271   0.936   0.619   1.506  0.3415 -0.0704 -0.3531
  354WAT      O 1272   2.191   4.649   0.131  0.0426 -0.0749  0.0908
  354WAT     H1 1273   2.117   4.589   0.145  0.1544 -0.6220 -1.4392
  354WAT     H2 1274   2.262   4.593   0.099  1.2448  0.3973  1.8124
  355WAT      O 1275   0.272   0.683   1.506 -0.7927 -0.1954 -0.2023
  355WAT     H1 1276   0.271   0.773   1.538 -0.9160 -0.7369  1.4294
  355WAT     H2 1277   0.357   0.674   1.463 -1.2208  0.9983 -1.3489
  356WAT      O 1278   3.400   0.691   1.476 -0.0973  0.4041  0.1893
  356WAT     H1 1279   3.360   0.759   1.529  0.9817 -0.2080  1.8897
  356WAT     H2 1280   3.448   0.636   1.539  0.9413 -0.5901 -1.3744
  357WAT      O 1281   1.009   5.042   2.094  0.1892  0.5250  0.3728
  357WAT     H1 1282   1.089   5.080   2.131  1.3031 -1.8046  0.5533
  357WAT     H2 1283   1.033   4.952   2.074 -2.0801  0.0988 -0.7109
  358WAT      O 1284   0.630   2.935   0.089 -0.4567  0.4821 -0.4800
  358WAT     H1 1285   0.590   3.021   0.102  1.8884  1.6188 -0.1849
  358WAT     H2 1286   0.663   2.937  -0.001  0.9364  0.5435  0.0019
  359WAT      O 1287   2.250   4.033   2.736  0.6507  0.0751 -0.4312
  359WAT     H1 1288   2.200   3.987   2.804  1.6020  0.8249  0.8105
  359WAT     H2 1289   2.198   4.020   2.657  0.9095 -3.2223 -0.2030
  360WAT      O 1290   3.501   3.585   0.213  0.6005 -0.1157 -0.6634
  360WAT     H1 1291   3.507   3.673   0.249  0.3601 -0.2294 -0.3440
  360WAT     H2 1292   3.565   3.584   0.142  2.1260 -0.3241  0.6501
  361WAT      O 1293   4.383   3.299   1.289  0.0260  0.3376 -0.0504
  361WAT     H1 1294   4.415   3.211   1.305 -0.6232 -0.0291 -0.7138
  361WAT     H2 1295   4.458   3.346   1.253  0.8352  0.5254  1.7297
  362WAT      O 1296   2.882   0.608   3.149 -0.1457 -0.3248  0.5637
  362WAT     H1 1297   2.881   0.646   3.237  1.1992  1.1206  0.0122
  362WAT     H2 1298   2.974   0.587   3.134 -0.2756 -0.0478 -0.6980
  363WAT      O 1299   1.325   4.409   1.417 -0.7403  0.1263 -0.0731
  363WAT     H1 1300   1.231   4.393   1.425 -0.9602  0.6370 -1.4014
  363WAT     H2 1301   1.338   4.430   1.325  0.7937 -0.6663 -0.0684
  364WAT      O 1302   3.407   1.670   5.235  0.2073 -0.2462  0.6245
  364WAT     H1 1303   3.461   1.710   5.303  1.3763  0.5144 -0.7022
  364WAT     H2 1304   3.339   1.735   5.217 -0.3387 -0.6146  1.3213
  365WAT      O 1305   3.438   4.346   3.061  0.8154  0.2222  0.2765
  365WAT     H1 1306   3.368   4.410   3.076  1.5601  0.3435  4.5136
  365WAT     H2 1307   3.512   4.398   3.031  0.4506  0.8674  0.4735
  366WAT      O 1308   3.959   4.496   5.054 -0.1235 -0.1309  0.4164
  366WAT     H1 1309   4.016   4.557   5.007 -0.7138 -0.0769 -0.2458
  366WAT     H2 1310   3.981   4.509   5.147 -0.6051  1.4559  0.3253
  367WAT      O 1311   2.027   3.600   0.295  0.1716 -0.5578  0.0471
  367WAT     H1 1312   2.115   3.599   0.333 -0.0190 -1.6964  0.5047
  367WAT     H2 1313   1.977   3.539   0.350 -0.7744 -0.2948 -0.5088
  368WAT      O 1314   1.429   1.348   0.594 -0.0335 -0.2028 -0.3209
  368WAT     H1 1315   1.521   1.370   0.609  0.4605 -3.2576  2.0876
  368WAT     H2 1316   1.380   1.410   0.649  0.5840  1.0190 -1.1159
  369WAT      O 1317   2.209   1.966   2.978  0.0012  0.2971 -0.0209
  369WAT     H1 1318   2.296   1.933   2.999  0.0334  0.5805  0.3010
  369WAT     H2 1319   2.225   2.040   2.920 -0.1522 -1.7468 -2.8768
  370WAT      O 1320   4.198   4.464   0.304 -0.1233  0.0336 -0.0241
  370WAT     H1 1321   4.200   4.559   0.296  1.1171 -0.0840 -1.4292
  370WAT     H2 1322   4.285   4.440   0.337  0.1346 -0.7100 -1.1804
  371WAT      O 1323   3.875   4.055   4.201 -0.0979 -0.2448  0.4133
  371WAT     H1 1324   3.874   4.118   4.274  1.4026 -2.2558  2.2736
  371WAT     H2 1325   3.839   3.975   4.239 -0.6579 -0.9400 -1.5146
  372WAT      O 1326   2.425   2.439   2.117 -0.0779 -0.4636  0.2925
  372WAT     H1 1327   2.498   2.384   2.146  0.5112  0.9735  1.7191
  372WAT     H2 1328   2.368   2.380   2.068  1.9612 -1.6601 -0.7654
  373WAT      O 1329   2.983   5.075   5.197  0.5533  0.2333 -0.1753
  373WAT     H1 1330   3.014   4.985   5.207  0.2944  0.0970 -0.5783
  373WAT     H2 1331   3.018   5.121   5.274  0.9858 -0.1251 -0.1535
  374WAT      O 1332   2.292   1.395   4.351 -0.5233  0.1303  0.0280
  374WAT     H1 1333   2.316   1.463   4.287 -2.2007  0.1973 -0.5850
  374WAT     H2 1334   2.343   1.417   4.429 -0.9173  2.0632 -0.1865
  375WAT      O 1335   2.192   2.104   0.284  0.0569 -0.1939 -0.4976
  375WAT     H1 1336   2.111   2.075   0.325  0.3736 -1.4851 -0.7218
  375WAT     H2 1337   2.186   2.199   0.283 -1.1497 -0.2428  0.0934
  376WAT      O 1338   0.416   1.190   3.034 -0.0649 -0.5577 -0.0425
  376WAT     H1 1339   0.467   1.271   3.045 -0.2316  0.0047 -2.7814
  376WAT     H2 1340   0.478   1.128   2.997 -0.4332 -1.0870  0.2189
  377WAT      O 1341   1.032   4.284   2.976  0.5864 -0.1252  0.3734
  377WAT     H1 1342   0.940   4.310   2.973  1.4743  3.6303  1.2248
  377WAT     H2 1343   1.070   4.318   2.895  1.4688 -0.6361  0.5575
  378WAT      O 1344   2.487   4.143   0.199 -0.4108  0.2515 -0.1713
  378WAT     H1 1345   2.443   4.227   0.186 -1.9471 -0.5005 -0.0405
  378WAT     H2 1346   2.416   4.082   0.220  0.6856 -1.0625 -0.1735
  379WAT      O 1347   0.200   0.378   4.853 -1.0172 -0.0896 -0.3539
  379WAT     H1 1348   0.156   0.455   4.816 -0.2324  1.1809  1.2569
  379WAT     H2 1349   0.155   0.362   4.936  1.5240  1.3449  1.4214
  380WAT      O 1350   1.072   4.742   1.992  0.1498 -0.0464  0.1886
  380WAT     H1 1351   1.083   4.657   2.034  2.6155  1.1302  2.1921
  380WAT     H2 1352   1.145   4.748   1.931 -0.2307  0.4755 -0.2228
  381WAT      O 1353   0.707   4.428   3.888 -0.3401  0.1170 -0.3208
  381WAT     H1 1354   0.660   4.425   3.805 -1.0536 -0.3014  0.0892
  381WAT     H2 1355   0.640   4.411   3.955  0.0798  1.1305  0.3978
  382WAT      O 1356   2.411   3.668   5.169 -0.3316 -0.3623 -0.1933
  382WAT     H1 1357   2.492   3.698   5.127  1.2358 -0.0313  2.7852
  382WAT     H2 1358   2.429   3.577   5.193 -0.9333 -0.3806  0.2049
  383WAT      O 1359   1.598   3.173   1.471 -0.2701 -0.4417  0.1978
  383WAT     H1 1360   1.525   3.112   1.485 -2.6993  1.5247 -2.7467
  383WAT     H2 1361   1.570   3.254   1.514  0.8333 -0.0567  0.2147
  384WAT      O 1362   3.369   4.104   0.000  0.1553 -0.1363  0.1701
  384WAT     H1 1363   3.293   4.106   0.059 -0.7551  0.8960 -0.9570
  384WAT     H2 1364   3.386   4.197  -0.019  2.2283 -0.2967  1.0057
  385WAT      O 1365   2.542   0.686   4.917 -0.0580  0.8106  0.3975
  385WAT     H1 1366   2.603   0.736   4.863 -1.8162  1.4675 -1.0730
  385WAT     H2 1367   2.538   0.600   4.876 -1.4035  1.3136 -0.6115
  386WAT      O 1368   0.535   1.092   2.191  0.3650  0.6150 -0.1129
  386WAT     H1 1369   0.569   1.009   2.225  0.3139  0.3110 -0.7940
  386WAT     H2 1370   0.609   1.151   2.195  2.4611 -1.0760 -5.4153
  387WAT      O 1371   1.742   1.306   3.055  0.3557 -0.1082 -0.0803
  387WAT     H1 1372   1.811   1.365   3.024 -0.1296  0.8835  0.6594
  387WAT     H2 1373   1.776   1.268   3.136  0.9259 -1.3658 -0.8845
  388WAT      O 1374   3.481   0.811   5.027 -0.6834  0.1217 -0.1662
  388WAT     H1 1375   3.524   0.829   4.943 -1.4703 -1.3058 -0.9190
  388WAT     H2 1376   3.402   0.865   5.026 -0.3772  0.5736 -0.0623
  389WAT      O 1377   2.966   1.060   2.085 -0.6145 -0.0785  0.5062
  389WAT     H1 1378   3.033   1.094   2.144 -0.0475 -0.0975 -0.1182
  389WAT     H2 1379   2.960   0.967   2.106  0.4984 -0.3547 -0.3174
  390WAT      O 1380   3.635   0.016   0.459  0.5526  0.2604  0.6307
  390WAT     H1 1381   3.721   0.053   0.479 -0.4165  2.3887  1.1539
  390WAT     H2 1382   3.583   0.090   0.427 -1.4225 -0.6811  1.4383
  391WAT      O 1383   3.726   4.515   2.113 -0.1330 -0.1352 -0.0736
  391WAT     H1 1384   3.638   4.528   2.076 -0.0599  0.0275 -0.1898
  391WAT     H2 1385   3.712   4.506   2.207 -0.2367  0.2362 -0.0550
  392WAT      O 1386   1.345   4.465   0.852  0.3861 -0.1610  0.7320
  392WAT     H1 1387   1.393   4.542   0.821  0.2885  0.9635  3.1585
  392WAT     H2 1388   1.373   4.395   0.793  0.8903  1.5780 -1.2297
  393WAT      O 1389   2.239   4.516   2.806 -0.4992  0.1732  0.0208
  393WAT     H1 1390   2.309   4.452   2.790 -1.6375 -1.0088 -0.3859
  393WAT     H2 1391   2.253   4.584   2.740 -0.3004 -0.5266 -0.6650
  394WAT      O 1392   1.107   3.876   3.566  0.1302  0.1500  0.0432
  394WAT     H1 1393   1.073   3.961   3.592  0.3386  0.1179  0.4160
  394WAT     H2 1394   1.103   3.877   3.470  2.4199  1.5540 -0.1104
  395WAT      O 1395   1.633   0.210   2.982 -0.1623  0.1580 -0.1666
  395WAT     H1 1396   1.631   0.300   2.950  2.1326  0.7681  1.1801
  395WAT     H2 1397   1.577   0.162   2.921  0.8528  1.9381 -2.7147
  396WAT      O 1398   3.206   4.746   4.411 -0.4999  0.0058 -0.3125
  396WAT     H1 1399   3.140   4.799   4.368  0.8075  0.8865 -1.3086
  396WAT     H2 1400   3.203   4.774   4.503  0.2572  1.9805 -0.8363
  397WAT      O 1401   4.044   1.609   1.488  0.7901  0.2323  0.2707
  397WAT     H1 1402   4.094   1.529   1.508  2.2816  0.9629 -0.3584
  397WAT     H2 1403   3.965   1.577   1.444  1.8329 -0.8677 -0.9096
  398WAT      O 1404   3.965   1.539   1.114  0.0246 -0.0549 -0.1005
  398WAT     H1 1405   4.035   1.589   1.072 -0.7875 -0.6796 -2.3570
  398WAT     H2 1406   3.985   1.448   1.095 -1.4092 -0.2390 -0.8710
  399WAT      O 1407   0.588   2.719   3.989  0.3383 -0.1491 -0.0891
  399WAT     H1 1408   0.514   2.775   4.009  1.8601  2.3443 -1.0166
  399WAT     H2 1409   0.635   2.709   4.072  0.8226  1.1723 -0.1926
  400WAT      O 1410   0.178   2.308   1.164 -0.3472  0.1563  0.1591
  400WAT     H1 1411   0.139   2.297   1.077 -1.8634 -0.2948  0.8526
  400WAT     H2 1412   0.208   2.221   1.188  0.6885  0.4120 -0.1745
  401WAT      O 1413   2.490   0.342   2.980 -0.3466  0.6575  0.2699
  401WAT     H1 1414   2.538   0.269   3.019  0.5590  1.1698  0.1407
  401WAT     H2 1415   2.512   0.417   3.034 -2.2057  0.6432  1.1108
  402WAT      O 1416   0.519   4.751   2.032 -0.1131  0.8427  0.0563
  402WAT     H1 1417   0.552   4.755   2.122 -0.4388  1.4088  0.1587
  402WAT     H2 1418   0.590   4.712   1.982 -0.1818 -0.1149  0.6745
  403WAT      O 1419   0.682   4.331   0.515 -0.1843  0.2147 -0.0494
  403WAT     H1 1420   0.598   4.357   0.477  0.3053 -1.0637 -2.1570
  403WAT     H2 1421   0.748   4.376   0.462  0.5944 -3.2335 -2.2567
  404WAT      O 1422   3.707   5.086   4.369  0.7260 -0.3957  0.2993
  404WAT     H1 1423   3.622   5.128   4.386  0.7354 -0.7027  1.1648
  404WAT     H2 1424   3.702   5.058   4.278  0.2548  0.4039  0.0669
  405WAT      O 1425   3.655   2.076   4.327 -0.2104  0.3281 -0.3598
  405WAT     H1 1426   3.720   2.070   4.258  2.2599  0.1208  1.8262
  405WAT     H2 1427   3.649   2.170   4.346 -0.0812  0.2997 -0.1700
  406WAT      O 1428   2.003   0.576   3.594  0.9500  0.1103 -0.0518
  406WAT     H1 1429   2.043   0.540   3.515 -0.9507  0.7425 -1.4025
  406WAT     H2 1430   2.072   0.626   3.636  2.2861 -1.0805 -0.7584
  407WAT      O 1431   0.015   1.780   2.338  0.4865 -0.2851  0.0305
  407WAT     H1 1432  -0.054   1.777   2.272 -0.3761 -1.8541  0.9613
  407WAT     H2 1433   0.088   1.824   2.294 -0.3701 -0.4841 -1.6634
  408WAT      O 1434   2.889   2.842   2.355  0.0055  0.5190  0.0042
  408WAT     H1 1435   2.976   2.881   2.354 -0.4549  1.5804 -0.9333
  408WAT     H2 1436   2.896   2.766   2.298  0.0414  1.2854 -1.0447
  409WAT      O 1437   1.740   4.187   2.551  0.1667 -0.5058 -0.7397
  409WAT     H1 1438   1.658   4.139   2.560 -1.2491  2.0828  1.7648
  409WAT     H2 1439   1.807   4.129   2.587 -0.7534 -2.1288 -1.5689
  410WAT      O 1440   0.133   3.124   1.721  0.2254 -0.3605  1.0967
  410WAT     H1 1441   0.089   3.201   1.685 -0.2517 -0.7274  0.8846
  410WAT     H2 1442   0.218   3.157   1.751 -0.0607  0.2913  1.2090
  411WAT      O 1443   2.057   1.096   0.136  0.5254  0.1230  0.3319
  411WAT     H1 1444   2.025   1.173   0.089 -0.2102 -1.3390 -1.7475
  411WAT     H2 1445   1.985   1.071   0.193 -0.7496 -1.0000 -1.6230
  412WAT      O 1446   0.156   4.821   3.982  0.2493  0.1098 -0.5111
  412WAT     H1 1447   0.251   4.823   3.991  0.2019 -1.2107  0.8510
  412WAT     H2 1448   0.130   4.744   4.033 -1.6893  1.3657  0.5034
  413WAT      O 1449   2.689   3.365   1.480 -0.2095  0.3094  0.0706
  413WAT     H1 1450   2.751   3.420   1.431 -1.2315  1.0522 -0.4126
  413WAT     H2 1451   2.745   3.310   1.535  0.8804  1.0295 -0.2806
  414WAT      O 1452   1.627   2.291   2.855 -0.2466  0.1538  0.1919
  414WAT     H1 1453   1.707   2.340   2.834 -0.4937  0.2783 -0.4807
  414WAT     H2 1454   1.647   2.247   2.938  0.8742 -0.6036 -0.4588
  415WAT      O 1455   3.921   3.513   2.989  0.0785 -0.1486  0.3553
  415WAT     H1 1456   3.849   3.455   3.015 -0.3528 -0.2048 -0.8817
  415WAT     H2 1457   3.903   3.533   2.897 -0.4367  2.9168  1.0191
  416WAT      O 1458   4.162   3.555   1.801  0.6047 -0.5105  0.3643
  416WAT     H1 1459   4.215   3.488   1.844 -0.2613  0.0919  2.5136
  416WAT     H2 1460   4.177   3.634   1.853 -0.4298  0.2976 -0.5226
  417WAT      O 1461   3.355   4.313   2.040 -0.1376 -0.2742  0.7090
  417WAT     H1 1462   3.262   4.329   2.054 -0.0094  1.8990 -0.4010
  417WAT     H2 1463   3.398   4.393   2.070  1.2029 -0.5854 -0.2628
  418WAT      O 1464   2.190   0.769   3.623  0.2762  0.0310  0.4219
  418WAT     H1 1465   2.190   0.832   3.695  0.6741  0.4307  0.0760
  418WAT     H2 1466   2.279   0.734   3.622  0.5338  0.6898 -0.4483
  419WAT      O 1467   4.494   3.906   2.248 -0.3555 -0.1030 -0.1629
  419WAT     H1 1468   4.412   3.936   2.208 -0.2906  1.0352  0.4986
  419WAT     H2 1469   4.563   3.940   2.191 -0.2995  0.6365  0.3199
  420WAT      O 1470   3.913   3.097   2.431  0.0987 -0.5461  0.1298
  420WAT     H1 1471   3.990   3.044   2.410  0.4196 -0.0926  0.1236
  420WAT     H2 1472   3.872   3.052   2.504  0.3912 -0.7771  0.1549
  421WAT      O 1473   1.637   1.339   1.551  0.5051 -0.2491 -0.3976
  421WAT     H1 1474   1.718   1.346   1.601 -0.0683 -0.0760  0.5389
  421WAT     H2 1475   1.575   1.298   1.611 -0.8776  2.0962 -0.1111
  422WAT      O 1476   1.454   0.439   5.269 -0.4724 -0.5826  0.0688
  422WAT     H1 1477   1.480   0.357   5.228 -0.9369 -0.4159 -0.5596
  422WAT     H2 1478   1.359   0.435   5.274 -0.4774 -0.2310  0.3582
  423WAT      O 1479   2.183   4.796   0.362 -0.1140  0.1141  0.2297
  423WAT     H1 1480   2.204   4.729   0.297 -2.3540  0.3662 -0.8256
  423WAT     H2 1481   2.188   4.879   0.314  0.8754  0.5764  1.0842
  424WAT      O 1482   4.233   5.005   3.525 -0.1525 -0.6079  0.1015
  424WAT     H1 1483   4.241   4.950   3.603  0.9717 -1.3791 -0.5277
  424WAT     H2 1484   4.238   5.095   3.559  0.3924 -0.9271  0.9099
  425WAT      O 1485   2.970   4.599   1.861  0.3522  0.5100 -0.1282
  425WAT     H1 1486   3.023   4.595   1.782 -0.4585 -1.7677 -0.6550
  425WAT     H2 1487   3.029   4.569   1.931  0.3643 -0.0065 -0.3514
  426WAT      O 1488   0.957   0.601   3.985 -0.0947  0.4771  0.7116
  426WAT     H1 1489   0.872   0.629   4.020  0.1792  0.7993  1.1292
  426WAT     H2 1490   0.961   0.507   4.002 -0.6233  0.3453  0.1450
  427WAT      O 1491   1.314   3.927   0.186 -0.0900 -0.6613 -0.4489
  427WAT     H1 1492   1.263   3.967   0.257  0.3443 -2.0554  0.7177
  427WAT     H2 1493   1.304   3.833   0.201  3.1333 -1.0227  0.1321
  428WAT      O 1494   3.393   1.824   4.857 -0.2791  0.1068  0.0202
  428WAT     H1 1495   3.307   1.862   4.837 -0.0406  0.8304  0.3478
  428WAT     H2 1496   3.442   1.832   4.775 -0.7109 -0.8720 -0.3567
  429WAT      O 1497   1.365   4.384   3.016 -0.4525 -0.0084  0.2012
  429WAT     H1 1498   1.414   4.304   3.033 -0.4295  0.0715  0.5095
  429WAT     H2 1499   1.432   4.448   2.990 -0.6334 -0.5547 -1.8046
  430WAT      O 1500   3.127   1.495   3.436 -0.4412  0.5715 -0.4779
  430WAT     H1 1501   3.212   1.478   3.397 -0.2638  0.6441 -0.1266
  430WAT     H2 1502   3.076   1.415   3.420 -0.5398  0.7822 -1.2890
  431WAT      O 1503   3.792   4.678   1.711  0.2823  0.2600 -0.1391
  431WAT     H1 1504   3.710   4.672   1.760  1.2997 -0.7227  1.5252
  431WAT     H2 1505   3.822   4.587   1.704  0.6436  0.4741 -1.8109
  432WAT      O 1506   4.417   1.527   0.383 -0.5433 -0.6461 -0.1877
  432WAT     H1 1507   4.351   1.460   0.402 -0.1079 -0.8598  0.6037
  432WAT     H2 1508   4.430   1.573   0.465  0.0789 -0.4077 -0.4086
  433WAT      O 1509   3.392   2.988   4.966 -0.2501 -0.0446 -0.0708
  433WAT     H1 1510   3.477   2.982   4.922 -1.0132 -1.4131 -1.4454
  433WAT     H2 1511   3.375   2.899   4.998 -2.4501 -0.5589 -2.3970
  434WAT      O 1512   1.862   5.070   2.131  0.4625 -0.4656 -0.2198
  434WAT     H1 1513   1.876   5.004   2.064  0.9241  0.1623 -0.7591
  434WAT     H2 1514   1.839   5.149   2.082  1.6800  0.2360  0.2853
  435WAT      O 1515   3.560   2.709   4.812 -0.6052 -0.4184 -0.2278
  435WAT     H1 1516   3.582   2.800   4.794 -0.3109 -0.5018 -0.2858
  435WAT     H2 1517   3.638   2.672   4.854  0.0771 -1.1999 -2.0723
  436WAT      O 1518   0.823   0.725   1.275 -0.2066 -0.4700  0.1215
  436WAT     H1 1519   0.812   0.669   1.352 -0.9703  0.3892  0.6566
  436WAT     H2 1520   0.911   0.706   1.243 -0.5203 -2.1375  0.1509
  437WAT      O 1521   0.419   0.755   2.228 -0.1083  0.3176 -0.2700
  437WAT     H1 1522   0.365   0.796   2.160 -2.3367  2.1414  2.3599
  437WAT     H2 1523   0.362   0.752   2.305  2.8457  0.2212  2.1058
  438WAT      O 1524   4.486   2.279   1.984  0.5244 -0.1570 -0.6190
  438WAT     H1 1525   4.488   2.345   1.914  0.1261  1.8097  1.1103
  438WAT     H2 1526   4.525   2.323   2.059 -0.5235 -1.6164  0.8578
  439WAT      O 1527   1.443   4.247   3.991  0.2019  0.0275 -0.0713
  439WAT     H1 1528   1.370   4.279   3.937 -0.2262  0.1507  0.5633
  439WAT     H2 1529   1.469   4.165   3.950 -0.0306  0.1788 -0.5363
  440WAT      O 1530   1.437   1.502   2.343  0.4531 -0.0557 -0.0997
  440WAT     H1 1531   1.514   1.455   2.311  2.4693  2.2225  1.1002
  440WAT     H2 1532   1.398   1.540   2.264  2.1054  0.8880 -0.5010
  441WAT      O 1533   0.830   4.105   0.513  0.1492 -0.1571  0.2382
  441WAT     H1 1534   0.786   4.061   0.441 -0.3299 -0.6125  0.7934
  441WAT     H2 1535   0.800   4.195   0.509  0.1182 -0.1841 -0.1220
  442WAT      O 1536   0.882   4.566   1.318 -0.3591 -0.2727  0.1324
  442WAT     H1 1537   0.812   4.519   1.363 -0.7545 -0.7034 -0.8981
  442WAT     H2 1538   0.962   4.519   1.342 -0.7233 -1.3531 -0.7000
  443WAT      O 1539   0.210   4.332   4.563  0.0858 -0.1793  0.4423
  443WAT     H1 1540   0.183   4.424   4.563 -0.4121 -0.3199  0.2222
  443WAT     H2 1541   0.292   4.331   4.612 -0.0139  0.3518  0.6290
  444WAT      O 1542   3.267   3.150   5.189 -0.6565 -0.0066 -0.5637
  444WAT     H1 1543   3.318   3.077   5.152  1.8426  1.5076 -0.3111
  444WAT     H2 1544   3.241   3.202   5.113 -1.6346 -0.6114 -0.6659
  445WAT      O 1545   0.312   0.826   0.131 -0.1300 -0.7799  0.0491
  445WAT     H1 1546   0.339   0.903   0.181 -1.9834 -0.4119  0.5686
  445WAT     H2 1547   0.373   0.823   0.057  0.8086  0.3892  0.7358
  446WAT      O 1548   4.008   0.276   4.837  0.1716 -0.2628 -0.5846
  446WAT     H1 1549   4.038   0.367   4.840  0.3403 -0.2524 -1.8798
  446WAT     H2 1550   3.982   0.256   4.927  3.2294  0.0064  0.4871
  447WAT      O 1551   3.156   3.309   3.784  0.4811  0.0501  0.1754
  447WAT     H1 1552   3.067   3.342   3.771  0.0896 -1.3773 -0.9246
  447WAT     H2 1553   3.198   3.319   3.699  1.2814  0.3656  0.5929
  448WAT      O 1554   3.657   4.829   1.512  0.2996 -0.5187  0.4437
  448WAT     H1 1555   3.724   4.803   1.575  1.2838  0.7045 -0.0534
  448WAT     H2 1556   3.597   4.884   1.562  0.0594 -1.0114  0.7129
  449WAT      O 1557   3.336   2.837   4.530  0.2128  0.7936 -0.1146
  449WAT     H1 1558   3.271   2.841   4.600  1.7656  0.2275  1.4334
  449WAT     H2 1559   3.378   2.924   4.531  0.9601  0.4343  0.3982
  450WAT      O 1560   0.981   2.491   0.501  0.5699  0.0637 -0.9091
  450WAT     H1 1561   0.926   2.526   0.431 -1.7606 -0.1695  0.6779
  450WAT     H2 1562   0.927   2.498   0.579  2.9219 -0.0412  0.8391
  451WAT      O 1563   1.439   1.957   3.832 -0.1777 -0.3295  0.5885
  451WAT     H1 1564   1.395   1.970   3.916  1.9053 -0.6731  1.7998
  451WAT     H2 1565   1.477   2.042   3.812 -1.5488  0.0439 -0.5988
  452WAT      O 1566   1.637   0.413   2.794 -0.3835 -0.2826  0.2093
  452WAT     H1 1567   1.685   0.365   2.727 -0.4498  1.9144 -1.5443
  452WAT     H2 1568   1.699   0.480   2.823 -1.4936  0.9648 -0.2073
  453WAT      O 1569   2.941   4.653   4.649  0.2672  0.0183 -0.0769
  453WAT     H1 1570   2.885   4.712   4.598 -1.4522 -1.0347  0.5184
  453WAT     H2 1571   3.023   4.702   4.661  0.1388  0.9285 -2.4352
  454WAT      O 1572   2.349   1.263   5.233  0.6804  0.3029  0.2245
  454WAT     H1 1573   2.436   1.298   5.252  1.0927 -0.6491  0.1576
  454WAT     H2 1574   2.352   1.173   5.265  0.1503 -0.1524 -0.9259
  455WAT      O 1575   4.419   3.321   2.497 -0.0021 -0.5566 -0.2236
  455WAT     H1 1576   4.385   3.406   2.525 -0.7151 -0.3466 -1.6217
  455WAT     H2 1577   4.507   3.341   2.464  0.3496 -0.5976  0.6685
  456WAT      O 1578   1.005   1.972   1.686 -0.3003 -0.3072 -0.4921
  456WAT     H1 1579   0.938   1.985   1.618  0.5837  0.3048 -1.2766
  456WAT     H2 1580   1.084   2.011   1.649  0.2878 -0.2544  0.7755
  457WAT      O 1581   4.466   1.765   0.265  0.2562  0.3703 -0.8786
  457WAT     H1 1582   4.439   1.679   0.296 -0.6342  0.9547  0.0231
  457WAT     H2 1583   4.386   1.818   0.269  0.6508  1.0922 -1.9757
  458WAT      O 1584   2.081   2.609   0.501 -0.8690 -0.0487  0.1106
  458WAT     H1 1585   2.034   2.677   0.452 -0.7520  0.6685  0.9768
  458WAT     H2 1586   2.015   2.572   0.560 -0.3408  1.0949  1.4697
  459WAT      O 1587   1.032   2.490   1.291  0.2610 -0.2562 -0.0606
  459WAT     H1 1588   0.938   2.485   1.270  0.4613 -0.9556 -0.8632
  459WAT     H2 1589   1.039   2.455   1.380 -0.0420 -1.9558 -0.6642
  460WAT      O 1590   1.183   1.935   0.805  0.5411  0.1929 -0.4527
  460WAT     H1 1591   1.252   1.870   0.795  0.4919 -0.1295  1.0378
  460WAT     H2 1592   1.138   1.936   0.721  1.4648 -0.6227 -0.9725
  461WAT      O 1593   1.442   1.273   1.740  0.2511 -0.1902 -0.4688
  461WAT     H1 1594   1.466   1.315   1.823 -3.8661  0.5742  0.5668
  461WAT     H2 1595   1.397   1.193   1.766  0.0317 -0.5888 -2.0105
  462WAT      O 1596   0.646   2.860   3.458  0.3670 -0.5384 -0.1017
  462WAT     H1 1597   0.615   2.770   3.452  1.1101 -0.6842 -3.4734
  462WAT     H2 1598   0.570   2.913   3.432 -0.2907 -0.0263  2.5436
  463WAT      O 1599   0.764   1.538   2.791 -0.0012 -0.0895  0.2402
  463WAT     H1 1600   0.859   1.537   2.781  0.0674 -1.4010  0.8300
  463WAT     H2 1601   0.746   1.616   2.844  0.6567  0.5877 -0.4995
  464WAT      O 1602   0.642   4.348   5.005 -0.1950  0.3377 -0.2290
  464WAT     H1 1603   0.675   4.357   4.916  1.2855 -1.2071  0.1145
  464WAT     H2 1604   0.651   4.436   5.043  1.3462  0.5111 -0.9120
  465WAT      O 1605   3.762   4.976   0.240  0.2840 -0.6377 -0.1383
  465WAT     H1 1606   3.815   4.898   0.258 -0.1612 -1.0639 -0.6092
  465WAT     H2 1607   3.693   4.974   0.307  0.5806 -0.3556  0.1742
  466WAT      O 1608   2.905   4.807   2.607 -0.0697  0.5632 -0.2421
  466WAT     H1 1609   2.820   4.851   2.604 -0.5482 -0.2609  0.6965
  466WAT     H2 1610   2.926   4.790   2.516 -0.2613  1.9664 -0.5818
  467WAT      O 1611   2.234   0.920   3.379 -0.4725  0.4057 -0.3233
  467WAT     H1 1612   2.217   0.836   3.422  1.7702  0.0803  0.0457
  467WAT     H2 1613   2.232   0.984   3.450 -3.5431  0.9827 -0.7774
  468WAT      O 1614   0.057   0.275   2.785  0.0367  0.3046  0.0852
  468WAT     H1 1615   0.024   0.210   2.722  0.0324  1.8570 -1.6011
  468WAT     H2 1616  -0.003   0.268   2.859 -0.0114 -1.5327 -0.0717
  469WAT      O 1617   1.053   0.554   3.690  0.1871  0.5785  0.0074
  469WAT     H1 1618   1.044   0.460   3.678 -0.5699  0.6707 -0.1475
  469WAT     H2 1619   0.999   0.574   3.766  0.0273  0.9531 -0.2044
  470WAT      O 1620   1.499   2.093   2.710  0.0727 -0.0684  0.1858
  470WAT     H1 1621   1.549   2.017   2.680  1.5650 -0.1389  2.6028
  470WAT     H2 1622   1.565   2.155   2.742 -1.2197  1.4149  0.1440
  471WAT      O 1623   3.259   2.758   4.280 -0.4177  0.0376 -0.1309
  471WAT     H1 1624   3.282   2.801   4.362 -0.6646 -0.1431  0.0352
  471WAT     H2 1625   3.235   2.669   4.305 -1.6324  0.3140 -0.2359
  472WAT      O 1626   1.427   2.807   5.184  0.1416  0.0058  0.2522
  472WAT     H1 1627   1.408   2.725   5.229  0.5074  0.1658  0.7059
  472WAT     H2 1628   1.412   2.875   5.250  2.4980  0.1375  0.7361
  473WAT      O 1629   1.693   4.626   3.969 -0.4203  0.5584 -0.1902
  473WAT     H1 1630   1.754   4.569   4.015  2.3082  1.6467 -2.1863
  473WAT     H2 1631   1.607   4.599   4.001  0.8628 -2.8522  0.8753
  474WAT      O 1632   1.717   0.013   3.830  0.5546  0.3240 -0.2503
  474WAT     H1 1633   1.760  -0.073   3.831 -0.5317 -0.2324 -0.3182
  474WAT     H2 1634   1.782   0.071   3.791  1.0430 -0.6129 -0.8866
  475WAT      O 1635   1.967   3.251   2.625  0.0259 -0.1281 -0.4659
  475WAT     H1 1636   2.010   3.169   2.651  0.3615  0.2798  0.2902
  475WAT     H2 1637   2.032   3.319   2.643 -1.1034  0.5680  1.2475
  476WAT      O 1638   1.771   2.353   1.270  0.4700  0.4988  0.1340
  476WAT     H1 1639   1.866   2.363   1.267  0.5340 -0.0647  0.1312
  476WAT     H2 1640   1.755   2.302   1.349  0.3744 -1.4471 -1.0711
  477WAT      O 1641   1.509   4.561   2.692  0.1519  0.2057  0.1757
  477WAT     H1 1642   1.578   4.495   2.684 -0.0386  0.1034 -0.7475
  477WAT     H2 1643   1.550   4.642   2.662  0.7239  0.7739  2.3651
  478WAT      O 1644   3.925   4.818   1.456 -0.6210  0.1034 -0.1921
  478WAT     H1 1645   3.968   4.863   1.383 -0.7391  0.0889 -0.2722
  478WAT     H2 1646   3.970   4.734   1.462 -0.2776  0.3060  0.0776
  479WAT      O 1647   1.463   0.168   3.605  0.3338 -0.8944  0.0510
  479WAT     H1 1648   1.411   0.246   3.587  1.2972  0.0360  1.0826
  479WAT     H2 1649   1.551   0.202   3.621  0.9617 -2.2843 -0.2994
  480WAT      O 1650   3.581   3.592   5.155  0.1265  0.5570  0.0982
  480WAT     H1 1651   3.561   3.654   5.085 -0.4781 -0.1617 -0.3888
  480WAT     H2 1652   3.676   3.578   5.148 -0.1702 -1.0882 -2.0068
  481WAT      O 1653   2.158   1.100   3.585  0.1073  0.0177 -0.3997
  481WAT     H1 1654   2.081   1.073   3.535  0.5518  0.3469 -1.2951
  481WAT     H2 1655   2.122   1.150   3.659 -0.5429  0.0536 -0.7296
  482WAT      O 1656   0.141   2.710   3.488  0.2458  0.0958 -0.0737
  482WAT     H1 1657   0.195   2.684   3.413 -0.9704  0.8192 -1.2585
  482WAT     H2 1658   0.122   2.628   3.533  1.5646 -0.2733 -0.1628
  483WAT      O 1659   4.480   1.537   2.453  0.2828 -0.4643  0.2886
  483WAT     H1 1660   4.481   1.632   2.442  0.6519 -0.2512  1.9567
  483WAT     H2 1661   4.389   1.512   2.437  0.4229 -0.0292 -1.4294
  484WAT      O 1662   0.978   1.157   2.987  0.1810 -0.3240  0.5586
  484WAT     H1 1663   0.924   1.217   3.038  0.5954  0.1613  0.4238
  484WAT     H2 1664   1.068   1.181   3.007  0.3675 -1.2584  0.9337
  485WAT      O 1665   3.017   4.445   1.227 -0.1714  0.3821 -0.0926
  485WAT     H1 1666   3.098   4.418   1.183 -0.2688 -0.1559  0.0421
  485WAT     H2 1667   2.950   4.390   1.187 -0.2047 -0.4099  0.9923
  486WAT      O 1668   3.068   2.564   1.060 -0.5493 -0.3281  0.0505
  486WAT     H1 1669   3.133   2.567   0.989 -0.3790  3.1342  0.2026
  486WAT     H2 1670   2.998   2.622   1.030 -1.9038 -1.1526  1.4874
  487WAT      O 1671   0.611   3.937   1.183  0.1824  0.1728  0.0928
  487WAT     H1 1672   0.681   3.955   1.246 -1.0554  1.9538  1.0462
  487WAT     H2 1673   0.531   3.938   1.235 -0.6967 -0.4330 -1.1950
  488WAT      O 1674   0.407   3.068   0.780 -0.6156 -0.5426 -0.0860
  488WAT     H1 1675   0.355   3.015   0.839  0.9834 -1.1414  0.8484
  488WAT     H2 1676   0.483   3.014   0.758  1.1689  1.3360  1.0351
  489WAT      O 1677   2.555   1.892   5.295 -0.9659  0.1810  0.3852
  489WAT     H1 1678   2.503   1.970   5.312  0.5674  1.1101  1.1205
  489WAT     H2 1679   2.608   1.915   5.218 -0.6861 -0.2312  0.4501
  490WAT      O 1680   2.969   0.257   0.261 -0.8526 -0.2441  0.2356
  490WAT     H1 1681   2.911   0.328   0.235  0.0823  0.5756  0.3130
  490WAT     H2 1682   2.920   0.207   0.326 -1.1522  0.9323  0.9380
  491WAT      O 1683   4.089   0.970   1.129 -0.4066  0.0175 -0.8748
  491WAT     H1 1684   4.009   0.978   1.079 -0.1625  0.4627 -1.1949
  491WAT     H2 1685   4.158   0.956   1.064 -0.2629 -0.6822 -0.5861
  492WAT      O 1686   1.302   0.864   0.995 -0.4854  0.0725 -0.1437
  492WAT     H1 1687   1.323   0.943   0.945 -1.3922  0.2587 -0.2435
  492WAT     H2 1688   1.372   0.802   0.972  1.1041  1.3294  1.1131
  493WAT      O 1689   0.576   5.144   5.155 -0.2048 -0.1186  0.0055
  493WAT     H1 1690   0.575   5.051   5.132 -4.1329 -0.1485 -0.3731
  493WAT     H2 1691   0.493   5.159   5.199  0.9460  2.9724  1.4200
  494WAT      O 1692   4.132   1.658   0.426 -0.6187 -0.7769 -0.2843
  494WAT     H1 1693   4.078   1.654   0.505 -0.4771 -0.5908 -0.1774
  494WAT     H2 1694   4.071   1.683   0.357 -0.5409  0.1417 -0.0349
  495WAT      O 1695   3.788   2.020   0.669  0.3299 -0.0113  0.1310
  495WAT     H1 1696   3.778   2.076   0.746  0.2892  1.0770 -0.6529
  495WAT     H2 1697   3.708   2.034   0.618  1.2993  0.9786 -1.1846
  496WAT      O 1698   1.361   3.177   1.170 -0.0316  0.3189  0.2347
  496WAT     H1 1699   1.410   3.140   1.097  1.4669  1.7845  0.4425
  496WAT     H2 1700   1.271   3.146   1.156  0.1312  0.7838 -2.4125
  497WAT      O 1701   0.085   0.956   1.049 -0.2908 -0.3790  0.3183
  497WAT     H1 1702   0.164   0.982   1.002 -0.9380 -0.9427 -1.1488
  497WAT     H2 1703   0.111   0.878   1.098  0.3276  0.0654  0.7162
  498WAT      O 1704   0.422   5.106   4.238  0.0271  0.1679  0.0563
  498WAT     H1 1705   0.407   5.055   4.159  0.4951 -0.3939  0.3223
  498WAT     H2 1706   0.399   5.046   4.310 -1.0004  0.8737  0.3444
  499WAT      O 1707   3.014   4.112   3.192 -1.0698 -0.0581 -0.1121
  499WAT     H1 1708   3.018   4.025   3.153 -0.1865 -0.3784  0.6357
  499WAT     H2 1709   3.102   4.148   3.178 -1.7834  1.2143 -1.4985
  500WAT      O 1710   1.459   2.443   1.794 -0.2637 -0.2756 -0.5513
  500WAT     H1 1711   1.404   2.464   1.719 -0.9482 -1.5644 -0.4218
  500WAT     H2 1712   1.488   2.529   1.827 -2.2450  0.4559 -0.5670
  501WAT      O 1713   3.727   0.977   2.060 -0.2592  0.0667 -0.1318
  501WAT     H1 1714   3.707   0.896   2.013 -1.1575 -0.0577  0.4439
  501WAT     H2 1715   3.796   0.953   2.121  1.1382  0.2995 -1.5573
  502WAT      O 1716   3.483   4.038   0.653  0.5192  0.2005  0.4547
  502WAT     H1 1717   3.462   4.094   0.579 -0.5936  0.0441  0.6409
  502WAT     H2 1718   3.553   3.980   0.620  0.6767  0.7378 -0.1708
  503WAT      O 1719   3.899   0.510   1.499  0.0521  0.0809 -0.2850
  503WAT     H1 1720   3.938   0.514   1.411 -0.5777  1.6335 -0.5237
  503WAT     H2 1721   3.812   0.473   1.485 -1.4251  3.4578 -0.9083
  504WAT      O 1722   4.231   1.553   3.141 -0.2010 -0.0113  0.6122
  504WAT     H1 1723   4.196   1.478   3.188  0.7381 -0.5502  0.4693
  504WAT     H2 1724   4.230   1.527   3.049  0.2649  0.0915  0.5770
  505WAT      O 1725   1.802   2.154   0.168 -0.0795 -0.4933 -0.1958
  505WAT     H1 1726   1.842   2.227   0.215  0.0125 -0.1980 -0.7241
  505WAT     H2 1727   1.848   2.151   0.084 -2.1279  0.8093 -1.4455
  506WAT      O 1728   3.370   0.318   1.581  0.3300 -0.3301  0.2525
  506WAT     H1 1729   3.403   0.368   1.656  2.5611  1.6735 -1.8910
  506WAT     H2 1730   3.406   0.363   1.504  0.8458 -4.0796 -1.9745
  507WAT      O 1731   0.630   2.746   4.264 -0.0624 -0.2079 -0.3316
  507WAT     H1 1732   0.614   2.826   4.313 -0.9361 -0.1694 -0.6645
  507WAT     H2 1733   0.565   2.683   4.297 -0.6033 -0.2077 -1.3437
  508WAT      O 1734   1.680   4.119   4.580 -0.2505 -0.2507  0.1472
  508WAT     H1 1735   1.720   4.171   4.650 -1.5145 -0.8039  1.3237
  508WAT     H2 1736   1.689   4.028   4.609  0.4689 -0.6039 -1.1032
  509WAT      O 1737   3.745   1.397   1.823 -0.6249  0.3224  0.1617
  509WAT     H1 1738   3.705   1.381   1.737 -0.0432 -1.0457  0.1219
  509WAT     H2 1739   3.838   1.382   1.809 -0.5847 -0.4202  1.1405
  510WAT      O 1740   1.779   0.433   2.009 -0.0709  0.1304 -0.5155
  510WAT     H1 1741   1.741   0.505   1.957  0.2276  0.2536 -0.5659
  510WAT     H2 1742   1.742   0.444   2.096 -1.3499 -0.6623 -0.9376
  511WAT      O 1743   3.886   5.063   1.589  0.7897 -0.4544 -0.0783
  511WAT     H1 1744   3.895   4.996   1.520 -0.5190  0.5248 -1.2590
  511WAT     H2 1745   3.898   5.146   1.542 -1.5521  0.3066  0.5651
  512WAT      O 1746   2.039   1.668   2.034 -0.0116 -0.3936  0.2203
  512WAT     H1 1747   1.952   1.640   2.006 -0.2312  0.7576 -0.3350
  512WAT     H2 1748   2.094   1.655   1.956  0.4724 -1.6888  0.7497
  513WAT      O 1749   2.440   3.069   5.083 -0.5122 -0.1040  0.4977
  513WAT     H1 1750   2.356   3.090   5.125 -0.5822  0.2296  0.1962
  513WAT     H2 1751   2.496   3.039   5.155 -0.6899  0.2825  0.8020
  514WAT      O 1752   1.082   5.053   1.724  0.0943 -0.0189  0.7663
  514WAT     H1 1753   1.026   5.005   1.663 -0.6193  2.4733 -0.6489
  514WAT     H2 1754   1.027   5.067   1.801  0.1698 -0.9928  1.0222
  515WAT      O 1755   0.091   3.416   1.700 -0.1162  0.6446  0.2625
  515WAT     H1 1756   0.026   3.430   1.768 -2.6961 -0.4008 -1.7963
  515WAT     H2 1757   0.100   3.501   1.657 -1.2567  0.4971 -0.3089
  516WAT      O 1758   0.252   1.052   3.772 -0.1552  0.3024  0.2193
  516WAT     H1 1759   0.180   1.051   3.710 -0.4824  1.7560  0.5370
  516WAT     H2 1760   0.254   0.964   3.809  0.3916 -0.7659 -2.1868
  517WAT      O 1761   3.414   0.108   4.951 -0.4711  0.2180  0.2571
  517WAT     H1 1762   3.488   0.164   4.974 -1.0664  1.2310 -0.2026
  517WAT     H2 1763   3.345   0.133   5.012 -1.0406  0.6688 -0.5505
  518WAT      O 1764   1.016   0.376   3.078  0.6017  0.5816  0.3506
  518WAT     H1 1765   1.072   0.305   3.045 -1.5142 -0.3120 -1.5884
  518WAT     H2 1766   0.928   0.339   3.077 -0.1737  2.1467  2.6776
  519WAT      O 1767   2.212   5.017   3.454 -0.0253 -0.1604 -0.4767
  519WAT     H1 1768   2.248   4.933   3.425  2.2116  0.5742  0.0126
  519WAT     H2 1769   2.272   5.082   3.420 -0.4228  1.0994  1.1154
  520WAT      O 1770   1.002   2.729   4.751 -0.1334  0.1514 -0.1338
  520WAT     H1 1771   1.055   2.655   4.782  0.1511  0.6577  0.6216
  520WAT     H2 1772   1.060   2.805   4.759 -0.9891  0.7282  0.7850
  521WAT      O 1773   0.050   2.885   1.668  0.0823 -0.1993 -0.3788
  521WAT     H1 1774   0.081   2.973   1.691  0.0167  0.0416 -1.1786
  521WAT     H2 1775  -0.026   2.901   1.611 -1.2728 -0.7801  1.1782
  522WAT      O 1776   3.116   1.451   0.349  0.3981 -0.5351  0.3731
  522WAT     H1 1777   3.094   1.502   0.427  1.1783  1.1025 -0.4348
  522WAT     H2 1778   3.190   1.498   0.310 -0.3723 -0.9724 -1.6906
  523WAT      O 1779   1.400   3.457   1.218  0.1919 -0.0238 -0.7740
  523WAT     H1 1780   1.380   3.365   1.201  0.3862 -0.1874 -0.1286
  523WAT     H2 1781   1.353   3.478   1.298 -1.5951  1.0570 -2.0198
  524WAT      O 1782   2.886   4.879   4.864 -0.0953 -0.2849  0.7671
  524WAT     H1 1783   2.957   4.866   4.801 -0.5747  0.4078  0.0549
  524WAT     H2 1784   2.900   4.812   4.931  0.0944 -1.4487 -0.3799
  525WAT      O 1785   3.596   3.961   0.042 -0.3957 -0.0994 -0.2656
  525WAT     H1 1786   3.590   3.897  -0.028  0.4512  0.1030 -0.5421
  525WAT     H2 1787   3.541   4.034   0.014  0.0457  0.0368 -0.7885
  526WAT      O 1788   3.519   0.139   1.162 -0.6038  0.0254  0.1921
  526WAT     H1 1789   3.446   0.140   1.224 -0.8648  1.9126 -0.0686
  526WAT     H2 1790   3.488   0.085   1.089  0.0282 -2.9367  1.9764
  527WAT      O 1791   0.530   3.030   5.013 -0.0240  0.6680  0.5185
  527WAT     H1 1792   0.541   3.051   4.920 -0.3700  2.0059  0.7664
  527WAT     H2 1793   0.620   3.017   5.045  0.1438  0.8749  0.1387
  528WAT      O 1794   3.634   4.836   3.653 -0.1919 -0.3918  0.2260
  528WAT     H1 1795   3.552   4.845   3.603 -0.1757 -2.3727 -0.2330
  528WAT     H2 1796   3.702   4.862   3.590 -0.3362 -0.5410  0.0055
  529WAT      O 1797   1.332   0.533   1.986  0.1737 -0.1012 -0.1371
  529WAT     H1 1798   1.409   0.573   2.026 -0.2146  0.5925 -0.0661
  529WAT     H2 1799   1.365   0.494   1.904  0.6100  0.1228 -0.0700
  530WAT      O 1800   3.166   2.692   3.951  0.3712 -0.0076 -0.3153
  530WAT     H1 1801   3.127   2.765   3.999 -1.0861 -1.3475  0.6424
  530WAT     H2 1802   3.106   2.675   3.878  0.8707 -0.0507 -0.7239
  531WAT      O 1803   2.134   2.375   0.346 -0.2162 -0.1004  0.1555
  531WAT     H1 1804   2.038   2.369   0.353 -0.3896  1.8029 -0.0120
  531WAT     H2 1805   2.154   2.463   0.377  1.4666 -0.3695 -0.0961
  532WAT      O 1806   2.023   4.305   4.512  0.0819  0.0715  0.1949
  532WAT     H1 1807   2.101   4.313   4.567  0.1895 -0.3048  0.1003
  532WAT     H2 1808   1.955   4.353   4.559  0.8385  2.0474 -0.6551
  533WAT      O 1809   0.745   4.123   3.579  0.2083 -0.4824  0.2236
  533WAT     H1 1810   0.822   4.124   3.635 -1.8661 -1.4182  3.3724
  533WAT     H2 1811   0.731   4.030   3.559  0.1386 -0.2777 -0.7320
  534WAT      O 1812   1.142   5.094   2.708  0.0023  0.0303 -0.2923
  534WAT     H1 1813   1.126   5.179   2.749 -0.5976 -0.2483  0.0682
  534WAT     H2 1814   1.126   5.108   2.615  1.0116  0.5797 -0.3924
  535WAT      O 1815   3.207   0.055   1.143  0.7511  0.4009 -0.7418
  535WAT     H1 1816   3.227   0.098   1.225  3.2742  0.2976 -1.2149
  535WAT     H2 1817   3.112   0.041   1.145  0.8734 -0.8128  2.7234
  536WAT      O 1818   0.491   4.406   3.683  0.1464  0.0185  0.0291
  536WAT     H1 1819   0.476   4.377   3.593 -1.9606 -0.9795  0.6582
  536WAT     H2 1820   0.475   4.501   3.681 -2.8337 -0.3890 -0.1615
  537WAT      O 1821   3.247   1.539   2.811 -0.1208 -0.5256 -0.2977
  537WAT     H1 1822   3.226   1.450   2.839 -0.4930  0.3993  2.5940
  537WAT     H2 1823   3.335   1.532   2.773  0.8218 -1.7874  1.9778
  538WAT      O 1824   4.290   0.940   0.277 -1.0994 -0.5814  0.2490
  538WAT     H1 1825   4.215   0.886   0.299  0.0019 -1.5349  1.8406
  538WAT     H2 1826   4.354   0.923   0.346  0.9027 -0.4314 -1.4308
  539WAT      O 1827   2.147   0.041   2.197  0.5476 -0.2672 -0.0160
  539WAT     H1 1828   2.229   0.079   2.166  0.1154  2.0644  1.4814
  539WAT     H2 1829   2.088   0.115   2.206 -0.9890 -1.5668  1.1821
  540WAT      O 1830   0.127   4.278   4.305  0.7229  0.2469  0.0990
  540WAT     H1 1831   0.031   4.279   4.314  0.7633  2.7734  0.9507
  540WAT     H2 1832   0.158   4.300   4.393  2.0541  0.5967 -0.4471
  541WAT      O 1833   1.307   4.168   0.040 -0.2950 -0.0040  0.2600
  541WAT     H1 1834   1.337   4.096   0.095  1.1249  0.4846  0.1581
  541WAT     H2 1835   1.246   4.128  -0.022 -1.1879 -0.7225  1.5525
  542WAT      O 1836   0.974   3.760   0.084 -0.4160  0.0883 -0.0111
  542WAT     H1 1837   1.005   3.669   0.083 -2.3097 -0.6045 -1.5094
  542WAT     H2 1838   0.962   3.780   0.177  3.3050  0.0958  0.6457
  543WAT      O 1839   4.003   4.959   2.745  0.1884  0.6585 -0.3611
  543WAT     H1 1840   4.036   5.033   2.693  1.4353  1.0763  0.9634
  543WAT     H2 1841   3.938   4.998   2.803  2.7422  1.3646  2.2504
  544WAT      O 1842   4.514   1.389   1.785  0.1041  0.2012 -0.4962
  544WAT     H1 1843   4.430   1.427   1.759 -0.0295  1.1843  1.2473
  544WAT     H2 1844   4.499   1.355   1.873  2.2796  3.2268  1.2117
  545WAT      O 1845   0.546   3.635   0.797  0.2261 -0.2677  0.7343
  545WAT     H1 1846   0.490   3.621   0.873  0.6979  0.5790  1.2430
  545WAT     H2 1847   0.516   3.718   0.759 -3.0275 -2.6420 -2.6809
  546WAT      O 1848   1.325   4.026   1.204 -0.3234 -0.1717  0.1544
  546WAT     H1 1849   1.411   4.059   1.177  0.6015 -0.8816  2.0462
  546WAT     H2 1850   1.267   4.102   1.196  0.8505  0.7840  0.4640
  547WAT      O 1851   0.181   4.450   2.924  0.4025  0.2531 -0.2330
  547WAT     H1 1852   0.123   4.519   2.889  1.4311  0.2421 -2.1052
  547WAT     H2 1853   0.269   4.484   2.908  0.9157 -1.0845 -0.3073
  548WAT      O 1854   2.156   2.124   2.467  0.7700 -0.3168  0.4928
  548WAT     H1 1855   2.155   2.055   2.534  0.9067 -0.7931  0.0140
  548WAT     H2 1856   2.064   2.136   2.444  0.6488  0.3786  1.2912
  549WAT      O 1857   3.106   4.793   1.109 -0.2445 -0.3374  0.2286
  549WAT     H1 1858   3.145   4.706   1.099 -3.2652 -1.9794  1.4445
  549WAT     H2 1859   3.132   4.840   1.030  2.2016 -1.9886 -0.0764
  550WAT      O 1860   2.254   4.978   3.849  0.0379 -0.2021 -0.1458
  550WAT     H1 1861   2.313   5.007   3.918  1.2833 -1.3212 -0.6947
  550WAT     H2 1862   2.288   5.020   3.770 -1.4926  1.2328 -0.1070
  551WAT      O 1863   0.413   3.050   3.462  0.5035 -0.3433 -0.3882
  551WAT     H1 1864   0.327   3.092   3.465  0.7359  0.1724 -0.7825
  551WAT     H2 1865   0.429   3.036   3.368  1.6143  1.1962 -0.4640
  552WAT      O 1866   1.141   3.692   4.785  0.0909  0.7156  0.3891
  552WAT     H1 1867   1.141   3.681   4.689  1.0055 -1.7074  0.5823
  552WAT     H2 1868   1.234   3.693   4.808 -0.1350  0.6423  1.3166
  553WAT      O 1869   0.989   2.786   0.780  0.0853 -0.2047  0.0187
  553WAT     H1 1870   1.009   2.760   0.870  0.3387 -0.9886 -0.2526
  553WAT     H2 1871   0.960   2.705   0.737 -2.3743  0.5993  0.0140
  554WAT      O 1872   3.418   2.576   5.145 -0.4585 -0.4952 -0.3480
  554WAT     H1 1873   3.412   2.492   5.192 -1.6562 -0.4995 -0.4638
  554WAT     H2 1874   3.498   2.569   5.094  0.3292 -0.9125  0.8854
  555WAT      O 1875   2.639   3.893   3.896  0.3912 -0.1289 -0.0426
  555WAT     H1 1876   2.548   3.909   3.921  0.5422  2.2105 -0.7592
  555WAT     H2 1877   2.636   3.892   3.800  1.0157 -0.9553 -0.0640
  556WAT      O 1878   0.933   4.807   1.238  0.3082 -0.4308  0.4465
  556WAT     H1 1879   0.918   4.722   1.279  1.0075  0.4191  2.6467
  556WAT     H2 1880   0.858   4.821   1.181 -0.1666 -2.1948  0.6129
  557WAT      O 1881   3.730   0.342   4.330 -0.3649  0.4619 -0.1921
  557WAT     H1 1882   3.797   0.311   4.391 -0.0109  0.6684 -0.4743
  557WAT     H2 1883   3.659   0.372   4.387  0.0139  0.7677  0.1263
  558WAT      O 1884   2.890   4.693   0.901  0.1824 -0.4442 -0.2240
  558WAT     H1 1885   2.894   4.608   0.857 -1.0292 -1.5688  1.6869
  558WAT     H2 1886   2.948   4.683   0.977  2.3322  1.4871 -1.4887
  559WAT      O 1887   0.261   0.078   0.820 -0.3133 -0.5142 -0.3378
  559WAT     H1 1888   0.198   0.030   0.766  0.9802 -0.5255 -1.9292
  559WAT     H2 1889   0.339   0.086   0.764  0.0801  2.0525  0.4291
  560WAT      O 1890   1.638   2.821   3.723 -0.3412 -0.1703 -0.0562
  560WAT     H1 1891   1.564   2.761   3.721 -0.1763 -0.3655 -0.3086
  560WAT     H2 1892   1.639   2.862   3.636  0.8942 -1.4501 -0.6854
  561WAT      O 1893   1.840   2.630   3.630  0.0851  0.3412  0.2538
  561WAT     H1 1894   1.764   2.688   3.623  0.2151  0.5109  0.2604
  561WAT     H2 1895   1.809   2.546   3.596 -0.1974  0.3261  0.5432
  562WAT      O 1896   0.900   5.018   3.675  0.2115  0.4551  0.2481
  562WAT     H1 1897   0.974   5.035   3.734  0.4415  0.2080  0.0326
  562WAT     H2 1898   0.919   5.068   3.596  0.0371  0.5709  0.2791
  563WAT      O 1899   3.120   4.461   2.059  0.2096 -0.2917 -0.0858
  563WAT     H1 1900   3.038   4.442   2.104 -1.4930  0.4958 -2.6237
  563WAT     H2 1901   3.164   4.525   2.115 -2.5043  1.8038 -0.1474
  564WAT      O 1902   4.483   0.859   3.946  0.3021 -0.0290 -0.0331
  564WAT     H1 1903   4.524   0.864   4.033 -2.6403 -1.1905  1.5665
  564WAT     H2 1904   4.499   0.769   3.918 -1.8656 -0.8407  1.1006
  565WAT      O 1905   1.880   0.775   4.988  0.2891 -0.2531  0.0427
  565WAT     H1 1906   1.924   0.779   5.073  0.6409 -0.6853 -0.1135
  565WAT     H2 1907   1.946   0.738   4.929 -0.4401 -1.3973 -0.0912
  566WAT      O 1908   0.505   3.440   0.525  0.0703  0.2730 -0.4319
  566WAT     H1 1909   0.551   3.413   0.604 -0.6038 -0.1047 -0.1583
  566WAT     H2 1910   0.490   3.358   0.477 -3.5706 -0.2499  1.2384
  567WAT      O 1911   2.096   2.442   3.038  0.0327  0.5601  0.3852
  567WAT     H1 1912   2.071   2.518   2.985 -0.1360 -0.1179 -0.5337
  567WAT     H2 1913   2.016   2.416   3.082 -0.5120 -0.5076 -1.1500
  568WAT      O 1914   3.519   0.146   1.941 -0.1200  0.0272 -0.0774
  568WAT     H1 1915   3.499   0.234   1.909  1.3123  1.4918  2.6911
  568WAT     H2 1916   3.615   0.142   1.944 -0.1638 -1.1075  1.0324
  569WAT      O 1917   3.387   2.056   1.090 -0.1041  0.2387 -0.2323
  569WAT     H1 1918   3.419   2.115   1.158 -1.4525 -1.0980  1.6460
  569WAT     H2 1919   3.296   2.081   1.077 -0.0398  0.0528 -1.1179
  570WAT      O 1920   1.138   0.499   2.172  0.0678 -0.2659 -0.4874
  570WAT     H1 1921   1.209   0.466   2.228  0.6856 -1.2189 -1.7632
  570WAT     H2 1922   1.181   0.520   2.089 -1.2754 -1.9273 -1.6791
  571WAT      O 1923   4.347   4.297   3.856  0.5161 -0.6321 -0.4209
  571WAT     H1 1924   4.423   4.264   3.807  0.4147 -0.2508 -0.8427
  571WAT     H2 1925   4.383   4.319   3.943  0.8517 -0.6255 -0.5587
  572WAT      O 1926   1.971   1.380   1.268  0.1805  0.1905  0.3791
  572WAT     H1 1927   2.010   1.297   1.239 -0.7750 -0.1420  0.0181
  572WAT     H2 1928   1.882   1.357   1.293  0.0244  1.0471  0.6327
  573WAT      O 1929   2.280   5.050   3.057  0.4833 -0.1764  0.0444
  573WAT     H1 1930   2.302   5.052   3.150 -0.4906 -1.2637  0.3273
  573WAT     H2 1931   2.364   5.038   3.013  0.8649 -0.5318  0.8437
  574WAT      O 1932   0.405   4.964   0.157  0.6013 -0.4407 -0.0161
  574WAT     H1 1933   0.323   5.004   0.129 -0.2569 -1.9873  0.1556
  574WAT     H2 1934   0.439   5.023   0.225 -1.5682 -0.9077  1.5683
  575WAT      O 1935   1.028   2.350   5.045 -0.1927 -0.5925 -0.4331
  575WAT     H1 1936   0.945   2.306   5.063 -0.3333  0.2597  1.2484
  575WAT     H2 1937   1.037   2.413   5.116  1.3061  0.2009 -1.2756
  576WAT      O 1938   4.271   3.088   4.532 -0.4014  0.5522  0.3146
  576WAT     H1 1939   4.295   3.132   4.451  0.7032 -1.4824 -0.5403
  576WAT     H2 1940   4.353   3.078   4.580 -0.3380 -1.6806 -0.1511
  577WAT      O 1941   3.349   0.077   2.850 -0.3409  0.5947 -0.3120
  577WAT     H1 1942   3.305   0.015   2.908 -0.6603  0.9496 -0.1639
  577WAT     H2 1943   3.278   0.135   2.820  0.1873  1.9585  0.9091
  578WAT      O 1944   2.380   1.652   3.307  0.2064  0.2905 -0.3684
  578WAT     H1 1945   2.368   1.696   3.391  0.9815  0.5412 -0.3846
  578WAT     H2 1946   2.441   1.581   3.325  0.1824  0.1901 -0.6757
  579WAT      O 1947   3.886   3.832   0.073  0.4370  0.5135  0.1399
  579WAT     H1 1948   3.796   3.864   0.062  0.3880  0.7255  1.0382
  579WAT     H2 1949   3.919   3.883   0.147  1.0177 -0.1623  0.3473
  580WAT      O 1950   2.042   0.121   3.485  0.1993  0.0962 -0.0293
  580WAT     H1 1951   2.065   0.028   3.494  0.5059  0.1518 -0.1853
  580WAT     H2 1952   2.082   0.146   3.401 -0.1396  0.2930 -0.1331
  581WAT      O 1953   1.590   0.270   2.513 -0.4135  0.1853  0.2462
  581WAT     H1 1954   1.519   0.210   2.536  0.1726 -1.0783 -1.1106
  581WAT     H2 1955   1.658   0.253   2.578 -1.0364  0.9082  1.1277
  582WAT      O 1956   0.823   4.004   1.415 -0.1270  0.5187 -0.2457
  582WAT     H1 1957   0.750   3.992   1.476  0.3010 -0.0848  0.1547
  582WAT     H2 1958   0.798   4.081   1.364 -0.4679  1.0626  0.7144
  583WAT      O 1959   3.070   5.113   2.745  0.3642 -0.0670  0.4286
  583WAT     H1 1960   3.080   5.092   2.653  0.2828 -1.3593  0.6956
  583WAT     H2 1961   3.124   5.048   2.790 -0.3848 -0.0766  1.3366
  584WAT      O 1962   4.198   1.020   4.419 -0.1815 -0.4774 -0.7829
  584WAT     H1 1963   4.196   1.110   4.386 -2.0642 -0.7934 -1.6688
  584WAT     H2 1964   4.136   0.973   4.363  0.3083 -2.1901  0.0637
  585WAT      O 1965   2.380   0.505   2.780 -0.0082 -0.3280  0.5894
  585WAT     H1 1966   2.392   0.471   2.692 -0.1805  0.4780  0.2494
  585WAT     H2 1967   2.429   0.444   2.836  1.0785 -0.1859 -0.1813
  586WAT      O 1968   1.659   1.673   0.676  0.0252 -0.0325  0.1751
  586WAT     H1 1969   1.733   1.623   0.709 -0.3225 -1.0938 -0.6025
  586WAT     H2 1970   1.678   1.688   0.584 -1.0963 -1.0541 -0.2464
  587WAT      O 1971   3.642   1.989   3.464 -0.8642 -0.2121 -0.0838
  587WAT     H1 1972   3.723   1.961   3.508 -1.5896 -0.5109  1.1101
  587WAT     H2 1973   3.636   2.083   3.482 -0.9970 -0.2744  0.2185
  588WAT      O 1974   3.088   2.274   3.977 -0.2896  0.0848  0.5290
  588WAT     H1 1975   3.112   2.189   4.015 -3.9928 -0.5686  1.8717
  588WAT     H2 1976   3.155   2.334   4.010  2.4085 -2.1775 -0.3619
  589WAT      O 1977   3.556   2.115   4.003  0.1746 -0.5745  0.2830
  589WAT     H1 1978   3.632   2.165   4.034  1.0159 -1.5471 -0.1370
  589WAT     H2 1979   3.528   2.160   3.924  0.4768 -0.3450  0.3033
  590WAT      O 1980   2.229   1.761   0.742 -0.2419 -0.1016 -0.2915
  590WAT     H1 1981   2.220   1.749   0.647  0.2812  1.0481 -0.5122
  590WAT     H2 1982   2.303   1.821   0.750 -1.6260  1.5583  0.7336
  591WAT      O 1983   1.311   4.634   0.473 -0.0021 -0.8691 -0.1001
  591WAT     H1 1984   1.379   4.679   0.422  0.0412 -1.0150 -0.1718
  591WAT     H2 1985   1.345   4.631   0.562 -0.9164  1.1341  0.3744
  592WAT      O 1986   0.225   2.514   4.711 -0.0728  0.3553 -0.1716
  592WAT     H1 1987   0.153   2.479   4.764 -1.9045  0.0428 -2.7131
  592WAT     H2 1988   0.189   2.593   4.672  0.2101 -0.7915 -2.9647
  593WAT      O 1989   3.324   4.425   4.832  0.8424 -0.0380 -0.6225
  593WAT     H1 1990   3.369   4.487   4.774  2.2574 -0.1440  0.3217
  593WAT     H2 1991   3.359   4.443   4.919  0.3155 -1.2932 -0.1202
  594WAT      O 1992   0.265   2.759   0.347 -0.0253 -0.0669  0.6743
  594WAT     H1 1993   0.281   2.723   0.434  1.1868 -0.9766  0.0902
  594WAT     H2 1994   0.352   2.773   0.310 -0.5122  0.9685 -0.1376
  595WAT      O 1995   3.787   2.297   3.109  0.1065 -0.4859  0.2134
  595WAT     H1 1996   3.881   2.290   3.123 -0.2641 -0.6099  3.6360
  595WAT     H2 1997   3.750   2.223   3.158 -1.8219  0.0171 -0.3762
  596WAT      O 1998   2.961   1.124   2.653 -0.3103 -0.2556  0.1086
  596WAT     H1 1999   2.870   1.120   2.625 -0.6411  0.5800  0.9870
  596WAT     H2 2000   2.958   1.167   2.739  0.7216 -2.0810  1.1115
  597WAT      O 2001   0.300   2.123   4.908  0.7773 -0.0411  0.3606
  597WAT     H1 2002   0.231   2.120   4.842 -0.5400  1.1838  1.6345
  597WAT     H2 2003   0.278   2.052   4.969  1.1123 -0.1713  0.3344
  598WAT      O 2004   1.550   2.733   0.296 -0.4586  0.0724  0.0114
  598WAT     H1 2005   1.460   2.722   0.327 -0.1741  0.5640  1.0412
  598WAT     H2 2006   1.566   2.828   0.301 -0.6446  0.2985 -2.3828
  599WAT      O 2007   3.979   3.003   4.756  0.4361 -0.2559  0.3144
  599WAT     H1 2008   4.032   2.961   4.689 -1.0178  0.2336 -1.1974
  599WAT     H2 2009   4.016   3.091   4.763 -0.2948  0.1774 -0.9349
  600WAT      O 2010   4.283   4.530   2.624 -0.6500 -0.0407 -0.0088
  600WAT     H1 2011   4.297   4.481   2.706 -2.6920 -1.6462 -0.5353
  600WAT     H2 2012   4.188   4.542   2.619 -0.6023 -0.2040 -2.2670
  601WAT      O 2013   3.701   3.591   4.723  0.1459  0.6019  0.0559
  601WAT     H1 2014   3.686   3.499   4.747  0.6984  0.4838 -0.0253
  601WAT     H2 2015   3.796   3.602   4.733  0.0938  1.1368 -0.0337
  602WAT      O 2016   2.310   4.359   0.281 -0.5154 -0.5122  0.7546
  602WAT     H1 2017   2.220   4.369   0.312 -1.2823  1.4616 -1.7151
  602WAT     H2 2018   2.362   4.410   0.343 -1.2719 -0.6444  1.5227
  603WAT      O 2019   3.796   3.401   2.705  0.1245  0.4959  0.2662
  603WAT     H1 2020   3.758   3.483   2.672 -1.5003 -1.0625 -2.0437
  603WAT     H2 2021   3.751   3.333   2.655 -0.5906 -2.0300  3.9900
  604WAT      O 2022   2.006   1.798   2.410  0.0562  0.5432  0.4132
  604WAT     H1 2023   2.070   1.815   2.480 -0.4775 -2.2417  1.7119
  604WAT     H2 2024   2.060   1.786   2.332  0.9246  0.8317  0.9487
  605WAT      O 2025   4.134   2.797   3.968  0.1965  0.4283  0.0680
  605WAT     H1 2026   4.115   2.733   3.899  1.3113  1.3219 -1.1102
  605WAT     H2 2027   4.175   2.744   4.037  0.6987 -0.2286 -0.7010
  606WAT      O 2028   0.889   4.574   2.445  0.0068 -0.5450 -0.1289
  606WAT     H1 2029   0.803   4.578   2.488 -0.1547 -0.3655 -0.4701
  606WAT     H2 2030   0.946   4.534   2.511 -0.1268  0.1972  0.4443
  607WAT      O 2031   4.451   0.150   2.111 -0.4244 -0.1364  0.2949
  607WAT     H1 2032   4.454   0.054   2.109 -3.2655 -0.4052 -3.8096
  607WAT     H2 2033   4.513   0.176   2.043 -0.4797  0.8825  0.6247
  608WAT      O 2034   0.015   1.579   0.673 -0.4588  0.2030  0.5614
  608WAT     H1 2035   0.104   1.610   0.687 -0.2686  0.3977 -0.9143
  608WAT     H2 2036  -0.031   1.655   0.636 -0.9322 -0.2391  0.2258
  609WAT      O 2037   3.012   0.739   4.648  0.0669  0.1197  0.1451
  609WAT     H1 2038   2.946   0.690   4.698 -0.2947 -0.7817 -1.1720
  609WAT     H2 2039   2.961   0.802   4.597  0.4706  1.3427  1.1995
  610WAT      O 2040   1.457   2.457   4.504 -0.2356 -0.3024  0.6294
  610WAT     H1 2041   1.460   2.540   4.458  0.3707 -1.3446 -1.3396
  610WAT     H2 2042   1.364   2.438   4.516 -0.3795  0.4332  0.6830
  611WAT      O 2043   2.840   3.185   2.620  0.0851 -0.0739  0.6571
  611WAT     H1 2044   2.792   3.237   2.556 -0.5969 -0.9009  0.4745
  611WAT     H2 2045   2.806   3.096   2.609  0.0926 -0.2788  2.0246
  612WAT      O 2046   2.985   3.868   3.066 -0.1577 -0.0098  0.0444
  612WAT     H1 2047   3.042   3.793   3.053 -0.4634  0.1959 -3.3012
  612WAT     H2 2048   2.908   3.833   3.111  0.6780 -1.1713  0.6206
  613WAT      O 2049   2.149   1.939   4.687 -1.1425 -0.4825 -0.0182
  613WAT     H1 2050   2.241   1.953   4.662 -1.2575  1.1672  0.3693
  613WAT     H2 2051   2.150   1.855   4.732  0.1975 -0.4797  0.0141
  614WAT      O 2052   0.097   4.423   1.080 -0.5079  0.0740 -0.0825
  614WAT     H1 2053   0.126   4.363   1.149 -0.9412 -0.3320 -0.2527
  614WAT     H2 2054   0.045   4.488   1.127  2.4500  2.1771  0.6244
  615WAT      O 2055   2.095   3.191   3.274 -0.1585 -0.5049 -0.2088
  615WAT     H1 2056   2.179   3.151   3.297  0.8339  1.1498 -0.7866
  615WAT     H2 2057   2.116   3.249   3.201 -1.8671 -0.2293 -0.5176
  616WAT      O 2058   0.333   0.795   3.980  0.3878 -0.4797  0.1484
  616WAT     H1 2059   0.290   0.837   4.055  1.9053 -1.0638  1.4146
  616WAT     H2 2060   0.269   0.731   3.949 -1.0867  1.2099 -0.4181
  617WAT      O 2061   3.961   2.053   0.460 -0.1524  0.2208  0.2875
  617WAT     H1 2062   3.899   2.071   0.531 -0.7668 -1.0676  0.1166
  617WAT     H2 2063   3.911   2.002   0.397  0.9454 -0.4306 -0.0839
  618WAT      O 2064   1.856   3.672   4.674 -0.8205  0.1717  0.5629
  618WAT     H1 2065   1.818   3.649   4.759 -1.0999 -0.8307  0.1789
  618WAT     H2 2066   1.950   3.677   4.691 -0.9318  0.6265  1.0709
  619WAT      O 2067   1.015   1.571   2.206 -0.5170  0.1610  0.0408
  619WAT     H1 2068   1.057   1.530   2.280  1.5756  1.5485 -0.3039
  619WAT     H2 2069   1.071   1.645   2.183 -1.4033  0.1648 -2.5356
  620WAT      O 2070   1.844   4.999   0.142  0.3209 -0.1389 -0.0490
  620WAT     H1 2071   1.765   5.049   0.125  0.2990 -0.6533 -1.5568
  620WAT     H2 2072   1.887   5.046   0.214  0.3692  2.1579 -1.4717
  621WAT      O 2073   4.436   4.244   2.045 -0.2737  0.5000  0.3712
  621WAT     H1 2074   4.414   4.330   2.010 -1.1642 -0.2838 -1.1226
  621WAT     H2 2075   4.453   4.191   1.967  0.6092 -0.5923  1.2779
  622WAT      O 2076   0.168   5.063   0.568  0.5958  0.0333  0.2835
  622WAT     H1 2077   0.124   5.005   0.630  2.0828  0.5793  1.9530
  622WAT     H2 2078   0.236   5.008   0.528 -0.2922 -0.2888 -0.8429
  623WAT      O 2079   1.459   3.262   5.026 -0.2475 -0.3095  0.2327
  623WAT     H1 2080   1.480   3.355   5.034  0.0013 -0.3750  0.3516
  623WAT     H2 2081   1.405   3.256   4.948 -1.3001  0.1071  0.9148
  624WAT      O 2082   0.527   2.221   3.576  0.1748  0.2845 -0.2025
  624WAT     H1 2083   0.548   2.299   3.628  2.3650  0.9379 -1.8989
  624WAT     H2 2084   0.538   2.250   3.485 -0.3549 -1.6499 -0.9256
  625WAT      O 2085   2.118   0.441   4.419 -0.7321 -0.4205  0.0747
  625WAT     H1 2086   2.051   0.484   4.366 -0.4647  0.4721  0.4545
  625WAT     H2 2087   2.096   0.348   4.413  0.1425 -0.5528 -2.8340
  626WAT      O 2088   3.608   4.150   3.554 -0.0756 -0.0516 -0.1400
  626WAT     H1 2089   3.593   4.240   3.525  0.0675 -0.1939 -0.6634
  626WAT     H2 2090   3.537   4.100   3.513 -0.0362 -0.2088 -0.0151
  627WAT      O 2091   2.459   2.780   1.550 -0.3987 -0.3884  0.0045
  627WAT     H1 2092   2.410   2.859   1.524 -0.9549 -0.7480 -0.0682
  627WAT     H2 2093   2.545   2.812   1.575 -0.3748  0.1631 -0.7437
  628WAT      O 2094   2.343   2.335   0.650  0.0664  0.3580  0.7529
  628WAT     H1 2095   2.254   2.304   0.635  0.1238  0.7090 -0.3695
  628WAT     H2 2096   2.355   2.327   0.745  0.1661 -3.2983  0.6101
  629WAT      O 2097   2.674   4.451   0.627  0.0804  0.4930 -0.2513
  629WAT     H1 2098   2.594   4.488   0.664 -0.2429  0.8260 -1.2391
  629WAT     H2 2099   2.718   4.526   0.587  0.4478  0.1602 -0.4789
  630WAT      O 2100   3.466   0.060   4.392  0.4965 -0.3063 -0.1669
  630WAT     H1 2101   3.419   0.144   4.392  2.0189  0.5702 -0.3435
  630WAT     H2 2102   3.414   0.005   4.451  0.1375  1.1484  0.9424
  631WAT      O 2103   3.781   1.218   2.326 -0.5684  0.0220 -0.0403
  631WAT     H1 2104   3.688   1.196   2.321 -1.2529  2.8000 -1.6319
  631WAT     H2 2105   3.808   1.187   2.413 -2.2863 -3.0416 -0.4637
  632WAT      O 2106   1.659   1.095   0.471  0.2211  0.2526 -0.1683
  632WAT     H1 2107   1.602   1.018   0.476  0.2036  0.2907  0.2839
  632WAT     H2 2108   1.642   1.142   0.553  0.2931  0.6949 -0.4053
  633WAT      O 2109   2.158   0.456   3.393  0.1625 -0.2697  0.5610
  633WAT     H1 2110   2.117   0.374   3.366 -1.8940  0.6153  0.8344
  633WAT     H2 2111   2.140   0.517   3.321 -0.1820  0.4982  1.2816
  634WAT      O 2112   4.103   2.549   3.880  0.2447  0.1985  0.0203
  634WAT     H1 2113   4.129   2.538   3.972  1.1061  0.6950 -0.1454
  634WAT     H2 2114   4.017   2.507   3.874  0.3813 -0.2492  0.9426
  635WAT      O 2115   0.817   2.637   0.338 -0.3926 -0.4216 -0.2549
  635WAT     H1 2116   0.843   2.728   0.326 -0.7939 -0.1223  0.9619
  635WAT     H2 2117   0.732   2.642   0.382 -0.8745 -1.3870 -1.0289
  636WAT      O 2118   2.444   3.949   3.547 -0.1502 -0.0568  0.4384
  636WAT     H1 2119   2.392   3.886   3.597 -0.0939 -0.9497 -0.5919
  636WAT     H2 2120   2.380   3.994   3.492 -0.0895  0.2658  0.6281
  637WAT      O 2121   3.763   3.114   4.484 -0.1508  0.6492 -0.1461
  637WAT     H1 2122   3.758   3.178   4.555  0.6674 -1.7722  2.2741
  637WAT     H2 2123   3.853   3.081   4.488 -0.9747 -1.7840 -0.1303
  638WAT      O 2124   1.655   3.913   1.191 -0.0600 -0.1668  0.3432
  638WAT     H1 2125   1.610   3.833   1.216  1.5993 -1.1700  0.2262
  638WAT     H2 2126   1.746   3.887   1.179  0.7783  1.9705  1.4975
  639WAT      O 2127   2.607   1.872   4.447 -0.1792 -0.2441 -0.6314
  639WAT     H1 2128   2.665   1.942   4.478 -1.3034 -0.5261  2.4694
  639WAT     H2 2129   2.666   1.811   4.403  1.5525  0.5364  0.4855
  640WAT      O 2130   0.852   3.096   3.516 -0.3166  0.3868  0.4455
  640WAT     H1 2131   0.798   3.017   3.524  0.7898 -0.5074 -0.4723
  640WAT     H2 2132   0.887   3.109   3.604  0.9659 -1.2842  0.2328
  641WAT      O 2133   1.602   0.814   1.343  0.0181  0.1135  0.3606
  641WAT     H1 2134   1.630   0.755   1.274 -0.4659 -0.9168  1.0144
  641WAT     H2 2135   1.560   0.887   1.297  1.0474  0.2029 -0.4762
  642WAT      O 2136   2.351   4.696   3.897 -0.5088  0.4944 -0.3596
  642WAT     H1 2137   2.312   4.610   3.913 -2.2953  1.1713 -0.8082
  642WAT     H2 2138   2.309   4.727   3.817  0.4368  1.5988 -0.4584
  643WAT      O 2139   4.409   2.672   4.349 -0.5218 -0.2987 -0.2326
  643WAT     H1 2140   4.314   2.664   4.354 -0.6614 -0.4633 -2.3976
  643WAT     H2 2141   4.439   2.588   4.315  0.3214  0.0402 -0.3709
  644WAT      O 2142   2.711   2.039   0.717 -0.6464  0.5659  0.0254
  644WAT     H1 2143   2.676   2.111   0.663 -1.2458  0.5932  0.4430
  644WAT     H2 2144   2.728   2.079   0.802 -1.5203  0.0951  0.4339
  645WAT      O 2145   4.321   1.587   1.999  0.2027  0.0586 -0.7605
  645WAT     H1 2146   4.353   1.587   1.908  1.8557 -1.4683 -0.2411
  645WAT     H2 2147   4.289   1.498   2.013  0.7251  0.0355  0.3945
  646WAT      O 2148   4.113   3.357   1.399  0.2220 -0.2720 -0.5361
  646WAT     H1 2149   4.201   3.335   1.370  0.3264  0.8071 -1.0896
  646WAT     H2 2150   4.070   3.391   1.320 -0.4495 -0.1132 -0.1072
  647WAT      O 2151   0.565   3.857   2.833 -0.4066  0.1101 -0.4528
  647WAT     H1 2152   0.628   3.805   2.883 -1.8175 -1.3865 -0.1568
  647WAT     H2 2153   0.480   3.821   2.856 -1.2182  0.1846 -2.9835
  648WAT      O 2154   4.340   3.667   3.910 -0.2202 -0.1221  0.5729
  648WAT     H1 2155   4.382   3.708   3.834 -4.1279  0.0735 -1.7577
  648WAT     H2 2156   4.291   3.738   3.951 -0.7268 -0.8673  1.2913
  649WAT      O 2157   2.347   1.525   0.618  0.3656  0.4438 -0.2242
  649WAT     H1 2158   2.319   1.506   0.707  0.3651 -1.8950 -0.6614
  649WAT     H2 2159   2.443   1.516   0.620  0.2246 -2.1851 -0.8979
  650WAT      O 2160   2.655   1.177   0.515  0.1114  0.1121  0.4252
  650WAT     H1 2161   2.634   1.099   0.463 -0.0753 -0.2127  0.9866
  650WAT     H2 2162   2.683   1.242   0.450  0.3229 -0.4366 -0.0372
  651WAT      O 2163   1.142   4.692   4.352  0.5739 -0.2515  0.0166
  651WAT     H1 2164   1.201   4.724   4.421 -0.3391  1.7871 -0.0577
  651WAT     H2 2165   1.178   4.730   4.272 -0.2732  0.1971 -0.1575
  652WAT      O 2166   2.776   3.993   3.637 -0.1580  0.0780 -0.0831
  652WAT     H1 2167   2.737   4.074   3.667  1.0387 -0.2736  2.7400
  652WAT     H2 2168   2.858   3.986   3.686 -0.5395 -3.1490  0.3017
  653WAT      O 2169   1.647   0.936   1.575  0.1079  0.4459 -0.3200
  653WAT     H1 2170   1.608   0.858   1.615 -0.4424  0.4458 -0.8441
  653WAT     H2 2171   1.662   0.911   1.484  3.3148 -0.2873  0.2879
  654WAT      O 2172   1.358   1.221   4.974  0.7817  0.4421  0.2271
  654WAT     H1 2173   1.443   1.227   4.929  0.2595  0.2821 -0.8002
  654WAT     H2 2174   1.297   1.263   4.914 -0.7689 -3.5760 -1.3451
  655WAT      O 2175   4.179   4.170   3.669 -0.2445 -0.4666 -0.2236
  655WAT     H1 2176   4.234   4.220   3.729 -0.7399 -0.7872  0.5214
  655WAT     H2 2177   4.139   4.235   3.613 -1.5160  0.0918  1.2547
  656WAT      O 2178   4.145   4.961   0.036  0.0565 -0.0157 -0.4111
  656WAT     H1 2179   4.126   5.041  -0.013 -1.5065 -0.3063 -0.3493
  656WAT     H2 2180   4.081   4.898   0.003  0.9363 -1.0982 -0.0962
  657WAT      O 2181   0.982   1.812   3.032  0.2841  0.0005  0.0858
  657WAT     H1 2182   1.027   1.729   3.050 -0.3807 -0.2001  0.9042
  657WAT     H2 2183   0.982   1.857   3.117  0.9872  1.0285 -0.4340
  658WAT      O 2184   1.209   0.240   0.141  0.6594 -0.3999 -0.2012
  658WAT     H1 2185   1.259   0.227   0.223 -0.6984 -2.3762  0.4007
  658WAT     H2 2186   1.240   0.170   0.084  0.6702  0.1852 -0.9222
  659WAT      O 2187   4.291   4.384   3.343  0.2393 -0.0712 -0.7534
  659WAT     H1 2188   4.245   4.301   3.329 -0.1071  0.3160 -1.9617
  659WAT     H2 2189   4.352   4.390   3.270  4.4386 -1.9654  2.1781
  660WAT      O 2190   3.500   2.682   1.812  0.6593 -0.7345  0.0934
  660WAT     H1 2191   3.547   2.762   1.835  1.1817  0.3162 -3.9878
  660WAT     H2 2192   3.567   2.626   1.773 -0.6083 -0.9874 -1.8246
  661WAT      O 2193   1.260   0.737   0.027 -0.0275 -0.3416  0.3933
  661WAT     H1 2194   1.189   0.689  -0.015 -0.6979  2.3362 -1.9157
  661WAT     H2 2195   1.224   0.766   0.110 -2.0139  1.4112 -0.9569
  662WAT      O 2196   3.752   4.588   0.894 -0.1003  0.2274 -0.1069
  662WAT     H1 2197   3.683   4.522   0.887 -0.3968  0.4461  0.6651
  662WAT     H2 2198   3.771   4.593   0.987  1.1639 -0.0291 -0.3420
  663WAT      O 2199   1.725   2.787   2.764 -0.0622  0.3116 -0.2079
  663WAT     H1 2200   1.649   2.786   2.706  0.5513 -0.6773 -1.0402
  663WAT     H2 2201   1.796   2.822   2.710  0.1443  0.9510  0.4674
  664WAT      O 2202   2.293   1.519   1.355 -0.1956  0.0531 -0.0325
  664WAT     H1 2203   2.244   1.459   1.299 -0.2634  0.2584 -0.1990
  664WAT     H2 2204   2.384   1.489   1.348 -0.2386 -0.0702 -0.0632
  665WAT      O 2205   1.431   3.381   0.610 -0.5240 -0.2585  0.4585
  665WAT     H1 2206   1.454   3.372   0.702 -0.4059 -0.2524  0.4303
  665WAT     H2 2207   1.371   3.308   0.593  0.3634 -0.9714  0.2518
  666WAT      O 2208   0.083   4.514   1.813  0.1889 -0.0431 -0.1515
  666WAT     H1 2209   0.162   4.542   1.859  0.9843 -0.8779 -0.9641
  666WAT     H2 2210   0.023   4.588   1.821  1.3942  0.9852 -0.3129
  667WAT      O 2211   0.510   1.915   0.751  0.1781 -0.4235 -0.2130
  667WAT     H1 2212   0.584   1.968   0.783  0.1603 -0.7425  0.3811
  667WAT     H2 2213   0.550   1.835   0.718  0.1585 -0.2881 -0.5600
  668WAT      O 2214   2.195   0.832   3.118  0.4849 -0.6720 -0.4062
  668WAT     H1 2215   2.191   0.865   3.208 -1.7117  0.5891 -0.8752
  668WAT     H2 2216   2.171   0.740   3.125  1.8363 -0.9840  0.4301
  669WAT      O 2217   1.983   1.351   4.704 -0.0011  0.4759 -0.4660
  669WAT     H1 2218   1.977   1.340   4.609 -1.2419  0.4368 -0.4053
  669WAT     H2 2219   1.928   1.428   4.722  1.4654  1.4381  0.0670
  670WAT      O 2220   1.918   4.470   0.162  0.4213 -0.0998 -0.5506
  670WAT     H1 2221   1.945   4.436   0.077  0.3352 -0.2253 -0.5277
  670WAT     H2 2222   1.849   4.411   0.191  1.2075 -0.7043  0.1108
  671WAT      O 2223   0.816   0.518   4.805 -0.2871  0.7278 -0.5414
  671WAT     H1 2224   0.878   0.458   4.764 -0.5652  0.7440 -0.9928
  671WAT     H2 2225   0.730   0.478   4.789 -0.3752  0.5464  0.3469
  672WAT      O 2226   1.895   1.563   1.474  0.4873  0.2315 -0.2719
  672WAT     H1 2227   1.954   1.521   1.411  0.8953  0.9130 -0.3550
  672WAT     H2 2228   1.879   1.495   1.541  1.5692  0.1123 -0.1151
  673WAT      O 2229   0.333   1.263   2.503  0.2019 -0.0225 -0.1779
  673WAT     H1 2230   0.271   1.242   2.573 -0.7719 -0.1363 -1.0575
  673WAT     H2 2231   0.401   1.196   2.510  0.1722  0.0304  0.7231
  674WAT      O 2232   2.443   0.316   1.514 -0.1854 -0.2841  0.4173
  674WAT     H1 2233   2.484   0.232   1.492  1.6762  0.3006  1.4002
  674WAT     H2 2234   2.480   0.378   1.450 -1.4000 -0.1567 -0.1845
  675WAT      O 2235   0.810   4.839   1.929  1.0074  0.1502 -0.4580
  675WAT     H1 2236   0.894   4.798   1.909  1.0994 -0.3144  0.8315
  675WAT     H2 2237   0.809   4.850   2.024 -0.6182 -0.3608 -0.3743
  676WAT      O 2238   1.641   3.353   2.327 -0.0398  0.6427  0.5353
  676WAT     H1 2239   1.638   3.323   2.418 -1.7083  0.0145  0.3238
  676WAT     H2 2240   1.603   3.280   2.278  1.3926  0.7288 -0.7588
  677WAT      O 2241   0.252   4.984   1.575  0.1928  0.0807 -0.5594
  677WAT     H1 2242   0.277   5.075   1.590 -2.7391  0.6815  1.6494
  677WAT     H2 2243   0.285   4.937   1.652  0.8747 -0.5740 -1.2335
  678WAT      O 2244   0.354   3.705   2.901 -0.0202  0.6621  0.3631
  678WAT     H1 2245   0.368   3.656   2.982  1.3082  1.3764  0.5954
  678WAT     H2 2246   0.280   3.661   2.859 -1.0927  0.5729  2.1979
  679WAT      O 2247   4.234   0.369   2.503  0.6532  0.1935  0.2429
  679WAT     H1 2248   4.276   0.293   2.465  1.2710 -0.1675  1.5743
  679WAT     H2 2249   4.300   0.405   2.563  0.7778  2.4089 -1.1211
  680WAT      O 2250   0.835   4.362   0.272  0.3582  0.1743  0.1796
  680WAT     H1 2251   0.841   4.301   0.198  0.2330 -0.1264  0.4192
  680WAT     H2 2252   0.757   4.414   0.253 -0.9032 -1.2842  1.1327
  681WAT      O 2253   0.099   0.703   0.624  0.2282 -0.1646  0.0892
  681WAT     H1 2254   0.034   0.634   0.611  0.6347 -0.3620 -0.9598
  681WAT     H2 2255   0.183   0.660   0.607  0.8876 -0.4811  3.4522
  682WAT      O 2256   0.795   3.508   4.191  0.0296  0.1777  0.2864
  682WAT     H1 2257   0.742   3.428   4.191  0.9356 -0.4594 -0.9333
  682WAT     H2 2258   0.886   3.477   4.191  0.4014  1.2018 -0.1358
  683WAT      O 2259   1.820   2.071   3.971  0.2103 -0.1060 -0.6324
  683WAT     H1 2260   1.910   2.076   4.004  0.6440 -0.7705 -1.6817
  683WAT     H2 2261   1.770   2.128   4.030  1.2732  0.1127  0.0876
  684WAT      O 2262   2.266   0.045   1.055  0.5126  0.3573  0.2920
  684WAT     H1 2263   2.257   0.124   1.107 -5.4122 -0.8992  1.9693
  684WAT     H2 2264   2.283  -0.024   1.118  0.2163 -0.3495 -0.3799
  685WAT      O 2265   0.623   4.016   0.934  0.2221  0.0424  0.4436
  685WAT     H1 2266   0.706   3.996   0.890 -0.2300  0.2466 -0.5290
  685WAT     H2 2267   0.635   3.983   1.023  2.0842  1.8535  0.9355
  686WAT      O 2268   4.222   2.112   1.680 -0.1151 -0.2397 -0.4318
  686WAT     H1 2269   4.190   2.027   1.650 -0.4872  0.2492 -1.4542
  686WAT     H2 2270   4.258   2.154   1.602  1.9485 -0.2663  0.4542
  687WAT      O 2271   3.936   0.059   5.194  0.2945  0.1338  0.7567
  687WAT     H1 2272   3.858   0.053   5.248 -1.7642 -0.4721 -2.0783
  687WAT     H2 2273   3.945  -0.027   5.153  2.3424  0.2518  0.8192
  688WAT      O 2274   4.061   3.308   2.755  0.0442  0.0036 -0.0145
  688WAT     H1 2275   4.053   3.215   2.776  1.8677 -0.6277 -1.7470
  688WAT     H2 2276   3.974   3.334   2.725 -0.2972 -1.3464 -0.2390
  689WAT      O 2277   2.116   3.739   0.621 -0.0683 -0.0357  0.0487
  689WAT     H1 2278   2.150   3.658   0.659 -1.2272 -0.9902 -0.8530
  689WAT     H2 2279   2.021   3.734   0.633 -0.2295  0.8263 -0.6841
  690WAT      O 2280   4.324   2.578   3.684  0.4162 -0.4271  0.3781
  690WAT     H1 2281   4.234   2.567   3.716  0.4663  1.7116  1.4565
  690WAT     H2 2282   4.326   2.669   3.653  2.4014 -0.2098  1.0511
  691WAT      O 2283   0.683   0.228   0.645 -0.2128 -0.0550  0.4332
  691WAT     H1 2284   0.673   0.282   0.567  1.1554 -0.1602  0.1635
  691WAT     H2 2285   0.769   0.252   0.680 -1.2605  0.8651  2.5934
  692WAT      O 2286   2.099   4.020   2.975  0.5969 -0.3422 -0.0229
  692WAT     H1 2287   2.036   4.089   2.953  0.8687  0.3781  1.3438
  692WAT     H2 2288   2.156   4.060   3.040  2.7701 -0.8282 -1.5076
  693WAT      O 2289   3.618   3.736   1.022 -0.2737 -0.1817 -0.2812
  693WAT     H1 2290   3.566   3.816   1.024 -0.1745 -0.0989  2.1691
  693WAT     H2 2291   3.554   3.666   1.012 -0.7211  0.0379  0.8357
  694WAT      O 2292   0.846   3.541   5.052  0.2045  0.6385 -0.0890
  694WAT     H1 2293   0.763   3.579   5.081  1.3516  1.7465  1.9204
  694WAT     H2 2294   0.846   3.553   4.957 -2.6863 -1.0055 -0.4122
  695WAT      O 2295   2.834   2.827   1.980 -0.1252  0.1911  0.4716
  695WAT     H1 2296   2.881   2.906   2.005  1.7417 -1.1244  1.4360
  695WAT     H2 2297   2.771   2.812   2.050 -0.5408  0.8436  0.2430
  696WAT      O 2298   0.243   1.886   5.022  0.1129  0.4689  0.3039
  696WAT     H1 2299   0.288   1.812   4.980  0.6273  0.3423  1.0505
  696WAT     H2 2300   0.151   1.873   5.001  0.3777  0.5359 -0.9637
  697WAT      O 2301   3.651   1.325   4.099 -0.4668 -0.3921 -0.5244
  697WAT     H1 2302   3.598   1.265   4.153 -0.8729  1.3264  1.1219
  697WAT     H2 2303   3.599   1.405   4.096 -0.0488 -0.1395 -2.8606
  698WAT      O 2304   4.460   2.078   1.292 -0.6411 -0.0264 -0.0345
  698WAT     H1 2305   4.550   2.056   1.270  0.0073  1.7668  0.5900
  698WAT     H2 2306   4.409   2.053   1.215  0.2501 -1.8090 -0.0728
  699WAT      O 2307   2.689   0.338   5.018  0.1884 -0.5623  0.2146
  699WAT     H1 2308   2.652   0.303   4.937  0.5076  1.3759 -0.8162
  699WAT     H2 2309   2.641   0.292   5.087  0.9112 -3.3741 -0.9722
  700WAT      O 2310   1.037   0.267   5.091  0.0001  0.5106 -0.6430
  700WAT     H1 2311   0.999   0.342   5.045  1.9035  0.7086 -1.9902
  700WAT     H2 2312   0.989   0.192   5.056 -0.3414  0.8895 -1.0158
  701WAT      O 2313   3.138   2.087   2.443  0.5446 -0.1019 -0.0640
  701WAT     H1 2314   3.177   2.160   2.395  1.5362 -0.3411  0.3569
  701WAT     H2 2315   3.202   2.016   2.435  1.8068  0.4772  3.3724
  702WAT      O 2316   1.468   1.874   2.192 -0.3120 -0.0876  0.1120
  702WAT     H1 2317   1.373   1.883   2.179 -0.3763 -3.2264 -3.0458
  702WAT     H2 2318   1.491   1.793   2.147  4.2245  1.5815 -1.1579
  703WAT      O 2319   2.847   4.054   4.495  0.2950  0.3947 -0.6534
  703WAT     H1 2320   2.853   4.061   4.590 -0.6049 -1.0752 -0.4483
  703WAT     H2 2321   2.796   4.130   4.468 -3.6849 -1.5556  0.6443
  704WAT      O 2322   3.239   0.399   1.979  0.4077  0.0203 -0.2265
  704WAT     H1 2323   3.209   0.315   2.015 -2.2022  1.1246  0.4178
  704WAT     H2 2324   3.196   0.406   1.894 -0.0912  1.0606  0.0938
  705WAT      O 2325   1.851   3.501   2.249 -0.3163  0.4663  0.2004
  705WAT     H1 2326   1.771   3.470   2.291 -0.3929 -0.0773 -0.3213
  705WAT     H2 2327   1.821   3.547   2.171 -0.1831  1.5978  0.7980
  706WAT      O 2328   0.620   4.255   0.766 -0.2426  0.0891  0.1131
  706WAT     H1 2329   0.644   4.287   0.679 -1.3754 -0.0930 -0.2728
  706WAT     H2 2330   0.681   4.183   0.782 -0.5988 -0.4635 -0.9191
  707WAT      O 2331   0.383   2.167   0.926 -0.4969  0.4517 -0.0689
  707WAT     H1 2332   0.403   2.227   0.854  1.3434  0.6062  0.5076
  707WAT     H2 2333   0.290   2.148   0.917 -0.0686 -0.6286 -3.2929
  708WAT      O 2334   1.084   3.977   1.527  0.2930  0.2884 -0.9408
  708WAT     H1 2335   0.997   3.987   1.489 -0.3245 -0.4849  0.2143
  708WAT     H2 2336   1.078   4.020   1.612  0.7653 -0.5193 -0.4845
  709WAT      O 2337   3.955   0.645   0.918 -0.1962 -0.1356  0.1432
  709WAT     H1 2338   3.938   0.632   0.825  1.4346 -0.3703 -0.1491
  709WAT     H2 2339   4.001   0.566   0.945  0.1828  0.3470  0.9330
  710WAT      O 2340   0.041   2.956   3.583  0.3643 -0.2401 -1.1956
  710WAT     H1 2341   0.075   2.875   3.545  0.7964  0.7066 -2.9484
  710WAT     H2 2342   0.073   3.025   3.525 -1.8226  1.0156 -1.0257
  711WAT      O 2343   0.771   4.812   3.772  0.2509 -0.0222  0.1643
  711WAT     H1 2344   0.847   4.761   3.745 -1.2353 -0.6942 -3.2374
  711WAT     H2 2345   0.791   4.902   3.744  0.8257  0.3544  1.6896
  712WAT      O 2346   2.859   2.368   4.057  0.2079  0.5413 -0.2037
  712WAT     H1 2347   2.883   2.443   4.111  0.3838  0.8351 -0.6798
  712WAT     H2 2348   2.941   2.344   4.013  0.9641 -1.8789  2.2429
  713WAT      O 2349   0.455   0.036   2.942  0.2687  0.5231  0.0634
  713WAT     H1 2350   0.532   0.030   2.885  0.6385 -1.5024  0.6749
  713WAT     H2 2351   0.429  -0.055   2.955  0.5266  0.8155  3.5289
  714WAT      O 2352   1.410   3.994   3.563  0.2312 -0.5014  0.1056
  714WAT     H1 2353   1.452   4.012   3.479 -0.8842  0.0983 -0.3461
  714WAT     H2 2354   1.339   3.933   3.541 -0.2701 -0.0857  0.5520
  715WAT      O 2355   3.641   2.879   5.188 -0.1919 -0.1186 -0.3745
  715WAT     H1 2356   3.639   2.818   5.114  0.0774 -0.5583 -0.0233
  715WAT     H2 2357   3.720   2.931   5.173  0.8039 -1.3193  0.4682
  716WAT      O 2358   2.809   3.648   5.276  0.3790  0.5768 -1.0183
  716WAT     H1 2359   2.897   3.678   5.253  1.2863 -0.5807  0.7080
  716WAT     H2 2360   2.801   3.563   5.233  0.6914  0.0366 -0.0452
  717WAT      O 2361   0.885   4.848   0.224  0.3944  0.3377 -0.1749
  717WAT     H1 2362   0.909   4.755   0.219 -0.3732  0.1548 -0.6836
  717WAT     H2 2363   0.821   4.860   0.154  1.1839  1.4743 -0.7258
  718WAT      O 2364   3.756   0.410   3.999 -0.2798  0.1086 -0.4941
  718WAT     H1 2365   3.678   0.449   4.040  0.2908  0.6855  0.0797
  718WAT     H2 2366   3.733   0.318   3.986 -0.2951 -0.2420  1.6745
  719WAT      O 2367   2.471   4.078   4.582 -0.1673  0.2040  0.0470
  719WAT     H1 2368   2.508   4.012   4.523  0.0311 -1.2518  1.7169
  719WAT     H2 2369   2.463   4.157   4.528  0.8277 -0.8076 -1.6636
  720WAT      O 2370   0.486   2.963   3.230  0.6896 -0.3894  0.0177
  720WAT     H1 2371   0.502   3.037   3.171 -2.1244  0.4066  0.1234
  720WAT     H2 2372   0.456   2.892   3.173  0.0273 -0.3083  0.2578
  721WAT      O 2373   0.933   1.769   3.367 -0.0225  0.0026 -0.7287
  721WAT     H1 2374   0.874   1.833   3.407  1.0878  0.7736 -0.2557
  721WAT     H2 2375   1.001   1.822   3.326 -0.9172 -0.7660 -3.4129
  722WAT      O 2376   2.893   0.847   0.029  0.3665 -0.1924 -0.1558
  722WAT     H1 2377   2.913   0.911  -0.040  0.7081  0.9161  0.9274
  722WAT     H2 2378   2.914   0.893   0.111  0.9774 -1.8423  0.6540
  723WAT      O 2379   2.421   0.661   5.293  0.1696 -0.0789  0.2421
  723WAT     H1 2380   2.407   0.632   5.203 -2.9366  2.0686 -0.1426
  723WAT     H2 2381   2.401   0.584   5.347 -1.7963 -0.3817 -0.8447
  724WAT      O 2382   3.563   0.838   4.741  0.0484 -0.0574 -0.3820
  724WAT     H1 2383   3.588   0.923   4.704  1.0790  0.2201  0.8891
  724WAT     H2 2384   3.637   0.780   4.721 -0.1420 -0.3505 -0.2502
  725WAT      O 2385   1.399   4.227   2.525 -0.4085  0.1096 -0.4550
  725WAT     H1 2386   1.448   4.149   2.495  0.8583  0.9242 -0.5977
  725WAT     H2 2387   1.405   4.223   2.620  2.5969  1.7417 -0.4663
  726WAT      O 2388   1.999   1.141   3.078 -0.6577 -0.5358 -0.5814
  726WAT     H1 2389   1.928   1.089   3.041 -0.8491  0.4118 -1.5951
  726WAT     H2 2390   1.961   1.181   3.156 -0.8765 -0.9569 -0.4686
  727WAT      O 2391   2.024   2.203   4.159  0.1840 -0.6864 -0.7669
  727WAT     H1 2392   1.934   2.230   4.139  0.6365  0.0029 -1.9800
  727WAT     H2 2393   2.024   2.188   4.253 -1.6399 -2.4315 -0.9877
  728WAT      O 2394   0.880   0.437   1.036 -0.2166 -0.0217 -0.1084
  728WAT     H1 2395   0.920   0.510   1.084  0.9175 -0.2423 -0.6845
  728WAT     H2 2396   0.915   0.445   0.948 -1.2372 -0.4129 -0.5548
  729WAT      O 2397   0.203   4.737   0.318 -0.1571 -0.8489 -0.1815
  729WAT     H1 2398   0.240   4.774   0.238 -0.2919 -0.7514 -0.2003
  729WAT     H2 2399   0.258   4.772   0.389 -0.8184  0.1173 -0.1175
  730WAT      O 2400   1.967   1.511   3.756  0.4123 -0.3235 -0.8098
  730WAT     H1 2401   1.947   1.529   3.848  2.4159 -0.5607 -0.2896
  730WAT     H2 2402   1.931   1.587   3.709 -0.3101 -0.0193  0.1826
  731WAT      O 2403   0.625   0.856   0.210 -0.1419 -0.3842  0.2198
  731WAT     H1 2404   0.660   0.944   0.223 -0.1093 -0.5255  1.1690
  731WAT     H2 2405   0.587   0.858   0.122  0.9025  0.2195 -0.2333
  732WAT      O 2406   4.121   1.148   2.205 -0.1609 -0.0045 -1.1144
  732WAT     H1 2407   4.081   1.139   2.291  1.4471 -1.4570 -0.4596
  732WAT     H2 2408   4.178   1.072   2.196  0.8792  0.8855 -2.8341
  733WAT      O 2409   0.073   3.738   2.738  0.0030  0.2165  0.1260
  733WAT     H1 2410   0.062   3.813   2.680  1.6868  0.7473  0.4441
  733WAT     H2 2411   0.060   3.774   2.826 -0.2339 -0.1012  0.2241
  734WAT      O 2412   3.374   0.491   2.767 -0.2501 -0.2279 -0.4410
  734WAT     H1 2413   3.302   0.517   2.708  0.1539  0.2613 -0.7224
  734WAT     H2 2414   3.331   0.439   2.835 -1.1120  1.2770  0.2196
  735WAT      O 2415   0.375   4.890   5.150  0.6645  0.3254  0.0140
  735WAT     H1 2416   0.427   4.825   5.103  1.2906 -0.9618  2.3578
  735WAT     H2 2417   0.286   4.854   5.149  0.5833  0.5265 -0.5261
  736WAT      O 2418   1.862   1.040   3.776 -0.7536 -0.2184 -0.2195
  736WAT     H1 2419   1.875   0.947   3.758 -1.7181 -0.2506 -0.7978
  736WAT     H2 2420   1.861   1.081   3.689  0.6664  0.4850  0.0684
  737WAT      O 2421   1.263   0.096   0.415 -0.4645  0.0065  0.3222
  737WAT     H1 2422   1.336   0.036   0.398  1.3799  2.5690 -1.7187
  737WAT     H2 2423   1.194   0.067   0.354  1.7631  1.9293 -3.4923
  738WAT      O 2424   2.465   2.562   3.708 -0.3523  0.6774  0.0597
  738WAT     H1 2425   2.406   2.489   3.727  1.3037 -0.9031 -0.5152
  738WAT     H2 2426   2.534   2.554   3.775  1.9544 -0.8074 -2.3223
  739WAT      O 2427   4.388   1.773   0.565 -0.1250 -0.6074 -0.0894
  739WAT     H1 2428   4.296   1.759   0.545  0.1891  0.1854 -2.3103
  739WAT     H2 2429   4.404   1.865   0.547  1.4420 -1.0769 -1.3609
  740WAT      O 2430   0.892   4.265   1.637  0.5856 -0.4441 -0.0078
  740WAT     H1 2431   0.807   4.234   1.666 -0.1865  1.3204 -0.2390
  740WAT     H2 2432   0.955   4.215   1.689 -0.6609  0.5580  2.7114
  741WAT      O 2433   4.420   4.726   1.808  0.1169  0.3756 -0.0488
  741WAT     H1 2434   4.384   4.733   1.720  1.3392 -0.7206 -0.6676
  741WAT     H2 2435   4.423   4.816   1.841 -0.1231  0.8227 -1.2149
  742WAT      O 2436   1.065   1.075   0.454  0.1339 -0.3102 -0.0342
  742WAT     H1 2437   1.148   1.111   0.423  0.3424  0.7346  1.6505
  742WAT     H2 2438   1.004   1.090   0.381  0.3939  2.8278  0.2510
  743WAT      O 2439   0.187   4.209   4.049  0.1913  0.1868  0.0836
  743WAT     H1 2440   0.142   4.125   4.041  1.4124 -0.3732 -1.4836
  743WAT     H2 2441   0.158   4.244   4.133 -0.6134 -1.6348  0.6116
  744WAT      O 2442   4.365   2.885   1.051 -0.0549 -0.1509  0.6972
  744WAT     H1 2443   4.446   2.935   1.060 -0.3916  0.9137 -1.4866
  744WAT     H2 2444   4.336   2.871   1.141  2.2387 -0.0814  1.5190
  745WAT      O 2445   2.968   4.496   1.489  0.1223  0.7104  0.1209
  745WAT     H1 2446   2.984   4.490   1.395  1.4252 -0.4985  0.3742
  745WAT     H2 2447   3.052   4.471   1.528  0.1666  2.9710  1.6136
  746WAT      O 2448   2.708   2.216   2.450 -0.4209  0.1008 -0.6159
  746WAT     H1 2449   2.784   2.163   2.474 -1.4925 -1.2345 -0.0281
  746WAT     H2 2450   2.662   2.231   2.533 -1.2247  0.1828 -1.0632
  747WAT      O 2451   0.952   4.843   2.472  0.5037  0.3710 -0.0335
  747WAT     H1 2452   0.947   4.752   2.443 -0.0799 -0.0024  1.1457
  747WAT     H2 2453   1.030   4.878   2.429  0.2848 -0.4506 -1.1277
  748WAT      O 2454   2.394   4.665   3.061 -0.0911  0.1345 -0.2870
  748WAT     H1 2455   2.318   4.608   3.056  0.3532 -0.6848  1.4045
  748WAT     H2 2456   2.411   4.691   2.970 -1.9850 -0.1640 -0.7570
  749WAT      O 2457   1.864   2.942   5.175 -0.7807 -0.1784 -0.6527
  749WAT     H1 2458   1.833   2.851   5.171 -3.0258  0.3662  1.5909
  749WAT     H2 2459   1.785   2.994   5.161  0.1753  1.4178 -0.3111
  750WAT      O 2460   2.682   4.351   2.043  0.1544 -0.2503 -0.6437
  750WAT     H1 2461   2.706   4.434   2.084  0.9056 -0.9294  0.3377
  750WAT     H2 2462   2.744   4.288   2.079 -0.4728 -1.2696 -1.2959
  751WAT      O 2463   4.125   3.478   5.108 -0.2920  0.5448 -0.2659
  751WAT     H1 2464   4.197   3.541   5.120  0.6248 -0.6431  0.6416
  751WAT     H2 2465   4.162   3.394   5.133 -1.9745 -0.1300  0.0827
  752WAT      O 2466   2.994   3.848   1.886  0.1890  0.2072  0.0929
  752WAT     H1 2467   3.043   3.850   1.968  2.0890 -0.6592 -0.9468
  752WAT     H2 2468   2.943   3.929   1.886 -0.0930  0.0737  2.2350
  753WAT      O 2469   3.453   2.746   3.556  0.7076  0.4664  0.2475
  753WAT     H1 2470   3.466   2.652   3.572  0.4510  0.3125 -0.3967
  753WAT     H2 2471   3.372   2.750   3.506  0.2221  1.1157  1.0656
  754WAT      O 2472   4.450   1.049   3.263 -0.5126 -0.1587  0.2948
  754WAT     H1 2473   4.459   1.079   3.173  3.0545 -0.9005  0.2437
  754WAT     H2 2474   4.485   1.121   3.316 -0.1652 -0.7277  0.8617
  755WAT      O 2475  -0.002   3.708   0.446 -0.2548 -0.4312 -0.4500
  755WAT     H1 2476   0.001   3.618   0.412  0.5296 -0.0436 -1.4490
  755WAT     H2 2477   0.065   3.710   0.514 -0.1350 -0.5369 -0.5650
  756WAT      O 2478   0.034   3.948   2.548  0.0085  0.1805  0.6494
  756WAT     H1 2479   0.005   3.987   2.465 -0.2404 -0.4364  0.4421
  756WAT     H2 2480   0.129   3.949   2.543  0.0501 -1.9733 -0.6885
  757WAT      O 2481   4.263   1.081   1.310  0.5880  0.3633 -0.2472
  757WAT     H1 2482   4.227   1.003   1.268  1.2106 -0.0526 -0.0406
  757WAT     H2 2483   4.309   1.127   1.240 -0.3751  0.9170 -0.5181
  758WAT      O 2484   4.086   4.512   0.011  0.2367 -0.1594  0.8533
  758WAT     H1 2485   4.083   4.420   0.038  1.6684  0.0118  1.7356
  758WAT     H2 2486   4.179   4.535   0.015  0.1023  0.8857 -0.9609
  759WAT      O 2487   3.459   2.779   3.129  0.3395  0.3845 -0.2358
  759WAT     H1 2488   3.391   2.799   3.065 -0.9791  0.2070  1.0611
  759WAT     H2 2489   3.524   2.848   3.117 -1.6728  2.5721  0.7267
  760WAT      O 2490   1.787   4.311   2.313  0.1329 -0.0069 -0.9026
  760WAT     H1 2491   1.783   4.273   2.401  1.3583  1.3772 -0.2029
  760WAT     H2 2492   1.879   4.305   2.288 -0.0660  0.3396 -1.7638
  761WAT      O 2493   3.856   4.300   1.200  0.3852  0.4571  0.5667
  761WAT     H1 2494   3.939   4.266   1.235  0.9615 -0.4491 -1.5379
  761WAT     H2 2495   3.791   4.237   1.231  0.3734  1.3558  2.5170
  762WAT      O 2496   4.422   4.280   1.519 -0.0888 -0.4317  0.5571
  762WAT     H1 2497   4.384   4.362   1.486  0.1818 -0.3497  0.4408
  762WAT     H2 2498   4.426   4.223   1.443 -0.4119 -0.6049  0.6705
  763WAT      O 2499   3.421   0.884   0.784 -0.3722  0.0382 -0.3972
  763WAT     H1 2500   3.395   0.837   0.704 -0.8717 -1.1272  0.4136
  763WAT     H2 2501   3.410   0.819   0.853  2.5854  0.1798  0.3319
  764WAT      O 2502   2.257   3.196   2.021  0.2045 -0.3168  0.0940
  764WAT     H1 2503   2.303   3.200   1.938 -1.0814 -2.8284 -0.8552
  764WAT     H2 2504   2.326   3.188   2.087  1.2421  1.7766 -0.6559
  765WAT      O 2505   1.924   0.138   4.132 -0.4674 -0.0855 -1.0176
  765WAT     H1 2506   1.837   0.173   4.115 -0.5936  1.2373  1.7590
  765WAT     H2 2507   1.948   0.174   4.218  2.5416 -0.9426 -1.3737
  766WAT      O 2508   1.855   1.523   0.842 -0.0081  0.1338  0.1774
  766WAT     H1 2509   1.910   1.523   0.764  0.6693  1.6064  0.6165
  766WAT     H2 2510   1.914   1.544   0.914 -0.7038 -0.7433  1.0305
  767WAT      O 2511   0.137   3.917   2.028 -0.0811 -0.9970 -0.2625
  767WAT     H1 2512   0.108   3.927   1.938  1.3951 -3.1608 -1.0349
  767WAT     H2 2513   0.231   3.934   2.026 -0.3816  1.3417  1.3705
  768WAT      O 2514   0.323   1.927   0.536  0.3495 -0.2550  0.1254
  768WAT     H1 2515   0.256   1.990   0.561 -0.3795  0.1712 -2.5919
  768WAT     H2 2516   0.388   1.932   0.607 -0.5029  2.2749  0.8463
  769WAT      O 2517   3.214   0.937   4.414 -0.7743 -0.4998  0.1848
  769WAT     H1 2518   3.144   0.963   4.474 -0.3570 -0.4641  0.6639
  769WAT     H2 2519   3.236   0.848   4.440 -1.0095 -0.7142 -0.3241
  770WAT      O 2520   0.199   1.239   4.780 -0.1099 -0.3617 -0.2544
  770WAT     H1 2521   0.139   1.190   4.724  1.0492 -1.5631 -0.4810
  770WAT     H2 2522   0.279   1.248   4.728  0.0983  0.8185  0.2193
  771WAT      O 2523   1.852   3.326   3.504 -0.0230  0.0853 -0.3781
  771WAT     H1 2524   1.855   3.406   3.558  0.1165  0.9821 -1.6626
  771WAT     H2 2525   1.934   3.281   3.524 -0.5684 -0.3065  1.1562
  772WAT      O 2526   0.315   2.658   0.609 -0.2841  0.3494  0.3184
  772WAT     H1 2527   0.231   2.614   0.593  0.4701 -0.8138 -0.5928
  772WAT     H2 2528   0.296   2.719   0.680 -2.3849  1.5554 -1.1698
  773WAT      O 2529   0.516   4.952   4.704  0.8882  0.3934 -0.4550
  773WAT     H1 2530   0.583   4.928   4.768 -0.7491  1.3031  1.7233
  773WAT     H2 2531   0.472   4.870   4.684 -0.2122  0.4142  1.6185
  774WAT      O 2532   3.479   4.192   4.786 -0.1015  0.4873  0.1753
  774WAT     H1 2533   3.571   4.214   4.766  0.0410 -0.7403 -0.6207
  774WAT     H2 2534   3.440   4.276   4.812  0.7350  1.4488 -1.4872
  775WAT      O 2535   1.140   2.278   0.429 -0.1939  0.5509  0.2894
  775WAT     H1 2536   1.190   2.251   0.507 -0.4140  0.4652  0.4003
  775WAT     H2 2537   1.091   2.355   0.457  1.5974  2.0492 -0.4464
  776WAT      O 2538   1.712   3.415   0.259 -0.1306  0.0395  0.6814
  776WAT     H1 2539   1.733   3.450   0.172  1.6386 -1.5443  0.3962
  776WAT     H2 2540   1.634   3.361   0.245  0.1035 -0.1570  0.0629
  777WAT      O 2541   2.599   0.834   0.933 -0.1637 -0.1111 -0.0089
  777WAT     H1 2542   2.595   0.843   0.838  1.9996  2.7649  0.0103
  777WAT     H2 2543   2.588   0.923   0.966  0.7697 -0.7706  2.3133
  778WAT      O 2544   1.667   5.057   0.873 -0.5747  0.2967 -0.2311
  778WAT     H1 2545   1.696   5.148   0.878 -0.0762  0.0813  1.4732
  778WAT     H2 2546   1.632   5.039   0.961  0.0136 -1.3735 -0.3171
  779WAT      O 2547   0.974   2.534   1.802  0.2232 -0.0420  0.5886
  779WAT     H1 2548   0.976   2.566   1.712 -0.1148 -3.5740 -0.8497
  779WAT     H2 2549   0.888   2.493   1.812  0.6961 -0.7716  2.0827
  780WAT      O 2550   1.234   4.978   4.497  0.6201 -0.6613  0.4833
  780WAT     H1 2551   1.190   5.063   4.504  0.3795 -0.8664  1.5978
  780WAT     H2 2552   1.227   4.955   4.405 -0.8002 -0.2538  0.4655
  781WAT      O 2553   0.789   0.846   3.626 -0.3238 -0.0293  0.0394
  781WAT     H1 2554   0.720   0.908   3.650 -1.9203 -1.1441 -1.3640
  781WAT     H2 2555   0.797   0.856   3.531  1.0223 -0.3833  0.0984
  782WAT      O 2556   2.734   1.198   2.487 -0.2937  0.3471  0.2586
  782WAT     H1 2557   2.754   1.118   2.439  0.0903 -0.1185  1.1847
  782WAT     H2 2558   2.719   1.264   2.418  1.6620  0.0521 -0.5050
  783WAT      O 2559   0.599   0.260   3.998 -0.1378  0.5390 -0.2353
  783WAT     H1 2560   0.520   0.279   4.049  0.3150  2.6562 -0.2333
  783WAT     H2 2561   0.669   0.304   4.046  1.0198 -1.1020 -0.3824
  784WAT      O 2562   4.428   3.454   1.928 -0.0103  0.0132  0.1225
  784WAT     H1 2563   4.368   3.412   1.990  0.1092 -1.3122 -0.6108
  784WAT     H2 2564   4.475   3.520   1.979  1.7890 -2.5919  2.0684
  785WAT      O 2565   1.227   4.644   1.794 -0.0775  0.2068 -0.1234
  785WAT     H1 2566   1.268   4.675   1.713  0.0428 -0.2260 -0.2284
  785WAT     H2 2567   1.295   4.594   1.838  0.1549  1.2158  0.7083
  786WAT      O 2568   2.537   4.830   3.209 -0.7253 -0.1172 -0.2133
  786WAT     H1 2569   2.611   4.772   3.223 -1.6550 -1.2012  0.4737
  786WAT     H2 2570   2.483   4.786   3.143 -1.2884  0.1106  0.0813
  787WAT      O 2571   0.269   0.076   3.303 -0.2006  0.1496 -0.3443
  787WAT     H1 2572   0.305   0.093   3.390 -0.0296 -0.4469 -0.2920
  787WAT     H2 2573   0.175   0.090   3.311 -0.1082  0.6863 -0.2139
  788WAT      O 2574   3.463   0.743   0.065  0.4906 -0.0300  0.0843
  788WAT     H1 2575   3.412   0.785   0.134  1.1940  0.3803  0.3694
  788WAT     H2 2576   3.426   0.778  -0.016  0.5695  0.5810  0.2992
  789WAT      O 2577   3.453   4.628   2.070  1.0617  0.2308 -0.3461
  789WAT     H1 2578   3.407   4.686   2.009 -1.1709 -1.1316 -0.0610
  789WAT     H2 2579   3.416   4.648   2.156 -0.2286 -1.9450 -0.3179
  790WAT      O 2580   2.264   2.787   3.327  0.0585  0.0958  0.0871
  790WAT     H1 2581   2.212   2.787   3.408  0.8327  0.4704  0.5997
  790WAT     H2 2582   2.256   2.697   3.294 -1.4671  0.3208 -0.2323
  791WAT      O 2583   3.019   4.949   0.231  0.0498 -0.1888 -0.0613
  791WAT     H1 2584   3.068   4.899   0.166 -0.3710 -1.3763  0.5014
  791WAT     H2 2585   3.056   5.037   0.226  0.6894 -0.4973 -1.2118
  792WAT      O 2586   2.839   4.897   0.730 -0.1844 -0.1334 -0.6408
  792WAT     H1 2587   2.849   4.833   0.800 -1.7450 -0.3778 -0.6007
  792WAT     H2 2588   2.834   4.845   0.650 -0.6283 -0.0225 -0.6922
  793WAT      O 2589   2.670   1.638   2.228  0.0756  0.3000 -0.7533
  793WAT     H1 2590   2.694   1.649   2.136 -1.4088  0.7838 -1.1155
  793WAT     H2 2591   2.596   1.698   2.240 -1.1679 -1.3328  0.1719
  794WAT      O 2592   2.860   2.821   4.350 -0.7370  0.0752  0.0364
  794WAT     H1 2593   2.932   2.816   4.288 -2.4595  0.7629 -2.1354
  794WAT     H2 2594   2.896   2.869   4.425  1.4181 -0.8457 -0.3391
  795WAT      O 2595   1.816   2.342   0.841  0.0526  0.3889  0.3618
  795WAT     H1 2596   1.862   2.359   0.759  0.7995  0.7025  0.8383
  795WAT     H2 2597   1.882   2.355   0.909 -0.7012  0.7096  1.0506
  796WAT      O 2598   2.910   1.355   2.101  0.5507  0.0994 -0.1815
  796WAT     H1 2599   2.973   1.308   2.156 -0.6558 -0.2030  1.0362
  796WAT     H2 2600   2.826   1.343   2.147 -0.5297 -0.1448 -2.1007
  797WAT      O 2601   3.948   0.025   3.319 -0.0310 -0.2004 -0.6570
  797WAT     H1 2602   3.889   0.074   3.375  0.5182  0.8263 -0.9513
  797WAT     H2 2603   4.027   0.079   3.314  1.2568 -1.9002  0.3532
  798WAT      O 2604   0.852   0.591   0.480 -0.1574  0.0067  1.0777
  798WAT     H1 2605   0.787   0.578   0.411  1.8819  1.5358 -1.3421
  798WAT     H2 2606   0.803   0.627   0.554 -2.1958  0.1134 -0.2514
  799WAT      O 2607   0.595   1.546   3.766 -0.5997 -0.4281  0.1382
  799WAT     H1 2608   0.622   1.582   3.682  0.3289  0.6024  0.8434
  799WAT     H2 2609   0.620   1.454   3.762 -0.3790 -0.3393 -0.6345
  800WAT      O 2610   2.479   1.197   4.261 -0.3031  0.2149  0.3647
  800WAT     H1 2611   2.483   1.141   4.338 -1.5500  0.2922  0.5108
  800WAT     H2 2612   2.392   1.237   4.265 -0.0913  0.8254 -0.6638
  801WAT      O 2613   0.168   2.228   4.556 -0.1473  0.3213 -0.1768
  801WAT     H1 2614   0.137   2.158   4.612  2.0899 -1.3624 -0.8818
  801WAT     H2 2615   0.092   2.284   4.541 -2.0434 -2.0074  0.3351
  802WAT      O 2616   3.137   3.875   1.155  0.2922 -0.4960  0.1839
  802WAT     H1 2617   3.131   3.830   1.070  0.0837  1.2506 -0.7730
  802WAT     H2 2618   3.048   3.876   1.188 -0.2309  1.4911 -1.0859
  803WAT      O 2619   3.436   2.016   2.234  0.1298  0.2529 -0.1874
  803WAT     H1 2620   3.360   1.984   2.283  1.4466  0.3994  2.0766
  803WAT     H2 2621   3.415   2.108   2.215  0.4523  0.8746  2.1308
  804WAT      O 2622   1.477   1.857   4.271 -0.1612  0.6795 -0.1797
  804WAT     H1 2623   1.477   1.902   4.355 -2.6787  1.7829 -0.6929
  804WAT     H2 2624   1.570   1.845   4.251  0.5726  2.9504  1.4002
  805WAT      O 2625   2.806   4.698   3.749  0.3489  0.0074  0.3205
  805WAT     H1 2626   2.747   4.756   3.798 -0.3613 -0.7624  0.3998
  805WAT     H2 2627   2.761   4.684   3.665  0.1374 -1.0465  0.6042
  806WAT      O 2628   2.081   2.676   3.499 -0.1895 -0.1200 -0.1257
  806WAT     H1 2629   2.082   2.619   3.422  1.4049 -1.8282  1.0560
  806WAT     H2 2630   1.990   2.670   3.531 -0.1307 -1.9545 -0.1457
  807WAT      O 2631   3.994   4.464   2.078  0.2744 -0.4841 -0.1243
  807WAT     H1 2632   3.899   4.455   2.088 -0.0170  0.6645 -1.5119
  807WAT     H2 2633   4.012   4.557   2.094  0.9708 -0.4266 -1.1326
  808WAT      O 2634   0.828   3.834   3.596  0.0155 -0.1500 -0.8904
  808WAT     H1 2635   0.804   3.778   3.522  0.0150 -0.8375 -0.3779
  808WAT     H2 2636   0.923   3.824   3.604 -0.1563 -1.2154  0.0885
  809WAT      O 2637   2.905   0.768   5.008  0.0021 -0.6337  0.5683
  809WAT     H1 2638   2.902   0.737   5.099  2.2397  0.9743  1.2678
  809WAT     H2 2639   2.854   0.703   4.959 -0.4987 -2.0431  2.8235
  810WAT      O 2640   0.413   4.073   0.536  0.4185  0.3459  0.1486
  810WAT     H1 2641   0.366   4.017   0.474  2.1293 -1.7373  0.6042
  810WAT     H2 2642   0.415   4.159   0.493  0.4353 -0.7030 -2.1275
  811WAT      O 2643   2.859   3.175   1.580  0.0152  0.1275  0.1516
  811WAT     H1 2644   2.933   3.116   1.594 -0.3660 -0.6576 -0.9829
  811WAT     H2 2645   2.811   3.136   1.507 -1.0831  1.0483  0.3541
  812WAT      O 2646   0.368   1.070   0.977 -0.2049  0.3892  0.0136
  812WAT     H1 2647   0.422   1.040   0.904  3.0111 -0.2436  2.4132
  812WAT     H2 2648   0.385   1.164   0.983 -1.7799  0.7823 -0.9445
  813WAT      O 2649   2.638   0.321   4.484  0.1735 -0.5956 -0.4663
  813WAT     H1 2650   2.550   0.291   4.461  0.2245 -0.8808 -0.2903
  813WAT     H2 2651   2.685   0.242   4.510  0.1165 -0.2864  0.6267
  814WAT      O 2652   2.181   2.537   3.268  0.0289 -0.3019  0.0142
  814WAT     H1 2653   2.246   2.475   3.302 -1.2525 -1.8592 -0.2684
  814WAT     H2 2654   2.188   2.528   3.173  0.7741  1.0509 -0.0950
  815WAT      O 2655   0.758   4.572   4.178  0.3363 -0.0123  0.2225
  815WAT     H1 2656   0.827   4.547   4.239  0.8269  0.9201  0.0719
  815WAT     H2 2657   0.678   4.537   4.216  0.8768 -1.0377  0.4478
  816WAT      O 2658   2.763   3.222   1.835  1.0891  0.2176 -0.5510
  816WAT     H1 2659   2.772   3.217   1.740  1.3581 -0.8130 -0.4771
  816WAT     H2 2660   2.703   3.151   1.858 -0.5456  1.6545 -0.1324
  817WAT      O 2661   0.724   1.555   1.078 -0.1326  0.1236  0.2880
  817WAT     H1 2662   0.706   1.500   1.002 -1.2136 -0.0731  0.6690
  817WAT     H2 2663   0.801   1.607   1.053  0.5884 -1.1750 -0.2665
  818WAT      O 2664   3.596   3.637   2.658  0.0982  0.2920  0.2789
  818WAT     H1 2665   3.566   3.705   2.598  1.0773  0.1236 -0.4334
  818WAT     H2 2666   3.619   3.685   2.738  1.4843  0.9562 -0.4580
  819WAT      O 2667   1.399   4.286   5.084 -0.0005 -0.2246 -0.2121
  819WAT     H1 2668   1.365   4.237   5.159 -1.3750 -0.8392 -1.1973
  819WAT     H2 2669   1.487   4.251   5.070  0.2084 -0.2123  1.0017
  820WAT      O 2670   3.357   3.128   1.304 -0.1882  0.1706  0.0704
  820WAT     H1 2671   3.303   3.183   1.359 -0.0246  1.8992 -1.4193
  820WAT     H2 2672   3.441   3.124   1.349  0.0862  1.9377 -0.2085
  821WAT      O 2673   0.201   3.153   2.715 -0.3252  0.1939  0.0436
  821WAT     H1 2674   0.267   3.215   2.682 -2.0773  2.0742 -0.1814
  821WAT     H2 2675   0.177   3.101   2.638  0.1491  0.1979 -0.1127
  822WAT      O 2676   1.501   2.072   3.254 -0.2736 -0.6329  0.2251
  822WAT     H1 2677   1.529   1.984   3.279  4.3903  0.8596  1.3064
  822WAT     H2 2678   1.490   2.067   3.159 -0.8851 -2.5255  0.3554
  823WAT      O 2679   4.164   1.642   3.977 -0.7007 -0.2180  0.4764
  823WAT     H1 2680   4.164   1.647   3.881 -0.4577 -1.0711  0.4209
  823WAT     H2 2681   4.076   1.611   3.999 -0.9018  0.4013  0.5625
  824WAT      O 2682   3.784   1.646   3.696 -0.4467 -0.7952 -0.1235
  824WAT     H1 2683   3.701   1.678   3.731 -2.5072 -2.0195 -3.3839
  824WAT     H2 2684   3.812   1.715   3.636  1.1563 -0.2458  1.1927
  825WAT      O 2685   1.090   0.934   1.530 -0.0650  0.1198 -0.7366
  825WAT     H1 2686   1.165   0.942   1.589 -0.6103 -0.4404  0.0634
  825WAT     H2 2687   1.108   0.855   1.478 -0.1916 -0.1451 -0.3871
  826WAT      O 2688   2.970   2.146   0.087 -0.3843  0.4799 -0.1063
  826WAT     H1 2689   2.893   2.199   0.065  0.6631  1.8696 -0.5898
  826WAT     H2 2690   3.043   2.208   0.083  0.8340 -0.9179 -0.2086
  827WAT      O 2691   4.264   0.317   3.745 -0.0143  0.2352 -0.1256
  827WAT     H1 2692   4.300   0.332   3.832 -0.3045 -1.9459  0.4247
  827WAT     H2 2693   4.236   0.404   3.715  1.5293  1.2618  1.2779
  828WAT      O 2694   0.853   4.564   1.055 -0.3693 -0.5032  0.2466
  828WAT     H1 2695   0.926   4.523   1.010  0.4119 -1.4694  2.2501
  828WAT     H2 2696   0.862   4.535   1.146 -2.0339  1.0535  0.9748
  829WAT      O 2697   0.678   3.439   2.301 -0.9612  0.2666  0.5987
  829WAT     H1 2698   0.675   3.419   2.395 -0.3305 -0.4107  0.4776
  829WAT     H2 2699   0.655   3.532   2.296  0.2670  0.6528  1.5494
  830WAT      O 2700   1.969   4.462   2.869 -0.0525  0.0284  0.2012
  830WAT     H1 2701   2.063   4.476   2.865 -0.2609  3.1987  2.3139
  830WAT     H2 2702   1.959   4.374   2.906  2.1194  0.0171  0.8784
  831WAT      O 2703   4.343   1.840   2.134 -0.3184 -0.0620  0.2413
  831WAT     H1 2704   4.315   1.775   2.069  1.8911 -1.2347  0.3598
  831WAT     H2 2705   4.360   1.919   2.082 -1.3232 -0.1011 -0.1685
  832WAT      O 2706   3.320   2.261   2.334  0.2305 -0.5489  0.4225
  832WAT     H1 2707   3.408   2.257   2.372  0.2921  1.8004  0.6676
  832WAT     H2 2708   3.284   2.343   2.366 -2.3061 -1.7047  0.7583
  833WAT      O 2709   4.481   1.173   4.636 -0.1109  0.1318 -0.6043
  833WAT     H1 2710   4.447   1.084   4.623  0.5938 -0.4061  0.9580
  833WAT     H2 2711   4.403   1.228   4.642 -0.6197 -0.6252 -0.0496
  834WAT      O 2712   2.276   3.268   0.642  0.2676  0.0583  0.5207
  834WAT     H1 2713   2.328   3.239   0.716  3.4577  1.2847 -1.0694
  834WAT     H2 2714   2.242   3.187   0.603  1.4042 -0.8262  1.3127
  835WAT      O 2715   3.253   3.210   3.289 -0.3603  0.0248 -0.2764
  835WAT     H1 2716   3.345   3.216   3.262  0.8790 -1.5018  3.0791
  835WAT     H2 2717   3.212   3.157   3.220  1.6180 -0.4789 -1.1528
  836WAT      O 2718   2.480   1.351   1.672 -0.1012 -0.2856 -1.1290
  836WAT     H1 2719   2.528   1.384   1.595 -0.5380  0.1585 -1.2185
  836WAT     H2 2720   2.490   1.256   1.668  0.6713 -0.2085 -1.2127
  837WAT      O 2721   0.258   2.121   3.633 -0.2619 -0.4776  0.2115
  837WAT     H1 2722   0.351   2.104   3.613  0.5721  1.8020  1.7273
  837WAT     H2 2723   0.260   2.198   3.690 -3.2335  0.8522 -1.2935
  838WAT      O 2724   0.633   3.686   0.470  0.1086 -0.3185 -1.0857
  838WAT     H1 2725   0.597   3.752   0.529  0.8170 -2.2642  1.7551
  838WAT     H2 2726   0.575   3.610   0.480  0.3662 -0.7737 -2.7797
  839WAT      O 2727   2.815   4.206   3.353  0.1869  0.1796 -0.3938
  839WAT     H1 2728   2.884   4.173   3.295 -0.8034  1.2501 -2.2687
  839WAT     H2 2729   2.750   4.136   3.355  0.7348 -0.3249  0.3850
  840WAT      O 2730   3.133   4.747   3.203  0.0008  0.1402  0.1214
  840WAT     H1 2731   3.118   4.823   3.258 -0.5650  0.0405  0.1068
  840WAT     H2 2732   3.169   4.782   3.122 -0.7875  0.4394 -0.0985
  841WAT      O 2733   0.564   4.668   3.637  0.1510  0.5963 -0.4335
  841WAT     H1 2734   0.632   4.714   3.686  1.0343 -1.4697  0.4239
  841WAT     H2 2735   0.607   4.642   3.555  0.6434 -1.1878  0.3402
  842WAT      O 2736   1.300   1.055   1.825  0.4698  1.0476 -0.0362
  842WAT     H1 2737   1.345   1.026   1.904  0.6521  1.0178 -0.1496
  842WAT     H2 2738   1.337   1.001   1.755  0.9387  1.6654 -0.2781
  843WAT      O 2739   2.253   4.640   2.084 -0.4564  0.5827  0.0201
  843WAT     H1 2740   2.245   4.589   2.164 -1.2619  1.1189  0.3064
  843WAT     H2 2741   2.195   4.715   2.099  1.2157  1.9521 -0.0900
  844WAT      O 2742   1.654   1.661   2.867 -0.2552  0.0067  0.1476
  844WAT     H1 2743   1.728   1.662   2.928 -1.8432  0.1040  2.1850
  844WAT     H2 2744   1.668   1.582   2.814  1.8033  0.5717 -0.2276
  845WAT      O 2745   1.721   1.373   0.584  0.2037 -0.5439 -0.8531
  845WAT     H1 2746   1.782   1.446   0.594 -1.7572  0.9727  0.8344
  845WAT     H2 2747   1.674   1.393   0.503 -0.5605  0.2908 -0.2209
  846WAT      O 2748   0.084   5.113   2.457  0.5846 -0.2617  0.3454
  846WAT     H1 2749   0.169   5.155   2.446  0.6057 -0.2075  0.6857
  846WAT     H2 2750   0.089   5.070   2.543  0.9192 -1.8002 -0.4141
  847WAT      O 2751   2.891   4.037   2.883 -0.1401 -0.2020 -0.0952
  847WAT     H1 2752   2.933   3.972   2.941  0.1488  1.3470  1.5114
  847WAT     H2 2753   2.949   4.113   2.886 -0.3020  0.0619 -2.2090
  848WAT      O 2754   2.489   3.260   1.628 -0.6460  0.1339 -0.0836
  848WAT     H1 2755   2.411   3.315   1.634  0.0057  1.5955 -3.0462
  848WAT     H2 2756   2.548   3.309   1.571  1.5715 -1.9369  0.2724
  849WAT      O 2757   3.842   1.899   2.226  0.2358  1.3012 -0.3359
  849WAT     H1 2758   3.901   1.826   2.203 -2.0458 -1.8655  2.7651
  849WAT     H2 2759   3.800   1.923   2.143 -0.2868 -2.3485 -1.3179
  850WAT      O 2760   2.339   4.785   3.385  0.3796 -0.2264  0.3004
  850WAT     H1 2761   2.389   4.708   3.412 -0.1191 -1.2515 -1.5405
  850WAT     H2 2762   2.395   4.829   3.321 -0.0843 -0.0515  0.0112
  851WAT      O 2763   3.752   0.745   0.258  0.1822 -0.6333 -0.0577
  851WAT     H1 2764   3.709   0.785   0.334 -0.5293  1.4096 -1.4255
  851WAT     H2 2765   3.684   0.690   0.219  0.4024 -1.3167  0.5051
  852WAT      O 2766   4.133   2.983   4.180  0.0050 -0.1437 -0.7670
  852WAT     H1 2767   4.227   2.970   4.172  0.0447 -0.3809 -0.0147
  852WAT     H2 2768   4.095   2.931   4.110  0.3657 -1.2160 -0.1800
  853WAT      O 2769   0.314   4.682   0.065 -0.0936  0.6551 -0.4029
  853WAT     H1 2770   0.377   4.754   0.063 -0.1102  0.6552 -0.8625
  853WAT     H2 2771   0.237   4.715   0.020 -0.1609  0.4078 -0.4750
  854WAT      O 2772   2.106   0.551   0.588 -0.1933  0.4334  0.9610
  854WAT     H1 2773   2.150   0.480   0.541  1.2579  0.8395  1.6569
  854WAT     H2 2774   2.016   0.549   0.556  0.4109 -0.1864 -0.7802
  855WAT      O 2775   4.222   3.535   4.756  0.8284 -0.4343  0.0930
  855WAT     H1 2776   4.285   3.489   4.811  2.9664  1.1262 -0.9100
  855WAT     H2 2777   4.265   3.543   4.671 -0.8313  0.4938 -0.7168
  856WAT      O 2778   3.406   4.172   0.869  0.2517  0.1226 -0.5530
  856WAT     H1 2779   3.311   4.186   0.867  0.0165 -1.3837 -1.3740
  856WAT     H2 2780   3.423   4.115   0.794  1.5761 -0.9889  0.5431
  857WAT      O 2781   1.858   3.401   0.687  0.3363 -0.1233  0.1364
  857WAT     H1 2782   1.856   3.344   0.610 -0.2380  0.4839 -0.3069
  857WAT     H2 2783   1.932   3.369   0.739  0.2360 -1.0444 -0.2736
  858WAT      O 2784   3.636   0.372   1.068  0.0683  0.8690 -0.1148
  858WAT     H1 2785   3.604   0.289   1.104  0.1173  0.4422 -1.0316
  858WAT     H2 2786   3.726   0.354   1.041 -0.0047  1.1393 -0.5580
  859WAT      O 2787   2.132   3.938   2.504 -0.7920  1.2077 -0.2199
  859WAT     H1 2788   2.136   3.946   2.409  1.6782 -0.7715 -0.3819
  859WAT     H2 2789   2.109   3.846   2.519 -1.1390  1.4959  1.1255
  860WAT      O 2790   0.344   2.465   2.634 -0.1405  0.2332  0.3550
  860WAT     H1 2791   0.309   2.504   2.554  0.7557 -0.7176 -0.5384
  860WAT     H2 2792   0.353   2.372   2.613  2.4781  0.3496  0.6597
  861WAT      O 2793   4.420   1.170   1.099 -0.0832 -0.7047  0.6032
  861WAT     H1 2794   4.501   1.120   1.092 -0.8042 -1.8592  0.1290
  861WAT     H2 2795   4.442   1.245   1.154  1.8301  0.1558 -1.2353
  862WAT      O 2796   2.569   1.988   2.017  0.2968 -0.0394  0.5945
  862WAT     H1 2797   2.593   2.069   2.063 -4.3674  1.1717  1.4319
  862WAT     H2 2798   2.534   1.931   2.085  0.4963 -1.4809 -0.4564
  863WAT      O 2799   1.435   1.406   4.097  0.5944  0.3149 -0.0135
  863WAT     H1 2800   1.487   1.440   4.025  0.4226  0.9025  0.1335
  863WAT     H2 2801   1.486   1.426   4.175  1.4514 -1.5768 -0.0544
  864WAT      O 2802   1.723   2.519   1.688  0.0685 -0.2302 -0.0778
  864WAT     H1 2803   1.799   2.512   1.746 -0.1484  1.8113  0.5451
  864WAT     H2 2804   1.653   2.472   1.733  0.5853 -0.8831  0.0471
  865WAT      O 2805   1.420   0.395   0.921  0.7168  0.0770  0.0024
  865WAT     H1 2806   1.470   0.444   0.986  2.9173  0.1966 -1.6503
  865WAT     H2 2807   1.440   0.440   0.838  1.0791 -2.2975 -1.2742
  866WAT      O 2808   3.949   4.287   3.846 -0.0878  0.1108 -0.2065
  866WAT     H1 2809   3.856   4.264   3.856  0.2771 -2.2901 -1.5664
  866WAT     H2 2810   3.962   4.295   3.752  1.1863 -0.1387 -0.0671
  867WAT      O 2811   1.658   2.663   2.023 -0.6471 -0.0087  0.1774
  867WAT     H1 2812   1.725   2.597   2.008  1.4239  1.8275  0.8945
  867WAT     H2 2813   1.609   2.631   2.100  0.0858 -0.8646  0.2949
  868WAT      O 2814   1.035   0.394   4.698  0.3830  0.1485  0.2756
  868WAT     H1 2815   1.079   0.340   4.633 -2.5139  0.9573 -2.5907
  868WAT     H2 2816   1.069   0.482   4.682 -0.3677  0.3559 -0.1952
  869WAT      O 2817   3.987   2.757   2.012  0.8387  0.1673  0.0017
  869WAT     H1 2818   3.989   2.740   1.918  1.2246  0.5113 -0.0562
  869WAT     H2 2819   3.944   2.842   2.020  0.8609  0.1659  0.1336
  870WAT      O 2820   4.259   3.170   2.340 -0.7371  0.4933  0.4814
  870WAT     H1 2821   4.319   3.211   2.403 -0.7111  1.7980 -0.3433
  870WAT     H2 2822   4.232   3.242   2.283 -1.7706 -0.4071 -0.2080
  871WAT      O 2823   0.907   3.042   4.422 -0.1299  0.3416 -0.3380
  871WAT     H1 2824   0.873   2.975   4.482  1.1501 -0.0880 -0.0713
  871WAT     H2 2825   0.902   3.002   4.335 -2.9785  1.3421 -0.7490
  872WAT      O 2826   4.034   3.103   4.395  0.3456  0.3695  0.3953
  872WAT     H1 2827   4.044   3.043   4.321  1.0569  1.7404 -0.6522
  872WAT     H2 2828   4.102   3.076   4.457  2.0074  1.3254 -0.9458
  873WAT      O 2829   3.823   4.838   1.082 -0.4538 -0.4892  0.6531
  873WAT     H1 2830   3.838   4.906   1.148  2.6931  1.6425 -1.9314
  873WAT     H2 2831   3.831   4.756   1.130  1.8445  0.9234  2.9796
  874WAT      O 2832   0.658   4.314   2.331 -0.1555 -0.5860 -0.0841
  874WAT     H1 2833   0.695   4.233   2.367  0.4543  0.7139  2.3905
  874WAT     H2 2834   0.567   4.314   2.361  0.5966  0.9462  2.4750
  875WAT      O 2835   1.933   3.165   5.029 -0.3912 -0.2278 -0.3055
  875WAT     H1 2836   1.928   3.097   5.097 -0.7200  1.5398  1.5263
  875WAT     H2 2837   1.866   3.139   4.965  1.1578 -2.9063 -0.9832
  876WAT      O 2838   1.642   4.238  -0.028  0.3726 -0.2198 -0.4056
  876WAT     H1 2839   1.601   4.222   0.057  1.0820  0.2474  0.0379
  876WAT     H2 2840   1.704   4.309  -0.011  1.0233 -0.5973 -1.1612
  877WAT      O 2841   3.167   1.071   0.358  0.1143 -0.7053  0.3031
  877WAT     H1 2842   3.246   1.016   0.354 -0.0305 -0.8442 -1.2630
  877WAT     H2 2843   3.187   1.146   0.303 -0.1335  0.2727  1.5020
  878WAT      O 2844   1.502   5.080   0.368 -0.8206 -0.1862  0.4871
  878WAT     H1 2845   1.518   5.082   0.274 -2.9246  0.1516  0.0810
  878WAT     H2 2846   1.582   5.043   0.406 -0.2153 -0.9938 -1.4795
  879WAT      O 2847   0.078   4.887   4.466 -0.3147  0.3675 -0.2093
  879WAT     H1 2848   0.050   4.885   4.557  0.7511 -0.3228  0.1324
  879WAT     H2 2849  -0.001   4.867   4.416 -1.0826  1.5115  0.5023
  880WAT      O 2850   3.186   0.492   4.873 -0.0871 -0.2186 -0.3612
  880WAT     H1 2851   3.229   0.567   4.914 -1.5045 -1.0437  2.9531
  880WAT     H2 2852   3.101   0.486   4.918 -0.3802 -3.2626 -1.1105
  881WAT      O 2853   3.737   3.857   1.266 -0.2669 -0.0435 -0.6339
  881WAT     H1 2854   3.702   3.841   1.178  0.4219 -2.0011 -0.5872
  881WAT     H2 2855   3.819   3.809   1.268 -0.5111 -0.4442  1.2571
  882WAT      O 2856   4.093   4.781   4.204 -0.1184  0.0208  0.4734
  882WAT     H1 2857   4.169   4.833   4.177  1.4666 -1.9219  0.9989
  882WAT     H2 2858   4.071   4.729   4.126 -1.1787  0.8075  0.2158
  883WAT      O 2859   3.360   3.757   1.583  0.2220 -0.2556  0.1745
  883WAT     H1 2860   3.334   3.711   1.503 -0.6805 -0.1044  0.3624
  883WAT     H2 2861   3.449   3.788   1.566  0.3429 -0.9287 -0.4541
  884WAT      O 2862   1.714   4.602   4.556  0.0769 -0.4216 -0.6221
  884WAT     H1 2863   1.635   4.649   4.583 -0.2252 -1.3431  0.1752
  884WAT     H2 2864   1.689   4.555   4.477  0.1308  0.0705 -0.9360
  885WAT      O 2865   1.430   4.922   5.202  0.2920  0.0322  0.2955
  885WAT     H1 2866   1.492   4.853   5.179 -0.0094 -0.6763  1.5067
  885WAT     H2 2867   1.347   4.895   5.163 -0.1331 -0.9818  1.8229
  886WAT      O 2868   0.454   1.316   4.172  0.1396 -0.0269  0.0489
  886WAT     H1 2869   0.491   1.227   4.167 -0.8953 -0.4739 -0.0418
  886WAT     H2 2870   0.490   1.353   4.252 -0.3690 -0.9967  0.7476
  887WAT      O 2871   2.018   1.531   2.514  0.1245 -0.3888  0.4490
  887WAT     H1 2872   2.046   1.510   2.603 -2.2630  1.5112  1.7415
  887WAT     H2 2873   2.090   1.581   2.477  0.5557  0.0722  1.8640
  888WAT      O 2874   2.785   2.702   0.168  0.4951 -0.2356  0.3502
  888WAT     H1 2875   2.826   2.721   0.083 -2.7663  0.5275 -1.2212
  888WAT     H2 2876   2.830   2.759   0.230  0.7387  1.7421 -1.5407
  889WAT      O 2877   3.048   3.431   3.312 -0.1821  0.2714  0.4247
  889WAT     H1 2878   2.965   3.399   3.278  0.5593 -0.4312 -0.7615
  889WAT     H2 2879   3.102   3.353   3.322 -0.2097  0.4713  2.9076
  890WAT      O 2880   3.160   4.371   0.672 -0.0035  0.1505 -0.2887
  890WAT     H1 2881   3.092   4.384   0.738 -0.8106  2.8254 -1.5133
  890WAT     H2 2882   3.237   4.414   0.708  0.0120  0.2176 -0.4007
  891WAT      O 2883   0.981   4.715   3.188  0.4826  0.5635 -0.1994
  891WAT     H1 2884   0.973   4.634   3.139  0.3169 -0.0225  0.7820
  891WAT     H2 2885   1.072   4.718   3.215  0.5420  0.8223 -0.4171
  892WAT      O 2886   3.909   4.465   4.499  0.4168 -0.2482 -0.1694
  892WAT     H1 2887   3.986   4.415   4.471  0.2926 -0.3983 -0.2423
  892WAT     H2 2888   3.909   4.543   4.443  1.2909  0.4319  0.7473
  893WAT      O 2889   0.323   5.077   3.579 -0.2701 -0.1213  0.0111
  893WAT     H1 2890   0.259   5.021   3.623 -0.0869 -0.1119  0.2890
  893WAT     H2 2891   0.316   5.161   3.623  0.5240 -0.3518  0.6150
  894WAT      O 2892   2.827   5.114   4.052 -0.3430  0.1215  0.1198
  894WAT     H1 2893   2.889   5.141   4.121 -0.0957 -1.7066  0.6633
  894WAT     H2 2894   2.884   5.089   3.978 -0.2692 -2.6131  0.9914
  895WAT      O 2895   2.946   2.395   1.260  0.5078 -0.0249  0.0816
  895WAT     H1 2896   3.016   2.437   1.211 -0.0804  1.1231  0.1815
  895WAT     H2 2897   2.941   2.306   1.224  1.6572  0.0345 -0.2697
  896WAT      O 2898   2.434   4.409   4.762 -0.2128  0.4872 -0.2857
  896WAT     H1 2899   2.346   4.376   4.748 -0.4840  0.5692  1.1079
  896WAT     H2 2900   2.423   4.502   4.780  0.4322  1.1275 -2.8303
  897WAT      O 2901   0.780   2.387   2.173  0.1987  0.1619  0.4381
  897WAT     H1 2902   0.784   2.451   2.102  0.8150  0.7695  1.0063
  897WAT     H2 2903   0.692   2.397   2.209  0.3682  0.8704  0.6751
  898WAT      O 2904   2.618   1.584   1.760 -0.5037 -0.0988 -0.1293
  898WAT     H1 2905   2.554   1.514   1.745  0.3455 -1.2229  1.2155
  898WAT     H2 2906   2.702   1.538   1.765  0.3320  1.2635 -1.1078
  899WAT      O 2907   3.603   2.137   1.935  0.3946 -0.1255 -0.0257
  899WAT     H1 2908   3.522   2.106   1.895  0.5602  0.8187 -1.1428
  899WAT     H2 2909   3.645   2.057   1.968 -0.2226 -0.8295 -0.8773
  900WAT      O 2910   0.578   1.291   4.973  0.1926  0.1742  0.2286
  900WAT     H1 2911   0.513   1.356   4.999 -0.0189 -0.0803  0.3410
  900WAT     H2 2912   0.620   1.328   4.896  0.4212  0.6759  0.5870
  901WAT      O 2913   1.327   3.645   0.235 -0.1335  0.5326 -0.5012
  901WAT     H1 2914   1.271   3.603   0.300  0.4221 -0.0604 -0.3951
  901WAT     H2 2915   1.414   3.647   0.276  0.2193  0.1461 -1.2270
  902WAT      O 2916   3.952   2.722   1.739 -0.6180  0.5028 -0.0828
  902WAT     H1 2917   3.888   2.761   1.680 -1.4348 -0.5312  0.0870
  902WAT     H2 2918   4.034   2.724   1.690 -0.9927  0.9296 -0.7031
  903WAT      O 2919   0.848   4.676   0.538 -0.0992 -0.5841 -0.1197
  903WAT     H1 2920   0.906   4.747   0.568 -1.0065 -0.7181  2.1925
  903WAT     H2 2921   0.905   4.599   0.536  0.5760 -0.0832 -1.3012
  904WAT      O 2922   2.039   3.575   5.075  0.2937  0.2304 -0.2266
  904WAT     H1 2923   2.056   3.600   5.166  1.1806 -1.1203 -0.0049
  904WAT     H2 2924   2.090   3.637   5.024 -1.0585  1.7059  0.1129
  905WAT      O 2925   0.544   3.871   0.673 -0.3594  0.1235 -0.4735
  905WAT     H1 2926   0.509   3.949   0.630 -1.2392  0.1198  0.2299
  905WAT     H2 2927   0.595   3.905   0.747 -0.5171  0.0415 -0.3276
  906WAT      O 2928   1.665   4.912   4.574  0.0823  0.0892  0.4261
  906WAT     H1 2929   1.717   4.942   4.500 -2.1959  1.4740 -0.7503
  906WAT     H2 2930   1.594   4.861   4.534  0.5565 -1.8661  1.9571
  907WAT      O 2931   1.040   0.872   3.017 -0.3121 -0.0344 -0.7005
  907WAT     H1 2932   0.998   0.957   3.004  0.9566  0.3464 -2.8966
  907WAT     H2 2933   1.044   0.861   3.112 -3.5249  0.7481 -0.3699
  908WAT      O 2934   3.239   0.598   3.715  0.5760 -0.0394  0.3484
  908WAT     H1 2935   3.193   0.518   3.688  0.0878 -0.5952  2.5916
  908WAT     H2 2936   3.182   0.669   3.684  0.4365 -0.5794 -0.6861
  909WAT      O 2937   2.493   3.750   1.577 -0.2755 -0.0739  0.4078
  909WAT     H1 2938   2.413   3.727   1.625 -0.2667 -1.5182 -0.2149
  909WAT     H2 2939   2.553   3.781   1.644 -0.6671 -0.9336  1.1773
  910WAT      O 2940   2.143   3.301   1.476  0.4946  1.2032 -0.7196
  910WAT     H1 2941   2.178   3.247   1.404 -0.6696  0.7221 -0.9473
  910WAT     H2 2942   2.049   3.305   1.459  0.6277  4.3123 -1.3731
  911WAT      O 2943   2.280   3.714   2.033 -0.0590  0.4087  0.1521
  911WAT     H1 2944   2.320   3.715   1.946  3.1065  0.9197  1.4748
  911WAT     H2 2945   2.210   3.649   2.026 -1.1465  1.6936 -3.1895
  912WAT      O 2946   2.315   3.694   4.911 -0.0353 -0.3490  0.5481
  912WAT     H1 2947   2.339   3.686   5.004  1.2497  2.9966  0.6490
  912WAT     H2 2948   2.388   3.742   4.872 -0.7374 -1.3328 -2.1415
  913WAT      O 2949   0.814   0.653   0.147 -0.5157  0.0945 -0.0092
  913WAT     H1 2950   0.783   0.739   0.176 -1.0789  0.5963 -1.9278
  913WAT     H2 2951   0.736   0.610   0.112  0.1563 -0.2933 -1.1016
  914WAT      O 2952   0.640   2.800   2.301  0.5105  0.2229  0.1193
  914WAT     H1 2953   0.653   2.894   2.290 -1.6282  0.8273  1.8362
  914WAT     H2 2954   0.660   2.784   2.394 -0.3517 -0.7341  0.1612
  915WAT      O 2955   0.815   2.881   4.651 -0.2376  0.3468  0.0672
  915WAT     H1 2956   0.849   2.844   4.570  0.9964 -0.4106  0.9011
  915WAT     H2 2957   0.875   2.850   4.719 -1.5377  0.5195  1.3512
  916WAT      O 2958   1.250   4.580   2.652 -0.2966  0.2548  0.4645
  916WAT     H1 2959   1.338   4.548   2.671 -0.8545 -1.0511  0.9244
  916WAT     H2 2960   1.252   4.672   2.680  0.7757  0.1089  0.9258
  917WAT      O 2961   0.115   4.555   4.064 -0.5078 -0.2016 -0.2858
  917WAT     H1 2962   0.040   4.498   4.075  0.4927 -1.4858  0.1424
  917WAT     H2 2963   0.139   4.545   3.972  0.9818 -2.2724  0.2404
  918WAT      O 2964   0.106   3.059   5.099  0.4681 -0.3796  0.2102
  918WAT     H1 2965   0.163   3.134   5.084 -0.9431  1.1773  1.9920
  918WAT     H2 2966   0.159   2.999   5.153  1.0008  0.2026  0.3440
  919WAT      O 2967   3.161   2.320   0.431  0.7093  0.3151 -0.0677
  919WAT     H1 2968   3.146   2.403   0.385 -2.2389  0.0405  0.2406
  919WAT     H2 2969   3.194   2.261   0.364 -0.6236  0.7811 -1.1793
  920WAT      O 2970   3.416   5.045   3.107 -0.0671  0.2404 -0.3091
  920WAT     H1 2971   3.352   4.997   3.055  2.2949 -0.7000 -2.5427
  920WAT     H2 2972   3.444   4.982   3.173 -0.9516  0.4666  0.3079
  921WAT      O 2973   4.123   2.252   0.944 -0.6365 -0.3526  0.0619
  921WAT     H1 2974   4.131   2.235   0.850 -0.2118 -0.7564  0.1680
  921WAT     H2 2975   4.084   2.339   0.950 -1.8679 -0.8307 -0.5069
  922WAT      O 2976   0.480   3.339   1.063 -0.0213 -0.2565  0.1371
  922WAT     H1 2977   0.548   3.388   1.110 -0.6822  0.7280  0.0712
  922WAT     H2 2978   0.498   3.247   1.086  0.4482  0.1014  1.2858
  923WAT      O 2979   1.179   2.799   1.837  1.0205 -0.3998  0.2919
  923WAT     H1 2980   1.214   2.844   1.760 -0.1959  3.6086  1.8121
  923WAT     H2 2981   1.120   2.732   1.801  0.7749  1.0882 -2.3007
  924WAT      O 2982   2.312   2.076   1.933 -0.2076 -0.0559 -0.1748
  924WAT     H1 2983   2.406   2.065   1.950 -0.3302  0.7640  1.1910
  924WAT     H2 2984   2.298   2.035   1.848  1.3300 -0.4772 -0.2536
  925WAT      O 2985   0.191   1.991   3.964  0.2826 -0.2151  0.1916
  925WAT     H1 2986   0.194   2.030   3.877  1.2696 -0.0876  0.2660
  925WAT     H2 2987   0.268   1.935   3.968 -0.4237 -1.1934  0.5529
  926WAT      O 2988   4.099   2.346   3.482  0.0198  0.0001  0.2868
  926WAT     H1 2989   4.020   2.399   3.475  0.7978  1.0579 -0.6743
  926WAT     H2 2990   4.144   2.358   3.399  1.2840 -0.4599  0.8811
  927WAT      O 2991   0.886   3.529   1.415 -0.2171  0.6039  0.2610
  927WAT     H1 2992   0.952   3.534   1.484 -1.2864  2.3025  1.2425
  927WAT     H2 2993   0.930   3.559   1.336 -0.1498  3.3186  1.2307
  928WAT      O 2994   3.671   4.929   3.295  0.3295  0.1374  0.0123
  928WAT     H1 2995   3.615   4.858   3.264 -0.9337  0.8130  0.6611
  928WAT     H2 2996   3.755   4.915   3.251 -0.4331 -0.7464 -1.2116
  929WAT      O 2997   1.656   2.811   3.442 -0.2293  0.2830  0.0902
  929WAT     H1 2998   1.585   2.825   3.379  0.6779  2.0239 -0.6288
  929WAT     H2 2999   1.736   2.834   3.393  0.6726 -0.0242  1.3593
  930WAT      O 3000   2.760   4.222   1.328  0.0135 -0.0022 -0.0692
  930WAT     H1 3001   2.806   4.253   1.250  0.4360 -1.1711 -0.3092
  930WAT     H2 3002   2.826   4.172   1.376 -1.1045 -2.3053 -0.7578
  931WAT      O 3003   3.762   3.322   1.847 -0.0919 -0.1580 -0.3461
  931WAT     H1 3004   3.718   3.340   1.930  0.5542 -0.4511  0.0671
  931WAT     H2 3005   3.854   3.312   1.870  0.3013  1.0606 -1.2846
  932WAT      O 3006   3.871   1.787   3.183 -0.3687 -0.0453  0.4984
  932WAT     H1 3007   3.867   1.740   3.099  0.3626  2.2721 -0.9267
  932WAT     H2 3008   3.925   1.731   3.239 -0.5529 -1.4760 -0.6742
  933WAT      O 3009   0.164   3.159   3.428  0.3772 -0.3434 -0.5524
  933WAT     H1 3010   0.136   3.162   3.337  0.0591  0.0131 -0.4450
  933WAT     H2 3011   0.120   3.234   3.469  1.7651  0.4336 -0.4438
  934WAT      O 3012   1.801   4.549   3.220  0.1086 -0.9242  0.0153
  934WAT     H1 3013   1.761   4.597   3.148  0.6168 -2.4295 -1.3233
  934WAT     H2 3014   1.736   4.551   3.290  0.1466  1.7226  0.0549
  935WAT      O 3015   3.163   3.373   2.955  0.0758  0.2550  0.0883
  935WAT     H1 3016   3.232   3.421   2.911  1.2579 -1.1267  0.3706
  935WAT     H2 3017   3.082   3.407   2.917  0.9449  0.9816 -1.1765
  936WAT      O 3018   2.115   0.551   2.831 -0.1494 -0.0553 -0.0722
  936WAT     H1 3019   2.080   0.466   2.856  0.9355  0.3173  3.2117
  936WAT     H2 3020   2.207   0.534   2.811 -0.0681  0.2615  0.0325
  937WAT      O 3021   1.477   1.813   3.419 -0.1002 -0.4357 -0.7380
  937WAT     H1 3022   1.405   1.790   3.479  1.1852  0.5180  1.3051
  937WAT     H2 3023   1.497   1.732   3.373 -1.3298 -1.1582 -0.0610
  938WAT      O 3024   2.028   0.050   0.913  0.1279 -1.0425  0.2918
  938WAT     H1 3025   2.120   0.070   0.935 -0.1502 -1.2776  1.7828
  938WAT     H2 3026   1.978   0.088   0.985 -1.0866  0.2766 -1.1771
  939WAT      O 3027   1.299   1.116   4.492  0.3747 -0.2919 -0.4058
  939WAT     H1 3028   1.280   1.210   4.493  0.5591 -0.2529  1.1979
  939WAT     H2 3029   1.393   1.111   4.510  0.6420 -0.7566 -1.7846
  940WAT      O 3030   1.629   4.791   1.873 -0.1885 -0.5435 -0.1752
  940WAT     H1 3031   1.604   4.777   1.781 -2.1990  0.1586  0.2085
  940WAT     H2 3032   1.566   4.856   1.905  2.1918  1.3370  0.9777
  941WAT      O 3033   3.386   4.316   3.601  0.1518 -0.8475  0.2559
  941WAT     H1 3034   3.357   4.236   3.645 -1.6747 -0.5766 -0.3742
  941WAT     H2 3035   3.340   4.316   3.517 -1.7520  1.9418  1.1513
  942WAT      O 3036   1.011   0.295   1.322  0.3276 -0.2629 -0.6286
  942WAT     H1 3037   1.070   0.308   1.396 -0.9417  0.0802  0.3614
  942WAT     H2 3038   1.053   0.339   1.249  1.0163  0.4567  0.1889
  943WAT      O 3039   1.234   0.822   1.263  0.1414  0.2176 -0.1281
  943WAT     H1 3040   1.269   0.823   1.174 -0.5258 -0.6864 -0.4225
  943WAT     H2 3041   1.310   0.806   1.318  0.3458 -0.8129 -0.6824
  944WAT      O 3042   3.283   2.621   4.844  0.2573  0.5837  0.0399
  944WAT     H1 3043   3.377   2.633   4.835  0.8988 -1.7446  2.5265
  944WAT     H2 3044   3.255   2.690   4.904  1.0002 -0.5196  1.7188
  945WAT      O 3045   2.899   4.908   1.234 -0.0831 -0.0900 -0.1953
  945WAT     H1 3046   2.885   4.842   1.301  1.3279 -1.5743 -1.2671
  945WAT     H2 3047   2.981   4.882   1.191  1.1036  2.9159 -0.0398
  946WAT      O 3048   0.474   1.078   3.357  0.2041 -0.0543  0.3837
  946WAT     H1 3049   0.553   1.090   3.303 -0.4154 -1.6095 -0.9240
  946WAT     H2 3050   0.482   1.146   3.424  0.7716  2.3546 -1.9166
  947WAT      O 3051   0.059   3.168   2.006  0.0005  0.0878 -0.5078
  947WAT     H1 3052   0.032   3.123   1.926 -0.5525  1.3842 -1.0574
  947WAT     H2 3053   0.132   3.223   1.979  1.5954 -1.4315  0.4454
  948WAT      O 3054   1.436   0.890   3.854 -0.2139 -0.7448  0.1739
  948WAT     H1 3055   1.394   0.912   3.937  0.9523 -0.8710  0.8201
  948WAT     H2 3056   1.518   0.940   3.854 -1.0291  0.7422 -1.7615
  949WAT      O 3057   3.360   2.426   0.108 -0.7493  0.0731  0.4113
  949WAT     H1 3058   3.338   2.336   0.129  0.1641 -0.0839  0.7244
  949WAT     H2 3059   3.414   2.456   0.181 -0.4764  0.6544 -0.0170
  950WAT      O 3060   2.012   0.973   2.120 -0.3876  0.1947 -0.7365
  950WAT     H1 3061   2.107   0.969   2.130 -0.3315 -0.9208 -1.5864
  950WAT     H2 3062   1.984   1.035   2.188  1.1193  2.1276 -1.7931
  951WAT      O 3063   0.152   3.507   2.822 -0.2484 -0.0658 -0.1343
  951WAT     H1 3064   0.118   3.580   2.771 -0.2055  0.8696  1.1473
  951WAT     H2 3065   0.076   3.475   2.871 -0.2409 -0.8254 -0.5957
  952WAT      O 3066   2.432   1.241   2.250 -0.2207 -0.4032 -0.1468
  952WAT     H1 3067   2.367   1.305   2.221  2.7245  2.8776 -0.1159
  952WAT     H2 3068   2.396   1.206   2.332 -2.8297 -0.3725 -1.1824
  953WAT      O 3069   0.242   3.931   1.003 -0.2790 -0.4666  0.3873
  953WAT     H1 3070   0.299   3.992   1.050 -0.9439 -1.2892  2.3810
  953WAT     H2 3071   0.252   3.955   0.911 -0.7629  2.8724  1.0537
  954WAT      O 3072   1.104   3.425   4.840 -0.6030 -0.6951 -0.5131
  954WAT     H1 3073   1.084   3.405   4.932  1.2411 -0.0632  0.0666
  954WAT     H2 3074   1.119   3.520   4.840  1.6632 -1.0055 -0.9743
  955WAT      O 3075   3.589   2.791   0.902  0.2354 -0.1600  0.9826
  955WAT     H1 3076   3.628   2.734   0.968 -0.1104 -1.0817  0.4250
  955WAT     H2 3077   3.639   2.772   0.822 -0.5093 -0.4144  0.5628
  956WAT      O 3078   1.299   4.644   3.190  0.1577  0.1441  0.0983
  956WAT     H1 3079   1.315   4.734   3.216 -2.2064  0.6941 -0.0996
  956WAT     H2 3080   1.355   4.630   3.114 -0.5142  1.9827 -0.7976
  957WAT      O 3081   0.064   0.582   4.719 -0.5701  0.5818  0.1211
  957WAT     H1 3082   0.136   0.645   4.731  0.6263 -0.6378 -0.4852
  957WAT     H2 3083   0.015   0.617   4.645  0.3788  0.5629 -0.5399
  958WAT      O 3084   2.868   3.811   2.236 -0.1341 -0.8407 -0.1914
  958WAT     H1 3085   2.818   3.869   2.179  2.0592  0.1594 -1.1980
  958WAT     H2 3086   2.956   3.810   2.199  0.6099 -2.6402  1.4199
  959WAT      O 3087   0.092   2.095   0.612  0.0070  0.6503  0.7130
  959WAT     H1 3088   0.079   2.163   0.678  2.0551  2.3812 -0.5482
  959WAT     H2 3089   0.041   2.124   0.537  1.2684  1.0994  0.0038
  960WAT      O 3090   0.538   0.184   1.932  0.1254  0.7833 -0.2100
  960WAT     H1 3091   0.586   0.168   1.850  0.3615  3.1044 -0.5844
  960WAT     H2 3092   0.587   0.254   1.975 -0.9968  0.8124  1.0656
  961WAT      O 3093   2.759   5.028   2.935 -0.0446  0.0206  0.3393
  961WAT     H1 3094   2.779   4.986   2.852 -0.4817  0.5364 -0.0314
  961WAT     H2 3095   2.836   5.012   2.990 -0.7191 -2.4291  0.6810
  962WAT      O 3096   0.044   0.172   0.580  0.3793  0.5543  0.0685
  962WAT     H1 3097   0.014   0.205   0.496  1.1223 -2.2516 -1.4342
  962WAT     H2 3098   0.094   0.093   0.559 -0.4873 -1.0303  3.1893
  963WAT      O 3099   2.640   4.952   3.481  0.3355  0.1036 -0.4109
  963WAT     H1 3100   2.654   4.992   3.395 -1.5281  1.3930 -0.1561
  963WAT     H2 3101   2.723   4.967   3.527  0.9694  0.3720 -1.5838
  964WAT      O 3102   1.214   1.158   3.392  0.5254 -0.1480  0.4521
  964WAT     H1 3103   1.272   1.160   3.469  0.3735  2.6264  0.5606
  964WAT     H2 3104   1.259   1.211   3.327 -0.6621 -0.1928 -0.4293
  965WAT      O 3105   0.654   4.902   5.047 -0.4190 -0.1919  0.4561
  965WAT     H1 3106   0.735   4.930   5.091 -0.1524 -1.1431  0.6012
  965WAT     H2 3107   0.684   4.856   4.969 -0.8865  1.3630 -0.7011
  966WAT      O 3108   0.838   4.728   3.411 -0.2512 -0.0979 -0.6584
  966WAT     H1 3109   0.765   4.790   3.411  2.1193  2.9642  0.6953
  966WAT     H2 3110   0.879   4.740   3.325  0.4308  0.5311 -0.2523
  967WAT      O 3111   3.416   5.062   1.785  0.5524 -0.2228  0.5367
  967WAT     H1 3112   3.443   5.063   1.693  0.9975 -1.0205  0.6477
  967WAT     H2 3113   3.467   5.132   1.825  0.2872  0.1910  0.1623
  968WAT      O 3114   2.887   1.563   1.528 -0.0870  0.2983 -0.3569
  968WAT     H1 3115   2.826   1.628   1.563 -0.2106 -1.1505  2.3823
  968WAT     H2 3116   2.968   1.577   1.577  0.1938 -0.9003 -0.4354
  969WAT      O 3117   4.143   1.862   3.092  0.3366  0.6265 -0.3677
  969WAT     H1 3118   4.054   1.862   3.126 -0.2074 -1.0324 -1.6590
  969WAT     H2 3119   4.198   1.847   3.169 -0.8660 -3.3408 -0.0477
  970WAT      O 3120   1.484   3.569   2.317  0.1131  0.2631 -0.2288
  970WAT     H1 3121   1.496   3.638   2.252  0.0374 -0.7421 -1.3586
  970WAT     H2 3122   1.540   3.497   2.286  0.7573  0.0616  1.3023
  971WAT      O 3123   0.941   3.802   3.080  0.2179 -0.0529 -0.5961
  971WAT     H1 3124   1.009   3.866   3.058  0.9288 -0.0059  1.5242
  971WAT     H2 3125   0.975   3.757   3.158 -1.0698 -1.7974 -0.9902
  972WAT      O 3126   1.046   2.559   2.082  0.0472  0.3529 -0.4139
  972WAT     H1 3127   1.073   2.468   2.068 -0.9615  0.0661 -0.5685
  972WAT     H2 3128   1.024   2.591   1.995 -1.0879  0.2473 -0.1830
  973WAT      O 3129   2.450   3.263   3.700  0.1626  0.3294  0.1240
  973WAT     H1 3130   2.379   3.202   3.679 -1.2828  0.8728  2.9864
  973WAT     H2 3131   2.528   3.208   3.707 -0.6964 -0.8642  0.5184
  974WAT      O 3132   4.011   3.318   3.368 -0.3650  0.5183 -0.2116
  974WAT     H1 3133   3.985   3.410   3.381  0.4271  1.0208 -1.8300
  974WAT     H2 3134   4.050   3.317   3.281 -0.8167 -1.4857 -0.4401
  975WAT      O 3135   3.867   3.333   4.721  0.0536 -0.1817  0.2200
  975WAT     H1 3136   3.945   3.277   4.725 -0.2611 -0.6212  0.2836
  975WAT     H2 3137   3.891   3.403   4.660 -0.7478 -2.2782 -2.7080
  976WAT      O 3138   2.382   0.222   1.238 -0.2613  0.5482  0.1784
  976WAT     H1 3139   2.404   0.164   1.311 -1.3846  0.6311  0.6074
  976WAT     H2 3140   2.466   0.241   1.196  0.4911  1.0136  1.8252
  977WAT      O 3141   1.252   4.582   3.978 -0.0758  0.1178 -0.0485
  977WAT     H1 3142   1.180   4.525   4.004 -0.5753  0.7136 -0.0900
  977WAT     H2 3143   1.213   4.643   3.916  0.1391  1.2786  0.9072
  978WAT      O 3144   3.726   0.071   0.074  0.0811 -0.1499  0.5862
  978WAT     H1 3145   3.729  -0.009   0.126 -0.2821  0.3463  1.3872
  978WAT     H2 3146   3.633   0.094   0.071  0.2272  0.4601  0.7041
  979WAT      O 3147   0.677   3.344   2.566 -0.3581  0.1276  0.5771
  979WAT     H1 3148   0.598   3.292   2.584  0.3369 -1.6928 -1.1802
  979WAT     H2 3149   0.748   3.291   2.601  0.3025  0.2381 -0.5462
  980WAT      O 3150   0.293   3.580   4.032 -0.0747 -0.3542 -0.2701
  980WAT     H1 3151   0.312   3.527   3.955  0.4102  1.4426 -1.4697
  980WAT     H2 3152   0.378   3.618   4.055 -0.4474  0.1066  0.3707
  981WAT      O 3153   2.622   5.102   3.196 -0.5746  0.3168 -0.6224
  981WAT     H1 3154   2.691   5.108   3.129  0.8290 -0.5088  0.6970
  981WAT     H2 3155   2.601   5.009   3.200  0.9944 -0.0089  1.6185
  982WAT      O 3156   2.317   0.185   0.335  0.4105 -0.1144  0.1939
  982WAT     H1 3157   2.236   0.134   0.328 -0.2281  0.7201  1.1585
  982WAT     H2 3158   2.381   0.123   0.369 -0.1452 -0.4881  0.5766
  983WAT      O 3159   2.832   0.797   0.605  0.3659 -0.5367 -0.7178
  983WAT     H1 3160   2.878   0.758   0.531 -0.9733 -1.4372 -1.1297
  983WAT     H2 3161   2.827   0.726   0.670  0.8876  0.0223 -0.0545
  984WAT      O 3162   0.346   0.135   2.402  0.4012 -0.2210  0.2990
  984WAT     H1 3163   0.376   0.060   2.453 -0.0425  0.5243  1.7240
  984WAT     H2 3164   0.393   0.209   2.438  0.0111  0.3467 -0.3363
  985WAT      O 3165   3.949   3.795   2.237  0.2245  0.2540 -0.1383
  985WAT     H1 3166   3.907   3.757   2.315 -0.2273 -0.7932 -0.8612
  985WAT     H2 3167   3.988   3.876   2.268 -0.8214  0.3725  0.9572
  986WAT      O 3168   0.343   2.349   5.061 -0.1808 -0.2517  0.8196
  986WAT     H1 3169   0.399   2.311   5.129  1.0477 -0.8569 -0.4741
  986WAT     H2 3170   0.322   2.275   5.004 -2.8000 -0.1498  1.5383
  987WAT      O 3171   3.853   3.595   0.955 -0.2510  0.4401  0.1829
  987WAT     H1 3172   3.797   3.670   0.974 -0.1471  0.3845  0.7282
  987WAT     H2 3173   3.798   3.518   0.970  0.0648  0.3751  1.0865
  988WAT      O 3174   1.148   0.822   0.505  0.2392  0.3983 -0.5461
  988WAT     H1 3175   1.109   0.904   0.475 -1.4952 -0.8419 -1.8353
  988WAT     H2 3176   1.228   0.814   0.454 -0.6298  0.3115 -1.9378
  989WAT      O 3177   0.271   1.018   0.347 -0.0537  0.5408 -0.3876
  989WAT     H1 3178   0.224   0.969   0.416  0.6080 -0.0060 -0.3139
  989WAT     H2 3179   0.211   1.089   0.323  0.0342  1.2449  1.3357
  990WAT      O 3180   3.432   0.471   0.120 -0.0880  0.0882  0.2603
  990WAT     H1 3181   3.453   0.559   0.091 -0.1073  0.0098  0.0054
  990WAT     H2 3182   3.337   0.471   0.129 -0.2236 -0.2921 -1.0303
  991WAT      O 3183   2.777   3.775   3.210 -0.3575 -0.1829 -0.0004
  991WAT     H1 3184   2.785   3.801   3.301  0.0910  1.2836 -0.4361
  991WAT     H2 3185   2.699   3.821   3.178 -0.6317 -0.8459 -0.3194
  992WAT      O 3186   4.375   4.820   3.039 -0.2764  0.3274  0.3662
  992WAT     H1 3187   4.338   4.908   3.044  0.9538  1.0011 -1.3006
  992WAT     H2 3188   4.460   4.827   3.083 -1.3866 -0.8336  2.8700
  993WAT      O 3189   3.542   0.307   0.381 -0.3882  0.0895 -0.1217
  993WAT     H1 3190   3.493   0.233   0.344  0.0407 -0.0897 -0.3383
  993WAT     H2 3191   3.510   0.384   0.334  1.0249 -0.2780 -1.7737
  994WAT      O 3192   1.056   3.384   4.227 -0.1352  0.0822 -0.4601
  994WAT     H1 3193   1.047   3.313   4.291  0.3846 -0.7644 -1.3081
  994WAT     H2 3194   1.139   3.426   4.250 -0.2441  0.1645 -0.2110
  995WAT      O 3195   3.705   1.398   4.690  0.7305  0.6018 -0.2371
  995WAT     H1 3196   3.740   1.440   4.612  0.2531 -0.8755 -1.2865
  995WAT     H2 3197   3.614   1.428   4.694  0.8092  0.8301 -0.1263
  996WAT      O 3198   3.796   3.358   0.309 -0.1911  0.7406  0.1990
  996WAT     H1 3199   3.786   3.437   0.256  0.2447  0.9406  0.4025
  996WAT     H2 3200   3.817   3.289   0.246 -2.0139  0.4666 -0.1414
  997WAT      O 3201   4.373   5.005   2.184 -0.2712 -0.0801 -0.1907
  997WAT     H1 3202   4.420   4.940   2.238  0.2161  0.6704  0.3047
  997WAT     H2 3203   4.374   4.967   2.096  1.3512 -0.0630 -0.2090
  998WAT      O 3204   3.826   4.174   2.133 -0.0326 -0.1936 -0.2232
  998WAT     H1 3205   3.921   4.179   2.128 -0.0253  1.6533  0.6984
  998WAT     H2 3206   3.795   4.208   2.049  0.1059 -0.7360 -0.4980
  999WAT      O 3207   3.394   4.567   3.341  0.4321  0.7541 -0.3516
  999WAT     H1 3208   3.401   4.642   3.400  0.6238 -0.0418  0.6698
  999WAT     H2 3209   3.308   4.529   3.359  1.0659 -0.3526  0.5126
 1000WAT      O 3210   4.328   0.569   2.849  0.1700  0.0830 -0.4287
 1000WAT     H1 3211   4.343   0.481   2.885  0.4540 -1.2985 -3.5846
 1000WAT     H2 3212   4.396   0.623   2.888  1.6498 -1.7386 -0.3471
 1001WAT      O 3213   0.520   1.930   2.291  0.1763  0.4065  0.1393
 1001WAT     H1 3214   0.457   1.858   2.297 -0.0671  0.7085  1.5004
 1001WAT     H2 3215   0.601   1.893   2.327 -0.1102  0.9633  1.4111
 1002WAT      O 3216   3.839   3.012   4.994  0.1717  0.0054 -0.2143
 1002WAT     H1 3217   3.890   2.984   4.917  0.5849  0.6929 -0.1997
 1002WAT     H2 3218   3.887   2.975   5.068 -0.5453 -1.1429 -0.3046
 1003WAT      O 3219   3.262   3.674   2.368  0.2086  0.6151  0.2100
 1003WAT     H1 3220   3.200   3.643   2.435 -1.6735  2.8091 -0.3814
 1003WAT     H2 3221   3.328   3.722   2.417 -0.9101  1.8217  0.5776
 1004WAT      O 3222   1.959   1.737   0.311 -0.3663 -0.2619 -0.2666
 1004WAT     H1 3223   1.961   1.808   0.246 -1.9004  0.2714  0.2232
 1004WAT     H2 3224   2.050   1.726   0.336  0.0239  0.9083 -1.0519
 1005WAT      O 3225   4.370   4.526   3.055  0.1120  0.0168 -0.6415
 1005WAT     H1 3226   4.333   4.501   2.970  1.6924 -2.3839 -0.7205
 1005WAT     H2 3227   4.385   4.621   3.047  0.4059 -0.1584 -3.1220
 1006WAT      O 3228   1.744   4.657   3.708  0.4397 -0.6376  0.4314
 1006WAT     H1 3229   1.829   4.613   3.718  0.6234  0.1006  2.7555
 1006WAT     H2 3230   1.692   4.624   3.781 -1.2356 -0.8798 -0.8229
 1007WAT      O 3231   0.272   2.882   4.720  0.3977 -0.6327 -0.0371
 1007WAT     H1 3232   0.243   2.972   4.736  2.0082  0.4075 -2.3865
 1007WAT     H2 3233   0.192   2.836   4.695 -0.6465 -0.2005  2.2043
 1008WAT      O 3234   2.027   3.360   4.414  0.1557  0.1870 -0.1874
 1008WAT     H1 3235   1.947   3.409   4.392  0.0248 -0.4918 -1.3048
 1008WAT     H2 3236   2.094   3.427   4.423 -0.9541  1.0460  3.2174
 1009WAT      O 3237   2.128   2.048   2.132 -0.2369 -0.1966  0.3105
 1009WAT     H1 3238   2.146   2.097   2.212  2.3767 -2.7271  1.4202
 1009WAT     H2 3239   2.193   2.081   2.069 -1.4471  0.8661 -0.4440
 1010WAT      O 3240   0.573   0.053   0.308  0.2564  0.2480 -0.4641
 1010WAT     H1 3241   0.646   0.004   0.345 -0.7278 -1.5019 -0.7063
 1010WAT     H2 3242   0.614   0.124   0.258  1.6574  1.3197  2.0417
 1011WAT      O 3243   2.795   2.925   2.737  0.1507  0.2689  0.1002
 1011WAT     H1 3244   2.753   2.854   2.689  0.4388  0.9424 -1.1971
 1011WAT     H2 3245   2.723   2.983   2.763 -0.4437 -1.7513  3.5360
 1012WAT      O 3246   1.227   2.193   0.907  0.5451  0.2031 -0.4151
 1012WAT     H1 3247   1.185   2.168   0.989  0.2246  1.9148 -0.0170
 1012WAT     H2 3248   1.219   2.116   0.852  0.8193 -1.0099  1.1662
 1013WAT      O 3249   2.808   2.514   5.134  0.1064 -0.1495  0.5705
 1013WAT     H1 3250   2.885   2.483   5.182  1.5605 -0.1851 -1.6359
 1013WAT     H2 3251   2.738   2.453   5.157  1.4593 -1.7492  0.5923
 1014WAT      O 3252   0.726   0.267   1.324  0.2358  0.2075 -0.1829
 1014WAT     H1 3253   0.709   0.179   1.358  1.0901  0.3008  0.5074
 1014WAT     H2 3254   0.818   0.283   1.345  0.1758  1.1276 -0.6154
 1015WAT      O 3255   0.452   4.290   5.206 -0.4262  0.4602  0.4145
 1015WAT     H1 3256   0.386   4.297   5.138  0.0021 -1.7348 -0.2836
 1015WAT     H2 3257   0.534   4.316   5.164 -0.2713 -0.2506  0.2685
 1016WAT      O 3258   1.431   0.350   1.791 -0.0171 -0.2653  0.0031
 1016WAT     H1 3259   1.450   0.256   1.782  1.5165  0.0458 -0.4068
 1016WAT     H2 3260   1.430   0.382   1.701 -0.0632  0.1946  0.1653
 1017WAT      O 3261   2.902   2.351   4.548 -0.0371  0.0509 -0.1706
 1017WAT     H1 3262   2.958   2.423   4.578 -1.6833  1.3370 -0.0251
 1017WAT     H2 3263   2.874   2.378   4.460  1.3628 -1.6858 -1.2292
 1018WAT      O 3264   0.890   2.687   3.096  0.1671 -0.0416  0.2384
 1018WAT     H1 3265   0.816   2.672   3.038 -0.6096  1.7878  0.7130
 1018WAT     H2 3266   0.933   2.601   3.103 -0.8634 -0.7204 -1.4349
 1019WAT      O 3267   4.248   3.970   2.073 -0.1464 -0.1683  0.0530
 1019WAT     H1 3268   4.153   3.968   2.081 -0.1690 -0.5419 -0.3038
 1019WAT     H2 3269   4.266   4.032   2.003 -0.1659 -0.6898 -0.4227
 1020WAT      O 3270   0.961   2.318   0.949 -0.0113  0.4531  0.1688
 1020WAT     H1 3271   1.051   2.322   0.982  0.1220 -0.5071 -0.0425
 1020WAT     H2 3272   0.936   2.227   0.960  0.0445  0.0555 -2.3548
 1021WAT      O 3273   0.304   1.384   2.239 -0.2843  0.1907  0.1664
 1021WAT     H1 3274   0.329   1.337   2.319  1.7711  2.4419  0.9592
 1021WAT     H2 3275   0.386   1.401   2.194 -1.2071  0.7971 -1.3752
 1022WAT      O 3276   0.761   5.128   1.459  0.2611  0.6195  0.4681
 1022WAT     H1 3277   0.720   5.053   1.415  0.5020  1.0149 -0.4440
 1022WAT     H2 3278   0.849   5.097   1.481 -0.1854  0.0806  1.6093
 1023WAT      O 3279   0.821   1.997   3.489  0.2546 -0.1722 -0.2279
 1023WAT     H1 3280   0.855   2.084   3.508 -0.3418  0.2583 -1.1007
 1023WAT     H2 3281   0.750   1.984   3.552 -0.6552  0.5972 -1.0656
 1024WAT      O 3282   2.127   1.366   0.236  0.6129 -0.1770 -0.2227
 1024WAT     H1 3283   2.222   1.376   0.233  0.4811  1.0800 -1.6263
 1024WAT     H2 3284   2.108   1.342   0.326  2.2249  0.0136  0.1988
 1025WAT      O 3285   2.218   3.032   2.652 -0.1407 -0.1837  0.0276
 1025WAT     H1 3286   2.153   3.037   2.581 -0.4148 -0.0235  0.2894
 1025WAT     H2 3287   2.302   3.025   2.606 -0.0252  2.6716 -0.3704
 1026WAT      O 3288   0.965   4.772   2.743 -0.3463 -0.3368  0.1373
 1026WAT     H1 3289   0.944   4.792   2.651 -0.4995  1.6109  0.5573
 1026WAT     H2 3290   1.060   4.765   2.744 -0.4313 -3.0917 -0.6135
 1027WAT      O 3291   0.486   0.852   4.382  0.5332 -0.0401 -0.1735
 1027WAT     H1 3292   0.405   0.902   4.394  0.7554  0.8222 -1.8935
 1027WAT     H2 3293   0.459   0.776   4.330  1.1497  1.6106 -3.1448
 1028WAT      O 3294   1.518   3.072   3.815  0.4716  0.0880  0.0312
 1028WAT     H1 3295   1.548   3.110   3.732  1.5382 -1.3439 -0.2708
 1028WAT     H2 3296   1.526   2.977   3.802  0.6329 -0.1597  1.7680
 1029WAT      O 3297   0.331   4.590   1.559  0.0425  0.6439 -0.1586
 1029WAT     H1 3298   0.282   4.507   1.563  0.3672  0.4669  0.1710
 1029WAT     H2 3299   0.336   4.618   1.650  0.9446  0.4361 -0.1396
 1030WAT      O 3300   1.883   1.155   4.861 -0.0055  0.2170 -0.3757
 1030WAT     H1 3301   1.874   1.084   4.798 -1.7814  0.3816 -0.3635
 1030WAT     H2 3302   1.941   1.218   4.818  0.4156 -0.5692 -0.9886
 1031WAT      O 3303   0.544   4.715   0.963 -0.5001  0.1195  0.1283
 1031WAT     H1 3304   0.492   4.658   0.906 -1.6155  1.3185 -0.0871
 1031WAT     H2 3305   0.483   4.746   1.029  0.0558  1.1498  0.1865
 1032WAT      O 3306   4.325   0.825   0.707 -0.1414  0.4699 -0.2321
 1032WAT     H1 3307   4.376   0.770   0.646 -0.4860 -0.2708  0.1353
 1032WAT     H2 3308   4.385   0.895   0.732  0.3130  0.2544 -0.7000
 1033WAT      O 3309   2.612   0.438   1.890 -0.3289  0.1204  0.3174
 1033WAT     H1 3310   2.617   0.383   1.968  1.3539 -2.1583 -1.2467
 1033WAT     H2 3311   2.519   0.439   1.868 -0.5317 -1.4593  0.8994
 1034WAT      O 3312   2.202   1.659   0.440 -0.4724  0.2782 -0.5548
 1034WAT     H1 3313   2.264   1.697   0.379 -1.2127  0.3082 -1.3066
 1034WAT     H2 3314   2.255   1.605   0.499  0.5260  1.8757  0.0945
 1035WAT      O 3315   0.714   1.090   3.192  0.0638 -0.1689  0.0723
 1035WAT     H1 3316   0.783   1.121   3.251 -0.1468  1.2456 -0.3652
 1035WAT     H2 3317   0.711   1.156   3.123 -1.9811  0.0494  0.2789
 1036WAT      O 3318   4.268   0.354   2.134 -0.0573  0.1340  0.2595
 1036WAT     H1 3319   4.326   0.281   2.154 -0.2533  0.2138  1.1640
 1036WAT     H2 3320   4.326   0.422   2.101  0.1194 -0.4370 -0.6551
 1037WAT      O 3321   1.400   3.385   0.892  0.2957  0.0552  0.2560
 1037WAT     H1 3322   1.397   3.289   0.890  0.9135  0.0310  0.0852
 1037WAT     H2 3323   1.482   3.405   0.939  1.6630  0.4757 -2.1500
 1038WAT      O 3324   2.786   3.331   3.462 -0.6330  0.2501  0.1270
 1038WAT     H1 3325   2.713   3.393   3.463 -1.3158 -0.5275  1.4265
 1038WAT     H2 3326   2.778   3.285   3.379 -0.4808  1.4640 -0.5763
 1039WAT      O 3327   4.009   0.410   3.263  0.1930 -0.2056  0.1043
 1039WAT     H1 3328   3.992   0.503   3.280  1.4522  0.1642 -0.5219
 1039WAT     H2 3329   4.013   0.370   3.350 -0.2957  0.3359  0.3795
 1040WAT      O 3330   3.606   1.626   4.038  0.2139  0.0558  0.5110
 1040WAT     H1 3331   3.514   1.637   4.065 -0.2057 -0.7767 -0.5203
 1040WAT     H2 3332   3.633   1.714   4.012 -0.7105  0.1011 -0.3904
 1041WAT      O 3333   0.783   0.264   2.832  0.4111 -0.1554  0.8289
 1041WAT     H1 3334   0.778   0.264   2.928 -0.4710 -1.0452  0.7968
 1041WAT     H2 3335   0.739   0.344   2.805 -1.2252 -0.9241  1.1094
 1042WAT      O 3336   0.232   2.742   1.821 -0.2620  0.3751  0.6801
 1042WAT     H1 3337   0.164   2.785   1.771 -2.1711 -2.0294  0.9993
 1042WAT     H2 3338   0.313   2.762   1.775 -1.4934  1.2863 -1.1849
 1043WAT      O 3339   0.776   0.918   1.083 -0.1711 -0.3753  0.0009
 1043WAT     H1 3340   0.765   0.842   1.140  0.3651 -1.2248 -0.9850
 1043WAT     H2 3341   0.857   0.900   1.036 -0.5840  0.3257 -1.0026
 1044WAT      O 3342   1.547   0.475   0.250  0.3088 -0.1958  0.0792
 1044WAT     H1 3343   1.520   0.452   0.162 -1.3274 -0.3402  0.5915
 1044WAT     H2 3344   1.480   0.437   0.307  0.5050  1.1622  1.2878
 1045WAT      O 3345   2.979   0.451   1.020  0.0318  0.5615  0.4245
 1045WAT     H1 3346   3.056   0.492   0.981  0.4641 -0.8418 -0.2470
 1045WAT     H2 3347   2.905   0.496   0.979  0.4743  1.2111  0.3130
 1046WAT      O 3348   0.183   2.078   3.062 -0.1131 -0.1847  0.4136
 1046WAT     H1 3349   0.191   1.983   3.074  1.9172 -0.0498  0.6295
 1046WAT     H2 3350   0.211   2.114   3.147  1.4286  0.6016 -0.3824
 1047WAT      O 3351   3.125   3.965   0.548  0.1878  0.0608  0.2957
 1047WAT     H1 3352   3.031   3.954   0.534  0.4305 -2.9156  0.3259
 1047WAT     H2 3353   3.135   4.057   0.571 -2.7762  0.3756  0.7735
 1048WAT      O 3354   1.421   2.765   1.407  0.0109  0.1648 -0.3794
 1048WAT     H1 3355   1.374   2.708   1.346  1.8863 -2.1959  0.2500
 1048WAT     H2 3356   1.492   2.710   1.442  1.4637  2.6727  0.8733
 1049WAT      O 3357   4.250   1.783   3.605  0.8813 -0.0488  0.1399
 1049WAT     H1 3358   4.308   1.822   3.671  0.3880 -2.3626  2.0639
 1049WAT     H2 3359   4.165   1.775   3.650 -0.6649  1.9202 -2.1365
 1050WAT      O 3360   1.961   4.902   3.521  0.3670  0.4754  0.1586
 1050WAT     H1 3361   1.943   4.928   3.611 -0.5726  2.7752 -0.6295
 1050WAT     H2 3362   2.046   4.941   3.501  0.3323  0.4113 -0.1200
 1051WAT      O 3363   0.955   4.643   3.634  0.3966 -0.6957  0.0737
 1051WAT     H1 3364   0.913   4.666   3.551 -0.6265 -1.7659  0.2783
 1051WAT     H2 3365   1.043   4.680   3.627 -0.4517  1.3694 -0.4832
 1052WAT      O 3366   4.318   0.014   0.439  0.4012  0.2624  0.1031
 1052WAT     H1 3367   4.233   0.010   0.395  1.1919 -2.2614 -1.4510
 1052WAT     H2 3368   4.351   0.102   0.420 -1.5198  1.0306  0.1227
 1053WAT      O 3369   3.149   4.147   1.064  0.3469 -0.6543  0.3709
 1053WAT     H1 3370   3.142   4.053   1.081 -0.0926 -0.4644  1.3450
 1053WAT     H2 3371   3.209   4.179   1.131  0.4354 -0.2256  0.0902
 1054WAT      O 3372   0.566   4.861   0.741  0.2196 -0.2151 -0.0391
 1054WAT     H1 3373   0.559   4.815   0.825 -2.7133 -0.1392 -0.1561
 1054WAT     H2 3374   0.605   4.797   0.682 -0.0485 -1.1650  0.7797
 1055WAT      O 3375   1.664   3.083   4.448 -0.0265 -0.2995  1.3169
 1055WAT     H1 3376   1.748   3.123   4.469  0.7442 -1.2553  0.1651
 1055WAT     H2 3377   1.614   3.153   4.406  1.4270 -0.5302 -0.9905
 1056WAT      O 3378   3.348   2.883   1.175  0.4959 -0.1210 -0.5670
 1056WAT     H1 3379   3.336   2.963   1.225  0.4562  0.0788 -0.8934
 1056WAT     H2 3380   3.285   2.890   1.103  0.0437 -0.7333 -0.2397
 1057WAT      O 3381   0.817   3.635   2.653 -1.1006 -1.0395 -0.0078
 1057WAT     H1 3382   0.907   3.606   2.660 -1.0440 -0.8931 -0.1205
 1057WAT     H2 3383   0.781   3.626   2.742 -0.8518 -0.6906  0.1299
 1058WAT      O 3384   2.007   1.389   4.409  0.2336 -0.0230  0.4432
 1058WAT     H1 3385   2.097   1.417   4.394  0.6741  0.1658  2.9168
 1058WAT     H2 3386   2.005   1.298   4.381  0.8072  0.3444 -0.8671
 1059WAT      O 3387   2.487   0.526   3.187  0.0005  0.2367 -0.0677
 1059WAT     H1 3388   2.492   0.611   3.144 -1.7277  0.1929 -0.4290
 1059WAT     H2 3389   2.571   0.517   3.233  0.9313  1.3348 -1.4679
 1060WAT      O 3390   3.237   2.275   1.809 -0.8881  0.0805 -0.4773
 1060WAT     H1 3391   3.228   2.370   1.799  0.3146  0.1860 -0.6782
 1060WAT     H2 3392   3.267   2.263   1.900  0.8153  0.0487 -1.0130
 1061WAT      O 3393   2.427   4.526   0.060 -0.0526  0.4284 -0.4139
 1061WAT     H1 3394   2.521   4.534   0.074  0.5948 -1.4218 -2.9550
 1061WAT     H2 3395   2.403   4.445   0.105  0.0048 -0.1690 -1.4389
 1062WAT      O 3396   1.603   1.498   4.963 -0.2507  0.3971  0.3637
 1062WAT     H1 3397   1.652   1.484   5.043  0.5148  2.5506  0.3578
 1062WAT     H2 3398   1.531   1.557   4.989 -0.7942  0.0316 -0.2779
 1063WAT      O 3399   1.103   3.389   1.000  0.2784 -0.1899  0.1292
 1063WAT     H1 3400   1.081   3.347   0.917  0.5197  0.7734 -0.4331
 1063WAT     H2 3401   1.198   3.379   1.007  0.2834 -0.1014  0.1916
 1064WAT      O 3402   0.999   3.927   4.715  0.6040  0.3574 -0.0589
 1064WAT     H1 3403   1.035   3.846   4.750 -1.2427 -0.2502  0.5688
 1064WAT     H2 3404   1.036   3.996   4.770  1.7896 -0.0891 -0.2760
 1065WAT      O 3405   4.103   4.634   3.172 -0.0746  0.3103  0.3641
 1065WAT     H1 3406   4.177   4.581   3.141  0.2604  1.0194 -0.0797
 1065WAT     H2 3407   4.144   4.705   3.221 -0.5765 -0.4856  2.0083
 1066WAT      O 3408   1.282   2.037   1.724  0.0862  0.0240  0.1199
 1066WAT     H1 3409   1.359   2.056   1.671  0.7984 -0.5468  0.9377
 1066WAT     H2 3410   1.277   2.110   1.786 -0.7255  0.6713 -0.6700
 1067WAT      O 3411   3.771   0.584   4.246  0.4259  0.3382  0.1434
 1067WAT     H1 3412   3.676   0.572   4.248  0.4233  0.3906  0.5514
 1067WAT     H2 3413   3.807   0.495   4.252  0.3988  0.3558  0.7078
 1068WAT      O 3414   3.808   1.426   3.518  0.0124 -0.0000 -0.2800
 1068WAT     H1 3415   3.806   1.500   3.579  2.4316 -0.2308  0.1580
 1068WAT     H2 3416   3.826   1.350   3.572 -0.3910 -0.6161 -0.9895
 1069WAT      O 3417   0.533   0.609   4.639  0.1807 -0.5359  0.8370
 1069WAT     H1 3418   0.543   0.691   4.687 -0.0230  0.6413 -1.0355
 1069WAT     H2 3419   0.617   0.598   4.593 -0.6035 -0.0912 -0.7739
 1070WAT      O 3420   1.283   1.736   3.596 -0.2799 -0.3160 -0.6368
 1070WAT     H1 3421   1.325   1.675   3.657  0.2058  0.9704  0.3583
 1070WAT     H2 3422   1.257   1.810   3.650  0.7618  1.1671 -2.0742
 1071WAT      O 3423   2.222   2.024   3.601 -0.5998 -0.0416 -0.2246
 1071WAT     H1 3424   2.151   2.088   3.593 -0.2434  0.3031 -0.6841
 1071WAT     H2 3425   2.297   2.075   3.632 -0.3472 -0.2573 -0.4716
 1072WAT      O 3426   3.375   0.973   4.173  0.3444  0.4819 -0.2649
 1072WAT     H1 3427   3.338   0.971   4.261 -0.2240  1.4480 -0.4639
 1072WAT     H2 3428   3.345   1.056   4.136 -0.5765 -0.4947 -1.8549
 1073WAT      O 3429   0.423   3.739   5.264 -0.1491 -0.0210 -0.6554
 1073WAT     H1 3430   0.410   3.826   5.226  0.6749  1.9133  3.0523
 1073WAT     H2 3431   0.511   3.741   5.301 -0.5330 -2.0324  0.5491
 1074WAT      O 3432   4.506   0.075   3.384 -0.3731  0.3046 -0.0215
 1074WAT     H1 3433   4.440   0.064   3.452 -0.4939 -0.2107 -0.2173
 1074WAT     H2 3434   4.529   0.168   3.388 -2.1449  0.8290 -0.8854
 1075WAT      O 3435   2.486   1.080   0.106  0.5076  0.0440  0.0807
 1075WAT     H1 3436   2.515   1.050   0.192  1.8295 -0.2901 -0.4651
 1075WAT     H2 3437   2.552   1.047   0.045  0.5844  1.8141 -0.8586
 1076WAT      O 3438   4.189   0.133   3.549  0.5546  0.3222 -0.0596
 1076WAT     H1 3439   4.107   0.103   3.588  0.1029 -0.0400 -1.2597
 1076WAT     H2 3440   4.230   0.185   3.618 -1.3900  1.7801  0.0620
 1077WAT      O 3441   2.716   2.797   3.120 -0.2887  0.4485 -0.6042
 1077WAT     H1 3442   2.658   2.814   3.046 -0.9021 -0.5072 -0.3538
 1077WAT     H2 3443   2.658   2.787   3.195  0.1689 -0.7325 -0.3876
 1078WAT      O 3444   2.312   2.117   4.454 -0.3506 -0.4225  0.0118
 1078WAT     H1 3445   2.218   2.102   4.443 -0.3188 -0.5631 -0.0694
 1078WAT     H2 3446   2.333   2.077   4.538 -0.2437 -0.9366 -0.2581
 1079WAT      O 3447   0.684   0.830   2.928  0.2948  0.1277 -0.1857
 1079WAT     H1 3448   0.743   0.757   2.912 -0.8106 -1.0170  0.7942
 1079WAT     H2 3449   0.696   0.851   3.021 -0.2967  0.3673 -0.1598
 1080WAT      O 3450   2.125   4.434   1.984  0.3299  0.5653 -0.5551
 1080WAT     H1 3451   2.054   4.485   1.947  0.7525  1.4959 -0.1159
 1080WAT     H2 3452   2.188   4.499   2.015  0.6339 -0.2013  0.5136
 1081WAT      O 3453   1.691   4.834   4.996 -0.1172  0.5944  0.6416
 1081WAT     H1 3454   1.745   4.769   4.951  1.5885  1.2523  1.6635
 1081WAT     H2 3455   1.752   4.880   5.054 -1.6235  1.9429  1.2179
 1082WAT      O 3456   2.232   1.957   1.713 -0.0156 -0.1334 -0.5036
 1082WAT     H1 3457   2.288   1.940   1.637  0.3854 -0.2170 -0.1920
 1082WAT     H2 3458   2.152   1.907   1.696  0.0727 -0.1495 -0.8723
 1083WAT      O 3459   3.857   4.857   4.031  0.2634  0.2859 -0.1290
 1083WAT     H1 3460   3.869   4.810   3.948  0.5078 -0.6344  0.4148
 1083WAT     H2 3461   3.934   4.914   4.037  1.0437 -0.7502  0.1669
 1084WAT      O 3462   0.386   4.216   1.580 -0.4022 -0.1916 -0.2678
 1084WAT     H1 3463   0.406   4.170   1.661  1.2171  0.3847 -0.3165
 1084WAT     H2 3464   0.311   4.271   1.602 -0.8237 -1.0178  0.4452
 1085WAT      O 3465   2.428   2.479   0.084  0.2658 -0.8526  0.5714
 1085WAT     H1 3466   2.469   2.501   0.168 -1.4798  1.2072  0.9654
 1085WAT     H2 3467   2.478   2.527   0.019 -0.3406  0.1569  0.8357
 1086WAT      O 3468   2.887   3.081   3.780  0.3918 -0.3578 -0.1595
 1086WAT     H1 3469   2.956   3.047   3.724  0.1241 -0.3820 -0.4726
 1086WAT     H2 3470   2.808   3.079   3.726 -0.1641 -1.7190  0.6539
 1087WAT      O 3471   1.596   3.184   2.547 -0.2828  0.2654 -0.0934
 1087WAT     H1 3472   1.590   3.107   2.490  2.1694 -0.1999  0.1847
 1087WAT     H2 3473   1.510   3.190   2.588 -1.8041 -0.0364 -2.9670
 1088WAT      O 3474   1.098   0.045   4.850  0.2703 -0.5625  0.5921
 1088WAT     H1 3475   1.003   0.042   4.847  0.2572 -0.2275  0.6177
 1088WAT     H2 3476   1.127   0.001   4.770  0.0863 -0.2241  0.3373
 1089WAT      O 3477   2.455   1.376   0.976 -0.1357  0.1637 -0.5633
 1089WAT     H1 3478   2.484   1.377   0.885 -0.7084 -1.1721 -0.7736
 1089WAT     H2 3479   2.389   1.445   0.980  0.2495  0.5695 -1.0245
 1090WAT      O 3480   0.766   2.013   0.878  0.3803  0.3836 -0.1624
 1090WAT     H1 3481   0.766   2.094   0.827 -0.2768  1.4160  1.3974
 1090WAT     H2 3482   0.845   2.019   0.932  0.2346  0.0693  0.0870
 1091WAT      O 3483   3.874   1.241   2.820 -0.1369 -0.4987  0.3244
 1091WAT     H1 3484   3.824   1.187   2.759 -0.1598  0.1689 -0.2551
 1091WAT     H2 3485   3.963   1.240   2.787 -0.3254  0.6109 -0.2600
 1092WAT      O 3486   3.975   1.216   0.575 -0.2222 -0.5349 -0.7351
 1092WAT     H1 3487   3.930   1.299   0.588  1.4001  0.1531  0.9063
 1092WAT     H2 3488   4.002   1.217   0.483  1.0717  1.4847 -0.3947
 1093WAT      O 3489   4.445   1.726   0.910 -0.0345  0.2710  0.3776
 1093WAT     H1 3490   4.410   1.689   0.829  1.2574 -1.0648  0.3868
 1093WAT     H2 3491   4.529   1.765   0.884  0.7589 -0.8450  1.1722
 1094WAT      O 3492   3.515   0.195   2.625  0.1230  0.3483  0.3990
 1094WAT     H1 3493   3.468   0.121   2.586 -0.0226  0.2421  0.7766
 1094WAT     H2 3494   3.457   0.227   2.693  0.9279 -0.2948  1.4289
 1095WAT      O 3495   3.828   4.031   2.979  0.2070  0.6104 -0.2556
 1095WAT     H1 3496   3.812   4.093   2.908 -1.1719 -1.6098 -1.9929
 1095WAT     H2 3497   3.785   4.070   3.055  1.6083  2.9849 -0.5678
 1096WAT      O 3498   2.720   3.720   0.495 -0.0812  0.3091  0.0180
 1096WAT     H1 3499   2.662   3.665   0.442 -0.1365  0.9770 -0.6340
 1096WAT     H2 3500   2.808   3.700   0.461 -0.1997  1.4955 -1.0746
 1097WAT      O 3501   3.008   4.982   3.355 -0.5422 -0.3287 -0.0699
 1097WAT     H1 3502   2.923   4.995   3.398 -0.7835 -0.0890 -0.6118
 1097WAT     H2 3503   3.073   5.007   3.421 -0.9032 -0.1015  0.2004
 1098WAT      O 3504   3.709   2.720   0.623 -0.1873  0.1160 -0.6934
 1098WAT     H1 3505   3.631   2.684   0.582 -0.9177 -0.3742  1.0059
 1098WAT     H2 3506   3.779   2.659   0.599 -0.7853 -0.6973 -0.4294
 1099WAT      O 3507   4.507   2.092   2.448  0.0386 -0.0978 -0.1973
 1099WAT     H1 3508   4.516   2.006   2.407 -1.5265  0.2491 -1.3544
 1099WAT     H2 3509   4.413   2.102   2.462 -0.1906  2.5601 -2.7186
 1100WAT      O 3510   3.702   2.351   4.585  0.1657  0.1806  0.1211
 1100WAT     H1 3511   3.702   2.295   4.662  0.9453 -1.1353 -0.8142
 1100WAT     H2 3512   3.609   2.362   4.563  0.0101 -2.3873 -0.8141
 1101WAT      O 3513   4.208   2.693   1.568  0.2677  0.6078  0.5897
 1101WAT     H1 3514   4.268   2.634   1.613  0.5368  0.9950  0.7411
 1101WAT     H2 3515   4.254   2.777   1.566 -1.1938  1.5586  2.8123
 1102WAT      O 3516   4.420   2.683   5.176 -0.0163  0.4994  0.1241
 1102WAT     H1 3517   4.464   2.741   5.239  0.9563 -1.5942  1.5045
 1102WAT     H2 3518   4.327   2.687   5.200  0.4013 -0.7033  2.1967
 1103WAT      O 3519   2.795   4.041   4.205  0.1665  0.2408 -0.0477
 1103WAT     H1 3520   2.828   4.105   4.269  0.9675  1.2979 -1.4571
 1103WAT     H2 3521   2.746   4.094   4.142 -1.2415 -0.8715  0.0583
 1104WAT      O 3522   3.363   2.945   2.164  0.7673 -0.5734 -0.5503
 1104WAT     H1 3523   3.431   3.009   2.140  0.1570  0.6324  0.8079
 1104WAT     H2 3524   3.383   2.922   2.255 -0.2032 -0.7955 -0.3902
 1105WAT      O 3525   1.892   5.121   2.539 -0.3073 -0.3537  0.1550
 1105WAT     H1 3526   1.837   5.079   2.474  0.1709 -1.3488  0.3693
 1105WAT     H2 3527   1.967   5.062   2.549 -0.0521  0.1057  1.1164
 1106WAT      O 3528   3.698   4.709   0.495 -1.2503  0.4971  1.0445
 1106WAT     H1 3529   3.767   4.709   0.428 -1.6750  1.0731  0.5877
 1106WAT     H2 3530   3.723   4.640   0.556 -0.3639  0.5750  0.7868
 1107WAT      O 3531   4.429   2.982   3.163 -0.2925  0.0693 -0.2213
 1107WAT     H1 3532   4.515   3.024   3.152  0.2581 -0.4591  1.6809
 1107WAT     H2 3533   4.380   3.042   3.219 -1.1802  0.3306 -1.2357
 1108WAT      O 3534   2.897   4.641   5.032  0.1146  0.3716 -0.2699
 1108WAT     H1 3535   2.843   4.623   4.955  1.3023 -1.1638 -0.7817
 1108WAT     H2 3536   2.953   4.564   5.041  0.1573  0.6070  2.0263
 1109WAT      O 3537   0.972   2.051   1.044 -0.4458  0.4901  0.1495
 1109WAT     H1 3538   1.047   2.002   1.076 -0.0775  1.9327  1.5942
 1109WAT     H2 3539   0.915   2.061   1.121 -0.4548  2.3880 -0.0671
 1110WAT      O 3540   3.869   2.156   2.330 -0.0422 -0.4495  0.2619
 1110WAT     H1 3541   3.878   2.062   2.314  0.8147 -0.5482  1.1872
 1110WAT     H2 3542   3.949   2.194   2.293 -0.5339 -0.0390 -0.3925
 1111WAT      O 3543   0.636   2.693   2.981 -0.0179  0.3688  0.2522
 1111WAT     H1 3544   0.554   2.735   3.009 -0.1105  0.3585 -0.0020
 1111WAT     H2 3545   0.621   2.669   2.890 -0.0391 -0.4097  0.4525
 1112WAT      O 3546   2.848   0.663   1.629 -0.4804  0.1379  0.5731
 1112WAT     H1 3547   2.896   0.681   1.709  1.0518  1.0657 -0.5020
 1112WAT     H2 3548   2.837   0.568   1.628 -0.1392  0.0822  1.6635
 1113WAT      O 3549   1.853   4.177   3.566 -0.3017 -0.1401  0.5357
 1113WAT     H1 3550   1.767   4.190   3.606  0.0056 -0.3730  1.2842
 1113WAT     H2 3551   1.879   4.265   3.537 -0.5356  0.0324  0.8422
 1114WAT      O 3552   4.254   0.644   4.062  0.1080  0.1311  0.5441
 1114WAT     H1 3553   4.285   0.674   4.147  0.1094 -0.1527  0.6452
 1114WAT     H2 3554   4.184   0.704   4.039  0.5673  0.6275  0.4267
 1115WAT      O 3555   0.926   1.484   4.329 -0.1327 -0.1598  0.1625
 1115WAT     H1 3556   0.972   1.463   4.410  0.9794 -1.7707 -0.8094
 1115WAT     H2 3557   0.996   1.488   4.263 -1.2068 -1.1494 -1.0883
 1116WAT      O 3558   1.903   1.363   1.678  0.3481  0.1274 -0.6885
 1116WAT     H1 3559   1.996   1.384   1.671  0.2509  1.6665  1.6554
 1116WAT     H2 3560   1.902   1.272   1.709  1.2391  1.0095  2.1949
 1117WAT      O 3561   1.422   4.958   0.747  0.6617  0.3252 -0.5085
 1117WAT     H1 3562   1.356   5.023   0.722 -0.8768  0.0180  2.3376
 1117WAT     H2 3563   1.495   5.010   0.781 -0.2334  0.6663  0.9975
 1118WAT      O 3564   4.297   4.788   1.570 -0.4091 -0.3161  0.3643
 1118WAT     H1 3565   4.306   4.857   1.504 -0.1327 -1.9384 -1.3380
 1118WAT     H2 3566   4.237   4.826   1.635  0.5867  1.9382  0.0737
 1119WAT      O 3567   1.420   2.662   4.307 -0.6609  0.4356  0.5281
 1119WAT     H1 3568   1.397   2.655   4.214 -1.8706  2.3936  0.6105
 1119WAT     H2 3569   1.483   2.734   4.311 -0.5486  0.3072  1.2172
 1120WAT      O 3570   4.298   3.954   4.553  0.2027  0.4090 -0.1848
 1120WAT     H1 3571   4.206   3.928   4.548  0.4044 -0.7888  1.5359
 1120WAT     H2 3572   4.297   4.038   4.599 -0.0548  0.7435 -0.7844
 1121WAT      O 3573   4.134   0.495   4.909  0.6154 -0.2958  0.2557
 1121WAT     H1 3574   4.112   0.561   4.974 -0.6401 -0.5394  0.0968
 1121WAT     H2 3575   4.230   0.487   4.914  0.5218 -0.6194  2.3699
 1122WAT      O 3576   0.467   2.418   3.876 -0.3260 -0.3024 -0.2189
 1122WAT     H1 3577   0.482   2.469   3.955 -0.9197 -0.3609 -0.0671
 1122WAT     H2 3578   0.540   2.442   3.818 -0.4393  0.4907 -0.0414
 1123WAT      O 3579   1.905   4.929   5.155 -0.9407 -0.8653  0.5896
 1123WAT     H1 3580   1.918   4.997   5.089  0.2917 -1.0406  0.6207
 1123WAT     H2 3581   1.876   4.977   5.233 -1.3116 -0.5289  0.2479
 1124WAT      O 3582   1.426   0.505   2.337 -0.5020  0.6274  0.4488
 1124WAT     H1 3583   1.461   0.417   2.344 -1.9577  0.0280  0.6734
 1124WAT     H2 3584   1.421   0.537   2.427 -4.2499 -0.9110  1.0089
 1125WAT      O 3585   3.065   4.759   2.358 -0.3934  0.4849  0.0148
 1125WAT     H1 3586   3.116   4.681   2.337  0.5429  0.7558  1.1948
 1125WAT     H2 3587   3.099   4.826   2.297  2.8085  1.4582  2.5863
 1126WAT      O 3588   0.552   4.043   3.719  0.1377  0.2843 -0.7482
 1126WAT     H1 3589   0.622   4.096   3.682  1.2149 -1.1282 -0.7955
 1126WAT     H2 3590   0.536   4.081   3.805 -0.3739  1.7878 -1.4732
 1127WAT      O 3591   0.304   1.832   4.369  0.4856  0.4586  0.2082
 1127WAT     H1 3592   0.387   1.789   4.390 -0.1506 -0.4020  1.0604
 1127WAT     H2 3593   0.296   1.825   4.274 -0.0437 -2.2296  0.3868
 1128WAT      O 3594   2.010   0.295   0.163  0.2490  0.6137  0.2085
 1128WAT     H1 3595   2.038   0.221   0.108  0.1808 -1.0658  2.2905
 1128WAT     H2 3596   2.009   0.370   0.103  1.9076 -0.7170 -1.6536
 1129WAT      O 3597   1.645   1.027   3.949 -0.4030  0.2416  0.0387
 1129WAT     H1 3598   1.732   1.066   3.946  0.1202 -0.6967  1.7259
 1129WAT     H2 3599   1.592   1.090   4.000 -0.1908 -0.0720  0.6625
 1130WAT      O 3600   1.450   2.970   4.718  0.2906 -0.1979  0.0487
 1130WAT     H1 3601   1.541   2.999   4.715 -0.1352  1.4524  1.4139
 1130WAT     H2 3602   1.455   2.878   4.744  1.5462  0.0850  0.8730
 1131WAT      O 3603   0.020   2.372   0.652 -0.3598 -0.5783  0.1181
 1131WAT     H1 3604  -0.052   2.433   0.664 -0.7066 -0.9222 -0.1867
 1131WAT     H2 3605   0.039   2.375   0.559 -1.3260 -1.9666 -0.1563
 1132WAT      O 3606   3.671   0.789   1.332  0.6462 -0.0970  0.5549
 1132WAT     H1 3607   3.743   0.741   1.372  0.3225 -2.2552 -1.2566
 1132WAT     H2 3608   3.604   0.794   1.401  0.9940 -1.6011  1.0359
 1133WAT      O 3609   2.938   5.160   1.150  0.1260 -0.0213 -0.2816
 1133WAT     H1 3610   2.915   5.152   1.057 -2.9371  0.7404  0.2993
 1133WAT     H2 3611   2.917   5.074   1.187  1.7903 -0.4789 -0.3081
 1134WAT      O 3612   0.819   1.711   2.002  0.4092 -0.3644 -0.7681
 1134WAT     H1 3613   0.871   1.713   1.923  1.5392 -2.4482 -0.1478
 1134WAT     H2 3614   0.875   1.671   2.068 -1.0558 -0.2137  0.6618
 1135WAT      O 3615   1.288   3.204   2.534  0.6486 -0.3194 -0.0432
 1135WAT     H1 3616   1.251   3.205   2.446 -2.4985  1.5291  1.1029
 1135WAT     H2 3617   1.212   3.217   2.591  2.6571 -0.6300  2.9057
 1136WAT      O 3618   2.599   2.796   2.199  1.0713 -0.2076 -0.2213
 1136WAT     H1 3619   2.582   2.833   2.285  0.4572 -4.8100  1.9413
 1136WAT     H2 3620   2.515   2.802   2.153 -0.1171 -2.1905  1.5461
 1137WAT      O 3621   1.127   2.126   4.827  0.4435  0.1991  0.3250
 1137WAT     H1 3622   1.110   2.109   4.920  1.0462 -0.8026  0.2700
 1137WAT     H2 3623   1.069   2.198   4.805  0.0549  0.2376  1.4025
 1138WAT      O 3624   2.869   0.846   2.949 -0.2326 -0.7190 -0.3187
 1138WAT     H1 3625   2.877   0.822   3.041  0.0760 -1.0811 -0.4355
 1138WAT     H2 3626   2.781   0.820   2.924  0.1657 -1.9340 -0.4978
 1139WAT      O 3627   2.352   2.123   3.327 -0.4201 -0.2043  0.5246
 1139WAT     H1 3628   2.282   2.148   3.267  0.9413  2.0560 -0.2343
 1139WAT     H2 3629   2.329   2.034   3.355 -3.6460  0.4962  0.4663
 1140WAT      O 3630   3.288   2.820   0.581  0.3134 -0.7536  0.0033
 1140WAT     H1 3631   3.383   2.810   0.579  0.4000  0.0168 -0.1234
 1140WAT     H2 3632   3.269   2.881   0.509 -0.2468 -0.6958  0.1919
 1141WAT      O 3633   0.097   0.497   4.390 -0.6039 -0.2292 -0.2068
 1141WAT     H1 3634   0.048   0.547   4.455 -0.1711 -0.0355 -0.0220
 1141WAT     H2 3635   0.129   0.421   4.439 -0.0661  0.0450 -0.1260
 1142WAT      O 3636   2.759   3.702   3.569 -0.0706  0.3904  0.4927
 1142WAT     H1 3637   2.809   3.650   3.631  0.2577  1.1034  0.8298
 1142WAT     H2 3638   2.760   3.790   3.604  0.0186  0.7866 -0.4694
 1143WAT      O 3639   2.729   3.600   1.055 -0.3304  0.2806  0.1258
 1143WAT     H1 3640   2.715   3.648   1.136  0.0607  0.5684  0.0211
 1143WAT     H2 3641   2.684   3.651   0.988 -0.9876 -0.1570  0.2128
 1144WAT      O 3642   3.329   1.238   4.049  1.1908 -0.1783  0.2151
 1144WAT     H1 3643   3.341   1.300   4.120  0.5431 -0.6024  0.7042
 1144WAT     H2 3644   3.302   1.292   3.974 -2.9358 -0.1176  1.5256
 1145WAT      O 3645   3.123   0.430   2.347 -0.7021  0.6343 -0.7351
 1145WAT     H1 3646   3.168   0.464   2.424 -0.1726  0.7227 -1.0738
 1145WAT     H2 3647   3.177   0.357   2.318 -2.7440 -1.7448  1.0176
 1146WAT      O 3648   0.382   1.394   0.169  0.1977  0.5264 -0.1445
 1146WAT     H1 3649   0.398   1.324   0.105 -1.6421 -0.6321  0.5818
 1146WAT     H2 3650   0.290   1.382   0.194  0.4897  1.8230  1.6801
 1147WAT      O 3651   3.084   4.041   2.522  0.1216  0.0200  0.0371
 1147WAT     H1 3652   3.172   4.021   2.555  1.2370 -0.4130 -2.9228
 1147WAT     H2 3653   3.069   4.132   2.549  2.0357  0.5246 -0.4417
 1148WAT      O 3654   1.300   0.265   4.113  0.8223 -0.1021  0.2845
 1148WAT     H1 3655   1.301   0.293   4.021 -1.0808  1.5621  0.6914
 1148WAT     H2 3656   1.286   0.170   4.109 -0.7200  0.1401 -1.1685
 1149WAT      O 3657   3.078   1.658   0.594  0.0181  0.5328 -0.0456
 1149WAT     H1 3658   3.046   1.743   0.564  1.6599  0.2327 -3.0215
 1149WAT     H2 3659   3.158   1.678   0.643  0.6971  0.6914 -1.2045
 1150WAT      O 3660   2.260   5.118   4.719  0.1968 -0.6341  0.0775
 1150WAT     H1 3661   2.348   5.090   4.692 -0.4985 -2.4953 -0.4306
 1150WAT     H2 3662   2.211   5.128   4.637  0.2048  1.5127  0.2921
 1151WAT      O 3663   1.537   2.925   2.490  0.6697  0.2375  0.2016
 1151WAT     H1 3664   1.474   2.924   2.418  0.1226  0.9479  0.6563
 1151WAT     H2 3665   1.532   2.838   2.528 -1.5875  0.8581  1.5247
 1152WAT      O 3666   2.965   1.331   1.380  0.2358  0.1469 -0.8595
 1152WAT     H1 3667   2.933   1.419   1.399 -2.0391 -0.3488 -2.0964
 1152WAT     H2 3668   2.945   1.280   1.458  0.0764  0.3568 -0.7639
 1153WAT      O 3669   0.202   1.772   1.949  0.1423  0.3566  0.1584
 1153WAT     H1 3670   0.157   1.708   2.003  2.1022 -0.2778  1.1092
 1153WAT     H2 3671   0.132   1.813   1.897 -1.3550 -1.3188  0.7697
 1154WAT      O 3672   2.032   1.816   1.161  0.4887 -0.2737  0.5498
 1154WAT     H1 3673   1.997   1.818   1.250 -1.3892 -0.5253 -0.1229
 1154WAT     H2 3674   1.995   1.894   1.119  2.4476  0.5929  0.3345
 1155WAT      O 3675   2.333   2.824   0.439 -0.1299  0.0721  0.3913
 1155WAT     H1 3676   2.342   2.744   0.491  0.0879 -0.1869 -0.0399
 1155WAT     H2 3677   2.290   2.795   0.359  1.8505 -0.0102 -0.6878
 1156WAT      O 3678   1.702   2.954   2.095  0.0176  0.0603  0.3230
 1156WAT     H1 3679   1.770   2.899   2.133 -1.6510 -1.2188  1.6601
 1156WAT     H2 3680   1.630   2.893   2.076 -1.4022  1.5856  0.5792
 1157WAT      O 3681   4.408   0.632   3.687  0.2796  0.1058  0.1476
 1157WAT     H1 3682   4.341   0.610   3.752  1.0228 -0.2745  0.8087
 1157WAT     H2 3683   4.372   0.708   3.641 -0.9795 -0.6009 -0.0978
 1158WAT      O 3684   1.909   0.557   4.289 -0.5397 -0.8238  0.1768
 1158WAT     H1 3685   1.922   0.581   4.197 -2.2234  1.1487  0.3863
 1158WAT     H2 3686   1.822   0.519   4.292 -0.4116 -1.0777  0.9326
 1159WAT      O 3687   0.976   2.201   2.507  0.5738 -0.0890  0.5005
 1159WAT     H1 3688   1.068   2.214   2.488  1.2338 -4.0551  0.2756
 1159WAT     H2 3689   0.972   2.196   2.603  0.6817 -0.5287  0.4805
 1160WAT      O 3690   2.722   4.267   4.840  0.0928  0.0690  0.1790
 1160WAT     H1 3691   2.752   4.356   4.857  1.3339 -0.1164 -0.9155
 1160WAT     H2 3692   2.638   4.279   4.795  0.4225  0.6996 -0.2859
 1161WAT      O 3693   1.657   2.647   1.435  0.2500  0.3556 -0.0470
 1161WAT     H1 3694   1.703   2.585   1.492  0.4372  0.5346  0.0014
 1161WAT     H2 3695   1.704   2.643   1.352  0.3233  0.5007 -0.0140
 1162WAT      O 3696   4.356   3.089   4.999  0.1379 -0.2004 -0.4669
 1162WAT     H1 3697   4.443   3.055   5.017  0.2009  0.2036  0.0184
 1162WAT     H2 3698   4.370   3.155   4.930  0.7278  2.1849  1.7769
 1163WAT      O 3699   4.202   4.566   4.333 -0.4242  0.3997 -0.5249
 1163WAT     H1 3700   4.189   4.558   4.428  2.6800 -0.3767 -0.0660
 1163WAT     H2 3701   4.182   4.658   4.314 -1.7807  0.4033  0.7100
 1164WAT      O 3702   3.634   4.998   0.687 -0.3551 -0.1057  0.1114
 1164WAT     H1 3703   3.631   5.088   0.720 -0.3499 -0.5965  1.5552
 1164WAT     H2 3704   3.646   5.006   0.593  1.2486  1.3944  0.4046
 1165WAT      O 3705   3.805   1.125   1.434 -0.7153 -0.3402 -0.2142
 1165WAT     H1 3706   3.884   1.115   1.487 -1.1042  0.5229  0.5583
 1165WAT     H2 3707   3.818   1.067   1.359  1.7146  1.5125 -1.3678
 1166WAT      O 3708   2.935   3.078   2.007 -0.0774 -0.3313  0.4159
 1166WAT     H1 3709   3.017   3.126   1.991 -0.4955  0.1821 -0.2241
 1166WAT     H2 3710   2.870   3.122   1.952 -0.2506 -2.2476 -1.0261
 1167WAT      O 3711   1.196   4.891   1.214 -0.0446  0.4664 -0.0751
 1167WAT     H1 3712   1.123   4.828   1.213 -0.3579  0.7403  1.6878
 1167WAT     H2 3713   1.153   4.977   1.216  0.3457  0.6611  0.0266
 1168WAT      O 3714   3.597   2.208   2.402  0.1586 -0.1998 -0.2079
 1168WAT     H1 3715   3.685   2.207   2.366 -0.7509  0.2236 -2.6352
 1168WAT     H2 3716   3.562   2.120   2.384 -1.1945  0.7764 -2.9621
 1169WAT      O 3717   3.381   5.075   2.146  0.3489 -0.6174 -0.5351
 1169WAT     H1 3718   3.441   5.002   2.125  0.7474 -1.2342  2.3564
 1169WAT     H2 3719   3.428   5.153   2.116  1.0528 -1.3503 -1.4192
 1170WAT      O 3720   0.948   2.500   3.564  0.3255 -0.4064 -0.4200
 1170WAT     H1 3721   0.874   2.523   3.507 -0.4349  0.0392  0.6839
 1170WAT     H2 3722   0.969   2.582   3.608  0.4435 -0.8782  0.4221
 1171WAT      O 3723   1.079   0.727   2.426 -0.5237 -0.0860  0.2122
 1171WAT     H1 3724   1.098   0.820   2.424  0.0421 -0.1707  1.1515
 1171WAT     H2 3725   1.033   0.710   2.343  0.0307  0.8693 -0.3075
 1172WAT      O 3726   3.017   3.654   3.461 -0.2091  0.1478 -0.2858
 1172WAT     H1 3727   3.027   3.566   3.425  0.4864  0.3311 -0.5429
 1172WAT     H2 3728   2.928   3.680   3.437 -0.7392 -0.8206  0.5397
 1173WAT      O 3729   3.592   3.593   2.334 -0.0658  0.8220 -0.6245
 1173WAT     H1 3730   3.684   3.601   2.359 -0.0889  1.9642 -0.8520
 1173WAT     H2 3731   3.552   3.674   2.365 -0.8343  0.6830 -1.2217
 1174WAT      O 3732   0.111   4.049   5.006 -0.6106  0.6183 -0.0695
 1174WAT     H1 3733   0.153   4.053   4.920  2.2248  1.9505  1.2407
 1174WAT     H2 3734   0.024   4.086   4.992 -0.5370  0.0690 -2.4691
 1175WAT      O 3735   0.709   4.893   4.298 -0.4149 -0.1147  0.2632
 1175WAT     H1 3736   0.744   4.844   4.223 -0.6786  0.5725 -0.3091
 1175WAT     H2 3737   0.700   4.982   4.267  1.4585  0.6683  1.7368
 1176WAT      O 3738   3.608   3.371   2.937 -0.2840  0.4472 -0.3799
 1176WAT     H1 3739   3.640   3.387   2.849  0.7601 -0.0092 -0.1030
 1176WAT     H2 3740   3.534   3.312   2.926 -0.4309  0.7385 -0.9768
 1177WAT      O 3741   2.156   4.492   3.193 -0.2694 -0.0574 -0.7209
 1177WAT     H1 3742   2.144   4.568   3.250  0.7800  0.3115 -0.9709
 1177WAT     H2 3743   2.067   4.460   3.177 -0.6597  0.5124  0.1939
 1178WAT      O 3744   1.543   0.473   4.583 -0.2197  0.0839 -0.1018
 1178WAT     H1 3745   1.518   0.518   4.502 -0.6667  0.9327  0.4885
 1178WAT     H2 3746   1.616   0.525   4.618  0.4173 -0.6662 -0.2944
 1179WAT      O 3747   0.585   3.761   3.171  0.4111  0.6717  0.1392
 1179WAT     H1 3748   0.540   3.818   3.109  0.4060 -0.3686 -0.8586
 1179WAT     H2 3749   0.530   3.763   3.250 -0.1298  1.2409 -0.2403
 1180WAT      O 3750   1.543   2.650   2.573 -0.3133 -0.3349  0.1758
 1180WAT     H1 3751   1.635   2.630   2.556 -0.8421 -0.9286 -2.4645
 1180WAT     H2 3752   1.500   2.564   2.571 -1.2545  0.1349 -1.2886
 1181WAT      O 3753   4.428   1.411   3.855 -0.3588  0.8016 -0.3908
 1181WAT     H1 3754   4.505   1.469   3.857  0.0224  0.3061 -0.3313
 1181WAT     H2 3755   4.455   1.335   3.907  0.1177 -0.6105 -2.5775
 1182WAT      O 3756   4.133   4.772   1.958  0.6930  0.1025 -0.1097
 1182WAT     H1 3757   4.081   4.768   1.878  0.5907  0.7511 -0.0767
 1182WAT     H2 3758   4.200   4.837   1.939  0.1928  0.8387  0.6127
 1183WAT      O 3759   4.019   0.665   3.520  0.3128  0.9217 -0.2962
 1183WAT     H1 3760   3.972   0.582   3.527 -0.4134  1.2869 -0.6317
 1183WAT     H2 3761   4.086   0.650   3.453 -0.6879  0.9683 -1.3578
 1184WAT      O 3762   3.143   4.806   0.011  0.6774  0.4113 -0.5744
 1184WAT     H1 3763   3.229   4.828  -0.026  0.7578 -0.8451 -1.1703
 1184WAT     H2 3764   3.147   4.712   0.028 -0.0190  0.6236  0.9470
 1185WAT      O 3765   0.327   0.944   2.742 -0.0052  0.2798 -0.2932
 1185WAT     H1 3766   0.409   0.988   2.765 -0.0168  0.0764  0.1512
 1185WAT     H2 3767   0.348   0.895   2.662  0.4399 -0.1199  0.0590
 1186WAT      O 3768   3.254   1.190   1.648  0.0770 -0.8341 -0.3431
 1186WAT     H1 3769   3.287   1.176   1.737 -1.5619  0.5799  0.5584
 1186WAT     H2 3770   3.288   1.276   1.623  0.8169 -1.3708 -1.2644
 1187WAT      O 3771   3.624   0.141   2.898  0.5973 -0.1442  0.3662
 1187WAT     H1 3772   3.613   0.165   2.806  2.3914  0.0779  0.1767
 1187WAT     H2 3773   3.538   0.107   2.924  0.1133 -0.4259 -1.4448
 1188WAT      O 3774   0.113   4.497   3.755 -0.5021  0.1251 -0.0045
 1188WAT     H1 3775   0.080   4.426   3.699  0.8236  0.0819 -0.7750
 1188WAT     H2 3776   0.174   4.546   3.698  0.7841  0.1585  1.3469
 1189WAT      O 3777   2.486   3.333   0.456 -0.3389  0.2037  0.2388
 1189WAT     H1 3778   2.411   3.320   0.514 -0.9509 -1.7004 -0.8951
 1189WAT     H2 3779   2.537   3.253   0.463  0.2161  0.4210 -0.9557
 1190WAT      O 3780   2.349   1.743   0.222 -0.0707  0.3591  0.3288
 1190WAT     H1 3781   2.432   1.698   0.204 -0.3993 -0.1880  0.1630
 1190WAT     H2 3782   2.333   1.795   0.143 -0.7661 -0.8977 -0.3789
 1191WAT      O 3783   0.485   2.181   1.207 -0.0759  0.0981  0.3514
 1191WAT     H1 3784   0.454   2.153   1.121 -0.0656 -2.7768  1.1591
 1191WAT     H2 3785   0.418   2.151   1.268 -0.1831  2.2537  1.3927
 1192WAT      O 3786   1.468   4.600   0.108 -0.6817  0.2294 -0.0001
 1192WAT     H1 3787   1.548   4.649   0.090  0.7452 -1.7643  0.4893
 1192WAT     H2 3788   1.449   4.617   0.200  0.1252 -0.5194  0.3179
 1193WAT      O 3789   1.810   3.662   0.594 -0.3386 -0.6835  0.3191
 1193WAT     H1 3790   1.735   3.713   0.623  0.2766  0.2136  0.3807
 1193WAT     H2 3791   1.786   3.571   0.612 -1.4197 -0.4185  0.2925
 1194WAT      O 3792   2.364   3.297   4.458  0.3515 -0.0988  0.4027
 1194WAT     H1 3793   2.339   3.377   4.412 -1.0353  0.7693  2.5356
 1194WAT     H2 3794   2.459   3.300   4.463  0.5449 -0.0971 -2.0725
 1195WAT      O 3795   1.887   3.735   1.167 -0.2410  0.6789 -0.5894
 1195WAT     H1 3796   1.904   3.646   1.199 -1.4208  0.6005 -0.1198
 1195WAT     H2 3797   1.859   3.723   1.076  1.0268  0.7080 -0.9912
 1196WAT      O 3798   1.470   0.661   3.292 -0.1750 -0.3842 -0.2329
 1196WAT     H1 3799   1.391   0.643   3.342 -1.3745  1.7876 -1.1952
 1196WAT     H2 3800   1.518   0.726   3.344  0.5624 -1.0155 -0.0913
 1197WAT      O 3801   2.719   3.819   0.188 -0.1209  0.1457  0.1025
 1197WAT     H1 3802   2.688   3.892   0.134  0.7307  0.9522  0.6762
 1197WAT     H2 3803   2.720   3.744   0.128 -0.7331  0.6602 -0.5728
 1198WAT      O 3804   1.167   2.756   5.077  0.1199  0.0549  0.1529
 1198WAT     H1 3805   1.142   2.835   5.029  0.4990  1.9486  2.8415
 1198WAT     H2 3806   1.241   2.784   5.132 -1.7952 -1.1620  3.6334
 1199WAT      O 3807   2.961   4.358   4.046 -0.3363 -0.0284 -0.2483
 1199WAT     H1 3808   2.983   4.314   3.964  3.6884  0.1632  0.4942
 1199WAT     H2 3809   2.949   4.287   4.109  1.5837 -0.2380 -0.0410
 1200WAT      O 3810   3.643   4.678   4.138 -0.1240  0.0010 -0.2873
 1200WAT     H1 3811   3.722   4.732   4.133  0.9951 -1.4341  0.8009
 1200WAT     H2 3812   3.613   4.671   4.047  1.8720 -0.5919 -0.9622
 1201WAT      O 3813   1.526   1.831   1.401  0.1075 -0.3753  0.2629
 1201WAT     H1 3814   1.530   1.739   1.428  0.3375 -0.5011 -0.1841
 1201WAT     H2 3815   1.456   1.834   1.336 -0.8517  0.0413  1.2929
 1202WAT      O 3816   2.272   0.927   3.863  0.5155 -0.3689 -0.4764
 1202WAT     H1 3817   2.243   1.016   3.842 -1.6823 -1.2240 -1.3961
 1202WAT     H2 3818   2.366   0.935   3.878  0.3127  2.1587 -0.1405
 1203WAT      O 3819   0.134   1.167   2.661  0.0582  0.5400 -0.3204
 1203WAT     H1 3820   0.059   1.124   2.620 -0.8562  1.8515 -0.0819
 1203WAT     H2 3821   0.161   1.107   2.731  0.3614 -0.7635 -1.5206
 1204WAT      O 3822   0.058   3.466   1.155 -0.3492  0.5344  0.1003
 1204WAT     H1 3823   0.037   3.537   1.094  0.5640  0.8220  0.1161
 1204WAT     H2 3824   0.079   3.510   1.237 -1.4123  0.1545  0.5934
 1205WAT      O 3825   2.117   2.985   1.117 -0.2672 -0.3385  0.5726
 1205WAT     H1 3826   2.164   3.063   1.146  0.4360  0.0535 -1.4519
 1205WAT     H2 3827   2.024   3.009   1.123 -0.1140  0.0837  1.4029
 1206WAT      O 3828   1.256   4.835   3.526 -0.0262  0.2690 -0.1344
 1206WAT     H1 3829   1.339   4.791   3.546 -0.5284 -1.9287 -2.4294
 1206WAT     H2 3830   1.266   4.867   3.437 -0.9261  1.9327  0.3165
 1207WAT      O 3831   1.772   0.158   1.971  0.0641 -0.7911 -0.5670
 1207WAT     H1 3832   1.728   0.117   1.897  1.1344  1.5107 -2.5937
 1207WAT     H2 3833   1.735   0.246   1.976 -0.7438 -1.1678  2.3793
 1208WAT      O 3834   2.384   2.261   2.361 -0.2828 -0.6501 -0.2737
 1208WAT     H1 3835   2.466   2.211   2.360 -0.2436 -0.6713  1.3160
 1208WAT     H2 3836   2.320   2.202   2.401 -0.7792 -0.2126 -0.4061
 1209WAT      O 3837   3.743   1.348   3.063 -0.4454 -0.0388 -0.1542
 1209WAT     H1 3838   3.717   1.304   3.143 -2.8091  0.6318 -0.4839
 1209WAT     H2 3839   3.778   1.278   3.007 -0.1030 -0.7354  0.9090
 1210WAT      O 3840   0.353   3.353   2.614  0.0155 -0.0738 -0.0197
 1210WAT     H1 3841   0.330   3.431   2.665  1.6659  0.7621 -0.4732
 1210WAT     H2 3842   0.305   3.363   2.532 -0.8607 -0.2595  0.4611
 1211WAT      O 3843   4.428   4.385   2.453 -0.2911 -0.1662 -0.1372
 1211WAT     H1 3844   4.476   4.447   2.400  1.6874 -0.1805  1.5137
 1211WAT     H2 3845   4.358   4.436   2.493 -0.0544  0.4782 -0.5375
 1212WAT      O 3846   3.458   0.868   2.607  0.0777 -0.0178  0.0998
 1212WAT     H1 3847   3.364   0.856   2.593  0.0259  0.1678  0.2809
 1212WAT     H2 3848   3.474   0.834   2.696  0.0294  0.7317  0.3985
 1213WAT      O 3849   3.697   3.187   3.411  0.1645 -0.2405  0.8524
 1213WAT     H1 3850   3.664   3.257   3.467 -1.1287 -0.7867  0.8147
 1213WAT     H2 3851   3.755   3.135   3.467 -1.1103 -0.7786  1.7183
 1214WAT      O 3852   1.392   2.032   4.846 -0.0418  0.4388  0.2474
 1214WAT     H1 3853   1.408   2.034   4.940 -0.6812  0.5193  0.3571
 1214WAT     H2 3854   1.310   2.080   4.834  0.6626  1.5251 -0.4855
 1215WAT      O 3855   4.231   5.078   4.208  0.9502  0.3336  0.0567
 1215WAT     H1 3856   4.292   5.053   4.139  1.4813 -1.4912  1.1323
 1215WAT     H2 3857   4.229   5.174   4.205  1.4850  0.3129 -2.0070
 1216WAT      O 3858   1.310   3.260   2.068 -0.5834 -0.2953  0.1138
 1216WAT     H1 3859   1.384   3.203   2.088 -0.4363 -0.0324  0.3174
 1216WAT     H2 3860   1.333   3.345   2.107 -0.8673 -0.1367 -0.0571
 1217WAT      O 3861   0.256   5.070   4.654  0.0743 -0.1866  0.2375
 1217WAT     H1 3862   0.218   5.097   4.737  0.4521  0.8414  0.0909
 1217WAT     H2 3863   0.348   5.051   4.674 -0.0313 -0.7174  0.2130
 1218WAT      O 3864   1.185   2.884   0.236 -0.0325 -0.5439  0.5216
 1218WAT     H1 3865   1.168   2.921   0.150  2.6708 -1.2452 -0.4053
 1218WAT     H2 3866   1.199   2.790   0.219  1.1930 -0.5749  1.6116
 1219WAT      O 3867   1.757   4.011   4.106  0.5602  0.3261 -0.2060
 1219WAT     H1 3868   1.719   4.068   4.172  1.2319  1.4965 -0.7952
 1219WAT     H2 3869   1.789   3.935   4.155  1.7562  1.5208  0.9497
 1220WAT      O 3870   3.549   2.909   3.767 -0.4794  0.6916  0.4874
 1220WAT     H1 3871   3.503   2.875   3.690 -2.9672  0.1748  2.1072
 1220WAT     H2 3872   3.494   2.980   3.798  1.3429  1.9787  0.8993
 1221WAT      O 3873   2.475   3.852   0.381  0.2399  0.1334  1.0017
 1221WAT     H1 3874   2.562   3.818   0.362  0.1651 -0.4851  1.6962
 1221WAT     H2 3875   2.489   3.920   0.447  0.0846 -1.0225  2.2768
 1222WAT      O 3876   4.374   1.289   2.052  0.1705 -0.5152 -0.9470
 1222WAT     H1 3877   4.408   1.215   2.101  1.7657 -0.0604 -1.3156
 1222WAT     H2 3878   4.299   1.254   2.003 -0.0791 -1.4831  0.0948
 1223WAT      O 3879   3.012   2.101   1.808  0.3141  0.0279  0.3100
 1223WAT     H1 3880   3.003   2.124   1.716 -0.8556  1.4449  0.7472
 1223WAT     H2 3881   3.096   2.138   1.834 -0.2557  1.3756  0.2854
 1224WAT      O 3882   3.281   1.048   3.827 -0.3783 -0.0534 -0.0810
 1224WAT     H1 3883   3.273   1.140   3.853  0.6209 -0.6655  2.7563
 1224WAT     H2 3884   3.372   1.040   3.797 -1.1749  0.3590 -2.9345
 1225WAT      O 3885   2.329   0.518   4.859 -0.6270  0.1947 -0.4063
 1225WAT     H1 3886   2.265   0.526   4.929 -0.2074  3.6199 -0.2170
 1225WAT     H2 3887   2.315   0.596   4.805 -0.0141 -1.5988 -3.3916
 1226WAT      O 3888   1.631   4.049   1.474  0.0238 -0.0029 -0.5431
 1226WAT     H1 3889   1.566   3.998   1.427 -1.2705  1.1618 -0.1238
 1226WAT     H2 3890   1.677   4.099   1.407 -1.0712  0.8333 -0.7097
 1227WAT      O 3891   2.873   2.746   0.982 -0.4058 -0.5880  0.0429
 1227WAT     H1 3892   2.780   2.729   0.995 -0.1147 -1.5886  0.9987
 1227WAT     H2 3893   2.878   2.837   0.954 -1.8080 -1.0368 -1.8529
 1228WAT      O 3894   2.688   0.065   5.290  0.0242  0.1960 -0.6161
 1228WAT     H1 3895   2.710  -0.023   5.321  0.9027  0.3680 -0.7320
 1228WAT     H2 3896   2.620   0.050   5.224 -0.7126 -0.2903  0.2283
 1229WAT      O 3897   0.170   4.094   3.557  0.5052 -0.1692  0.3050
 1229WAT     H1 3898   0.219   4.133   3.630  1.2643 -2.4191  1.0863
 1229WAT     H2 3899   0.234   4.089   3.486  0.0777  0.9955 -0.1915
 1230WAT      O 3900   3.994   3.075   0.312  0.3157 -0.2089  0.1316
 1230WAT     H1 3901   3.911   3.046   0.349  0.2522 -1.0675 -0.6233
 1230WAT     H2 3902   4.053   3.083   0.387  0.0667 -1.4464  0.4833
 1231WAT      O 3903   2.703   1.815   0.995 -0.7407 -0.0282 -0.3919
 1231WAT     H1 3904   2.677   1.895   1.040  0.9643  0.3834 -0.0655
 1231WAT     H2 3905   2.691   1.746   1.061  0.4025  0.3768  0.2782
 1232WAT      O 3906   4.253   1.542   0.131  0.3716 -0.0249  0.4347
 1232WAT     H1 3907   4.282   1.451   0.128  0.8947  0.1363  0.5417
 1232WAT     H2 3908   4.244   1.561   0.224  1.2510  0.3369  0.4557
 1233WAT      O 3909   0.029   0.349   3.346 -0.4826  0.8381 -0.6861
 1233WAT     H1 3910   0.087   0.380   3.276 -2.4918  2.8709 -1.5816
 1233WAT     H2 3911   0.044   0.409   3.418  1.7976 -1.4290  0.9001
 1234WAT      O 3912   3.341   2.669   2.036  0.3721 -0.0167  0.3747
 1234WAT     H1 3913   3.374   2.672   1.946  2.3244  0.8705  1.0682
 1234WAT     H2 3914   3.371   2.751   2.075 -0.3681 -0.4330  1.8743
 1235WAT      O 3915   0.971   4.046   2.700  0.2662  0.0179 -0.6679
 1235WAT     H1 3916   1.000   4.111   2.636 -2.0894  0.5363 -1.2884
 1235WAT     H2 3917   0.925   3.980   2.648  1.7942 -1.7355  0.0637
 1236WAT      O 3918   2.365   0.109   2.037 -0.2134  0.5401  0.3718
 1236WAT     H1 3919   2.364   0.081   1.946 -2.0987  0.0430  0.4846
 1236WAT     H2 3920   2.370   0.204   2.033  3.9094  0.4883 -0.0775
 1237WAT      O 3921   4.515   0.469   4.091 -0.1721  0.6204  0.4244
 1237WAT     H1 3922   4.543   0.504   4.175 -2.1209  2.9052  0.2254
 1237WAT     H2 3923   4.438   0.521   4.068 -1.0988 -1.4984 -1.6746
 1238WAT      O 3924   1.599   1.166   3.321  0.6969  0.0426  0.5144
 1238WAT     H1 3925   1.560   1.087   3.283 -0.4579  1.1599 -0.6840
 1238WAT     H2 3926   1.534   1.197   3.384  0.3421  0.9975 -0.2997
 1239WAT      O 3927   2.021   1.254   0.469 -0.2756 -0.0317  0.1948
 1239WAT     H1 3928   1.989   1.197   0.399 -1.4083 -0.4989  1.0631
 1239WAT     H2 3929   2.061   1.194   0.533  1.5413  0.4592 -0.4055
 1240WAT      O 3930   4.059   0.780   4.887  0.1480  0.7993 -0.1692
 1240WAT     H1 3931   4.066   0.821   4.801  1.4792  1.1161  0.0661
 1240WAT     H2 3932   4.138   0.807   4.933 -1.2191  1.8312  1.6932
 1241WAT      O 3933   3.737   1.347   1.559  0.0475  0.2574 -0.0966
 1241WAT     H1 3934   3.739   1.263   1.513  1.4383 -0.5203  1.2686
 1241WAT     H2 3935   3.780   1.408   1.500  1.8703 -0.7333  0.1381
 1242WAT      O 3936   2.088   3.789   1.616 -0.2842 -0.3435 -0.2952
 1242WAT     H1 3937   2.038   3.817   1.540 -0.5418 -0.8221 -0.3082
 1242WAT     H2 3938   2.062   3.849   1.686 -1.2842 -0.8979 -0.1660
 1243WAT      O 3939   2.623   1.439   1.475 -0.0952 -0.1611  0.2118
 1243WAT     H1 3940   2.708   1.482   1.483  0.3659 -0.6258 -1.6903
 1243WAT     H2 3941   2.627   1.394   1.390 -3.3006  2.2544 -1.4117
 1244WAT      O 3942   0.727   3.811   1.770 -0.0188 -0.0242  0.2353
 1244WAT     H1 3943   0.633   3.801   1.752  0.0038 -0.2927  0.2656
 1244WAT     H2 3944   0.734   3.897   1.811 -0.4800 -0.7120  1.8140
 1245WAT      O 3945   0.480   1.341   1.033 -0.4847 -0.0558 -0.1493
 1245WAT     H1 3946   0.550   1.306   0.978 -0.1844  0.3067 -0.0009
 1245WAT     H2 3947   0.515   1.336   1.122 -1.2985 -1.4369  0.1052
 1246WAT      O 3948   1.650   4.398   2.037 -0.0583 -0.1034  0.2563
 1246WAT     H1 3949   1.661   4.383   2.131  0.0855 -0.7745  0.1396
 1246WAT     H2 3950   1.710   4.336   1.996 -0.3280 -0.0103 -0.2851
 1247WAT      O 3951   4.189   4.747   0.946  0.9640 -0.4314  0.3203
 1247WAT     H1 3952   4.103   4.743   0.906 -0.0884  2.5779  1.9901
 1247WAT     H2 3953   4.246   4.781   0.877  0.7275 -1.7295 -0.5583
 1248WAT      O 3954   3.751   2.362   1.933 -0.1078  0.1231 -0.2088
 1248WAT     H1 3955   3.817   2.354   2.001 -1.7048 -0.9798  1.3189
 1248WAT     H2 3956   3.708   2.276   1.931 -2.1203  1.0779 -0.4257
 1249WAT      O 3957   1.693   3.066   2.907  0.2530 -0.1876  0.0458
 1249WAT     H1 3958   1.609   3.043   2.867  0.5231  0.2058 -0.7712
 1249WAT     H2 3959   1.744   2.985   2.904  0.6097  0.0714 -1.2951
 1250WAT      O 3960   3.025   1.237   1.864  0.1129  0.0356  0.2228
 1250WAT     H1 3961   3.115   1.210   1.878 -0.1304 -0.9254 -0.0042
 1250WAT     H2 3962   2.987   1.240   1.952  0.7665  2.0254  0.5008
 1251WAT      O 3963   1.246   2.484   0.648 -0.1726  0.2493 -0.9272
 1251WAT     H1 3964   1.168   2.477   0.593  0.9746 -0.3294 -2.5510
 1251WAT     H2 3965   1.292   2.400   0.636  0.6772  0.5491  0.0480
 1252WAT      O 3966   1.921   1.486   5.081  0.6175  0.7733  0.0168
 1252WAT     H1 3967   2.000   1.462   5.130  0.3930  0.0506  0.0356
 1252WAT     H2 3968   1.848   1.461   5.138  0.3663  1.0122 -0.1957
 1253WAT      O 3969   4.469   4.985   0.216 -0.2257  0.1973 -0.7602
 1253WAT     H1 3970   4.474   4.892   0.238  1.3797  0.0134 -1.7407
 1253WAT     H2 3971   4.426   5.025   0.291 -1.0022 -1.3432 -0.3489
 1254WAT      O 3972   0.536   4.282   4.477  0.0308 -0.4762 -0.1476
 1254WAT     H1 3973   0.490   4.268   4.560  0.1307 -1.1176 -0.1980
 1254WAT     H2 3974   0.519   4.203   4.426 -0.5198  0.1682 -0.9837
 1255WAT      O 3975   1.612   0.632   2.168  1.1167 -0.0747  0.0762
 1255WAT     H1 3976   1.673   0.661   2.236 -0.7147  4.8498  0.0606
 1255WAT     H2 3977   1.537   0.598   2.216  1.1834  0.2551  0.4276
 1256WAT      O 3978   2.427   4.340   5.120  0.1346  0.0845 -0.5056
 1256WAT     H1 3979   2.365   4.297   5.178  1.3974 -1.4173 -0.1980
 1256WAT     H2 3980   2.443   4.425   5.161  0.5803 -0.7256  1.0706
 1257WAT      O 3981   4.395   4.044   3.088 -0.3750  0.3816 -0.0071
 1257WAT     H1 3982   4.435   4.095   3.017 -2.1908  0.5210 -0.9876
 1257WAT     H2 3983   4.425   4.088   3.168  0.8970  0.8483 -0.7018
 1258WAT      O 3984   3.394   3.276   1.941 -0.1214 -0.0469 -0.1215
 1258WAT     H1 3985   3.301   3.287   1.960 -0.2613 -0.1740 -0.7053
 1258WAT     H2 3986   3.439   3.308   2.019 -0.6055  1.6249 -0.4784
 1259WAT      O 3987   4.093   0.485   2.309  0.2491  0.1066  0.5226
 1259WAT     H1 3988   4.136   0.439   2.382 -1.4054 -1.5747  0.4965
 1259WAT     H2 3989   4.136   0.451   2.231  1.1893  0.9995  0.6375
 1260WAT      O 3990   3.785   2.629   4.993 -0.1770  0.4039  0.6962
 1260WAT     H1 3991   3.849   2.674   5.047  0.2181 -1.0469  1.4936
 1260WAT     H2 3992   3.835   2.595   4.918 -0.3424  0.6997  0.4485
 1261WAT      O 3993   2.089   0.228   3.230 -0.2213  0.2029  0.0114
 1261WAT     H1 3994   2.126   0.292   3.169  0.8916 -1.2321 -0.8812
 1261WAT     H2 3995   2.003   0.206   3.194  0.2535 -0.3164 -0.8336
 1262WAT      O 3996   3.094   2.905   4.168  0.4212  0.4706 -0.4675
 1262WAT     H1 3997   3.106   2.984   4.220 -1.4816 -0.1825  1.1014
 1262WAT     H2 3998   3.157   2.842   4.203  0.6052  0.6874 -0.4092
 1263WAT      O 3999   4.147   4.119   4.298 -0.4981 -0.0936 -0.1878
 1263WAT     H1 4000   4.115   4.032   4.321 -0.4015  0.3391  1.7285
 1263WAT     H2 4001   4.115   4.133   4.209 -1.5337 -1.5982 -0.0906
 1264WAT      O 4002   2.241   0.070   5.289 -0.0615 -0.0925  0.8191
 1264WAT     H1 4003   2.311   0.073   5.223 -2.9771 -1.3392 -2.6658
 1264WAT     H2 4004   2.182   0.141   5.264 -1.9553 -1.4651  1.1860
 1265WAT      O 4005   1.849   4.725   0.271  0.5419  0.4437  0.1708
 1265WAT     H1 4006   1.868   4.797   0.211  2.9758 -0.2605  0.0017
 1265WAT     H2 4007   1.856   4.646   0.216  0.1993 -0.0589  0.8335
 1266WAT      O 4008   4.115   0.908   0.555  0.1111 -0.2841  0.8986
 1266WAT     H1 4009   4.104   1.003   0.566 -1.0366 -0.4442  1.3136
 1266WAT     H2 4010   4.192   0.887   0.608  1.1726  0.5913 -0.2295
 1267WAT      O 4011   1.917   2.992   3.455 -0.0452  0.3301  0.1756
 1267WAT     H1 4012   1.957   3.047   3.388  2.6084 -1.8559 -0.1542
 1267WAT     H2 4013   1.941   3.034   3.538  1.2052  0.1637 -0.0960
 1268WAT      O 4014   1.174   2.928   4.831 -0.2997 -0.0077  0.6532
 1268WAT     H1 4015   1.253   2.895   4.787  0.3648  1.6296  0.5261
 1268WAT     H2 4016   1.183   3.023   4.827 -2.7082  0.2558 -0.1249
 1269WAT      O 4017   4.239   2.983   0.109  0.6151 -0.3216 -0.1811
 1269WAT     H1 4018   4.321   2.992   0.156 -0.7760  2.4216  2.0524
 1269WAT     H2 4019   4.171   2.997   0.176 -1.5618  1.2208 -2.4930
 1270WAT      O 4020   2.792   4.666   0.430  0.2503  0.0058 -0.5905
 1270WAT     H1 4021   2.887   4.668   0.442  0.4699 -0.5861 -2.1075
 1270WAT     H2 4022   2.772   4.745   0.380 -0.1179  0.3275  0.0520
 1271WAT      O 4023   1.164   3.172   2.269  0.4464 -0.6392 -0.1735
 1271WAT     H1 4024   1.082   3.130   2.242  0.8968 -0.7185 -1.4858
 1271WAT     H2 4025   1.204   3.201   2.188  1.4362 -0.0394  0.5028
 1272WAT      O 4026   2.983   3.666   0.374  0.3875 -0.5344 -0.1778
 1272WAT     H1 4027   3.060   3.714   0.344 -0.5019 -0.1018 -1.9351
 1272WAT     H2 4028   2.965   3.605   0.302  0.4813 -2.3312  1.2572
 1273WAT      O 4029   3.236   1.920   0.689 -0.6965 -0.2606  0.3268
 1273WAT     H1 4030   3.260   1.856   0.757 -1.1388 -1.1106 -0.3000
 1273WAT     H2 4031   3.286   1.998   0.711 -0.1741 -0.8093  1.1375
 1274WAT      O 4032   1.984   0.266   2.207 -0.3090 -0.1425  0.0179
 1274WAT     H1 4033   1.961   0.304   2.292 -0.5782 -1.3031  0.4728
 1274WAT     H2 4034   1.903   0.272   2.156 -0.2520  0.2031 -0.0392
 1275WAT      O 4035   3.283   4.749   1.488  0.1006 -0.1609  0.1681
 1275WAT     H1 4036   3.256   4.657   1.481 -1.2138  0.3240 -2.4052
 1275WAT     H2 4037   3.379   4.746   1.487  0.0769 -1.5068  0.2836
 1276WAT      O 4038   1.368   3.316   0.211  0.4640 -0.0824  0.7268
 1276WAT     H1 4039   1.278   3.309   0.244 -0.6677 -1.6783 -2.2494
 1276WAT     H2 4040   1.362   3.382   0.142  1.4024 -0.6671  0.0722
 1277WAT      O 4041   0.048   4.475   3.265 -0.4175  0.1465  0.1432
 1277WAT     H1 4042   0.091   4.559   3.283  0.9705 -0.9973  2.5149
 1277WAT     H2 4043  -0.008   4.494   3.190  0.5665  2.9503 -0.0230
 1278WAT      O 4044   4.189   3.406   0.197  0.3175 -0.2758 -0.2596
 1278WAT     H1 4045   4.211   3.351   0.122  0.9530 -1.6088  0.8521
 1278WAT     H2 4046   4.236   3.366   0.270 -0.4692  0.8380  0.8976
 1279WAT      O 4047   0.971   4.603   0.139  0.0644 -0.0189  0.1087
 1279WAT     H1 4048   0.929   4.522   0.166 -0.4778  0.1027 -0.3745
 1279WAT     H2 4049   0.973   4.600   0.044  1.5031 -0.1968  0.1143
 1280WAT      O 4050   1.355   0.836   2.284 -0.2262 -0.4073 -0.3382
 1280WAT     H1 4051   1.338   0.763   2.343 -1.0112 -0.3088 -0.4350
 1280WAT     H2 4052   1.307   0.910   2.322  1.3551  0.3333  0.3025
 1281WAT      O 4053   1.058   0.553   4.282 -0.5541 -0.4413 -0.4299
 1281WAT     H1 4054   1.034   0.641   4.309  1.7683  0.8659 -2.2287
 1281WAT     H2 4055   1.052   0.554   4.187  2.1972 -1.2442 -0.7063
 1282WAT      O 4056   0.999   3.595   1.168 -0.0393  0.2940 -0.0590
 1282WAT     H1 4057   1.042   3.679   1.183  0.0783  0.5558 -1.7169
 1282WAT     H2 4058   1.041   3.560   1.089 -1.5701 -0.3059 -0.6447
 1283WAT      O 4059   0.372   3.680   1.013  0.0607  0.3778 -0.1720
 1283WAT     H1 4060   0.331   3.765   1.024  1.1960  0.8410  0.7609
 1283WAT     H2 4061   0.299   3.619   1.002 -0.8394  1.2777  0.5776
 1284WAT      O 4062   1.263   1.691   4.536  0.2401  0.8525  0.1391
 1284WAT     H1 4063   1.328   1.691   4.605  0.5235  0.8709 -0.1261
 1284WAT     H2 4064   1.247   1.783   4.518 -0.8391  0.8770  1.1130
 1285WAT      O 4065   4.104   5.141   0.939 -0.2949 -0.0096 -0.4322
 1285WAT     H1 4066   4.142   5.150   0.852  0.2170 -1.2022 -0.3575
 1285WAT     H2 4067   4.042   5.068   0.930 -2.4986  1.7478 -0.5064
 1286WAT      O 4068   4.322   4.991   1.914  0.1011 -0.2112 -0.6893
 1286WAT     H1 4069   4.256   5.036   1.861  0.2200 -0.5562 -1.1308
 1286WAT     H2 4070   4.406   5.021   1.879  0.1873 -1.4688 -1.5887
 1287WAT      O 4071   0.780   2.436   1.166  0.2899 -0.7991 -0.2676
 1287WAT     H1 4072   0.768   2.489   1.087 -1.6887  0.4971  0.8196
 1287WAT     H2 4073   0.763   2.346   1.138 -1.8354 -0.1958 -1.0778
 1288WAT      O 4074   1.983   2.243   0.619 -0.2255 -0.7982  0.2982
 1288WAT     H1 4075   2.012   2.160   0.657 -0.4043 -1.1960 -0.4068
 1288WAT     H2 4076   1.992   2.231   0.524 -1.8856 -0.6504  0.0752
 1289WAT      O 4077   0.741   1.995   3.904  0.2577 -0.2329 -0.2126
 1289WAT     H1 4078   0.709   1.954   3.824 -1.0761  0.3951 -0.0362
 1289WAT     H2 4079   0.785   1.924   3.951  0.2573 -0.8234 -1.0708
 1290WAT      O 4080   2.027   1.570   1.060 -0.1319 -0.6381  0.1184
 1290WAT     H1 4081   1.995   1.516   1.132  0.1139 -1.4954 -0.3932
 1290WAT     H2 4082   2.024   1.659   1.093 -0.3362 -0.9876  1.0686
 1291WAT      O 4083   1.358   4.563   1.189  0.2176  0.0114  0.2549
 1291WAT     H1 4084   1.355   4.506   1.113 -2.1491  1.3062 -0.7228
 1291WAT     H2 4085   1.367   4.651   1.153  1.3852  0.4948  1.6110
 1292WAT      O 4086   2.172   1.792   2.210  0.2842  0.0135 -0.0016
 1292WAT     H1 4087   2.160   1.877   2.168  0.5762  0.0332 -0.0461
 1292WAT     H2 4088   2.126   1.730   2.153  3.1604 -0.4338 -2.0390
 1293WAT      O 4089   2.150   0.537   5.076  0.3411 -0.6080 -0.7500
 1293WAT     H1 4090   2.125   0.531   5.168 -2.9352 -0.4654 -1.4930
 1293WAT     H2 4091   2.175   0.629   5.064  1.8252 -0.8651  0.1700
 1294WAT      O 4092   4.127   1.330   3.846 -0.4867  0.2325 -0.0151
 1294WAT     H1 4093   4.116   1.306   3.938 -0.6714 -0.0655 -0.1150
 1294WAT     H2 4094   4.195   1.398   3.847 -0.5872  0.3296  0.3548
 1295WAT      O 4095   0.849   2.280   0.304  0.0478 -0.5378  0.1598
 1295WAT     H1 4096   0.772   2.325   0.339 -1.2702 -2.5156 -0.0075
 1295WAT     H2 4097   0.896   2.249   0.382  1.9381  2.4321  0.3644
 1296WAT      O 4098   4.429   0.150   3.970  0.4897 -0.3726 -0.3895
 1296WAT     H1 4099   4.354   0.170   4.026 -0.6504 -0.1627 -1.9397
 1296WAT     H2 4100   4.486   0.228   3.978 -1.4381  1.3607 -2.3382
 1297WAT      O 4101   1.291   4.019   4.232  0.4179 -0.3599 -0.1153
 1297WAT     H1 4102   1.356   4.024   4.163  0.6771 -1.5629  0.0104
 1297WAT     H2 4103   1.207   4.029   4.187  0.6756  1.7390 -0.2075
 1298WAT      O 4104   1.361   3.948   1.453  0.1764  0.2593  0.1351
 1298WAT     H1 4105   1.341   3.983   1.366 -0.5780  1.4496  0.7488
 1298WAT     H2 4106   1.276   3.945   1.498  0.5119 -0.6166  0.7347
 1299WAT      O 4107   2.398   2.249   0.948 -0.3374 -0.1933 -0.2507
 1299WAT     H1 4108   2.322   2.191   0.948 -1.0389  0.7042 -0.4698
 1299WAT     H2 4109   2.371   2.324   1.000  0.7031 -0.2253  0.3617
 1300WAT      O 4110   2.043   2.054   3.177 -0.0174 -0.0231 -0.1018
 1300WAT     H1 4111   2.066   2.000   3.252  1.4829  2.3639  1.2917
 1300WAT     H2 4112   2.113   2.038   3.114  1.1147  1.1275  0.8104
 1301WAT      O 4113   2.264   2.592   1.481  0.6623 -0.4229 -0.2469
 1301WAT     H1 4114   2.197   2.657   1.500 -1.0489 -1.8233 -1.1724
 1301WAT     H2 4115   2.346   2.633   1.508 -0.5977  1.1841  1.3555
 1302WAT      O 4116   0.581   0.533   0.062  0.1576  0.1815  0.1826
 1302WAT     H1 4117   0.542   0.595  -0.001  1.3910  1.0271  0.2085
 1302WAT     H2 4118   0.587   0.451   0.013 -2.8053 -0.3662  0.5979
 1303WAT      O 4119   4.311   2.313   3.964  0.2257 -0.5646  0.2147
 1303WAT     H1 4120   4.364   2.240   3.933  1.0895  0.9194 -2.1103
 1303WAT     H2 4121   4.223   2.278   3.972  0.0082 -1.2933 -3.6478
 1304WAT      O 4122   3.314   4.115   2.997  0.5103  0.0307  0.0388
 1304WAT     H1 4123   3.352   4.199   3.021  0.7344 -0.2070  0.5173
 1304WAT     H2 4124   3.388   4.063   2.963  0.4516 -0.1242  0.1469
 1305WAT      O 4125   2.011   4.637   0.507  0.3189 -0.3805 -0.0982
 1305WAT     H1 4126   1.932   4.664   0.460  0.2530  0.6094  0.5376
 1305WAT     H2 4127   2.081   4.690   0.468  0.0644  1.4013  1.6847
 1306WAT      O 4128   1.009   0.850   0.970  0.0604 -0.1638 -0.1353
 1306WAT     H1 4129   0.998   0.770   0.919  0.2096  0.3125 -0.9230
 1306WAT     H2 4130   1.104   0.860   0.979  0.1136  0.8800 -1.5942
 1307WAT      O 4131   0.533   3.000   2.799  0.1957  0.6385 -0.2178
 1307WAT     H1 4132   0.543   2.912   2.837  0.9462  0.5939 -0.5054
 1307WAT     H2 4133   0.446   2.999   2.758  0.0323  0.1666  0.1326
 1308WAT      O 4134   3.876   1.839   3.500  0.4846 -0.3432  0.1087
 1308WAT     H1 4135   3.929   1.917   3.480  0.3703  0.0642  1.3216
 1308WAT     H2 4136   3.919   1.768   3.453  0.4784  0.4723 -1.1892
 1309WAT      O 4137   0.458   2.318   4.628  0.3789  0.9785  0.4232
 1309WAT     H1 4138   0.410   2.268   4.562 -0.1845 -0.7350  2.0253
 1309WAT     H2 4139   0.390   2.367   4.674  0.1706 -0.7326  2.0867
 1310WAT      O 4140   3.870   0.852   2.249  0.5436  0.2028 -0.1659
 1310WAT     H1 4141   3.899   0.851   2.341 -0.4318 -0.8257  0.1431
 1310WAT     H2 4142   3.813   0.776   2.241  0.2754  0.5307 -1.5281
 1311WAT      O 4143   2.218   3.507   0.743  0.0839  0.1011 -0.9271
 1311WAT     H1 4144   2.241   3.428   0.694  0.8766  0.7298 -1.5857
 1311WAT     H2 4145   2.250   3.491   0.831 -0.3322 -0.5695 -0.8923
 1312WAT      O 4146   3.918   4.286   3.575 -0.1563 -0.0683 -0.0589
 1312WAT     H1 4147   3.907   4.231   3.498 -0.2805  0.1269 -0.1802
 1312WAT     H2 4148   3.898   4.375   3.545  1.9034  0.3430 -0.3429
 1313WAT      O 4149   0.463   4.065   2.687 -0.2311 -0.0894 -0.4274
 1313WAT     H1 4150   0.453   4.141   2.744  1.3216  0.8735 -1.3684
 1313WAT     H2 4151   0.491   3.994   2.745  0.2876  0.5940  0.1644
 1314WAT      O 4152   0.733   3.260   4.408 -1.1725 -0.5114  0.8118
 1314WAT     H1 4153   0.777   3.175   4.404 -2.1240 -1.0810  1.7813
 1314WAT     H2 4154   0.717   3.283   4.317 -0.4202 -1.1071  0.5148
 1315WAT      O 4155   0.737   4.099   2.886  0.4566 -0.4945  0.0764
 1315WAT     H1 4156   0.691   4.015   2.878  1.6188 -1.1411 -0.0798
 1315WAT     H2 4157   0.828   4.078   2.863  0.5877  0.9994 -0.8712
 1316WAT      O 4158   3.848   2.984   2.035  0.6305 -0.1423  0.0143
 1316WAT     H1 4159   3.934   2.989   2.076  1.4633  0.3630 -1.6963
 1316WAT     H2 4160   3.837   3.068   1.991 -0.3956 -0.4964 -0.4538
 1317WAT      O 4161   2.983   1.873   3.569 -0.0960 -0.5179  0.1542
 1317WAT     H1 4162   3.046   1.820   3.618  0.4272  1.0193  1.2283
 1317WAT     H2 4163   2.988   1.840   3.479  0.5673 -1.9193  0.6841
 1318WAT      O 4164   1.483   4.677   3.588 -1.0067  0.0572  0.2248
 1318WAT     H1 4165   1.574   4.688   3.616  0.0398 -0.2739 -2.7432
 1318WAT     H2 4166   1.459   4.590   3.619 -0.4236  0.2516  1.2660
 1319WAT      O 4167   2.133   2.014   0.693 -0.6132 -0.2682  0.3724
 1319WAT     H1 4168   2.118   1.925   0.726 -0.1186 -0.4522  0.1008
 1319WAT     H2 4169   2.203   2.004   0.628  1.9475  0.8181  2.7877
 1320WAT      O 4170   3.206   1.973   0.419  0.4964 -0.0570 -0.2018
 1320WAT     H1 4171   3.294   1.940   0.435  1.7657  3.7933  2.3414
 1320WAT     H2 4172   3.173   1.994   0.506 -1.5110  1.7912 -1.3230
 1321WAT      O 4173   1.030   2.682   1.585 -0.1282  0.0231  0.4919
 1321WAT     H1 4174   0.936   2.696   1.572 -0.0936  0.5504  0.7865
 1321WAT     H2 4175   1.071   2.760   1.548  0.1059  0.4468  1.5982
 1322WAT      O 4176   4.315   3.640   2.575 -0.2380  0.1354  0.1108
 1322WAT     H1 4177   4.380   3.694   2.621  2.5911 -2.3547 -0.6959
 1322WAT     H2 4178   4.289   3.574   2.639 -0.1046 -0.3333 -0.3119
 1323WAT      O 4179   1.835   1.059   0.294  0.4173  0.0411  0.2880
 1323WAT     H1 4180   1.778   1.065   0.217 -1.6168 -1.9334  1.5414
 1323WAT     H2 4181   1.780   1.086   0.367  0.4409 -3.3779  1.7517
 1324WAT      O 4182   3.634   4.998   2.352  0.3260  0.1689  0.3895
 1324WAT     H1 4183   3.643   5.093   2.362 -3.8822  0.9593 -0.9889
 1324WAT     H2 4184   3.640   4.984   2.257  0.0746 -0.8013  0.5069
 1325WAT      O 4185   1.426   3.682   4.444  0.2121 -0.0914  0.3063
 1325WAT     H1 4186   1.480   3.716   4.373  1.2269 -1.4734  0.3867
 1325WAT     H2 4187   1.392   3.761   4.487  1.2611  0.7975 -0.4268
 1326WAT      O 4188   1.689   4.037   0.832 -0.6187 -0.1280  0.7201
 1326WAT     H1 4189   1.650   3.960   0.874 -0.7030 -0.2646  0.4002
 1326WAT     H2 4190   1.709   4.007   0.743  1.6426 -0.5460  1.3052
 1327WAT      O 4191   1.454   0.531   0.665 -0.2191 -0.8498  0.9794
 1327WAT     H1 4192   1.374   0.567   0.627  0.6936  1.0261  0.7503
 1327WAT     H2 4193   1.511   0.513   0.589 -0.7635 -3.2030  1.0480
 1328WAT      O 4194   2.022   1.791   1.628 -0.1772 -0.2465  0.4340
 1328WAT     H1 4195   1.945   1.847   1.622  0.2557  0.5102  1.5576
 1328WAT     H2 4196   2.006   1.721   1.564 -1.0278  0.7882 -0.5337
 1329WAT      O 4197   3.603   4.895   2.897  0.6516  0.1636 -0.7364
 1329WAT     H1 4198   3.554   4.947   2.961  1.3762 -1.2091  1.0170
 1329WAT     H2 4199   3.690   4.934   2.896  1.4130 -1.3235  1.1161
 1330WAT      O 4200   1.488   3.726   1.278  0.0694  0.2857 -0.2419
 1330WAT     H1 4201   1.447   3.755   1.359 -0.4588 -0.6444 -0.1576
 1330WAT     H2 4202   1.420   3.673   1.235 -1.3526  4.2616 -3.4686
 1331WAT      O 4203  -0.009   0.448   2.559  0.3609  0.2391  0.0382
 1331WAT     H1 4204   0.001   0.377   2.623 -0.5166  1.3731  1.4897
 1331WAT     H2 4205   0.018   0.408   2.476  1.3370 -1.3462  1.0469
 1332WAT      O 4206   1.096   2.885   1.400 -0.4142  0.4876  0.1065
 1332WAT     H1 4207   1.079   2.841   1.317  0.4638 -3.1008  1.6402
 1332WAT     H2 4208   1.166   2.948   1.380 -2.1050  1.7693 -2.3168
 1333WAT      O 4209   1.855   1.169   0.750 -1.0433  0.0525  0.8917
 1333WAT     H1 4210   1.808   1.209   0.677 -1.9930 -0.3226  1.2846
 1333WAT     H2 4211   1.926   1.119   0.709 -1.1146  0.4529  0.2792
 1334WAT      O 4212   4.162   3.283   3.861  0.0626 -0.1433 -0.2744
 1334WAT     H1 4213   4.183   3.348   3.928 -0.3452  0.7006 -0.9427
 1334WAT     H2 4214   4.212   3.310   3.785  0.8092 -1.3082 -0.2251
 1335WAT      O 4215   2.651   4.044   2.763  0.0644 -0.5939  0.2609
 1335WAT     H1 4216   2.584   4.070   2.826 -0.1514  1.6037 -0.7943
 1335WAT     H2 4217   2.732   4.040   2.815 -0.1397  1.0302  0.7351
 1336WAT      O 4218   3.069   1.601   4.637 -0.0632 -0.0554  0.2940
 1336WAT     H1 4219   3.081   1.693   4.664 -0.9127 -0.1777  1.1273
 1336WAT     H2 4220   2.975   1.587   4.642 -0.2744 -0.1878 -2.5223
 1337WAT      O 4221   3.212   0.772   2.937 -0.0852 -0.1510  0.4486
 1337WAT     H1 4222   3.205   0.684   2.976 -3.4000  0.1557  0.8350
 1337WAT     H2 4223   3.156   0.768   2.860  0.6593  1.3399 -0.2139
 1338WAT      O 4224   4.238   1.410   2.359 -0.1032  0.1877 -0.1021
 1338WAT     H1 4225   4.162   1.460   2.330  1.4501  1.9347 -1.4719
 1338WAT     H2 4226   4.262   1.356   2.283  0.8479  0.7519 -0.2232
 1339WAT      O 4227   2.742   0.508   4.303 -0.2767 -0.0918 -0.0131
 1339WAT     H1 4228   2.656   0.550   4.313 -1.0759 -1.8086  0.6317
 1339WAT     H2 4229   2.757   0.464   4.386  1.5295  0.6403  0.1011
 1340WAT      O 4230   2.161   2.809   2.256  0.6662 -0.1871 -0.1333
 1340WAT     H1 4231   2.200   2.775   2.336  0.7642 -0.4163 -0.2769
 1340WAT     H2 4232   2.210   2.767   2.186  1.2946  0.8394 -0.3155
 1341WAT      O 4233   2.992   4.448   0.202  0.9265  0.4227 -0.4553
 1341WAT     H1 4234   2.899   4.425   0.206  0.3053  1.9753 -3.2353
 1341WAT     H2 4235   3.014   4.475   0.291 -2.0689  2.6457 -0.2385
 1342WAT      O 4236   2.850   0.055   2.425 -0.2254  0.6805 -0.2167
 1342WAT     H1 4237   2.827   0.067   2.332  0.5976  2.6655 -0.2083
 1342WAT     H2 4238   2.772   0.015   2.463 -0.7901  0.3287 -1.6519
 1343WAT      O 4239   2.424   3.427   2.183 -0.2608 -0.1407 -0.6388
 1343WAT     H1 4240   2.348   3.485   2.171 -0.1136 -0.1538 -1.7217
 1343WAT     H2 4241   2.421   3.403   2.276 -1.8457 -0.5083 -0.7581
 1344WAT      O 4242   0.053   0.780   0.213 -0.1071 -0.1819 -0.4421
 1344WAT     H1 4243   0.010   0.828   0.143  1.1240  0.2421 -0.9217
 1344WAT     H2 4244   0.146   0.788   0.195  0.3315  1.0535  1.9434
 1345WAT      O 4245   3.589   0.181   4.089  0.2957 -0.3888 -0.1207
 1345WAT     H1 4246   3.608   0.191   4.183  0.8690 -0.1659 -0.2563
 1345WAT     H2 4247   3.604   0.088   4.072 -1.9549 -0.9243  0.4628
 1346WAT      O 4248   3.485   0.961   0.315 -0.0987 -0.3658  0.2449
 1346WAT     H1 4249   3.536   1.014   0.377 -0.3161 -0.2749  0.3466
 1346WAT     H2 4250   3.521   0.985   0.229 -0.9104  0.7521  0.1999
 1347WAT      O 4251   3.586   3.315   1.142  0.2522 -0.2524  0.1958
 1347WAT     H1 4252   3.600   3.334   1.235  0.7625 -0.8898  0.2626
 1347WAT     H2 4253   3.595   3.220   1.136 -0.3850 -0.2756 -0.4110
 1348WAT      O 4254   0.330   1.730   2.274  0.2510 -0.4079  0.1950
 1348WAT     H1 4255   0.290   1.643   2.272 -0.2412 -0.1672 -1.1355
 1348WAT     H2 4256   0.274   1.783   2.219  1.6410  0.2797 -0.6076
 1349WAT      O 4257   3.679   4.523   3.026 -0.1092  0.4115 -0.1404
 1349WAT     H1 4258   3.709   4.463   2.957 -3.2925  0.0097 -1.3786
 1349WAT     H2 4259   3.643   4.598   2.978 -0.5468  1.0768  1.1927
 1350WAT      O 4260   3.087   4.065   4.155 -0.0546  0.1598  0.0890
 1350WAT     H1 4261   3.089   4.054   4.060 -0.9167 -0.2202  0.0978
 1350WAT     H2 4262   3.040   3.987   4.187 -0.9659  0.9306  0.7047
 1351WAT      O 4263   0.389   1.167   5.313 -0.4947 -0.1237  0.0733
 1351WAT     H1 4264   0.317   1.169   5.250 -0.2950  0.7534 -0.1382
 1351WAT     H2 4265   0.468   1.159   5.260 -0.1248  2.8296 -0.0233
 1352WAT      O 4266   3.295   3.866   3.186 -0.0621 -0.0892  0.1457
 1352WAT     H1 4267   3.251   3.792   3.146  0.5227  0.0810 -0.8415
 1352WAT     H2 4268   3.281   3.939   3.126 -1.5981  0.9319  1.6440
 1353WAT      O 4269   3.251   3.352   3.528 -0.3635  0.1345 -0.3789
 1353WAT     H1 4270   3.296   3.433   3.508 -2.0169  1.1255 -0.2755
 1353WAT     H2 4271   3.249   3.304   3.445  1.6696 -0.3922 -0.1716
 1354WAT      O 4272   1.609   4.249   3.685 -0.0220  0.0004  0.4080
 1354WAT     H1 4273   1.538   4.311   3.665  0.8720  0.6040 -1.0904
 1354WAT     H2 4274   1.564   4.168   3.710 -1.2698  0.1181 -1.2788
 1355WAT      O 4275   2.411   4.066   1.583 -0.1395  0.1042  0.6601
 1355WAT     H1 4276   2.367   4.071   1.668 -2.0991 -0.4951 -0.2528
 1355WAT     H2 4277   2.489   4.013   1.599 -0.6430 -0.2653  2.0202
 1356WAT      O 4278   0.603   3.498   1.405  0.1113  0.4847 -0.1287
 1356WAT     H1 4279   0.603   3.531   1.315  0.0437 -2.3961 -1.2945
 1356WAT     H2 4280   0.695   3.503   1.432  0.5050 -0.5410 -1.1821
 1357WAT      O 4281   3.059   2.246   4.952  0.7781  0.2662 -0.2764
 1357WAT     H1 4282   3.095   2.311   5.014  0.3182 -0.1793  0.4741
 1357WAT     H2 4283   3.104   2.264   4.870 -1.4688  3.5844 -0.9933
 1358WAT      O 4284   2.088   2.127   1.466  0.2922  0.3747  0.4581
 1358WAT     H1 4285   2.046   2.040   1.465 -1.5039  1.2004  0.7034
 1358WAT     H2 4286   2.066   2.163   1.552  2.5567  0.4041  1.0932
 1359WAT      O 4287   0.918   0.135   0.991 -0.1996  0.3154 -0.9761
 1359WAT     H1 4288   0.907   0.214   1.043 -0.9450  0.5047 -1.3916
 1359WAT     H2 4289   0.828   0.104   0.976  0.1147 -1.4212  0.3925
 1360WAT      O 4290   3.519   2.481   2.102 -0.5172 -0.2743  0.0090
 1360WAT     H1 4291   3.458   2.545   2.067 -0.1929  0.1199  0.1461
 1360WAT     H2 4292   3.596   2.488   2.046  0.4582  1.1811  1.4276
 1361WAT      O 4293   0.157   2.213   2.656 -0.6124  0.0587 -0.3201
 1361WAT     H1 4294   0.240   2.195   2.612 -0.1859 -1.3553  0.9500
 1361WAT     H2 4295   0.091   2.172   2.601 -0.1442 -1.1959 -0.0024
 1362WAT      O 4296   0.264   4.318   1.317 -0.9287 -0.1053 -0.4439
 1362WAT     H1 4297   0.330   4.376   1.279 -0.9861 -0.6220 -1.3630
 1362WAT     H2 4298   0.264   4.340   1.411  0.8847 -0.4253 -0.3293
 1363WAT      O 4299   2.007   2.160   4.772  0.7163 -0.2498  0.1096
 1363WAT     H1 4300   2.046   2.078   4.744  0.8386 -0.6945  1.4901
 1363WAT     H2 4301   1.913   2.142   4.773  0.7267 -0.3036  0.1697
 1364WAT      O 4302   3.475   3.219   0.213 -0.5547  0.1071  0.2413
 1364WAT     H1 4303   3.520   3.248   0.134 -2.1817 -0.3068 -0.8822
 1364WAT     H2 4304   3.449   3.300   0.257 -2.3671  0.4393 -1.2954
 1365WAT      O 4305   1.120   0.933   5.062  0.1256 -0.0286 -0.3632
 1365WAT     H1 4306   1.182   0.865   5.034 -1.7031 -0.9788 -2.4680
 1365WAT     H2 4307   1.072   0.893   5.135  1.1442  0.2611  0.4880
 1366WAT      O 4308   2.243   4.308   0.606 -0.0884  0.4275  0.2808
 1366WAT     H1 4309   2.196   4.228   0.629 -1.5453  0.9878 -0.5687
 1366WAT     H2 4310   2.181   4.379   0.627 -0.0263  1.1463 -1.6761
 1367WAT      O 4311   4.382   4.941   5.249  0.2430  0.7427  0.4640
 1367WAT     H1 4312   4.291   4.912   5.250  0.2835  0.4980 -0.7860
 1367WAT     H2 4313   4.400   4.968   5.339 -1.3599  1.7508  0.5213
 1368WAT      O 4314   3.105   0.731   0.793 -0.4862  0.2173  0.2027
 1368WAT     H1 4315   3.108   0.759   0.702  0.4492 -0.2601  0.0730
 1368WAT     H2 4316   3.180   0.673   0.803 -0.0556  0.9415  1.4989
 1369WAT      O 4317   4.380   3.238   0.248  0.3585 -0.4875 -0.5193
 1369WAT     H1 4318   4.437   3.194   0.186  0.1908 -1.1597 -0.2095
 1369WAT     H2 4319   4.359   3.171   0.313  2.7816  0.8921  1.8813
 1370WAT      O 4320   3.194   1.503   5.286 -0.5634 -0.2381 -0.2021
 1370WAT     H1 4321   3.168   1.582   5.334 -0.7677  0.2151 -1.0400
 1370WAT     H2 4322   3.267   1.531   5.231 -1.0322 -0.4711 -0.9641
 1371WAT      O 4323   3.850   4.037   3.659 -0.0272 -0.3942  0.4380
 1371WAT     H1 4324   3.894   4.113   3.698 -0.8756  0.1374  0.3786
 1371WAT     H2 4325   3.782   4.075   3.604  0.5688 -1.1675 -0.8576
 1372WAT      O 4326   2.111   4.617   0.748 -0.0969 -0.4081  0.3942
 1372WAT     H1 4327   2.077   4.698   0.785  2.3803  1.1649 -0.5283
 1372WAT     H2 4328   2.082   4.618   0.656  2.9141  1.4452 -0.6853
 1373WAT      O 4329   2.075   1.018   0.639 -0.5023  0.0533  0.0636
 1373WAT     H1 4330   2.010   0.952   0.615 -1.3405  1.1115 -0.7448
 1373WAT     H2 4331   2.158   0.983   0.607 -0.9451 -0.5552 -0.4509
 1374WAT      O 4332   2.608   2.525   0.282 -1.0675 -0.7810  0.0720
 1374WAT     H1 4333   2.662   2.601   0.260 -1.2826 -0.5473  0.3474
 1374WAT     H2 4334   2.598   2.529   0.377  0.7179 -2.3736  0.3857
 1375WAT      O 4335   2.770   1.489   1.177  0.0322  0.5706 -0.0503
 1375WAT     H1 4336   2.806   1.450   1.097  1.3242  0.0262  0.7832
 1375WAT     H2 4337   2.706   1.425   1.208 -1.5408  1.4020 -1.3611
 1376WAT      O 4338   1.552   2.502   3.487  0.0568 -0.3076  0.5023
 1376WAT     H1 4339   1.632   2.459   3.515  1.4857  1.5358 -0.5394
 1376WAT     H2 4340   1.547   2.581   3.540 -0.7089 -0.0466  0.0685
 1377WAT      O 4341   4.300   1.555   1.729  0.6286  0.3751  0.5106
 1377WAT     H1 4342   4.205   1.546   1.731  0.5776  0.8098  2.7912
 1377WAT     H2 4343   4.320   1.577   1.638 -1.3861 -0.2353 -0.1323
 1378WAT      O 4344   3.526   1.280   3.554 -0.0311 -0.0959  0.3302
 1378WAT     H1 4345   3.592   1.212   3.540 -0.3442 -0.4798  0.6659
 1378WAT     H2 4346   3.538   1.306   3.646  0.4165  0.6603  0.0598
 1379WAT      O 4347   0.003   4.129   3.327  0.3724 -0.2782 -0.1162
 1379WAT     H1 4348   0.016   4.060   3.392  0.7296 -0.8898 -0.8106
 1379WAT     H2 4349   0.091   4.160   3.306  0.2661 -0.1147 -0.3289
 1380WAT      O 4350   1.815   1.855   1.935  0.4331  0.6818  0.1846
 1380WAT     H1 4351   1.909   1.874   1.931  0.7787 -0.3306  2.0098
 1380WAT     H2 4352   1.780   1.887   1.852  2.1714  2.2410 -0.0186
 1381WAT      O 4353   0.575   1.549   0.790 -0.1311 -0.2505 -0.2744
 1381WAT     H1 4354   0.608   1.466   0.824 -0.1639  0.1804  0.8533
 1381WAT     H2 4355   0.652   1.607   0.789 -0.4169  0.1578  0.4440
 1382WAT      O 4356   4.451   1.717   3.223  0.3788 -0.8687 -0.2057
 1382WAT     H1 4357   4.460   1.693   3.315 -0.2371  0.0588  0.1133
 1382WAT     H2 4358   4.378   1.665   3.190 -0.0853 -0.4378  0.1235
 1383WAT      O 4359   2.160   4.911   2.090  0.4370 -0.0666  0.0562
 1383WAT     H1 4360   2.141   4.985   2.147 -1.3377 -2.1379  2.3352
 1383WAT     H2 4361   2.095   4.917   2.020 -1.0334 -0.5205  1.3343
 1384WAT      O 4362   1.484   1.457   3.026 -0.2538  0.0931 -0.5219
 1384WAT     H1 4363   1.566   1.427   2.988  0.1585 -0.8630  1.0434
 1384WAT     H2 4364   1.437   1.496   2.953  2.2107  2.0927 -1.1870
 1385WAT      O 4365   1.300   4.908   1.796  0.0599 -0.9581  0.2689
 1385WAT     H1 4366   1.319   4.858   1.717  0.9004  1.2834 -1.0678
 1385WAT     H2 4367   1.215   4.948   1.780 -0.1611 -1.1608  0.8892
 1386WAT      O 4368   1.495   4.905   2.858 -0.1352 -0.2413 -0.2751
 1386WAT     H1 4369   1.562   4.847   2.821 -1.0273 -1.3467 -0.2270
 1386WAT     H2 4370   1.496   4.885   2.952  0.1757  0.4973 -0.1170
 1387WAT      O 4371   0.573   1.534   4.018 -0.3174  0.2817  0.2427
 1387WAT     H1 4372   0.506   1.468   4.038 -1.4234  0.7586 -1.6401
 1387WAT     H2 4373   0.589   1.523   3.924  0.3706  1.9119  0.1475
 1388WAT      O 4374   0.894   0.796   4.813 -0.3366  0.2346  0.0164
 1388WAT     H1 4375   0.907   0.704   4.789  1.4699  1.0308 -2.3825
 1388WAT     H2 4376   0.982   0.832   4.819 -0.9945  2.4150 -1.8315
 1389WAT      O 4377   3.398   0.777   0.495  0.1045  0.2093 -0.2441
 1389WAT     H1 4378   3.433   0.832   0.425 -0.8093 -1.1302 -1.8096
 1389WAT     H2 4379   3.476   0.742   0.538  0.6802  1.2798 -0.3684
 1390WAT      O 4380   3.395   4.823   2.406 -0.5110 -0.1558 -0.4492
 1390WAT     H1 4381   3.380   4.810   2.500  0.3488 -0.9954 -0.4135
 1390WAT     H2 4382   3.446   4.903   2.401  3.3135 -2.2822  0.2310
 1391WAT      O 4383   3.950   0.371   3.545  0.0652  0.5044 -0.2948
 1391WAT     H1 4384   3.986   0.372   3.634 -3.3272  0.3536  1.2000
 1391WAT     H2 4385   3.900   0.289   3.540  0.8717  0.0702 -2.7173
 1392WAT      O 4386   0.047   3.280   0.592  1.1761 -0.2373  0.4374
 1392WAT     H1 4387  -0.041   3.318   0.585  1.3796  0.4102  1.2598
 1392WAT     H2 4388   0.034   3.187   0.575  0.7652  0.2308 -2.4739
 1393WAT      O 4389   4.464   4.196   0.999  0.3276 -0.3260 -0.4017
 1393WAT     H1 4390   4.500   4.151   0.922  0.1687  1.1838 -1.3955
 1393WAT     H2 4391   4.520   4.272   1.010 -0.3810  0.1091  0.2638
 1394WAT      O 4392   3.141   0.257   2.804  0.3313  0.4295 -0.2417
 1394WAT     H1 4393   3.101   0.279   2.719  0.5254  0.9709 -0.1911
 1394WAT     H2 4394   3.090   0.181   2.834 -0.3012  0.7671 -0.4396
 1395WAT      O 4395   2.695   1.587   2.761  0.4551 -0.4660 -0.5240
 1395WAT     H1 4396   2.731   1.504   2.792 -0.3408 -1.1659 -1.4057
 1395WAT     H2 4397   2.707   1.584   2.666 -0.9093 -0.2390 -0.7274
 1396WAT      O 4398   0.570   4.411   0.983  0.1285  0.3818 -0.4554
 1396WAT     H1 4399   0.588   4.361   0.903 -1.4280  0.3973 -0.8403
 1396WAT     H2 4400   0.619   4.492   0.972 -0.2463  0.4784 -1.5003
 1397WAT      O 4401   2.214   3.991   0.577 -0.5977  0.1887 -0.7539
 1397WAT     H1 4402   2.181   3.901   0.586  0.4963 -0.3041 -1.4936
 1397WAT     H2 4403   2.139   4.046   0.601 -1.2860 -0.9110 -0.2838
 1398WAT      O 4404   2.769   4.786   5.250 -0.7585  0.2804  0.0791
 1398WAT     H1 4405   2.847   4.740   5.217  0.2699  1.4513  0.7651
 1398WAT     H2 4406   2.744   4.844   5.178  0.0324  1.0920  0.4291
 1399WAT      O 4407   1.264   1.164   2.946 -0.2055 -0.4097  0.3990
 1399WAT     H1 4408   1.354   1.136   2.931 -0.3754 -0.6714 -0.1688
 1399WAT     H2 4409   1.215   1.125   2.873 -0.7667 -0.2338  0.6802
 1400WAT      O 4410   0.923   0.218   0.202 -0.5464 -0.5959 -0.1332
 1400WAT     H1 4411   0.969   0.151   0.253 -0.0906 -0.7833 -0.7643
 1400WAT     H2 4412   0.992   0.261   0.152 -0.8852  0.1192  0.0124
 1401WAT      O 4413   4.053   2.029   5.032  0.4846  0.4452 -0.2890
 1401WAT     H1 4414   4.000   1.969   4.980  1.5916  1.1474 -2.3403
 1401WAT     H2 4415   4.141   1.992   5.029  0.6719  0.7666  0.7065
 1402WAT      O 4416   0.734   2.049   4.605  0.3713  0.4018 -0.0894
 1402WAT     H1 4417   0.736   2.144   4.621  3.1254  0.3120  0.6253
 1402WAT     H2 4418   0.806   2.015   4.658 -1.2374 -2.2775  0.5046
 1403WAT      O 4419   4.406   2.198   5.059 -0.5459 -0.3163  0.1299
 1403WAT     H1 4420   4.481   2.226   5.111 -0.0269 -1.6813  0.1470
 1403WAT     H2 4421   4.337   2.261   5.080  0.2861  0.3602  0.8761
 1404WAT      O 4422   1.576   4.774   3.210 -0.5599 -0.5110 -0.3925
 1404WAT     H1 4423   1.630   4.790   3.287 -0.3859 -0.6059 -0.4938
 1404WAT     H2 4424   1.535   4.859   3.193 -1.6315 -0.8207  0.5803
 1405WAT      O 4425   3.415   3.906   1.099  0.1136  0.2338  0.3730
 1405WAT     H1 4426   3.329   3.939   1.126 -0.6181  0.8440 -2.3458
 1405WAT     H2 4427   3.465   3.984   1.076  1.1875 -0.1629  1.2725
 1406WAT      O 4428   0.678   4.240   3.133  0.7881 -0.4672 -0.0389
 1406WAT     H1 4429   0.712   4.175   3.072 -0.0541 -2.6328  1.6718
 1406WAT     H2 4430   0.755   4.292   3.157  1.6048 -1.1732 -1.0215
 1407WAT      O 4431   1.161   4.066   3.862  0.0020  0.0705  0.4056
 1407WAT     H1 4432   1.239   4.012   3.852  0.1635 -0.2022  2.5135
 1407WAT     H2 4433   1.110   4.022   3.930  0.0201  2.3887  2.0510
 1408WAT      O 4434   4.264   2.430   5.099  0.0448  0.0987  0.2895
 1408WAT     H1 4435   4.346   2.479   5.090 -0.1575  0.7220  1.6327
 1408WAT     H2 4436   4.201   2.479   5.047  0.4126 -0.1186 -0.3673
 1409WAT      O 4437   0.582   2.886   0.923 -0.7707 -0.0135  0.7772
 1409WAT     H1 4438   0.574   2.967   0.973 -0.5223  0.7308 -0.3392
 1409WAT     H2 4439   0.650   2.905   0.858 -0.4330 -1.2582  0.7405
 1410WAT      O 4440   0.140   0.745   3.484  0.2668  0.2681  0.1173
 1410WAT     H1 4441   0.176   0.802   3.415 -3.3096  0.0162 -2.1965
 1410WAT     H2 4442   0.091   0.805   3.541  1.8992  0.2517  1.6225
 1411WAT      O 4443   0.837   3.251   5.039 -0.1729 -0.1603  0.3293
 1411WAT     H1 4444   0.844   3.222   4.948 -0.6884 -0.5710  0.4135
 1411WAT     H2 4445   0.799   3.339   5.033  1.4086  0.5294  0.0715
 1412WAT      O 4446   0.561   1.714   2.537 -0.4215 -0.0899  0.4664
 1412WAT     H1 4447   0.492   1.661   2.578  0.3146 -0.3623  1.3947
 1412WAT     H2 4448   0.514   1.790   2.502 -1.0590  0.4056  2.2696
 1413WAT      O 4449   0.163   2.830   4.299 -0.3429  0.4838  0.0430
 1413WAT     H1 4450   0.067   2.825   4.296 -0.4409  0.2525  2.2156
 1413WAT     H2 4451   0.191   2.789   4.217 -2.0919  0.9444 -0.8442
 1414WAT      O 4452   0.443   3.590   2.136  0.4518 -0.0505  0.2319
 1414WAT     H1 4453   0.402   3.508   2.163 -1.0294  0.6971  0.3709
 1414WAT     H2 4454   0.430   3.648   2.211 -0.0099  0.8074 -0.5038
 1415WAT      O 4455   1.024   4.472   5.147  0.6205 -0.3706  0.6714
 1415WAT     H1 4456   1.113   4.442   5.132  0.4123 -0.1105 -1.2989
 1415WAT     H2 4457   1.006   4.533   5.075 -0.4818  1.1215  2.1182
 1416WAT      O 4458   1.582   0.225   4.781 -0.0738  0.0025  0.3150
 1416WAT     H1 4459   1.547   0.300   4.732 -1.9851  0.3419  2.0763
 1416WAT     H2 4460   1.521   0.154   4.762  0.4749 -0.5033  0.4177
 1417WAT      O 4461   2.798   1.680   5.096  0.0212 -0.5618 -0.9995
 1417WAT     H1 4462   2.712   1.670   5.056 -0.7286  0.5432  0.2482
 1417WAT     H2 4463   2.786   1.654   5.187  0.7772  0.4344 -0.5857
 1418WAT      O 4464   1.316   4.365   0.238 -0.1560  0.3354  0.0799
 1418WAT     H1 4465   1.312   4.309   0.160 -1.7879 -0.4855  0.7196
 1418WAT     H2 4466   1.383   4.430   0.216 -0.5473  0.1166 -2.0008
 1419WAT      O 4467   1.487   3.234   3.252 -0.2910  0.2413  0.2066
 1419WAT     H1 4468   1.416   3.282   3.294 -0.6352 -1.5783  1.7978
 1419WAT     H2 4469   1.443   3.171   3.195  0.1549  1.2810 -1.3820
 1420WAT      O 4470   3.957   3.353   2.400 -0.4654  0.0663 -0.0301
 1420WAT     H1 4471   4.034   3.337   2.345 -2.0988  1.0133 -2.7523
 1420WAT     H2 4472   3.935   3.266   2.435  1.5617 -0.2844  0.5159
 1421WAT      O 4473   3.728   4.890   2.588  0.6748 -0.0600 -0.2503
 1421WAT     H1 4474   3.781   4.966   2.612 -0.2107  0.4285  0.2061
 1421WAT     H2 4475   3.697   4.909   2.499 -0.9788  0.9659  0.4963
 1422WAT      O 4476   2.043   2.030   4.460 -0.1421 -0.2103 -0.6455
 1422WAT     H1 4477   2.019   2.119   4.486 -2.1594 -0.8433 -0.1479
 1422WAT     H2 4478   2.068   1.987   4.541  2.1918  0.2459 -1.0734
 1423WAT      O 4479   1.013   1.436   0.636  0.2057 -0.2929 -0.5160
 1423WAT     H1 4480   1.017   1.397   0.724  2.1251  1.6534  0.3684
 1423WAT     H2 4481   0.967   1.371   0.583 -0.9954 -1.5781  1.8968
 1424WAT      O 4482   1.628   4.091   3.313  0.0117  0.0253 -0.1798
 1424WAT     H1 4483   1.713   4.132   3.329 -0.1798  0.5054 -0.3948
 1424WAT     H2 4484   1.564   4.159   3.335 -0.3437 -0.5919  0.7716
 1425WAT      O 4485   2.935   1.290   0.223 -0.6095 -0.0728 -0.4507
 1425WAT     H1 4486   2.984   1.360   0.267 -0.0251 -0.6925 -0.0935
 1425WAT     H2 4487   2.947   1.307   0.130 -0.9807  0.6516 -0.3705
 1426WAT      O 4488   2.677   2.252   4.248 -0.3626  0.1168 -0.1281
 1426WAT     H1 4489   2.682   2.186   4.179  3.6372 -0.1610  0.2079
 1426WAT     H2 4490   2.724   2.327   4.212 -0.5780  0.9654  1.3120
 1427WAT      O 4491   0.622   4.307   3.434 -0.1773  0.6226 -0.2290
 1427WAT     H1 4492   0.653   4.225   3.472  0.1402  0.6750 -0.3694
 1427WAT     H2 4493   0.700   4.362   3.428 -0.3052  0.7778 -0.5440
 1428WAT      O 4494   1.360   3.458   4.590 -0.4000 -0.2550  0.8847
 1428WAT     H1 4495   1.386   3.538   4.544  0.2384 -1.3834 -0.7753
 1428WAT     H2 4496   1.285   3.486   4.644 -1.6048  1.0126 -1.3068
 1429WAT      O 4497   2.275   1.796   1.296  0.3073  0.0136  0.4250
 1429WAT     H1 4498   2.190   1.778   1.256  0.2264  0.2562  0.4846
 1429WAT     H2 4499   2.305   1.711   1.327 -0.6310  0.1317  1.8014
 1430WAT      O 4500   2.439   1.793   2.168  0.3480 -0.8381 -0.0772
 1430WAT     H1 4501   2.424   1.745   2.087 -0.3465  1.8445 -1.6654
 1430WAT     H2 4502   2.353   1.801   2.208  0.2362  0.1620 -0.4979
 1431WAT      O 4503   2.683   0.456   3.401  0.2721  0.0072  0.3081
 1431WAT     H1 4504   2.701   0.528   3.462 -1.1629  0.9746 -0.3611
 1431WAT     H2 4505   2.747   0.389   3.424  2.8119  2.1276 -0.1400
 1432WAT      O 4506   2.641   0.361   0.537 -0.3801  0.2293 -0.1572
 1432WAT     H1 4507   2.546   0.369   0.523 -0.1596 -0.0155 -1.9987
 1432WAT     H2 4508   2.678   0.438   0.494  0.3122 -0.0305 -0.0295
 1433WAT      O 4509   1.199   3.013   3.844  0.2048  0.0598 -0.2091
 1433WAT     H1 4510   1.178   2.959   3.921 -0.1551 -0.0559 -0.3870
 1433WAT     H2 4511   1.213   2.951   3.774 -1.7176  0.2152 -0.7936
 1434WAT      O 4512   4.138   0.759   1.325 -0.0164  0.1489 -0.3673
 1434WAT     H1 4513   4.118   0.832   1.266 -0.6495 -0.5982 -1.1077
 1434WAT     H2 4514   4.114   0.681   1.275 -0.3531 -0.5166  0.7974
 1435WAT      O 4515   0.177   5.084   0.099  0.3567 -0.1088 -0.5552
 1435WAT     H1 4516   0.102   5.031   0.127  1.4862 -1.3115  0.3402
 1435WAT     H2 4517   0.192   5.145   0.171 -0.4156  0.9031 -1.2181
 1436WAT      O 4518   1.845   3.774   3.660 -0.2105 -0.6242 -0.4973
 1436WAT     H1 4519   1.857   3.679   3.673  0.8289 -0.3413  0.8077
 1436WAT     H2 4520   1.809   3.805   3.742  0.8319  0.3363 -0.3799
 1437WAT      O 4521   1.535   0.829   4.630 -0.1633 -0.0335  0.2389
 1437WAT     H1 4522   1.589   0.757   4.663  0.1168  0.7208  1.4859
 1437WAT     H2 4523   1.471   0.845   4.700 -0.5119  0.6249 -0.2199
 1438WAT      O 4524   2.699   1.758   1.538 -0.2891 -0.1370 -0.2826
 1438WAT     H1 4525   2.663   1.725   1.620  1.6602 -0.7840  0.3630
 1438WAT     H2 4526   2.722   1.849   1.556  0.0080 -0.2370 -0.1604
 1439WAT      O 4527   1.269   1.166   3.690 -0.6696  0.0994 -0.0367
 1439WAT     H1 4528   1.229   1.241   3.733 -2.2028 -0.5320 -0.2872
 1439WAT     H2 4529   1.207   1.094   3.703  1.4923 -1.6227  1.6751
 1440WAT      O 4530   0.780   0.949   4.124  0.4110 -0.1874 -0.0042
 1440WAT     H1 4531   0.852   0.958   4.061  1.0622 -3.1148  0.1603
 1440WAT     H2 4532   0.815   0.891   4.191 -2.3430 -2.5351 -0.4214
 1441WAT      O 4533   2.353   3.222   4.822 -0.7450  0.5737 -0.5064
 1441WAT     H1 4534   2.358   3.164   4.898 -2.0791  0.6240 -0.3628
 1441WAT     H2 4535   2.422   3.191   4.763 -0.6266 -0.3587  0.1085
 1442WAT      O 4536   4.418   0.909   0.031 -1.1983  0.4037 -0.1693
 1442WAT     H1 4537   4.363   0.926   0.108 -0.1962 -2.1073  1.2153
 1442WAT     H2 4538   4.410   0.989  -0.022 -3.4988  1.4461  1.5513
 1443WAT      O 4539   0.394   1.727   1.685  0.2472 -0.6297 -0.3035
 1443WAT     H1 4540   0.303   1.698   1.695 -0.8357  2.5950  0.4585
 1443WAT     H2 4541   0.430   1.725   1.774 -0.1931  1.1957 -0.0529
 1444WAT      O 4542   2.607   3.564   3.387  0.6501 -0.0394 -0.3717
 1444WAT     H1 4543   2.523   3.612   3.384  0.1424 -0.8265  0.5142
 1444WAT     H2 4544   2.659   3.614   3.450  0.0656 -0.7028  0.6688
 1445WAT      O 4545   2.322   3.627   0.324  0.2978  0.1330 -0.2120
 1445WAT     H1 4546   2.406   3.600   0.286 -0.4949 -0.2208 -1.8176
 1445WAT     H2 4547   2.341   3.711   0.364  0.9992  1.1217 -2.4231
 1446WAT      O 4548   2.189   4.727   2.575 -0.0769  0.3092 -0.7601
 1446WAT     H1 4549   2.229   4.723   2.488 -0.3909 -0.6299 -0.8712
 1446WAT     H2 4550   2.102   4.690   2.562  0.0093 -0.1779  0.0344
 1447WAT      O 4551   3.534   3.756   3.697 -0.3007  0.6816  0.5650
 1447WAT     H1 4552   3.489   3.837   3.723 -0.0102  1.1001 -0.1982
 1447WAT     H2 4553   3.500   3.689   3.757 -1.8859  1.0034  0.0884
 1448WAT      O 4554   2.042   0.871   1.298 -0.1259  0.3246 -0.1215
 1448WAT     H1 4555   2.045   0.870   1.393 -1.9959  0.0669 -0.0176
 1448WAT     H2 4556   1.959   0.916   1.277  0.8426  1.5107 -1.6556
 1449WAT      O 4557   1.379   3.322   1.739  0.1080  0.3156  0.4560
 1449WAT     H1 4558   1.352   3.402   1.782  0.0143  1.4069 -1.5432
 1449WAT     H2 4559   1.323   3.254   1.777  0.2714  1.1303  2.2584
 1450WAT      O 4560   1.254   3.806   3.788  0.0922 -0.1361  0.2038
 1450WAT     H1 4561   1.341   3.784   3.755 -0.8559 -2.1309 -1.1675
 1450WAT     H2 4562   1.198   3.804   3.711 -1.4173 -0.3900  1.2630
 1451WAT      O 4563   0.422   4.884   2.976 -0.2531  0.0391  0.0678
 1451WAT     H1 4564   0.448   4.840   3.057  0.2289  2.4964  1.3275
 1451WAT     H2 4565   0.482   4.850   2.910  1.6945  0.5150  1.4943
 1452WAT      O 4566   2.975   2.410   2.779 -0.4525 -0.1888  0.5156
 1452WAT     H1 4567   2.986   2.318   2.806 -0.2781 -0.2040  0.4002
 1452WAT     H2 4568   2.889   2.413   2.738 -0.3217 -0.3787  0.2193
 1453WAT      O 4569   4.496   0.523   0.288  0.5253  0.1608  0.7419
 1453WAT     H1 4570   4.487   0.591   0.221 -1.6267 -1.1031 -0.3863
 1453WAT     H2 4571   4.479   0.567   0.371  0.2088  1.1987  0.1391
 1454WAT      O 4572   1.145   2.640   4.382  0.3016  0.2617 -0.1221
 1454WAT     H1 4573   1.158   2.568   4.445  2.4999  1.5679  1.0437
 1454WAT     H2 4574   1.228   2.645   4.335  1.1601  3.4362  1.4379
 1455WAT      O 4575   1.623   4.092   5.033 -0.1310 -0.5994 -0.0633
 1455WAT     H1 4576   1.655   4.155   5.097 -0.9349 -1.9894  1.8086
 1455WAT     H2 4577   1.686   4.020   5.035 -0.9422 -1.3237  0.2969
 1456WAT      O 4578   1.721   3.579   1.356  0.2378 -0.0853 -0.1377
 1456WAT     H1 4579   1.651   3.602   1.294  0.5029  1.1687 -0.0041
 1456WAT     H2 4580   1.674   3.554   1.436 -0.0814  1.4149  0.1768
 1457WAT      O 4581   2.985   4.211   0.870 -0.2801  0.1946  0.2569
 1457WAT     H1 4582   3.063   4.204   0.924  0.1916  0.8604 -0.3228
 1457WAT     H2 4583   2.971   4.123   0.836  0.3265  0.1138  0.2186
 1458WAT      O 4584   2.889   3.426   3.710  0.8928 -0.3181  0.0862
 1458WAT     H1 4585   2.819   3.470   3.759  0.8885 -0.4526  0.2014
 1458WAT     H2 4586   2.845   3.390   3.633  0.4693 -1.9536  1.0384
 1459WAT      O 4587   3.441   4.376   2.378 -0.3582  0.1702  0.5160
 1459WAT     H1 4588   3.414   4.323   2.452  0.6070  0.2002  0.9103
 1459WAT     H2 4589   3.525   4.339   2.351 -0.4051  0.5408 -0.1743
 1460WAT      O 4590   0.310   3.327   2.985 -0.7128 -0.5184  0.1098
 1460WAT     H1 4591   0.340   3.410   3.022  1.2481 -1.1143 -0.0053
 1460WAT     H2 4592   0.275   3.351   2.899 -0.7137  0.2624  0.3169
 1461WAT      O 4593   4.191   1.360   1.477  0.3003  0.0411  0.3572
 1461WAT     H1 4594   4.230   1.273   1.474  0.1397 -0.0199  0.0052
 1461WAT     H2 4595   4.181   1.385   1.385 -0.7362 -0.0642  0.4319
 1462WAT      O 4596   2.501   1.053   3.418  0.3706  0.0923  0.4233
 1462WAT     H1 4597   2.499   1.128   3.359 -0.6388  1.2213  1.8251
 1462WAT     H2 4598   2.444   0.988   3.375  0.1620  0.6399 -0.1481
 1463WAT      O 4599   2.760   4.255   0.227 -0.2326 -0.3655 -0.2548
 1463WAT     H1 4600   2.668   4.262   0.202  0.0761 -0.5191 -1.4931
 1463WAT     H2 4601   2.758   4.244   0.322 -1.5844 -2.1199 -0.4399
 1464WAT      O 4602   1.319   4.084   0.863  0.0190  0.0067 -0.0471
 1464WAT     H1 4603   1.370   4.034   0.927 -0.1635 -0.0929  0.0224
 1464WAT     H2 4604   1.382   4.144   0.824  0.7224 -1.6301 -1.5848
 1465WAT      O 4605   2.213   2.735   1.074 -0.1187  0.1763  0.2389
 1465WAT     H1 4606   2.289   2.722   1.018 -0.8399 -0.5536 -0.6114
 1465WAT     H2 4607   2.204   2.831   1.079 -0.2055  0.2654 -1.1593
 1466WAT      O 4608   2.874   4.745   1.479  0.0741 -0.1751 -0.1892
 1466WAT     H1 4609   2.787   4.737   1.516 -1.0293 -0.7271 -2.7263
 1466WAT     H2 4610   2.909   4.656   1.478 -0.2056 -0.2856 -1.0967
 1467WAT      O 4611   1.168   0.454  -0.008  0.1465  0.0852  0.2586
 1467WAT     H1 4612   1.097   0.407  -0.052  0.5196 -0.8833  0.6535
 1467WAT     H2 4613   1.184   0.404   0.072  1.3243  0.2324  0.1380
 1468WAT      O 4614   3.605   0.798   1.062  0.1143  0.1500  0.5032
 1468WAT     H1 4615   3.510   0.802   1.068  0.0593 -0.2142 -0.0827
 1468WAT     H2 4616   3.634   0.780   1.152 -0.3348  0.7748  0.7775
 1469WAT      O 4617   4.216   0.214   4.173 -0.6266  0.4026  0.0342
 1469WAT     H1 4618   4.142   0.263   4.136  0.5322  3.0971  1.0134
 1469WAT     H2 4619   4.236   0.261   4.254  2.2851 -0.0874 -0.3130
 1470WAT      O 4620   2.099   3.035   3.991  0.1442  0.1218 -0.2273
 1470WAT     H1 4621   2.110   3.130   3.995  1.1990 -0.0239  0.9718
 1470WAT     H2 4622   2.010   3.023   3.957  0.3453  1.5101 -1.3188
 1471WAT      O 4623   0.787   2.698   4.951  0.3269  0.6084  0.4074
 1471WAT     H1 4624   0.703   2.657   4.927  0.3853 -0.3593  1.6890
 1471WAT     H2 4625   0.832   2.712   4.868 -0.6909  0.1956 -0.2346
 1472WAT      O 4626   2.378   0.788   2.404 -0.1229 -0.3238 -0.4164
 1472WAT     H1 4627   2.449   0.829   2.356  0.1166  1.5166  1.3785
 1472WAT     H2 4628   2.312   0.857   2.413 -1.4683 -1.5182 -0.6507
 1473WAT      O 4629   0.771   2.896   5.128 -0.1522  0.1238 -0.7614
 1473WAT     H1 4630   0.862   2.921   5.110 -0.4085  0.7694 -1.2084
 1473WAT     H2 4631   0.757   2.818   5.074  1.3401 -2.5103  2.3237
 1474WAT      O 4632   0.158   4.604   4.577  0.0848  0.3137 -0.2836
 1474WAT     H1 4633   0.187   4.663   4.507  0.1374 -0.1990 -0.6974
 1474WAT     H2 4634   0.066   4.627   4.591 -0.2101 -0.2515 -1.2195
 1475WAT      O 4635   3.897   4.414   1.681 -0.2020 -0.2728 -0.2643
 1475WAT     H1 4636   3.918   4.363   1.758 -1.3739 -2.3028 -1.2190
 1475WAT     H2 4637   3.906   4.353   1.608 -0.5779  1.1741 -1.5758
 1476WAT      O 4638   3.685   2.617   1.066 -0.9193 -0.1138 -0.0414
 1476WAT     H1 4639   3.771   2.599   1.104 -0.9134 -0.9454 -0.4262
 1476WAT     H2 4640   3.628   2.628   1.141 -0.9439 -1.9135  0.2453
 1477WAT      O 4641   3.477   3.944   4.693 -0.2816  0.5828 -0.2837
 1477WAT     H1 4642   3.391   3.905   4.675  0.1746 -1.4637  1.4780
 1477WAT     H2 4643   3.456   4.029   4.732 -1.4117  1.0799 -1.8766
 1478WAT      O 4644   2.060   0.202   1.902  0.1414 -0.0265  0.0863
 1478WAT     H1 4645   2.017   0.140   1.960  1.3024 -0.8700  0.0937
 1478WAT     H2 4646   2.069   0.282   1.954 -1.5807  0.2565 -0.0008
 1479WAT      O 4647   3.259   5.123   4.148 -0.6223 -0.1661  0.3621
 1479WAT     H1 4648   3.344   5.165   4.155 -2.0879  2.7137  3.9235
 1479WAT     H2 4649   3.271   5.037   4.188  0.2419  0.9791  2.6835
 1480WAT      O 4650   2.360   3.005   4.218  0.2959  0.1322 -0.1472
 1480WAT     H1 4651   2.295   2.992   4.149  0.0203  1.6794 -0.2168
 1480WAT     H2 4652   2.311   2.999   4.300  0.1665  0.6827 -0.1799
 1481WAT      O 4653   2.411   4.462   1.021 -0.3194 -0.7281  0.0142
 1481WAT     H1 4654   2.321   4.430   1.023 -0.1340 -1.2179  0.7888
 1481WAT     H2 4655   2.429   4.490   1.111 -0.3213  1.1653 -0.5211
 1482WAT      O 4656   4.371   2.610   0.993 -0.4908 -1.3261  0.1534
 1482WAT     H1 4657   4.315   2.564   1.055  0.0368 -0.0462  1.6291
 1482WAT     H2 4658   4.364   2.702   1.017  2.5731 -1.1373  0.7204
 1483WAT      O 4659   1.829   1.198   2.643  0.2498  0.1240  0.2280
 1483WAT     H1 4660   1.869   1.183   2.557  0.9887 -0.4498  0.6557
 1483WAT     H2 4661   1.899   1.180   2.705 -0.3032  0.4508  0.9574
 1484WAT      O 4662   0.259   4.838   0.844  0.2177 -0.2378 -0.4618
 1484WAT     H1 4663   0.284   4.746   0.840  1.1949  0.0023 -0.1817
 1484WAT     H2 4664   0.342   4.885   0.851 -0.2207  0.7182 -1.3925
 1485WAT      O 4665   0.574   4.618   0.538  0.1324  0.0373 -0.6466
 1485WAT     H1 4666   0.667   4.621   0.558 -0.3308  0.3267  1.8319
 1485WAT     H2 4667   0.570   4.610   0.443  2.6675 -0.7258 -0.7621
 1486WAT      O 4668   2.917   1.126   1.191  0.3156  0.2928  0.1882
 1486WAT     H1 4669   2.830   1.084   1.188  1.2704 -1.7690 -0.7085
 1486WAT     H2 4670   2.915   1.179   1.271 -1.4045 -0.5774  0.7877
 1487WAT      O 4671   2.012   1.914   0.134  0.4410  0.0132 -0.5822
 1487WAT     H1 4672   1.956   1.932   0.058 -0.9159  1.0488  0.6178
 1487WAT     H2 4673   2.096   1.953   0.111  0.2756 -0.3238 -1.8398
 1488WAT      O 4674   4.151   4.271   0.072 -0.0972  0.5768  0.9434
 1488WAT     H1 4675   4.138   4.201   0.008 -2.0044  0.9304  0.8853
 1488WAT     H2 4676   4.158   4.226   0.156 -1.2642  0.2915  0.8994
 1489WAT      O 4677   2.725   1.920   3.629  0.3611 -0.2773 -0.4160
 1489WAT     H1 4678   2.694   1.964   3.550 -1.7175 -2.9054 -1.1959
 1489WAT     H2 4679   2.816   1.898   3.610 -0.1235 -0.9102 -2.1491
 1490WAT      O 4680   3.455   5.125   0.914 -0.0576 -0.4512  0.5078
 1490WAT     H1 4681   3.483   5.036   0.934 -0.7144 -0.4859  1.3207
 1490WAT     H2 4682   3.532   5.166   0.874  0.4685 -1.1635  0.7694
 1491WAT      O 4683   0.305   4.314   4.973  0.4538 -0.0628 -0.1419
 1491WAT     H1 4684   0.377   4.274   4.924 -0.9776 -1.5736 -1.1197
 1491WAT     H2 4685   0.227   4.292   4.922 -0.7780  0.9540  1.2422
 1492WAT      O 4686   1.568   1.390   1.965  0.1682 -0.2601  0.4445
 1492WAT     H1 4687   1.611   1.464   1.922  0.5215  0.4029  1.8731
 1492WAT     H2 4688   1.550   1.422   2.053  0.4364 -1.9341  1.1313
 1493WAT      O 4689   0.381   2.786   1.098  0.0792 -0.4176 -0.3908
 1493WAT     H1 4690   0.440   2.776   1.024 -0.7365 -1.9675 -0.8715
 1493WAT     H2 4691   0.296   2.756   1.065 -0.4701 -0.4084  0.9505
 1494WAT      O 4692   2.917   3.671   4.340 -0.4630 -0.5778 -0.1922
 1494WAT     H1 4693   2.928   3.618   4.420  0.8197 -0.4276 -0.2455
 1494WAT     H2 4694   2.894   3.607   4.273 -0.5737 -0.8380  0.0890
 1495WAT      O 4695   1.110   5.096   0.611  0.6036  0.3215 -0.4703
 1495WAT     H1 4696   1.146   5.127   0.694 -1.3772  1.6934 -0.0535
 1495WAT     H2 4697   1.163   5.140   0.544  0.5982  1.2236  0.1017
 1496WAT      O 4698   3.099   0.332   0.721 -0.1553 -0.7707 -0.0112
 1496WAT     H1 4699   3.147   0.280   0.786  0.0555  0.5436  0.9014
 1496WAT     H2 4700   3.007   0.316   0.741 -0.0956 -0.9358  0.1389
 1497WAT      O 4701   0.548   0.684   3.390  0.4141  0.4561  0.0650
 1497WAT     H1 4702   0.560   0.590   3.400 -1.4098  0.2105  0.2838
 1497WAT     H2 4703   0.541   0.716   3.480  0.1602  0.6677 -0.0292
 1498WAT      O 4704   4.404   0.847   1.686 -0.4089  0.1250 -0.2562
 1498WAT     H1 4705   4.499   0.840   1.680 -0.5403 -1.8365 -0.8515
 1498WAT     H2 4706   4.387   0.876   1.776  0.7212 -1.9722  0.7191
 1499WAT      O 4707   3.628   3.340   0.532 -0.4748 -0.0807 -0.2139
 1499WAT     H1 4708   3.687   3.333   0.457  0.1446 -0.7020  0.3219
 1499WAT     H2 4709   3.544   3.364   0.494 -0.3266 -1.0344 -1.1760
 1500WAT      O 4710   3.415   4.980   1.270 -0.2361  0.1083  0.3452
 1500WAT     H1 4711   3.319   4.986   1.272 -0.1452  2.4058  1.7914
 1500WAT     H2 4712   3.436   4.963   1.178 -2.0109  1.1764 -0.3159
 1501WAT      O 4713   0.439   4.914   0.506  0.5323 -0.5874 -0.3432
 1501WAT     H1 4714   0.483   4.864   0.575  0.8775 -0.2116 -0.2901
 1501WAT     H2 4715   0.488   4.996   0.501  0.3180 -0.4874 -0.8236
 1502WAT      O 4716   1.029   0.016   1.231 -0.0723  0.1668  0.1618
 1502WAT     H1 4717   0.996   0.101   1.259  1.3201  0.9415 -0.4664
 1502WAT     H2 4718   1.008   0.011   1.138 -1.2398 -0.7396  0.4408
 1503WAT      O 4719   1.896   2.204   3.362  0.2835  0.3407  0.0514
 1503WAT     H1 4720   1.836   2.257   3.310  0.4525 -0.2818 -0.8067
 1503WAT     H2 4721   1.940   2.149   3.297 -0.0111 -0.9658  0.9382
 1504WAT      O 4722   1.444   0.198   3.215 -0.5153 -0.1871  0.5034
 1504WAT     H1 4723   1.506   0.266   3.190  0.3001 -1.0719  0.0594
 1504WAT     H2 4724   1.376   0.201   3.147 -1.4377  1.3324  1.4339
 1505WAT      O 4725   1.485   4.300   0.451 -0.3043 -0.4208  0.5066
 1505WAT     H1 4726   1.532   4.383   0.464  1.0791 -0.6224 -2.4809
 1505WAT     H2 4727   1.398   4.327   0.420 -0.5161 -0.1027  1.3422
 1506WAT      O 4728   0.916   3.819   0.365  0.3126  0.1797 -0.1061
 1506WAT     H1 4729   0.906   3.747   0.428 -1.7467 -2.8816 -3.5118
 1506WAT     H2 4730   0.834   3.869   0.373 -0.9614 -1.5260 -1.6528
 1507WAT      O 4731   3.881   0.118   3.892  0.0483  0.6418  0.4055
 1507WAT     H1 4732   3.788   0.130   3.871 -0.9873  1.5224  4.6796
 1507WAT     H2 4733   3.882   0.054   3.963  2.8867 -0.0923 -0.1619
 1508WAT      O 4734   1.765   4.670   2.924  0.6029 -0.6224  0.0698
 1508WAT     H1 4735   1.822   4.605   2.884  0.0588 -1.6205  0.8886
 1508WAT     H2 4736   1.764   4.742   2.861  1.4279 -1.2873 -0.7268
 1509WAT      O 4737   0.985   1.701   1.760 -0.3665  0.3308 -0.6376
 1509WAT     H1 4738   0.943   1.651   1.690  0.1394 -0.1286 -0.6181
 1509WAT     H2 4739   0.977   1.793   1.732 -0.9583  0.2186 -0.8565
 1510WAT      O 4740   1.075   1.701   0.548 -0.1269  0.3835 -0.2759
 1510WAT     H1 4741   1.075   1.622   0.602 -1.9541 -1.4619 -2.7596
 1510WAT     H2 4742   1.168   1.726   0.544  0.5554 -1.7883  0.3596
 1511WAT      O 4743   1.689   0.422   0.525  0.3352  0.0839 -0.2373
 1511WAT     H1 4744   1.777   0.410   0.489  0.6389 -1.9065  1.0396
 1511WAT     H2 4745   1.653   0.334   0.531 -0.7702  0.5965  1.5915
 1512WAT      O 4746   2.423   4.530   1.287 -0.0623  0.0944  0.4329
 1512WAT     H1 4747   2.447   4.450   1.334 -0.0268  0.3673  0.8887
 1512WAT     H2 4748   2.342   4.558   1.330  1.0902  1.5191  1.7910
 1513WAT      O 4749   3.975   0.717   1.648 -0.1468 -0.0758  0.6855
 1513WAT     H1 4750   4.063   0.732   1.614 -0.3520  2.1148  0.9455
 1513WAT     H2 4751   3.955   0.627   1.624  2.0846 -0.5764  0.4673
 1514WAT      O 4752   1.359   1.767   0.691  0.1930  0.7496  0.4774
 1514WAT     H1 4753   1.357   1.824   0.614  1.4005  1.6796  1.0997
 1514WAT     H2 4754   1.444   1.722   0.685 -0.1778  0.0035  0.6970
 1515WAT      O 4755   2.668   1.362   2.267  0.3348 -0.2762  0.2229
 1515WAT     H1 4756   2.662   1.453   2.236 -2.8682  0.3805  2.2676
 1515WAT     H2 4757   2.584   1.324   2.243  1.4635 -2.6501 -0.2074
 1516WAT      O 4758   0.757   2.749   2.061 -0.5362 -0.1938  0.1193
 1516WAT     H1 4759   0.700   2.764   2.136 -0.5451 -0.4978  0.1758
 1516WAT     H2 4760   0.837   2.797   2.082 -0.9534  0.6432 -0.1885
 1517WAT      O 4761   0.366   4.763   1.176  0.6417 -0.2201  0.2708
 1517WAT     H1 4762   0.386   4.851   1.210 -0.0838  0.0219  0.1061
 1517WAT     H2 4763   0.278   4.745   1.209  0.5603 -0.6503 -0.1699
 1518WAT      O 4764   4.475   0.934   2.580  0.9223  0.0982  0.1322
 1518WAT     H1 4765   4.518   0.859   2.621  2.0548 -0.1255 -1.3702
 1518WAT     H2 4766   4.428   0.896   2.505 -0.3212  0.6182  0.6218
 1519WAT      O 4767   1.861   4.913   3.798 -0.3938  0.0378  0.4874
 1519WAT     H1 4768   1.935   4.881   3.850 -1.3120  0.5105  2.1696
 1519WAT     H2 4769   1.804   4.836   3.790 -1.0033  0.3408  1.6178
 1520WAT      O 4770   0.841   4.076   2.348 -0.1506  0.0611  1.0958
 1520WAT     H1 4771   0.820   4.011   2.415 -0.2363 -1.2974 -0.1866
 1520WAT     H2 4772   0.869   4.024   2.273  1.5660  1.5799  0.6036
 1521WAT      O 4773   1.979   3.406   4.833 -0.5276  0.1503 -0.4076
 1521WAT     H1 4774   1.991   3.427   4.926 -0.6612  0.6025 -0.4928
 1521WAT     H2 4775   2.068   3.405   4.797 -0.5259  0.6822 -0.4260
 1522WAT      O 4776   3.267   2.166   0.229 -0.4183  0.1635 -0.4203
 1522WAT     H1 4777   3.343   2.112   0.206  0.6039  1.8226 -1.1917
 1522WAT     H2 4778   3.225   2.120   0.301  0.4136 -1.6190 -1.0247
 1523WAT      O 4779   2.186   3.112   5.152  0.2687 -0.1454  0.1885
 1523WAT     H1 4780   2.123   3.141   5.086 -0.7943  0.2238  1.3505
 1523WAT     H2 4781   2.152   3.144   5.235  1.5713 -0.6327  0.9511
 1524WAT      O 4782   0.971   1.112   0.920  0.0315  0.1464  0.6105
 1524WAT     H1 4783   1.035   1.138   0.854  0.6134  0.0073  1.1081
 1524WAT     H2 4784   0.986   1.018   0.932  1.6251  0.5944  2.6875
 1525WAT      O 4785   1.097   4.289   0.352 -0.2719 -0.0507 -0.3326
 1525WAT     H1 4786   1.025   4.335   0.309 -1.0276 -0.8845  0.0091
 1525WAT     H2 4787   1.172   4.303   0.294 -0.6231  1.1081 -0.5202
 1526WAT      O 4788   1.106   3.292   0.321 -0.5305  0.0950 -0.6267
 1526WAT     H1 4789   1.092   3.376   0.364 -0.7175 -0.2414 -0.0310
 1526WAT     H2 4790   1.111   3.229   0.392  4.0825  0.1110 -0.6115
 1527WAT      O 4791   4.126   1.816   4.512 -0.0797 -0.9005 -0.3195
 1527WAT     H1 4792   4.102   1.765   4.589 -0.6559  1.4087  1.1485
 1527WAT     H2 4793   4.216   1.844   4.529 -0.5418  0.4443  0.0647
 1528WAT      O 4794   4.158   2.099   2.933 -0.0110 -1.0298 -0.2464
 1528WAT     H1 4795   4.252   2.082   2.932 -0.0390 -1.1917 -0.2259
 1528WAT     H2 4796   4.124   2.039   3.000 -0.4453 -2.6645 -1.8386
 1529WAT      O 4797   2.887   2.022   2.556  0.5901  0.5339  0.4709
 1529WAT     H1 4798   2.906   1.941   2.603  0.8808  1.4962  2.1127
 1529WAT     H2 4799   2.972   2.053   2.526  0.3829 -0.1775 -0.9168
 1530WAT      O 4800   0.867   5.119   1.869  0.5697 -0.3350  0.2405
 1530WAT     H1 4801   0.827   5.038   1.838  0.0058 -0.6681  1.7469
 1530WAT     H2 4802   0.894   5.100   1.959  1.5116  0.7875  0.2234
 1531WAT      O 4803   3.927   1.329   4.125 -0.1920  0.2007  0.1718
 1531WAT     H1 4804   3.950   1.263   4.190  1.3200  1.4276  0.9262
 1531WAT     H2 4805   3.834   1.312   4.105 -0.3501 -0.9311  1.7642
 1532WAT      O 4806   3.256   1.233   0.122  0.3220  0.1105  0.3434
 1532WAT     H1 4807   3.231   1.234   0.029 -1.3765 -0.3949  0.7552
 1532WAT     H2 4808   3.344   1.271   0.124  0.5451 -0.2311 -1.5105
 1533WAT      O 4809   4.414   4.722   0.330 -0.1214 -0.0177  0.2699
 1533WAT     H1 4810   4.473   4.658   0.290 -0.3695  1.3551 -2.4908
 1533WAT     H2 4811   4.432   4.715   0.424  1.2047 -2.7559 -0.0850
 1534WAT      O 4812   3.267   5.044   4.536 -0.2689 -0.5520 -0.0798
 1534WAT     H1 4813   3.221   5.097   4.601 -2.5894 -0.8218 -1.3721
 1534WAT     H2 4814   3.213   5.051   4.457  0.9130 -2.5036 -1.1512
 1535WAT      O 4815   3.809   4.664   2.770  0.1319 -0.4840  0.0168
 1535WAT     H1 4816   3.808   4.754   2.738  0.3699 -0.7593 -0.8040
 1535WAT     H2 4817   3.896   4.654   2.810  0.1602 -0.3958 -0.0221
 1536WAT      O 4818   0.186   3.523   4.542  0.5521 -0.1899 -0.5732
 1536WAT     H1 4819   0.275   3.558   4.532 -0.1464  1.9220  0.1846
 1536WAT     H2 4820   0.148   3.572   4.614 -1.2660 -1.0498 -0.8768
 1537WAT      O 4821   0.395   0.642   5.160  0.2765  0.7485  0.0823
 1537WAT     H1 4822   0.394   0.632   5.065 -0.9022  1.6659 -0.0193
 1537WAT     H2 4823   0.315   0.598   5.189 -0.5911  2.4491  0.4029
 1538WAT      O 4824   2.368   2.641   1.774  0.1439 -0.1656 -0.4164
 1538WAT     H1 4825   2.427   2.566   1.766  0.1158 -0.2645  0.2305
 1538WAT     H2 4826   2.380   2.690   1.692 -0.0431 -1.0154 -0.9700
 1539WAT      O 4827   1.078   4.395   2.731 -0.4337 -0.1040 -0.5633
 1539WAT     H1 4828   1.036   4.358   2.654  0.5782  0.5033 -1.4452
 1539WAT     H2 4829   1.142   4.457   2.696  2.4823 -2.1997  0.5484
 1540WAT      O 4830   2.456   3.928   4.868 -0.3433 -0.0869  0.3589
 1540WAT     H1 4831   2.482   3.983   4.794  2.4249 -2.0121 -0.2715
 1540WAT     H2 4832   2.485   3.978   4.945  3.4291 -0.9866 -0.2443
 1541WAT      O 4833   2.611   3.320   4.968 -0.2477  0.3027  0.4301
 1541WAT     H1 4834   2.638   3.258   4.900  0.5381 -0.0983  1.0863
 1541WAT     H2 4835   2.525   3.289   4.996 -0.5952  0.4887 -0.3840
 1542WAT      O 4836   0.019   3.157   0.062  0.4145  0.4773 -0.0310
 1542WAT     H1 4837  -0.015   3.112  -0.016  0.8343 -0.5154  0.3445
 1542WAT     H2 4838   0.110   3.128   0.068  0.6843  1.3465  0.2576
 1543WAT      O 4839   1.997   3.885   3.369  0.3682 -0.1973 -0.0947
 1543WAT     H1 4840   1.983   3.858   3.460 -0.4505  0.6981  0.0509
 1543WAT     H2 4841   2.016   3.803   3.323 -0.1430 -0.7796  0.7042
 1544WAT      O 4842   1.235   5.133   5.254 -0.1447 -0.1687  0.0908
 1544WAT     H1 4843   1.212   5.160   5.165  1.4511  0.1732 -0.2532
 1544WAT     H2 4844   1.297   5.062   5.243  0.2083 -0.0093  0.9214
 1545WAT      O 4845   3.525   0.962   3.697  0.4544  0.6478 -0.5065
 1545WAT     H1 4846   3.466   0.905   3.647  1.2297 -0.2942 -0.3774
 1545WAT     H2 4847   3.591   0.991   3.633 -0.1415  1.7203 -0.6582
 1546WAT      O 4848   0.060   4.207   2.915 -0.3346 -0.4005  0.0691
 1546WAT     H1 4849   0.089   4.298   2.926  0.3904 -0.6079 -0.0829
 1546WAT     H2 4850  -0.001   4.210   2.841 -1.8402  0.2735  1.2586
 1547WAT      O 4851   2.246   1.218   2.448 -0.1633  0.9329 -0.0594
 1547WAT     H1 4852   2.285   1.216   2.535  2.3271  0.9940 -1.0796
 1547WAT     H2 4853   2.211   1.306   2.439 -1.0271  0.7207  1.0944
 1548WAT      O 4854   4.124   4.260   4.934  0.2621 -0.3525  0.0330
 1548WAT     H1 4855   4.120   4.194   5.003 -1.1932 -0.3051  0.0199
 1548WAT     H2 4856   4.065   4.330   4.964  1.5682  0.8521 -0.0664
 1549WAT      O 4857   1.907   3.003   0.187 -0.5544  0.0409 -0.0762
 1549WAT     H1 4858   1.959   3.076   0.155 -0.2769 -0.0325  0.2044
 1549WAT     H2 4859   1.854   2.977   0.112 -1.2871  1.0771  0.0590
 1550WAT      O 4860   1.719   0.638   1.857  0.3825  0.4930 -0.2918
 1550WAT     H1 4861   1.652   0.651   1.791 -1.0961 -0.4224  0.9605
 1550WAT     H2 4862   1.758   0.725   1.869 -1.8943  1.5012  0.3123
 1551WAT      O 4863   2.720   4.214   3.797 -0.1910  0.0311 -0.8790
 1551WAT     H1 4864   2.668   4.163   3.858  0.1381  0.6560 -0.0466
 1551WAT     H2 4865   2.656   4.258   3.741 -0.5129 -0.1037 -0.6151
 1552WAT      O 4866   3.081   0.961   1.076  0.1923  0.4771 -0.0556
 1552WAT     H1 4867   3.032   0.936   0.997  0.4399 -0.4079  0.0531
 1552WAT     H2 4868   3.026   1.026   1.119 -0.6116 -0.0510 -0.2521
 1553WAT      O 4869   3.220   3.039   1.735  0.9432  0.3975  0.2023
 1553WAT     H1 4870   3.161   3.037   1.660  0.3078 -0.4303  0.7107
 1553WAT     H2 4871   3.168   3.077   1.806  0.2034 -2.4451  1.2928
 1554WAT      O 4872   3.219   0.895   2.080  0.1746  0.1836 -0.1442
 1554WAT     H1 4873   3.179   0.809   2.094  1.3200 -0.5805 -1.3703
 1554WAT     H2 4874   3.280   0.904   2.153 -0.2359  0.1460  0.2100
 1555WAT      O 4875   1.296   3.230   4.789  0.1791  0.5638  0.3639
 1555WAT     H1 4876   1.240   3.305   4.807 -0.8782 -0.2995  0.7330
 1555WAT     H2 4877   1.283   3.213   4.695 -0.3626  0.2283  0.4954
 1556WAT      O 4878   3.537   3.214   2.673  0.1312  0.3645  0.1346
 1556WAT     H1 4879   3.587   3.140   2.638  0.1181  0.9494 -1.1997
 1556WAT     H2 4880   3.487   3.177   2.745  0.0596 -0.9540 -0.5619
 1557WAT      O 4881   1.225   2.080   2.637 -0.7065 -0.3014  0.2922
 1557WAT     H1 4882   1.309   2.105   2.675 -0.9559  0.8160  0.1355
 1557WAT     H2 4883   1.192   2.013   2.696 -0.6348  0.7152  1.5367
 1558WAT      O 4884   0.565   2.310   0.454 -0.2390 -0.5006  0.1399
 1558WAT     H1 4885   0.562   2.370   0.379 -0.7555  0.4400  0.9047
 1558WAT     H2 4886   0.614   2.357   0.521  0.6884 -1.5529  0.2358
 1559WAT      O 4887   1.591   1.701   1.979  0.6413 -0.4213  0.2879
 1559WAT     H1 4888   1.531   1.728   1.909 -1.7521 -0.5897  2.1367
 1559WAT     H2 4889   1.661   1.767   1.977 -0.3355  0.6359 -1.0624
 1560WAT      O 4890   2.470   3.054   2.126  0.4999 -0.2304 -0.1116
 1560WAT     H1 4891   2.494   3.046   2.034  0.1697 -1.0393 -0.1375
 1560WAT     H2 4892   2.553   3.072   2.171  0.7413 -0.3610 -0.4999
 1561WAT      O 4893   2.852   1.392   2.893  0.5917 -0.2329  0.5154
 1561WAT     H1 4894   2.921   1.457   2.910  0.2034  0.7716 -1.5032
 1561WAT     H2 4895   2.896   1.308   2.901  2.2004  0.3953 -1.1485
 1562WAT      O 4896   2.951   1.924   0.294 -0.5398 -0.6354  0.1683
 1562WAT     H1 4897   3.039   1.931   0.332 -0.2918  1.0682 -0.6123
 1562WAT     H2 4898   2.935   2.010   0.255 -2.1595 -1.2388 -0.5898
 1563WAT      O 4899   1.287   1.912   0.481 -0.0022 -0.5336 -0.3128
 1563WAT     H1 4900   1.367   1.958   0.455 -0.5288 -0.3296 -1.6714
 1563WAT     H2 4901   1.219   1.952   0.427 -1.0321 -0.6773  0.8497
 1564WAT      O 4902   2.665   4.684   3.507  0.2826 -0.2064  0.0198
 1564WAT     H1 4903   2.650   4.777   3.489 -0.2734 -0.3446 -0.2522
 1564WAT     H2 4904   2.676   4.645   3.420 -2.0910 -0.8245 -0.0609
 1565WAT      O 4905   4.370   4.436   4.146 -0.1860  0.0503 -0.1274
 1565WAT     H1 4906   4.328   4.504   4.200  1.2696  2.3962 -1.7400
 1565WAT     H2 4907   4.379   4.361   4.204 -1.3299  1.4323  1.9665
 1566WAT      O 4908   3.357   0.400   4.685 -0.1245  0.3016 -0.0414
 1566WAT     H1 4909   3.294   0.432   4.750 -0.5849  2.5964 -1.5061
 1566WAT     H2 4910   3.443   0.420   4.723 -0.3488  0.5696  0.3310
 1567WAT      O 4911   2.506   4.443   3.212  0.2748  0.1228  0.2730
 1567WAT     H1 4912   2.598   4.439   3.188  0.3888 -0.1046  0.7504
 1567WAT     H2 4913   2.466   4.496   3.143  0.6183 -0.4333 -0.3664
 1568WAT      O 4914   2.427   2.829   1.234  0.0683 -0.3444 -0.4418
 1568WAT     H1 4915   2.481   2.793   1.305 -1.1940  0.0878  0.7748
 1568WAT     H2 4916   2.362   2.761   1.217 -0.5528  0.1641 -0.1298
 1569WAT      O 4917   3.185   0.814   4.031 -0.2032  0.1161 -0.1821
 1569WAT     H1 4918   3.244   0.866   4.086 -2.1888  1.4435  0.8211
 1569WAT     H2 4919   3.194   0.852   3.944 -0.3100  0.9843  0.1724
 1570WAT      O 4920   3.664   2.419   0.842 -0.2634  0.9157 -0.2554
 1570WAT     H1 4921   3.569   2.423   0.836 -0.1919  2.7893 -0.7585
 1570WAT     H2 4922   3.684   2.462   0.925  0.0853 -1.7859  1.2004
 1571WAT      O 4923   2.401   0.646   1.554 -0.2031  0.0762  0.0126
 1571WAT     H1 4924   2.446   0.573   1.513 -0.1321 -0.1646  0.5131
 1571WAT     H2 4925   2.471   0.699   1.592 -0.3592 -0.7257  1.4989
 1572WAT      O 4926   1.849   3.046   1.129 -0.0647  0.3636 -0.1960
 1572WAT     H1 4927   1.777   2.993   1.164 -0.7218  0.6244 -1.1150
 1572WAT     H2 4928   1.815   3.081   1.047  1.6790 -0.8353 -1.5056
 1573WAT      O 4929   0.382   3.697   4.829  0.4283 -0.2346  0.1055
 1573WAT     H1 4930   0.365   3.786   4.859 -3.3026 -0.1749 -1.6034
 1573WAT     H2 4931   0.402   3.707   4.736  3.0177 -1.0409  0.5126
 1574WAT      O 4932   4.020   1.141   1.593 -0.1265  0.3384  0.1643
 1574WAT     H1 4933   4.013   1.226   1.636 -0.0694 -0.4423  1.7564
 1574WAT     H2 4934   4.114   1.132   1.573 -0.1093  0.5594  0.1426
 1575WAT      O 4935   0.333   2.598   5.145  0.0534  0.0858 -0.0363
 1575WAT     H1 4936   0.264   2.618   5.081 -0.5990 -1.2821  0.2008
 1575WAT     H2 4937   0.360   2.509   5.123  0.8005  0.1088  0.7443
 1576WAT      O 4938   2.047   4.913   0.803 -0.1378  0.2927  0.5439
 1576WAT     H1 4939   2.042   4.999   0.845  0.6951  0.3920  0.4467
 1576WAT     H2 4940   2.125   4.918   0.748 -0.1584 -0.4846  0.4379
 1577WAT      O 4941   2.057   1.443   2.770 -0.1772 -0.2879  0.5225
 1577WAT     H1 4942   2.148   1.463   2.750  0.0892 -0.1465  1.8401
 1577WAT     H2 4943   2.058   1.352   2.799 -0.6957 -0.7744 -0.8571
 1578WAT      O 4944   0.143   1.144   3.068 -0.0928 -0.4867  0.5079
 1578WAT     H1 4945   0.238   1.154   3.073 -0.0034 -1.5093  1.0974
 1578WAT     H2 4946   0.128   1.103   2.983 -0.0509 -0.0188  0.2668
 1579WAT      O 4947   2.582   2.527   3.465  0.2128 -0.2189  0.1177
 1579WAT     H1 4948   2.531   2.558   3.540  0.7302  2.2681 -0.4687
 1579WAT     H2 4949   2.543   2.443   3.443 -1.0526 -0.2206  2.1121
 1580WAT      O 4950   1.650   4.501   0.467  0.1166 -0.0364 -0.0929
 1580WAT     H1 4951   1.712   4.525   0.536 -2.1783  1.5384  1.5685
 1580WAT     H2 4952   1.598   4.580   0.453 -0.2234 -0.6424 -2.9294
 1581WAT      O 4953   2.080   2.964   1.973 -0.3139 -0.4449 -0.3829
 1581WAT     H1 4954   2.106   3.055   1.985 -1.2111 -0.2322 -0.0210
 1581WAT     H2 4955   2.110   2.920   2.052 -1.1430 -0.1763  0.0865
 1582WAT      O 4956   1.063   3.282   1.594  0.1829  0.1329  0.2495
 1582WAT     H1 4957   1.087   3.245   1.678  1.5066 -1.6913 -0.8675
 1582WAT     H2 4958   1.014   3.213   1.550  0.7688  0.5121 -1.0442
 1583WAT      O 4959   0.880   0.956   0.054 -0.8461 -0.2967  0.0152
 1583WAT     H1 4960   0.821   0.987  -0.014  0.1475  0.0700 -0.6932
 1583WAT     H2 4961   0.911   0.872   0.022  0.8537  0.5931 -0.7632
 1584WAT      O 4962   1.005   4.980   1.434  0.1244  0.1436  0.3223
 1584WAT     H1 4963   1.029   5.058   1.385  0.2384  0.2503  0.5440
 1584WAT     H2 4964   0.973   4.919   1.368  0.9433  0.0230  0.0218
 1585WAT      O 4965   2.822   1.216   1.604  0.5519 -0.2167  0.7752
 1585WAT     H1 4966   2.838   1.139   1.659  0.5704 -1.4462 -0.8844
 1585WAT     H2 4967   2.738   1.198   1.562  0.8775  0.3705 -0.1504
 1586WAT      O 4968   1.908   4.177   0.959  0.4406  0.0311 -0.5490
 1586WAT     H1 4969   1.870   4.241   1.020  1.5704  1.4456 -1.2654
 1586WAT     H2 4970   1.834   4.124   0.930 -0.4351  0.6211  0.5194
 1587WAT      O 4971   4.472   3.818   5.028 -0.2161 -0.0565 -0.1033
 1587WAT     H1 4972   4.550   3.868   5.052 -0.1431 -0.4993  0.6247
 1587WAT     H2 4973   4.429   3.871   4.962  0.2854  0.5770  0.0655
 1588WAT      O 4974   3.844   2.568   3.878 -0.3353  0.0106  0.3419
 1588WAT     H1 4975   3.874   2.630   3.811 -0.5466  0.0202  0.2549
 1588WAT     H2 4976   3.788   2.620   3.935 -0.0989  0.0176  0.5685
 1589WAT      O 4977   4.163   0.251   4.603 -0.4482  0.0667  0.7233
 1589WAT     H1 4978   4.126   0.234   4.690 -0.3059 -0.4192  0.6929
 1589WAT     H2 4979   4.254   0.222   4.610  0.2795  2.2429  1.1126
 1590WAT      O 4980   3.795   0.241   2.594  0.5524  0.3927 -1.2879
 1590WAT     H1 4981   3.837   0.190   2.525  0.0376 -2.1528  0.1504
 1590WAT     H2 4982   3.701   0.222   2.583  0.6255 -3.4103  2.3330
 1591WAT      O 4983   4.002   3.580   3.229  0.2356  0.1753  0.1412
 1591WAT     H1 4984   3.997   3.529   3.149 -0.1895 -0.1938  0.4003
 1591WAT     H2 4985   3.911   3.607   3.247  0.6148  2.2999 -0.8055
 1592WAT      O 4986   2.563   3.066   2.806  0.6760 -0.1749 -0.0115
 1592WAT     H1 4987   2.507   3.136   2.840  0.3111  0.2657 -1.4345
 1592WAT     H2 4988   2.573   3.087   2.713  1.0692 -1.6751 -0.3354
 1593WAT      O 4989   3.865   1.466   0.609 -0.0404 -0.7526 -0.5355
 1593WAT     H1 4990   3.827   1.543   0.568 -0.4442 -0.5309  0.2392
 1593WAT     H2 4991   3.933   1.501   0.667 -0.0181 -0.9980 -0.4124
 1594WAT      O 4992   0.318   0.310   3.528  0.2012  0.2706 -0.1910
 1594WAT     H1 4993   0.393   0.352   3.486 -1.2579  2.0324 -1.2261
 1594WAT     H2 4994   0.251   0.379   3.532 -1.5101 -1.3239  0.2877
 1595WAT      O 4995   4.514   1.543   2.935 -0.0420 -0.2000  0.6464
 1595WAT     H1 4996   4.457   1.617   2.916 -0.1368 -0.2296  0.8072
 1595WAT     H2 4997   4.550   1.518   2.850  2.1706  1.7532  0.9235
 1596WAT      O 4998   1.038   3.415   2.859 -0.1140  0.0654 -0.0122
 1596WAT     H1 4999   1.013   3.445   2.946  1.5588  1.3516  0.0724
 1596WAT     H2 5000   1.128   3.385   2.868  0.3458  0.9065 -1.4348
 1597WAT      O 5001   1.407   0.060   1.817  0.0133  0.0202 -0.4776
 1597WAT     H1 5002   1.380   0.128   1.880 -0.9712  1.2524 -2.1542
 1597WAT     H2 5003   1.374  -0.022   1.855 -1.1355  0.8080  0.2967
 1598WAT      O 5004   3.456   1.547   3.695  0.3912 -0.2296 -0.3217
 1598WAT     H1 5005   3.514   1.510   3.629  0.6576  0.2709 -0.3707
 1598WAT     H2 5006   3.470   1.642   3.690  1.2986 -0.2510  1.2554
 1599WAT      O 5007   3.592   2.635   0.168  0.4044  0.1641  0.3572
 1599WAT     H1 5008   3.655   2.569   0.196  1.2070  0.6747 -0.2216
 1599WAT     H2 5009   3.616   2.656   0.078 -1.0100 -0.1112 -0.1210
 1600WAT      O 5010   4.374   0.577   0.571  0.1142 -0.7773  0.4895
 1600WAT     H1 5011   4.370   0.482   0.562 -1.5617 -0.6585 -0.3932
 1600WAT     H2 5012   4.288   0.608   0.542 -0.1496  0.8685  2.7468
 1601WAT      O 5013   0.469   3.257   1.459 -0.3488  0.2754 -0.2558
 1601WAT     H1 5014   0.541   3.206   1.497 -1.1442  0.7040  1.9707
 1601WAT     H2 5015   0.508   3.343   1.443 -0.6586  1.0393  2.5065
 1602WAT      O 5016   0.755   5.004   0.418 -0.2112  0.6267  0.5494
 1602WAT     H1 5017   0.786   5.007   0.508  0.0067 -1.1516  0.5789
 1602WAT     H2 5018   0.826   4.960   0.370 -1.4467 -0.9486  0.0755
 1603WAT      O 5019   3.136   1.215   2.233 -0.1864 -0.2822 -0.2219
 1603WAT     H1 5020   3.156   1.189   2.323  0.7452 -0.0725 -0.3594
 1603WAT     H2 5021   3.213   1.264   2.204  0.2236 -1.6865 -1.6716
 1604WAT      O 5022   1.693   2.246   3.138 -0.3436 -0.1734  0.8722
 1604WAT     H1 5023   1.647   2.330   3.135  1.2146  0.6867 -0.8634
 1604WAT     H2 5024   1.634   2.188   3.186 -3.1200  0.9044 -1.0114
 1605WAT      O 5025   0.701   0.314   0.379  0.2877 -0.2758  0.1568
 1605WAT     H1 5026   0.789   0.277   0.375  0.8424  1.0275 -0.1740
 1605WAT     H2 5027   0.690   0.358   0.295 -0.0759  0.8940  0.7964
 1606WAT      O 5028   2.231   4.062   3.441  0.4858 -0.4220 -0.8059
 1606WAT     H1 5029   2.183   4.074   3.523  1.5517 -1.9337  0.0954
 1606WAT     H2 5030   2.172   4.012   3.385  0.1984 -0.4115 -0.5140
 1607WAT      O 5031   2.936   0.302   4.030  0.1385  0.5295  0.0641
 1607WAT     H1 5032   2.958   0.239   4.098  0.1956  1.2231  0.6961
 1607WAT     H2 5033   2.852   0.271   3.995  0.6886 -0.5080 -0.3996
 1608WAT      O 5034   0.920   2.793   3.432 -0.2541 -0.1116  0.0515
 1608WAT     H1 5035   0.889   2.712   3.392 -1.3008 -0.2838  1.1361
 1608WAT     H2 5036   0.844   2.825   3.481  0.9176  0.1445  1.7738
 1609WAT      O 5037   1.486   2.986   1.829  0.0704  0.6378 -0.1574
 1609WAT     H1 5038   1.423   2.980   1.757 -0.2245 -0.4168  0.1702
 1609WAT     H2 5039   1.532   2.902   1.828  1.6224  1.4527 -0.4977
 1610WAT      O 5040   3.244   3.815   4.872  0.2812  0.4968 -0.1521
 1610WAT     H1 5041   3.172   3.792   4.814 -0.5585  0.4375  0.8802
 1610WAT     H2 5042   3.282   3.731   4.898  1.8394  0.5583 -1.9936
 1611WAT      O 5043   3.975   3.266   1.975  0.3833 -0.0043 -0.0071
 1611WAT     H1 5044   3.974   3.351   2.019 -1.8338 -0.8284  1.7516
 1611WAT     H2 5045   4.023   3.209   2.035  1.2367 -0.2021 -0.8440
 1612WAT      O 5046   3.798   3.327   3.181 -0.5280 -0.1545 -0.5035
 1612WAT     H1 5047   3.720   3.316   3.127 -0.2706 -0.0440 -0.9000
 1612WAT     H2 5048   3.770   3.300   3.269 -0.9246 -0.4051 -0.7044
 1613WAT      O 5049   2.243   2.063   3.917  0.2659  0.1068 -0.8613
 1613WAT     H1 5050   2.218   2.097   4.003  1.4105 -0.1342 -0.4208
 1613WAT     H2 5051   2.180   1.993   3.900  0.0381  0.1458 -0.2140
 1614WAT      O 5052   1.532   0.612   4.349  0.6426 -0.0454  0.5125
 1614WAT     H1 5053   1.527   0.565   4.266  0.7425 -1.5737  1.3416
 1614WAT     H2 5054   1.545   0.703   4.324  0.2588 -0.4168 -1.1520
 1615WAT      O 5055   0.993   1.517   0.128  0.3225 -0.2831  0.1910
 1615WAT     H1 5056   1.042   1.481   0.054 -0.0060  1.2883 -0.8521
 1615WAT     H2 5057   1.056   1.523   0.199  1.3422  0.5060 -0.7405
 1616WAT      O 5058   1.509   5.058   1.100  0.2666  0.4775  0.2643
 1616WAT     H1 5059   1.458   5.128   1.058  0.8467 -0.8450 -2.9676
 1616WAT     H2 5060   1.470   5.049   1.187 -3.9900  0.6298 -1.3709
 1617WAT      O 5061   2.490   4.092   2.986  0.3148 -0.0856  0.1619
 1617WAT     H1 5062   2.426   4.112   3.055  0.0438 -0.6511  0.0758
 1617WAT     H2 5063   2.523   4.005   3.009  1.3148  0.3339  0.4014
 1618WAT      O 5064   3.568   4.073   1.809  0.1029 -0.6125 -0.2182
 1618WAT     H1 5065   3.563   3.984   1.776  1.1517 -0.4024 -0.9764
 1618WAT     H2 5066   3.538   4.067   1.900  0.3911 -1.7641 -0.1893
 1619WAT      O 5067   3.932   4.520   2.497  0.0112 -0.1392 -0.4969
 1619WAT     H1 5068   3.863   4.581   2.471  1.0611  2.0517  1.4769
 1619WAT     H2 5069   4.007   4.544   2.442  0.6550  0.9817  0.7881
 1620WAT      O 5070   0.374   2.153   2.222 -0.0440 -0.1754 -0.2523
 1620WAT     H1 5071   0.403   2.195   2.141 -1.1846 -0.5754 -0.8936
 1620WAT     H2 5072   0.437   2.083   2.237  0.8011  0.5875 -0.1885
 1621WAT      O 5073   2.115   3.667   4.718 -0.9830  0.4562  0.0409
 1621WAT     H1 5074   2.112   3.573   4.697 -0.5646  0.5178 -0.2942
 1621WAT     H2 5075   2.190   3.675   4.777 -1.1855  0.5388  0.2886
 1622WAT      O 5076   2.827   1.835   0.553 -0.5458 -0.1049  0.4230
 1622WAT     H1 5077   2.845   1.858   0.461 -0.8646  0.7108  0.5518
 1622WAT     H2 5078   2.796   1.917   0.592 -0.1016 -0.3687  1.3466
 1623WAT      O 5079   3.595   1.463   3.365 -0.0170  0.1864  0.2043
 1623WAT     H1 5080   3.678   1.500   3.394  1.4660 -1.8735 -1.1771
 1623WAT     H2 5081   3.578   1.391   3.425 -1.0740  0.8462  0.7341
 1624WAT      O 5082   2.759   0.200   2.694  0.2927 -0.5500  0.3757
 1624WAT     H1 5083   2.707   0.120   2.684  2.5145 -2.2146  1.3522
 1624WAT     H2 5084   2.781   0.204   2.787  0.2095  1.2525  0.3618
 1625WAT      O 5085   2.479   2.658   4.068  0.5413  0.0096  0.4324
 1625WAT     H1 5086   2.410   2.718   4.042  2.0518  0.8505 -1.9051
 1625WAT     H2 5087   2.537   2.709   4.124  0.4515 -0.0233  0.5541
 1626WAT      O 5088   2.221   3.955   4.741  0.6710 -0.1325 -0.3412
 1626WAT     H1 5089   2.300   3.919   4.781 -0.0160 -2.2809 -0.7901
 1626WAT     H2 5090   2.156   3.885   4.748 -1.0233  1.3415 -0.5556
 1627WAT      O 5091   0.700   0.869   4.558  0.4162 -0.2686  0.0059
 1627WAT     H1 5092   0.652   0.870   4.641  0.2553  1.6020 -0.0682
 1627WAT     H2 5093   0.634   0.888   4.492  0.7302 -0.7345 -0.4493
 1628WAT      O 5094   2.486   4.545   4.277  0.1009 -0.8154  0.2707
 1628WAT     H1 5095   2.560   4.575   4.224 -0.8665 -2.3250 -2.1529
 1628WAT     H2 5096   2.432   4.623   4.288  0.4839 -0.3750 -0.7913
 1629WAT      O 5097   3.120   1.425   4.905 -0.4064  0.0231 -0.1659
 1629WAT     H1 5098   3.109   1.341   4.860  1.5925  0.3163 -1.3432
 1629WAT     H2 5099   3.058   1.484   4.862 -0.9687 -0.5440 -0.1471
 1630WAT      O 5100   2.275   2.456   4.939  0.8853 -0.5672 -0.4076
 1630WAT     H1 5101   2.276   2.539   4.988  2.0055 -0.6594 -0.2570
 1630WAT     H2 5102   2.207   2.469   4.873 -0.1865 -0.1919  0.7187
 1631WAT      O 5103   3.366   0.084   0.317 -0.4138 -0.5280  0.5326
 1631WAT     H1 5104   3.377  -0.011   0.306 -1.2486 -0.5477 -0.3528
 1631WAT     H2 5105   3.293   0.092   0.378 -1.3964 -0.4893 -0.6093
 1632WAT      O 5106   3.600   2.281   3.538 -0.1852 -0.2831  0.3476
 1632WAT     H1 5107   3.598   2.376   3.533  0.7825 -0.2504  0.3496
 1632WAT     H2 5108   3.529   2.258   3.599 -0.6191  0.4050  0.1075
 1633WAT      O 5109   3.210   4.044   5.027  0.4842  0.4981 -0.0018
 1633WAT     H1 5110   3.218   3.960   4.982  0.7616  0.6263 -0.1926
 1633WAT     H2 5111   3.217   4.022   5.120 -0.6765  0.1596  0.0200
 1634WAT      O 5112   2.221   3.419   4.681 -0.7263  0.0400 -0.2962
 1634WAT     H1 5113   2.270   3.372   4.750 -1.2294 -0.3963 -0.2323
 1634WAT     H2 5114   2.241   3.371   4.601 -1.2549 -0.3040 -0.2282
 1635WAT      O 5115   3.752   0.707   3.852  0.3798  0.1097 -0.3573
 1635WAT     H1 5116   3.747   0.800   3.873  1.7741 -0.0540  0.8682
 1635WAT     H2 5117   3.661   0.678   3.849 -0.0385  0.9430  2.0598
 1636WAT      O 5118   1.881   3.046   3.128 -0.5100  0.0910 -0.2974
 1636WAT     H1 5119   1.836   3.112   3.075  2.4597  0.9076 -2.0599
 1636WAT     H2 5120   1.957   3.092   3.164  1.2745 -2.1419 -0.9943
 1637WAT      O 5121   3.992   0.647   1.932 -0.0826  0.4194 -0.1983
 1637WAT     H1 5122   4.081   0.620   1.909 -0.0428  0.0122  0.4079
 1637WAT     H2 5123   3.950   0.667   1.848 -0.4022 -2.4190 -0.7982
 1638WAT      O 5124   1.223   4.813   1.535  0.5145  0.3844  0.1233
 1638WAT     H1 5125   1.286   4.842   1.469  0.1676  0.3018 -0.2485
 1638WAT     H2 5126   1.141   4.857   1.510  0.1144 -0.4811 -0.1275
 1639WAT      O 5127   3.937   0.051   1.174 -0.2541  0.1397 -0.5098
 1639WAT     H1 5128   4.007  -0.015   1.175  1.0252  1.2977  2.9017
 1639WAT     H2 5129   3.863   0.007   1.216 -0.0628  0.2474 -0.0526
 1640WAT      O 5130   2.212   1.196   5.006  0.1699  0.1692 -0.5284
 1640WAT     H1 5131   2.260   1.229   5.082 -0.3916  0.9990 -0.5195
 1640WAT     H2 5132   2.176   1.274   4.964  0.9145 -0.2089 -1.9756
 1641WAT      O 5133   0.554   1.593   5.210 -0.3543 -0.3874  0.0481
 1641WAT     H1 5134   0.598   1.544   5.280  1.2884 -0.2195 -0.8051
 1641WAT     H2 5135   0.480   1.538   5.185  0.0702 -1.2950  0.7276
 1642WAT      O 5136   4.019   1.660   2.286 -0.1883 -0.3940 -0.4024
 1642WAT     H1 5137   4.052   1.599   2.220 -1.4388 -0.0661 -1.3515
 1642WAT     H2 5138   3.982   1.605   2.355  1.4314 -0.7453  0.2334
 1643WAT      O 5139   3.435   2.213   3.760  0.3811  0.0437  0.0098
 1643WAT     H1 5140   3.371   2.144   3.743  0.5265  0.0643 -0.6862
 1643WAT     H2 5141   3.382   2.291   3.776  0.2187 -0.1909  0.6525
 1644WAT      O 5142   2.458   0.392   2.546 -0.1456 -0.5086 -0.3517
 1644WAT     H1 5143   2.377   0.377   2.497  0.1015  0.3432 -1.0588
 1644WAT     H2 5144   2.527   0.362   2.487  0.1207 -0.0458 -0.2785
 1645WAT      O 5145   1.054   1.241   2.411 -0.4516  0.7205  0.1512
 1645WAT     H1 5146   1.086   1.330   2.414 -0.7921  0.8571 -0.1064
 1645WAT     H2 5147   0.958   1.250   2.412 -0.4865  0.3329  0.8128
 1646WAT      O 5148   2.552   2.783   3.331  0.1014 -0.2614  0.1525
 1646WAT     H1 5149   2.457   2.793   3.318  0.1849  0.3793 -0.0390
 1646WAT     H2 5150   2.564   2.692   3.357 -0.4790 -0.6057 -0.7191
 1647WAT      O 5151   4.148   3.930   3.361 -0.2973  0.1076 -0.2074
 1647WAT     H1 5152   4.067   3.891   3.394 -0.4051  1.6524  1.5532
 1647WAT     H2 5153   4.212   3.915   3.431  0.9327 -0.9122 -1.4839
 1648WAT      O 5154   3.662   1.025   0.827 -0.2106  0.4050  0.2114
 1648WAT     H1 5155   3.576   0.986   0.842 -0.8748  1.6942 -0.0687
 1648WAT     H2 5156   3.718   0.952   0.803 -0.9043 -0.6429  1.6431
 1649WAT      O 5157   2.605   1.539   2.511 -0.2184  0.2578  0.7412
 1649WAT     H1 5158   2.640   1.541   2.422 -0.6590  2.4775  0.5533
 1649WAT     H2 5159   2.514   1.511   2.499  0.1329 -0.9057  0.6884
 1650WAT      O 5160   1.228   0.186   2.948 -0.5996  0.3767  0.4617
 1650WAT     H1 5161   1.288   0.116   2.923  1.2923  2.1082 -0.0801
 1650WAT     H2 5162   1.177   0.202   2.868 -0.0449  0.5840  0.1476
 1651WAT      O 5163   1.715   2.997   4.786  0.1673  0.0088  0.3232
 1651WAT     H1 5164   1.803   2.974   4.756 -0.4492  0.5816 -2.1347
 1651WAT     H2 5165   1.708   3.091   4.773 -0.9635 -0.0954  0.0284
 1652WAT      O 5166   4.346   3.698   1.353 -0.0588  0.1818  0.0787
 1652WAT     H1 5167   4.366   3.658   1.437  0.8437  1.6260  0.5930
 1652WAT     H2 5168   4.426   3.745   1.329 -0.0638 -0.7538 -1.9324
 1653WAT      O 5169   3.185   3.205   0.552 -0.2623 -0.6381  0.0205
 1653WAT     H1 5170   3.223   3.282   0.511 -0.4322 -0.9960 -0.8207
 1653WAT     H2 5171   3.201   3.217   0.646  1.2209 -0.4051 -0.2503
 1654WAT      O 5172   1.718   3.774   2.434  0.0084  0.3713 -0.1696
 1654WAT     H1 5173   1.750   3.857   2.398  0.6980  0.7445  1.2188
 1654WAT     H2 5174   1.657   3.741   2.368 -0.6975  2.2387 -0.5169
 1655WAT      O 5175   1.784   1.678   2.543  0.5740  0.5500  0.2252
 1655WAT     H1 5176   1.771   1.603   2.485 -1.1732  1.3754 -0.5113
 1655WAT     H2 5177   1.879   1.685   2.552  0.7938 -1.3578 -0.1675
 1656WAT      O 5178   4.004   3.675   2.763 -0.6723 -0.3310  0.1454
 1656WAT     H1 5179   4.093   3.646   2.786  0.2405  2.9007  1.1941
 1656WAT     H2 5180   4.014   3.714   2.676 -1.2896 -0.7982 -0.1390
 1657WAT      O 5181   2.491   2.843   2.941 -0.4600 -0.4446  0.1406
 1657WAT     H1 5182   2.522   2.892   2.865  0.2665 -1.9521 -0.5698
 1657WAT     H2 5183   2.449   2.909   2.996 -0.4340  0.7873 -1.2550
 1658WAT      O 5184   0.754   2.115   0.047 -0.0805 -0.1898 -0.2963
 1658WAT     H1 5185   0.766   2.021   0.053 -1.4629 -0.3432  0.4834
 1658WAT     H2 5186   0.840   2.152   0.068  0.8285 -1.2573 -1.8647
 1659WAT      O 5187   3.116   3.619   3.109  0.4065  0.6450 -0.0265
 1659WAT     H1 5188   3.072   3.581   3.185  0.4377  1.1228  0.2355
 1659WAT     H2 5189   3.150   3.544   3.061 -0.1708  0.3066  0.0925
 1660WAT      O 5190   3.644   4.129   1.278 -0.4215 -0.4351  0.4946
 1660WAT     H1 5191   3.668   4.038   1.295 -0.6132 -0.6550 -0.3576
 1660WAT     H2 5192   3.592   4.125   1.198 -0.3847  0.4289  0.4224
 1661WAT      O 5193   4.041   3.435   0.450 -0.0857 -0.1246  0.1529
 1661WAT     H1 5194   3.960   3.440   0.501 -0.1143  1.2297  0.0021
 1661WAT     H2 5195   4.011   3.434   0.359  0.0700  2.3793  0.0064
 1662WAT      O 5196   1.785   0.219   2.667 -0.0356 -0.1138  0.1260
 1662WAT     H1 5197   1.818   0.191   2.753  0.0845 -0.5317 -0.0518
 1662WAT     H2 5198   1.793   0.141   2.612  0.4895  0.3365 -0.4396
 1663WAT      O 5199   2.581   3.843   4.173 -0.5083 -0.0874  0.1794
 1663WAT     H1 5200   2.600   3.847   4.079  0.4734  0.9068  0.3906
 1663WAT     H2 5201   2.634   3.913   4.210  1.1210 -2.0798  1.8154
 1664WAT      O 5202   0.276   0.437   1.270 -0.3327  0.2164 -0.1998
 1664WAT     H1 5203   0.356   0.418   1.222 -0.4091 -0.8557  0.0680
 1664WAT     H2 5204   0.236   0.510   1.222  0.9905  1.0352 -0.0960
 1665WAT      O 5205   1.659   1.836   0.889 -0.0583  0.4878  0.1903
 1665WAT     H1 5206   1.654   1.781   0.811 -1.3483  0.7099  0.1040
 1665WAT     H2 5207   1.606   1.913   0.868  0.8118  1.2584  0.7280
 1666WAT      O 5208   3.894   3.881   3.369 -0.6019  0.2037 -0.2113
 1666WAT     H1 5209   3.838   3.954   3.343 -2.3109 -0.8299  0.3958
 1666WAT     H2 5210   3.868   3.810   3.311  1.5140  0.1922 -1.2568
 1667WAT      O 5211   0.801   0.124   4.997 -0.2754 -0.1665  0.2959
 1667WAT     H1 5212   0.741   0.068   5.047  0.0437 -0.1914  0.6633
 1667WAT     H2 5213   0.771   0.213   5.015 -2.0829 -0.2467 -1.9535
 1668WAT      O 5214   2.136   0.194   1.356 -0.1832 -0.1396  0.0144
 1668WAT     H1 5215   2.079   0.263   1.322  0.7282  0.9340  0.6110
 1668WAT     H2 5216   2.214   0.197   1.299 -0.1336 -0.6772  0.0490
 1669WAT      O 5217   3.283   0.183   2.297 -0.2912  0.0248 -0.1768
 1669WAT     H1 5218   3.259   0.151   2.210  0.0952 -0.9168  0.0582
 1669WAT     H2 5219   3.307   0.105   2.346 -1.6375  0.3913  1.1466
 1670WAT      O 5220   2.307   1.181   2.709 -0.2716 -0.2183 -0.1037
 1670WAT     H1 5221   2.327   1.274   2.713 -1.2245 -0.0040 -0.0823
 1670WAT     H2 5222   2.390   1.137   2.727  0.4098  0.6173 -1.1391
 1671WAT      O 5223   2.018   5.036   4.042 -0.0947 -0.0411 -0.4170
 1671WAT     H1 5224   1.981   5.118   4.076  2.1311  0.1785  1.7844
 1671WAT     H2 5225   2.067   5.063   3.964 -1.7838  0.1764 -1.4521
 1672WAT      O 5226   1.661   4.785   2.511 -0.5084  0.0191 -0.3828
 1672WAT     H1 5227   1.636   4.707   2.462 -0.0113  0.5770 -1.5540
 1672WAT     H2 5228   1.699   4.844   2.446  1.2494  0.3346  0.8304
 1673WAT      O 5229   4.152   3.246   4.732 -0.5899  0.3116 -0.3146
 1673WAT     H1 5230   4.198   3.316   4.779  0.0493  0.8913 -1.7418
 1673WAT     H2 5231   4.203   3.234   4.652 -0.5499 -1.9836  0.0002
 1674WAT      O 5232   3.116   2.856   4.709  0.3716 -0.0745 -0.7828
 1674WAT     H1 5233   3.150   2.855   4.798  0.2084 -0.9503 -0.7207
 1674WAT     H2 5234   3.070   2.940   4.701  0.2850 -0.0467 -0.0094
 1675WAT      O 5235   2.490   3.994   2.371  0.1151  0.7784  0.1901
 1675WAT     H1 5236   2.510   3.917   2.317  0.6146  1.8010 -1.1161
 1675WAT     H2 5237   2.478   3.958   2.459  0.1342 -0.8241 -0.4236
 1676WAT      O 5238   0.038   1.192   4.203 -0.6703  0.3729  0.3240
 1676WAT     H1 5239   0.064   1.232   4.285  1.6241 -0.8932  0.2850
 1676WAT     H2 5240   0.059   1.099   4.213 -0.9487  0.0707 -1.4568
 1677WAT      O 5241   0.493   2.691   0.107  0.3160 -0.3494  0.0715
 1677WAT     H1 5242   0.445   2.675   0.025  0.4785  0.4611 -0.1922
 1677WAT     H2 5243   0.541   2.772   0.091  0.5822 -0.3406  0.8730
 1678WAT      O 5244   2.762   4.667   3.245  0.3033  0.0936  0.3527
 1678WAT     H1 5245   2.855   4.666   3.267  0.9401  1.9902 -1.8055
 1678WAT     H2 5246   2.750   4.595   3.184  0.7343  0.7482 -0.5262
 1679WAT      O 5247   3.591   0.581   0.901  0.8320  0.3877 -0.2466
 1679WAT     H1 5248   3.613   0.510   0.961 -0.8731  0.3592  0.3956
 1679WAT     H2 5249   3.609   0.661   0.951  0.6242  0.3714 -0.1417
 1680WAT      O 5250   3.541   4.422   0.882 -0.3029 -0.4799 -0.1721
 1680WAT     H1 5251   3.478   4.411   0.954  0.2912  0.2095  0.4607
 1680WAT     H2 5252   3.529   4.343   0.829 -0.7179 -1.0337  0.7090
 1681WAT      O 5253   3.318   3.954   4.454 -0.2885  0.3181  0.3819
 1681WAT     H1 5254   3.243   3.905   4.488  1.6223 -2.1486  1.3331
 1681WAT     H2 5255   3.324   3.928   4.362 -0.0554 -0.2337  0.5501
 1682WAT      O 5256   1.874   2.793   3.266 -0.0670 -0.1602  0.0445
 1682WAT     H1 5257   1.882   2.871   3.212 -0.2295  0.5947  1.0848
 1682WAT     H2 5258   1.922   2.814   3.346 -0.4550 -0.9740  0.5038
 1683WAT      O 5259   2.300   4.140   3.800 -0.6717 -0.3037  0.0256
 1683WAT     H1 5260   2.328   4.055   3.834  1.0268 -0.4312 -1.5512
 1683WAT     H2 5261   2.221   4.120   3.750  0.6012 -1.3103 -1.7008
 1684WAT      O 5262   2.672   4.785   1.012 -0.9386 -0.3776 -0.3454
 1684WAT     H1 5263   2.753   4.771   0.964  0.5489  3.6440  0.5585
 1684WAT     H2 5264   2.682   4.732   1.092  1.5151  0.9921  0.3656
 1685WAT      O 5265   3.113   4.587   3.521 -0.2152 -0.4767  0.1841
 1685WAT     H1 5266   3.148   4.554   3.604  0.4590  1.5133  0.7549
 1685WAT     H2 5267   3.021   4.558   3.521  0.0935 -1.5202  1.0523
 1686WAT      O 5268   2.700   1.721   3.803  0.2884  0.2059  0.0166
 1686WAT     H1 5269   2.703   1.790   3.736  1.5557 -1.6915 -2.0217
 1686WAT     H2 5270   2.790   1.718   3.838  0.3585 -0.6630 -0.2157
 1687WAT      O 5271   0.872   0.649   2.917 -0.0108  0.1769 -0.4877
 1687WAT     H1 5272   0.929   0.722   2.939  0.6901 -0.5795  0.2601
 1687WAT     H2 5273   0.857   0.603   3.000 -0.7405 -0.3228 -0.8740
 1688WAT      O 5274   2.744   3.603   3.866 -0.2307 -0.4644  0.0281
 1688WAT     H1 5275   2.783   3.690   3.858 -0.7086 -0.0949  1.4123
 1688WAT     H2 5276   2.763   3.576   3.956 -2.3833 -0.6012  0.5197
 1689WAT      O 5277   4.427   1.783   3.907 -0.6218  0.0604 -0.2151
 1689WAT     H1 5278   4.387   1.710   3.956 -1.5632 -0.0329 -1.0943
 1689WAT     H2 5279   4.521   1.773   3.922 -0.8071 -0.7009  0.5459
 1690WAT      O 5280   4.363   2.188   0.155 -0.2204 -0.2477 -0.2367
 1690WAT     H1 5281   4.430   2.120   0.148 -1.6714 -1.8762  1.0016
 1690WAT     H2 5282   4.295   2.161   0.093  0.5066  1.8305 -2.1086
 1691WAT      O 5283   3.645   1.905   5.230 -0.2462  0.1065  0.6213
 1691WAT     H1 5284   3.680   1.817   5.216  2.2856  1.1364  0.0281
 1691WAT     H2 5285   3.688   1.936   5.309 -0.8549  0.9703  0.6305
 1692WAT      O 5286   3.024   0.714   3.404  0.3096  0.2256 -0.0890
 1692WAT     H1 5287   2.972   0.718   3.484  0.9374  0.6542  0.3114
 1692WAT     H2 5288   3.010   0.799   3.362  0.3660  0.1895 -0.1808
 1693WAT      O 5289   4.440   3.984   4.308 -0.4743  0.5861  0.6037
 1693WAT     H1 5290   4.429   3.953   4.398  0.3577  1.8623  1.1839
 1693WAT     H2 5291   4.373   4.051   4.297 -2.2018 -1.2444 -0.6073
 1694WAT      O 5292   0.147   1.281   4.444  0.3952 -0.1362 -0.1743
 1694WAT     H1 5293   0.080   1.263   4.510 -2.6921  1.4462 -2.5827
 1694WAT     H2 5294   0.173   1.371   4.460  0.2194 -0.0046 -0.6066
 1695WAT      O 5295   2.198   1.340   1.644  0.2270  0.8329 -0.0076
 1695WAT     H1 5296   2.281   1.318   1.688 -0.3735 -2.2160 -0.1859
 1695WAT     H2 5297   2.222   1.345   1.551  0.1104 -1.1759 -0.1971
 1696WAT      O 5298   2.472   0.022   0.859  0.9197 -0.9709 -0.0426
 1696WAT     H1 5299   2.505   0.112   0.864 -0.1100 -0.4908 -1.3019
 1696WAT     H2 5300   2.412   0.014   0.933  0.7092 -0.4871 -0.1571
 1697WAT      O 5301   3.954   3.510   3.636 -0.1439 -0.2856 -0.5191
 1697WAT     H1 5302   3.949   3.464   3.719 -1.4555 -2.4704 -1.7149
 1697WAT     H2 5303   3.925   3.599   3.656 -2.4903 -1.3024  1.0253
 1698WAT      O 5304   0.823   2.365   4.221  0.6648 -0.4185 -0.5360
 1698WAT     H1 5305   0.735   2.328   4.212  0.4115  0.3708 -1.4156
 1698WAT     H2 5306   0.879   2.289   4.236 -0.1056 -0.9654 -0.3344
 1699WAT      O 5307   2.414   4.821   0.970  0.4952  0.0221  0.5423
 1699WAT     H1 5308   2.508   4.811   0.988  0.8694  1.7670 -0.1444
 1699WAT     H2 5309   2.410   4.837   0.875 -0.6239 -1.1080  0.3721
 1700WAT      O 5310   1.009   3.867   4.055  0.2918 -0.1442 -0.2349
 1700WAT     H1 5311   0.970   3.865   4.142 -0.0634 -2.4056 -0.4009
 1700WAT     H2 5312   0.937   3.845   3.996  0.2976  2.2513 -1.2775
 1701WAT      O 5313   2.698   2.074   4.032  0.4099 -0.9475  0.5324
 1701WAT     H1 5314   2.624   2.023   3.999 -0.4470  1.1419 -0.9905
 1701WAT     H2 5315   2.754   2.086   3.956  0.0538  1.2003  0.5347
 1702WAT      O 5316   0.938   4.976   3.054 -0.1309 -0.1372  0.1393
 1702WAT     H1 5317   0.938   4.939   2.966 -2.6928  0.3848 -0.1553
 1702WAT     H2 5318   0.936   4.900   3.112  0.4524 -0.4681 -0.2596
 1703WAT      O 5319   1.029   1.902   2.538  0.3044  0.2460  0.1087
 1703WAT     H1 5320   1.030   1.908   2.634 -2.9282  1.6908  0.1875
 1703WAT     H2 5321   1.081   1.978   2.509  1.9009 -0.5955  0.6387
 1704WAT      O 5322   2.953   0.167   1.858 -0.1977 -0.1269  0.1463
 1704WAT     H1 5323   2.989   0.236   1.802 -1.3433  0.9972  0.7371
 1704WAT     H2 5324   2.892   0.120   1.801  2.2303 -2.2045 -0.9344
 1705WAT      O 5325   1.901   3.174   4.569  0.0495 -0.7109  0.1546
 1705WAT     H1 5326   1.979   3.123   4.590 -1.1358 -2.9505 -0.4918
 1705WAT     H2 5327   1.934   3.253   4.526  1.9453 -1.8769 -0.6564
 1706WAT      O 5328   2.872   0.916   3.214  0.3122 -0.5623 -0.1912
 1706WAT     H1 5329   2.962   0.927   3.183  0.0480 -0.1644 -0.8505
 1706WAT     H2 5330   2.850   1.000   3.254  0.3072 -0.7324  0.1630
 1707WAT      O 5331   1.144   1.910   2.816 -0.5057 -0.0598  0.0794
 1707WAT     H1 5332   1.145   1.909   2.911 -3.3599  0.3431  0.1998
 1707WAT     H2 5333   1.198   1.836   2.790  0.2421 -0.2313  2.0029
 1708WAT      O 5334   0.345   4.332   0.777 -0.0401  0.5343 -0.4210
 1708WAT     H1 5335   0.286   4.275   0.727 -0.3303  0.8756 -0.4678
 1708WAT     H2 5336   0.431   4.292   0.767  0.0800  1.1332 -2.0265
 1709WAT      O 5337   0.152   0.645   3.855  0.5459  0.4379  0.0884
 1709WAT     H1 5338   0.214   0.592   3.804 -0.1323 -0.4869  0.1966
 1709WAT     H2 5339   0.073   0.649   3.801  0.6753  1.5956 -0.0419
 1710WAT      O 5340   1.234   0.697   0.709 -0.0764  0.0191  0.6906
 1710WAT     H1 5341   1.261   0.779   0.750  1.6359  0.4233 -1.1036
 1710WAT     H2 5342   1.185   0.725   0.631  1.0054 -0.6293 -0.2403
 1711WAT      O 5343   2.381   3.754   2.858 -0.1854 -0.2701 -0.1167
 1711WAT     H1 5344   2.344   3.810   2.790 -0.6773 -0.9466 -0.4181
 1711WAT     H2 5345   2.475   3.751   2.838 -0.4115 -0.9889 -1.1737
 1712WAT      O 5346   3.810   2.809   3.685  0.2147 -0.1808 -0.6072
 1712WAT     H1 5347   3.873   2.881   3.679 -0.3705  0.9002  3.4385
 1712WAT     H2 5348   3.725   2.852   3.692 -0.1866 -1.2196  1.4585
 1713WAT      O 5349   2.932   2.478   3.616  0.2043  0.0484  0.3186
 1713WAT     H1 5350   2.870   2.454   3.685 -1.1414 -0.4107 -1.0001
 1713WAT     H2 5351   2.978   2.396   3.595 -0.5574 -0.2049 -0.4355
 1714WAT      O 5352   1.095   3.527   2.346  0.3608 -0.4627 -0.3683
 1714WAT     H1 5353   1.027   3.484   2.397 -0.4918  0.9027 -0.2995
 1714WAT     H2 5354   1.175   3.515   2.398 -0.7378  2.2219  2.2169
 1715WAT      O 5355   4.077   2.569   0.486  0.1346 -0.0066 -0.2918
 1715WAT     H1 5356   4.009   2.542   0.547  0.7089 -0.0540  0.3363
 1715WAT     H2 5357   4.141   2.498   0.488  0.0785 -0.0906 -1.0862
 1716WAT      O 5358   4.388   0.153   4.883 -0.3871 -0.6348  0.2485
 1716WAT     H1 5359   4.398   0.248   4.888  0.8046 -0.5283 -2.3519
 1716WAT     H2 5360   4.322   0.132   4.949 -3.0153  2.3992 -1.1407
 1717WAT      O 5361   1.182   4.806   2.256  0.1757  0.2942 -0.1853
 1717WAT     H1 5362   1.133   4.761   2.187 -1.4779  1.5640  0.0872
 1717WAT     H2 5363   1.245   4.741   2.287 -2.1032 -1.8889  0.1945
 1718WAT      O 5364   2.045   0.240   5.192  0.6346 -0.8787  0.5767
 1718WAT     H1 5365   1.979   0.177   5.163  0.0234 -0.0954  0.2543
 1718WAT     H2 5366   2.036   0.314   5.133  1.3984 -0.5049  0.9077
 1719WAT      O 5367   1.695   4.320   4.048 -0.2604  0.3535  0.5197
 1719WAT     H1 5368   1.717   4.267   4.125  1.5545 -2.7181 -1.8840
 1719WAT     H2 5369   1.605   4.294   4.027 -0.0518 -0.3748  0.4806
 1720WAT      O 5370   3.056   3.126   4.869  0.1513  0.3351 -0.3547
 1720WAT     H1 5371   3.108   3.197   4.906 -1.6742  1.6258 -0.1416
 1720WAT     H2 5372   3.025   3.160   4.785 -2.1019  0.5268  0.4671
 1721WAT      O 5373   3.767   3.347   0.921 -0.2129  0.0416  0.2771
 1721WAT     H1 5374   3.834   3.280   0.935  0.2240 -0.0943 -2.0500
 1721WAT     H2 5375   3.684   3.300   0.930 -0.0002 -0.0273  2.0953
 1722WAT      O 5376   1.375   3.491   5.269 -0.3146 -0.0362  0.6562
 1722WAT     H1 5377   1.450   3.436   5.245 -1.2041 -0.8839 -0.2835
 1722WAT     H2 5378   1.362   3.548   5.193 -0.0199  0.8076  1.2238
 1723WAT      O 5379   4.499   3.587   4.256 -0.2768 -0.1898 -0.5411
 1723WAT     H1 5380   4.424   3.645   4.269 -0.3871 -0.5522  0.5518
 1723WAT     H2 5381   4.576   3.643   4.270 -0.3681 -0.1043 -0.3809
 1724WAT      O 5382   3.021   0.194   1.476 -0.3935 -0.2363  0.3568
 1724WAT     H1 5383   3.032   0.248   1.397 -1.0697 -1.0719 -0.3306
 1724WAT     H2 5384   3.103   0.145   1.483  0.6040  1.4991  1.5098
 1725WAT      O 5385   2.221   4.901   0.609  0.3195 -0.0229 -0.0578
 1725WAT     H1 5386   2.313   4.925   0.613  0.4429 -0.6190  1.8298
 1725WAT     H2 5387   2.208   4.866   0.521  2.0681 -0.5665 -0.1198
 1726WAT      O 5388   3.474   0.428   1.818 -0.5260  0.4536  0.0007
 1726WAT     H1 5389   3.540   0.491   1.849  0.4801 -0.5096 -0.1109
 1726WAT     H2 5390   3.406   0.430   1.885  1.1268 -0.8497  1.8254
 1727WAT      O 5391   2.162   1.876   3.351 -0.7949 -0.3329 -0.2277
 1727WAT     H1 5392   2.164   1.910   3.441 -2.5874  0.5855 -0.4764
 1727WAT     H2 5393   2.211   1.794   3.355  0.1245  0.2502  1.3325
 1728WAT      O 5394   1.490   2.983   2.751 -0.1263  0.6262 -0.1437
 1728WAT     H1 5395   1.488   2.972   2.656 -0.8059  1.7830 -0.2795
 1728WAT     H2 5396   1.398   2.989   2.776  0.0271 -0.2130  0.6664
 1729WAT      O 5397   2.382   4.884   2.271  0.0340  0.3434 -0.6560
 1729WAT     H1 5398   2.455   4.840   2.229 -1.3754 -1.8444 -0.9820
 1729WAT     H2 5399   2.317   4.895   2.202 -0.6892  0.4950  0.0260
 1730WAT      O 5400   1.781   0.985   4.684  0.6769  0.1053 -0.5506
 1730WAT     H1 5401   1.821   0.922   4.623 -0.1953 -0.7089 -0.2976
 1730WAT     H2 5402   1.712   0.935   4.728  1.1181  0.7554  0.9327
 1731WAT      O 5403   0.697   0.668   0.676 -0.2321 -0.3056  0.4385
 1731WAT     H1 5404   0.639   0.643   0.747 -0.1073  0.2070  0.7214
 1731WAT     H2 5405   0.651   0.739   0.630  0.1399  0.0606  0.6277
 1732WAT      O 5406   0.063   3.004   0.530 -0.0949 -0.9849  0.1973
 1732WAT     H1 5407   0.028   2.987   0.442 -2.2235 -2.1958  1.1943
 1732WAT     H2 5408   0.003   2.958   0.589  0.8930  0.3291  2.3573
 1733WAT      O 5409   0.292   4.898   2.129  0.2847  0.3746  0.1469
 1733WAT     H1 5410   0.314   4.986   2.099  0.6945  0.0227 -0.5912
 1733WAT     H2 5411   0.369   4.845   2.109 -0.6111 -0.5412 -1.0729
 1734WAT      O 5412   3.690   1.304   5.128 -0.3038 -0.1860 -0.7745
 1734WAT     H1 5413   3.711   1.358   5.052 -0.1930  0.0418 -0.5866
 1734WAT     H2 5414   3.597   1.285   5.119 -0.7149  1.3111 -0.0763
 1735WAT      O 5415   2.351   0.516   1.804  0.4383 -0.0660  0.0302
 1735WAT     H1 5416   2.259   0.492   1.789  0.0185  1.6664 -0.4414
 1735WAT     H2 5417   2.384   0.539   1.717  0.5147  1.8355  0.5123
 1736WAT      O 5418   3.741   4.993   1.299 -0.8922 -0.4580 -0.0596
 1736WAT     H1 5419   3.733   4.916   1.355 -1.2020  0.4741  1.2416
 1736WAT     H2 5420   3.655   5.036   1.306 -0.2188  0.8369  0.5523
 1737WAT      O 5421   0.284   1.603   0.716  0.1152 -0.2442 -0.5840
 1737WAT     H1 5422   0.351   1.580   0.781  0.4221  1.1542 -0.3808
 1737WAT     H2 5423   0.320   1.571   0.633  2.0621  2.2355 -0.8247
 1738WAT      O 5424   2.855   3.871   1.660  0.0498  0.1955  0.1336
 1738WAT     H1 5425   2.831   3.794   1.608 -0.7181 -0.1862  1.0239
 1738WAT     H2 5426   2.902   3.835   1.735  0.6456  0.6990  0.0115
 1739WAT      O 5427   0.086   4.486   0.813 -0.0263 -0.4841 -0.5806
 1739WAT     H1 5428   0.177   4.463   0.794 -0.4124 -1.2826 -1.6042
 1739WAT     H2 5429   0.076   4.471   0.907  1.5351  1.9952  0.0803
 1740WAT      O 5430   0.347   3.678   1.762 -0.2879 -0.2694 -0.2500
 1740WAT     H1 5431   0.252   3.689   1.768 -0.2034 -0.1050  0.8557
 1740WAT     H2 5432   0.364   3.677   1.668 -1.5229 -1.4531 -0.5026
 1741WAT      O 5433   3.490   2.937   0.098  0.5354  0.0420  0.4322
 1741WAT     H1 5434   3.545   2.903   0.026  1.3837  1.5135  0.3567
 1741WAT     H2 5435   3.524   3.024   0.115 -1.1556  0.6041  1.0929
 1742WAT      O 5436   3.722   3.751   2.094 -0.0990  0.2137 -0.8742
 1742WAT     H1 5437   3.666   3.826   2.115 -1.1981 -0.6798 -0.4741
 1742WAT     H2 5438   3.803   3.767   2.142 -0.9093  0.3994  0.4872
 1743WAT      O 5439   1.310   2.424   3.734  0.3056  0.1678 -0.2333
 1743WAT     H1 5440   1.257   2.354   3.696 -1.8807  0.7123  1.5677
 1743WAT     H2 5441   1.390   2.380   3.763 -0.9325 -1.6206  0.6919
 1744WAT      O 5442   0.371   2.089   4.448  0.2547 -0.1767  0.4174
 1744WAT     H1 5443   0.299   2.138   4.486  0.6300  0.6971  0.0527
 1744WAT     H2 5444   0.331   2.010   4.412 -0.5580  0.4028  0.0177
 1745WAT      O 5445   3.727   0.379   3.006 -0.4799  0.0050 -0.0692
 1745WAT     H1 5446   3.716   0.294   2.962  0.3447 -0.0680 -0.1560
 1745WAT     H2 5447   3.766   0.435   2.939  0.8614 -0.1316  0.5671
 1746WAT      O 5448   3.033   0.220   4.924  0.2775  0.5836 -0.5190
 1746WAT     H1 5449   2.980   0.300   4.919  0.3172  0.6856  0.4763
 1746WAT     H2 5450   3.076   0.225   5.009  0.3298 -0.4781 -0.4699
 1747WAT      O 5451   3.720   2.608   2.802 -0.4496  0.6301  0.3246
 1747WAT     H1 5452   3.800   2.603   2.749  0.0365  0.6403  1.0344
 1747WAT     H2 5453   3.696   2.701   2.800 -1.8266  0.2940 -1.8452
 1748WAT      O 5454   2.586   0.303   0.881  0.4848 -0.1019  0.0613
 1748WAT     H1 5455   2.510   0.353   0.851  0.8857  0.3330 -0.2510
 1748WAT     H2 5456   2.605   0.337   0.968  0.3174 -0.2162  0.1427
 1749WAT      O 5457   2.940   1.833   4.915 -0.5200  0.1493  0.1660
 1749WAT     H1 5458   2.904   1.774   4.980  1.3112  0.0952  1.2060
 1749WAT     H2 5459   2.943   1.919   4.958  0.8000  0.0909  0.2487
 1750WAT      O 5460   3.122   0.953   3.125 -0.6362  0.3259 -0.3889
 1750WAT     H1 5461   3.159   0.888   3.065 -1.7493  0.8905 -1.7327
 1750WAT     H2 5462   3.186   1.025   3.124  0.4074 -0.5262  0.8100
 1751WAT      O 5463   2.305   1.224   0.553  0.0443 -0.2787 -0.0010
 1751WAT     H1 5464   2.394   1.230   0.587  0.9493 -2.1713 -1.8096
 1751WAT     H2 5465   2.301   1.290   0.484  0.0917 -0.2789 -0.0039
 1752WAT      O 5466   1.011   4.422   0.870  0.3856  0.6113 -0.5138
 1752WAT     H1 5467   1.032   4.342   0.918 -0.6778  0.2704 -0.6025
 1752WAT     H2 5468   1.076   4.425   0.800 -0.0084 -0.5551 -0.9416
 1753WAT      O 5469   0.913   3.642   1.676  0.3151 -0.3741 -0.1894
 1753WAT     H1 5470   0.926   3.673   1.587  0.6750 -0.2712 -0.1038
 1753WAT     H2 5471   0.861   3.710   1.718 -0.6195 -0.8404 -0.5680
 1754WAT      O 5472   0.296   3.055   0.081  0.3322 -0.2205 -0.0230
 1754WAT     H1 5473   0.360   3.127   0.083  0.4976 -0.2889 -1.5036
 1754WAT     H2 5474   0.330   2.995   0.015 -1.1611 -0.3479 -0.7089
 1755WAT      O 5475   1.328   2.540   1.584 -0.3698 -0.0999  0.3163
 1755WAT     H1 5476   1.318   2.467   1.524  0.9256  0.1692 -0.2659
 1755WAT     H2 5477   1.284   2.613   1.541 -0.0129 -0.0714 -0.0048
 1756WAT      O 5478   3.596   2.881   2.825 -0.2712 -0.1389  0.1453
 1756WAT     H1 5479   3.668   2.912   2.879  0.6584 -1.4364 -0.3002
 1756WAT     H2 5480   3.616   2.914   2.737 -1.4664  1.4616  0.4335
 1757WAT      O 5481   3.981   2.658   4.321 -0.0562 -0.1577  0.0340
 1757WAT     H1 5482   3.929   2.718   4.267  0.5979  0.2815 -0.1285
 1757WAT     H2 5483   3.922   2.586   4.341 -1.2148  1.0366  1.1223
 1758WAT      O 5484   2.558   4.404   1.783  0.0964 -0.3797 -0.5528
 1758WAT     H1 5485   2.621   4.391   1.853 -0.6247  1.3505  0.4774
 1758WAT     H2 5486   2.606   4.383   1.703  1.2754 -1.2668  0.3627
 1759WAT      O 5487   2.605   0.796   1.634 -0.0650  0.1505 -0.1012
 1759WAT     H1 5488   2.688   0.754   1.612 -0.0419  0.7286 -1.2099
 1759WAT     H2 5489   2.626   0.854   1.707  0.4820  0.2141 -0.3056
 1760WAT      O 5490   2.533   2.112   0.408 -0.2782 -0.0243  0.4327
 1760WAT     H1 5491   2.488   2.175   0.352 -1.5000 -1.3836 -0.1778
 1760WAT     H2 5492   2.551   2.160   0.488 -0.0262  1.4635 -0.4756
 1761WAT      O 5493   2.470   2.553   2.361  0.0444  0.4350  0.2020
 1761WAT     H1 5494   2.452   2.464   2.393  3.1948 -0.6806 -0.8202
 1761WAT     H2 5495   2.443   2.551   2.269  2.7884 -0.5071 -0.6695
 1762WAT      O 5496   2.530   0.767   4.513  0.4944  0.0317 -0.2909
 1762WAT     H1 5497   2.467   0.827   4.553 -0.7098 -0.3770 -1.5267
 1762WAT     H2 5498   2.493   0.680   4.526 -0.7444 -0.0640 -3.4465
 1763WAT      O 5499   1.085   0.267   3.627  0.6014 -0.0650 -0.3151
 1763WAT     H1 5500   1.098   0.226   3.542  1.7806  0.5655 -0.4560
 1763WAT     H2 5501   0.993   0.248   3.649  0.0096  0.4878 -2.1113
 1764WAT      O 5502   1.116   3.928   2.914 -0.4960  0.0428  0.0024
 1764WAT     H1 5503   1.062   3.961   2.842 -1.0973 -0.6341  0.1304
 1764WAT     H2 5504   1.171   3.861   2.874 -0.4907  0.0015  0.0777
 1765WAT      O 5505   0.826   2.264   1.786 -0.2030  0.4704  0.0421
 1765WAT     H1 5506   0.872   2.287   1.867 -1.9518 -0.3327  1.3260
 1765WAT     H2 5507   0.858   2.177   1.765  0.9370  1.0405 -0.6867
 1766WAT      O 5508   0.929   2.771   2.561 -0.3682 -0.5525 -0.6289
 1766WAT     H1 5509   0.963   2.733   2.642  0.9254 -1.4338 -1.5519
 1766WAT     H2 5510   0.838   2.792   2.581 -0.0641 -0.6930  1.0665
 1767WAT      O 5511   1.500   4.261   0.729 -0.3081  0.4195 -0.4138
 1767WAT     H1 5512   1.588   4.270   0.765 -0.5688  2.2233 -0.1068
 1767WAT     H2 5513   1.514   4.235   0.638  0.5194 -0.0149 -0.1697
 1768WAT      O 5514  -0.008  -0.015   1.420  0.2474  0.3636 -0.1877
 1768WAT     H1 5515   0.006   0.079   1.410  0.9333  0.5672  2.1148
 1768WAT     H2 5516   0.069  -0.045   1.468 -0.5139 -1.1542  0.1295
 1769WAT      O 5517   1.372   2.400   2.511  0.1085  0.9334 -0.0861
 1769WAT     H1 5518   1.311   2.463   2.473 -0.7999  0.7138  0.9378
 1769WAT     H2 5519   1.362   2.321   2.457 -1.3168  0.5539  0.6688
 1770WAT      O 5520   2.327   3.812   0.787  0.3244  0.4927  0.3783
 1770WAT     H1 5521   2.252   3.842   0.837  0.7342 -0.7868  1.8401
 1770WAT     H2 5522   2.295   3.804   0.697 -0.8978  1.2571  0.7339
 1771WAT      O 5523   4.172   3.081   0.802  0.0295 -0.2017 -0.2974
 1771WAT     H1 5524   4.104   3.137   0.762 -0.8631 -0.9256  0.1717
 1771WAT     H2 5525   4.134   2.993   0.800  1.1149 -0.6757 -0.3489
 1772WAT      O 5526   4.095   2.221   1.304 -0.6153  0.0217  0.0836
 1772WAT     H1 5527   4.041   2.251   1.377 -0.7030  0.3820 -0.1311
 1772WAT     H2 5528   4.183   2.252   1.324  0.1544 -2.8516  1.8357
 1773WAT      O 5529   0.168   4.361   2.112 -0.5503 -0.9676  0.1277
 1773WAT     H1 5530   0.090   4.307   2.104 -0.4689 -0.8082 -3.1868
 1773WAT     H2 5531   0.164   4.420   2.036  2.2197 -0.1970  0.4702
 1774WAT      O 5532   3.272   3.563   5.021  0.2529  0.1069  0.0677
 1774WAT     H1 5533   3.234   3.479   5.047  0.4363  0.3281  1.0907
 1774WAT     H2 5534   3.366   3.552   5.037  0.3746  0.2547 -0.5208
 1775WAT      O 5535   0.076   0.281   2.348 -0.2270  0.4131 -0.0143
 1775WAT     H1 5536   0.022   0.210   2.313 -0.6554  0.1288  1.1688
 1775WAT     H2 5537   0.146   0.292   2.284  0.2231 -1.5259  0.0837
 1776WAT      O 5538   3.146   3.754   2.143 -0.0777  0.4737  0.6045
 1776WAT     H1 5539   3.180   3.732   2.230  1.8357  0.3649 -0.1198
 1776WAT     H2 5540   3.125   3.669   2.104 -0.6024  0.4981  0.8350
 1777WAT      O 5541   2.885   0.209   2.961 -0.2104 -0.8298  0.5507
 1777WAT     H1 5542   2.918   0.134   3.011 -1.2624 -0.4328  1.9020
 1777WAT     H2 5543   2.844   0.265   3.027 -0.2875  0.4739 -0.5714
 1778WAT      O 5544   2.022   2.385   1.019 -0.4285 -0.4417  0.3387
 1778WAT     H1 5545   2.085   2.317   1.042 -0.2388 -1.6945 -3.1659
 1778WAT     H2 5546   2.075   2.463   1.004  0.0426 -0.8628 -0.2841
 1779WAT      O 5547   2.017   0.413   1.289 -0.0481  0.0343 -0.7879
 1779WAT     H1 5548   2.056   0.432   1.203 -0.7828 -1.0408 -1.3948
 1779WAT     H2 5549   2.056   0.477   1.348  0.1311  1.1138 -2.0153
 1780WAT      O 5550   1.945   0.396   2.448  0.1139  0.2641  0.0491
 1780WAT     H1 5551   1.876   0.461   2.450 -1.4727 -1.2961 -0.9973
 1780WAT     H2 5552   1.911   0.323   2.499  1.2183 -0.3377 -0.0360
 1781WAT      O 5553   4.234   4.600   3.984  0.1919  0.1428 -0.4255
 1781WAT     H1 5554   4.151   4.553   3.990  0.3373 -0.4955 -2.5277
 1781WAT     H2 5555   4.298   4.539   4.022  0.1314 -0.7315 -1.6566
 1782WAT      O 5556   4.229   2.141   1.951 -0.3455 -0.6991  0.1812
 1782WAT     H1 5557   4.214   2.129   1.857 -1.4723 -0.5546  0.3307
 1782WAT     H2 5558   4.314   2.185   1.956  0.0657 -1.3481 -0.7333
 1783WAT      O 5559   0.496   2.613   3.477  0.8754 -0.1510 -0.5153
 1783WAT     H1 5560   0.416   2.582   3.435  1.2081  0.1989 -1.4316
 1783WAT     H2 5561   0.466   2.664   3.553  0.2143  0.2976 -1.0707
 1784WAT      O 5562   3.886   3.192   0.071 -0.0785  0.5051  0.6276
 1784WAT     H1 5563   3.943   3.215  -0.002  0.4429  1.4789  1.3179
 1784WAT     H2 5564   3.941   3.140   0.129 -0.1083  0.8274  0.9441
 1785WAT      O 5565   0.547   2.755   1.740 -0.2754  0.0291 -0.1034
 1785WAT     H1 5566   0.520   2.845   1.758 -0.1795 -0.0143  0.2775
 1785WAT     H2 5567   0.641   2.760   1.725 -0.2996  0.0176 -0.2592
 1786WAT      O 5568   0.715   3.044   2.268 -0.1711 -0.5314  0.5020
 1786WAT     H1 5569   0.770   3.073   2.341 -0.1555 -0.5880  0.5129
 1786WAT     H2 5570   0.725   3.112   2.201 -0.0914 -0.5404  0.5057
 1787WAT      O 5571   3.473   0.758   2.850  0.0185  0.3405 -0.6536
 1787WAT     H1 5572   3.478   0.665   2.829  2.0688  0.2491  0.0294
 1787WAT     H2 5573   3.398   0.765   2.909  0.2078 -1.0092 -0.2152
 1788WAT      O 5574   4.449   0.094   3.675 -0.2071 -0.1737  0.0332
 1788WAT     H1 5575   4.398   0.146   3.737 -1.2959 -0.0258 -0.9405
 1788WAT     H2 5576   4.540   0.106   3.702 -0.5067  1.5146  0.3820
 1789WAT      O 5577   3.014   1.476   3.778  0.0264  0.6551  0.3592
 1789WAT     H1 5578   2.959   1.408   3.740 -0.5257 -0.1971  2.5280
 1789WAT     H2 5579   3.098   1.432   3.794  0.4128  1.1411 -0.2594
 1790WAT      O 5580   2.336   4.783   4.460  0.1992  0.3464  0.4113
 1790WAT     H1 5581   2.279   4.766   4.536  0.5518  0.0839  0.6212
 1790WAT     H2 5582   2.284   4.841   4.404 -0.4805 -0.3047  0.3457
 1791WAT      O 5583   2.322   0.517   4.567 -0.5807 -0.2383  0.3090
 1791WAT     H1 5584   2.287   0.472   4.644 -0.4328  0.4819  0.8062
 1791WAT     H2 5585   2.256   0.502   4.500 -2.6115  2.2412  1.5974
 1792WAT      O 5586   1.607   2.356   2.288  0.2357 -0.0169 -0.5629
 1792WAT     H1 5587   1.687   2.408   2.285  0.3603 -0.1016  0.5870
 1792WAT     H2 5588   1.537   2.417   2.264  0.7717 -0.3372 -3.1855
 1793WAT      O 5589   2.267   2.974   1.741 -0.3033  0.6112  0.0791
 1793WAT     H1 5590   2.207   2.965   1.815  0.5470 -0.1073  0.6880
 1793WAT     H2 5591   2.219   2.937   1.667 -1.3224  1.7112  0.1504
 1794WAT      O 5592   1.521   4.488   1.579  0.3308 -0.1050 -0.0546
 1794WAT     H1 5593   1.500   4.406   1.624  0.6503  0.3625  0.9636
 1794WAT     H2 5594   1.455   4.495   1.510 -0.0819 -0.9027  0.2478
 1795WAT      O 5595   0.821   0.121   2.207  0.1492 -0.2981 -0.1757
 1795WAT     H1 5596   0.895   0.131   2.148  0.3272 -1.4051 -0.1619
 1795WAT     H2 5597   0.760   0.190   2.181  0.7200 -0.0509 -0.8859
 1796WAT      O 5598   2.157   0.875   4.120  0.2487 -0.3252  0.1680
 1796WAT     H1 5599   2.173   0.910   4.032 -0.3021 -1.0794 -0.2518
 1796WAT     H2 5600   2.090   0.932   4.157  0.6229  0.1145  0.1842
 1797WAT      O 5601   2.419   2.375   4.034  0.0619 -0.5924 -0.0538
 1797WAT     H1 5602   2.500   2.346   3.993  0.5873  0.2102  0.3997
 1797WAT     H2 5603   2.428   2.470   4.043 -0.3922 -0.6355  1.1145
 1798WAT      O 5604   0.561   0.366   4.786  0.2467 -0.0609 -0.2290
 1798WAT     H1 5605   0.546   0.397   4.697  1.5883 -1.4886 -1.0077
 1798WAT     H2 5606   0.583   0.273   4.776 -0.2597 -0.4244  1.6626
 1799WAT      O 5607   3.285   3.583   1.806 -0.3702  0.1760 -0.1352
 1799WAT     H1 5608   3.332   3.629   1.737  0.6014  1.2041  1.1477
 1799WAT     H2 5609   3.345   3.583   1.881 -1.9470  0.5352  1.2071
 1800WAT      O 5610   3.156   3.068   4.366 -0.3879  0.0177 -0.3977
 1800WAT     H1 5611   3.223   3.085   4.433 -0.6676 -0.5053  0.0231
 1800WAT     H2 5612   3.106   3.150   4.361 -1.7637 -0.6360  1.6474
 1801WAT      O 5613   2.482   2.322   4.408  0.1681  0.2350 -0.5349
 1801WAT     H1 5614   2.548   2.292   4.346  1.3874 -0.7705  1.1641
 1801WAT     H2 5615   2.438   2.242   4.437  0.0590  0.6111  0.3708
 1802WAT      O 5616   3.688   1.128   3.226 -0.1393  0.8511 -0.0883
 1802WAT     H1 5617   3.646   1.086   3.151  0.0080  2.0689 -0.8830
 1802WAT     H2 5618   3.713   1.056   3.283  2.0485 -0.3422 -2.3688
 1803WAT      O 5619   1.487   3.443   2.813 -0.0343  0.0397 -0.2952
 1803WAT     H1 5620   1.546   3.484   2.750  1.3938  1.6323  1.9067
 1803WAT     H2 5621   1.545   3.405   2.879 -1.4642 -0.4728  0.7143
 1804WAT      O 5622   3.289   4.282   1.248  0.1272  0.6694  0.6216
 1804WAT     H1 5623   3.383   4.285   1.262 -0.0331  0.0909  1.9674
 1804WAT     H2 5624   3.254   4.242   1.327 -1.1614 -0.0708 -0.2728
 1805WAT      O 5625   1.870   2.638   4.926  0.4825 -0.1827  0.6552
 1805WAT     H1 5626   1.904   2.574   4.987 -0.5836 -1.6392 -0.2215
 1805WAT     H2 5627   1.795   2.677   4.971 -0.4914 -1.4749  0.1869
 1806WAT      O 5628   2.371  -0.021   4.053  0.2076 -0.2626 -0.1030
 1806WAT     H1 5629   2.312   0.046   4.087  1.2851  0.3547  0.6448
 1806WAT     H2 5630   2.452  -0.009   4.104  0.3836 -2.2440  0.1833
 1807WAT      O 5631   1.735   2.498   4.266  0.2937 -0.3868 -0.1616
 1807WAT     H1 5632   1.678   2.540   4.330  0.0528 -0.3864 -0.3736
 1807WAT     H2 5633   1.819   2.541   4.276 -0.4028  1.4582 -1.6308
 1808WAT      O 5634   2.670   3.955   3.395 -0.4462 -0.1237  0.4361
 1808WAT     H1 5635   2.732   3.962   3.468  1.4371 -2.5070 -0.7556
 1808WAT     H2 5636   2.585   3.946   3.437 -0.0909  3.0810  2.1554
 1809WAT      O 5637   2.625   0.916   3.603 -0.2601 -0.2027 -0.2575
 1809WAT     H1 5638   2.585   0.913   3.689 -0.5113 -0.0860 -0.3686
 1809WAT     H2 5639   2.566   0.971   3.551 -0.3432 -0.6195 -0.6190
 1810WAT      O 5640   2.762   3.258   4.508 -0.5900  0.2306  0.5153
 1810WAT     H1 5641   2.763   3.237   4.414  1.2903 -0.7695  0.7046
 1810WAT     H2 5642   2.714   3.340   4.513  0.4500  1.0468 -1.5198
 1811WAT      O 5643   1.306   4.916   3.247 -0.4740  0.5134 -0.2616
 1811WAT     H1 5644   1.232   4.962   3.207  0.5236  0.2177 -2.5480
 1811WAT     H2 5645   1.381   4.973   3.234  0.0522  0.0175  0.4736
 1812WAT      O 5646   0.263   1.018   4.446 -0.2633 -0.0447 -0.4408
 1812WAT     H1 5647   0.209   0.966   4.386 -0.7424  0.3455 -0.3568
 1812WAT     H2 5648   0.227   1.107   4.439 -0.9437 -0.1682  1.1232
 1813WAT      O 5649   1.902   0.965   2.431  0.3849 -0.1867 -0.3425
 1813WAT     H1 5650   1.900   0.872   2.410  1.3294 -0.3342  0.1592
 1813WAT     H2 5651   1.823   1.001   2.390 -0.2426 -1.2866 -0.1289
 1814WAT      O 5652   3.055   3.855   4.482 -0.3946 -0.5913  0.2215
 1814WAT     H1 5653   3.023   3.797   4.413 -0.4002 -0.1910 -0.1174
 1814WAT     H2 5654   2.990   3.926   4.487 -1.4372 -1.5834  1.9625
 1815WAT      O 5655   0.133   1.429   3.299  0.0820  0.2105 -0.2002
 1815WAT     H1 5656   0.163   1.487   3.229 -0.9097  0.0813 -0.7477
 1815WAT     H2 5657   0.184   1.456   3.376 -1.0269  2.4906 -0.1779
 1816WAT      O 5658   0.131   2.062   0.953 -0.1597  0.7822 -0.0524
 1816WAT     H1 5659   0.046   2.089   0.985 -0.5367  0.2151 -0.5454
 1816WAT     H2 5660   0.118   1.972   0.923  1.1352 -0.1148  1.8776
 1817WAT      O 5661   1.947   4.418   1.308 -0.8633 -0.2264 -0.2002
 1817WAT     H1 5662   2.019   4.399   1.368 -1.1950  0.8147  0.5553
 1817WAT     H2 5663   1.983   4.482   1.247 -0.9859 -0.1149 -0.1561
 1818WAT      O 5664   1.921   0.168   3.744 -0.0006  0.1296  0.1522
 1818WAT     H1 5665   1.991   0.125   3.695  1.9112  0.2803  2.5578
 1818WAT     H2 5666   1.950   0.258   3.755 -2.1263  1.1080 -1.4673
 1819WAT      O 5667   2.152   0.851   5.058 -0.2448 -0.4805  0.2593
 1819WAT     H1 5668   2.247   0.848   5.071 -0.1059 -2.1013 -0.8903
 1819WAT     H2 5669   2.139   0.920   4.993  0.1816 -0.4901  0.1602
 1820WAT      O 5670   3.275   2.502   4.111 -0.0107 -0.8526 -0.8821
 1820WAT     H1 5671   3.222   2.569   4.067  0.2693 -0.6556 -0.9196
 1820WAT     H2 5672   3.223   2.476   4.186 -0.5938 -1.3404 -1.4422
 1821WAT      O 5673   1.289   2.607   3.364 -0.8079 -0.0115  0.1356
 1821WAT     H1 5674   1.358   2.571   3.420 -0.5080 -1.6874 -1.2492
 1821WAT     H2 5675   1.330   2.683   3.322 -0.4200  0.1136  0.7345
 1822WAT      O 5676   1.918   3.865   2.028  0.6639 -0.1518  0.0441
 1822WAT     H1 5677   1.936   3.917   1.950 -1.2474  0.3275 -0.1153
 1822WAT     H2 5678   1.917   3.775   1.997  0.6332 -0.0184 -0.3448
 1823WAT      O 5679   1.183   2.620   0.209 -0.1918 -0.0526 -0.0868
 1823WAT     H1 5680   1.237   2.541   0.209 -0.2345 -0.0812 -0.3736
 1823WAT     H2 5681   1.104   2.596   0.160  0.0667  0.3485 -0.7135
 1824WAT      O 5682   2.934   1.687   4.268 -0.4179  0.0538  0.4547
 1824WAT     H1 5683   2.982   1.609   4.242 -0.9023 -1.1514  2.9072
 1824WAT     H2 5684   2.863   1.654   4.323 -1.7345  2.0970  0.1009
 1825WAT      O 5685   2.704   0.661   3.866  0.2031  0.0853  0.5385
 1825WAT     H1 5686   2.792   0.680   3.897  0.3607 -0.7970  0.6695
 1825WAT     H2 5687   2.656   0.638   3.946 -0.1851  0.6952  0.4854
 1826WAT      O 5688   2.949   2.632   3.371  0.7836 -0.4235 -0.1760
 1826WAT     H1 5689   2.936   2.581   3.451 -1.7386  0.0840 -0.1935
 1826WAT     H2 5690   2.929   2.722   3.397  3.7104  0.4333 -0.5090
 1827WAT      O 5691   1.200   0.342   3.854 -0.7095 -0.2254  0.0609
 1827WAT     H1 5692   1.232   0.430   3.835 -1.4062 -0.0297 -0.2666
 1827WAT     H2 5693   1.167   0.310   3.770 -1.0625 -0.5385  0.3112
 1828WAT      O 5694   2.479   4.277   1.383  0.5467  0.0503  0.0894
 1828WAT     H1 5695   2.572   4.261   1.368  0.1255 -1.7637 -0.8988
 1828WAT     H2 5696   2.449   4.199   1.429 -0.7996 -0.1393 -1.0493
 1829WAT      O 5697   2.216   0.389   0.783  0.1094 -0.4417  0.1127
 1829WAT     H1 5698   2.300   0.436   0.786 -0.2940  0.2551  0.7733
 1829WAT     H2 5699   2.152   0.455   0.757 -0.1051 -1.1853 -1.3607
 1830WAT      O 5700   1.994   0.314   1.638 -0.4255 -0.1507 -0.0615
 1830WAT     H1 5701   2.032   0.253   1.575  0.5124  0.1800  0.1649
 1830WAT     H2 5702   2.029   0.286   1.722 -0.9509 -0.0342  0.1993
 1831WAT      O 5703   2.538   3.382   3.176 -0.2229 -0.4567 -0.1743
 1831WAT     H1 5704   2.529   3.290   3.202  2.5840 -0.7012  0.2637
 1831WAT     H2 5705   2.525   3.431   3.258  0.9932 -0.7125  0.2054
 1832WAT      O 5706   3.602   1.680   4.939 -0.0994 -0.1136 -0.5488
 1832WAT     H1 5707   3.512   1.713   4.934 -1.0394 -2.3642  0.1726
 1832WAT     H2 5708   3.638   1.694   4.851 -1.2220  0.6384 -0.9038
 1833WAT      O 5709   0.875   3.582   0.548  0.1353  0.4403  0.6388
 1833WAT     H1 5710   0.858   3.552   0.637 -1.5536  0.0359  0.2179
 1833WAT     H2 5711   0.792   3.620   0.520  0.8990  1.3601 -0.4722
 1834WAT      O 5712   2.266   4.980   1.252 -0.0365  0.5237 -0.3426
 1834WAT     H1 5713   2.249   4.954   1.343  2.7274 -0.1531  0.0742
 1834WAT     H2 5714   2.240   4.904   1.200 -1.5898  0.8968 -0.1706
 1835WAT      O 5715   3.221   5.068   3.568  0.4814 -0.3921 -0.5610
 1835WAT     H1 5716   3.300   5.109   3.536  1.6914 -2.6583 -0.7289
 1835WAT     H2 5717   3.209   5.104   3.656  0.8709  1.0048 -1.0587
 1836WAT      O 5718   3.053   4.018   3.737  0.1012  0.7348 -0.4893
 1836WAT     H1 5719   3.122   3.997   3.675  1.2745  2.0783  0.2952
 1836WAT     H2 5720   3.061   4.113   3.751 -1.7253  0.8812 -0.1522
 1837WAT      O 5721   1.081   2.767   3.973 -0.1721 -0.2539 -0.1832
 1837WAT     H1 5722   1.019   2.754   3.902 -0.6584 -1.3495  0.4127
 1837WAT     H2 5723   1.051   2.707   4.042  2.0844 -1.5449 -0.2323
 1838WAT      O 5724   4.006   2.492   2.086 -0.5039  0.1671 -0.0681
 1838WAT     H1 5725   3.976   2.562   2.028 -1.0806 -0.4485 -0.5355
 1838WAT     H2 5726   4.066   2.535   2.147  2.1297  0.4659 -2.6431
 1839WAT      O 5727   2.456   4.838   2.819  0.2569 -0.0274 -0.0471
 1839WAT     H1 5728   2.536   4.876   2.855  0.3727  0.1281 -0.4627
 1839WAT     H2 5729   2.395   4.911   2.811 -0.6623 -0.4766  2.1908
 1840WAT      O 5730   0.970   3.043   2.949  0.2327  0.6941 -0.0744
 1840WAT     H1 5731   0.897   3.086   2.903 -0.0934 -0.1524 -0.3588
 1840WAT     H2 5732   0.932   3.012   3.031 -0.5087 -2.2390 -1.4084
 1841WAT      O 5733   2.471   4.631   2.636  0.1757  0.0135  0.1391
 1841WAT     H1 5734   2.440   4.710   2.682 -0.6774 -0.1501 -0.1525
 1841WAT     H2 5735   2.553   4.610   2.680  0.2348  0.8583  0.4635
 1842WAT      O 5736   3.623   4.505   3.665  0.4870 -0.6896  0.0236
 1842WAT     H1 5737   3.684   4.530   3.595  0.4916 -0.9037 -0.0494
 1842WAT     H2 5738   3.546   4.473   3.618 -1.4243  3.2976 -0.0551
 1843WAT      O 5739   1.217   3.574   0.654 -0.5475  0.2093  0.2517
 1843WAT     H1 5740   1.306   3.544   0.633  0.3842  2.0210  1.3252
 1843WAT     H2 5741   1.167   3.493   0.666  0.9577 -0.8645 -0.3292
 1844WAT      O 5742   2.507  -0.012   2.894 -0.2613 -0.1407  0.1324
 1844WAT     H1 5743   2.591  -0.058   2.895 -0.4658 -0.5365 -0.5775
 1844WAT     H2 5744   2.528   0.074   2.857  0.3690  0.8719  2.6758
 1845WAT      O 5745   1.749   4.350   1.112 -0.2061 -0.7761  0.8919
 1845WAT     H1 5746   1.816   4.371   1.177 -0.9986  0.0437  1.4806
 1845WAT     H2 5747   1.715   4.435   1.085  0.5892 -1.0624 -1.1582
 1846WAT      O 5748   3.505   4.017   3.303  0.0964 -0.2103 -0.5276
 1846WAT     H1 5749   3.429   3.964   3.281 -0.7679  0.4120  0.7890
 1846WAT     H2 5750   3.550   4.031   3.220 -1.3904 -0.3489 -1.3895
 1847WAT      O 5751   2.664   0.250   3.636 -0.0795 -0.5264  0.2900
 1847WAT     H1 5752   2.757   0.261   3.616  0.1376 -1.5708  0.6520
 1847WAT     H2 5753   2.662   0.225   3.729 -0.6736 -1.1129  0.1273
 1848WAT      O 5754   0.742   4.885   1.071 -0.3478 -0.4277  0.2989
 1848WAT     H1 5755   0.710   4.807   1.026 -2.2848  1.2668 -1.4906
 1848WAT     H2 5756   0.819   4.912   1.022 -0.6849 -0.2870 -0.1637
 1849WAT      O 5757   4.373   0.079   2.707  0.4817 -0.1421  0.1714
 1849WAT     H1 5758   4.341  -0.007   2.734  0.5222 -0.1320  0.2505
 1849WAT     H2 5759   4.329   0.096   2.623  0.6294 -0.3324  0.0542
 1850WAT      O 5760   2.908   2.866   0.375  0.1202 -0.1983 -0.5237
 1850WAT     H1 5761   2.975   2.867   0.307  0.4173  0.3191 -0.2307
 1850WAT     H2 5762   2.931   2.791   0.430 -0.8376 -1.3914 -1.6779
 1851WAT      O 5763   2.451   2.836   4.902  0.1258 -0.2481  0.1201
 1851WAT     H1 5764   2.530   2.810   4.950  0.9425 -0.9630 -1.5584
 1851WAT     H2 5765   2.402   2.890   4.965  2.2608  0.7855  1.0010
 1852WAT      O 5766   2.160   4.810   1.053 -0.3273  0.0005 -0.0125
 1852WAT     H1 5767   2.108   4.855   0.987  0.2373  1.1318  0.2818
 1852WAT     H2 5768   2.244   4.795   1.011  0.2466  1.2851  0.6155
 1853WAT      O 5769   3.432   4.766   0.482  0.0464 -0.2514 -0.2200
 1853WAT     H1 5770   3.396   4.719   0.557  1.8906 -0.9577  0.2816
 1853WAT     H2 5771   3.522   4.732   0.473  0.7706  1.7458 -1.0800
 1854WAT      O 5772   3.692   5.055   4.041  0.1219  0.3951 -0.5771
 1854WAT     H1 5773   3.622   5.048   3.976  1.5594  0.2427 -2.1598
 1854WAT     H2 5774   3.749   4.980   4.023  0.4896  0.2701  0.9685
 1855WAT      O 5775   0.190   4.723   3.251 -0.5877 -0.0189 -0.0970
 1855WAT     H1 5776   0.268   4.770   3.281  1.0223 -1.9872 -0.9530
 1855WAT     H2 5777   0.117   4.772   3.288  1.1046 -0.3297  4.2508
 1856WAT      O 5778   3.269   1.346   3.775  0.0068  0.2126  0.1175
 1856WAT     H1 5779   3.261   1.303   3.690  0.8255  0.2230  0.0317
 1856WAT     H2 5780   3.346   1.402   3.766 -0.8557  1.4739  0.3279
 1857WAT      O 5781   0.198   0.283   5.122  0.4444 -0.1063 -0.0975
 1857WAT     H1 5782   0.188   0.192   5.095 -0.8907  0.5756 -2.2202
 1857WAT     H2 5783   0.262   0.281   5.192  0.3284 -2.6854  0.0250
 1858WAT      O 5784   4.373   2.070   4.396 -0.2540  0.1055  0.2164
 1858WAT     H1 5785   4.284   2.071   4.360 -0.0627  2.0715 -0.3521
 1858WAT     H2 5786   4.429   2.088   4.320  0.3477  1.9323  1.0224
 1859WAT      O 5787   2.903   1.213   3.745  0.8427 -0.2036  0.5697
 1859WAT     H1 5788   2.941   1.142   3.798  0.9353 -0.8441 -0.3272
 1859WAT     H2 5789   2.813   1.185   3.730  1.2192 -0.7516 -0.8059
 1860WAT      O 5790   0.303   2.229   3.358  0.6237 -0.4077  0.0851
 1860WAT     H1 5791   0.317   2.135   3.357  1.3873 -0.3111 -1.1673
 1860WAT     H2 5792   0.386   2.266   3.329 -0.3238  0.5195 -1.6517
 1861WAT      O 5793   4.086   3.946   3.763 -0.0055  0.4279 -0.1344
 1861WAT     H1 5794   4.126   4.029   3.735 -0.1385  0.0973 -1.3773
 1861WAT     H2 5795   4.000   3.946   3.721  0.9609 -1.4682 -2.3492
 1862WAT      O 5796   1.324   4.193   1.845 -0.2617  0.4289  0.5409
 1862WAT     H1 5797   1.337   4.275   1.892  0.2676  1.2665 -0.9908
 1862WAT     H2 5798   1.377   4.203   1.766 -2.1057 -0.3670 -0.8626
 1863WAT      O 5799   2.278   0.235   4.157  0.2797 -0.2091 -0.0916
 1863WAT     H1 5800   2.206   0.208   4.100 -0.6480 -0.7976  1.2783
 1863WAT     H2 5801   2.338   0.282   4.100 -1.6137  1.0883 -1.1303
 1864WAT      O 5802   3.516   1.846   3.685  0.0934  0.0870 -0.0145
 1864WAT     H1 5803   3.447   1.904   3.718 -0.0179  0.4076 -0.7821
 1864WAT     H2 5804   3.536   1.880   3.598 -1.3091 -2.1346 -1.2996
 1865WAT      O 5805   1.298   4.107   3.106 -0.4485  0.8093 -0.0651
 1865WAT     H1 5806   1.226   4.069   3.055 -1.7956  0.1682  2.1442
 1865WAT     H2 5807   1.291   4.201   3.091 -1.1561  0.6770 -0.6396
 1866WAT      O 5808   0.670   4.776   4.027  0.4194 -0.1521  0.0939
 1866WAT     H1 5809   0.720   4.698   4.052 -0.5121 -1.0245 -0.6687
 1866WAT     H2 5810   0.689   4.789   3.934 -0.2006 -0.0712 -0.0286
 1867WAT      O 5811   4.307   0.137   1.105 -0.1767  0.2887  0.3865
 1867WAT     H1 5812   4.376   0.071   1.099 -0.5380 -0.6316  3.9989
 1867WAT     H2 5813   4.233   0.099   1.058  0.6950 -0.2830 -0.5511
 1868WAT      O 5814   1.159   1.548   1.903 -0.0950  0.7195  0.0935
 1868WAT     H1 5815   1.159   1.453   1.894  0.0723  0.7608 -0.3617
 1868WAT     H2 5816   1.082   1.577   1.855  1.1508  0.9896 -1.8234
 1869WAT      O 5817   0.222   1.536   1.029  0.1894  0.1131  0.0686
 1869WAT     H1 5818   0.311   1.505   1.046  0.8302  1.8650  0.1696
 1869WAT     H2 5819   0.189   1.477   0.962  2.2792  0.7393 -1.6471
 1870WAT      O 5820   4.117   3.084   1.400  0.3105 -0.2030 -0.0484
 1870WAT     H1 5821   4.081   3.172   1.409 -1.9442 -1.0560 -0.0538
 1870WAT     H2 5822   4.113   3.065   1.307  1.4829 -0.0742 -0.1419
 1871WAT      O 5823   3.804   5.085   2.896 -0.2254  0.3690 -0.3821
 1871WAT     H1 5824   3.745   5.161   2.890  1.1374  1.7132  1.7509
 1871WAT     H2 5825   3.877   5.116   2.949  0.2387 -2.5701  0.8847
 1872WAT      O 5826   1.102   3.557   0.392  0.1576 -0.2785  0.1677
 1872WAT     H1 5827   1.013   3.590   0.406  0.4253  0.0592  1.2392
 1872WAT     H2 5828   1.148   3.579   0.473  1.4853  0.4271 -0.7411
 1873WAT      O 5829   1.108   0.640   4.630  0.1159 -0.1834  0.1634
 1873WAT     H1 5830   1.136   0.660   4.541  1.6632 -0.9809  0.4331
 1873WAT     H2 5831   1.091   0.726   4.670  0.1989  0.2223 -0.6560
 1874WAT      O 5832   2.033   3.556   2.885 -0.1545 -0.1476 -0.1773
 1874WAT     H1 5833   2.085   3.601   2.951 -0.4276 -1.5083  1.0071
 1874WAT     H2 5834   1.946   3.549   2.923 -0.1197 -1.6456 -0.3139
 1875WAT      O 5835   2.440   0.392   3.977  0.3008  0.1585  0.0564
 1875WAT     H1 5836   2.395   0.419   3.897 -1.0839 -0.4760  0.5982
 1875WAT     H2 5837   2.476   0.473   4.013  1.7079  0.3439 -1.6419
 1876WAT      O 5838   3.061   0.969   1.514  0.0529  0.7398  0.0200
 1876WAT     H1 5839   3.001   0.991   1.585 -0.9143  1.6470 -1.0184
 1876WAT     H2 5840   3.144   1.011   1.538  0.9683 -2.1513  2.4285
 1877WAT      O 5841   4.392   0.135   4.578 -0.0796  0.0910  0.7827
 1877WAT     H1 5842   4.465   0.122   4.518 -0.3556  0.8241  0.2771
 1877WAT     H2 5843   4.431   0.132   4.665  0.2621 -1.4254  0.6120
 1878WAT      O 5844   3.433   4.730   0.087  0.1026 -1.2590  0.2409
 1878WAT     H1 5845   3.395   4.657   0.136  0.6350 -1.3820  0.4744
 1878WAT     H2 5846   3.513   4.693   0.047  0.0408 -0.9741 -0.1538
 1879WAT      O 5847   0.806   2.814   1.774  0.5508 -0.8943 -0.6870
 1879WAT     H1 5848   0.825   2.908   1.779  0.3629 -0.8249 -1.1861
 1879WAT     H2 5849   0.828   2.780   1.861 -0.4248 -0.2018 -0.1550
 1880WAT      O 5850   2.880   1.007   0.281  0.0754  0.0733 -0.1176
 1880WAT     H1 5851   2.953   0.992   0.341  1.7494 -1.9869 -2.4834
 1880WAT     H2 5852   2.896   1.095   0.245  1.1939 -0.2183 -0.3494
 1881WAT      O 5853   1.485   0.551   4.104 -0.0218  0.5550 -0.0780
 1881WAT     H1 5854   1.560   0.588   4.057 -0.0021 -0.8207 -1.2165
 1881WAT     H2 5855   1.466   0.470   4.057 -2.2961  0.9098  0.1352
 1882WAT      O 5856   0.849   2.423   2.910 -0.0769 -0.0467  0.1488
 1882WAT     H1 5857   0.908   2.348   2.901 -0.1284 -0.1681  0.8392
 1882WAT     H2 5858   0.829   2.447   2.819 -0.3527 -1.0950 -0.0837
 1883WAT      O 5859   4.398   0.491   1.373  1.0098 -0.0812 -0.6514
 1883WAT     H1 5860   4.409   0.518   1.282  1.8811  1.2713 -0.1679
 1883WAT     H2 5861   4.368   0.570   1.418 -0.3240 -0.9583  0.0932
 1884WAT      O 5862   1.684   0.988   2.759 -0.4893  0.2611 -0.5090
 1884WAT     H1 5863   1.743   1.059   2.734  0.1923 -0.0324  0.2121
 1884WAT     H2 5864   1.629   0.974   2.683  1.3694 -0.4753 -1.7956
 1885WAT      O 5865   3.777   3.323   4.991 -0.2081  0.0058  0.2781
 1885WAT     H1 5866   3.795   3.328   4.897  4.1761  1.1249  0.9805
 1885WAT     H2 5867   3.791   3.231   5.013  0.5233  0.0662  0.0903
 1886WAT      O 5868   1.995   2.300   4.433 -0.2891 -0.1467  0.0627
 1886WAT     H1 5869   1.934   2.370   4.460 -0.9261  0.2622 -2.2162
 1886WAT     H2 5870   2.075   2.346   4.410 -0.3936 -0.2479 -0.5273
 1887WAT      O 5871   2.856   2.995   4.060 -0.7709 -0.1394  0.0014
 1887WAT     H1 5872   2.941   2.961   4.089 -0.8642  0.3065  0.8309
 1887WAT     H2 5873   2.858   2.987   3.964 -0.0248 -0.6607  0.0536
 1888WAT      O 5874   1.007   4.301   2.484 -0.2256 -0.4827  0.4058
 1888WAT     H1 5875   1.094   4.305   2.445 -0.3859  1.3651  0.1121
 1888WAT     H2 5876   0.958   4.242   2.428  0.4573 -0.4189 -0.2763
 1889WAT      O 5877   1.370   1.736   3.064 -0.2690 -0.3817  0.3059
 1889WAT     H1 5878   1.460   1.706   3.076 -0.0610  0.4554  0.9247
 1889WAT     H2 5879   1.316   1.664   3.096  0.1649 -1.1336 -0.6299
 1890WAT      O 5880   1.857   2.905   4.154  0.4490  0.6066 -0.0186
 1890WAT     H1 5881   1.794   2.976   4.146 -0.8465 -0.6259 -1.2371
 1890WAT     H2 5882   1.898   2.901   4.068  0.2017 -0.3930 -0.0943
 1891WAT      O 5883   0.646   1.923   2.021  0.0522 -0.4705  0.4992
 1891WAT     H1 5884   0.624   1.905   2.112 -0.6712 -0.1189  0.4065
 1891WAT     H2 5885   0.730   1.880   2.007  1.9621  2.3506  2.3300
 1892WAT      O 5886   0.616   4.943   1.329 -0.2479 -0.2694 -0.0475
 1892WAT     H1 5887   0.529   4.974   1.305 -0.8017 -1.8599 -0.1981
 1892WAT     H2 5888   0.661   4.931   1.245 -0.3356 -0.6999 -0.0335
 1893WAT      O 5889   3.105   0.378   1.719  0.4886  0.0006 -0.0718
 1893WAT     H1 5890   3.077   0.346   1.633 -1.0456  0.3603  0.2732
 1893WAT     H2 5891   3.138   0.466   1.702  2.3855 -0.7548 -0.6234
 1894WAT      O 5892   4.003   4.449   0.519  0.9849  0.3819  0.1437
 1894WAT     H1 5893   4.059   4.504   0.574  1.8104  1.4531 -1.7034
 1894WAT     H2 5894   4.058   4.427   0.444 -0.3921 -0.3350 -0.6767
 1895WAT      O 5895   1.578   0.587   4.972  0.8866  0.2925 -0.1139
 1895WAT     H1 5896   1.507   0.563   4.912  0.5482 -1.4524  0.9112
 1895WAT     H2 5897   1.544   0.661   5.021 -1.0823 -1.6442  1.6598
 1896WAT      O 5898   3.627   0.283   4.612  0.5548  0.0573  0.1554
 1896WAT     H1 5899   3.541   0.242   4.603 -0.5032  1.8040  1.5524
 1896WAT     H2 5900   3.614   0.351   4.678  2.9796  0.5177  0.2474
 1897WAT      O 5901   2.040   4.003   1.797  0.3422  0.0374 -0.6138
 1897WAT     H1 5902   2.093   4.018   1.876  1.5360  1.4730 -1.6285
 1897WAT     H2 5903   2.009   4.090   1.772 -1.0784 -0.5612 -1.0472
 1898WAT      O 5904   0.766   2.941   3.146 -0.3846 -0.0405  0.1797
 1898WAT     H1 5905   0.800   2.857   3.115 -1.1428  0.2559 -1.5875
 1898WAT     H2 5906   0.711   2.918   3.222 -1.3291 -1.2833 -0.8332
 1899WAT      O 5907   2.648   4.000   5.286  0.1549  0.0703  0.1421
 1899WAT     H1 5908   2.595   4.011   5.207 -1.5909  0.9110  1.3580
 1899WAT     H2 5909   2.609   4.060   5.349  1.8546 -0.1651  1.4901
 1900WAT      O 5910   1.246   0.517   2.921 -0.2313 -0.2124  0.3135
 1900WAT     H1 5911   1.316   0.476   2.971 -2.1634 -1.8112  1.8551
 1900WAT     H2 5912   1.194   0.444   2.887 -1.6751  0.9090 -0.0265
 1901WAT      O 5913  -0.013   2.543   1.571 -0.6037 -0.2030 -0.0308
 1901WAT     H1 5914   0.032   2.476   1.520 -2.0439  0.5504 -2.4406
 1901WAT     H2 5915   0.001   2.624   1.522 -0.2820  0.9935  1.9444
 1902WAT      O 5916   0.466   0.652   0.857  0.3609 -0.3213  0.4944
 1902WAT     H1 5917   0.500   0.594   0.925 -2.2388 -1.2416  1.1169
 1902WAT     H2 5918   0.375   0.669   0.883 -0.1120  0.9498 -1.7072
 1903WAT      O 5919   2.966   5.031   3.091 -0.0963 -0.4868  0.2959
 1903WAT     H1 5920   3.043   5.010   3.037 -0.1876 -0.8234  0.3011
 1903WAT     H2 5921   2.991   5.006   3.180  0.0972  0.1739  0.4398
 1904WAT      O 5922   0.538   3.190   0.129  0.4171 -0.0237  0.2283
 1904WAT     H1 5923   0.548   3.259   0.064  0.9183  2.5926  2.8519
 1904WAT     H2 5924   0.620   3.192   0.179 -0.4187 -1.0329  1.7257
 1905WAT      O 5925   1.718   4.851   3.425  0.5506  0.7861 -0.7560
 1905WAT     H1 5926   1.800   4.845   3.476 -0.3455 -0.1648  0.6597
 1905WAT     H2 5927   1.665   4.914   3.473 -0.2063  0.0758 -0.6399
 1906WAT      O 5928   2.606   3.369   1.027  0.0555  0.1888 -0.1099
 1906WAT     H1 5929   2.626   3.335   0.939 -0.0436 -0.4112  0.0953
 1906WAT     H2 5930   2.652   3.453   1.031  0.4995 -0.0270 -0.5488
 1907WAT      O 5931   3.951   1.461   2.442 -0.5209 -0.3277  0.7971
 1907WAT     H1 5932   3.910   1.462   2.528 -0.1194 -1.5441  1.0242
 1907WAT     H2 5933   3.908   1.389   2.396 -0.2799 -0.1036  0.2014
 1908WAT      O 5934   3.294   0.157   1.366  0.1705  0.2242  0.4856
 1908WAT     H1 5935   3.325   0.209   1.440 -1.7203  0.2931  1.2669
 1908WAT     H2 5936   3.304   0.066   1.394 -1.7011  0.2530  1.3808
 1909WAT      O 5937   2.413   1.810   3.056  0.3609 -0.9410 -0.8309
 1909WAT     H1 5938   2.409   1.780   3.146  1.6279  0.7559 -0.1505
 1909WAT     H2 5939   2.416   1.730   3.004  0.4924 -1.9507  0.6789
 1910WAT      O 5940   2.779   4.572   2.159 -0.2346 -0.5396  0.1169
 1910WAT     H1 5941   2.712   4.599   2.222 -1.1600 -1.9171 -0.2347
 1910WAT     H2 5942   2.811   4.654   2.121 -1.4533  0.1660  0.5582
 1911WAT      O 5943   0.598   1.612   1.318  0.4369 -0.0576  0.5171
 1911WAT     H1 5944   0.619   1.586   1.229 -1.4145  0.7381 -0.1987
 1911WAT     H2 5945   0.600   1.530   1.368 -0.0503 -0.7498 -0.5817
 1912WAT      O 5946   1.944   2.789   0.358 -0.1906 -0.3536  0.2925
 1912WAT     H1 5947   1.854   2.781   0.390  0.0594  0.0535  1.1253
 1912WAT     H2 5948   1.944   2.870   0.307 -0.3056 -0.3846  0.2413
 1913WAT      O 5949   0.183   1.809   3.145  0.1555 -0.7890 -0.9441
 1913WAT     H1 5950   0.090   1.788   3.156  0.1814 -0.4432  0.0423
 1913WAT     H2 5951   0.226   1.724   3.133  0.3897 -1.6103  3.9212
 1914WAT      O 5952   4.022   2.358   1.526  0.1879  0.3658  0.0697
 1914WAT     H1 5953   4.009   2.453   1.516 -0.4437  0.3908  0.9862
 1914WAT     H2 5954   4.036   2.346   1.620 -1.1670 -0.6114  0.1622
 1915WAT      O 5955   2.522   0.795   0.646 -0.1231 -0.1100  0.1603
 1915WAT     H1 5956   2.609   0.782   0.609 -0.2410 -0.6865  0.0715
 1915WAT     H2 5957   2.467   0.817   0.571 -0.0474  0.2769  0.2199
 1916WAT      O 5958   3.952   2.780   5.170  0.2957  0.1087  0.5753
 1916WAT     H1 5959   3.921   2.708   5.226 -0.4061  0.6340  0.8769
 1916WAT     H2 5960   4.047   2.782   5.184  0.7060 -2.2667 -1.2231
 1917WAT      O 5961   4.066   4.864   1.707 -0.4481 -0.0157  0.3656
 1917WAT     H1 5962   4.016   4.808   1.646 -0.9133  0.2470  0.4993
 1917WAT     H2 5963   4.079   4.946   1.660  0.2577 -0.2414  0.1601
 1918WAT      O 5964   0.659   2.832   2.609  0.0520  0.2106 -0.0061
 1918WAT     H1 5965   0.589   2.897   2.617 -1.5086 -1.2485 -0.9619
 1918WAT     H2 5966   0.628   2.757   2.660  1.8018  0.1804  1.0803
 1919WAT      O 5967   0.713   1.415   4.732 -0.0550 -0.1267  0.2776
 1919WAT     H1 5968   0.671   1.494   4.767 -2.5383 -0.8702 -0.8118
 1919WAT     H2 5969   0.794   1.447   4.693 -0.2064  1.6226  1.2642
 1920WAT      O 5970   1.300   2.581   2.223 -0.1314  0.4377 -0.1856
 1920WAT     H1 5971   1.288   2.488   2.205  0.3014  0.5002 -0.8515
 1920WAT     H2 5972   1.215   2.620   2.205 -0.7539 -0.0275  1.5887
 1921WAT      O 5973   3.418   0.137   3.494 -0.0744 -0.4696  0.7721
 1921WAT     H1 5974   3.478   0.082   3.444  0.2917 -0.1909  0.9028
 1921WAT     H2 5975   3.475   0.195   3.544 -0.4603  0.0838  0.5695
 1922WAT      O 5976   0.065   4.960   1.809 -0.0391  0.0764  0.6312
 1922WAT     H1 5977   0.102   5.044   1.837 -1.6672  1.0269  0.0945
 1922WAT     H2 5978   0.135   4.919   1.758  1.1927  0.5691  1.8613
 1923WAT      O 5979   3.951   5.021   0.470  0.1790 -0.4236  0.5869
 1923WAT     H1 5980   3.967   4.927   0.469  0.1135 -0.4337  0.4929
 1923WAT     H2 5981   3.999   5.055   0.395  1.3989 -0.1828  1.4489
 1924WAT      O 5982   2.896   3.942   0.841  0.0070 -0.1981 -0.2996
 1924WAT     H1 5983   2.819   3.938   0.898 -0.6140  2.1431 -0.8873
 1924WAT     H2 5984   2.861   3.965   0.755  1.2520 -0.5110 -0.9133
 1925WAT      O 5985   3.314   1.445   1.547  0.0270  0.0019  0.1562
 1925WAT     H1 5986   3.244   1.450   1.611  1.3823 -0.7592  1.7568
 1925WAT     H2 5987   3.387   1.491   1.588  0.4721  0.8584 -1.5079
 1926WAT      O 5988   2.608   4.894   4.402 -0.4876 -0.4291 -0.0076
 1926WAT     H1 5989   2.568   4.873   4.317  0.9922  1.1454 -1.1703
 1926WAT     H2 5990   2.550   4.959   4.441 -1.0687 -1.0108  0.1146
 1927WAT      O 5991   0.606   1.402   3.149 -0.2383  0.0601 -0.5444
 1927WAT     H1 5992   0.638   1.487   3.117 -2.2620  0.4873 -1.5697
 1927WAT     H2 5993   0.540   1.425   3.215  0.4353 -0.7757  0.4619
 1928WAT      O 5994   2.543   0.533   1.338 -0.0975  0.5726  0.0691
 1928WAT     H1 5995   2.628   0.502   1.305 -0.5261 -0.6943  0.0785
 1928WAT     H2 5996   2.501   0.572   1.262 -0.4579 -0.9503 -0.5583
 1929WAT      O 5997   3.833   4.508   0.113  0.2253 -0.0574 -0.2669
 1929WAT     H1 5998   3.816   4.427   0.161 -0.9044 -0.7115 -1.7200
 1929WAT     H2 5999   3.929   4.516   0.114  0.3060 -0.9702  0.5969
 1930WAT      O 6000   2.733   1.632   4.091  0.8813 -0.2557  0.0582
 1930WAT     H1 6001   2.782   1.691   4.149  0.6806 -0.9864  0.9990
 1930WAT     H2 6002   2.678   1.581   4.151 -0.4877  0.0359 -0.9162
 1931WAT      O 6003   4.354   1.042   2.874  0.2632  0.0293  0.1906
 1931WAT     H1 6004   4.437   0.995   2.884 -0.5042 -1.5433 -0.4554
 1931WAT     H2 6005   4.371   1.129   2.907  1.5541 -0.9357  2.2240
 1932WAT      O 6006   4.481   0.851   0.450  0.0795 -0.8452  0.0529
 1932WAT     H1 6007   4.530   0.792   0.508  1.3277  0.7787  0.7436
 1932WAT     H2 6008   4.519   0.837   0.363  0.2525 -1.1805  0.1819
 1933WAT      O 6009   0.367   3.704   2.393  0.2453 -0.2716  0.3830
 1933WAT     H1 6010   0.362   3.793   2.429 -0.2716  0.4535 -1.3896
 1933WAT     H2 6011   0.390   3.650   2.468 -1.2929  1.0885  1.9491
 1934WAT      O 6012   3.726   1.081   3.562 -0.6881  0.0308  0.0489
 1934WAT     H1 6013   3.800   1.115   3.612 -1.3290  1.2914  0.1862
 1934WAT     H2 6014   3.765   1.028   3.493  0.6450  3.5307 -2.1472
 1935WAT      O 6015   1.974   0.796   0.567  0.2428  0.2932 -0.0034
 1935WAT     H1 6016   2.037   0.724   0.570 -2.3570 -2.1229  1.7676
 1935WAT     H2 6017   1.915   0.773   0.496  0.0192  1.3107 -0.1628
 1936WAT      O 6018   1.188   1.215   2.173  0.0282  0.5251 -0.7086
 1936WAT     H1 6019   1.269   1.187   2.216 -0.7583 -1.2716 -0.2626
 1936WAT     H2 6020   1.124   1.216   2.244 -0.9005 -0.7223 -1.4765
 1937WAT      O 6021   2.267   3.048   3.642 -0.2385 -0.3609  0.4010
 1937WAT     H1 6022   2.268   2.953   3.650 -1.4535 -0.3074  1.5849
 1937WAT     H2 6023   2.178   3.074   3.667 -0.1860  1.0250 -0.7137
 1938WAT      O 6024   3.750   1.852   4.464  0.3199  0.8957 -0.0568
 1938WAT     H1 6025   3.816   1.809   4.410  1.9134  0.6759  1.9629
 1938WAT     H2 6026   3.712   1.919   4.407  0.1841 -0.8826 -2.1907
 1939WAT      O 6027   2.824   4.575   4.057 -0.4482 -0.2484  0.1384
 1939WAT     H1 6028   2.884   4.641   4.021 -0.7202  0.1829  0.4627
 1939WAT     H2 6029   2.877   4.496   4.064  0.3565  0.3652  1.2846
 1940WAT      O 6030   0.202   2.535   0.087 -0.0985  0.7784  0.3680
 1940WAT     H1 6031   0.158   2.619   0.101  0.2952  1.2288 -0.9443
 1940WAT     H2 6032   0.270   2.554   0.022  0.4256 -0.4247  0.5372
 1941WAT      O 6033   0.029   1.669   1.449  0.1984  0.4229 -0.5817
 1941WAT     H1 6034  -0.060   1.695   1.472 -0.1733  0.1580 -1.6532
 1941WAT     H2 6035   0.036   1.689   1.356  0.6411 -1.2190 -0.9293
 1942WAT      O 6036   1.159   1.571   3.121 -0.5667 -0.5167  0.1800
 1942WAT     H1 6037   1.154   1.547   3.214 -0.0154  0.6346  0.5265
 1942WAT     H2 6038   1.132   1.492   3.074  2.6388 -2.4074  1.2046
 1943WAT      O 6039   2.443   2.247   4.940  0.2091 -0.6981  0.2901
 1943WAT     H1 6040   2.491   2.245   4.857 -3.0914 -1.6452 -1.7823
 1943WAT     H2 6041   2.387   2.325   4.933 -2.1513 -2.2738  0.2225
 1944WAT      O 6042   0.408   4.312   1.869  0.7138 -0.7122 -0.4195
 1944WAT     H1 6043   0.499   4.308   1.898  0.9865  1.4260 -0.8713
 1944WAT     H2 6044   0.358   4.312   1.951  1.1900 -0.3486 -0.1211
 1945WAT      O 6045   3.032   0.714   1.417  0.1299 -0.1828 -0.1646
 1945WAT     H1 6046   3.044   0.807   1.430 -0.3671 -0.1070 -0.2069
 1945WAT     H2 6047   2.970   0.687   1.486  0.3097 -0.4881 -0.1184
 1946WAT      O 6048   0.288   1.463   0.474 -0.2812 -0.2637 -0.0723
 1946WAT     H1 6049   0.382   1.474   0.483 -0.3700  1.0210 -0.5012
 1946WAT     H2 6050   0.255   1.551   0.458 -1.5911 -0.6598  0.3412
 1947WAT      O 6051   2.121   3.083   4.756  0.9553 -0.3736  0.2834
 1947WAT     H1 6052   2.112   3.010   4.818 -1.2197  1.2121  2.0087
 1947WAT     H2 6053   2.168   3.150   4.805 -0.6683  0.8586  0.2108
 1948WAT      O 6054   0.728   2.313   4.635  0.2767 -0.0280  0.0221
 1948WAT     H1 6055   0.633   2.318   4.648  0.5723  2.0799  1.9897
 1948WAT     H2 6056   0.755   2.403   4.621  2.0628 -0.5323 -0.0032
 1949WAT      O 6057   1.936   0.456   3.829 -0.1393  0.3737 -0.2332
 1949WAT     H1 6058   1.971   0.500   3.752  0.0792 -0.4066 -0.5988
 1949WAT     H2 6059   1.945   0.520   3.900 -1.1279  1.4009 -1.0162
 1950WAT      O 6060   1.034   1.741   1.331  0.0263 -0.3784 -0.0479
 1950WAT     H1 6061   0.999   1.654   1.352 -0.7527 -0.3318 -1.0632
 1950WAT     H2 6062   0.993   1.799   1.395  0.1051 -0.6808  0.2798
 1951WAT      O 6063   2.822   3.209   0.083  0.6164 -0.2764  0.0706
 1951WAT     H1 6064   2.894   3.172   0.033  0.5956 -0.5499  0.2436
 1951WAT     H2 6065   2.848   3.199   0.175  1.1434  1.1975  0.1091
 1952WAT      O 6066   2.762   3.110   3.036  0.5869 -0.3043  1.3100
 1952WAT     H1 6067   2.821   3.041   3.004  0.1624 -0.4730  0.8811
 1952WAT     H2 6068   2.712   3.136   2.959  1.7723  1.5586  1.1003
 1953WAT      O 6069   4.042   4.235   0.705  0.4881 -0.0487 -0.1197
 1953WAT     H1 6070   4.127   4.203   0.675  0.5201  0.3907 -0.5146
 1953WAT     H2 6071   4.004   4.278   0.628  0.5599  1.0847  0.4423
 1954WAT      O 6072   0.062   4.647   2.766  0.1554 -0.2999 -0.9607
 1954WAT     H1 6073  -0.026   4.665   2.733 -0.2248  2.1960  1.1521
 1954WAT     H2 6074   0.099   4.733   2.784  1.5977 -1.3724  1.7295
 1955WAT      O 6075   0.654   2.633   1.351  0.5593 -0.4283  0.0350
 1955WAT     H1 6076   0.747   2.615   1.339  1.0673  0.4389  2.1682
 1955WAT     H2 6077   0.617   2.551   1.381  0.8440 -0.4929  0.2088
 1956WAT      O 6078   3.223   3.952   1.752 -0.0528 -0.2574  0.5851
 1956WAT     H1 6079   3.138   3.917   1.777 -0.5841  1.4792  1.4295
 1956WAT     H2 6080   3.256   3.892   1.685 -2.1728 -0.6802 -0.1510
 1957WAT      O 6081   0.725   1.662   4.421 -0.4063 -0.0971  0.2903
 1957WAT     H1 6082   0.792   1.629   4.361 -0.7972 -1.5990  0.6363
 1957WAT     H2 6083   0.775   1.699   4.494  0.0760  1.7849 -0.9113
 1958WAT      O 6084   0.103   3.525   3.324  0.1615  0.1722  0.1945
 1958WAT     H1 6085   0.044   3.600   3.318  1.2838  1.0605 -0.2342
 1958WAT     H2 6086   0.046   3.449   3.333 -1.0938  0.8715 -1.4574
 1959WAT      O 6087   2.567   1.313   1.222 -0.1049 -0.0466 -0.0676
 1959WAT     H1 6088   2.518   1.316   1.139  0.5634 -0.2444 -0.4776
 1959WAT     H2 6089   2.603   1.224   1.225  1.3657  0.4955 -0.4578
 1960WAT      O 6090   0.951   2.162   2.793  0.4518  0.2353 -0.3762
 1960WAT     H1 6091   1.030   2.115   2.820 -1.2604 -2.5046  0.3009
 1960WAT     H2 6092   0.891   2.153   2.868 -1.0828  0.7987 -1.4785
 1961WAT      O 6093   1.760   1.828   4.240  0.1297  0.1836  0.2434
 1961WAT     H1 6094   1.849   1.848   4.212  0.2271  1.1595  1.1955
 1961WAT     H2 6095   1.768   1.751   4.296  0.6879  1.4428  1.9836
 1962WAT      O 6096   4.065   4.941   1.242  0.4342 -0.0695 -0.3814
 1962WAT     H1 6097   4.122   4.888   1.186  2.4920 -1.7902  3.0050
 1962WAT     H2 6098   4.125   4.990   1.298 -1.4934  2.4404 -0.3001
 1963WAT      O 6099   1.928   1.291   2.376 -0.5479 -0.2831  0.2574
 1963WAT     H1 6100   1.963   1.378   2.394 -0.6959 -0.2952  0.6150
 1963WAT     H2 6101   1.995   1.249   2.322 -1.8100  1.1399 -2.6963
 1964WAT      O 6102   2.638   3.128   4.746 -0.5504  0.1821 -0.3517
 1964WAT     H1 6103   2.673   3.172   4.669  0.1227 -0.2290 -0.2865
 1964WAT     H2 6104   2.652   3.035   4.729 -1.9156 -0.0172 -0.4635
 1965WAT      O 6105   1.725   1.807   0.420 -0.3194  0.4590 -0.9116
 1965WAT     H1 6106   1.805   1.757   0.403 -0.4388  0.2313 -0.7990
 1965WAT     H2 6107   1.689   1.825   0.333 -1.1857 -1.1186 -0.9272
 1966WAT      O 6108   0.228   2.057   1.274 -0.7530 -0.4059  0.2214
 1966WAT     H1 6109   0.238   1.998   1.350  1.3950  1.5467  1.5846
 1966WAT     H2 6110   0.261   2.006   1.200  0.2886 -1.2379  1.2125
 1967WAT      O 6111   1.623   2.365   1.033  0.0421 -0.0755 -0.2936
 1967WAT     H1 6112   1.691   2.346   0.970  0.7467 -2.1505  1.0016
 1967WAT     H2 6113   1.669   2.397   1.111 -0.6151  0.1546  0.0184
 1968WAT      O 6114   0.555   0.254   2.545 -0.4981 -0.6005 -0.5558
 1968WAT     H1 6115   0.580   0.309   2.619 -0.2314  0.3664 -1.3530
 1968WAT     H2 6116   0.606   0.288   2.471 -1.1262 -1.2416 -1.3032
 1969WAT      O 6117   3.804   1.424   2.163  0.4349  0.2645  0.7353
 1969WAT     H1 6118   3.719   1.465   2.148  0.7935  1.6463  2.1831
 1969WAT     H2 6119   3.785   1.349   2.219 -0.1801 -1.4903 -1.6327
 1970WAT      O 6120   0.128   3.188   3.135  0.7720 -0.5746  0.2547
 1970WAT     H1 6121   0.073   3.203   3.059  2.5987 -0.3532 -1.0757
 1970WAT     H2 6122   0.214   3.222   3.110  1.5218 -0.8355  2.2783
 1971WAT      O 6123   0.100   0.060   1.127 -0.0852  0.3858  0.1447
 1971WAT     H1 6124   0.188   0.098   1.120  0.2005  0.0809  1.7233
 1971WAT     H2 6125   0.062   0.100   1.205 -0.8362 -0.4807  0.2494
 1972WAT      O 6126   1.159   4.943   4.199 -0.1806 -0.5787 -0.0465
 1972WAT     H1 6127   1.190   5.018   4.149  1.5531 -1.0035  0.3181
 1972WAT     H2 6128   1.086   4.908   4.148 -0.5472  0.9021 -0.5902
 1973WAT      O 6129   3.311   4.016   0.331 -0.3457 -0.6720 -0.1767
 1973WAT     H1 6130   3.245   4.055   0.274 -0.7539 -2.8440 -1.2850
 1973WAT     H2 6131   3.260   3.967   0.396  0.1572 -1.7414 -0.5745
 1974WAT      O 6132  -0.011   1.237   2.417  0.9655 -0.7843  0.2370
 1974WAT     H1 6133   0.080   1.214   2.435  1.0091 -0.5624  0.2990
 1974WAT     H2 6134  -0.009   1.330   2.397  0.8257 -0.8936 -0.2956
 1975WAT      O 6135   0.146   3.419   2.415 -0.2277  0.0806  0.1809
 1975WAT     H1 6136   0.131   3.509   2.388 -0.3713 -0.1494 -0.5274
 1975WAT     H2 6137   0.221   3.390   2.362  0.6323  0.1801  1.3165
 1976WAT      O 6138   4.257   2.350   4.259 -0.2053  0.2292 -0.3584
 1976WAT     H1 6139   4.272   2.284   4.327 -0.5194  0.7712  0.2461
 1976WAT     H2 6140   4.325   2.333   4.194  0.3456 -0.0467  0.2819
 1977WAT      O 6141   4.295   1.125   2.554 -0.4417 -0.5900 -0.1211
 1977WAT     H1 6142   4.362   1.176   2.507 -0.6534  0.9445  1.1368
 1977WAT     H2 6143   4.344   1.056   2.598  0.3121  0.3587  0.5746
 1978WAT      O 6144   2.221   3.970   4.260 -0.2610  0.2068 -0.2914
 1978WAT     H1 6145   2.165   3.977   4.337 -0.3267  0.1022 -0.3290
 1978WAT     H2 6146   2.299   4.020   4.283  1.0804 -2.2960  1.0890
 1979WAT      O 6147   0.744   3.227   1.295  0.0176 -0.6269  0.3700
 1979WAT     H1 6148   0.745   3.311   1.249  1.2102 -0.9739 -0.3021
 1979WAT     H2 6149   0.821   3.231   1.353  0.9198 -1.7621 -0.6877
 1980WAT      O 6150   4.150   4.558   4.604  0.2236 -0.3738  0.1053
 1980WAT     H1 6151   4.186   4.630   4.656  0.8940  0.4918 -1.4767
 1980WAT     H2 6152   4.061   4.546   4.636 -0.2609  1.8798 -0.2675
 1981WAT      O 6153   0.075   2.357   5.171 -0.1240 -0.7135  0.1879
 1981WAT     H1 6154   0.162   2.359   5.131 -0.6942  2.1601 -1.2053
 1981WAT     H2 6155   0.086   2.398   5.256 -0.2320  0.8862 -0.5150
 1982WAT      O 6156   1.928   3.506   4.159  0.5823 -0.4460  0.1926
 1982WAT     H1 6157   1.970   3.423   4.138  3.2490  0.5245  1.2193
 1982WAT     H2 6158   1.865   3.485   4.228  2.2392 -1.4613  1.4673
 1983WAT      O 6159   1.882   3.761   4.115  0.4076  0.1511 -0.2568
 1983WAT     H1 6160   1.975   3.784   4.117  0.4737 -0.1475  0.2362
 1983WAT     H2 6161   1.880   3.666   4.126 -0.0912  0.5064  4.6886
 1984WAT      O 6162   0.690   4.063   4.274  0.4495  0.3065  0.1496
 1984WAT     H1 6163   0.612   4.009   4.289  0.8208 -0.6103 -1.1421
 1984WAT     H2 6164   0.725   4.078   4.362 -0.9189  0.3536  0.7144
 1985WAT      O 6165   1.164   1.387   2.882 -0.4921  0.2724  0.2491
 1985WAT     H1 6166   1.211   1.308   2.908 -1.1204 -0.3888 -0.5812
 1985WAT     H2 6167   1.111   1.360   2.807  0.6779  1.9100 -1.2734
 1986WAT      O 6168   0.736   2.751   1.120  0.1244 -0.7664 -0.4560
 1986WAT     H1 6169   0.695   2.731   1.204  0.9679 -1.4218 -0.1837
 1986WAT     H2 6170   0.670   2.800   1.072 -1.0520 -1.9904 -0.1296
 1987WAT      O 6171   3.473   2.162   4.872  0.2620 -0.0835 -0.4598
 1987WAT     H1 6172   3.472   2.105   4.949  1.4029  0.8676  0.2879
 1987WAT     H2 6173   3.393   2.215   4.880  1.7231  2.0007  1.6790
 1988WAT      O 6174   4.382   3.332   4.849  0.1037  0.1758 -0.2875
 1988WAT     H1 6175   4.425   3.265   4.796  1.6714 -0.2773  1.4464
 1988WAT     H2 6176   4.453   3.376   4.895 -1.1662  0.1506  1.8509
 1989WAT      O 6177   3.903   0.071   2.422  0.2116  0.6804 -0.6183
 1989WAT     H1 6178   3.980   0.038   2.375  0.9565 -0.2890  1.1702
 1989WAT     H2 6179   3.839   0.090   2.354  0.7559 -1.8546 -1.9321
 1990WAT      O 6180  -0.015   0.917   4.942 -0.4236  0.3110  0.1846
 1990WAT     H1 6181   0.061   0.969   4.967 -0.3873 -0.2831  1.4195
 1990WAT     H2 6182  -0.012   0.913   4.847  2.0278 -1.0789  0.2483
 1991WAT      O 6183   2.834   0.998   4.215 -0.3242 -0.5066  0.6055
 1991WAT     H1 6184   2.824   0.926   4.153  0.5238  0.1093 -0.2631
 1991WAT     H2 6185   2.906   1.051   4.180  2.0741 -1.5679  3.4645
 1992WAT      O 6186   3.218   4.524   4.100 -0.3136 -0.0543  0.6073
 1992WAT     H1 6187   3.301   4.478   4.114 -0.4017 -0.2646  0.4383
 1992WAT     H2 6188   3.152   4.455   4.101 -0.4129  0.0276  0.0097
 1993WAT      O 6189   4.318   3.646   5.196  0.0795 -0.2524  0.0724
 1993WAT     H1 6190   4.373   3.692   5.132 -0.0046 -1.0654 -0.6022
 1993WAT     H2 6191   4.379   3.594   5.247  0.3489  1.5926  1.7622
 1994WAT      O 6192   3.020   3.091   5.252  0.2057  0.3235  0.2295
 1994WAT     H1 6193   3.028   3.011   5.304 -1.3966  1.0786  1.7565
 1994WAT     H2 6194   3.109   3.127   5.252  1.0115 -1.5257 -0.7009
 1995WAT      O 6195   1.347   3.756   2.721 -0.3243  1.0501  0.1435
 1995WAT     H1 6196   1.393   3.675   2.699 -4.0177 -1.4326  0.6486
 1995WAT     H2 6197   1.356   3.811   2.643  1.3946 -0.2442 -0.6255
 1996WAT      O 6198   4.040   0.885   4.176 -0.0703 -0.2552  0.3281
 1996WAT     H1 6199   4.007   0.955   4.119  2.2680  0.0451 -0.7847
 1996WAT     H2 6200   4.009   0.804   4.135 -0.9110  0.0344  0.3614
 1997WAT      O 6201   1.337   2.133   2.387 -0.8658  0.1572  0.0954
 1997WAT     H1 6202   1.296   2.096   2.465  1.0806 -0.8543  0.6980
 1997WAT     H2 6203   1.418   2.083   2.375 -0.7880  0.6926 -2.2289
 1998WAT      O 6204   3.458   5.110   1.508 -0.9727  0.4788 -0.6357
 1998WAT     H1 6205   3.450   5.061   1.426  2.5134  0.2845 -1.0136
 1998WAT     H2 6206   3.504   5.191   1.483  2.5911 -0.7264  1.3408
 1999WAT      O 6207   4.478   1.772   5.164 -0.1851 -0.2693  0.5724
 1999WAT     H1 6208   4.394   1.761   5.209  0.4702 -0.4287  1.8098
 1999WAT     H2 6209   4.525   1.836   5.218  1.4019 -1.9533  1.2729
 2000WAT      O 6210   4.355   4.491   0.063  0.0550  0.2636 -0.0252
 2000WAT     H1 6211   4.318   4.404   0.079 -1.6611  1.0746  0.6669
 2000WAT     H2 6212   4.417   4.503   0.135  0.0222 -0.2470  0.0931
 2001WAT      O 6213   2.170   3.760   3.038  0.2431 -0.1797 -0.6269
 2001WAT     H1 6214   2.132   3.846   3.018  0.9925  0.2253 -0.3738
 2001WAT     H2 6215   2.246   3.754   2.979  0.8513 -0.1729  0.1393
 2002WAT      O 6216   1.466   1.118   2.623 -0.1467  0.5004  0.1943
 2002WAT     H1 6217   1.468   1.188   2.558  0.3494  0.7385  0.4567
 2002WAT     H2 6218   1.387   1.134   2.674  0.0342  0.9534  0.3387
 2003WAT      O 6219   2.203   1.270   3.235 -0.1665  0.3377  0.0414
 2003WAT     H1 6220   2.159   1.192   3.202  1.0677 -0.8550  1.1231
 2003WAT     H2 6221   2.139   1.340   3.224 -0.5635 -0.3629 -2.9454
 2004WAT      O 6222   1.348   2.352   2.780  0.2105 -0.3740 -0.7793
 2004WAT     H1 6223   1.352   2.395   2.694  1.9761  0.5701 -0.2870
 2004WAT     H2 6224   1.425   2.295   2.781  0.4966  0.0198  0.3618
 2005WAT      O 6225   0.363   4.213   2.265  0.2876 -0.0693  0.4998
 2005WAT     H1 6226   0.306   4.282   2.232  0.8427  0.0620 -0.1942
 2005WAT     H2 6227   0.374   4.233   2.358 -0.7109 -0.0402  0.6223
 2006WAT      O 6228   4.056   1.172   4.780  0.0968 -0.2906 -0.3226
 2006WAT     H1 6229   4.037   1.083   4.751 -0.3116 -0.0277 -0.8887
 2006WAT     H2 6230   4.113   1.161   4.856 -0.8835 -1.0575  0.3236
 2007WAT      O 6231   3.431   1.413   4.269  0.0048 -0.5104 -0.3268
 2007WAT     H1 6232   3.385   1.442   4.347 -2.6186 -0.2759 -1.8379
 2007WAT     H2 6233   3.416   1.483   4.205  1.7865 -0.8470 -1.1821
 2008WAT      O 6234   0.770   1.958   2.929 -0.1717 -0.9096  0.0492
 2008WAT     H1 6235   0.751   1.933   2.838 -2.9477 -1.1409  0.5981
 2008WAT     H2 6236   0.853   1.914   2.948  0.4328 -0.9578 -2.3070
 2009WAT      O 6237   2.594   3.834   2.609  0.0830 -0.1285  0.5640
 2009WAT     H1 6238   2.672   3.851   2.556 -1.1216 -1.5710 -1.8430
 2009WAT     H2 6239   2.605   3.890   2.687  3.2844 -0.0069  0.1565
 2010WAT      O 6240   2.640   2.219   2.189 -0.2920  0.1250  0.5512
 2010WAT     H1 6241   2.706   2.250   2.126 -0.4086 -0.9477 -0.1144
 2010WAT     H2 6242   2.678   2.238   2.274  0.3168  0.6810  0.1664
 2011WAT      O 6243   0.774   0.855   3.337  0.2308 -0.1487 -1.0253
 2011WAT     H1 6244   0.694   0.803   3.349 -0.2673  0.6898 -0.6442
 2011WAT     H2 6245   0.750   0.920   3.271  0.1335  1.0031  0.1034
 2012WAT      O 6246   1.491   3.645   3.348  0.0040 -0.1433  0.2810
 2012WAT     H1 6247   1.521   3.563   3.386 -1.2254 -0.9330 -0.3574
 2012WAT     H2 6248   1.559   3.708   3.368  0.6152 -1.1443  1.4604
 2013WAT      O 6249   1.788   0.889   1.951 -0.1437  1.0611  0.0501
 2013WAT     H1 6250   1.733   0.965   1.931  1.5278  2.2364 -0.3343
 2013WAT     H2 6251   1.836   0.915   2.030  1.3854  0.9855 -0.8050
 2014WAT      O 6252   2.927   4.007   0.206 -0.1547 -0.4746 -0.1757
 2014WAT     H1 6253   2.874   4.070   0.255 -1.3435  0.5273 -2.6105
 2014WAT     H2 6254   2.873   3.928   0.202  0.0301 -0.6285  0.2405
 2015WAT      O 6255   2.570   3.855   4.467 -0.2834 -0.0647 -0.0745
 2015WAT     H1 6256   2.565   3.820   4.378  1.3702  0.6944 -0.4900
 2015WAT     H2 6257   2.615   3.787   4.517  0.1500  0.1434 -0.1759
 2016WAT      O 6258   2.628   4.728   1.597  0.0059 -0.2255  0.3685
 2016WAT     H1 6259   2.573   4.676   1.656 -0.3172 -0.4729 -0.1498
 2016WAT     H2 6260   2.566   4.782   1.548 -0.0899 -2.5970 -2.3416
 2017WAT      O 6261   3.770   4.559   1.176 -0.3671 -0.0738  0.4955
 2017WAT     H1 6262   3.770   4.464   1.163 -0.3637 -0.0539  0.3434
 2017WAT     H2 6263   3.742   4.571   1.266 -1.2547 -0.1793  0.2403
 2018WAT      O 6264   0.852   2.132   2.267  0.4529 -0.0100 -0.2674
 2018WAT     H1 6265   0.812   2.210   2.229 -0.1404  0.9372  2.1198
 2018WAT     H2 6266   0.893   2.163   2.348  0.9209 -2.0360  0.3290
 2019WAT      O 6267   3.856   0.908   1.009  0.3524  0.0348 -0.4785
 2019WAT     H1 6268   3.765   0.883   1.027  0.7863 -0.4906  1.1408
 2019WAT     H2 6269   3.896   0.829   0.973  0.8531 -0.6521  1.4608
 2020WAT      O 6270   3.024   1.159   4.101  0.4231 -0.3419 -0.3349
 2020WAT     H1 6271   3.118   1.153   4.089  0.2025 -1.5270 -1.6674
 2020WAT     H2 6272   3.007   1.253   4.114  1.3480  0.5292 -4.2486
 2021WAT      O 6273   1.982   3.598   3.293 -0.2841  0.0612  0.1908
 2021WAT     H1 6274   1.936   3.585   3.211  1.6743 -1.6841 -0.7142
 2021WAT     H2 6275   1.982   3.512   3.335 -0.1671  0.6420  1.4590
 2022WAT      O 6276   1.246   0.698   4.077  0.0394  0.1543  0.1448
 2022WAT     H1 6277   1.223   0.652   3.996 -0.8771  0.5115  0.1880
 2022WAT     H2 6278   1.340   0.684   4.087  0.3019  0.6566 -1.3363
 2023WAT      O 6279   4.221   3.569   3.399  0.4193 -1.1546 -0.3818
 2023WAT     H1 6280   4.216   3.636   3.467 -0.7411 -1.1997 -0.4020
 2023WAT     H2 6281   4.144   3.584   3.344 -0.1912 -2.8366 -0.0535
 2024WAT      O 6282   3.875   4.973   0.837 -0.0807 -0.8526 -0.1993
 2024WAT     H1 6283   3.861   4.933   0.923  1.1563 -0.5944  0.1458
 2024WAT     H2 6284   3.787   4.988   0.803 -0.5882 -1.2972  0.8646
 2025WAT      O 6285   0.549   3.749   3.700 -0.2887 -0.1269  0.1245
 2025WAT     H1 6286   0.531   3.842   3.693 -2.7297 -0.6407 -2.1295
 2025WAT     H2 6287   0.644   3.742   3.688 -0.2704  1.9564 -1.4632
 2026WAT      O 6288   3.345   4.614   0.732  0.1771  0.4197  0.1356
 2026WAT     H1 6289   3.417   4.666   0.769  0.4115 -1.0908  1.9571
 2026WAT     H2 6290   3.390   4.545   0.683 -0.1262  1.3933 -1.6030
 2027WAT      O 6291   0.852   5.160   3.261 -0.5403  0.2456  0.3404
 2027WAT     H1 6292   0.885   5.109   3.187  0.3382 -0.4242  1.1676
 2027WAT     H2 6293   0.783   5.105   3.298  0.1371 -0.1858  0.9922
 2028WAT      O 6294   0.493   0.490   2.251 -0.1091 -0.2740 -0.3304
 2028WAT     H1 6295   0.468   0.582   2.258 -0.1023 -0.3003  0.0700
 2028WAT     H2 6296   0.438   0.445   2.316  0.1601 -0.4954 -0.2540
 2029WAT      O 6297   1.043   0.333   3.336  0.1072  0.1448 -0.0787
 2029WAT     H1 6298   1.137   0.344   3.349  0.0635  0.7600 -0.2284
 2029WAT     H2 6299   1.025   0.378   3.253 -0.5479  1.3615  0.6854
 2030WAT      O 6300   1.425   2.660   3.676  0.0648  0.4394 -0.1703
 2030WAT     H1 6301   1.364   2.724   3.638  0.4361  1.0061  0.1613
 2030WAT     H2 6302   1.376   2.578   3.678 -1.9668  1.5263  3.1265
 2031WAT      O 6303   2.984   2.679   2.643 -0.4943  0.5238  0.6776
 2031WAT     H1 6304   2.910   2.739   2.634 -1.0126 -0.1454  0.3639
 2031WAT     H2 6305   2.952   2.595   2.608  0.2801  0.1169  0.9036
 2032WAT      O 6306   1.307   1.526   1.208 -0.0090 -0.3909 -0.0028
 2032WAT     H1 6307   1.328   1.432   1.207  2.0616  0.0314 -1.3964
 2032WAT     H2 6308   1.369   1.563   1.271 -0.2070  0.1718 -0.1382
 2033WAT      O 6309   0.463   3.206   0.418  0.3913  0.2686 -0.0817
 2033WAT     H1 6310   0.426   3.138   0.475 -1.0221  0.9604 -0.1075
 2033WAT     H2 6311   0.478   3.162   0.335 -1.1994  0.1081 -0.3233
 2034WAT      O 6312   1.051   0.642   1.189  0.0267 -0.4015 -0.4897
 2034WAT     H1 6313   1.099   0.714   1.230 -1.3061 -0.1321  0.6887
 2034WAT     H2 6314   1.100   0.623   1.109  0.9402  1.1853 -0.3546
 2035WAT      O 6315   0.984   1.799   4.121  0.5394 -0.2310  0.1242
 2035WAT     H1 6316   1.006   1.828   4.210  0.1758  2.6401 -0.6092
 2035WAT     H2 6317   1.037   1.855   4.065 -1.8716  0.5708 -1.5135
 2036WAT      O 6318   2.943   1.115   2.987  0.6892 -0.1591  0.3954
 2036WAT     H1 6319   2.979   1.027   2.995 -1.1918 -1.0017  0.1888
 2036WAT     H2 6320   2.849   1.103   3.000  0.5755  2.0799  2.1308
 2037WAT      O 6321   1.028   4.903   4.723 -0.4534  0.2089 -0.0831
 2037WAT     H1 6322   1.035   4.873   4.632  0.3799  0.4047 -0.0929
 2037WAT     H2 6323   0.966   4.976   4.720 -1.9921 -1.0530 -0.1661
 2038WAT      O 6324   2.052   4.823   1.726  0.2187 -0.1285  0.4378
 2038WAT     H1 6325   2.076   4.906   1.766  2.4270 -0.2524 -0.5037
 2038WAT     H2 6326   2.047   4.842   1.632 -2.0531 -0.4786  0.4248
 2039WAT      O 6327   1.282   3.765   1.833  0.5003 -0.2198 -0.0513
 2039WAT     H1 6328   1.349   3.833   1.826  1.7873 -1.4153  0.3284
 2039WAT     H2 6329   1.199   3.814   1.833  1.4050  1.5617  2.6535
 2040WAT      O 6330   0.927   3.273   4.015  0.1003  0.2040 -0.5099
 2040WAT     H1 6331   0.845   3.322   4.015 -0.4865 -0.7501 -0.9480
 2040WAT     H2 6332   0.990   3.331   4.058 -0.2083  1.9218 -2.2757
 2041WAT      O 6333   1.270   2.609   4.877 -0.4633  0.1258 -0.6477
 2041WAT     H1 6334   1.235   2.520   4.881  0.7720 -0.4858 -2.2201
 2041WAT     H2 6335   1.249   2.648   4.962 -0.2142 -1.9604  0.4198
 2042WAT      O 6336   3.814   4.232   5.194 -0.1881 -0.1023 -0.2523
 2042WAT     H1 6337   3.851   4.320   5.182  0.1725 -0.3012 -0.6466
 2042WAT     H2 6338   3.783   4.231   5.284  0.8671  0.0456  0.1278
 2043WAT      O 6339   0.341   3.106   2.239 -0.0924 -0.6086 -0.0294
 2043WAT     H1 6340   0.255   3.065   2.225  0.4697 -0.8370 -3.8108
 2043WAT     H2 6341   0.398   3.064   2.175  2.3406  1.0444  0.9280
 2044WAT      O 6342   0.384   1.191   1.333  0.4415 -0.5806 -0.2402
 2044WAT     H1 6343   0.454   1.127   1.323  0.3613 -1.2674  2.7644
 2044WAT     H2 6344   0.426   1.276   1.321  1.7380 -1.0056  1.0516
 2045WAT      O 6345   0.407   0.225   0.076 -0.4858  0.2693 -0.2389
 2045WAT     H1 6346   0.367   0.209   0.162 -3.0161  0.4428 -1.3001
 2045WAT     H2 6347   0.501   0.221   0.093 -0.8603  0.9651  2.6789
 2046WAT      O 6348   1.625   3.839   2.834  0.4935  0.0270 -0.6377
 2046WAT     H1 6349   1.531   3.825   2.846  0.4664  0.7269  0.0541
 2046WAT     H2 6350   1.655   3.760   2.788 -0.4028 -0.2633 -0.7526
 2047WAT      O 6351   0.187   1.556   4.374 -0.0841  0.2961  0.4276
 2047WAT     H1 6352   0.278   1.559   4.345 -0.4563  1.2399 -0.7035
 2047WAT     H2 6353   0.167   1.646   4.400 -0.4276 -0.0901  1.5662
 2048WAT      O 6354   4.191   4.465   2.865  0.0435 -0.4061  0.2362
 2048WAT     H1 6355   4.155   4.552   2.883  0.8398  0.1069 -0.5674
 2048WAT     H2 6356   4.120   4.419   2.821  0.4780  0.7770 -1.8417
 2049WAT      O 6357   1.403   4.798   1.034  0.1980  0.1358 -0.2738
 2049WAT     H1 6358   1.448   4.881   1.017  0.9602 -0.2138 -0.0162
 2049WAT     H2 6359   1.324   4.823   1.083  1.1856  0.5989  1.1506
 2050WAT      O 6360   2.844   2.987   4.988 -0.5986 -0.0058  0.6751
 2050WAT     H1 6361   2.910   3.056   4.980 -1.9457  1.2855  0.1059
 2050WAT     H2 6362   2.761   3.034   4.987 -1.6710 -1.7509 -1.6743
 2051WAT      O 6363   0.236   4.014   2.938 -0.1454  0.2958  0.3068
 2051WAT     H1 6364   0.182   3.936   2.948  2.0060 -1.3920 -0.3146
 2051WAT     H2 6365   0.175   4.084   2.914 -2.0743 -1.3217  0.3234
 2052WAT      O 6366   1.243   3.698   4.029 -0.1917  0.2480  0.7944
 2052WAT     H1 6367   1.225   3.728   3.940  2.9368  2.1374  0.6465
 2052WAT     H2 6368   1.185   3.750   4.085 -1.0691  0.1755 -0.0416
 2053WAT      O 6369   3.510   2.447   4.354 -0.0554  0.0190  0.5306
 2053WAT     H1 6370   3.503   2.408   4.266  1.1458 -1.9099  1.2110
 2053WAT     H2 6371   3.452   2.523   4.352 -1.6800 -1.1745 -1.2910
 2054WAT      O 6372   3.746   3.315   4.032 -0.4771 -0.3167  0.1128
 2054WAT     H1 6373   3.795   3.237   4.005  0.4402  0.2183  0.1631
 2054WAT     H2 6374   3.753   3.316   4.127 -1.7861 -0.9812  0.2336
 2055WAT      O 6375   0.392   4.937   3.334 -0.3201  0.0143  0.5216
 2055WAT     H1 6376   0.367   4.997   3.263 -1.1115 -2.1884 -1.1434
 2055WAT     H2 6377   0.359   4.979   3.413  0.1072  2.2916 -0.4215
 2056WAT      O 6378   2.518   1.906   3.948 -0.2337 -0.1537 -0.3501
 2056WAT     H1 6379   2.453   1.852   3.991  1.1803 -0.3504  1.6735
 2056WAT     H2 6380   2.585   1.843   3.918 -0.1102  0.2042 -0.8454
 2057WAT      O 6381   0.419   4.040   1.811 -0.2729  0.0352 -0.0977
 2057WAT     H1 6382   0.405   4.066   1.902  0.7330 -1.4744  0.5368
 2057WAT     H2 6383   0.341   3.988   1.790 -0.3843  0.1669 -0.0138
 2058WAT      O 6384   1.207   0.997   2.456  0.0961 -0.3059  0.4368
 2058WAT     H1 6385   1.175   1.086   2.444 -1.6977 -0.8773  0.6540
 2058WAT     H2 6386   1.223   0.990   2.550 -0.4626 -0.4271  0.5245
 2059WAT      O 6387   0.661   3.726   4.654 -0.2998  0.3029  0.8633
 2059WAT     H1 6388   0.720   3.717   4.729  0.3688 -0.2230  0.2846
 2059WAT     H2 6389   0.662   3.640   4.612  0.9392  1.1164 -0.9125
 2060WAT      O 6390   0.825   2.450   1.528  0.1220 -0.2929 -0.4831
 2060WAT     H1 6391   0.761   2.393   1.484 -2.0166  1.7802 -0.2563
 2060WAT     H2 6392   0.836   2.411   1.614 -1.0825 -0.5691 -0.4319
 2061WAT      O 6393   3.001   0.773   2.726  0.2986 -0.1132 -0.0037
 2061WAT     H1 6394   2.977   0.825   2.803  1.3736 -0.4205  0.5611
 2061WAT     H2 6395   2.920   0.732   2.698 -0.3648  1.0474  0.1654
 2062WAT      O 6396   3.947   0.176   1.454 -0.0280 -0.6096 -0.5252
 2062WAT     H1 6397   4.009   0.189   1.382  1.4232 -1.9769  0.4248
 2062WAT     H2 6398   3.976   0.236   1.522 -1.0394  0.2439 -0.8113
 2063WAT      O 6399   3.739   0.291   3.292 -0.2127 -0.0345 -0.0926
 2063WAT     H1 6400   3.678   0.219   3.276  0.2496 -0.3852 -0.2988
 2063WAT     H2 6401   3.777   0.310   3.206 -1.0115  1.0787 -0.2118
 2064WAT      O 6402   2.735   3.250   0.803  0.0417 -0.8415 -0.1272
 2064WAT     H1 6403   2.753   3.283   0.715 -1.2650  2.2442  0.6151
 2064WAT     H2 6404   2.806   3.287   0.856 -1.2904  0.7104  0.6839
 2065WAT      O 6405   2.565   2.695   5.115  0.3916 -0.2226  0.4274
 2065WAT     H1 6406   2.645   2.643   5.116  2.0708  2.1605 -0.1255
 2065WAT     H2 6407   2.503   2.641   5.066  1.8921 -1.8236  0.1615
 2066WAT      O 6408   2.038   1.236   3.777  0.0726  0.1411 -0.3761
 2066WAT     H1 6409   1.998   1.323   3.774 -1.0301 -0.3722 -1.5760
 2066WAT     H2 6410   1.966   1.177   3.799  0.4213 -0.6574 -1.2943
 2067WAT      O 6411   1.081   0.462   0.600  0.4195 -0.2488  0.4284
 2067WAT     H1 6412   1.012   0.489   0.539  0.2657  0.1703  0.7847
 2067WAT     H2 6413   1.040   0.394   0.653  0.6057 -0.7336 -0.0429
 2068WAT      O 6414   4.386   0.604   4.524  0.2424 -0.2304  0.1768
 2068WAT     H1 6415   4.320   0.534   4.525  0.8704 -0.9998 -2.6912
 2068WAT     H2 6416   4.359   0.661   4.452  2.2133 -0.1024 -0.5126
 2069WAT      O 6417   3.075   2.231   1.020 -0.4906 -0.5044 -0.0581
 2069WAT     H1 6418   2.989   2.273   1.024 -0.4645 -0.4160 -0.3906
 2069WAT     H2 6419   3.081   2.198   0.930  1.0920  2.1905 -1.0687
 2070WAT      O 6420   3.935   1.957   3.850 -0.3392  0.0559  0.2883
 2070WAT     H1 6421   3.853   1.914   3.874 -0.9531  2.3973  2.9481
 2070WAT     H2 6422   3.908   2.035   3.801  0.1310  1.3873  2.0476
 2071WAT      O 6423   1.098   4.458   4.605  0.1459 -0.5974 -0.0800
 2071WAT     H1 6424   1.060   4.376   4.638  1.2136 -0.5219  1.4141
 2071WAT     H2 6425   1.188   4.435   4.583  0.3298  0.0843 -0.0523
 2072WAT      O 6426   4.202   1.292   4.353 -0.0097  0.0399 -0.2058
 2072WAT     H1 6427   4.283   1.342   4.339  1.1398 -0.9908  2.0703
 2072WAT     H2 6428   4.153   1.344   4.417 -0.2501 -0.2467 -0.1552
 2073WAT      O 6429   3.938   1.663   5.232  0.0447 -0.7043  0.0529
 2073WAT     H1 6430   3.962   1.632   5.145 -1.6896 -0.1583 -0.6651
 2073WAT     H2 6431   3.843   1.654   5.235 -0.0970  0.7565  1.2862
 2074WAT      O 6432   0.669   0.864   2.338  0.1469  0.8166  0.4763
 2074WAT     H1 6433   0.641   0.778   2.305  1.8271 -0.2015  1.5631
 2074WAT     H2 6434   0.760   0.871   2.311 -0.2043  2.7269 -0.4159
 2075WAT      O 6435   3.185   2.526   4.367  0.0457  0.6152 -0.0885
 2075WAT     H1 6436   3.225   2.451   4.411  3.1723  1.7092 -0.8145
 2075WAT     H2 6437   3.119   2.557   4.428  1.7395 -0.0623  2.2535
 2076WAT      O 6438   2.838   0.247   0.774  0.1165  0.0419  0.3728
 2076WAT     H1 6439   2.857   0.164   0.818  0.4183 -0.5873 -0.8987
 2076WAT     H2 6440   2.755   0.275   0.812 -0.1826 -1.0328  0.5558
 2077WAT      O 6441   3.158   3.651   4.102 -0.0175 -0.2296 -0.3122
 2077WAT     H1 6442   3.227   3.712   4.128 -0.4856 -0.4805  1.6463
 2077WAT     H2 6443   3.077   3.700   4.113 -0.2926 -0.6803 -0.3216
 2078WAT      O 6444   1.048   1.321   1.622  0.1959 -0.0003  0.3529
 2078WAT     H1 6445   0.972   1.263   1.613 -0.2898  0.5096  1.0426
 2078WAT     H2 6446   1.088   1.296   1.705  0.0546  0.5662  0.5925
 2079WAT      O 6447   0.938   0.225   1.794  0.1302  0.2453  0.2574
 2079WAT     H1 6448   0.979   0.257   1.874 -2.3838  0.8996  1.3957
 2079WAT     H2 6449   0.908   0.137   1.816 -1.2328  0.7094  0.3349
 2080WAT      O 6450   0.898   2.178   0.550 -0.1334 -0.0715  0.2002
 2080WAT     H1 6451   0.847   2.204   0.627 -3.2995 -1.5220 -1.2473
 2080WAT     H2 6452   0.906   2.083   0.557 -0.1439 -0.1838 -1.0830
 2081WAT      O 6453   3.030   2.036   5.112  0.0543  0.1030 -0.0456
 2081WAT     H1 6454   3.016   2.063   5.202  0.2729  0.4740 -0.1198
 2081WAT     H2 6455   3.039   2.118   5.063 -0.2481 -0.0893 -0.4342
 2082WAT      O 6456   2.683   1.746   1.972  0.1357  0.0181 -0.2169
 2082WAT     H1 6457   2.670   1.712   1.884 -1.1570  1.4521 -0.6312
 2082WAT     H2 6458   2.628   1.824   1.976  0.5843  0.2987  1.6893
 2083WAT      O 6459   3.804   4.876  -0.018  0.0186  0.9037 -0.2104
 2083WAT     H1 6460   3.777   4.785  -0.006  0.9704  0.7283  0.7776
 2083WAT     H2 6461   3.778   4.919   0.064  0.7596  1.2119 -0.1330
 2084WAT      O 6462   2.808   2.881   4.677  0.0687 -0.1779 -0.2479
 2084WAT     H1 6463   2.718   2.860   4.653  0.3374 -0.4846 -1.0028
 2084WAT     H2 6464   2.808   2.877   4.773 -1.4555  2.7693  0.0158
 2085WAT      O 6465   3.603   4.935   2.040 -0.9960 -0.0385  0.0006
 2085WAT     H1 6466   3.680   4.880   2.048 -0.2830  1.0845  1.2664
 2085WAT     H2 6467   3.620   4.990   1.964  0.2606  1.3382  1.2072
 2086WAT      O 6468   1.984   0.261   0.675 -0.2379 -0.2621  0.1009
 2086WAT     H1 6469   2.074   0.283   0.699 -0.3782 -1.1817  1.6211
 2086WAT     H2 6470   1.978   0.166   0.692 -1.1941 -0.4073 -0.9810
 2087WAT      O 6471   1.802   4.852   0.705 -0.0580  0.3325  0.0144
 2087WAT     H1 6472   1.893   4.850   0.734 -0.5898 -1.3539  1.7773
 2087WAT     H2 6473   1.760   4.916   0.764  0.2292  2.3677 -1.8496
 2088WAT      O 6474   0.617   1.157   4.384  0.2569  0.3477 -0.4913
 2088WAT     H1 6475   0.679   1.188   4.318  0.1125  1.3436 -0.1712
 2088WAT     H2 6476   0.550   1.110   4.333  1.0469 -0.3964 -0.8717
 2089WAT      O 6477   3.920   4.488   4.039  0.3795 -0.1005  0.7890
 2089WAT     H1 6478   3.892   4.572   4.002 -3.6555 -1.6359 -0.1752
 2089WAT     H2 6479   3.937   4.432   3.964  1.8912 -0.5237  1.4113
 2090WAT      O 6480   2.015   0.803   0.974  0.4511 -0.3269 -0.1117
 2090WAT     H1 6481   1.920   0.796   0.963  0.5751 -1.7750 -0.4554
 2090WAT     H2 6482   2.033   0.896   0.961 -1.0944  0.2551  1.5076
 2091WAT      O 6483   3.111   3.024   2.321  0.3018 -0.2728  0.0121
 2091WAT     H1 6484   3.183   3.045   2.380  0.0022 -0.2911  0.3830
 2091WAT     H2 6485   3.124   3.083   2.246  1.2960 -0.9895 -0.3967
 2092WAT      O 6486   2.816   2.207   3.476 -0.1010  0.0947 -0.0460
 2092WAT     H1 6487   2.904   2.187   3.507 -0.4128 -1.1606  0.0809
 2092WAT     H2 6488   2.767   2.227   3.556  0.3773  2.1852 -0.2267
 2093WAT      O 6489   3.111   0.031   4.735  0.3398 -0.2806  0.5671
 2093WAT     H1 6490   3.160  -0.041   4.774  2.6713  1.2781  0.7025
 2093WAT     H2 6491   3.106   0.097   4.805 -1.5281 -0.1453  0.3734
 2094WAT      O 6492   2.644   2.335   2.691 -0.1074 -0.0356 -0.2559
 2094WAT     H1 6493   2.622   2.264   2.750 -1.2457  0.1854 -0.4021
 2094WAT     H2 6494   2.560   2.376   2.669  0.4301  0.7448 -0.9355
 2095WAT      O 6495   2.469   2.639   4.407  0.0868 -0.1940 -0.0826
 2095WAT     H1 6496   2.523   2.671   4.334 -0.4534  2.3069  0.5134
 2095WAT     H2 6497   2.486   2.545   4.410  3.6195  0.3046 -0.5643
 2096WAT      O 6498   1.133   2.143   3.875 -0.7141 -0.4454  0.4237
 2096WAT     H1 6499   1.168   2.161   3.788 -0.3771 -0.0936  0.6299
 2096WAT     H2 6500   1.165   2.055   3.896  0.6990  0.1626  0.9235
 2097WAT      O 6501   3.969   4.211   1.469  0.0234  0.5133  0.0294
 2097WAT     H1 6502   4.047   4.195   1.416 -1.0917  1.0285 -1.8873
 2097WAT     H2 6503   3.925   4.127   1.473  0.0637  0.4936  0.0615
 2098WAT      O 6504   3.303   4.227   1.793 -0.2254 -0.4664 -0.0922
 2098WAT     H1 6505   3.254   4.145   1.787 -0.6128 -0.1526 -1.3351
 2098WAT     H2 6506   3.329   4.232   1.885 -3.5480 -0.0582  0.9697
 2099WAT      O 6507   2.585   0.233   0.183  0.2116  0.7324 -0.1861
 2099WAT     H1 6508   2.642   0.200   0.113  0.2999  1.2257 -0.3541
 2099WAT     H2 6509   2.561   0.155   0.233 -2.3072 -0.1677 -2.5210
 2100WAT      O 6510   1.177   1.987   4.551 -0.3736 -0.0559  0.4725
 2100WAT     H1 6511   1.239   2.014   4.484 -0.8055 -1.8150 -0.7012
 2100WAT     H2 6512   1.184   2.055   4.618  0.8483  1.2007 -0.8406
 2101WAT      O 6513   2.737   4.159   2.337  0.1736  0.0415 -0.2261
 2101WAT     H1 6514   2.780   4.126   2.415  1.2803  0.0295 -0.8216
 2101WAT     H2 6515   2.650   4.119   2.339  0.9953 -1.8630 -0.2254
 2102WAT      O 6516   0.981   0.729   5.226  0.0368  0.4727  0.0304
 2102WAT     H1 6517   0.929   0.689   5.296  0.1723  1.2050  0.5605
 2102WAT     H2 6518   0.971   0.670   5.152  0.2973 -0.5798  0.8217
 2103WAT      O 6519   1.404   2.023   2.998 -0.5151 -0.6349  0.5213
 2103WAT     H1 6520   1.389   1.929   3.006 -0.8157 -0.6162  0.1772
 2103WAT     H2 6521   1.393   2.042   2.904  0.4896 -0.4235  0.4327
 2104WAT      O 6522   0.686   3.173   1.647 -0.6537  0.0850  0.3569
 2104WAT     H1 6523   0.776   3.141   1.636 -1.0029 -0.3380 -1.8243
 2104WAT     H2 6524   0.696   3.254   1.698  1.0396  0.3597 -0.3203
 2105WAT      O 6525   1.471   4.672   0.711  0.4588 -0.6573  0.0888
 2105WAT     H1 6526   1.564   4.651   0.699  0.9094  0.7499  0.9457
 2105WAT     H2 6527   1.470   4.763   0.737 -1.2035 -0.5898 -0.0996
 2106WAT      O 6528   2.554   4.120   5.029 -0.4711 -0.0436  0.0359
 2106WAT     H1 6529   2.615   4.142   4.959  0.8639  0.6132  1.3671
 2106WAT     H2 6530   2.506   4.201   5.045 -0.7187 -0.1725 -0.0455
 2107WAT      O 6531   1.862   2.390   0.322 -0.4658 -0.3005  0.3108
 2107WAT     H1 6532   1.776   2.413   0.358  0.1758 -0.7454  2.2252
 2107WAT     H2 6533   1.881   2.461   0.260 -0.7935  1.6337  2.2933
 2108WAT      O 6534   0.482   0.217   3.181  0.0942  0.0342  0.0566
 2108WAT     H1 6535   0.424   0.153   3.222 -0.9355  0.6986 -0.3289
 2108WAT     H2 6536   0.490   0.187   3.091  0.5112 -0.1594  0.1554
 2109WAT      O 6537   2.148   2.098   0.956 -0.3139 -0.4291  0.2783
 2109WAT     H1 6538   2.149   2.083   0.862 -0.0222  1.0748  0.0167
 2109WAT     H2 6539   2.055   2.112   0.976 -0.2490  0.5313 -0.0296
 2110WAT      O 6540   2.307   1.485   2.209  0.1347 -0.2865  0.0521
 2110WAT     H1 6541   2.234   1.439   2.168 -0.8521  0.6743  0.6726
 2110WAT     H2 6542   2.344   1.539   2.140  0.2248 -0.7273 -0.2494
 2111WAT      O 6543   3.022   3.565   1.715 -0.7399  0.1955  0.2289
 2111WAT     H1 6544   3.100   3.565   1.769 -0.8565  1.3361  0.4320
 2111WAT     H2 6545   3.054   3.546   1.627 -0.3913 -0.4654  0.4954
 2112WAT      O 6546   3.373   3.622   3.511  0.2768  0.2401 -0.3062
 2112WAT     H1 6547   3.438   3.683   3.545 -1.0511  2.0857 -0.9356
 2112WAT     H2 6548   3.293   3.643   3.559  0.1752 -2.2744  0.7625
 2113WAT      O 6549   1.346   0.247   2.030  0.2569  0.3180  0.0600
 2113WAT     H1 6550   1.337   0.342   2.031  1.0082  0.4281 -1.2744
 2113WAT     H2 6551   1.429   0.229   2.075  0.5825  0.3725 -0.5094
 2114WAT      O 6552   2.339   0.810   1.795 -0.1861 -0.9281  0.3640
 2114WAT     H1 6553   2.314   0.719   1.806 -0.9532 -0.9047 -1.0585
 2114WAT     H2 6554   2.435   0.810   1.799 -0.1779 -1.2144  4.3807
 2115WAT      O 6555   1.578   3.444   1.961  0.1838 -0.3269  0.5756
 2115WAT     H1 6556   1.609   3.362   1.925  0.8696 -0.1226  0.6847
 2115WAT     H2 6557   1.491   3.455   1.925  1.2263  0.4056 -1.9004
 2116WAT      O 6558   2.795   1.830   2.867 -0.2925 -0.0097  0.3349
 2116WAT     H1 6559   2.761   1.754   2.818 -0.0964  0.8605 -1.2189
 2116WAT     H2 6560   2.885   1.839   2.836  1.0452 -1.4602  3.4068
 2117WAT      O 6561   4.273   4.422   0.986 -0.0325  0.2483 -0.5259
 2117WAT     H1 6562   4.336   4.362   1.026 -0.1120  0.7617  0.4008
 2117WAT     H2 6563   4.247   4.480   1.058 -0.3967  1.0134 -1.2621
 2118WAT      O 6564   2.907   1.630   3.406 -0.0857  0.8784  0.1398
 2118WAT     H1 6565   2.983   1.572   3.414 -0.0472  0.6826 -1.3671
 2118WAT     H2 6566   2.934   1.696   3.343 -1.4427  0.2889 -1.1321
 2119WAT      O 6567   0.745   4.590   1.712  0.3701 -0.1122 -0.0095
 2119WAT     H1 6568   0.700   4.635   1.641 -0.4585  3.1925  2.3753
 2119WAT     H2 6569   0.834   4.625   1.711  0.9020 -1.3979 -0.4300
 2120WAT      O 6570   2.106   0.800   2.716  0.1669 -0.3243  0.2891
 2120WAT     H1 6571   2.131   0.734   2.781  0.7207 -0.5923 -0.1855
 2120WAT     H2 6572   2.120   0.757   2.632 -1.8997 -0.5004 -0.0273
 2121WAT      O 6573   1.280   0.594   1.455 -0.7337  0.3437 -0.0340
 2121WAT     H1 6574   1.189   0.601   1.484 -0.2229  0.7826  1.5617
 2121WAT     H2 6575   1.320   0.531   1.515  0.9098  2.8814  1.7367
 2122WAT      O 6576   3.965   3.147   4.000 -0.0958  0.6249 -0.4980
 2122WAT     H1 6577   4.023   3.094   4.056 -2.6706 -1.1011  0.7496
 2122WAT     H2 6578   4.024   3.208   3.956  2.3603  0.7708  2.6209
 2123WAT      O 6579   3.361   3.126   4.570 -0.3591 -0.3099  0.3004
 2123WAT     H1 6580   3.432   3.175   4.529 -0.7204 -0.0991 -0.0694
 2123WAT     H2 6581   3.320   3.188   4.630 -1.3018  0.0838 -0.7270
 2124WAT      O 6582   3.227   1.176   5.102  0.2745 -0.2989 -0.5047
 2124WAT     H1 6583   3.170   1.247   5.072  1.2553  1.5515  1.6324
 2124WAT     H2 6584   3.286   1.160   5.029 -0.6461  0.3181 -1.4172
 2125WAT      O 6585   1.725   3.359   2.672  0.0832  0.3257  0.6152
 2125WAT     H1 6586   1.816   3.341   2.650  0.7248  1.0460  2.5011
 2125WAT     H2 6587   1.680   3.276   2.656  1.1484 -0.1764  0.1066
 2126WAT      O 6588   1.561   1.435   4.334  0.0871 -0.0517  0.3229
 2126WAT     H1 6589   1.647   1.478   4.336  0.4541 -0.7765  1.0463
 2126WAT     H2 6590   1.532   1.437   4.425 -0.6711  0.1913  0.0760
 2127WAT      O 6591   3.622   2.807   2.036 -0.5509 -0.4679 -0.0347
 2127WAT     H1 6592   3.636   2.785   2.128 -0.3864  2.9080  0.8965
 2127WAT     H2 6593   3.696   2.863   2.013 -0.6992 -1.0771 -2.1908
 2128WAT      O 6594   3.875   2.456   1.238 -0.2133 -0.0709 -0.2344
 2128WAT     H1 6595   3.947   2.507   1.201  0.2641 -0.7128 -0.2013
 2128WAT     H2 6596   3.876   2.477   1.331 -1.6008  1.7760 -0.5754
 2129WAT      O 6597   2.663   2.476   1.576  0.5021 -0.2080  0.1537
 2129WAT     H1 6598   2.691   2.387   1.597 -0.0439 -0.4310 -0.0620
 2129WAT     H2 6599   2.625   2.509   1.658 -1.0484 -0.8556 -0.2747
 2130WAT      O 6600   1.457   2.005   4.501 -0.1301  0.1911 -0.7546
 2130WAT     H1 6601   1.487   1.976   4.587  1.0223  0.5607 -1.0148
 2130WAT     H2 6602   1.489   2.095   4.493 -0.2776  0.1859 -1.5469
 2131WAT      O 6603   1.623   0.957   1.072 -0.2559 -0.0932 -0.0856
 2131WAT     H1 6604   1.597   1.020   1.005  0.1083 -0.6960 -0.8126
 2131WAT     H2 6605   1.613   0.871   1.030 -0.8992 -0.5444  0.9379
 2132WAT      O 6606   2.810   3.325   3.190 -0.1729 -0.5708  0.1907
 2132WAT     H1 6607   2.795   3.237   3.155 -0.5777  0.1657 -1.5721
 2132WAT     H2 6608   2.731   3.374   3.167 -0.1527  0.1491  1.5644
 2133WAT      O 6609   0.573   1.786   0.424 -0.2272  0.1120  0.0687
 2133WAT     H1 6610   0.479   1.787   0.442 -0.5446  1.2034 -1.4498
 2133WAT     H2 6611   0.591   1.872   0.385  1.4965  0.0966  0.7123
 2134WAT      O 6612   1.336   0.359   0.393 -1.1611  0.1553  0.0564
 2134WAT     H1 6613   1.334   0.274   0.437 -2.0082 -0.1632 -0.5635
 2134WAT     H2 6614   1.255   0.402   0.421 -0.8048  0.6998  0.2549
 2135WAT      O 6615   0.377   3.657   1.499 -0.2131  0.3377 -0.2170
 2135WAT     H1 6616   0.323   3.582   1.474  1.0496 -0.2734 -1.2041
 2135WAT     H2 6617   0.466   3.633   1.472  0.4530  1.5956  0.7610
 2136WAT      O 6618   1.991   5.052   0.373 -0.0650  0.5680  0.3316
 2136WAT     H1 6619   2.064   5.032   0.315 -0.3492  0.9634 -0.1639
 2136WAT     H2 6620   2.032   5.083   0.454  0.3398 -0.3111  0.4806
 2137WAT      O 6621   0.716   3.960   3.276  0.2571 -0.5212 -0.5087
 2137WAT     H1 6622   0.674   4.036   3.236 -0.8684 -0.6713  0.3437
 2137WAT     H2 6623   0.692   3.886   3.219 -0.3691 -0.5521 -0.2116
 2138WAT      O 6624   2.203   2.459   4.382  0.4260 -0.1659  0.5431
 2138WAT     H1 6625   2.249   2.504   4.452  1.1340 -0.3147  0.1836
 2138WAT     H2 6626   2.271   2.409   4.336  0.2352  0.9877 -1.0960
 2139WAT      O 6627   0.569   3.254   4.821  0.4238 -0.1260 -0.4085
 2139WAT     H1 6628   0.539   3.168   4.793  2.0725 -1.5088  1.7377
 2139WAT     H2 6629   0.648   3.270   4.771  2.0962 -1.5625  1.6040
 2140WAT      O 6630   1.088   3.477   3.823 -0.0757 -0.1069 -0.5285
 2140WAT     H1 6631   1.046   3.392   3.837  1.9355 -1.3140 -1.4030
 2140WAT     H2 6632   1.157   3.481   3.890 -0.9052  1.4166  0.2977
 2141WAT      O 6633   2.868   4.164   5.227 -0.1066 -0.1771  0.1024
 2141WAT     H1 6634   2.772   4.159   5.232 -0.3552  2.4214 -0.5880
 2141WAT     H2 6635   2.898   4.136   5.313 -1.5561 -0.0895  0.6617
 2142WAT      O 6636   0.043   1.221   3.438  0.1826 -0.4271 -0.2696
 2142WAT     H1 6637   0.081   1.277   3.370 -1.5187 -0.2087 -1.0953
 2142WAT     H2 6638  -0.017   1.278   3.485  1.7508 -0.4309  1.8371
 2143WAT      O 6639   4.267   2.408   3.249  0.1427 -0.1149 -0.0918
 2143WAT     H1 6640   4.320   2.470   3.299  2.2119 -1.5420 -0.4077
 2143WAT     H2 6641   4.326   2.373   3.182 -2.5806  1.9545 -3.9518
 2144WAT      O 6642   0.836   1.418   2.044  0.7062 -0.2381  0.3272
 2144WAT     H1 6643   0.892   1.470   2.102 -0.0784  1.5820 -0.4854
 2144WAT     H2 6644   0.748   1.454   2.056  0.1120 -1.4430 -0.2117
 2145WAT      O 6645   3.937   3.767   4.048  0.0725  0.1014 -0.3821
 2145WAT     H1 6646   3.850   3.808   4.050  0.6022  1.3436  3.1369
 2145WAT     H2 6647   3.975   3.797   3.965 -1.5825  2.4074 -0.4101
 2146WAT      O 6648   0.898   3.719   2.401  0.1106  0.2145 -0.2373
 2146WAT     H1 6649   0.972   3.660   2.385  0.6633  1.1244 -1.2016
 2146WAT     H2 6650   0.863   3.691   2.485  0.6901 -1.1294 -0.4086
 2147WAT      O 6651   3.956   0.558   0.655 -0.1725  0.1206  0.1076
 2147WAT     H1 6652   4.024   0.565   0.588 -1.0719 -0.1302 -0.8616
 2147WAT     H2 6653   3.894   0.494   0.620 -1.1407  0.6790  0.7597
 2148WAT      O 6654   1.074   4.540   4.884 -0.1340 -0.7475  0.0342
 2148WAT     H1 6655   1.164   4.572   4.888 -0.2459 -0.5409  1.4172
 2148WAT     H2 6656   1.065   4.506   4.795  0.9778  0.1806 -0.4680
 2149WAT      O 6657   2.421   1.943   1.070 -0.0060 -0.2319 -0.7065
 2149WAT     H1 6658   2.378   1.880   1.127  3.2419 -2.4389 -0.4173
 2149WAT     H2 6659   2.423   2.024   1.120 -1.8888 -0.6128  0.0424
 2150WAT      O 6660   1.695   3.628   2.679  0.2252  0.0946  0.1169
 2150WAT     H1 6661   1.720   3.536   2.668 -1.4658 -0.2478 -1.4791
 2150WAT     H2 6662   1.711   3.667   2.593 -0.5929  0.8619  0.2952
 2151WAT      O 6663   1.818   0.671   2.787 -0.5051 -0.3795  0.3826
 2151WAT     H1 6664   1.785   0.724   2.714 -0.3535 -1.1239 -0.2301
 2151WAT     H2 6665   1.908   0.702   2.799 -0.6983  0.1172  0.6207
 2152WAT      O 6666   1.232   3.477   1.443 -0.2930  0.1289  0.2679
 2152WAT     H1 6667   1.262   3.545   1.504  0.8430 -1.3613  1.4524
 2152WAT     H2 6668   1.178   3.419   1.496  0.4443 -1.0251 -0.2133
 2153WAT      O 6669   0.387   2.281   1.975  0.3579  0.1084  0.2979
 2153WAT     H1 6670   0.410   2.363   2.019 -0.3264 -1.4561  3.9564
 2153WAT     H2 6671   0.301   2.298   1.937  1.4279  1.8433 -1.5995
 2154WAT      O 6672   0.398   1.026   4.685 -0.1961  0.0867 -0.6085
 2154WAT     H1 6673   0.384   1.009   4.592  1.0669  2.0673 -1.2223
 2154WAT     H2 6674   0.482   1.072   4.688 -0.9831  1.5111  1.3371
 2155WAT      O 6675   0.857   3.080   1.899 -0.2396 -0.0953  0.0816
 2155WAT     H1 6676   0.872   3.092   1.993  0.6331 -0.1760 -0.0392
 2155WAT     H2 6677   0.797   3.152   1.876  0.5145  0.6843  0.4649
 2156WAT      O 6678   3.976   2.625   1.460 -0.0994  0.0279 -0.2733
 2156WAT     H1 6679   4.067   2.639   1.485 -0.5214  0.1197  1.2957
 2156WAT     H2 6680   3.948   2.708   1.422  0.3571  0.1205 -0.4142
 2157WAT      O 6681   1.633   1.480   1.012  0.2147 -0.4527  0.0170
 2157WAT     H1 6682   1.620   1.566   1.051 -1.2687 -0.5427 -0.2294
 2157WAT     H2 6683   1.717   1.487   0.965  0.6722  0.4838  0.9492
 2158WAT      O 6684   2.084   2.456   2.118 -0.4275 -0.2265 -0.5220
 2158WAT     H1 6685   2.142   2.530   2.104  1.0533 -0.7759  2.1757
 2158WAT     H2 6686   2.106   2.395   2.048  0.6050  0.5326 -0.8781
 2159WAT      O 6687   0.627   3.633   1.166  0.0221 -0.0862 -0.3567
 2159WAT     H1 6688   0.551   3.664   1.116  0.1533 -1.1371 -1.2441
 2159WAT     H2 6689   0.679   3.711   1.183 -1.6289  0.7972  0.9530
 2160WAT      O 6690   0.768   2.479   0.093  0.1687 -0.1467  0.4365
 2160WAT     H1 6691   0.805   2.458   0.179  1.0664  1.4016  0.4601
 2160WAT     H2 6692   0.709   2.553   0.110 -0.4111 -0.4667 -0.1350
 2161WAT      O 6693   1.228   2.754   3.011 -0.0679 -0.2886 -0.4991
 2161WAT     H1 6694   1.290   2.688   3.041  1.2455  0.6681 -1.0289
 2161WAT     H2 6695   1.175   2.774   3.088  2.0716  0.8410  0.7829
 2162WAT      O 6696   2.356   3.196   2.417 -0.2855  0.0074 -0.2833
 2162WAT     H1 6697   2.286   3.151   2.370  0.3924  2.2365 -3.7755
 2162WAT     H2 6698   2.323   3.284   2.431  0.7950  0.2998  0.6124
 2163WAT      O 6699   2.296   2.767   3.675  0.5428 -0.3204  0.3836
 2163WAT     H1 6700   2.217   2.726   3.638 -1.7730  1.4709  2.9175
 2163WAT     H2 6701   2.365   2.703   3.660 -1.8731 -3.1003  0.1182
 2164WAT      O 6702   1.897   2.836   4.598  0.0978  0.1124  0.6256
 2164WAT     H1 6703   1.966   2.775   4.573 -0.2405 -0.3314  0.7589
 2164WAT     H2 6704   1.817   2.800   4.559  0.0301  0.9353 -0.0284
 2165WAT      O 6705   2.475   4.119   1.887  0.9310 -0.5056  0.2213
 2165WAT     H1 6706   2.458   4.211   1.903  1.6970  0.5424 -3.8101
 2165WAT     H2 6707   2.400   4.073   1.925 -0.6488  1.9812  0.3001
 2166WAT      O 6708   1.286   0.965   4.089  0.1989 -0.6202  0.2351
 2166WAT     H1 6709   1.245   0.880   4.073 -0.2287 -0.5080  0.7099
 2166WAT     H2 6710   1.213   1.027   4.091  0.4645 -0.3066  0.3123
 2167WAT      O 6711   0.473   1.496   2.884 -0.4642 -0.1429 -0.4595
 2167WAT     H1 6712   0.438   1.505   2.795  0.6515  0.0673 -0.8882
 2167WAT     H2 6713   0.567   1.483   2.872 -0.2781  0.0283  0.7019
 2168WAT      O 6714   1.837   2.478   1.950 -0.7699  0.2820  0.1142
 2168WAT     H1 6715   1.912   2.482   1.890 -1.0935 -2.4775 -0.5852
 2168WAT     H2 6716   1.877   2.466   2.036 -0.3610 -1.5293 -0.2939
 2169WAT      O 6717   4.425   4.408   0.502 -0.2514 -0.1400 -0.9495
 2169WAT     H1 6718   4.384   4.483   0.545  2.0974  1.1046 -0.7353
 2169WAT     H2 6719   4.361   4.337   0.514 -1.8780  1.3951  0.1920
 2170WAT      O 6720   1.931   1.892   4.943  0.0005  0.0174  0.4839
 2170WAT     H1 6721   1.994   1.847   5.000  0.4111 -1.0231 -0.7394
 2170WAT     H2 6722   1.913   1.829   4.873 -0.4986  1.2519 -0.5347
 2171WAT      O 6723   2.999   2.939   3.579 -0.1274  0.0413 -0.5267
 2171WAT     H1 6724   2.929   2.952   3.514 -0.2778  0.6371 -0.2517
 2171WAT     H2 6725   3.080   2.953   3.529 -0.2527  0.8758 -0.5138
 2172WAT      O 6726   1.290   0.729   4.398  0.3714 -0.1727  0.3508
 2172WAT     H1 6727   1.369   0.683   4.427  2.3195  2.1365 -0.9204
 2172WAT     H2 6728   1.279   0.703   4.307 -0.3949 -0.5334  0.5414
 2173WAT      O 6729   3.092   5.061   2.491  0.2120  0.3305  0.1876
 2173WAT     H1 6730   3.010   5.101   2.463  0.2424  0.9906  0.9827
 2173WAT     H2 6731   3.085   4.969   2.464 -0.8637  0.3393  0.4019
 2174WAT      O 6732   4.467   4.298   3.594 -0.1390 -0.0623 -0.5572
 2174WAT     H1 6733   4.533   4.232   3.573  0.5347  0.2751  0.4024
 2174WAT     H2 6734   4.432   4.324   3.509 -1.2738 -2.4730 -0.9032
 2175WAT      O 6735   0.175   1.928   2.159  0.8662 -0.0116  0.2904
 2175WAT     H1 6736   0.209   1.886   2.080 -0.3572  0.0686 -0.3067
 2175WAT     H2 6737   0.141   2.012   2.129  0.9815  0.3001  1.0163
 2176WAT      O 6738   2.221   1.866   2.578  0.4024  0.6341  0.1308
 2176WAT     H1 6739   2.294   1.836   2.632  0.9372 -0.6311 -1.2307
 2176WAT     H2 6740   2.149   1.878   2.640  1.0152 -0.6794  1.1418
 2177WAT      O 6741   1.356   0.675   0.344  0.3924 -0.0966  0.6557
 2177WAT     H1 6742   1.284   0.614   0.329  0.1061  0.4791 -0.3912
 2177WAT     H2 6743   1.435   0.625   0.325  0.2808 -0.6773  1.6350
 2178WAT      O 6744   0.928   3.175   0.529 -0.2820 -0.3783 -0.5491
 2178WAT     H1 6745   0.836   3.178   0.504  0.2079  1.4686 -2.3719
 2178WAT     H2 6746   0.962   3.095   0.488 -0.8616 -0.5724 -0.6578
 2179WAT      O 6747   4.246   4.485   3.653 -0.1050  0.2682 -0.7042
 2179WAT     H1 6748   4.245   4.442   3.567 -0.4115 -0.9329 -0.1153
 2179WAT     H2 6749   4.304   4.431   3.706 -0.3365  0.7034 -0.0000
 2180WAT      O 6750   4.099   0.630   5.156  0.2499  0.0604 -0.3205
 2180WAT     H1 6751   4.114   0.704   5.097 -0.9388 -0.3681 -1.2008
 2180WAT     H2 6752   4.027   0.659   5.213  0.3537 -0.1015 -0.1054
 2181WAT      O 6753   1.037   3.312   0.745  0.3435 -0.3522 -0.1409
 2181WAT     H1 6754   1.014   3.247   0.679 -1.5096  1.1365 -1.1018
 2181WAT     H2 6755   0.956   3.362   0.757  1.4036  1.1216  1.2950
 2182WAT      O 6756   2.595   5.114   4.209  0.0348  0.2997 -0.4284
 2182WAT     H1 6757   2.637   5.071   4.284 -1.0174  0.4168  0.2627
 2182WAT     H2 6758   2.667   5.140   4.152  0.9378  1.1792  1.0610
 2183WAT      O 6759   1.562   2.034   0.515 -0.7978  0.6336 -0.2250
 2183WAT     H1 6760   1.621   1.970   0.474 -0.0658  0.8165  0.5232
 2183WAT     H2 6761   1.589   2.036   0.607 -0.3730  2.4672 -0.3531
 2184WAT      O 6762   3.206   4.570   0.988  0.3399  0.7783  0.0471
 2184WAT     H1 6763   3.276   4.545   1.048 -0.1605 -0.0818  0.2936
 2184WAT     H2 6764   3.247   4.569   0.901  0.5462 -0.1400  0.1404
 2185WAT      O 6765   2.173   4.708   4.699  0.3711  0.6458 -0.1206
 2185WAT     H1 6766   2.123   4.672   4.625  1.2220 -1.0608  0.0984
 2185WAT     H2 6767   2.120   4.688   4.776  0.6152  0.2813 -0.0453
 2186WAT      O 6768   1.922   0.032   1.370 -0.1125  0.7205 -0.4981
 2186WAT     H1 6769   1.947  -0.052   1.333 -0.2210  1.1208 -1.5012
 2186WAT     H2 6770   2.004   0.081   1.377 -0.0724  0.5995 -0.0671
 2187WAT      O 6771   1.179   5.119   3.147 -0.5053  0.2204 -0.2745
 2187WAT     H1 6772   1.102   5.088   3.099  0.2470 -0.6251 -0.9788
 2187WAT     H2 6773   1.219   5.183   3.088  0.6919 -1.1775 -1.0374
 2188WAT      O 6774   2.548   2.785   4.640 -0.0232 -0.2926  0.0782
 2188WAT     H1 6775   2.513   2.720   4.579 -1.1974  0.9474 -0.6063
 2188WAT     H2 6776   2.475   2.806   4.698  0.7613 -0.6288  1.2231
 2189WAT      O 6777   0.761   1.631   3.165  0.6726  0.5430 -0.3256
 2189WAT     H1 6778   0.796   1.645   3.253  0.5857  1.6514 -0.4505
 2189WAT     H2 6779   0.807   1.696   3.111 -0.0013  0.5494 -0.9030
 2190WAT      O 6780   3.495   1.591   0.499  0.3770 -0.3042 -0.3596
 2190WAT     H1 6781   3.512   1.596   0.405 -1.3748  2.6848 -0.6316
 2190WAT     H2 6782   3.499   1.682   0.529 -1.7671 -0.8599  1.9122
 2191WAT      O 6783   3.565   2.171   0.225 -0.2621 -0.2896  0.0170
 2191WAT     H1 6784   3.581   2.212   0.310 -0.6477  1.0438 -0.5128
 2191WAT     H2 6785   3.602   2.084   0.232 -2.2245 -1.0472  2.3095
 2192WAT      O 6786   0.498   2.474   0.266 -0.0856  0.2638  0.2617
 2192WAT     H1 6787   0.414   2.437   0.293 -0.1616  2.2066  3.1931
 2192WAT     H2 6788   0.475   2.545   0.206 -0.5048  0.3318  0.5013
 2193WAT      O 6789   0.202   2.385   4.334 -0.4657 -0.6846 -0.1508
 2193WAT     H1 6790   0.255   2.336   4.397 -0.5754 -0.4472  0.1347
 2193WAT     H2 6791   0.265   2.438   4.285 -0.3210 -1.3022 -0.6384
 2194WAT      O 6792   1.724   0.859   0.687 -0.3584  0.0871 -0.0942
 2194WAT     H1 6793   1.678   0.860   0.603  0.7485  1.0781 -0.7243
 2194WAT     H2 6794   1.816   0.869   0.663  0.1032 -0.8692  1.1822
 2195WAT      O 6795   0.094   5.094   4.876  0.7958  0.5578  0.4499
 2195WAT     H1 6796   0.098   5.100   4.972  2.1818  1.4522  0.3715
 2195WAT     H2 6797   0.030   5.160   4.851  0.6588  0.5408  0.7463
 2196WAT      O 6798   3.904   3.728   4.960 -0.4555 -0.0341 -0.0016
 2196WAT     H1 6799   3.882   3.811   5.002  1.1474  0.1173  0.6093
 2196WAT     H2 6800   3.903   3.664   5.031  0.4135 -0.1245 -0.0559
 2197WAT      O 6801   2.297   4.392   3.439 -0.0061 -0.1232  0.5626
 2197WAT     H1 6802   2.345   4.310   3.424 -1.9493 -1.2902  0.4547
 2197WAT     H2 6803   2.280   4.426   3.351  0.6729  0.3422  0.6037
 2198WAT      O 6804   0.928   1.634   3.741 -0.1398  0.3474 -0.5197
 2198WAT     H1 6805   0.876   1.569   3.695 -1.9245 -0.4174  2.3024
 2198WAT     H2 6806   0.896   1.630   3.832  0.4974  4.2952  0.0727
 2199WAT      O 6807   3.874   0.014   4.808 -0.1701  0.3722 -0.1767
 2199WAT     H1 6808   3.928   0.092   4.810  0.7898 -0.2501 -0.8010
 2199WAT     H2 6809   3.885  -0.020   4.719  0.2878 -1.0411  0.3941
 2200WAT      O 6810   0.686   4.965   3.391 -0.4142  0.1683  0.3566
 2200WAT     H1 6811   0.669   5.026   3.463 -0.9558 -0.5769  0.8791
 2200WAT     H2 6812   0.600   4.953   3.350  0.0265  1.1741 -0.9017
 2201WAT      O 6813   2.243   3.223   1.225 -0.2590 -0.9194  0.6080
 2201WAT     H1 6814   2.333   3.201   1.247 -0.8348 -1.7857  2.2206
 2201WAT     H2 6815   2.233   3.314   1.252  0.3654 -0.5191 -0.4336
 2202WAT      O 6816   2.128   2.866   5.243  0.0028 -0.0085 -0.2702
 2202WAT     H1 6817   2.034   2.878   5.255  0.0298 -0.4141  0.3727
 2202WAT     H2 6818   2.161   2.953   5.219 -0.5964  0.0456 -0.9208
 2203WAT      O 6819   0.263   3.500  -0.023 -0.5308 -0.1084 -0.3019
 2203WAT     H1 6820   0.299   3.470   0.060  0.7055  2.7875  0.3330
 2203WAT     H2 6821   0.300   3.587  -0.035 -1.4795 -0.0006 -3.4127
 2204WAT      O 6822   2.402   4.196   4.296 -0.3797  0.2281 -0.1908
 2204WAT     H1 6823   2.433   4.252   4.368 -2.0475  1.3116 -0.2526
 2204WAT     H2 6824   2.373   4.258   4.229 -0.7246 -0.7494 -0.9621
 2205WAT      O 6825   0.710   2.107   3.196 -0.0860  0.5424 -0.1359
 2205WAT     H1 6826   0.682   2.060   3.117  0.3322 -0.6960  0.4201
 2205WAT     H2 6827   0.797   2.141   3.174  0.1248  0.0108 -0.1455
 2206WAT      O 6828   1.595   3.414   3.437 -0.1361  0.3616 -0.9827
 2206WAT     H1 6829   1.681   3.375   3.451 -1.1879 -1.3211  1.4110
 2206WAT     H2 6830   1.556   3.363   3.366 -0.4099 -1.2043  0.2355
 2207WAT      O 6831   1.726   5.001   2.343  0.6310  0.6337 -0.5784
 2207WAT     H1 6832   1.783   5.016   2.267  0.4612 -0.4100 -0.9365
 2207WAT     H2 6833   1.641   5.036   2.317  0.5513  0.2030 -0.9171
 2208WAT      O 6834   0.084   4.907   1.048 -0.0663  0.0798  0.6731
 2208WAT     H1 6835   0.151   4.882   0.985 -0.6566  1.2763 -0.4879
 2208WAT     H2 6836   0.106   4.998   1.071 -1.7866  0.8157 -0.4526
 2209WAT      O 6837   3.115   3.289   1.980  0.5175 -0.4672  0.1796
 2209WAT     H1 6838   3.118   3.378   1.945 -0.5132 -0.5827 -0.2252
 2209WAT     H2 6839   3.111   3.300   2.075  2.5570 -0.1390  0.2712
 2210WAT      O 6840   2.464   4.538   0.764  0.8011  0.2179 -0.0528
 2210WAT     H1 6841   2.375   4.544   0.730  0.6969  1.1919  0.3477
 2210WAT     H2 6842   2.452   4.511   0.856  0.9573 -0.2588 -0.1700
 2211WAT      O 6843   0.616   2.563   0.598  0.1866  0.3785 -0.0465
 2211WAT     H1 6844   0.574   2.625   0.539 -2.0485 -2.3321 -1.5569
 2211WAT     H2 6845   0.571   2.574   0.681  0.7553  1.6277  0.1221
 2212WAT      O 6846   4.143   2.221   5.225 -0.0389 -0.4282  0.5964
 2212WAT     H1 6847   4.201   2.280   5.178 -0.7911 -0.3692 -0.2791
 2212WAT     H2 6848   4.121   2.153   5.161  1.3345 -2.0664  1.7622
 2213WAT      O 6849   0.872   3.869   2.152 -0.5561  0.4128  0.5269
 2213WAT     H1 6850   0.879   3.822   2.235  2.2768 -1.8522 -0.8087
 2213WAT     H2 6851   0.785   3.845   2.118 -1.0514 -0.0310  2.0165
 2214WAT      O 6852   0.483   0.052   0.689  0.0873 -0.4845 -0.5435
 2214WAT     H1 6853   0.538  -0.018   0.725 -1.2282 -0.1082  2.5058
 2214WAT     H2 6854   0.544   0.123   0.672  0.9344 -1.0012  0.2108
 2215WAT      O 6855   0.591   5.091   2.337  0.2929  0.3605  0.4012
 2215WAT     H1 6856   0.682   5.118   2.329  0.3374  0.2850  0.6538
 2215WAT     H2 6857   0.572   5.097   2.431 -0.3657  1.6886  0.2022
 2216WAT      O 6858   3.613   0.180   3.801 -0.5192  0.6972  0.2249
 2216WAT     H1 6859   3.614   0.193   3.706  0.0358 -1.6128 -0.1364
 2216WAT     H2 6860   3.552   0.247   3.833 -1.6434  0.7700 -1.8627
 2217WAT      O 6861   2.286   2.031   4.193 -0.2794 -0.2868  0.0001
 2217WAT     H1 6862   2.313   2.054   4.282  0.3027 -0.7884 -0.0478
 2217WAT     H2 6863   2.364   2.045   4.140 -0.5867 -0.1295 -0.4162
 2218WAT      O 6864   3.746   4.451   0.618 -0.5369 -0.0225  0.3646
 2218WAT     H1 6865   3.839   4.455   0.597 -0.6968  1.5627 -0.1589
 2218WAT     H2 6866   3.742   4.455   0.714 -0.0659 -0.2869  0.3960
 2219WAT      O 6867   3.005   3.814   4.729 -0.3886 -0.0009 -0.7455
 2219WAT     H1 6868   3.047   3.815   4.643 -0.0312 -0.8511 -0.5987
 2219WAT     H2 6869   2.956   3.896   4.734 -0.2045  0.1691 -1.6540
 2220WAT      O 6870   1.910   0.568   0.096 -0.0467  0.1885 -0.2518
 2220WAT     H1 6871   1.927   0.659   0.070  2.5132 -0.6846 -2.0236
 2220WAT     H2 6872   1.853   0.534   0.026  1.7103 -0.4236 -1.4443
 2221WAT      O 6873   4.488   1.524   5.053 -0.0276  0.0526  0.3351
 2221WAT     H1 6874   4.477   1.590   5.121 -0.5386  1.2911 -0.9128
 2221WAT     H2 6875   4.421   1.544   4.988  0.8550 -0.7006 -0.8606
 2222WAT      O 6876   2.738   1.691   0.756  0.5307 -0.1941  0.3040
 2222WAT     H1 6877   2.723   1.764   0.816  0.0122 -0.8584  0.9934
 2222WAT     H2 6878   2.751   1.733   0.671  0.3581  0.7116  0.7113
 2223WAT      O 6879   1.452   3.114   0.919 -0.1117  0.2733 -0.0624
 2223WAT     H1 6880   1.535   3.088   0.880  0.2227 -1.5471  1.6822
 2223WAT     H2 6881   1.400   3.033   0.920 -2.4265  1.5834 -2.1604
 2224WAT      O 6882   3.171   5.001   1.474 -0.6042 -0.3181  0.7412
 2224WAT     H1 6883   3.191   5.044   1.557 -0.8193 -0.0953  0.6795
 2224WAT     H2 6884   3.211   4.915   1.481 -1.6914 -0.7778  1.5782
 2225WAT      O 6885   3.935   0.035   4.533 -0.1717  0.2337  0.1008
 2225WAT     H1 6886   3.967   0.117   4.496  1.2017 -1.4202 -2.7784
 2225WAT     H2 6887   3.848   0.023   4.495 -0.1895  0.1654  0.1626
 2226WAT      O 6888   4.445   3.754   0.199  0.1775 -0.0675  0.1047
 2226WAT     H1 6889   4.530   3.740   0.157 -0.6349 -1.0772 -1.3099
 2226WAT     H2 6890   4.460   3.734   0.291  1.6229  0.4378 -0.0070
 2227WAT      O 6891   1.102   0.376   1.590  0.0938  0.4453 -0.2176
 2227WAT     H1 6892   1.046   0.453   1.590  0.4864  0.7433  0.2730
 2227WAT     H2 6893   1.064   0.319   1.657  0.3229  0.6161  0.0639
 2228WAT      O 6894   4.472   2.786   2.820  0.6056 -0.0718 -0.1413
 2228WAT     H1 6895   4.554   2.804   2.866  1.5105  0.6266 -1.9160
 2228WAT     H2 6896   4.497   2.728   2.747 -0.8533 -1.5659  0.4661
 2229WAT      O 6897   1.758   0.649   4.690  0.3623  0.4962  0.1898
 2229WAT     H1 6898   1.828   0.620   4.631 -1.6249 -1.0247 -1.6458
 2229WAT     H2 6899   1.780   0.611   4.775  0.4522 -2.3667 -0.9982
 2230WAT      O 6900   4.198   0.948   3.323  0.1271  0.0272  0.0773
 2230WAT     H1 6901   4.290   0.962   3.300 -0.2357 -0.5072 -1.9160
 2230WAT     H2 6902   4.173   0.869   3.273 -1.6955  0.8122 -0.3273
 2231WAT      O 6903   4.382   0.459   3.128  0.3129  0.3720  0.4199
 2231WAT     H1 6904   4.411   0.415   3.047  2.0026 -0.8494  1.6146
 2231WAT     H2 6905   4.407   0.399   3.198 -1.3697  1.2800  1.8676
 2232WAT      O 6906   4.195   3.402   2.210 -0.2605  0.1748  0.6741
 2232WAT     H1 6907   4.133   3.433   2.144  0.8113 -1.9217 -1.4558
 2232WAT     H2 6908   4.231   3.483   2.248 -1.5551  1.4491 -0.6667
 2233WAT      O 6909   3.862   0.609   4.767 -0.2711 -0.0840 -0.2872
 2233WAT     H1 6910   3.904   0.628   4.683 -2.5834  0.7188 -1.3494
 2233WAT     H2 6911   3.923   0.643   4.833  0.5741  1.3319 -1.7326
 2234WAT      O 6912   2.607   2.072   5.075  0.1359 -0.6603 -0.3339
 2234WAT     H1 6913   2.539   2.104   5.016  1.5498  1.5323 -0.9130
 2234WAT     H2 6914   2.686   2.119   5.048  1.0008 -0.0291  2.8606
 2235WAT      O 6915   2.138   3.136   4.350  0.0759 -0.0292 -0.2709
 2235WAT     H1 6916   2.070   3.202   4.362  0.8985  0.6006  1.0636
 2235WAT     H2 6917   2.217   3.174   4.387  0.7869 -1.4066 -0.2837
 2236WAT      O 6918   0.527   0.859   5.213  0.6773  0.2482  0.3544
 2236WAT     H1 6919   0.483   0.786   5.169 -1.1639  0.8747  1.0398
 2236WAT     H2 6920   0.552   0.919   5.143 -0.9282  0.5522 -0.0034
 2237WAT      O 6921   4.348   4.851   1.142 -0.2332  0.4985 -0.0354
 2237WAT     H1 6922   4.437   4.856   1.107 -0.2405 -1.4958 -0.4205
 2237WAT     H2 6923   4.297   4.808   1.073 -1.2118  0.4059  0.7207
 2238WAT      O 6924   2.528   3.624   2.468 -0.0371 -0.7584 -0.3737
 2238WAT     H1 6925   2.516   3.664   2.382  2.0255 -1.3466 -0.9826
 2238WAT     H2 6926   2.548   3.697   2.526 -1.1003 -0.3996 -0.4272
 2239WAT      O 6927   2.947   2.116   1.248  0.2670  0.2178  0.5723
 2239WAT     H1 6928   2.998   2.140   1.170  1.2719  1.9390  1.6778
 2239WAT     H2 6929   2.884   2.051   1.217  0.3818  1.1208 -1.7605
 2240WAT      O 6930   1.085   3.659   3.288  0.0789  0.2035  0.1584
 2240WAT     H1 6931   1.151   3.727   3.290 -0.0008  0.2778  0.3109
 2240WAT     H2 6932   1.105   3.603   3.364 -0.1264  0.3180  0.2999
 2241WAT      O 6933   2.275   4.947   5.106  0.1798 -0.1791 -0.0065
 2241WAT     H1 6934   2.275   4.852   5.099 -0.1864 -0.2967  1.2872
 2241WAT     H2 6935   2.192   4.974   5.068 -0.2561 -0.4814  0.7217
 2242WAT      O 6936   0.922   0.970   2.680  0.5050  0.4327  0.4318
 2242WAT     H1 6937   0.868   1.019   2.742 -0.5516  2.3291 -1.8448
 2242WAT     H2 6938   0.864   0.902   2.647  0.3671  0.7742 -0.0348
 2243WAT      O 6939   4.272   1.760   1.474 -0.7465 -0.6818  0.7874
 2243WAT     H1 6940   4.249   1.840   1.426  3.6722 -0.2960 -1.1445
 2243WAT     H2 6941   4.189   1.714   1.484 -3.0139  2.6373 -0.7924
 2244WAT      O 6942   0.234   2.496   3.052  0.3491  0.0224 -0.1683
 2244WAT     H1 6943   0.243   2.426   2.988 -0.1027 -1.4586  1.3327
 2244WAT     H2 6944   0.147   2.531   3.037 -0.7274 -1.9213  1.1102
 2245WAT      O 6945   3.504   2.836   4.175  0.0506  0.2206 -0.2563
 2245WAT     H1 6946   3.414   2.816   4.202  0.1070 -0.7191 -0.6988
 2245WAT     H2 6947   3.511   2.931   4.183 -0.8102  0.2505  0.3027
 2246WAT      O 6948   2.299   3.493   4.081 -0.0823  0.3616 -0.2747
 2246WAT     H1 6949   2.307   3.576   4.128 -0.1298  0.6664 -0.7905
 2246WAT     H2 6950   2.363   3.501   4.009 -0.7661  0.3536 -0.8974
 2247WAT      O 6951   0.482   0.613   2.600 -0.1244  1.0546  0.5262
 2247WAT     H1 6952   0.506   0.588   2.690 -1.7999  2.1623  1.3258
 2247WAT     H2 6953   0.433   0.537   2.567  0.7105  0.5424  0.4400
 2248WAT      O 6954   3.280   2.664   1.448  0.2843 -0.4355  0.1507
 2248WAT     H1 6955   3.270   2.731   1.516 -0.1492 -1.0966  0.7451
 2248WAT     H2 6956   3.343   2.602   1.486 -1.2337 -1.7034  0.6743
 2249WAT      O 6957   1.063   4.287   2.025 -0.3198 -0.2141  0.0131
 2249WAT     H1 6958   1.043   4.279   1.932 -0.3883  1.0713 -0.1015
 2249WAT     H2 6959   0.991   4.338   2.061  0.6166  0.8561  0.4161
 2250WAT      O 6960   4.120   3.920   1.662 -0.4098  0.0164  0.3652
 2250WAT     H1 6961   4.129   3.976   1.739 -2.2917 -0.4817  0.9942
 2250WAT     H2 6962   4.028   3.925   1.639  0.0939  0.0728 -1.8302
 2251WAT      O 6963   0.846   2.230   3.852  0.5743  0.0695 -0.3220
 2251WAT     H1 6964   0.939   2.207   3.853  0.5804  0.0806 -0.5331
 2251WAT     H2 6965   0.801   2.148   3.873  0.7371  0.7785  3.5023
 2252WAT      O 6966   1.183   1.759   5.224 -0.0800 -0.0612 -0.2185
 2252WAT     H1 6967   1.142   1.760   5.310 -0.4052 -0.4311 -0.3654
 2252WAT     H2 6968   1.110   1.748   5.163  0.0824  0.8273 -0.5837
 2253WAT      O 6969   1.679   3.165   1.906 -0.4331 -0.2585  0.2153
 2253WAT     H1 6970   1.704   3.126   1.989 -0.6555 -0.2545  0.2837
 2253WAT     H2 6971   1.611   3.108   1.871 -1.1288  0.3450  0.5586
 2254WAT      O 6972   0.585   4.319   2.867  0.2609 -0.2942  0.1577
 2254WAT     H1 6973   0.572   4.302   2.960  0.4090 -0.7680  0.0926
 2254WAT     H2 6974   0.660   4.265   2.843  1.9626  1.8155  0.3617
 2255WAT      O 6975   1.743   1.075   5.316  0.2685  0.5380  0.5549
 2255WAT     H1 6976   1.664   1.122   5.288  1.0124  1.7473  0.4135
 2255WAT     H2 6977   1.800   1.075   5.239 -0.1285 -1.5664  0.2229
 2256WAT      O 6978   1.147   2.325   1.774 -0.8240  0.2843  0.4234
 2256WAT     H1 6979   1.077   2.390   1.783 -0.2880  0.9991 -0.4196
 2256WAT     H2 6980   1.186   2.321   1.862 -0.3942  1.6679  0.3221
 2257WAT      O 6981   0.780   1.732   0.851  0.2457  0.3467 -0.6181
 2257WAT     H1 6982   0.760   1.814   0.895  0.0199  0.8600 -1.6604
 2257WAT     H2 6983   0.876   1.727   0.852  0.2611  0.6609 -0.6378
 2258WAT      O 6984   0.078   4.872   2.305 -0.1162 -0.1688 -0.0800
 2258WAT     H1 6985   0.131   4.872   2.226 -1.2455  0.4676 -0.8614
 2258WAT     H2 6986   0.100   4.954   2.349  0.3844 -0.4445  0.2022
 2259WAT      O 6987   2.984   1.753   0.863  0.3142 -0.1868 -0.0570
 2259WAT     H1 6988   2.949   1.828   0.910 -1.7560 -0.4428 -1.0505
 2259WAT     H2 6989   2.915   1.730   0.800  1.7036 -1.6980 -1.1244
 2260WAT      O 6990   1.731   1.009   2.229 -0.2599 -0.0261 -0.4475
 2260WAT     H1 6991   1.716   0.928   2.179  2.1224 -0.5839 -0.3834
 2260WAT     H2 6992   1.733   1.078   2.163  0.1236 -0.3784 -0.8137
 2261WAT      O 6993   0.683   0.190   0.069 -0.0620  0.1549  0.0095
 2261WAT     H1 6994   0.778   0.194   0.081 -0.1797 -0.2788  1.2262
 2261WAT     H2 6995   0.671   0.138  -0.010  0.7770  3.0670 -2.2255
 2262WAT      O 6996   2.467   1.768   2.670 -0.2920  0.1959 -0.0941
 2262WAT     H1 6997   2.504   1.856   2.672 -0.7766  0.4080  2.2399
 2262WAT     H2 6998   2.533   1.713   2.713 -0.2092 -0.5160 -1.0890
 2263WAT      O 6999   1.892   4.857   1.951  0.0557 -0.2809  0.0485
 2263WAT     H1 7000   1.805   4.829   1.924 -0.3883 -0.3561  1.4979
 2263WAT     H2 7001   1.951   4.815   1.888 -0.9035 -0.6843 -0.6063
 2264WAT      O 7002   3.619   2.716   3.959  0.0486  0.6213 -0.2077
 2264WAT     H1 7003   3.579   2.761   4.033  0.8687  1.7530 -0.4161
 2264WAT     H2 7004   3.613   2.780   3.887 -0.1232 -0.1981 -0.9424
 2265WAT      O 7005   0.205   0.304   4.569  0.4621  0.4305  0.2945
 2265WAT     H1 7006   0.194   0.293   4.664  0.9827  0.3817  0.3565
 2265WAT     H2 7007   0.163   0.226   4.532 -0.3145  0.7715  0.4442
 2266WAT      O 7008   3.588   4.359   3.324  0.4285  0.1865 -0.1177
 2266WAT     H1 7009   3.552   4.446   3.303  0.1354 -0.4528 -2.4389
 2266WAT     H2 7010   3.565   4.304   3.250  0.0264 -2.1026  1.5846
 2267WAT      O 7011   4.240   2.398   0.369 -0.3863 -0.5939  0.1036
 2267WAT     H1 7012   4.168   2.411   0.307 -0.1332  0.7753  0.0614
 2267WAT     H2 7013   4.316   2.434   0.325  0.0180 -0.6284  0.7608
 2268WAT      O 7014   3.098   3.776   0.915 -0.1777 -0.5840  0.2764
 2268WAT     H1 7015   3.061   3.695   0.881  1.2362 -0.7900 -0.8688
 2268WAT     H2 7016   3.024   3.836   0.921 -1.0007 -1.5335 -0.1860
 2269WAT      O 7017   1.661   2.266   4.132  0.6313  0.0664  0.1502
 2269WAT     H1 7018   1.692   2.354   4.153  1.5291 -0.0109 -0.7522
 2269WAT     H2 7019   1.572   2.279   4.101  0.7623  0.6717  0.0058
 2270WAT      O 7020   1.957   0.709   2.366 -0.0854 -0.0667  0.5104
 2270WAT     H1 7021   2.033   0.679   2.415 -1.0756  0.0751  2.1936
 2270WAT     H2 7022   1.894   0.637   2.373  0.1740 -0.5853 -1.6687
 2271WAT      O 7023   0.989   2.813   1.160 -0.1604 -0.0932  0.2148
 2271WAT     H1 7024   0.893   2.816   1.165 -0.2466  0.8674 -1.4081
 2271WAT     H2 7025   1.009   2.736   1.108 -0.0602 -0.0793  0.2316
 2272WAT      O 7026   2.319   3.451   3.520  0.2859 -0.6384  0.0081
 2272WAT     H1 7027   2.375   3.402   3.581  1.9241  0.0469 -0.8921
 2272WAT     H2 7028   2.303   3.389   3.449 -0.2855 -0.9035  0.3628
 2273WAT      O 7029   4.056   0.069   2.643 -0.4503  0.3588  0.1416
 2273WAT     H1 7030   4.000   0.077   2.565  0.2876 -0.1775 -0.4552
 2273WAT     H2 7031   4.030   0.142   2.699  0.8437  2.3972 -1.7684
 2274WAT      O 7032   0.565   2.991   4.707  0.1199 -0.1333 -0.4180
 2274WAT     H1 7033   0.627   2.925   4.675 -1.0831 -0.4523 -2.2669
 2274WAT     H2 7034   0.479   2.956   4.681 -0.6555  1.3764  0.0500
 2275WAT      O 7035   2.424   0.255   4.850 -0.1627 -0.0019 -0.3101
 2275WAT     H1 7036   2.398   0.347   4.850 -0.6150 -0.0798  1.7343
 2275WAT     H2 7037   2.345   0.208   4.878  0.4169 -0.8692 -0.0956
 2276WAT      O 7038   0.385   2.987   2.531 -0.0289  0.9061  0.0728
 2276WAT     H1 7039   0.443   2.990   2.455 -0.9335  1.8501 -0.6125
 2276WAT     H2 7040   0.298   2.971   2.495 -0.1160 -1.4439  1.1596
 2277WAT      O 7041   1.531   3.554   0.418 -0.2980  0.5219  0.5332
 2277WAT     H1 7042   1.494   3.496   0.484 -1.1460 -0.0068 -0.3681
 2277WAT     H2 7043   1.595   3.499   0.371 -0.6990  0.4705  0.0365
 2278WAT      O 7044   1.740   4.317   0.282  0.3785  0.0178 -0.0857
 2278WAT     H1 7045   1.696   4.368   0.350  1.5197  1.8162 -0.5983
 2278WAT     H2 7046   1.690   4.236   0.275  0.1567 -0.1737  2.7858
 2279WAT      O 7047   0.369   1.783   3.661 -0.3336  0.0305  0.8361
 2279WAT     H1 7048   0.399   1.700   3.622 -1.8851 -0.7643  1.2526
 2279WAT     H2 7049   0.279   1.792   3.633 -0.4884  1.0951  1.5996
 2280WAT      O 7050   0.854   2.895   0.226 -0.0970  0.5341  0.3628
 2280WAT     H1 7051   0.914   2.931   0.161 -1.1239  1.8590  0.1089
 2280WAT     H2 7052   0.768   2.897   0.184 -0.5671  0.1229  1.2708
 2281WAT      O 7053   3.174   4.515   5.284 -0.0528 -0.0980  1.0169
 2281WAT     H1 7054   3.129   4.487   5.364  0.4753 -0.6047  1.1467
 2281WAT     H2 7055   3.127   4.470   5.214  0.3415 -0.7555  1.1661
 2282WAT      O 7056   2.130   5.072   1.794 -0.1427  0.2836  0.1623
 2282WAT     H1 7057   2.053   5.102   1.746  1.4051  2.3197 -1.1898
 2282WAT     H2 7058   2.156   5.147   1.847  0.5541 -0.5890  1.0879
 2283WAT      O 7059   1.846   4.234   1.981  0.2115 -0.2913 -0.0839
 2283WAT     H1 7060   1.899   4.260   1.906 -0.4789 -1.3689 -0.9652
 2283WAT     H2 7061   1.910   4.213   2.049  0.8386  0.7335 -0.3238
 2284WAT      O 7062   4.451   4.985   3.963  0.4172  0.2385  0.1330
 2284WAT     H1 7063   4.534   4.940   3.980  0.2680  0.3791  1.3317
 2284WAT     H2 7064   4.476   5.077   3.951  0.5972  0.0400 -1.1847
 2285WAT      O 7065   1.419   1.782   4.766 -0.0998  0.3373 -0.0131
 2285WAT     H1 7066   1.415   1.872   4.798  0.6002  1.1457 -2.0340
 2285WAT     H2 7067   1.491   1.742   4.814  2.0608  2.0260 -1.6409
 2286WAT      O 7068   1.180   3.088   3.462  0.3596 -0.1729  0.2618
 2286WAT     H1 7069   1.245   3.145   3.421 -0.6381  2.0720  1.5953
 2286WAT     H2 7070   1.098   3.135   3.454 -0.2271 -0.5462  2.9233
 2287WAT      O 7071   0.640   1.270   1.240 -0.1103  0.6814  0.0207
 2287WAT     H1 7072   0.719   1.241   1.193 -0.6320 -2.7392  1.0035
 2287WAT     H2 7073   0.670   1.284   1.330 -0.8034 -2.3738  0.8285
 2288WAT      O 7074   3.050   4.729   3.833 -0.1167  0.1014  0.1820
 2288WAT     H1 7075   3.111   4.659   3.809  1.4339  1.5963 -0.5120
 2288WAT     H2 7076   2.965   4.700   3.800  0.2830 -1.8527  0.7574
 2289WAT      O 7077   4.290   3.450   4.055  0.3159 -0.2066 -0.0536
 2289WAT     H1 7078   4.292   3.528   3.999 -0.7089  0.3820  0.6957
 2289WAT     H2 7079   4.380   3.442   4.087  0.8186 -0.3087 -1.4258
 2290WAT      O 7080   0.990   1.320   2.687  0.1954  0.7874 -0.0394
 2290WAT     H1 7081   0.967   1.388   2.625 -4.8141 -2.4977 -2.4546
 2290WAT     H2 7082   1.022   1.248   2.633  1.3648 -0.2586  1.9162
 2291WAT      O 7083   1.238   2.237   1.509  0.1403  0.0233 -0.3858
 2291WAT     H1 7084   1.194   2.261   1.590  0.3081  0.2518 -0.3631
 2291WAT     H2 7085   1.321   2.198   1.537 -0.2130 -0.7826 -0.4111
 2292WAT      O 7086   2.216   1.695   3.878  0.1518  0.0777 -0.4845
 2292WAT     H1 7087   2.195   1.656   3.963  1.8411  0.0760 -0.0233
 2292WAT     H2 7088   2.259   1.624   3.829  1.5429  0.7786 -0.3385
 2293WAT      O 7089   4.167   5.096   4.643  0.3489  0.5557  0.3684
 2293WAT     H1 7090   4.104   5.134   4.582 -1.1536 -1.7759  0.3587
 2293WAT     H2 7091   4.252   5.125   4.611 -0.5418  1.2138 -1.5095
 2294WAT      O 7092   3.871   3.959   1.495 -0.0481 -0.1739  0.3217
 2294WAT     H1 7093   3.878   3.900   1.419  1.0597  0.0135  0.2711
 2294WAT     H2 7094   3.779   3.953   1.521 -0.4215 -0.3416 -0.9639
 2295WAT      O 7095   2.855   3.429   0.574 -0.7225 -0.0704 -0.2552
 2295WAT     H1 7096   2.867   3.414   0.480 -2.1182 -0.9311 -0.3277
 2295WAT     H2 7097   2.765   3.462   0.581  0.0458  1.9676  0.6037
 2296WAT      O 7098   2.359   4.868   0.078 -0.7618 -0.3873 -0.5979
 2296WAT     H1 7099   2.395   4.780   0.065  0.3802  0.0003 -0.2216
 2296WAT     H2 7100   2.353   4.904  -0.010 -0.6137 -0.6104 -0.7022
 2297WAT      O 7101   3.993   2.342   4.133 -0.2211  0.1907  0.4021
 2297WAT     H1 7102   3.935   2.376   4.201  0.6396  2.6593 -0.0067
 2297WAT     H2 7103   4.078   2.334   4.176  0.0497  0.5983 -0.0491
 2298WAT      O 7104   0.401   0.585   0.312 -0.3331 -0.5914 -0.2017
 2298WAT     H1 7105   0.422   0.679   0.305  0.4936 -0.6314  1.2655
 2298WAT     H2 7106   0.444   0.545   0.237  0.9931 -0.0307  0.2259
 2299WAT      O 7107   3.061   4.773   4.115  0.5568 -0.1791 -0.0576
 2299WAT     H1 7108   3.063   4.781   4.020  1.7075  1.1469  0.0498
 2299WAT     H2 7109   3.126   4.705   4.135  0.8465  0.0607 -0.1810
 2300WAT      O 7110   3.824   0.872   3.413  0.6602  0.2430  0.5185
 2300WAT     H1 7111   3.901   0.846   3.465 -1.4109 -0.7924  3.3134
 2300WAT     H2 7112   3.829   0.819   3.334  1.3900 -1.9364  1.9359
 2301WAT      O 7113   1.469   0.823   2.935 -0.3336 -0.1161  0.9891
 2301WAT     H1 7114   1.379   0.794   2.947 -0.5694  0.5887  0.9707
 2301WAT     H2 7115   1.467   0.917   2.952  0.3847 -0.0759  0.9176
 2302WAT      O 7116   4.354   2.902   1.462 -0.2282 -1.0693 -0.2203
 2302WAT     H1 7117   4.429   2.931   1.410  0.1735  0.0077  0.9077
 2302WAT     H2 7118   4.295   2.977   1.461  0.0176 -0.8255  1.2580
 2303WAT      O 7119   0.034   0.610   0.909 -0.0404 -0.0554  0.2091
 2303WAT     H1 7120   0.017   0.537   0.849 -2.8832  0.2418  0.5038
 2303WAT     H2 7121   0.018   0.688   0.856 -0.6732  0.2565  0.8486
 2304WAT      O 7122   0.976   1.081   4.679  0.2411  0.3236 -0.2763
 2304WAT     H1 7123   0.907   1.046   4.622  1.3500 -0.8970 -0.9229
 2304WAT     H2 7124   0.933   1.094   4.764 -0.8340 -0.2087 -0.7270
 2305WAT      O 7125   3.904   0.477   2.606  0.3922 -0.3415  0.1775
 2305WAT     H1 7126   3.978   0.473   2.546  0.0373 -0.8186 -0.2452
 2305WAT     H2 7127   3.870   0.387   2.607 -0.7823  0.0700 -0.4222
 2306WAT      O 7128   4.213   1.138   1.867  0.0633 -0.5466 -0.1034
 2306WAT     H1 7129   4.242   1.123   1.777 -0.4676 -1.5484 -0.1219
 2306WAT     H2 7130   4.125   1.101   1.870 -0.8237  1.4315  0.2510
 2307WAT      O 7131   3.265   4.615   2.274  0.0056 -0.2988  0.1613
 2307WAT     H1 7132   3.307   4.698   2.295  1.0303 -0.0022 -2.6443
 2307WAT     H2 7133   3.322   4.549   2.314  1.7501  0.2291 -1.3192
 2308WAT      O 7134   4.465   2.019   3.256 -1.1597  0.5224 -0.6480
 2308WAT     H1 7135   4.482   2.032   3.349  1.3375  0.2278 -1.0036
 2308WAT     H2 7136   4.410   1.941   3.252  0.6057 -0.8533  0.5189
 2309WAT      O 7137   0.561   1.496   0.512  0.2954 -0.0119  0.2452
 2309WAT     H1 7138   0.583   1.504   0.605 -0.8568 -1.9511  0.7490
 2309WAT     H2 7139   0.598   1.574   0.472  2.2198  0.1076  2.0603
 2310WAT      O 7140   4.222   0.632   3.282 -0.3417  0.5871 -0.1099
 2310WAT     H1 7141   4.310   0.668   3.297 -0.7370  0.8899  1.7143
 2310WAT     H2 7142   4.237   0.539   3.264  0.2495 -0.0188  2.9764
 2311WAT      O 7143   1.710   4.192   4.318  0.2372 -0.2444  0.1747
 2311WAT     H1 7144   1.707   4.280   4.356 -1.8629 -0.2130  0.0245
 2311WAT     H2 7145   1.709   4.133   4.394  0.4507 -0.1631  0.2425
 2312WAT      O 7146   2.582   4.448   3.985  0.2611 -0.2991 -0.2518
 2312WAT     H1 7147   2.641   4.519   4.011 -0.1647  0.3767 -1.1161
 2312WAT     H2 7148   2.568   4.461   3.892 -1.9037  0.0411  0.0757
 2313WAT      O 7149   1.348   2.715   0.856 -0.1224  0.1753 -0.0332
 2313WAT     H1 7150   1.327   2.622   0.863  0.6225 -0.0564 -0.7314
 2313WAT     H2 7151   1.427   2.726   0.909 -1.3865  0.8577  1.8227
 2314WAT      O 7152   4.018   3.879   4.515 -0.1119 -0.0894 -0.1505
 2314WAT     H1 7153   3.946   3.929   4.476  1.5541  0.4059 -2.8947
 2314WAT     H2 7154   4.059   3.834   4.440  3.5237  1.1536  0.8936
 2315WAT      O 7155   3.173   3.303   0.828 -0.7296 -0.5095 -0.2321
 2315WAT     H1 7156   3.092   3.353   0.835 -0.2954 -0.0147  1.8642
 2315WAT     H2 7157   3.212   3.307   0.915  2.3427  0.5937 -1.5030
 2316WAT      O 7158   2.654   3.375   2.780 -0.0815 -0.4624 -0.0696
 2316WAT     H1 7159   2.714   3.351   2.709  0.1996 -0.3231  0.1220
 2316WAT     H2 7160   2.698   3.446   2.826 -0.3538 -0.4202  0.1274
 2317WAT      O 7161   3.571   0.972   1.557  0.5991  0.1142 -0.1842
 2317WAT     H1 7162   3.625   1.047   1.530 -1.3613  2.7658  2.6797
 2317WAT     H2 7163   3.611   0.941   1.638 -1.5573  1.6271  1.5652
 2318WAT      O 7164   0.651   4.390   1.433 -0.4631  0.6955  0.0838
 2318WAT     H1 7165   0.595   4.444   1.376 -1.7700 -0.6846 -0.0150
 2318WAT     H2 7166   0.599   4.378   1.513  0.7692  1.4444  1.0397
 2319WAT      O 7167   4.106   3.305   1.667 -0.1972  0.3579  0.3188
 2319WAT     H1 7168   4.127   3.335   1.578  0.5398  0.6183  0.5773
 2319WAT     H2 7169   4.088   3.385   1.716 -1.0285  0.1883  0.3062
 2320WAT      O 7170   0.748   3.239   2.978 -0.4787 -0.4163 -0.3610
 2320WAT     H1 7171   0.685   3.187   3.027 -0.3415 -0.3443 -0.1011
 2320WAT     H2 7172   0.701   3.319   2.956 -0.6743 -0.6332 -0.7210
 2321WAT      O 7173   0.262   4.520   2.648  0.1730  0.1082  0.2740
 2321WAT     H1 7174   0.176   4.534   2.688  0.3336  0.3079  0.5506
 2321WAT     H2 7175   0.325   4.535   2.719  0.4708  0.6928 -0.1048
 2322WAT      O 7176   2.160   4.094   1.422 -0.1385  0.1573  0.5477
 2322WAT     H1 7177   2.241   4.065   1.465 -0.2838 -0.9734  0.1105
 2322WAT     H2 7178   2.111   4.013   1.407 -1.5376  0.8669  1.1533
 2323WAT      O 7179   4.076   2.518   0.825 -0.7234  0.2846  0.1866
 2323WAT     H1 7180   4.066   2.594   0.881  0.1378  0.9160 -0.4763
 2323WAT     H2 7181   4.025   2.540   0.746  1.4745  1.2970 -1.0436
 2324WAT      O 7182   0.603   3.972   4.724  0.4726  0.7665  0.4624
 2324WAT     H1 7183   0.611   3.882   4.692 -1.2316  0.4913  0.7146
 2324WAT     H2 7184   0.585   3.963   4.817  0.5171  1.3863  0.5347
 2325WAT      O 7185   3.753   2.214   4.805 -0.1880 -0.7909 -0.2089
 2325WAT     H1 7186   3.665   2.214   4.842 -0.7477 -1.2505 -1.4844
 2325WAT     H2 7187   3.769   2.123   4.780 -0.2313 -0.3593 -1.9291
 2326WAT      O 7188   1.797   0.585   0.741 -0.1672  0.1401 -0.3213
 2326WAT     H1 7189   1.758   0.529   0.674 -2.2312  1.6922 -0.5511
 2326WAT     H2 7190   1.791   0.673   0.703  5.4200  0.4616 -1.1795
 2327WAT      O 7191   3.196   0.084   0.860 -0.1702 -0.1114 -0.2723
 2327WAT     H1 7192   3.277   0.034   0.851 -0.5172 -0.6991 -0.1757
 2327WAT     H2 7193   3.195   0.112   0.952  1.3055  2.3296 -0.8947
 2328WAT      O 7194   0.768   1.305   4.189  0.2302 -0.5046 -0.0804
 2328WAT     H1 7195   0.799   1.325   4.100 -1.7811 -0.4242 -0.8221
 2328WAT     H2 7196   0.814   1.367   4.245  2.2409 -1.1490 -0.8976
 2329WAT      O 7197   1.918   2.794   1.789 -0.2428 -0.2421 -0.5855
 2329WAT     H1 7198   1.830   2.832   1.790 -0.0292  0.3200 -1.6303
 2329WAT     H2 7199   1.964   2.838   1.860  0.4271  2.5841 -2.6419
 2330WAT      O 7200   3.026   4.702   2.818 -0.3707  0.1525 -0.4235
 2330WAT     H1 7201   2.993   4.762   2.752 -0.7155  0.3768 -0.0476
 2330WAT     H2 7202   3.095   4.750   2.863 -0.7358  0.3188 -0.0352
 2331WAT      O 7203   2.468   3.470   3.870 -0.1392  0.6268 -0.3090
 2331WAT     H1 7204   2.544   3.527   3.854 -0.8181  1.5252 -0.3723
 2331WAT     H2 7205   2.469   3.408   3.797  0.7151  0.4239 -0.1420
 2332WAT      O 7206   0.251   4.613   4.299 -0.4656 -0.2314 -0.4175
 2332WAT     H1 7207   0.282   4.699   4.270 -1.4907  0.0173 -0.8219
 2332WAT     H2 7208   0.193   4.584   4.230 -0.8091 -0.8697  0.1249
 2333WAT      O 7209   1.264   1.698   0.998 -0.1854  0.1408  0.3018
 2333WAT     H1 7210   1.292   1.627   1.057  1.9040  0.2877 -0.4500
 2333WAT     H2 7211   1.288   1.668   0.911 -1.2616  0.8747 -0.2742
 2334WAT      O 7212   3.200   0.491   3.292  0.2523  0.5217 -0.4695
 2334WAT     H1 7213   3.282   0.511   3.336  0.2672 -0.9199  0.2074
 2334WAT     H2 7214   3.134   0.545   3.336  0.3777 -0.4065  0.9274
 2335WAT      O 7215   0.215   3.298   5.079 -0.4816 -0.1227  0.3755
 2335WAT     H1 7216   0.238   3.371   5.137 -1.5226 -0.1513  0.8547
 2335WAT     H2 7217   0.267   3.313   5.000 -1.5090  1.8109 -0.0107
 2336WAT      O 7218   3.099   3.610   2.574 -0.4133 -0.4421 -0.2444
 2336WAT     H1 7219   3.050   3.529   2.561  0.9708 -1.4620  0.5621
 2336WAT     H2 7220   3.067   3.645   2.657  0.0997 -1.0396  0.2189
 2337WAT      O 7221   1.083   1.571   4.773  0.7136 -0.3045 -0.5483
 2337WAT     H1 7222   1.054   1.495   4.722  0.8252 -1.0635  0.4878
 2337WAT     H2 7223   1.045   1.558   4.860  0.8657  0.7501 -0.3094
 2338WAT      O 7224   0.153   1.302   1.256  0.2567 -0.4621 -0.3767
 2338WAT     H1 7225   0.191   1.389   1.263  0.2477 -0.6048  2.0640
 2338WAT     H2 7226   0.215   1.244   1.299 -1.3389 -1.1054  1.1990
 2339WAT      O 7227   0.673   1.193   5.201  0.1006  0.5662  0.3005
 2339WAT     H1 7228   0.728   1.255   5.249  0.2664  0.3650  0.3738
 2339WAT     H2 7229   0.643   1.242   5.124 -1.0616  1.2281  1.1641
 2340WAT      O 7230   3.981   2.725   0.279  0.6542  0.7069 -0.1034
 2340WAT     H1 7231   3.968   2.816   0.308  1.0415  1.1310 -1.2218
 2340WAT     H2 7232   4.019   2.682   0.356 -0.9562  1.0880  0.9636
 2341WAT      O 7233   0.476   0.541   4.071 -0.1886 -0.3329 -0.3358
 2341WAT     H1 7234   0.423   0.602   4.122  0.3120 -0.8175  0.8006
 2341WAT     H2 7235   0.565   0.576   4.077 -0.3441  0.5227 -2.2959
 2342WAT      O 7236   1.849   1.469   0.214 -0.2146 -0.2408  0.0390
 2342WAT     H1 7237   1.888   1.553   0.236 -1.2381 -0.0236  1.1360
 2342WAT     H2 7238   1.918   1.405   0.231  0.1926  0.2712  0.3340
 2343WAT      O 7239   3.974   4.725   0.787 -0.3885  0.1616 -0.0313
 2343WAT     H1 7240   3.894   4.678   0.808 -0.6999 -0.4455 -2.2917
 2343WAT     H2 7241   3.948   4.817   0.783 -1.5451 -0.2012 -2.7877
 2344WAT      O 7242   3.368   1.124   4.878 -0.5625 -0.1403 -0.1937
 2344WAT     H1 7243   3.455   1.131   4.839 -0.6003  0.8415 -0.1325
 2344WAT     H2 7244   3.309   1.113   4.803 -0.6104  1.5018 -0.4289
 2345WAT      O 7245   0.567   2.073   1.515  0.1069  0.5164 -0.2144
 2345WAT     H1 7246   0.587   1.984   1.487  1.6786  1.1073 -1.0557
 2345WAT     H2 7247   0.539   2.064   1.606  1.2905 -0.7244  0.0441
 2346WAT      O 7248   3.912   2.599   4.739 -0.5337  0.1899  0.3784
 2346WAT     H1 7249   3.882   2.682   4.700  0.3784  0.3391 -0.0241
 2346WAT     H2 7250   3.897   2.535   4.670 -0.9746  0.0653  0.5878
 2347WAT      O 7251   1.370   4.394   4.500 -0.3468 -0.0053 -0.2594
 2347WAT     H1 7252   1.375   4.309   4.543  0.2149 -0.6225 -1.4826
 2347WAT     H2 7253   1.424   4.384   4.421 -3.9635 -0.0558 -2.9887
 2348WAT      O 7254   0.756   3.899   2.604 -0.4748 -0.4374  0.0726
 2348WAT     H1 7255   0.668   3.879   2.636 -0.0835  0.0245  1.5319
 2348WAT     H2 7256   0.801   3.814   2.604 -0.7161 -0.5643  0.0333
 2349WAT      O 7257   3.797   0.422   0.463 -0.0976  0.1310  0.3510
 2349WAT     H1 7258   3.707   0.399   0.485 -0.7828  1.8340 -0.5032
 2349WAT     H2 7259   3.807   0.394   0.372  0.5134 -0.7674  0.6830
 2350WAT      O 7260   1.502   3.436   1.538 -0.7504 -0.0708 -0.4950
 2350WAT     H1 7261   1.476   3.525   1.562  0.6082  0.6308 -1.5466
 2350WAT     H2 7262   1.464   3.381   1.607  0.7952  1.5948  1.7952
 2351WAT      O 7263   4.479   1.007   0.809  0.3195 -0.3887 -0.3660
 2351WAT     H1 7264   4.483   0.984   0.902  1.0805 -1.2145 -0.5876
 2351WAT     H2 7265   4.490   1.102   0.808  1.8821 -0.5292  0.3117
 2352WAT      O 7266   2.699   2.890   1.629  0.2849  0.0728 -0.0834
 2352WAT     H1 7267   2.655   2.935   1.701  0.4505  0.7774 -0.4150
 2352WAT     H2 7268   2.784   2.865   1.666 -0.0976 -0.6461  0.3318
 2353WAT      O 7269   2.264   0.758   4.750  0.3083  0.1328 -0.0816
 2353WAT     H1 7270   2.291   0.819   4.818  0.5794  0.7629 -0.7416
 2353WAT     H2 7271   2.211   0.811   4.691 -0.2618 -0.5024 -0.1484
 2354WAT      O 7272   3.656   0.416   1.479 -0.4308  0.6714 -0.3734
 2354WAT     H1 7273   3.652   0.323   1.501  0.9334 -0.5288 -4.3124
 2354WAT     H2 7274   3.592   0.427   1.409  0.9694  2.1072 -1.5170
 2355WAT      O 7275   3.207   3.531   0.536 -0.1233 -0.6883 -0.3719
 2355WAT     H1 7276   3.186   3.623   0.516  1.3526 -0.7060 -2.3572
 2355WAT     H2 7277   3.139   3.504   0.596 -1.6037  1.2296 -1.0615
 2356WAT      O 7278   3.585   0.493   2.567 -0.5503 -0.5298 -0.3791
 2356WAT     H1 7279   3.534   0.486   2.647  0.7422  3.2353  1.0441
 2356WAT     H2 7280   3.673   0.466   2.593 -0.3061 -0.0946 -0.7403
 2357WAT      O 7281   3.720   4.333   2.340 -0.2188  0.4696 -0.2004
 2357WAT     H1 7282   3.777   4.280   2.285 -1.1696 -0.9338  0.1154
 2357WAT     H2 7283   3.779   4.379   2.399  0.7508  1.2615 -1.7427
 2358WAT      O 7284   2.024   2.693   2.890  0.1455  0.0031  0.2021
 2358WAT     H1 7285   2.046   2.782   2.916 -3.2235  1.0014  0.0859
 2358WAT     H2 7286   2.043   2.689   2.797 -0.7681  1.0622 -0.0539
 2359WAT      O 7287   0.794   3.376   3.442 -0.2297  0.3389 -0.2503
 2359WAT     H1 7288   0.718   3.330   3.478 -0.7088 -0.3008 -2.0172
 2359WAT     H2 7289   0.842   3.310   3.393 -0.7378  1.5807 -2.5533
 2360WAT      O 7290   2.579   3.463   4.468 -0.3525 -0.1050  0.0683
 2360WAT     H1 7291   2.607   3.539   4.517  0.0636 -0.6029  0.6114
 2360WAT     H2 7292   2.614   3.476   4.380 -1.2665  0.8835 -0.1619
 2361WAT      O 7293   2.402   4.278   2.786  0.3035  0.6993 -0.4173
 2361WAT     H1 7294   2.455   4.261   2.864  2.3602  0.8994 -1.7020
 2361WAT     H2 7295   2.367   4.192   2.761  1.9809  0.1218 -0.8678
 2362WAT      O 7296   1.608   0.176   0.507 -0.0383 -0.1273  0.0224
 2362WAT     H1 7297   1.561   0.208   0.430 -0.0633 -0.4682 -0.1083
 2362WAT     H2 7298   1.588   0.082   0.508  1.8770 -0.5886 -0.9087
 2363WAT      O 7299   2.172   3.404   2.694  0.1100  0.4680  0.6401
 2363WAT     H1 7300   2.261   3.397   2.727  1.0018  1.2577 -1.4388
 2363WAT     H2 7301   2.130   3.470   2.751  0.5668 -0.4521  2.1013
 2364WAT      O 7302   1.290   2.582   1.245  0.0248 -0.5592  0.6552
 2364WAT     H1 7303   1.307   2.533   1.164 -0.8068 -0.3858  0.3668
 2364WAT     H2 7304   1.198   2.563   1.265 -0.1900  0.5450  0.7649
 2365WAT      O 7305   3.545   1.762   4.631  0.5215  0.2231 -0.6089
 2365WAT     H1 7306   3.495   1.681   4.639  0.8715  0.1500  1.2061
 2365WAT     H2 7307   3.624   1.737   4.582  0.1532 -0.2846 -0.9609
 2366WAT      O 7308   0.341   1.533   2.625  0.6213  0.2919  0.8455
 2366WAT     H1 7309   0.246   1.531   2.634  0.7868  0.5904  3.4850
 2366WAT     H2 7310   0.362   1.456   2.573 -1.1904  1.7855 -2.3761
 2367WAT      O 7311   3.130   0.160   0.482  0.2323  0.4971  0.3094
 2367WAT     H1 7312   3.072   0.203   0.418  0.7746 -1.3264 -1.4996
 2367WAT     H2 7313   3.120   0.213   0.561 -2.9292  1.0222 -0.2795
 2368WAT      O 7314   1.505   1.278   1.147  0.6219 -0.5428 -0.0373
 2368WAT     H1 7315   1.545   1.342   1.088  0.1949 -0.2364  0.0010
 2368WAT     H2 7316   1.435   1.238   1.095  1.2962 -1.4535 -0.2797
 2369WAT      O 7317   2.757   3.510   2.214  0.3142  0.1987 -0.5397
 2369WAT     H1 7318   2.746   3.602   2.236 -0.2489  0.3457 -1.3926
 2369WAT     H2 7319   2.705   3.498   2.134 -0.0838 -0.9795 -0.1291
 2370WAT      O 7320   3.668   0.158   1.417 -0.2756  0.0426  0.6509
 2370WAT     H1 7321   3.671   0.143   1.323 -0.0460  2.4406  0.2011
 2370WAT     H2 7322   3.758   0.181   1.440 -0.0467 -1.7770  1.7460
 2371WAT      O 7323   4.167   2.019   4.024 -0.4900 -0.1150 -0.6051
 2371WAT     H1 7324   4.126   1.970   3.953  0.8822 -0.5696 -1.1194
 2371WAT     H2 7325   4.261   2.016   4.004 -0.0921 -0.0580  1.1115
 2372WAT      O 7326   2.240   0.391   2.385  0.0325 -0.1087 -0.3496
 2372WAT     H1 7327   2.263   0.360   2.297 -0.3776 -2.8265  0.4157
 2372WAT     H2 7328   2.144   0.392   2.386  0.0363  0.0704  0.0155
 2373WAT      O 7329   1.178   0.291   4.368 -0.1073  0.0156  0.2367
 2373WAT     H1 7330   1.142   0.379   4.373 -0.1885 -0.0382  0.6621
 2373WAT     H2 7331   1.208   0.282   4.278 -1.0868  0.0904 -0.1072
 2374WAT      O 7332   3.968   1.458   0.117  0.1820  0.0408  0.0372
 2374WAT     H1 7333   3.993   1.509   0.041 -1.3105  3.2274  1.4882
 2374WAT     H2 7334   4.052   1.434   0.158  0.9654 -0.6980 -1.8806
 2375WAT      O 7335   2.956   0.143   3.731  0.4183  0.5617  0.5296
 2375WAT     H1 7336   2.935   0.211   3.795 -0.4008 -1.5968  2.7098
 2375WAT     H2 7337   3.024   0.091   3.773 -1.0123 -1.6725  0.2505
 2376WAT      O 7338   0.319   0.273   2.881 -0.6303 -0.2631  0.0456
 2376WAT     H1 7339   0.229   0.246   2.861 -0.8471  0.9960 -0.7502
 2376WAT     H2 7340   0.368   0.190   2.885 -1.8106 -0.9615  0.4650
 2377WAT      O 7341   1.965   0.284   4.699 -0.2118 -0.4090  0.0988
 2377WAT     H1 7342   1.967   0.353   4.765 -0.1295 -0.3559  0.0421
 2377WAT     H2 7343   1.946   0.204   4.748  1.1775 -0.5965  0.4004
 2378WAT      O 7344   4.127   4.138   4.697 -0.5049  0.4198  0.4845
 2378WAT     H1 7345   4.037   4.110   4.679 -0.5224 -1.7803  3.3620
 2378WAT     H2 7346   4.120   4.193   4.775  0.7397 -1.3281  1.9042
 2379WAT      O 7347   1.210   4.342   3.842 -0.1010 -0.1823  0.1598
 2379WAT     H1 7348   1.162   4.342   3.925  1.3766  0.4185  1.0478
 2379WAT     H2 7349   1.192   4.255   3.804  0.2208 -0.9761  1.7314
 2380WAT      O 7350   4.474   0.409   1.926 -0.0446  0.4166  0.1456
 2380WAT     H1 7351   4.417   0.337   1.898 -1.2026  1.1517  0.5359
 2380WAT     H2 7352   4.554   0.397   1.875 -0.3793 -0.8905 -0.1144
 2381WAT      O 7353   2.920   5.115   0.882  0.1621  0.1166 -0.2219
 2381WAT     H1 7354   2.879   5.055   0.819  1.6180 -2.8577  1.4320
 2381WAT     H2 7355   3.013   5.113   0.860  0.6062 -0.4374  1.4998
 2382WAT      O 7356   4.107   4.166   4.054 -0.2284  0.0245 -0.3668
 2382WAT     H1 7357   4.017   4.135   4.042 -0.4637  0.8490 -0.8504
 2382WAT     H2 7358   4.119   4.230   3.984  0.7732 -0.1433 -0.3611
 2383WAT      O 7359   0.757   3.635   3.406 -0.1944  0.0730 -0.2103
 2383WAT     H1 7360   0.763   3.657   3.313 -2.4239 -1.7006 -0.8536
 2383WAT     H2 7361   0.779   3.542   3.410 -0.5245  0.0316  0.9713
 2384WAT      O 7362   3.557   4.120   4.159 -0.0906 -0.7816  0.0782
 2384WAT     H1 7363   3.519   4.134   4.246 -0.7147 -2.3850  0.1027
 2384WAT     H2 7364   3.624   4.188   4.151 -1.4167  0.6825  0.9565
 2385WAT      O 7365   2.140   3.897   4.006 -0.0389 -0.0916 -0.1444
 2385WAT     H1 7366   2.075   3.960   3.975  0.7308 -0.1135 -1.9207
 2385WAT     H2 7367   2.159   3.924   4.096 -2.2291  0.1165  0.2993
 2386WAT      O 7368   3.399   3.456   0.731 -0.3676  0.3737 -0.3175
 2386WAT     H1 7369   3.438   3.525   0.677 -0.2338 -0.3264 -1.1204
 2386WAT     H2 7370   3.310   3.447   0.697 -0.1623 -0.3323 -0.6921
 2387WAT      O 7371   4.434   2.934   0.286  0.8117  0.2678 -0.0210
 2387WAT     H1 7372   4.490   2.900   0.216  0.7231  2.1788 -1.0778
 2387WAT     H2 7373   4.389   2.857   0.320 -0.2030 -0.5638 -3.0196
 2388WAT      O 7374   3.215   2.646   0.325 -0.7854  0.4419  0.2252
 2388WAT     H1 7375   3.128   2.621   0.295 -0.4147 -0.1665 -0.3941
 2388WAT     H2 7376   3.259   2.678   0.246  0.3531 -1.5734 -0.0262
 2389WAT      O 7377   2.885   2.590   4.833  0.3285  0.0609  0.4438
 2389WAT     H1 7378   2.930   2.633   4.905  1.1251  0.1346 -0.0855
 2389WAT     H2 7379   2.796   2.576   4.865 -0.0329  2.2779  0.5751
 2390WAT      O 7380   2.878   3.135   0.349 -0.0041  0.2326 -0.3189
 2390WAT     H1 7381   2.915   3.154   0.435 -0.1015  0.5420 -0.3446
 2390WAT     H2 7382   2.893   3.041   0.337 -1.2897 -0.1383  0.6780
 2391WAT      O 7383   2.793   1.147   4.548  0.3445 -0.2128 -0.5666
 2391WAT     H1 7384   2.703   1.151   4.580  1.1170 -0.1172  1.8271
 2391WAT     H2 7385   2.813   1.237   4.522  0.6258  0.4995  1.7986
 2392WAT      O 7386   0.106   3.977   1.762 -0.0396  0.5656  0.0617
 2392WAT     H1 7387   0.141   3.965   1.673 -1.1725 -0.3907 -0.2899
 2392WAT     H2 7388   0.050   4.054   1.755 -2.1463 -0.9070 -0.7857
 2393WAT      O 7389   0.132   2.327   1.457  0.1471  0.1362  0.0069
 2393WAT     H1 7390   0.133   2.268   1.382  0.2160 -0.0303  0.1381
 2393WAT     H2 7391   0.187   2.284   1.522  0.0806  0.2757  0.1566
 2394WAT      O 7392   0.133   2.693   1.031  0.6434 -0.8427  0.0584
 2394WAT     H1 7393   0.049   2.656   1.004 -0.2394 -0.1641  1.6817
 2394WAT     H2 7394   0.118   2.721   1.122  2.2579  0.4207 -0.0171
 2395WAT      O 7395   2.338   2.748   2.527  0.0810 -0.3837 -0.5610
 2395WAT     H1 7396   2.375   2.672   2.481  3.4257  0.1200  1.0170
 2395WAT     H2 7397   2.353   2.729   2.620  0.0700  1.7629 -0.0787
 2396WAT      O 7398   2.583   4.447   3.657  0.1220 -0.2027 -0.3067
 2396WAT     H1 7399   2.552   4.527   3.613  0.7382 -1.1793 -2.6891
 2396WAT     H2 7400   2.561   4.377   3.596  1.1002 -1.6819  0.9730
 2397WAT      O 7401   2.437   1.470   4.570  0.1733  0.2458  0.4170
 2397WAT     H1 7402   2.482   1.404   4.622 -0.5580  0.3621  1.2138
 2397WAT     H2 7403   2.485   1.551   4.588  1.7809 -0.2187 -1.4352
 2398WAT      O 7404   2.060   3.995   4.502 -0.1119  0.9335  0.3797
 2398WAT     H1 7405   2.094   3.984   4.591  0.2530 -0.3982  0.1010
 2398WAT     H2 7406   2.024   4.084   4.500 -2.3177  0.1747  2.5651
 2399WAT      O 7407   3.185   4.771   4.701 -0.0757  0.1272  0.1653
 2399WAT     H1 7408   3.241   4.735   4.770  1.6635 -0.6733 -1.5531
 2399WAT     H2 7409   3.212   4.862   4.693  2.0660 -0.5588 -1.5172
 2400WAT      O 7410   4.335   2.273   3.621  0.4113 -0.0503 -0.2995
 2400WAT     H1 7411   4.256   2.310   3.582  0.3697  0.3632  0.1557
 2400WAT     H2 7412   4.345   2.322   3.703  0.4705 -0.9246  0.2233
 2401WAT      O 7413   1.200   2.410   4.546 -0.9936  0.4066 -0.3629
 2401WAT     H1 7414   1.152   2.379   4.623 -1.1428  0.3814 -0.4652
 2401WAT     H2 7415   1.158   2.365   4.472 -1.9114  1.6545 -0.6287
 2402WAT      O 7416   2.880   4.422   3.587 -0.0537  0.1237 -0.2634
 2402WAT     H1 7417   2.851   4.370   3.512  0.9843 -0.5597 -0.2234
 2402WAT     H2 7418   2.800   4.452   3.629 -0.6935 -1.4981 -0.2661
 2403WAT      O 7419   1.742   4.960   0.454 -0.0624 -0.4026 -0.1523
 2403WAT     H1 7420   1.775   4.923   0.535  1.8206  0.3854 -0.5050
 2403WAT     H2 7421   1.814   5.015   0.422 -1.5658  1.0329 -1.2326
 2404WAT      O 7422   1.102   3.541   0.097 -0.6581 -0.6769 -0.2363
 2404WAT     H1 7423   1.092   3.491   0.178 -0.6043 -0.0696  0.1452
 2404WAT     H2 7424   1.188   3.581   0.103 -0.7849 -0.3670 -0.4516
 2405WAT      O 7425   3.271   3.397   2.275  0.2060  0.2054  0.0080
 2405WAT     H1 7426   3.351   3.375   2.324 -0.5460 -0.7100  0.8823
 2405WAT     H2 7427   3.244   3.481   2.310  2.2914  1.9713 -2.2972
 2406WAT      O 7428   4.111   1.045   5.223 -0.2484  1.0032 -0.0840
 2406WAT     H1 7429   4.065   1.064   5.305  0.7378 -0.0686  0.7487
 2406WAT     H2 7430   4.043   1.047   5.157 -0.9197  2.8332  0.5995
 2407WAT      O 7431   0.075   2.054   4.754  0.5073  0.1621 -0.6008
 2407WAT     H1 7432  -0.014   2.072   4.782  0.5109 -2.3594  1.4614
 2407WAT     H2 7433   0.084   1.959   4.763  4.1771  0.5367  1.9834
 2408WAT      O 7434   0.180   1.504   4.868  0.2461  0.6662 -0.4934
 2408WAT     H1 7435   0.185   1.411   4.846 -0.9085  0.6259 -0.6452
 2408WAT     H2 7436   0.095   1.514   4.913  0.7932  1.4679  0.4162
 2409WAT      O 7437   4.005   3.356   4.310 -0.5418  0.5182  0.5746
 2409WAT     H1 7438   3.910   3.367   4.317 -0.4556  1.0414  0.9979
 2409WAT     H2 7439   4.023   3.274   4.356 -0.6902  0.8754  1.2863
 2410WAT      O 7440   0.117   0.080   4.167  0.2880 -0.6637 -0.7522
 2410WAT     H1 7441   0.147   0.146   4.105  0.2172  0.4890  0.3920
 2410WAT     H2 7442   0.058   0.024   4.117  0.1163  0.3281 -1.6856
 2411WAT      O 7443   1.769   0.815   4.116  0.7077 -0.1491  0.2463
 2411WAT     H1 7444   1.720   0.876   4.061 -2.1225 -2.9114 -0.6244
 2411WAT     H2 7445   1.745   0.839   4.206 -2.4782 -1.3415 -0.1315
 2412WAT      O 7446   1.813   0.183   3.165 -0.1915  0.0039  0.1675
 2412WAT     H1 7447   1.812   0.092   3.194 -0.4484  0.6145  2.2259
 2412WAT     H2 7448   1.737   0.191   3.107 -1.2153 -0.7186  1.3446
 2413WAT      O 7449   4.539   2.946   2.191 -0.1244 -0.3031 -0.0795
 2413WAT     H1 7450   4.505   3.015   2.133 -0.4161 -0.6326 -0.3070
 2413WAT     H2 7451   4.491   2.867   2.164  1.2021 -0.9051 -0.7708
 2414WAT      O 7452   2.129   0.705   2.105  0.2692 -0.0227 -0.3794
 2414WAT     H1 7453   2.098   0.782   2.153 -0.7958 -0.0039 -1.0898
 2414WAT     H2 7454   2.225   0.708   2.116  0.2824  1.5779 -0.6582
 2415WAT      O 7455   4.463   1.070   2.224 -0.2325 -0.2762  0.3115
 2415WAT     H1 7456   4.483   1.134   2.292  1.5506 -2.0288  1.5313
 2415WAT     H2 7457   4.450   0.988   2.271  1.6569 -1.6766 -1.4357
 2416WAT      O 7458   1.014   1.328   3.435  0.8577 -0.1337 -0.3018
 2416WAT     H1 7459   1.051   1.416   3.428  0.6697  0.1476  1.7224
 2416WAT     H2 7460   1.091   1.272   3.447  0.9302 -0.1595 -0.8694
 2417WAT      O 7461   2.302   4.187   3.175  0.0623  0.3462 -0.6354
 2417WAT     H1 7462   2.266   4.193   3.263 -1.4031 -2.1885 -0.9787
 2417WAT     H2 7463   2.327   4.277   3.154 -3.5216  1.8691  0.7465
 2418WAT      O 7464   2.172   0.650   2.509 -0.6053  0.7303  0.0278
 2418WAT     H1 7465   2.198   0.559   2.497 -1.2582  0.4618  0.5908
 2418WAT     H2 7466   2.233   0.700   2.454  2.8780  0.4185  3.2251
 2419WAT      O 7467   3.808   1.718   0.515 -0.4119 -0.0457 -0.1718
 2419WAT     H1 7468   3.787   1.789   0.575  0.4589  0.3976 -0.3692
 2419WAT     H2 7469   3.825   1.761   0.431  0.8946 -0.3763 -0.1030
 2420WAT      O 7470   0.251   4.330   3.183  0.4645 -0.1069 -0.3640
 2420WAT     H1 7471   0.239   4.346   3.089  0.6233  1.8482 -0.1001
 2420WAT     H2 7472   0.184   4.386   3.225 -0.0151 -1.4155  0.6846
 2421WAT      O 7473   3.946   0.663   4.033 -0.4431  0.1207 -0.6880
 2421WAT     H1 7474   3.890   0.646   4.108 -1.0837  1.9159 -0.7173
 2421WAT     H2 7475   3.888   0.657   3.957  0.4714 -3.1660 -1.3071
 2422WAT      O 7476   2.319   0.949   0.512  0.6272  0.5199  0.0919
 2422WAT     H1 7477   2.302   0.918   0.423  1.4549  0.4010 -0.0268
 2422WAT     H2 7478   2.318   1.044   0.505  0.1077  0.5175  0.0726
 2423WAT      O 7479   0.327   1.948   3.345 -0.1853  0.4010 -0.4219
 2423WAT     H1 7480   0.304   1.930   3.436  1.5586 -0.6857 -0.1463
 2423WAT     H2 7481   0.272   1.889   3.294  1.4672 -1.7417  0.1772
 2424WAT      O 7482   1.067   2.251   4.347  0.5175  0.0546 -0.0869
 2424WAT     H1 7483   0.990   2.195   4.356 -1.0888  2.3362  1.8636
 2424WAT     H2 7484   1.128   2.201   4.293 -1.5227 -2.6962 -0.0294
 2425WAT      O 7485   2.342   2.639   2.860 -0.1604 -0.5681  0.5110
 2425WAT     H1 7486   2.397   2.717   2.852 -0.5825 -0.2822  0.3972
 2425WAT     H2 7487   2.385   2.587   2.928  1.7452 -1.5997 -1.3586
 2426WAT      O 7488   1.838   3.870   4.444 -0.1989 -0.0573 -0.0257
 2426WAT     H1 7489   1.916   3.925   4.449  0.3566 -0.9410  3.0656
 2426WAT     H2 7490   1.863   3.789   4.489 -2.8179 -0.4114  0.9728
 2427WAT      O 7491   0.540   0.417   3.368 -0.1361  0.2406  0.0400
 2427WAT     H1 7492   0.508   0.355   3.303  0.0841 -0.1469  0.2959
 2427WAT     H2 7493   0.630   0.389   3.385 -0.0822  0.5444  0.2603
 2428WAT      O 7494   0.714   2.277   0.752  0.2820  0.3433  0.7478
 2428WAT     H1 7495   0.668   2.298   0.833 -1.4487 -1.2173  0.2381
 2428WAT     H2 7496   0.737   2.362   0.714  1.3008  1.1072  2.9208
 2429WAT      O 7497   3.096   2.490   0.040  0.2082  0.1291 -0.1171
 2429WAT     H1 7498   3.184   2.470   0.073 -0.0334 -1.0148 -0.0971
 2429WAT     H2 7499   3.108   2.500  -0.055  0.9832  3.8756  0.2147
 2430WAT      O 7500   2.098   2.412   4.720  0.4309 -0.3763 -0.0022
 2430WAT     H1 7501   2.071   2.322   4.739 -1.7715 -0.2274 -1.9866
 2430WAT     H2 7502   2.017   2.458   4.699  1.8309  1.1209 -2.6550
 2431WAT      O 7503   2.969   4.969   1.682  0.2318  0.2446 -0.4175
 2431WAT     H1 7504   2.953   5.022   1.604 -0.7382 -0.0519 -0.4332
 2431WAT     H2 7505   2.971   4.879   1.649 -0.7475  0.0707 -0.0318
 2432WAT      O 7506   3.452   2.512   3.222  0.0089  0.8921 -0.5905
 2432WAT     H1 7507   3.485   2.600   3.206  1.2228  0.2863 -1.6121
 2432WAT     H2 7508   3.489   2.459   3.151 -1.1874 -0.3284 -0.3596
 2433WAT      O 7509   1.499   0.183   5.174 -0.3701  0.2113 -0.0149
 2433WAT     H1 7510   1.550   0.182   5.093 -2.2437  0.2973 -1.2558
 2433WAT     H2 7511   1.413   0.151   5.149 -0.3388 -2.2424  2.4888
 2434WAT      O 7512   4.272   0.847   5.044  0.1135  0.0833 -0.1859
 2434WAT     H1 7513   4.260   0.879   5.134  0.2053 -0.1492 -0.0901
 2434WAT     H2 7514   4.362   0.871   5.022  0.5503 -1.0461  0.2764
 2435WAT      O 7515   2.553   1.647   5.007  0.3159  0.6027 -0.0309
 2435WAT     H1 7516   2.578   1.691   4.925  0.0382  0.5547 -0.1427
 2435WAT     H2 7517   2.457   1.649   5.007  0.3216  1.1033  0.5708
 2436WAT      O 7518   3.459   4.167   4.407 -0.6310  0.3287 -0.1686
 2436WAT     H1 7519   3.414   4.090   4.439 -0.2473 -0.4501 -1.4188
 2436WAT     H2 7520   3.497   4.208   4.485  0.5904 -1.6757  0.3541
 2437WAT      O 7521   1.116   4.443   3.178 -0.6800 -0.6259 -0.2524
 2437WAT     H1 7522   1.191   4.503   3.175 -0.4751 -0.8788 -0.2305
 2437WAT     H2 7523   1.119   4.397   3.094 -1.4578  0.1373 -0.7070
 2438WAT      O 7524   1.307   3.509   2.499  0.4894  0.3729 -0.3109
 2438WAT     H1 7525   1.330   3.417   2.514 -0.2144 -0.1659 -2.2507
 2438WAT     H2 7526   1.365   3.537   2.428  2.3423  2.2078  1.7211
 2439WAT      O 7527   2.344   0.943   0.823  0.0499  0.3766 -0.2055
 2439WAT     H1 7528   2.248   0.937   0.819 -0.0065  0.3417  0.9422
 2439WAT     H2 7529   2.373   0.902   0.741 -0.9313  1.2152 -1.0139
 2440WAT      O 7530   0.382   0.710   3.179  0.1732 -0.1943 -0.0150
 2440WAT     H1 7531   0.430   0.700   3.261 -0.7338  2.2197  0.9069
 2440WAT     H2 7532   0.296   0.742   3.206 -1.1219 -1.9570 -1.7750
 2441WAT      O 7533   3.686   3.900   4.358  0.1630 -0.0113  0.0307
 2441WAT     H1 7534   3.649   3.846   4.428 -1.4463 -0.3160 -1.0032
 2441WAT     H2 7535   3.673   3.990   4.387  1.7833 -0.1092  1.2223
 2442WAT      O 7536   1.533   3.899   0.010 -0.1581 -0.2794  0.3028
 2442WAT     H1 7537   1.468   3.934   0.071  0.5035 -0.5137  1.1735
 2442WAT     H2 7538   1.529   3.958  -0.065 -1.2951 -0.2283  0.3769
 2443WAT      O 7539   2.260   4.190   0.021 -0.1059  0.1056 -0.1359
 2443WAT     H1 7540   2.250   4.206   0.115  2.5340 -1.7346  0.5365
 2443WAT     H2 7541   2.232   4.100   0.008  0.8063 -0.0812 -0.8856
 2444WAT      O 7542   4.378   3.215   0.894 -0.1164  0.2289  0.0798
 2444WAT     H1 7543   4.349   3.306   0.894 -1.0280 -0.0499  0.9704
 2444WAT     H2 7544   4.320   3.172   0.831 -1.0103 -0.1241  1.1195
 2445WAT      O 7545   4.395   0.376   1.055 -0.3528  0.5034 -1.4801
 2445WAT     H1 7546   4.488   0.369   1.036  0.1720  0.5185  0.7674
 2445WAT     H2 7547   4.366   0.286   1.069 -0.4876  0.5619 -1.3782
 2446WAT      O 7548   1.833   0.792   3.329  0.7879 -0.0609  0.2947
 2446WAT     H1 7549   1.833   0.697   3.343 -1.0369  0.2273  2.9613
 2446WAT     H2 7550   1.793   0.802   3.243 -1.3933 -1.7068  0.9990
 2447WAT      O 7551   3.520   1.138   4.372  0.2566  0.1655 -0.1162
 2447WAT     H1 7552   3.439   1.189   4.368  0.5128  0.5564 -0.4488
 2447WAT     H2 7553   3.505   1.063   4.314 -0.1223 -0.1486  0.3778
 2448WAT      O 7554   0.132   2.982   2.439 -0.0964 -0.4400  0.3441
 2448WAT     H1 7555   0.102   2.978   2.348 -2.0357  0.1664  0.8933
 2448WAT     H2 7556   0.056   3.015   2.487  1.1820  0.1464  2.0597
 2449WAT      O 7557   2.701   4.196   0.493 -0.3391  0.0382 -0.1955
 2449WAT     H1 7558   2.614   4.160   0.507 -1.1726  2.4588  1.6658
 2449WAT     H2 7559   2.696   4.285   0.530  2.7796  0.4379 -0.4591
 2450WAT      O 7560   0.599   0.116   1.643  0.1260 -0.3891  0.6364
 2450WAT     H1 7561   0.675   0.070   1.607 -0.5857 -1.0462 -0.0717
 2450WAT     H2 7562   0.573   0.064   1.719 -0.3381 -0.8575  0.1659
 2451WAT      O 7563   3.284   2.784   1.681 -0.2102 -0.0942 -0.4135
 2451WAT     H1 7564   3.274   2.878   1.697 -0.8394 -0.5340  2.3587
 2451WAT     H2 7565   3.363   2.760   1.729 -1.1381 -1.2760  0.6042
 2452WAT      O 7566   0.413   4.161   1.059  1.2202 -0.5859 -0.0407
 2452WAT     H1 7567   0.428   4.253   1.038  0.1929 -0.1448  1.0320
 2452WAT     H2 7568   0.484   4.114   1.015  2.1955  0.7827  0.0133
 2453WAT      O 7569   0.844   1.151   1.976 -0.9375 -0.0799  0.4213
 2453WAT     H1 7570   0.749   1.145   1.970 -0.8817 -1.3123  0.5548
 2453WAT     H2 7571   0.862   1.245   1.984 -2.1497  0.1451  0.6456
 2454WAT      O 7572   4.081   0.010   0.265  0.5322  0.0029  0.2691
 2454WAT     H1 7573   4.005   0.013   0.206  0.2916 -1.2094  0.4720
 2454WAT     H2 7574   4.140   0.076   0.231  0.3287 -0.5394 -1.2609
 2455WAT      O 7575   0.646   4.659   2.945 -0.2165  0.4052  1.0788
 2455WAT     H1 7576   0.630   4.684   3.037 -1.8272  0.7849  0.7238
 2455WAT     H2 7577   0.726   4.606   2.949 -0.2800  0.3571  2.7122
 2456WAT      O 7578   0.166   4.369   1.592  0.7080 -0.1828 -0.0681
 2456WAT     H1 7579   0.130   4.414   1.668  1.4565 -1.4088  1.0420
 2456WAT     H2 7580   0.091   4.322   1.555  0.6221 -0.6818  0.7232
 2457WAT      O 7581   1.940   0.494   4.890  0.0348  0.1448 -0.1835
 2457WAT     H1 7582   2.031   0.513   4.913 -0.0069  0.3566 -0.1872
 2457WAT     H2 7583   1.904   0.450   4.967 -0.2727  1.3749  0.4086
 2458WAT      O 7584   2.741   1.554   3.098 -0.2326  0.4125  0.6202
 2458WAT     H1 7585   2.780   1.524   3.017  0.1929  0.5359  0.7781
 2458WAT     H2 7586   2.805   1.615   3.135 -0.9349  1.2726  0.4623
 2459WAT      O 7587   2.294   3.688   3.637 -0.5385  0.2198 -0.2127
 2459WAT     H1 7588   2.313   3.610   3.584 -0.6093 -0.0494  0.1555
 2459WAT     H2 7589   2.215   3.665   3.686 -0.1693  0.2654  0.4087
 2460WAT      O 7590   2.897   0.465   4.927  0.3334  0.0641  0.1211
 2460WAT     H1 7591   2.830   0.419   4.977  2.3164 -2.9505  0.2109
 2460WAT     H2 7592   2.856   0.482   4.842 -0.9501 -0.4563  0.6048
 2461WAT      O 7593   2.285   2.248   2.905  0.3572  0.3350  0.2823
 2461WAT     H1 7594   2.233   2.297   2.968 -0.1813  1.0917 -0.7291
 2461WAT     H2 7595   2.264   2.287   2.820  0.8556 -0.8398 -0.4106
 2462WAT      O 7596   0.519   0.370   1.161 -0.0538  0.3294  0.1320
 2462WAT     H1 7597   0.564   0.448   1.130  0.7290  0.8707  2.4213
 2462WAT     H2 7598   0.583   0.326   1.217 -1.1099 -0.9617  0.3872
 2463WAT      O 7599   0.115   2.702   1.407 -0.2410 -0.4729  0.1861
 2463WAT     H1 7600   0.163   2.768   1.456 -0.1471 -1.6112  1.6882
 2463WAT     H2 7601   0.183   2.651   1.361 -0.3279  0.5803 -1.1692
 2464WAT      O 7602   4.310   1.753   4.752 -0.6893  0.3587 -0.1371
 2464WAT     H1 7603   4.366   1.773   4.677 -0.7444  1.6145  0.1225
 2464WAT     H2 7604   4.347   1.806   4.824 -1.3954  0.1667  0.3805
 2465WAT      O 7605   2.620   2.846   4.225 -0.2536 -0.5720 -1.0036
 2465WAT     H1 7606   2.701   2.868   4.270 -1.1286 -2.7825  1.9309
 2465WAT     H2 7607   2.559   2.917   4.248 -0.7891 -1.8283  1.7848
 2466WAT      O 7608   2.929   3.801   3.840  0.5445  0.5518  0.4113
 2466WAT     H1 7609   2.952   3.880   3.791  0.3490 -0.0492 -0.6931
 2466WAT     H2 7610   2.922   3.830   3.931  0.1697  1.8651 -0.0149
 2467WAT      O 7611   4.462   1.645   3.497 -0.0254  0.2964  0.7124
 2467WAT     H1 7612   4.386   1.680   3.543 -1.2094  0.1900 -1.0735
 2467WAT     H2 7613   4.456   1.550   3.510 -1.2302  0.1168 -0.8268
 2468WAT      O 7614   1.506   4.045   3.827 -0.3400  0.0050  0.8855
 2468WAT     H1 7615   1.475   4.021   3.740  1.8570  1.7846 -0.5151
 2468WAT     H2 7616   1.579   3.986   3.844 -0.3851  0.0540  1.2748
 2469WAT      O 7617   4.271   1.360   0.951 -0.4137 -0.0945  0.1110
 2469WAT     H1 7618   4.287   1.284   1.007 -0.1509  1.2592  1.9798
 2469WAT     H2 7619   4.278   1.435   1.010 -0.4533  1.4138 -1.6962
 2470WAT      O 7620   4.145   3.856   5.236  0.2840  0.4356  0.1448
 2470WAT     H1 7621   4.055   3.840   5.266  0.1013  1.8348  0.4020
 2470WAT     H2 7622   4.188   3.771   5.245 -0.4025  0.2281  2.1525
 2471WAT      O 7623   1.050   3.476   3.525  0.4262 -0.1136  0.0853
 2471WAT     H1 7624   1.048   3.490   3.619 -1.9640  0.0206  0.0747
 2471WAT     H2 7625   0.958   3.461   3.501  0.9695 -0.1094 -2.2236
 2472WAT      O 7626   0.895   2.050   4.292 -0.4081  0.0528  0.1085
 2472WAT     H1 7627   0.803   2.024   4.290 -0.4051  0.0314  0.2384
 2472WAT     H2 7628   0.941   1.973   4.324 -0.6349  0.8564  2.6280
 2473WAT      O 7629   3.109   1.885   4.713  0.0838  0.4699  0.1438
 2473WAT     H1 7630   3.066   1.961   4.675 -1.2947 -0.0819  0.5634
 2473WAT     H2 7631   3.060   1.868   4.794  0.1690 -1.0544 -0.1061
 2474WAT      O 7632   3.942   4.959   5.051  0.6448  0.0956 -0.4840
 2474WAT     H1 7633   3.877   4.966   4.981 -0.0324 -1.2286 -0.0213
 2474WAT     H2 7634   3.899   4.906   5.118  1.4357  0.9970  0.7619
 2475WAT      O 7635   0.783   5.013   2.598 -0.3967  0.0115 -0.3544
 2475WAT     H1 7636   0.827   4.941   2.553  2.0238  1.3741 -0.3142
 2475WAT     H2 7637   0.825   5.092   2.565 -1.3499  1.2793  1.2986
 2476WAT      O 7638   2.799   3.522   1.853 -0.2681 -0.0852  0.1577
 2476WAT     H1 7639   2.878   3.522   1.799 -0.9257 -1.2235 -0.8523
 2476WAT     H2 7640   2.766   3.433   1.847 -2.1035  0.5720 -0.1525
 2477WAT      O 7641   2.351   1.293   3.514 -0.0224  0.1019 -0.3894
 2477WAT     H1 7642   2.339   1.261   3.425  0.6680  0.1165 -0.4932
 2477WAT     H2 7643   2.291   1.241   3.567  1.9817 -2.3349 -0.3415
 2478WAT      O 7644   4.057   3.746   2.508  0.0795  0.0599 -0.0497
 2478WAT     H1 7645   4.153   3.737   2.512 -0.0014 -0.7165  0.3895
 2478WAT     H2 7646   4.042   3.820   2.449  1.0355  1.8955  1.8817
 2479WAT      O 7647   2.555   0.031   0.376 -0.0194 -0.2570  0.0459
 2479WAT     H1 7648   2.537  -0.042   0.435 -0.1117 -0.5748 -0.3638
 2479WAT     H2 7649   2.634   0.072   0.410  1.2162 -1.7898 -0.8539
 2480WAT      O 7650   4.275   1.152   4.127 -0.1205 -0.4946 -0.0796
 2480WAT     H1 7651   4.259   1.202   4.207  0.5880 -0.7094  0.2075
 2480WAT     H2 7652   4.371   1.147   4.121 -0.1472 -2.5348  0.3601
 2481WAT      O 7653   4.341   2.607   2.329  0.8127  0.6156  0.0285
 2481WAT     H1 7654   4.256   2.645   2.303  0.6945  0.2467 -0.1399
 2481WAT     H2 7655   4.406   2.669   2.295  0.5880  1.7431  1.5506
 2482WAT      O 7656   2.674   3.647   4.625 -0.4843 -0.3846 -0.0999
 2482WAT     H1 7657   2.649   3.649   4.717 -1.0806  1.8728 -0.2385
 2482WAT     H2 7658   2.760   3.691   4.622  0.4242 -2.1045 -0.4303
 2483WAT      O 7659   4.153   3.198   5.226  0.0818 -0.4515 -0.4009
 2483WAT     H1 7660   4.187   3.133   5.288 -1.3002 -2.3332 -1.5090
 2483WAT     H2 7661   4.187   3.170   5.141 -0.0124  0.6743 -0.8286
 2484WAT      O 7662   3.981   0.389   3.835  0.6313  0.1376  0.2243
 2484WAT     H1 7663   3.988   0.294   3.825  3.7203  0.3175 -0.2564
 2484WAT     H2 7664   3.911   0.402   3.900 -0.3087 -2.3816 -0.1885
 2485WAT      O 7665   1.800   3.530   3.076  0.0578 -0.2723  0.1594
 2485WAT     H1 7666   1.755   3.450   3.050 -1.0567  0.1447  0.7302
 2485WAT     H2 7667   1.736   3.600   3.061  2.3128  1.2038 -4.4259
 2486WAT      O 7668   0.077   1.378   0.142  0.3422  0.3796  0.0169
 2486WAT     H1 7669  -0.009   1.416   0.161  1.2875  2.3357  0.7258
 2486WAT     H2 7670   0.104   1.337   0.224 -0.0715 -0.6269 -0.3343
 2487WAT      O 7671   2.854   2.117   3.820  0.2994  0.8347 -0.1184
 2487WAT     H1 7672   2.791   2.177   3.780  1.2095  0.6594 -1.8908
 2487WAT     H2 7673   2.937   2.165   3.818  0.7331  0.0955 -0.1438
 2488WAT      O 7674   2.690   4.902   3.908 -0.4784 -0.3236  0.0322
 2488WAT     H1 7675   2.745   4.972   3.943  0.5490 -0.4912 -1.1889
 2488WAT     H2 7676   2.646   4.866   3.985  0.8684  0.0367  1.0114
 2489WAT      O 7677   0.390   5.050   1.276  0.4846  0.2234  0.4060
 2489WAT     H1 7678   0.384   5.129   1.222  0.6991 -0.2095 -0.2605
 2489WAT     H2 7679   0.346   5.073   1.358  0.8450  1.1513  0.3518
 2490WAT      O 7680   1.458   4.837   1.342  0.3220 -0.2193  0.7610
 2490WAT     H1 7681   1.385   4.841   1.281  1.9193 -0.3037 -1.2835
 2490WAT     H2 7682   1.486   4.929   1.352  2.2724 -0.4665 -1.5845
 2491WAT      O 7683   1.637   3.789   4.285 -0.0299  0.1613 -0.9531
 2491WAT     H1 7684   1.684   3.760   4.207  0.9600 -0.7157 -0.0648
 2491WAT     H2 7685   1.706   3.800   4.351 -1.0193 -0.7850  0.2825
 2492WAT      O 7686   0.315   1.322   3.788 -0.2205 -0.0310 -0.1522
 2492WAT     H1 7687   0.320   1.329   3.883  1.1181  1.3299 -0.2940
 2492WAT     H2 7688   0.291   1.230   3.772  0.8938 -0.6487  1.4687
 2493WAT      O 7689   1.609   3.038   5.141 -0.3981 -0.4567  0.0836
 2493WAT     H1 7690   1.519   3.014   5.163 -0.8299  1.7806  0.9666
 2493WAT     H2 7691   1.601   3.108   5.076  0.6995  0.0186  0.4291
 2494WAT      O 7692   1.004   1.985   1.954  0.2635  0.3923 -0.1920
 2494WAT     H1 7693   1.009   1.962   1.861 -0.9379  0.4532 -0.2832
 2494WAT     H2 7694   1.046   2.071   1.959  0.7481  0.1857 -0.5988
 2495WAT      O 7695   0.108   2.825   0.124 -0.3039 -0.3995  0.1095
 2495WAT     H1 7696   0.175   2.891   0.106  1.7621 -2.0418  1.3779
 2495WAT     H2 7697   0.127   2.795   0.212 -2.7089 -1.0073  0.4951
 2496WAT      O 7698   1.933   1.471   3.007  0.1595  0.1854  0.0909
 2496WAT     H1 7699   2.001   1.498   3.069 -0.5490 -0.9540  1.4538
 2496WAT     H2 7700   1.975   1.475   2.921  1.5006  0.8486  0.7477
 2497WAT      O 7701   1.992   0.655   4.038 -0.1152 -0.2667 -0.2211
 2497WAT     H1 7702   2.074   0.700   4.058  1.2040 -1.9628 -1.5200
 2497WAT     H2 7703   1.924   0.718   4.063  1.5452  1.1800  0.9310
 2498WAT      O 7704   0.749   2.123   1.193 -0.3429  0.1623  0.1213
 2498WAT     H1 7705   0.665   2.170   1.195 -0.2005  0.3851  1.1091
 2498WAT     H2 7706   0.725   2.031   1.182 -0.7348  0.1903  0.7012
 2499WAT      O 7707   1.517   0.384   3.882 -0.4806 -0.4164 -0.5729
 2499WAT     H1 7708   1.573   0.370   3.806  0.3474  0.5302 -0.1493
 2499WAT     H2 7709   1.452   0.448   3.852 -1.9021 -2.1339 -1.3235
 2500WAT      O 7710   3.936   5.133   4.144  0.7160 -0.6337 -0.3644
 2500WAT     H1 7711   4.025   5.107   4.168  0.4907 -1.0289  0.0532
 2500WAT     H2 7712   3.892   5.147   4.227  1.1218  2.2205 -0.5144
 2501WAT      O 7713   3.487   3.343   2.436 -0.4112 -0.0647 -0.5485
 2501WAT     H1 7714   3.537   3.424   2.428 -0.9910  0.3262 -0.2016
 2501WAT     H2 7715   3.498   3.316   2.527 -2.3979  1.0495  0.0499
 2502WAT      O 7716   1.134   4.002   0.369 -0.6772  0.3070 -0.6227
 2502WAT     H1 7717   1.049   3.958   0.379 -1.0283  0.5121 -2.3684
 2502WAT     H2 7718   1.112   4.095   0.361 -0.0795  0.6407  1.1453
 2503WAT      O 7719   3.713   2.577   3.057  0.6787 -0.0324  0.3203
 2503WAT     H1 7720   3.707   2.601   2.964 -1.9594 -2.3308 -0.2240
 2503WAT     H2 7721   3.741   2.486   3.056 -0.4750 -0.4231  1.7318
 2504WAT      O 7722   1.231   3.164   5.094 -0.0102 -0.7810  0.3789
 2504WAT     H1 7723   1.184   3.246   5.074 -1.0185 -1.3993  0.1212
 2504WAT     H2 7724   1.321   3.180   5.065 -0.1483  0.3112  0.5247
 2505WAT      O 7725   0.715   0.115   4.229 -0.5197  0.2138 -0.1523
 2505WAT     H1 7726   0.762   0.067   4.161  1.1305 -0.4733  1.3935
 2505WAT     H2 7727   0.623   0.110   4.203 -0.0502 -0.9851 -1.7149
 2506WAT      O 7728   0.203   3.767   4.230 -0.4444  0.4864  0.2567
 2506WAT     H1 7729   0.263   3.841   4.222 -0.6172  0.5087 -1.0786
 2506WAT     H2 7730   0.220   3.714   4.152 -0.5450 -0.7189  1.0406
 2507WAT      O 7731   1.419   4.483   4.159 -0.4245  0.0507  0.3255
 2507WAT     H1 7732   1.418   4.399   4.113  0.2235  0.1292  0.1550
 2507WAT     H2 7733   1.363   4.540   4.107  2.6706  1.0793 -2.2231
 2508WAT      O 7734   1.106   1.565   3.442  0.0831  0.0235  0.2014
 2508WAT     H1 7735   1.171   1.614   3.492  0.1171  0.5824 -0.3661
 2508WAT     H2 7736   1.024   1.613   3.456  0.1548  0.3721 -0.5127
 2509WAT      O 7737   0.614   4.513   0.207  0.0819 -0.0449 -0.1622
 2509WAT     H1 7738   0.600   4.607   0.221 -0.6227 -0.0109 -0.9930
 2509WAT     H2 7739   0.527   4.478   0.192  0.5094 -0.4324 -2.0477
 2510WAT      O 7740   0.761   0.245   3.112  0.2636 -0.2533  0.1252
 2510WAT     H1 7741   0.697   0.294   3.163  1.2712 -0.9235  2.1269
 2510WAT     H2 7742   0.790   0.174   3.170  2.1290 -0.5214 -1.0273
 2511WAT      O 7743   0.299   0.647   4.273  0.2234  0.1463 -0.3206
 2511WAT     H1 7744   0.232   0.581   4.292 -1.2824  1.4195 -1.0304
 2511WAT     H2 7745   0.255   0.731   4.285  1.5464  1.0177 -1.2659
 2512WAT      O 7746   2.962   1.293   3.340 -0.0866 -0.4424 -0.3515
 2512WAT     H1 7747   2.893   1.230   3.363 -0.7889  0.4064 -0.0596
 2512WAT     H2 7748   2.961   1.295   3.244  0.8266 -1.8075 -0.4123
 2513WAT      O 7749  -0.011   1.129   3.925  0.3451  0.6643 -0.5391
 2513WAT     H1 7750   0.034   1.167   4.000  1.1355 -0.9597 -0.1425
 2513WAT     H2 7751   0.008   1.035   3.931 -0.7837  0.3123 -1.9569
 2514WAT      O 7752   1.714   2.859   0.599 -0.0640  0.2650  0.2384
 2514WAT     H1 7753   1.760   2.942   0.612  1.5219 -0.6195  0.5516
 2514WAT     H2 7754   1.652   2.877   0.527  0.9388  1.4409 -0.3778
 2515WAT      O 7755   1.352   0.153   1.054  0.5415 -0.3864 -0.0834
 2515WAT     H1 7756   1.377   0.227   0.999 -0.0444 -0.0948  0.0356
 2515WAT     H2 7757   1.350   0.188   1.143  0.5514 -0.6206  0.0109
 2516WAT      O 7758   2.030   2.774   2.621  0.1655  0.2694 -0.2441
 2516WAT     H1 7759   1.979   2.835   2.568 -1.0365 -0.2730  0.2442
 2516WAT     H2 7760   2.118   2.812   2.624 -0.3154  1.4763 -0.7353
 2517WAT      O 7761   0.521   3.321   0.765  0.4360 -0.1022  1.0171
 2517WAT     H1 7762   0.484   3.348   0.850  0.4641 -0.6564  1.2089
 2517WAT     H2 7763   0.470   3.245   0.739 -1.2209  1.4888 -0.6717
 2518WAT      O 7764   3.025   0.096   4.199 -0.6543 -0.2011 -0.3502
 2518WAT     H1 7765   3.027   0.142   4.283 -1.1617 -1.0711  0.1564
 2518WAT     H2 7766   3.111   0.053   4.194 -1.1195 -1.2622  0.3876
 2519WAT      O 7767   2.393   0.467   0.420  0.0536 -0.1678 -0.5636
 2519WAT     H1 7768   2.406   0.380   0.381 -1.2046 -1.0327  0.8291
 2519WAT     H2 7769   2.331   0.510   0.362  1.1682  0.0609 -1.6106
 2520WAT      O 7770   3.718   2.731   3.306 -0.1696  0.3747  0.6229
 2520WAT     H1 7771   3.670   2.805   3.269 -1.2439 -0.2029  0.8258
 2520WAT     H2 7772   3.712   2.663   3.238  0.7966  0.4556  0.4418
 2521WAT      O 7773   2.606   0.852   2.849  0.1589  0.0879  0.5048
 2521WAT     H1 7774   2.553   0.841   2.927  0.7823 -0.2556  0.8908
 2521WAT     H2 7775   2.558   0.804   2.781 -1.2934  1.8549  0.2133
 2522WAT      O 7776   2.352   3.887   3.854 -0.0697 -0.3197 -0.0214
 2522WAT     H1 7777   2.277   3.886   3.914  0.0197  1.2928  0.1773
 2522WAT     H2 7778   2.342   3.808   3.801 -0.4689 -1.5146  1.7242
 2523WAT      O 7779   0.983   1.378   4.606  0.1487 -0.1347  0.2790
 2523WAT     H1 7780   1.062   1.381   4.552 -0.6567 -1.3595 -1.0130
 2523WAT     H2 7781   0.974   1.286   4.631 -2.4232 -0.6119 -2.0392
 2524WAT      O 7782   1.042   4.437   4.311 -0.2703  0.1270 -0.5537
 2524WAT     H1 7783   1.052   4.532   4.309  1.4640  0.1079  1.8040
 2524WAT     H2 7784   1.080   4.412   4.396 -2.2373 -2.5129 -0.3519
 2525WAT      O 7785   3.418   3.597   0.954 -0.3394  0.4415 -0.1215
 2525WAT     H1 7786   3.399   3.538   0.881 -3.2220  0.4674  0.4788
 2525WAT     H2 7787   3.400   3.684   0.920 -0.3288  0.5701  0.2011
 2526WAT      O 7788   4.347   3.602   2.307  0.1190 -0.2312 -0.1531
 2526WAT     H1 7789   4.436   3.620   2.277  1.7920 -2.5682  2.7398
 2526WAT     H2 7790   4.353   3.609   2.403 -3.8472  3.2467  0.1256
 2527WAT      O 7791   4.323   1.276   0.148  0.0370 -0.7150 -0.0722
 2527WAT     H1 7792   4.316   1.271   0.244  3.7232 -1.3432  0.3148
 2527WAT     H2 7793   4.295   1.189   0.118 -0.5240 -0.7375  0.4945
 2528WAT      O 7794   0.475   0.682   1.293 -0.1732  0.2406  0.0342
 2528WAT     H1 7795   0.490   0.768   1.252 -1.2036  0.2492 -0.3580
 2528WAT     H2 7796   0.474   0.621   1.220  3.0217 -0.5376  0.4807
 2529WAT      O 7797   1.298   3.162   0.588  0.5965 -0.0038  0.1155
 2529WAT     H1 7798   1.335   3.078   0.560  0.4044  0.5948 -2.0771
 2529WAT     H2 7799   1.250   3.140   0.669  0.5151 -2.0208 -0.4151
 2530WAT      O 7800   3.305   3.789   0.710  0.1738 -0.1453 -0.4736
 2530WAT     H1 7801   3.292   3.853   0.641  0.6847  1.2887  0.7093
 2530WAT     H2 7802   3.232   3.804   0.771  0.8738  0.0508  0.3362
 2531WAT      O 7803   4.354   5.086   3.158  0.4183 -0.1046  0.6613
 2531WAT     H1 7804   4.312   5.164   3.194  0.2627 -0.3375  0.9951
 2531WAT     H2 7805   4.435   5.076   3.208  1.9151  1.4587 -1.2758
 2532WAT      O 7806   1.149   3.219   1.847 -0.4535  0.1896 -0.3928
 2532WAT     H1 7807   1.183   3.258   1.928 -2.3886 -0.0638  0.6018
 2532WAT     H2 7808   1.099   3.143   1.877 -0.5106 -0.4014 -1.9170
 2533WAT      O 7809   0.785   0.396   2.473  0.4057 -0.4610 -0.0180
 2533WAT     H1 7810   0.814   0.474   2.520 -2.8152  1.1360 -0.3983
 2533WAT     H2 7811   0.790   0.420   2.380  1.3401 -1.5293 -0.2783
 2534WAT      O 7812   2.537   5.051   1.701  0.1524  0.1632  0.1360
 2534WAT     H1 7813   2.484   5.129   1.688 -0.8692 -0.4419  0.5517
 2534WAT     H2 7814   2.477   4.978   1.685  0.8644 -0.5412  0.5777
 2535WAT      O 7815   0.081   3.689   1.680  0.3730 -0.3315 -0.0764
 2535WAT     H1 7816   0.115   3.768   1.722  0.0095 -1.6936  3.1041
 2535WAT     H2 7817  -0.008   3.712   1.652 -0.1310  0.1580  1.7957
 2536WAT      O 7818   3.320   4.917   3.918 -0.6957  0.0441 -0.1732
 2536WAT     H1 7819   3.340   4.848   3.854 -1.8366 -0.3101 -0.1690
 2536WAT     H2 7820   3.338   4.877   4.003  1.1837  0.6362 -0.2483
 2537WAT      O 7821   0.279   0.419   1.544  0.9285 -0.5289 -0.3855
 2537WAT     H1 7822   0.280   0.433   1.449 -1.4023 -0.4699 -0.4651
 2537WAT     H2 7823   0.276   0.507   1.581 -0.5945 -0.5556 -0.3857
 2538WAT      O 7824   4.490   3.806   4.671 -0.5686 -0.7846 -0.4694
 2538WAT     H1 7825   4.476   3.711   4.662 -0.7260 -0.8502  0.4225
 2538WAT     H2 7826   4.409   3.845   4.639 -1.5573 -1.0543  1.5393
 2539WAT      O 7827   1.197   0.707   4.933  0.1719  0.0613  0.3845
 2539WAT     H1 7828   1.220   0.770   4.864 -1.3883  0.5015  0.2368
 2539WAT     H2 7829   1.256   0.633   4.919  0.8983  0.7864 -0.4789
 2540WAT      O 7830   2.468   1.543   3.919  0.5613  0.8760  0.8960
 2540WAT     H1 7831   2.554   1.583   3.928  0.9357 -0.0094  1.4239
 2540WAT     H2 7832   2.454   1.534   3.825  2.0575 -1.0428  0.7950
 2541WAT      O 7833   3.695   2.790   2.300  0.2157  0.3077  0.4090
 2541WAT     H1 7834   3.702   2.706   2.346 -0.8187  0.4467  0.8449
 2541WAT     H2 7835   3.684   2.854   2.370  1.1373  0.8420  0.0846
 2542WAT      O 7836   2.333   3.177   3.404  0.1621  0.2980 -0.1454
 2542WAT     H1 7837   2.407   3.133   3.363  2.0016  2.7765  0.2801
 2542WAT     H2 7838   2.310   3.121   3.479  3.3555  0.6770  1.2676
 2543WAT      O 7839   1.214   3.762   2.208 -0.0622 -0.3762  0.0002
 2543WAT     H1 7840   1.153   3.689   2.204  0.9790 -1.6000  3.1091
 2543WAT     H2 7841   1.272   3.749   2.133 -0.0179 -2.7176  0.3560
 2544WAT      O 7842   3.930   3.014   1.756 -0.2077 -0.1351  0.4102
 2544WAT     H1 7843   4.016   2.974   1.769  0.1561  0.3026 -0.5375
 2544WAT     H2 7844   3.948   3.108   1.747 -0.4401 -0.2603 -2.3284
 2545WAT      O 7845   1.813   2.028   2.157 -0.6515  0.1733 -0.5659
 2545WAT     H1 7846   1.802   1.949   2.105 -0.5695  0.9698 -1.8204
 2545WAT     H2 7847   1.890   2.071   2.120 -1.0224  1.1219 -0.2693
 2546WAT      O 7848   4.050   0.349   2.999 -0.2447  0.0424  0.2324
 2546WAT     H1 7849   4.066   0.359   3.093 -0.2644 -0.9405  0.3601
 2546WAT     H2 7850   3.994   0.423   2.975 -0.3719  0.2103  1.0302
 2547WAT      O 7851   3.572   4.388   1.328  0.1576 -0.0578  0.2024
 2547WAT     H1 7852   3.633   4.449   1.371  2.4389 -1.0128 -1.4542
 2547WAT     H2 7853   3.620   4.305   1.326 -1.4145 -0.9790 -0.7929
 2548WAT      O 7854   3.222   0.086   1.650 -0.2899  0.2351 -0.7601
 2548WAT     H1 7855   3.306   0.131   1.655 -1.0277  1.5820  0.3603
 2548WAT     H2 7856   3.162   0.141   1.701 -1.5260 -1.4121 -0.3371
 2549WAT      O 7857   0.183   4.033   4.445  0.6765 -0.6035 -0.2216
 2549WAT     H1 7858   0.140   4.096   4.387 -1.6691 -2.6139 -0.8060
 2549WAT     H2 7859   0.155   3.948   4.413  1.8041 -1.8991  2.0109
 2550WAT      O 7860   4.148   5.136   4.934 -0.1184 -0.2157 -0.3688
 2550WAT     H1 7861   4.084   5.065   4.941 -0.8756  0.4181 -0.6545
 2550WAT     H2 7862   4.154   5.153   4.840 -0.9013  0.9228 -0.2358
 2551WAT      O 7863   0.225   0.383   0.397  0.0290 -0.3519 -0.0594
 2551WAT     H1 7864   0.296   0.446   0.384  0.9125 -1.5696 -1.5019
 2551WAT     H2 7865   0.156   0.414   0.339 -0.0578  0.0248  0.2415
 2552WAT      O 7866   4.165   0.582   3.779 -0.2226  0.0677 -0.2013
 2552WAT     H1 7867   4.088   0.527   3.791 -0.7072  0.9001  0.6485
 2552WAT     H2 7868   4.169   0.635   3.859 -0.2235  1.8031 -1.3117
 2553WAT      O 7869   0.919   2.223   3.592  0.0906  0.2370  0.5023
 2553WAT     H1 7870   0.939   2.316   3.593  0.8577  0.1039 -0.4992
 2553WAT     H2 7871   0.880   2.205   3.678  0.9098  1.2683  1.1118
 2554WAT      O 7872   0.980   3.997   3.358  0.1133 -0.1331  0.0564
 2554WAT     H1 7873   1.002   4.081   3.318  0.6310 -0.5854 -0.6275
 2554WAT     H2 7874   0.889   3.980   3.331 -0.6688  1.0655  1.7290
 2555WAT      O 7875   1.399   4.616   4.837 -0.0277 -0.0456  0.1197
 2555WAT     H1 7876   1.478   4.609   4.891 -0.0115  0.9386  0.2465
 2555WAT     H2 7877   1.375   4.709   4.842 -0.1226  0.0334 -1.4407
 2556WAT      O 7878   2.818   1.048   0.698  0.1533  0.3839  0.1188
 2556WAT     H1 7879   2.783   0.987   0.633 -1.9901  0.1659  1.3778
 2556WAT     H2 7880   2.807   1.134   0.657  1.1971  0.1001 -0.8012
 2557WAT      O 7881   1.625   2.498   0.395  0.0950  0.1865  0.1589
 2557WAT     H1 7882   1.600   2.589   0.377  0.2345 -0.1415 -1.9869
 2557WAT     H2 7883   1.542   2.454   0.414 -0.0353  0.6390  0.6738
 2558WAT      O 7884   0.505   1.090   0.436 -0.2875  0.1279  0.1376
 2558WAT     H1 7885   0.419   1.068   0.400 -0.4193 -0.0018  0.5310
 2558WAT     H2 7886   0.538   1.159   0.377 -0.9953  0.7329  0.4250
 2559WAT      O 7887   2.754   2.368   3.040 -0.2355  0.2307 -0.0868
 2559WAT     H1 7888   2.724   2.299   3.099  1.3680 -0.1207  0.3691
 2559WAT     H2 7889   2.741   2.332   2.953 -3.3245  1.0387 -0.0838
 2560WAT      O 7890   1.314   3.276   3.877 -0.6747 -0.1324  0.6594
 2560WAT     H1 7891   1.370   3.301   3.803 -0.2229  0.2652  1.1297
 2560WAT     H2 7892   1.279   3.190   3.852 -0.1033 -0.2479  0.2238
 2561WAT      O 7893   1.024   2.701   2.828  0.0844 -0.4385  0.5515
 2561WAT     H1 7894   1.103   2.718   2.879 -0.2686 -0.8946  1.2718
 2561WAT     H2 7895   0.954   2.692   2.894 -0.0351 -3.0388  0.1855
 2562WAT      O 7896   1.470   0.920   2.050  0.5996 -0.0609 -0.1769
 2562WAT     H1 7897   1.513   0.835   2.034  1.6760  0.2217  1.0377
 2562WAT     H2 7898   1.435   0.912   2.139  1.7608  1.1639  0.4200
 2563WAT      O 7899   2.665   0.645   0.094 -0.3518  0.0971 -0.1441
 2563WAT     H1 7900   2.688   0.737   0.083 -0.3526  0.0777 -0.3144
 2563WAT     H2 7901   2.577   0.637   0.055 -1.6671  0.6521  2.4725
 2564WAT      O 7902   0.923   1.090   4.953 -0.3179 -0.0967  0.2003
 2564WAT     H1 7903   0.860   1.022   4.929  1.1989 -0.5508 -3.1247
 2564WAT     H2 7904   1.002   1.041   4.977  0.0353  0.4635  0.1992
 2565WAT      O 7905   2.170   0.972   2.378 -0.2317  0.5386  0.0533
 2565WAT     H1 7906   2.202   1.058   2.407  0.9296  0.3155 -0.5132
 2565WAT     H2 7907   2.080   0.968   2.411  0.0045  1.5814  0.8990
 2566WAT      O 7908   3.843   0.315   0.217  0.3062 -0.0127 -0.2127
 2566WAT     H1 7909   3.810   0.233   0.180  0.6369 -0.0666 -0.3921
 2566WAT     H2 7910   3.810   0.383   0.158 -1.5876  0.1845  0.9798
 2567WAT      O 7911   2.017   0.330   2.965 -0.3335 -0.2027 -0.5965
 2567WAT     H1 7912   1.931   0.290   2.976 -0.9582  1.0263 -0.8602
 2567WAT     H2 7913   2.071   0.260   2.928 -0.3346 -1.9530  2.4215
 2568WAT      O 7914   3.832   1.123   2.595  0.5393 -0.4294  0.5564
 2568WAT     H1 7915   3.782   1.042   2.601  1.5016 -1.3232 -2.2778
 2568WAT     H2 7916   3.912   1.099   2.549  1.4639  1.8941  0.8181
 2569WAT      O 7917   4.216   4.837   4.675  0.0297 -0.0911  0.8363
 2569WAT     H1 7918   4.184   4.926   4.687 -0.1644  0.1265 -1.0863
 2569WAT     H2 7919   4.311   4.843   4.684  0.0139  0.2925  0.7367
 2570WAT      O 7920   2.405   4.059   1.079 -0.1954 -0.3613  0.6097
 2570WAT     H1 7921   2.342   4.072   1.008  0.4561  0.3034  0.1512
 2570WAT     H2 7922   2.408   4.143   1.124  0.3230 -0.4024  0.6584
 2571WAT      O 7923   1.711   0.402   3.675  0.4009 -0.3693  0.5774
 2571WAT     H1 7924   1.759   0.355   3.607  0.7560  0.2132  0.4272
 2571WAT     H2 7925   1.772   0.408   3.748 -0.2372 -1.6797  1.2535
 2572WAT      O 7926   1.360   4.939   2.061  0.8045 -0.4523  0.1239
 2572WAT     H1 7927   1.323   4.869   2.114 -0.7064 -0.0869 -0.3907
 2572WAT     H2 7928   1.337   4.915   1.971 -1.5960  1.6471  0.0498
 2573WAT      O 7929   3.493   0.244   5.281 -0.3702  0.6460  0.1390
 2573WAT     H1 7930   3.469   0.334   5.301 -0.7599  1.2519 -2.5672
 2573WAT     H2 7931   3.414   0.207   5.241 -0.0234 -0.7135  0.6433
 2574WAT      O 7932   0.238   0.370   1.810 -0.2055  0.0285 -0.2846
 2574WAT     H1 7933   0.254   0.378   1.717  0.1968 -0.2492 -0.2370
 2574WAT     H2 7934   0.319   0.399   1.852 -1.6887  4.2673  0.1071
 2575WAT      O 7935   3.045   2.084   0.808 -0.2030  0.1451 -0.1709
 2575WAT     H1 7936   2.996   2.108   0.729 -0.8499  0.8270  0.4282
 2575WAT     H2 7937   3.114   2.027   0.776 -0.0652  0.9255 -1.3240
 2576WAT      O 7938  -0.016   3.195   2.886  0.9741 -0.1291 -0.8243
 2576WAT     H1 7939   0.054   3.190   2.821  0.5080 -0.5755 -1.3008
 2576WAT     H2 7940  -0.025   3.288   2.905  1.0363  0.0109 -1.4756
 2577WAT      O 7941   3.952   2.881   0.780 -0.3458 -0.6841  0.9324
 2577WAT     H1 7942   3.870   2.868   0.732  0.3105  1.6564 -1.0217
 2577WAT     H2 7943   3.931   2.951   0.842 -0.5422 -2.1001  2.5492
 2578WAT      O 7944   2.151   1.266   0.811 -0.0568 -0.1648  0.0721
 2578WAT     H1 7945   2.181   1.355   0.825  1.2171 -0.6664  0.6994
 2578WAT     H2 7946   2.156   1.253   0.716  0.1174  0.3051  0.0176
 2579WAT      O 7947   0.939   1.848   5.044  0.4446  0.2155  0.1087
 2579WAT     H1 7948   0.861   1.876   5.093  0.8102 -1.1188  1.5267
 2579WAT     H2 7949   0.924   1.755   5.027  1.8033 -0.1134  0.5963
 2580WAT      O 7950   1.839   1.548   1.898  0.2398  0.1580 -0.0231
 2580WAT     H1 7951   1.816   1.492   1.824 -0.7010  0.1110  0.2880
 2580WAT     H2 7952   1.811   1.636   1.870  0.6291  0.2765 -0.0430
 2581WAT      O 7953   1.739   0.556   2.504 -0.3137  0.7859  0.3425
 2581WAT     H1 7954   1.695   0.639   2.522 -0.1948  0.9100  0.0596
 2581WAT     H2 7955   1.710   0.498   2.574 -1.0949  0.8072  0.0478
 2582WAT      O 7956   0.662   1.916   5.055 -0.5372 -0.0098 -0.4200
 2582WAT     H1 7957   0.617   1.880   4.979  0.9832 -1.3813 -0.7194
 2582WAT     H2 7958   0.700   1.998   5.024 -3.1824  1.4756 -0.0116
 2583WAT      O 7959   1.192   4.795   5.134  0.1737 -0.3469 -0.8078
 2583WAT     H1 7960   1.222   4.705   5.147  1.1269  0.0443 -0.1345
 2583WAT     H2 7961   1.098   4.792   5.152  0.5479 -0.8222  1.3563
 2584WAT      O 7962   2.672   3.749   1.978  0.0145 -0.0846  0.6863
 2584WAT     H1 7963   2.640   3.802   1.905  0.8256 -1.8635 -1.0965
 2584WAT     H2 7964   2.724   3.680   1.935  0.8777 -0.9680  3.0054
 2585WAT      O 7965   1.840   2.966   2.569 -0.1561  0.4827 -0.3588
 2585WAT     H1 7966   1.811   2.943   2.480 -1.1822  1.5008 -0.3150
 2585WAT     H2 7967   1.810   3.056   2.581 -0.7842  0.0756  1.3337
 2586WAT      O 7968   3.143   2.384   0.715 -0.0382 -0.5574 -0.4853
 2586WAT     H1 7969   3.082   2.322   0.756 -0.3246 -0.1489 -0.2854
 2586WAT     H2 7970   3.116   2.388   0.623 -0.4917 -0.1713 -0.3389
 2587WAT      O 7971   3.492   3.563   2.005  0.0136  0.0683  0.8379
 2587WAT     H1 7972   3.500   3.618   2.082  3.2190 -0.0572  0.7244
 2587WAT     H2 7973   3.549   3.488   2.023 -0.0212 -0.5004 -1.1682
 2588WAT      O 7974   3.486   1.353   0.071 -0.1693  0.1934 -0.0626
 2588WAT     H1 7975   3.570   1.373   0.112  1.0990 -1.1439 -1.8425
 2588WAT     H2 7976   3.442   1.437   0.063  1.4211  1.0666  0.0527
 2589WAT      O 7977   4.362   1.411   4.606  0.1469  0.8355  0.0150
 2589WAT     H1 7978   4.378   1.472   4.535 -0.2343  2.0442  0.9269
 2589WAT     H2 7979   4.267   1.406   4.613  0.1774  1.3665  0.9517
 2590WAT      O 7980   3.271   4.987   4.881  0.5454 -0.5486  0.4931
 2590WAT     H1 7981   3.256   4.945   4.966 -0.2852 -0.4153  0.4188
 2590WAT     H2 7982   3.325   5.063   4.902 -3.2525  2.1017  1.6392
 2591WAT      O 7983   1.143   3.727   4.529  0.2722 -0.8276  0.5002
 2591WAT     H1 7984   1.096   3.703   4.449 -0.9789 -1.3679  1.3834
 2591WAT     H2 7985   1.182   3.813   4.509 -1.5811 -0.0785 -0.0570
 2592WAT      O 7986   3.679   4.271   3.785 -0.3696 -0.1916 -0.0447
 2592WAT     H1 7987   3.634   4.220   3.718  0.8152 -2.2156  0.5968
 2592WAT     H2 7988   3.659   4.362   3.764  0.5234 -0.6607 -3.5494
 2593WAT      O 7989   2.718   1.498   3.547  1.1203 -0.4326  1.0497
 2593WAT     H1 7990   2.717   1.554   3.624  1.0688  0.6912  0.2565
 2593WAT     H2 7991   2.795   1.527   3.498  0.1325  0.1672 -0.2204
 2594WAT      O 7992   2.862   0.911   3.814  0.4373 -0.5229 -0.4537
 2594WAT     H1 7993   2.768   0.918   3.797  0.6040 -0.8689 -1.6142
 2594WAT     H2 7994   2.868   0.874   3.902 -0.5104 -0.5241 -0.3796
 2595WAT      O 7995   1.322   2.896   2.031 -0.1297  0.1860  0.0079
 2595WAT     H1 7996   1.280   2.835   1.971  2.3676 -3.7844  1.8831
 2595WAT     H2 7997   1.386   2.942   1.976 -0.1993 -0.8845 -1.0171
 2596WAT      O 7998   3.501   3.353   1.704  0.0415 -0.0175  0.0975
 2596WAT     H1 7999   3.440   3.353   1.778 -0.6456  0.4810 -0.4572
 2596WAT     H2 8000   3.588   3.359   1.744 -0.2591 -0.8852  0.9025
 2597WAT      O 8001   1.759   4.232   4.812 -0.1772 -0.4027  0.1108
 2597WAT     H1 8002   1.744   4.167   4.881  1.2761 -1.1829 -0.2679
 2597WAT     H2 8003   1.853   4.245   4.811 -0.2706  0.3451 -1.0571
 2598WAT      O 8004   1.696   2.122   3.724  0.0958  0.7378  0.0107
 2598WAT     H1 8005   1.743   2.082   3.797 -0.0898  1.7594  0.7138
 2598WAT     H2 8006   1.608   2.138   3.759 -0.7366 -0.9160 -1.2026
 2599WAT      O 8007   0.785   2.426   2.651  0.6441 -0.2762  0.7769
 2599WAT     H1 8008   0.838   2.447   2.574 -0.5420 -0.1449 -0.0415
 2599WAT     H2 8009   0.759   2.335   2.638 -2.5968  0.7292 -0.9666
 2600WAT      O 8010   4.126   0.557   0.439  0.4497 -0.3360  0.1743
 2600WAT     H1 8011   4.061   0.597   0.381 -0.2712 -0.7821  0.6597
 2600WAT     H2 8012   4.123   0.464   0.417  2.1010 -0.1714 -0.9397
 2601WAT      O 8013   2.971   1.333   5.228 -0.4565 -0.1330 -0.1626
 2601WAT     H1 8014   3.042   1.397   5.227 -0.9658  0.5000  1.5258
 2601WAT     H2 8015   2.931   1.340   5.141  0.0782  1.1591 -0.3229
 2602WAT      O 8016   0.385   2.796   3.008 -0.1457 -0.1409  0.1935
 2602WAT     H1 8017   0.348   2.793   2.920 -1.9431  1.4796  0.8217
 2602WAT     H2 8018   0.330   2.737   3.060 -1.8892  2.1081  1.0824
 2603WAT      O 8019   1.867   4.172   1.348  0.0909  0.6172 -0.1557
 2603WAT     H1 8020   1.960   4.176   1.323 -0.1765  0.3529 -1.2214
 2603WAT     H2 8021   1.831   4.255   1.319 -0.5044 -0.2049 -1.8645
 2604WAT      O 8022   3.910   1.541   2.981 -0.0138 -0.1103 -0.3048
 2604WAT     H1 8023   3.990   1.491   2.969 -0.3290 -0.5794 -0.4754
 2604WAT     H2 8024   3.843   1.475   2.999  0.0694  0.3819  2.3032
 2605WAT      O 8025   2.151   0.613   1.437  0.0202  0.3422 -0.8969
 2605WAT     H1 8026   2.106   0.692   1.465 -2.4747 -1.7300  1.5369
 2605WAT     H2 8027   2.236   0.615   1.482 -1.0589  0.4931  1.2101
 2606WAT      O 8028   2.283   4.333   1.751 -0.7360 -0.1337 -0.0810
 2606WAT     H1 8029   2.282   4.391   1.827 -0.2712 -0.1168 -0.0844
 2606WAT     H2 8030   2.376   4.324   1.729 -0.9254  1.4241 -1.8159
 2607WAT      O 8031   2.281   1.611   2.447  0.1303  0.0297  0.5552
 2607WAT     H1 8032   2.284   1.706   2.433 -1.3649  0.1182  0.6323
 2607WAT     H2 8033   2.295   1.574   2.360  0.8271  0.3108  0.5416
 2608WAT      O 8034   3.836   3.485   0.630 -0.7481  0.3395 -0.0952
 2608WAT     H1 8035   3.752   3.451   0.597 -1.4411  2.3438 -0.5441
 2608WAT     H2 8036   3.820   3.502   0.722 -1.5069  2.4567 -0.5543
 2609WAT      O 8037   2.894   2.158   2.820  0.6326  0.2214 -0.2739
 2609WAT     H1 8038   2.913   2.119   2.735 -0.1456 -0.7862 -0.0041
 2609WAT     H2 8039   2.843   2.091   2.867 -0.2633  1.3398  0.4096
 2610WAT      O 8040   2.872   2.802   5.193 -0.2974  0.1776  0.4029
 2610WAT     H1 8041   2.863   2.718   5.148  2.5357  0.6364 -1.2662
 2610WAT     H2 8042   2.864   2.867   5.123  0.9006  1.1036  1.1093
 2611WAT      O 8043   0.923   2.477   2.390 -0.5359  0.1079  0.3386
 2611WAT     H1 8044   0.882   2.444   2.310 -1.3369  1.2322  0.2757
 2611WAT     H2 8045   0.955   2.564   2.367 -1.2535  0.6708  1.3653
 2612WAT      O 8046   4.302   4.189   0.589 -0.1726 -0.5735  0.1525
 2612WAT     H1 8047   4.348   4.217   0.668  0.1430 -0.1159 -0.1881
 2612WAT     H2 8048   4.338   4.102   0.571 -1.1235 -1.2042  1.1839
 2613WAT      O 8049   0.785   0.692   2.016  0.1232 -0.0100 -0.7863
 2613WAT     H1 8050   0.694   0.688   1.987 -0.0450  2.3104 -0.7325
 2613WAT     H2 8051   0.837   0.683   1.936 -0.2349  0.9926 -1.1479
 2614WAT      O 8052   4.477   2.673   2.088  0.1271 -0.0051  0.3724
 2614WAT     H1 8053   4.492   2.686   1.995  0.6176  1.2688  0.6097
 2614WAT     H2 8054   4.403   2.612   2.093 -0.6098  0.7648 -0.8458
 2615WAT      O 8055   0.431   4.378   4.057  0.3869  0.2268 -0.1126
 2615WAT     H1 8056   0.343   4.341   4.047  0.5708 -0.4576  0.7042
 2615WAT     H2 8057   0.430   4.419   4.143  0.8548  0.2570 -0.1209
 2616WAT      O 8058   2.483   3.186   0.813  0.5318  0.3055  0.1186
 2616WAT     H1 8059   2.575   3.183   0.785  0.5707  0.8241  0.1812
 2616WAT     H2 8060   2.473   3.112   0.873  1.4593  1.4629  1.7763
 2617WAT      O 8061   2.905   0.750   4.023 -0.4716 -0.3873 -0.1258
 2617WAT     H1 8062   2.998   0.770   4.033 -0.2245  0.1344 -2.8604
 2617WAT     H2 8063   2.892   0.670   4.074  2.1033 -2.0166 -1.7880
 2618WAT      O 8064   1.402   2.287   3.401  0.2708  0.7837  0.3348
 2618WAT     H1 8065   1.463   2.359   3.418  0.0457  0.9884  0.2853
 2618WAT     H2 8066   1.454   2.221   3.355  0.6375  0.6452  0.9422
 2619WAT      O 8067   3.856   0.750   3.178 -0.2777  0.1974 -0.0906
 2619WAT     H1 8068   3.941   0.718   3.146 -0.2913 -0.3378  0.3792
 2619WAT     H2 8069   3.827   0.811   3.111  0.0768 -0.2692 -0.6871
 2620WAT      O 8070   0.259   0.778   2.500  0.6433 -0.2599 -0.2517
 2620WAT     H1 8071   0.339   0.733   2.525  0.6055  0.2541  0.8733
 2620WAT     H2 8072   0.190   0.735   2.550  0.7178  1.4998  1.5077
 2621WAT      O 8073   3.628   3.977   2.262 -0.5416  0.5169  0.1770
 2621WAT     H1 8074   3.558   4.016   2.209 -0.9155 -1.2516 -0.7251
 2621WAT     H2 8075   3.709   4.015   2.227 -0.9438  1.2467  0.0331
 2622WAT      O 8076   3.584   2.704   1.304 -0.0053 -0.3805  0.1064
 2622WAT     H1 8077   3.572   2.654   1.385 -0.9028  0.1840  0.3350
 2622WAT     H2 8078   3.500   2.749   1.291 -0.0713 -0.8687 -1.4116
 2623WAT      O 8079   1.171   4.049   5.118  0.3995 -0.1603  0.2979
 2623WAT     H1 8080   1.134   3.962   5.108  1.5757 -0.7768  1.0050
 2623WAT     H2 8081   1.248   4.050   5.061 -0.3310  0.8908 -0.7120
 2624WAT      O 8082   2.066   4.853   1.447 -0.5508 -0.6953  0.0037
 2624WAT     H1 8083   2.008   4.870   1.373 -0.6629 -2.9612 -0.5012
 2624WAT     H2 8084   2.095   4.762   1.434 -1.0487 -1.3827  3.0471
 2625WAT      O 8085   0.466   3.754   3.401  0.4272 -0.3477  0.0380
 2625WAT     H1 8086   0.433   3.808   3.472  2.4105  0.5110  0.3779
 2625WAT     H2 8087   0.534   3.700   3.442  0.8991 -0.5607 -0.9955
 2626WAT      O 8088   1.302   5.134   4.044  0.9885  0.6374 -0.0811
 2626WAT     H1 8089   1.344   5.136   3.958  0.0066 -0.1499 -0.6043
 2626WAT     H2 8090   1.374   5.121   4.106  1.6863  1.0160 -0.7950
 2627WAT      O 8091   0.781   0.129   4.487 -0.6596  0.4244  0.8635
 2627WAT     H1 8092   0.689   0.125   4.511 -1.0552 -1.2280 -0.7210
 2627WAT     H2 8093   0.782   0.116   4.393  1.2727 -1.2520  1.0490
 2628WAT      O 8094   3.051   2.680   0.595  0.7998 -0.3599 -0.0675
 2628WAT     H1 8095   3.127   2.665   0.539 -0.9597  1.1971 -3.1496
 2628WAT     H2 8096   3.076   2.756   0.649  1.2386  0.5732 -1.5311
 2629WAT      O 8097   3.837   1.507   2.685 -0.1588 -0.2891 -0.4847
 2629WAT     H1 8098   3.763   1.555   2.722  0.6162 -0.5800  1.5631
 2629WAT     H2 8099   3.853   1.436   2.746  0.9352 -1.0778 -1.6278
 2630WAT      O 8100   1.965   0.869   2.946 -0.1138  0.5781  0.2114
 2630WAT     H1 8101   2.042   0.884   3.001 -0.6279 -0.1063  1.1504
 2630WAT     H2 8102   1.996   0.884   2.857  1.3480 -0.5414  0.4840
 2631WAT      O 8103   2.710   2.552   1.282 -0.2173  0.2365  0.6108
 2631WAT     H1 8104   2.781   2.490   1.269 -0.5771 -0.3214  1.2596
 2631WAT     H2 8105   2.695   2.552   1.377 -0.4426  1.0634  0.5795
 2632WAT      O 8106   2.120   3.238   2.974 -0.2511 -1.0041  0.3595
 2632WAT     H1 8107   2.194   3.259   2.917 -0.2511  1.2590  1.0674
 2632WAT     H2 8108   2.045   3.280   2.932 -0.4227 -0.1309  1.4934
 2633WAT      O 8109   1.284   4.319   2.310  0.0789  0.3226 -0.6918
 2633WAT     H1 8110   1.297   4.238   2.261 -0.7597  0.7093 -1.5905
 2633WAT     H2 8111   1.338   4.308   2.389  0.9231 -0.5945 -1.3658
 2634WAT      O 8112   4.278   3.323   0.579  0.1971 -0.1694 -0.4390
 2634WAT     H1 8113   4.209   3.340   0.516 -0.9669 -1.3897  0.4459
 2634WAT     H2 8114   4.281   3.403   0.633  0.9725  0.7404 -1.7738
 2635WAT      O 8115   4.223   0.925   3.936  0.1405 -0.0099 -0.1504
 2635WAT     H1 8116   4.209   0.983   4.010  1.2833 -0.6417  0.5879
 2635WAT     H2 8117   4.318   0.910   3.935  0.0790 -0.4331 -1.4166
 2636WAT      O 8118   1.190   1.833   2.152  0.4940  0.5692 -0.0247
 2636WAT     H1 8119   1.226   1.755   2.109  0.8555  0.1596  0.9954
 2636WAT     H2 8120   1.120   1.862   2.094  1.1794  0.2221 -1.0567
 2637WAT      O 8121   1.665   0.111   1.409  0.1382 -0.3697  0.0289
 2637WAT     H1 8122   1.685   0.204   1.416 -2.6678  0.3260 -0.0663
 2637WAT     H2 8123   1.751   0.068   1.409  1.5421  2.2236 -0.5892
 2638WAT      O 8124   4.182   4.128   0.317 -0.0745 -0.3653  0.2686
 2638WAT     H1 8125   4.231   4.178   0.383 -1.9087  1.5531  0.3016
 2638WAT     H2 8126   4.249   4.075   0.272  2.2248  2.7155 -0.2963
 2639WAT      O 8127   2.546   1.074   2.662 -0.0226 -0.3257  0.4602
 2639WAT     H1 8128   2.570   0.991   2.702 -0.4887  0.0992  1.6903
 2639WAT     H2 8129   2.629   1.120   2.650  0.1495 -0.5619  0.7272
 2640WAT      O 8130   2.943   1.419   4.145 -0.1517  0.3521  0.4027
 2640WAT     H1 8131   2.962   1.496   4.091 -1.6516  0.4908  0.0289
 2640WAT     H2 8132   2.851   1.400   4.128  0.0825 -1.2944  0.7983
 2641WAT      O 8133   4.377   4.393   4.937  0.5758 -0.0473  0.7752
 2641WAT     H1 8134   4.288   4.360   4.928  0.6762  0.0578 -1.0240
 2641WAT     H2 8135   4.430   4.333   4.885  1.6221 -0.3022  2.1009
 2642WAT      O 8136   2.643   4.649   4.538  0.4815 -0.6443  0.3877
 2642WAT     H1 8137   2.695   4.649   4.458  0.2835 -0.8322  0.2618
 2642WAT     H2 8138   2.568   4.705   4.518 -0.3491 -1.8908 -0.0565
 2643WAT      O 8139   3.675   0.723   1.983  0.0911 -0.0234  0.2911
 2643WAT     H1 8140   3.587   0.718   1.946  0.4630  0.3710 -0.6833
 2643WAT     H2 8141   3.698   0.632   2.003  0.0656 -0.3161 -0.9257
 2644WAT      O 8142   0.563   2.152   4.822 -0.0049  0.0100 -0.5794
 2644WAT     H1 8143   0.489   2.144   4.883 -0.4241 -0.5159 -1.1464
 2644WAT     H2 8144   0.525   2.196   4.745  0.4013  0.2150 -0.6651
 2645WAT      O 8145   0.076   1.444   2.668  0.0066  0.3060 -0.2349
 2645WAT     H1 8146   0.074   1.348   2.666 -0.9610  0.2505  1.6701
 2645WAT     H2 8147   0.049   1.470   2.580 -0.4303 -1.1546 -0.5600
 2646WAT      O 8148   3.314   4.801   3.537  0.2215 -0.4620 -0.3412
 2646WAT     H1 8149   3.295   4.890   3.567 -0.2616 -0.3250 -1.0418
 2646WAT     H2 8150   3.229   4.758   3.532  0.6013 -1.5730  1.8081
 2647WAT      O 8151   3.839   3.566   0.131  0.2640  0.8814  0.1183
 2647WAT     H1 8152   3.891   3.641   0.104 -0.0109  1.1540  0.3505
 2647WAT     H2 8153   3.846   3.505   0.057  0.3087  1.2204 -0.1622
 2648WAT      O 8154   3.924   2.810   2.648 -0.0431  0.5098 -0.4434
 2648WAT     H1 8155   3.925   2.742   2.581 -0.8717 -0.5828  0.5953
 2648WAT     H2 8156   3.837   2.850   2.640  0.5695  1.7164 -1.2832
 2649WAT      O 8157   0.681   5.146   1.039 -0.3032  0.6714  0.1093
 2649WAT     H1 8158   0.592   5.166   1.068 -0.3933  0.3578  0.0457
 2649WAT     H2 8159   0.694   5.054   1.062  0.1060  0.7944  0.3770
 2650WAT      O 8160   1.377   1.569   3.820  0.3593 -0.2425 -0.0910
 2650WAT     H1 8161   1.463   1.607   3.803  1.0546 -1.0229  1.4878
 2650WAT     H2 8162   1.353   1.603   3.907 -0.9687  0.0290 -0.5479
 2651WAT      O 8163   2.180   0.939   4.559  0.3396  0.6791 -0.3290
 2651WAT     H1 8164   2.125   1.007   4.519  0.4634  0.6625 -0.5303
 2651WAT     H2 8165   2.219   0.893   4.484 -0.1399  0.0586 -0.1976
 2652WAT      O 8166   2.673   4.003   1.089 -0.2039 -0.5057  0.5005
 2652WAT     H1 8167   2.579   4.012   1.104  0.0788 -0.4527  2.4137
 2652WAT     H2 8168   2.701   4.090   1.061 -0.9478 -0.9082 -1.7256
 2653WAT      O 8169   1.320   2.910   1.612  0.0026 -0.1907  0.2305
 2653WAT     H1 8170   1.370   2.852   1.554 -2.8355 -2.6903  0.0094
 2653WAT     H2 8171   1.284   2.977   1.554  1.0311  0.1471 -0.0309
 2654WAT      O 8172   0.442   3.616   2.623 -0.7643  0.8671 -0.1516
 2654WAT     H1 8173   0.445   3.678   2.695 -0.0280  2.5158 -1.5198
 2654WAT     H2 8174   0.516   3.557   2.637 -0.5314  1.2807  0.3504
 2655WAT      O 8175   3.497   0.462   4.040  0.4900  0.2168  0.1707
 2655WAT     H1 8176   3.470   0.371   4.054 -1.5831  0.4646 -1.6987
 2655WAT     H2 8177   3.417   0.513   4.048  1.5740  1.9130  0.9704
 2656WAT      O 8178   1.129   2.878   3.262  0.0622 -0.4755 -0.6127
 2656WAT     H1 8179   1.051   2.827   3.286  0.2877 -1.5808 -2.1272
 2656WAT     H2 8180   1.131   2.949   3.327 -2.3284 -0.2698 -0.6620
 2657WAT      O 8181   0.206   4.868   2.784  0.2997 -0.6642 -0.5095
 2657WAT     H1 8182   0.263   4.884   2.860  1.6103  0.6526 -1.6872
 2657WAT     H2 8183   0.267   4.842   2.715 -0.7840 -1.1400 -1.2957
 2658WAT      O 8184   2.440   3.495   1.469 -0.3709 -0.0164 -0.9724
 2658WAT     H1 8185   2.530   3.468   1.453 -0.4560 -1.4217  0.6089
 2658WAT     H2 8186   2.447   3.576   1.519  0.0113 -0.0562 -0.9627
 2659WAT      O 8187   1.328   1.168   0.928 -0.1481 -0.6999 -0.0642
 2659WAT     H1 8188   1.392   1.157   0.858 -0.4911 -0.8165 -0.3616
 2659WAT     H2 8189   1.243   1.161   0.884 -0.3791  0.8265  0.1079
 2660WAT      O 8190   1.716   4.686   5.288 -0.1899  0.0957  0.0897
 2660WAT     H1 8191   1.754   4.612   5.241  0.3842  0.3113  0.2053
 2660WAT     H2 8192   1.740   4.762   5.234  2.6294  0.6641  1.9029
 2661WAT      O 8193   0.345   1.419   1.912  0.1795  0.2163  0.5934
 2661WAT     H1 8194   0.292   1.477   1.966  1.0066  0.0942  1.5743
 2661WAT     H2 8195   0.363   1.469   1.833  0.8383  1.3096  1.3983
 2662WAT      O 8196   1.001   1.888   3.720 -0.1379  0.0451 -0.0695
 2662WAT     H1 8197   0.968   1.800   3.736  1.2172 -0.8625 -2.0232
 2662WAT     H2 8198   0.965   1.913   3.635 -0.1232  1.2006  0.2432
 2663WAT      O 8199   4.443   0.278   0.320  0.1424  0.4244  0.0551
 2663WAT     H1 8200   4.470   0.368   0.301  2.2027 -0.6171 -2.6338
 2663WAT     H2 8201   4.380   0.257   0.251 -1.2996  0.1621  1.4144
 2664WAT      O 8202   1.608   0.776   0.460 -0.0275 -0.1689 -0.3183
 2664WAT     H1 8203   1.528   0.750   0.414  0.5662 -0.6411 -1.0971
 2664WAT     H2 8204   1.679   0.738   0.409  0.6944  0.0465  0.4982
 2665WAT      O 8205   2.636   1.967   3.072  0.0550 -0.2725  0.2149
 2665WAT     H1 8206   2.564   1.904   3.074  0.2368 -0.4884  0.0213
 2665WAT     H2 8207   2.707   1.921   3.026 -0.3276  0.6184 -1.3530
 2666WAT      O 8208   0.286   1.705   0.134  0.2234  0.5425  0.0883
 2666WAT     H1 8209   0.299   1.611   0.118  1.8179  0.9061 -0.9897
 2666WAT     H2 8210   0.252   1.709   0.223  0.0002 -1.0740  0.1134
 2667WAT      O 8211   0.623   3.832   2.051  0.7291 -0.0552  0.6289
 2667WAT     H1 8212   0.579   3.747   2.051 -1.8615  1.1765  0.0601
 2667WAT     H2 8213   0.657   3.841   1.962  0.0846 -0.0672  0.3778
 2668WAT      O 8214   0.155   4.242   0.570 -0.1551 -0.0541 -0.5869
 2668WAT     H1 8215   0.108   4.326   0.574 -1.3376 -0.6615 -1.2133
 2668WAT     H2 8216   0.087   4.178   0.549  0.6073 -1.2874  0.5876
 2669WAT      O 8217   0.812   0.313   3.677  0.4275  0.0065 -0.3760
 2669WAT     H1 8218   0.720   0.290   3.693  0.7762 -0.1991  1.4690
 2669WAT     H2 8219   0.818   0.405   3.704  1.2890 -0.6709  1.9158
 2670WAT      O 8220   3.051   2.507   2.014 -0.3188  0.0674 -0.3403
 2670WAT     H1 8221   3.078   2.530   2.103 -1.8412 -1.2449  0.5234
 2670WAT     H2 8222   3.116   2.549   1.958  0.5216  1.1778  1.3638
 2671WAT      O 8223   3.610   4.398   4.657 -0.0563 -0.3761 -0.1587
 2671WAT     H1 8224   3.560   4.436   4.584 -1.0990  0.6511  1.0309
 2671WAT     H2 8225   3.699   4.431   4.645 -0.3507  0.2738 -0.6352
 2672WAT      O 8226   2.526   4.206   3.520 -0.2575 -0.0917 -0.0114
 2672WAT     H1 8227   2.554   4.172   3.435 -0.6138 -1.0371  0.2361
 2672WAT     H2 8228   2.496   4.129   3.568  2.9433 -0.1603  2.2202
 2673WAT      O 8229   4.417   2.004   2.881  0.3801 -0.3424  0.0497
 2673WAT     H1 8230   4.393   2.075   2.822  1.1955 -0.2929 -0.2270
 2673WAT     H2 8231   4.502   2.030   2.917  0.0189 -0.4836  1.0640
 2674WAT      O 8232   4.269   1.127   4.947 -0.2080  0.1389 -0.0498
 2674WAT     H1 8233   4.306   1.149   5.033  0.7041  2.3070 -0.9131
 2674WAT     H2 8234   4.338   1.078   4.903 -0.1276  0.2419 -0.0396
 2675WAT      O 8235   1.596   0.857   3.485 -0.1226 -0.6601  0.2380
 2675WAT     H1 8236   1.570   0.948   3.497 -1.1441 -0.9961  0.6418
 2675WAT     H2 8237   1.674   0.862   3.429 -1.5174  0.3520 -1.7679
 2676WAT      O 8238   3.590   1.116   4.645 -0.0933  0.4861 -0.6816
 2676WAT     H1 8239   3.562   1.113   4.554  1.9745 -0.7750 -1.3572
 2676WAT     H2 8240   3.635   1.200   4.653  0.4288  0.2503 -1.0789
 2677WAT      O 8241   3.097   3.297   2.584 -0.0626 -0.0734  0.1127
 2677WAT     H1 8242   3.016   3.267   2.625 -0.5990  1.0538 -0.0932
 2677WAT     H2 8243   3.101   3.250   2.501 -0.2054 -0.5656  0.3816
 2678WAT      O 8244   1.058   2.626   0.983  0.3683 -0.2783  0.0503
 2678WAT     H1 8245   1.078   2.543   0.940  1.1185 -0.5316  0.8497
 2678WAT     H2 8246   1.143   2.669   0.994  0.2480 -0.3558  1.5058
 2679WAT      O 8247   3.495   3.361   4.996  0.5708  0.2081 -0.7140
 2679WAT     H1 8248   3.498   3.350   5.091  0.4560  0.7026 -0.6497
 2679WAT     H2 8249   3.581   3.397   4.973 -0.3789  2.9376 -0.3983
 2680WAT      O 8250   0.691   3.973   0.299 -0.4315  0.5294  0.3467
 2680WAT     H1 8251   0.766   3.985   0.240  0.4788 -0.6820  1.1975
 2680WAT     H2 8252   0.625   4.034   0.267  1.5935  3.0940  0.7478
 2681WAT      O 8253   2.946   2.922   2.972 -0.4994 -0.0489  0.1327
 2681WAT     H1 8254   2.916   2.836   3.001 -2.1007  0.8395  1.2844
 2681WAT     H2 8255   2.927   2.924   2.878 -1.0213 -0.7278  0.2124
 2682WAT      O 8256   3.012   1.585   2.960 -0.6459  0.5858 -0.2492
 2682WAT     H1 8257   3.072   1.591   2.886 -0.4895 -1.5812 -0.3508
 2682WAT     H2 8258   3.068   1.592   3.037 -0.1079 -1.8441 -0.3366
 2683WAT      O 8259   4.409   1.819   4.496  0.1986 -0.4670  0.1290
 2683WAT     H1 8260   4.386   1.909   4.472 -0.2717 -0.7471 -0.4992
 2683WAT     H2 8261   4.456   1.785   4.419 -1.3978 -1.4046 -0.4815
 2684WAT      O 8262   2.409   0.501   4.296 -0.0811  0.0359 -0.3456
 2684WAT     H1 8263   2.364   0.425   4.259 -1.0919  0.2785  0.3431
 2684WAT     H2 8264   2.407   0.487   4.391  1.1895  0.1277 -0.2860
 2685WAT      O 8265   2.287   2.802   3.944  0.1108  0.0690 -0.0407
 2685WAT     H1 8266   2.288   2.777   3.852  1.0285 -0.3369  0.0656
 2685WAT     H2 8267   2.220   2.870   3.950 -0.8896 -0.8307 -0.7498
 2686WAT      O 8268   3.392   3.405   0.401  0.1198 -0.6901 -0.5451
 2686WAT     H1 8269   3.337   3.452   0.464  1.4792  0.5528 -0.2277
 2686WAT     H2 8270   3.432   3.475   0.348  1.9231 -1.4971 -0.3089
 2687WAT      O 8271   1.057   0.239   2.086  0.1960 -0.1934 -0.2017
 2687WAT     H1 8272   1.142   0.210   2.052  0.1874  0.2876 -0.6418
 2687WAT     H2 8273   1.067   0.333   2.099 -0.2372 -0.1523 -0.1621
 2688WAT      O 8274   4.070   4.714   4.905  0.1237 -0.4902 -0.1167
 2688WAT     H1 8275   4.144   4.729   4.846 -0.4000 -0.4262 -0.7841
 2688WAT     H2 8276   4.055   4.800   4.945 -0.9855  0.1024 -1.6823
 2689WAT      O 8277   0.952   1.537   1.490  0.0392 -0.2442  0.0645
 2689WAT     H1 8278   1.023   1.485   1.528  1.1194  0.9281 -0.2642
 2689WAT     H2 8279   0.874   1.482   1.498  0.8918 -1.3679  0.8866
 2690WAT      O 8280   0.826   1.136   1.623  0.3839  0.1484  0.2200
 2690WAT     H1 8281   0.834   1.052   1.577 -0.0487 -0.5121  1.2978
 2690WAT     H2 8282   0.799   1.111   1.712  1.8370  1.3183  1.0315
 2691WAT      O 8283   1.263   0.316   4.899  0.1588 -0.2767  0.1501
 2691WAT     H1 8284   1.182   0.291   4.943  0.1306  0.3382  0.4549
 2691WAT     H2 8285   1.327   0.251   4.929 -0.0797 -0.4097  0.3789
 2692WAT      O 8286   0.961   4.226   4.656  0.1566  0.4793 -0.7840
 2692WAT     H1 8287   0.933   4.151   4.603 -1.1582  0.4254 -0.0591
 2692WAT     H2 8288   0.990   4.186   4.739  0.5920  0.6922 -0.8308
 2693WAT      O 8289   0.593   1.599   4.896  0.3028  0.7806 -0.2595
 2693WAT     H1 8290   0.631   1.613   4.982 -1.0939  1.9901  0.2055
 2693WAT     H2 8291   0.552   1.682   4.874 -0.7945 -0.0095 -1.3638
 2694WAT      O 8292   3.390   4.317   2.653  0.0123 -0.0981  0.6589
 2694WAT     H1 8293   3.466   4.362   2.691  0.5072  0.0511 -0.4675
 2694WAT     H2 8294   3.316   4.372   2.677  0.6059  1.3809 -0.7267
 2695WAT      O 8295   4.005   2.346   0.248 -0.1506 -0.3086  0.1279
 2695WAT     H1 8296   3.941   2.313   0.185  0.8295 -1.2718 -0.3915
 2695WAT     H2 8297   4.040   2.268   0.290  1.2836  0.1472 -0.1831
 2696WAT      O 8298   0.839   4.429   2.171 -0.0191  0.4910  0.0177
 2696WAT     H1 8299   0.774   4.385   2.226  0.4012 -0.5847 -0.3060
 2696WAT     H2 8300   0.884   4.489   2.229 -1.1793  1.1237  0.2883
 2697WAT      O 8301   3.702   0.616   3.582 -0.2075  0.4231  0.1095
 2697WAT     H1 8302   3.749   0.679   3.528  0.4010 -1.0168 -1.1346
 2697WAT     H2 8303   3.742   0.622   3.668 -0.6547  2.2120  0.2265
 2698WAT      O 8304   0.437   3.041   4.137  0.0973 -0.2435  0.8276
 2698WAT     H1 8305   0.448   2.982   4.211 -0.6903 -2.3943 -0.6944
 2698WAT     H2 8306   0.526   3.057   4.106  0.2921 -0.9799  0.9892
 2699WAT      O 8307   1.909   3.261   3.898 -0.2989 -0.4495 -0.3071
 2699WAT     H1 8308   1.820   3.261   3.932  0.2195  1.8986  1.2690
 2699WAT     H2 8309   1.965   3.271   3.975  1.2824 -0.6563 -1.3662
 2700WAT      O 8310   0.070   0.734   5.167 -0.3743  0.0555  0.4249
 2700WAT     H1 8311   0.050   0.792   5.094 -1.6972 -0.0589  0.6719
 2700WAT     H2 8312   0.017   0.767   5.240  0.8736  0.1326  1.3307
 2701WAT      O 8313   2.346   4.689   5.108 -0.1279  0.6123 -0.2189
 2701WAT     H1 8314   2.403   4.696   5.031  0.0725  0.1787 -0.1153
 2701WAT     H2 8315   2.400   4.646   5.174 -0.7614 -0.3960 -0.3298
 2702WAT      O 8316   0.243   3.204   4.668 -0.2538 -0.2086 -0.0737
 2702WAT     H1 8317   0.290   3.222   4.749 -0.1204 -0.6265 -0.0587
 2702WAT     H2 8318   0.310   3.210   4.600 -0.1380 -0.9763 -0.0348
 2703WAT      O 8319   1.115   2.066   5.092 -0.5030 -0.7086 -0.1860
 2703WAT     H1 8320   1.054   1.993   5.093 -0.8182 -0.4531 -0.5856
 2703WAT     H2 8321   1.194   2.032   5.135 -0.7962 -1.1474  0.0130
 2704WAT      O 8322   1.805   3.761   0.896  0.0116 -0.1296  0.3301
 2704WAT     H1 8323   1.711   3.780   0.899 -0.0035 -0.2224  3.3870
 2704WAT     H2 8324   1.811   3.680   0.845 -1.5544 -0.1386  0.1001
 2705WAT      O 8325   2.638   2.504   3.919 -0.2855  0.1761 -0.3712
 2705WAT     H1 8326   2.722   2.476   3.953 -0.2610  0.1488 -0.4526
 2705WAT     H2 8327   2.592   2.540   3.994 -0.1470  0.3179 -0.3539
 2706WAT      O 8328   4.101   0.915   2.047  0.0833  0.3790  0.1308
 2706WAT     H1 8329   4.043   0.890   2.119 -0.2739  1.4536  0.2399
 2706WAT     H2 8330   4.063   0.996   2.013 -2.0962 -2.0170 -3.8827
 2707WAT      O 8331   2.084   3.257   0.924 -0.2260  0.1693 -0.0219
 2707WAT     H1 8332   2.109   3.169   0.897  0.0142  0.3166 -0.2918
 2707WAT     H2 8333   2.165   3.308   0.917 -0.6143  0.6795 -1.0156
 2708WAT      O 8334   1.837   2.601   0.616 -0.0471 -0.0258  0.4966
 2708WAT     H1 8335   1.754   2.559   0.596  0.4974 -0.8889  0.0009
 2708WAT     H2 8336   1.813   2.686   0.653 -1.1167  0.5210 -1.3678
 2709WAT      O 8337   1.904   2.491   3.256 -0.5968 -0.1325 -0.1840
 2709WAT     H1 8338   1.999   2.506   3.253 -0.7139  1.2029  1.3867
 2709WAT     H2 8339   1.866   2.579   3.256 -1.6704 -0.5133  2.2542
 2710WAT      O 8340   3.135   4.942   2.168 -0.3137 -0.7737  0.5169
 2710WAT     H1 8341   3.107   4.967   2.080 -2.5387 -1.1768  1.0481
 2710WAT     H2 8342   3.217   4.990   2.182 -0.5786  0.2833 -1.2739
 2711WAT      O 8343   0.697   4.516   1.968  0.7290 -0.1013  0.0672
 2711WAT     H1 8344   0.728   4.523   1.877  0.2086  0.0417 -0.1055
 2711WAT     H2 8345   0.776   4.503   2.019  0.8936 -2.0271 -0.5961
 2712WAT      O 8346   1.994   3.991   0.186  0.9385 -0.1871  0.2307
 2712WAT     H1 8347   1.974   4.075   0.227 -0.9421 -0.9959  1.0942
 2712WAT     H2 8348   1.917   3.937   0.202  1.9675 -2.0062 -0.5459
 2713WAT      O 8349   2.526   3.849   3.095  0.1725 -0.0007 -0.6466
 2713WAT     H1 8350   2.484   3.832   3.179  1.4302 -0.5708 -0.1098
 2713WAT     H2 8351   2.470   3.804   3.031 -0.6025  0.1452 -0.0780
 2714WAT      O 8352   0.588   1.879   3.319  0.1847 -0.0347  0.2645
 2714WAT     H1 8353   0.633   1.959   3.292  1.0504 -0.0110  1.6752
 2714WAT     H2 8354   0.498   1.907   3.338  0.2134  0.3961 -0.2248
 2715WAT      O 8355   1.904   4.221   2.977 -0.7212  0.3418  0.4404
 2715WAT     H1 8356   1.825   4.172   2.954  0.7385 -1.4238 -1.1212
 2715WAT     H2 8357   1.914   4.207   3.071 -1.4797 -0.6461  0.3971
 2716WAT      O 8358   0.184   2.418   1.847 -0.0986 -0.5057 -0.5213
 2716WAT     H1 8359   0.142   2.400   1.762 -0.4738  0.1770 -0.4843
 2716WAT     H2 8360   0.208   2.511   1.843 -1.1127 -0.1803  0.5467
 2717WAT      O 8361   0.707   2.440   3.727 -0.0386  0.2788 -0.1337
 2717WAT     H1 8362   0.727   2.385   3.803 -1.4978  1.4411  1.1629
 2717WAT     H2 8363   0.793   2.465   3.692  0.6782  0.0639  1.4073
 2718WAT      O 8364   2.684   3.722   1.381  0.7023 -0.5358  0.2732
 2718WAT     H1 8365   2.687   3.636   1.423 -2.0385 -0.8682 -0.0226
 2718WAT     H2 8366   2.597   3.756   1.401  0.6714  0.9486 -1.9799
 2719WAT      O 8367   4.414   2.258   3.088 -0.0698  0.0449 -0.1483
 2719WAT     H1 8368   4.416   2.169   3.123  1.3710  0.3895  0.6965
 2719WAT     H2 8369   4.493   2.265   3.034 -0.3709  0.6853 -0.5194
 2720WAT      O 8370   1.882   3.686   1.773 -0.0767 -0.2714  0.0630
 2720WAT     H1 8371   1.961   3.682   1.720  0.4125  0.6705  0.6949
 2720WAT     H2 8372   1.821   3.740   1.723  0.0084 -0.2539 -0.0215
 2721WAT      O 8373   1.416   0.079   2.566  0.2178  0.1631 -0.1072
 2721WAT     H1 8374   1.323   0.087   2.548  0.5698  1.6707 -1.4827
 2721WAT     H2 8375   1.437  -0.011   2.544 -1.1740 -0.6710  1.7182
 2722WAT      O 8376   1.011   2.998   5.058 -0.2878  0.8684  0.4085
 2722WAT     H1 8377   0.957   3.076   5.049  1.4332  2.2131  1.2256
 2722WAT     H2 8378   1.100   3.028   5.043  0.3319 -1.1774 -0.3462
 2723WAT      O 8379   4.047   3.235   3.093  0.7281  0.0333 -0.1601
 2723WAT     H1 8380   3.961   3.270   3.117  0.4699 -0.6999  0.0231
 2723WAT     H2 8381   4.041   3.219   2.999  0.3146 -0.9297  0.0173
 2724WAT      O 8382   3.141   0.341   3.632  0.2850  0.1659 -0.5054
 2724WAT     H1 8383   3.161   0.327   3.540  1.5414 -1.3593 -0.0471
 2724WAT     H2 8384   3.083   0.268   3.655 -1.0496  1.2265 -0.3527
 2725WAT      O 8385   0.655   0.060   3.549 -0.0952  0.1457 -0.0725
 2725WAT     H1 8386   0.697   0.135   3.507 -0.0760 -0.3817 -1.0220
 2725WAT     H2 8387   0.586   0.099   3.603 -0.8319  0.8015 -1.4450
 2726WAT      O 8388   4.471   2.594   3.920 -0.4347 -0.2785  0.3848
 2726WAT     H1 8389   4.424   2.589   3.837  0.3953 -1.1657 -0.0561
 2726WAT     H2 8390   4.407   2.566   3.985 -0.8816 -0.2636 -0.0437
 2727WAT      O 8391   0.670   3.765   0.091  0.1007  0.5133 -0.1168
 2727WAT     H1 8392   0.655   3.837   0.152 -1.1664 -0.4218  0.7378
 2727WAT     H2 8393   0.765   3.764   0.078  0.4753  0.4872  2.2131
 2728WAT      O 8394   4.469   0.898   4.648  0.6348  0.2305 -0.5197
 2728WAT     H1 8395   4.418   0.864   4.575 -0.1563  1.2378 -0.4600
 2728WAT     H2 8396   4.554   0.855   4.639  0.2941 -0.2727 -1.5609
 2729WAT      O 8397   1.054   0.069   4.498  0.6834 -0.0065  0.0790
 2729WAT     H1 8398   0.963   0.076   4.472  0.1776 -0.8301  1.5460
 2729WAT     H2 8399   1.095   0.148   4.462 -0.7677  0.7902  0.1091
 2730WAT      O 8400   0.650   0.577   1.097  0.4712 -0.1939  0.0961
 2730WAT     H1 8401   0.732   0.547   1.057  0.5137  2.5793 -2.2150
 2730WAT     H2 8402   0.677   0.609   1.184  1.4368 -1.2163  0.1997
 2731WAT      O 8403   0.051   2.000   1.809 -0.1348 -0.0821 -0.3097
 2731WAT     H1 8404   0.030   1.998   1.716  1.3883  0.4607 -0.7072
 2731WAT     H2 8405  -0.009   2.065   1.846 -0.6194 -0.1585 -0.9561
 2732WAT      O 8406   1.958   1.542   3.312 -0.2460 -0.2805  0.4203
 2732WAT     H1 8407   1.888   1.537   3.378  0.4638 -0.1395  1.2080
 2732WAT     H2 8408   1.934   1.616   3.257  0.1792  0.9167  1.7795
 2733WAT      O 8409   1.537   3.449   3.725 -0.2880 -0.7304  0.0062
 2733WAT     H1 8410   1.530   3.542   3.705  0.7916 -0.4953  0.6785
 2733WAT     H2 8411   1.532   3.405   3.640 -1.0748 -0.0891 -0.2882
 2734WAT      O 8412   2.468   2.138   3.814 -0.3146  0.4670  0.2915
 2734WAT     H1 8413   2.385   2.175   3.842 -0.1087  0.3669  1.0348
 2734WAT     H2 8414   2.472   2.052   3.855 -1.0729 -0.6974 -1.9094
 2735WAT      O 8415   2.573   2.570   0.556 -0.2193  0.6492  0.1563
 2735WAT     H1 8416   2.535   2.636   0.614  0.7439  0.6341  0.8285
 2735WAT     H2 8417   2.664   2.563   0.584 -0.4908 -1.5671  0.6410
 2736WAT      O 8418   2.967   1.478   0.941  0.1124 -0.0549  0.1737
 2736WAT     H1 8419   2.981   1.567   0.909  0.1469 -0.4762 -1.0335
 2736WAT     H2 8420   2.912   1.437   0.874  1.7202 -1.5341 -0.3093
 2737WAT      O 8421   0.702   1.324   1.502 -0.1296 -0.1266  0.1284
 2737WAT     H1 8422   0.674   1.376   1.577  3.2513  0.8271  0.8775
 2737WAT     H2 8423   0.738   1.244   1.540  1.7393  0.4246 -0.4008
 2738WAT      O 8424   3.737   4.075   4.735  0.3631 -0.2969 -0.0814
 2738WAT     H1 8425   3.678   4.001   4.718 -0.1398 -0.2109  1.2087
 2738WAT     H2 8426   3.780   4.052   4.818  0.7377  0.5373 -0.0399
 2739WAT      O 8427   4.387   4.663   0.722 -0.4838 -0.0013  0.3298
 2739WAT     H1 8428   4.470   4.619   0.742 -0.2021 -0.2925 -1.3188
 2739WAT     H2 8429   4.320   4.603   0.753 -0.0908 -1.4749 -1.4777
 2740WAT      O 8430   1.258   1.669   2.750  0.3601  0.0666  0.1625
 2740WAT     H1 8431   1.325   1.608   2.719 -0.6174 -0.2984 -1.3259
 2740WAT     H2 8432   1.247   1.648   2.843 -0.4457 -2.5430 -0.4446
 2741WAT      O 8433   1.298   1.836   1.259  0.4554  0.3808 -0.0101
 2741WAT     H1 8434   1.272   1.849   1.168  1.0812  0.1119 -0.2363
 2741WAT     H2 8435   1.227   1.785   1.297 -0.3563  1.4710 -0.0331
 2742WAT      O 8436   3.084   4.489   0.445  0.2380  0.0505  0.4043
 2742WAT     H1 8437   3.119   4.448   0.525 -0.8532  0.3489  1.0490
 2742WAT     H2 8438   3.079   4.582   0.466  0.8328  0.2644 -0.3583
 2743WAT      O 8439   1.010   3.828   1.911 -0.6497 -0.5133 -0.0576
 2743WAT     H1 8440   0.986   3.859   1.998  1.1643 -0.5148  0.4703
 2743WAT     H2 8441   1.000   3.733   1.915 -1.2464 -0.4595 -0.0948
 2744WAT      O 8442   4.089   3.966   2.875 -0.3349  0.0401 -0.1936
 2744WAT     H1 8443   4.130   3.908   2.940 -1.3805 -0.3306  0.1444
 2744WAT     H2 8444   4.008   3.995   2.916 -0.2057  1.1421 -0.6778
 2745WAT      O 8445   4.033   1.638   3.387 -0.2188 -0.0187  0.3730
 2745WAT     H1 8446   4.018   1.550   3.350 -0.1038 -0.0403  0.3758
 2745WAT     H2 8447   4.128   1.643   3.396 -0.2902 -0.2767  1.3160
 2746WAT      O 8448   2.447   1.097   1.830 -0.5642  0.2384 -0.8071
 2746WAT     H1 8449   2.520   1.050   1.873 -0.3223  2.1706  1.0414
 2746WAT     H2 8450   2.380   1.030   1.819  0.5802 -1.0560 -0.3229
 2747WAT      O 8451   2.064   1.899   3.811 -0.2008  0.1987 -0.0177
 2747WAT     H1 8452   2.104   1.957   3.746 -0.5438  1.6513  1.0119
 2747WAT     H2 8453   2.126   1.826   3.819  0.8647  1.0288 -0.4705
 2748WAT      O 8454   3.240   3.959   3.557 -0.5928  0.1981  0.5130
 2748WAT     H1 8455   3.192   3.940   3.476  0.0942  1.5528 -0.2581
 2748WAT     H2 8456   3.254   3.874   3.597 -1.1388 -0.4906 -0.6871
 2749WAT      O 8457   3.290   1.978   3.749 -0.3487  0.6168  0.2006
 2749WAT     H1 8458   3.245   1.899   3.719  1.9823 -0.4857 -0.7082
 2749WAT     H2 8459   3.279   1.978   3.844  0.3511 -1.3684  0.3303
 2750WAT      O 8460   3.968   0.320   5.109 -0.2595 -0.1478 -0.6528
 2750WAT     H1 8461   4.046   0.360   5.149 -0.3201 -0.8725  0.2204
 2750WAT     H2 8462   3.957   0.238   5.156 -1.8080  0.1407 -0.4737
 2751WAT      O 8463   4.357   4.156   2.307 -0.0745  0.6227 -0.4002
 2751WAT     H1 8464   4.378   4.216   2.378 -1.6605  1.8406 -0.8993
 2751WAT     H2 8465   4.421   4.175   2.239  0.2133  0.8422 -0.0688
 2752WAT      O 8466   3.264   0.687   4.572 -0.6214 -0.7973  0.2756
 2752WAT     H1 8467   3.322   0.723   4.639  0.9247  0.8571 -1.8274
 2752WAT     H2 8468   3.176   0.704   4.605  0.0788  0.3220  1.6910
 2753WAT      O 8469   0.362   4.588   1.852  0.3978  0.4033 -0.1274
 2753WAT     H1 8470   0.392   4.497   1.846  1.1052  0.6588 -0.6090
 2753WAT     H2 8471   0.430   4.632   1.902  0.9452  1.0327 -1.3933
 2754WAT      O 8472   1.568   0.497   1.130  0.8921 -0.6440 -0.0490
 2754WAT     H1 8473   1.623   0.430   1.170  2.2850  1.0758  1.0560
 2754WAT     H2 8474   1.625   0.539   1.065  0.8778  1.0100  0.9533
 2755WAT      O 8475   4.324   4.875   4.371  0.1470  0.1957  0.2358
 2755WAT     H1 8476   4.266   4.896   4.444 -0.1459  1.6193 -0.3664
 2755WAT     H2 8477   4.315   4.949   4.311  3.8989  1.3710  0.8824
 2756WAT      O 8478   0.310   4.109   3.309  0.0885 -0.2310 -0.5153
 2756WAT     H1 8479   0.395   4.072   3.286 -0.9475 -1.8559 -1.9766
 2756WAT     H2 8480   0.298   4.183   3.250  0.4122 -0.0811 -0.3964
 2757WAT      O 8481   0.052   2.020   0.176 -0.1659  0.1686  0.3059
 2757WAT     H1 8482   0.039   1.936   0.221  0.2692 -0.1047 -0.0740
 2757WAT     H2 8483   0.139   2.013   0.137 -0.0896  0.8326  0.3399
 2758WAT      O 8484   1.012   3.535   1.921 -0.5701 -0.1806 -0.1428
 2758WAT     H1 8485   0.998   3.530   1.827 -0.9100  0.3118 -0.1235
 2758WAT     H2 8486   0.960   3.464   1.958  0.2889 -0.9497 -0.3927
 2759WAT      O 8487   0.436   3.438   4.304 -0.2735 -0.3042 -0.2691
 2759WAT     H1 8488   0.359   3.380   4.302 -1.0521  0.6245  1.1395
 2759WAT     H2 8489   0.430   3.489   4.223  0.4889 -2.2064 -1.5953
 2760WAT      O 8490   1.315   0.047   5.008 -0.3576 -0.1102  0.1736
 2760WAT     H1 8491   1.242   0.030   4.949  0.9569  1.5681 -2.1164
 2760WAT     H2 8492   1.388  -0.003   4.970  0.4302  0.7019  0.5829
 2761WAT      O 8493   0.264   3.469   3.577 -0.1688  0.0869 -0.5008
 2761WAT     H1 8494   0.186   3.441   3.624 -0.3695  0.4920 -0.5867
 2761WAT     H2 8495   0.230   3.505   3.495  0.0007  1.4755  0.0134
 2762WAT      O 8496   0.383   4.698   4.767 -0.8511 -0.1574 -0.2722
 2762WAT     H1 8497   0.295   4.679   4.733  0.3070 -2.1182 -2.5132
 2762WAT     H2 8498   0.442   4.672   4.696  1.5528  1.9572  0.7867
 2763WAT      O 8499   2.654   0.241   1.184  0.3178 -0.6600 -0.0281
 2763WAT     H1 8500   2.703   0.318   1.213  0.4112 -0.1851 -1.3466
 2763WAT     H2 8501   2.711   0.167   1.205 -0.1450 -0.4631  2.0289
 2764WAT      O 8502   1.095   1.945   3.259  0.1095 -0.2286 -0.2204
 2764WAT     H1 8503   1.190   1.936   3.273 -0.1403 -0.6266  1.4934
 2764WAT     H2 8504   1.075   2.034   3.287 -0.3834 -1.0008  2.1728
 2765WAT      O 8505   1.757   3.432   4.370  0.9764  0.3361 -0.6107
 2765WAT     H1 8506   1.692   3.375   4.329  0.6083 -0.6142  1.1796
 2765WAT     H2 8507   1.706   3.505   4.404  1.4287  1.7534 -2.7703
 2766WAT      O 8508   4.466   4.602   2.269 -0.2401  0.2976  0.5685
 2766WAT     H1 8509   4.518   4.683   2.273 -1.8653  1.3539  2.5451
 2766WAT     H2 8510   4.481   4.568   2.180  0.1714  3.0043 -0.5012
 2767WAT      O 8511   2.062   4.576   1.123  0.1797 -0.8401  0.2281
 2767WAT     H1 8512   2.110   4.513   1.068  0.3849 -1.9734  1.6376
 2767WAT     H2 8513   2.114   4.656   1.118  0.8717 -1.3024 -0.2400
 2768WAT      O 8514   1.554   4.125   0.253  0.0327 -0.1540 -0.1438
 2768WAT     H1 8515   1.483   4.180   0.285  0.7723 -0.3270  2.0248
 2768WAT     H2 8516   1.545   4.043   0.302 -0.0532 -1.3637 -2.0791
 2769WAT      O 8517   0.984   1.405   0.953 -0.4453  0.1595  0.0164
 2769WAT     H1 8518   0.979   1.496   0.984 -1.1523  0.0730  0.1696
 2769WAT     H2 8519   0.953   1.353   1.027  1.8714 -0.3837  0.6767
 2770WAT      O 8520   3.600   3.042   1.037  0.2310  0.0690  0.0188
 2770WAT     H1 8521   3.536   3.033   1.108  0.3636  1.2474  0.3040
 2770WAT     H2 8522   3.592   2.960   0.988 -1.5688  0.2304 -0.0137
 2771WAT      O 8523   2.543   3.002   3.733  0.1419 -0.8683  0.2244
 2771WAT     H1 8524   2.532   2.986   3.827 -0.7074  0.5752  0.3861
 2771WAT     H2 8525   2.463   2.969   3.694 -1.6988  2.7605  0.5754
 2772WAT      O 8526   0.581   2.340   1.433 -0.5812 -0.1938 -0.2268
 2772WAT     H1 8527   0.554   2.327   1.342 -0.5246 -2.7854  0.0563
 2772WAT     H2 8528   0.575   2.253   1.472  1.0410  0.5414  1.8158
 2773WAT      O 8529   3.804   0.581   2.828  0.0759 -0.2676 -0.3629
 2773WAT     H1 8530   3.844   0.555   2.744  1.1057 -0.8258  0.2743
 2773WAT     H2 8531   3.800   0.676   2.823 -0.3944 -0.3170 -1.2682
 2774WAT      O 8532   0.541   2.309   3.309  0.2966 -0.5384 -0.0935
 2774WAT     H1 8533   0.591   2.231   3.286  0.7788 -0.5021  0.7613
 2774WAT     H2 8534   0.591   2.382   3.272 -0.1042 -0.6219 -0.8116
 2775WAT      O 8535   3.965   3.608   4.671 -0.1311 -0.1750  0.0256
 2775WAT     H1 8536   3.969   3.702   4.651 -1.6584  0.3082  1.6747
 2775WAT     H2 8537   4.042   3.591   4.726 -1.1650  0.7546  1.8653
 2776WAT      O 8538   1.862   3.969   2.283  1.0332 -0.1761  0.2188
 2776WAT     H1 8539   1.852   3.969   2.187 -0.6025  0.2767  0.3467
 2776WAT     H2 8540   1.945   3.925   2.299  0.7018 -1.4814 -1.3674
 2777WAT      O 8541   1.592   1.985   2.405  0.3009  0.2920 -0.0251
 2777WAT     H1 8542   1.536   1.942   2.340 -0.8128  0.4237  0.8075
 2777WAT     H2 8543   1.634   1.913   2.452  2.1369  0.1956 -1.6873
 2778WAT      O 8544   2.095   3.640   0.045  0.4820  0.9152  0.1012
 2778WAT     H1 8545   2.088   3.620   0.138  0.2835 -0.3115 -0.1591
 2778WAT     H2 8546   2.180   3.682   0.036  0.3139  1.4506  0.8973
 2779WAT      O 8547   0.657   1.284   3.836 -0.4114 -0.0000 -0.0106
 2779WAT     H1 8548   0.736   1.310   3.883 -0.0554 -0.9188 -0.0813
 2779WAT     H2 8549   0.614   1.221   3.894 -0.9581  0.2930 -0.0914
 2780WAT      O 8550   2.947   0.779   2.155  0.8211  0.0958  0.7220
 2780WAT     H1 8551   3.015   0.713   2.171  0.7257 -0.6315 -1.6013
 2780WAT     H2 8552   2.867   0.739   2.187  1.2710  0.5641  2.5674
 2781WAT      O 8553   2.138   3.459   2.029  0.3561 -0.0779  0.1075
 2781WAT     H1 8554   2.072   3.460   1.960  1.4469 -0.1533 -0.9678
 2781WAT     H2 8555   2.187   3.378   2.015  1.5109  0.5954  0.0469
 2782WAT      O 8556   4.197   3.784   4.880  0.4217 -0.0186  0.1983
 2782WAT     H1 8557   4.119   3.764   4.932  0.4165 -0.5573 -0.0075
 2782WAT     H2 8558   4.229   3.698   4.851 -0.4614  0.3217 -2.0059
 2783WAT      O 8559   2.404   0.624   2.152  0.1003  0.0094  0.0434
 2783WAT     H1 8560   2.460   0.681   2.098 -0.2048 -0.3577 -0.6637
 2783WAT     H2 8561   2.422   0.652   2.242 -0.1738  1.3441 -0.2987
 2784WAT      O 8562   3.735   3.363   4.349 -0.2418  0.1648 -0.4563
 2784WAT     H1 8563   3.738   3.444   4.399  0.0689  0.2502 -0.6117
 2784WAT     H2 8564   3.642   3.352   4.326 -0.2406  0.6255 -0.6873
 2785WAT      O 8565   3.453   4.545   4.473  0.0489 -0.1816 -0.9447
 2785WAT     H1 8566   3.393   4.606   4.516 -0.2349 -0.3808 -1.0575
 2785WAT     H2 8567   3.425   4.545   4.382 -0.7420 -1.4089 -0.7216
 2786WAT      O 8568   0.214   1.051   4.980  0.2684  1.0946 -0.6572
 2786WAT     H1 8569   0.208   1.125   4.920  1.8114 -0.2101 -2.5404
 2786WAT     H2 8570   0.308   1.039   4.994  0.0565 -0.4312 -0.3502
 2787WAT      O 8571   3.775   1.079   5.222 -0.2043  0.0665 -0.0570
 2787WAT     H1 8572   3.738   1.163   5.195  0.6113 -0.1842 -2.1461
 2787WAT     H2 8573   3.834   1.054   5.151  0.3126 -1.8331  0.9467
 2788WAT      O 8574   1.811   2.622   2.475  0.1361 -0.0914 -0.1113
 2788WAT     H1 8575   1.874   2.639   2.545 -0.8756  0.4666  0.6958
 2788WAT     H2 8576   1.852   2.554   2.421  1.1758 -0.1335  0.7054
 2789WAT      O 8577   3.121   0.843   3.701 -0.3724 -0.2072 -0.3891
 2789WAT     H1 8578   3.033   0.856   3.735 -0.0820 -0.2669  0.4170
 2789WAT     H2 8579   3.171   0.918   3.734 -0.3259  0.3252 -1.6118
 2790WAT      O 8580   3.701   0.122   2.273  0.2461 -0.2558 -0.3402
 2790WAT     H1 8581   3.723   0.111   2.181  2.7321  1.5298 -0.0724
 2790WAT     H2 8582   3.649   0.202   2.276  1.7767  0.7817 -0.0852
 2791WAT      O 8583   1.393   1.090   1.352 -0.1173  0.0707 -0.3029
 2791WAT     H1 8584   1.461   1.157   1.347  0.6337 -0.7299 -1.3154
 2791WAT     H2 8585   1.312   1.137   1.335  0.2445  0.9224  0.2273
 2792WAT      O 8586   2.157   1.671   5.095  0.0649 -0.3871 -0.2638
 2792WAT     H1 8587   2.230   1.714   5.139  1.5137 -1.3185 -1.6745
 2792WAT     H2 8588   2.142   1.591   5.146  1.1251 -1.0033 -0.8910
 2793WAT      O 8589   1.811   1.951   1.667  0.6716 -0.1379  0.7078
 2793WAT     H1 8590   1.758   1.877   1.635  1.7533 -1.4202  1.7967
 2793WAT     H2 8591   1.783   2.025   1.612  0.3469 -1.5791 -1.1727
 2794WAT      O 8592   4.317   2.645   4.709  0.1539 -0.1457 -0.2436
 2794WAT     H1 8593   4.269   2.625   4.628  0.8210  0.3250 -0.7625
 2794WAT     H2 8594   4.268   2.599   4.777 -1.6114  1.0664 -0.6122
 2795WAT      O 8595   4.245   3.764   3.621 -0.7333 -0.6513 -0.4852
 2795WAT     H1 8596   4.180   3.810   3.675 -0.0271 -0.0148 -0.1524
 2795WAT     H2 8597   4.320   3.823   3.619 -0.6610 -0.7778 -1.9895
 2796WAT      O 8598   2.268   4.426   3.861 -0.2876 -0.4092  0.0298
 2796WAT     H1 8599   2.271   4.331   3.852 -0.1401 -0.4540  0.4919
 2796WAT     H2 8600   2.215   4.456   3.787  1.0139 -0.7088 -1.0533
 2797WAT      O 8601   4.246   0.406   5.254  0.4539 -0.3642 -0.5901
 2797WAT     H1 8602   4.201   0.490   5.250  1.5122  0.3380  1.3800
 2797WAT     H2 8603   4.336   0.425   5.227  1.0485 -0.5671  1.1727
 2798WAT      O 8604   0.579   0.097   4.733 -0.1617 -0.1959  0.1557
 2798WAT     H1 8605   0.566   0.019   4.787  2.0678 -0.9033 -0.2332
 2798WAT     H2 8606   0.520   0.084   4.659 -0.2002 -1.2736  0.3536
 2799WAT      O 8607   3.866   3.516   5.142 -0.2579  0.0258  0.1602
 2799WAT     H1 8608   3.958   3.497   5.129 -0.0175  1.7676 -1.0365
 2799WAT     H2 8609   3.820   3.447   5.094  0.4534  0.2095 -0.7952
 2800WAT      O 8610   0.126   4.692   2.032 -0.1937  0.0811 -0.0076
 2800WAT     H1 8611   0.192   4.754   2.063  1.1449 -0.6026 -1.3809
 2800WAT     H2 8612   0.094   4.731   1.950  0.0500 -0.6335 -0.4454
 2801WAT      O 8613   4.470   4.033   0.181  0.2388 -0.8141  0.2477
 2801WAT     H1 8614   4.453   3.941   0.201  0.0445 -1.0792 -1.0448
 2801WAT     H2 8615   4.435   4.046   0.092  0.9599  0.3033  0.0951
 2802WAT      O 8616   2.282   2.985   3.133  0.2441  0.4076  0.2703
 2802WAT     H1 8617   2.275   2.912   3.195  0.7219  0.5704  0.5271
 2802WAT     H2 8618   2.213   2.969   3.069 -0.2210  0.2056  0.8166
 2803WAT      O 8619   2.045   3.756   2.721 -0.0080  0.5244  0.1179
 2803WAT     H1 8620   2.051   3.705   2.641  1.0459  0.9302 -0.0710
 2803WAT     H2 8621   2.001   3.699   2.784 -0.0907 -0.0939 -0.5052
 2804WAT      O 8622   1.048   0.976   3.719  0.0564  0.1240  0.0926
 2804WAT     H1 8623   1.084   0.918   3.652 -0.1561 -0.4857  0.4978
 2804WAT     H2 8624   0.953   0.976   3.702 -0.2288 -1.4477  1.4518
 2805WAT      O 8625   2.175   3.009   0.593  0.2476  0.0147 -0.0688
 2805WAT     H1 8626   2.210   2.940   0.537  0.8353  2.0116 -2.3629
 2805WAT     H2 8627   2.190   2.979   0.682  1.2382 -2.3934 -0.9821
 2806WAT      O 8628   2.360   1.266   3.931  0.2872  0.2661 -0.1558
 2806WAT     H1 8629   2.366   1.356   3.899  2.0782 -0.3476 -1.7344
 2806WAT     H2 8630   2.433   1.221   3.888 -0.6702 -1.9856  0.4620
 2807WAT      O 8631   3.269   2.173   4.430 -0.2184 -0.0171 -0.4525
 2807WAT     H1 8632   3.332   2.115   4.473 -0.5715  0.2316  0.4272
 2807WAT     H2 8633   3.184   2.141   4.460 -0.4190  0.9343  0.0330
 2808WAT      O 8634   2.951   0.951   4.479  0.8314 -0.1094 -0.3746
 2808WAT     H1 8635   2.919   0.936   4.390  1.0695 -2.4007 -0.1334
 2808WAT     H2 8636   2.900   1.026   4.510  2.1823  2.1510 -3.0849
 2809WAT      O 8637   1.329   3.812   2.455 -0.4612  0.1976  0.4462
 2809WAT     H1 8638   1.356   3.734   2.405  1.9545  1.4474 -0.3542
 2809WAT     H2 8639   1.247   3.839   2.414 -0.8315 -1.3256  0.0861
 2810WAT      O 8640   2.707   2.732   2.556  0.2206  0.4772  0.0985
 2810WAT     H1 8641   2.683   2.643   2.529 -0.3066  0.1452  1.5444
 2810WAT     H2 8642   2.745   2.772   2.478  1.7232 -1.4617 -0.2342
 2811WAT      O 8643   3.874   1.979   4.738  0.4972  0.7008 -0.5216
 2811WAT     H1 8644   3.853   1.981   4.645 -1.7733 -1.5037 -0.1916
 2811WAT     H2 8645   3.931   1.903   4.748  1.0455  1.1542 -0.1463
 2812WAT      O 8646  -0.018   2.466   4.179  0.7416 -0.1326 -0.4079
 2812WAT     H1 8647   0.064   2.447   4.224  0.8723  3.2009  1.0417
 2812WAT     H2 8648  -0.000   2.447   4.087  3.0661  0.3150 -0.1043
 2813WAT      O 8649   4.196   2.838   0.636  0.1802  0.3574  0.0188
 2813WAT     H1 8650   4.208   2.752   0.594 -1.2889  1.0058 -1.8578
 2813WAT     H2 8651   4.115   2.829   0.686  1.5132 -0.1652  2.2042
 2814WAT      O 8652   2.829   4.290   1.072 -0.8159  0.0432  0.0678
 2814WAT     H1 8653   2.886   4.254   1.004  0.5286 -0.1393  1.2479
 2814WAT     H2 8654   2.749   4.317   1.025  0.1443  0.1158 -1.5985
 2815WAT      O 8655   3.011   0.314   1.247  0.4158 -0.3425 -1.0968
 2815WAT     H1 8656   2.999   0.232   1.199  0.2647 -1.7168  1.1617
 2815WAT     H2 8657   3.019   0.380   1.179 -3.4144 -1.5864 -3.0743
 2816WAT      O 8658   3.133   4.480   3.201 -0.1575  0.0800  0.3199
 2816WAT     H1 8659   3.082   4.466   3.121  0.0654  0.3966  0.1191
 2816WAT     H2 8660   3.132   4.575   3.214  1.3942  0.2242 -0.3691
 2817WAT      O 8661   3.458   4.763   3.181  0.7039  0.1471  0.7074
 2817WAT     H1 8662   3.398   4.703   3.226 -0.0339  0.4782  0.1841
 2817WAT     H2 8663   3.503   4.709   3.117 -0.2365  0.2209 -0.0239
 2818WAT      O 8664   0.684   3.336   3.850  0.5235  0.5694 -0.2736
 2818WAT     H1 8665   0.595   3.366   3.836  0.5475  0.2993 -1.0547
 2818WAT     H2 8666   0.709   3.294   3.767  0.9785 -0.3493  0.3103
 2819WAT      O 8667   1.306   4.324   4.806 -0.5585 -0.1970 -1.0324
 2819WAT     H1 8668   1.342   4.341   4.893 -1.2355 -0.1116 -0.7574
 2819WAT     H2 8669   1.341   4.393   4.751 -0.0729 -0.2893 -0.8437
 2820WAT      O 8670   3.942   4.361   3.178 -0.1178  0.7223 -0.3469
 2820WAT     H1 8671   3.959   4.454   3.187 -1.1346  0.7405  3.0229
 2820WAT     H2 8672   4.026   4.319   3.197  0.7243  0.8476 -3.3314
 2821WAT      O 8673   4.519   3.982   4.033  0.4762  0.7508  0.1108
 2821WAT     H1 8674   4.556   3.942   4.112  0.1531 -1.0690 -0.6055
 2821WAT     H2 8675   4.428   3.954   4.033 -0.2572  2.9788  0.4579
 2822WAT      O 8676   2.195   0.171   2.873 -0.0416  0.2886  0.2481
 2822WAT     H1 8677   2.212   0.111   2.946  0.4979 -0.7566 -0.7114
 2822WAT     H2 8678   2.268   0.157   2.812 -2.5609 -2.0867 -2.5486
 2823WAT      O 8679   0.566   3.630   4.123 -0.0417 -0.1693  0.3687
 2823WAT     H1 8680   0.648   3.590   4.150  1.1159 -0.9350 -3.6458
 2823WAT     H2 8681   0.581   3.724   4.131  1.1387 -0.3125 -0.0172
 2824WAT      O 8682   2.286   3.642   1.741 -0.4955 -0.7832 -0.2004
 2824WAT     H1 8683   2.280   3.548   1.756 -2.5059 -0.6225  0.2210
 2824WAT     H2 8684   2.202   3.665   1.701 -1.0112  1.1968  1.8353
 2825WAT      O 8685   0.421   4.297   2.514  0.1194  0.1783 -0.8114
 2825WAT     H1 8686   0.384   4.373   2.559  0.6080  0.0351 -0.1462
 2825WAT     H2 8687   0.418   4.227   2.579 -0.9249 -0.5603 -1.6353
 2826WAT      O 8688   3.876   2.203   1.126 -0.2780 -0.0791  0.4067
 2826WAT     H1 8689   3.971   2.192   1.126 -0.2245  0.3423  0.6957
 2826WAT     H2 8690   3.861   2.282   1.178 -0.9689 -1.5220  2.5245
 2827WAT      O 8691   2.546   2.127   2.862 -0.2545  0.2684  0.3597
 2827WAT     H1 8692   2.462   2.171   2.879 -1.8028 -1.9413 -1.0196
 2827WAT     H2 8693   2.563   2.078   2.942  0.7227  2.1034  1.3368
 2828WAT      O 8694   3.590   4.895   4.621 -0.2064  0.0400  0.3032
 2828WAT     H1 8695   3.565   4.984   4.643  0.7795  0.6149 -0.7886
 2828WAT     H2 8696   3.631   4.902   4.535  0.9072 -1.2886  0.6871
 2829WAT      O 8697   2.805   0.515   1.265  0.3633  0.0597 -0.3155
 2829WAT     H1 8698   2.867   0.445   1.283 -0.0408 -0.7409 -1.8790
 2829WAT     H2 8699   2.857   0.583   1.223  0.1910 -0.6515 -1.7141
 2830WAT      O 8700   0.918   3.205   3.288 -0.4809  0.0683  0.6284
 2830WAT     H1 8701   0.886   3.170   3.205 -0.5836  2.2983 -0.3444
 2830WAT     H2 8702   0.865   3.162   3.354 -1.8662 -0.1947 -0.6051
 2831WAT      O 8703   1.322   1.706   4.069  0.1460 -0.2609 -0.0039
 2831WAT     H1 8704   1.389   1.753   4.119  0.9382 -0.7163 -0.6235
 2831WAT     H2 8705   1.267   1.665   4.136  1.2495 -0.9515  0.5040
 2832WAT      O 8706   0.216   1.399   4.087  0.3197  0.3595 -0.4155
 2832WAT     H1 8707   0.303   1.369   4.114  0.4659  0.1328 -1.1181
 2832WAT     H2 8708   0.161   1.384   4.163  1.1999  1.9041  0.5787
 2833WAT      O 8709   1.861   3.091   0.654  0.3078 -0.0736 -0.2549
 2833WAT     H1 8710   1.954   3.066   0.649  0.2118 -0.7900  1.1079
 2833WAT     H2 8711   1.842   3.127   0.568  1.6241 -0.7267 -0.8552
 2834WAT      O 8712   0.974   3.438   3.129  0.0582  0.4612 -0.1076
 2834WAT     H1 8713   0.948   3.379   3.199 -0.7005  0.9060 -0.0068
 2834WAT     H2 8714   1.053   3.482   3.162 -0.5378  0.9810  0.6501
 2835WAT      O 8715   3.255   1.663   0.819 -0.4469 -0.4534 -0.6211
 2835WAT     H1 8716   3.163   1.680   0.837 -0.1089  0.3561  0.4684
 2835WAT     H2 8717   3.285   1.610   0.893  0.1155 -0.1515 -0.6261
 2836WAT      O 8718   1.663   1.887   2.678  0.5674  0.3255  0.2842
 2836WAT     H1 8719   1.665   1.854   2.768 -0.6548 -1.2085 -0.1904
 2836WAT     H2 8720   1.700   1.815   2.626  0.0606  0.6597 -0.5549
 2837WAT      O 8721   1.872   4.375   3.813  0.3934  0.5429 -0.9128
 2837WAT     H1 8722   1.814   4.325   3.756  0.0409  0.0021 -0.1021
 2837WAT     H2 8723   1.838   4.360   3.901  0.8667  1.4350 -0.5603
 2838WAT      O 8724   3.914   2.059   4.163  0.0419 -0.1080 -0.0082
 2838WAT     H1 8725   3.977   2.131   4.170 -0.2283  0.0214  1.3183
 2838WAT     H2 8726   3.949   2.003   4.093  0.2557  1.2933 -1.0740
 2839WAT      O 8727   1.851   4.480   1.606 -0.7196 -0.1101 -0.5627
 2839WAT     H1 8728   1.871   4.508   1.516 -1.6557  2.4731 -0.0524
 2839WAT     H2 8729   1.759   4.455   1.604 -1.1307  1.2579 -0.1000
 2840WAT      O 8730   3.502   4.740   1.735  0.2155 -0.0224  0.3200
 2840WAT     H1 8731   3.461   4.788   1.806 -0.2652 -1.4347  1.0458
 2840WAT     H2 8732   3.462   4.653   1.739  0.5937 -0.3061 -1.3242
 2841WAT      O 8733   1.916   4.145   3.237 -0.3105 -0.5573  0.7102
 2841WAT     H1 8734   1.932   4.051   3.245 -0.8956 -0.6058  1.5038
 2841WAT     H2 8735   1.956   4.183   3.315 -1.8307 -0.4071  1.4566
 2842WAT      O 8736   2.292   0.848   4.332  0.1390 -0.4073  0.1374
 2842WAT     H1 8737   2.251   0.854   4.245  1.3969 -0.4530 -0.4853
 2842WAT     H2 8738   2.372   0.797   4.317 -0.1359 -1.2862  1.5259
 2843WAT      O 8739   3.997   2.978   3.778 -0.1198 -0.5055 -0.0748
 2843WAT     H1 8740   3.978   3.054   3.832  2.7815  0.5533 -0.3756
 2843WAT     H2 8741   4.025   2.911   3.840  1.7489  0.2289 -0.0426
 2844WAT      O 8742   1.928   1.113   5.117 -0.2685 -0.3219  0.1271
 2844WAT     H1 8743   2.020   1.088   5.121 -0.5881 -1.4956  0.6379
 2844WAT     H2 8744   1.914   1.141   5.027  0.4068 -0.8697 -0.1493
 2845WAT      O 8745   3.022   2.697   3.741  0.0634  0.2054 -0.1737
 2845WAT     H1 8746   2.972   2.628   3.698 -1.2394  0.9196  0.1249
 2845WAT     H2 8747   3.020   2.770   3.678  1.2370  0.0530 -0.3982
 2846WAT      O 8748   3.090   1.644   4.004 -0.8601 -1.0448 -0.4181
 2846WAT     H1 8749   3.044   1.729   4.004 -2.5341 -1.9083 -0.4346
 2846WAT     H2 8750   3.081   1.613   3.914 -0.2229 -1.2354 -0.4162
 2847WAT      O 8751   1.371   3.037   0.053 -0.1384  0.3394 -0.1606
 2847WAT     H1 8752   1.416   3.026   0.137 -1.0005  0.1792  0.2905
 2847WAT     H2 8753   1.358   3.132   0.046 -0.3564  0.3255  0.0432
 2848WAT      O 8754   0.936   0.238   0.739 -0.0392  0.0157 -0.2881
 2848WAT     H1 8755   0.995   0.177   0.693  0.1759  1.1337 -1.5449
 2848WAT     H2 8756   0.917   0.194   0.822  0.3535 -1.6259 -1.0204
 2849WAT      O 8757   2.344   0.895   1.428  0.3345  0.0142  1.2021
 2849WAT     H1 8758   2.325   0.865   1.339 -0.6451  0.4254  1.2579
 2849WAT     H2 8759   2.346   0.815   1.481 -0.1517 -0.1416  0.9880
 2850WAT      O 8760   2.787   4.581   4.315 -0.3295 -0.2676 -0.2102
 2850WAT     H1 8761   2.874   4.596   4.353 -0.2172 -0.5326 -0.3609
 2850WAT     H2 8762   2.803   4.577   4.220 -0.3725 -1.2042 -0.1850
 2851WAT      O 8763   2.221   1.563   3.070 -0.3744 -0.1045 -0.4999
 2851WAT     H1 8764   2.298   1.515   3.041 -0.5814 -0.9380  0.2755
 2851WAT     H2 8765   2.237   1.580   3.163 -0.9075  0.1390 -0.4480
 2852WAT      O 8766   0.643   0.012   2.768 -0.0252  0.4953  0.0919
 2852WAT     H1 8767   0.690  -0.054   2.717 -1.0844  1.3244 -2.0864
 2852WAT     H2 8768   0.700   0.089   2.766  0.4822  0.1704  1.2595
 2853WAT      O 8769   1.316   1.488   4.817  0.8936  0.2461  0.3027
 2853WAT     H1 8770   1.229   1.525   4.805  1.1686  1.3763  1.5240
 2853WAT     H2 8771   1.368   1.560   4.852  1.8784 -0.8546  1.1971
 2854WAT      O 8772   1.815   0.520   5.140  0.1574 -0.0955  0.3032
 2854WAT     H1 8773   1.768   0.444   5.107  0.4339 -0.3614  0.5163
 2854WAT     H2 8774   1.772   0.595   5.099 -0.2434 -0.3545  0.2532
 2855WAT      O 8775   3.228   0.064   3.864 -0.1671 -0.1936 -0.4223
 2855WAT     H1 8776   3.280   0.122   3.919 -2.4254  0.7413  0.8654
 2855WAT     H2 8777   3.253  -0.024   3.892 -0.4198  0.2538  1.3252
 2856WAT      O 8778   1.454   5.132   2.222  0.2608  0.0580  0.2471
 2856WAT     H1 8779   1.378   5.121   2.280  0.5966 -0.8461  0.5353
 2856WAT     H2 8780   1.446   5.060   2.158  0.8447 -0.0235  0.2587
 2857WAT      O 8781   4.289   3.767   0.786 -0.1673 -0.1142  0.3085
 2857WAT     H1 8782   4.285   3.695   0.723  1.3209  0.6274 -0.6875
 2857WAT     H2 8783   4.214   3.822   0.766 -0.1814 -0.3370 -0.2519
 2858WAT      O 8784   1.884   1.735   3.612  0.0908  0.2155 -0.6666
 2858WAT     H1 8785   1.919   1.803   3.669 -0.5786  0.3885 -0.4471
 2858WAT     H2 8786   1.831   1.782   3.547 -0.1242 -0.0675 -0.7017
 2859WAT      O 8787   2.052   3.651   2.474  0.1456  0.3297 -0.1032
 2859WAT     H1 8788   2.090   3.576   2.430  0.2318  0.4704 -0.2686
 2859WAT     H2 8789   1.959   3.648   2.451 -0.0204 -0.2404  0.6226
 2860WAT      O 8790   1.351   2.909   2.297 -0.3021 -0.5096  0.1296
 2860WAT     H1 8791   1.310   2.860   2.225 -0.3829  0.5614 -0.5781
 2860WAT     H2 8792   1.283   2.969   2.327 -0.1891 -0.7811  0.9575
 2861WAT      O 8793   0.759   2.523   4.463 -0.5207  0.0722 -0.0654
 2861WAT     H1 8794   0.772   2.613   4.435 -1.2434  0.2309  0.0856
 2861WAT     H2 8795   0.772   2.471   4.384 -1.5301  0.4333 -0.4878
 2862WAT      O 8796   3.836   4.170   4.477  0.7311 -0.1679  0.2881
 2862WAT     H1 8797   3.786   4.150   4.557 -0.9266 -0.2247 -0.7212
 2862WAT     H2 8798   3.839   4.266   4.475 -0.9255 -0.0877 -0.5270
 2863WAT      O 8799   3.632   0.328   3.549 -0.4161 -0.0288 -0.1266
 2863WAT     H1 8800   3.644   0.417   3.582 -0.7424  0.0772 -0.2933
 2863WAT     H2 8801   3.673   0.329   3.463 -0.5495  0.0020 -0.1903
 2864WAT      O 8802   1.125   2.231   1.190 -0.8344 -0.8564  0.6131
 2864WAT     H1 8803   1.136   2.189   1.275  1.3259  0.2837  0.9624
 2864WAT     H2 8804   1.087   2.317   1.210  0.6913 -0.1427  0.5915
 2865WAT      O 8805   1.551   0.245   2.249  0.2306  0.1940 -0.4639
 2865WAT     H1 8806   1.595   0.247   2.335 -3.6043  1.7954  1.7035
 2865WAT     H2 8807   1.521   0.155   2.240  2.4834 -0.5334 -1.2570
 2866WAT      O 8808   1.307   1.469   1.550 -0.1237 -0.5547 -0.1962
 2866WAT     H1 8809   1.357   1.421   1.616  0.3697  0.4237  0.1620
 2866WAT     H2 8810   1.224   1.421   1.543  0.2065 -1.2392  0.4080
 2867WAT      O 8811   3.534   0.557   5.113 -0.0910  0.2425  0.1831
 2867WAT     H1 8812   3.502   0.645   5.091 -0.5306  0.4347  1.5333
 2867WAT     H2 8813   3.628   0.561   5.094 -0.0367  1.1269  0.5923
 2868WAT      O 8814   3.238   0.175   5.181 -0.3427  0.3199  0.1909
 2868WAT     H1 8815   3.189   0.105   5.224  1.4442 -0.1915  1.5060
 2868WAT     H2 8816   3.187   0.254   5.198 -0.8529 -0.2193  1.2860
 2869WAT      O 8817   4.297   1.095   1.578  0.5131  0.1123  0.1286
 2869WAT     H1 8818   4.344   1.018   1.612  0.6023 -0.2698 -0.8354
 2869WAT     H2 8819   4.300   1.085   1.483 -1.8464 -0.1276  0.0237
 2870WAT      O 8820   0.859   0.521   2.226  0.5665 -0.4097 -0.1783
 2870WAT     H1 8821   0.950   0.513   2.197  1.1153  1.5600  0.7894
 2870WAT     H2 8822   0.821   0.587   2.169 -0.2975 -1.2530 -0.6033
 2871WAT      O 8823   3.206   0.720   5.072  0.1609 -0.7516 -0.3506
 2871WAT     H1 8824   3.136   0.750   5.014 -0.7571 -1.8948  0.1378
 2871WAT     H2 8825   3.223   0.794   5.130  1.1739  0.4730 -2.0821
 2872WAT      O 8826   3.857   2.429   0.652  0.0967 -0.2565  0.6254
 2872WAT     H1 8827   3.831   2.376   0.576 -1.8453  3.0058 -1.2698
 2872WAT     H2 8828   3.777   2.437   0.704  0.7329 -0.3144  1.6395
 2873WAT      O 8829   2.692   4.939   5.042 -0.1012  0.7332  0.5926
 2873WAT     H1 8830   2.753   4.911   4.973 -0.7211  0.8752 -0.0304
 2873WAT     H2 8831   2.681   5.033   5.028  0.4861  0.9435  1.4769
 2874WAT      O 8832   1.443   0.240   4.411  0.0149 -0.4839 -0.3380
 2874WAT     H1 8833   1.354   0.275   4.413  0.4034  0.5593 -0.6681
 2874WAT     H2 8834   1.473   0.244   4.501  0.1071  0.1910 -0.3950
 2875WAT      O 8835   1.660   3.833   1.655 -0.3997  0.1167 -0.0568
 2875WAT     H1 8836   1.592   3.866   1.714 -0.8257  0.0148 -0.4862
 2875WAT     H2 8837   1.683   3.909   1.600  2.4720  1.2861  2.4207
 2876WAT      O 8838   0.994   0.528   5.004 -0.2836 -0.2116  0.2727
 2876WAT     H1 8839   1.077   0.563   4.970 -0.1110  0.6415  1.4868
 2876WAT     H2 8840   0.931   0.543   4.934  0.5325 -0.6501 -0.5769
 2877WAT      O 8841   4.273   3.429   3.656 -0.4347 -0.0901 -0.2414
 2877WAT     H1 8842   4.281   3.516   3.695  2.1312 -0.1822 -0.3959
 2877WAT     H2 8843   4.205   3.439   3.589 -0.3158  1.7544 -0.1347
 2878WAT      O 8844   3.582   1.201   1.961  0.3392  0.3933  0.8192
 2878WAT     H1 8845   3.641   1.126   1.968  0.8615  0.7347  0.2158
 2878WAT     H2 8846   3.640   1.276   1.954 -0.0672  0.5500 -2.0805
 2879WAT      O 8847   2.992   3.276   4.635 -0.0952 -0.0223 -0.0759
 2879WAT     H1 8848   3.051   3.256   4.561  1.0431 -0.0308  0.8051
 2879WAT     H2 8849   2.904   3.263   4.599  0.4160  0.2612 -1.5165
 2880WAT      O 8850   1.711   0.356   4.324 -0.1357 -0.1242 -0.0471
 2880WAT     H1 8851   1.708   0.307   4.242  1.4493 -1.8615  0.8702
 2880WAT     H2 8852   1.619   0.367   4.349 -0.6597  0.6273 -2.1257
 2881WAT      O 8853   0.013   3.832   1.184 -0.3416 -0.1487 -0.0550
 2881WAT     H1 8854   0.037   3.771   1.114 -1.9410  1.0992 -1.8078
 2881WAT     H2 8855   0.071   3.907   1.170  0.1856 -0.3842  0.7816
 2882WAT      O 8856   3.550   1.654   0.222  0.4404  0.1844 -0.2118
 2882WAT     H1 8857   3.612   1.582   0.216  1.6871  1.2818 -1.1669
 2882WAT     H2 8858   3.604   1.733   0.215 -0.7906  1.2561  1.5018
 2883WAT      O 8859   1.308   3.940   4.502 -0.2148  0.0796 -0.2832
 2883WAT     H1 8860   1.316   4.021   4.551  0.9967 -0.6498  0.8072
 2883WAT     H2 8861   1.280   3.967   4.415 -1.4314  1.4978  0.5118
 2884WAT      O 8862   3.436   4.389   5.256  0.0613 -0.0307 -0.4006
 2884WAT     H1 8863   3.350   4.423   5.231  0.2896  0.4188 -0.5798
 2884WAT     H2 8864   3.487   4.391   5.174  0.0367 -0.9397 -0.4526
 2885WAT      O 8865   0.366   0.616   0.584  0.1759  0.1273 -0.2733
 2885WAT     H1 8866   0.397   0.604   0.495  0.2769  1.9141 -0.5203
 2885WAT     H2 8867   0.435   0.666   0.627  0.9803 -2.2530  1.3913
 2886WAT      O 8868   4.107   2.045   4.344  0.5856 -0.6230 -0.5541
 2886WAT     H1 8869   4.095   1.978   4.411 -0.3498  0.0797  0.0198
 2886WAT     H2 8870   4.029   2.039   4.289  0.4344  0.0586 -0.4255
 2887WAT      O 8871   1.498   1.574   0.104 -0.2505  0.3981  0.1889
 2887WAT     H1 8872   1.440   1.614   0.170  1.9589 -0.0405  2.5608
 2887WAT     H2 8873   1.538   1.648   0.059 -1.3836  0.7188 -0.3226
 2888WAT      O 8874   0.140   1.584   3.903 -0.2405  0.4214 -0.7378
 2888WAT     H1 8875   0.172   1.511   3.956 -2.6321  0.4722  0.9065
 2888WAT     H2 8876   0.205   1.653   3.916 -0.0748 -0.0317  1.0703
 2889WAT      O 8877   4.278   3.491   0.880 -0.4795 -0.1341 -0.5644
 2889WAT     H1 8878   4.268   3.553   0.952  1.5913 -0.6223  0.1892
 2889WAT     H2 8879   4.250   3.540   0.803 -0.8113  1.0577  0.2860
 2890WAT      O 8880   4.272   4.822   3.809 -0.0194 -0.3866 -0.4749
 2890WAT     H1 8881   4.334   4.868   3.865 -0.9105 -0.5582  0.6866
 2890WAT     H2 8882   4.259   4.737   3.851  1.0024 -1.4505 -2.1680
 2891WAT      O 8883   1.921   2.442   5.165 -0.2989  0.4978  0.4170
 2891WAT     H1 8884   1.961   2.486   5.240 -0.5929  0.4119  0.6272
 2891WAT     H2 8885   1.987   2.379   5.136  0.7388  2.0532 -0.8059
 2892WAT      O 8886   1.159   4.536   2.183  0.0771  0.0587 -0.6200
 2892WAT     H1 8887   1.154   4.453   2.136 -0.4356  0.3903 -1.1738
 2892WAT     H2 8888   1.213   4.518   2.260 -1.7786 -1.3582  0.4390
 2893WAT      O 8889   2.959   3.457   0.223  1.0306  0.2048  0.0467
 2893WAT     H1 8890   3.050   3.428   0.219  0.4756 -1.6063 -0.4410
 2893WAT     H2 8891   2.919   3.422   0.144 -0.3342  0.0516  0.7654
 2894WAT      O 8892   2.810   0.067   4.991  0.8313  0.1165 -0.4832
 2894WAT     H1 8893   2.842   0.059   5.080  0.5213  1.9011 -0.1714
 2894WAT     H2 8894   2.889   0.083   4.938  0.7745  1.5923 -0.1436
 2895WAT      O 8895   3.960   3.520   2.067 -0.0307  0.0932  0.2980
 2895WAT     H1 8896   4.020   3.594   2.055  0.7299 -0.1575  2.1494
 2895WAT     H2 8897   3.876   3.560   2.087  0.2853  0.4903  0.8928
 2896WAT      O 8898   2.900   0.246   3.439 -0.2246  0.1529  0.1010
 2896WAT     H1 8899   2.983   0.235   3.392 -0.5673  0.2248 -0.5301
 2896WAT     H2 8900   2.922   0.225   3.530  0.4132 -0.1519 -0.1119
 2897WAT      O 8901   3.853   0.959   2.964 -0.0028  0.5060 -0.1904
 2897WAT     H1 8902   3.942   0.951   2.931 -0.5565 -1.3270 -1.4110
 2897WAT     H2 8903   3.830   1.051   2.952  1.3848  0.7985 -0.7413
 2898WAT      O 8904   1.476   4.215   2.785 -0.3434  0.4003 -0.0370
 2898WAT     H1 8905   1.440   4.299   2.814 -2.9439 -0.3232 -0.8985
 2898WAT     H2 8906   1.553   4.202   2.840  0.7071  3.7357 -0.4553
 2899WAT      O 8907   0.895   1.219   1.154 -0.1897  0.0478 -0.0764
 2899WAT     H1 8908   0.918   1.187   1.067 -0.1205  1.1638 -0.4838
 2899WAT     H2 8909   0.894   1.140   1.209  0.3793 -0.5877 -0.9484
 2900WAT      O 8910   0.767   3.889   3.914  0.2429 -0.4960 -0.8344
 2900WAT     H1 8911   0.742   3.920   3.827 -2.1594 -1.1248 -0.4464
 2900WAT     H2 8912   0.772   3.794   3.905  0.3868 -0.5355 -0.3784
 2901WAT      O 8913   3.907   1.008   0.153  0.2877  0.5839 -0.0399
 2901WAT     H1 8914   3.844   0.953   0.199  1.1327 -0.6838 -0.3388
 2901WAT     H2 8915   3.854   1.056   0.088 -0.4346 -0.0425  0.0707
 2902WAT      O 8916   3.620   3.133   1.375  0.4765  0.0474  0.2512
 2902WAT     H1 8917   3.690   3.192   1.405 -1.5888  2.2452  1.0187
 2902WAT     H2 8918   3.633   3.054   1.427  3.6290 -0.5145 -1.1373
 2903WAT      O 8919   3.392   1.300   2.190 -0.1420 -0.4027  0.7399
 2903WAT     H1 8920   3.457   1.231   2.206 -0.1444  0.0646  3.3106
 2903WAT     H2 8921   3.439   1.367   2.141  0.9215 -0.7068  1.3113
 2904WAT      O 8922   3.143   0.594   2.113 -0.0237 -0.3579 -0.1564
 2904WAT     H1 8923   3.172   0.525   2.053  2.8366 -0.0914  0.7741
 2904WAT     H2 8924   3.141   0.552   2.199  1.4262  0.5484  0.3695
 2905WAT      O 8925   4.013   2.080   3.520 -0.3489  0.1876 -0.6108
 2905WAT     H1 8926   4.054   2.163   3.498  1.1537 -0.0067  1.1943
 2905WAT     H2 8927   3.941   2.104   3.579  1.7056  0.1538  2.0907
 2906WAT      O 8928   1.887   2.850   2.299  0.5560 -0.1084 -0.1750
 2906WAT     H1 8929   1.860   2.768   2.341  0.4894 -0.3517 -0.6819
 2906WAT     H2 8930   1.982   2.842   2.289  0.8470  0.7388  1.5903
 2907WAT      O 8931   2.760   2.294   4.909  0.4672 -0.5127 -0.0317
 2907WAT     H1 8932   2.718   2.378   4.891  0.5857 -0.5292 -0.3723
 2907WAT     H2 8933   2.850   2.316   4.931  0.8088 -0.6392 -1.2413
 2908WAT      O 8934   1.411   0.936   4.869  0.0085 -0.2257  0.1305
 2908WAT     H1 8935   1.488   0.920   4.924 -0.0448  0.1584  0.3243
 2908WAT     H2 8936   1.401   1.032   4.869 -2.4035 -0.3099  2.8807
 2909WAT      O 8937   3.859   4.183   0.946 -0.2533  0.3667 -0.2954
 2909WAT     H1 8938   3.852   4.231   1.029  0.2078 -0.4711  0.2462
 2909WAT     H2 8939   3.915   4.238   0.891 -1.9279  1.7625 -0.6999
 2910WAT      O 8940   0.168   4.008   4.732 -0.5158  0.2692 -0.0364
 2910WAT     H1 8941   0.180   4.022   4.638  1.0303 -0.1585  0.0655
 2910WAT     H2 8942   0.103   3.938   4.738  0.9678 -1.2470 -0.8743
 2911WAT      O 8943   0.599   1.668   3.479  0.2356 -0.0404 -0.0598
 2911WAT     H1 8944   0.546   1.615   3.420  2.0068 -2.2672  0.2306
 2911WAT     H2 8945   0.607   1.753   3.435  0.1591 -1.0911 -2.2245
 2912WAT      O 8946   0.652   0.954   1.458  0.6223 -0.1180 -0.9130
 2912WAT     H1 8947   0.586   0.913   1.403  0.8078 -2.4131  0.4633
 2912WAT     H2 8948   0.714   0.993   1.396 -1.8261  1.9512 -2.2332
 2913WAT      O 8949   3.053   1.730   0.132 -0.3856 -0.4532  0.3411
 2913WAT     H1 8950   3.080   1.681   0.210  0.9976  0.7191  0.6329
 2913WAT     H2 8951   3.021   1.814   0.166  1.1537  0.4679 -0.3654
 2914WAT      O 8952   2.753   3.065   2.242  0.3256 -0.1317 -0.0166
 2914WAT     H1 8953   2.799   2.993   2.286  0.2816  0.1175  0.4458
 2914WAT     H2 8954   2.812   3.093   2.172  0.5260 -0.3360  0.0716
 2915WAT      O 8955   1.435   5.168   4.616  0.3216 -0.0309  0.5151
 2915WAT     H1 8956   1.356   5.113   4.611 -0.4789  1.0792  0.6846
 2915WAT     H2 8957   1.507   5.106   4.607 -0.5780 -0.8501 -1.8879
 2916WAT      O 8958   3.625   1.765   3.299 -0.1910 -0.1070 -0.6395
 2916WAT     H1 8959   3.633   1.824   3.375 -2.5434  0.4268 -0.7401
 2916WAT     H2 8960   3.711   1.769   3.257  0.7712  0.5942  1.2670
 2917WAT      O 8961   3.341   3.835   4.146  0.1299  0.4799  0.2567
 2917WAT     H1 8962   3.331   3.901   4.076 -2.4418 -0.2469 -0.1568
 2917WAT     H2 8963   3.431   3.805   4.137  0.1110  0.9373 -2.2985
 2918WAT      O 8964   3.986   0.343   4.118 -0.0642  0.0084 -0.0808
 2918WAT     H1 8965   4.003   0.431   4.086 -0.6517  0.9437  1.9882
 2918WAT     H2 8966   3.890   0.335   4.118 -0.0425 -0.3660  0.3553
 2919WAT      O 8967   3.183   2.450   2.487 -0.2504  0.1531 -0.5782
 2919WAT     H1 8968   3.243   2.509   2.532 -1.0656  1.2523 -0.8833
 2919WAT     H2 8969   3.122   2.421   2.555  0.8200 -1.2987 -0.1743
 2920WAT      O 8970   1.246   4.832   2.716  0.0573 -0.4615  0.4064
 2920WAT     H1 8971   1.197   4.914   2.706 -0.2943 -0.6582  0.5226
 2920WAT     H2 8972   1.305   4.849   2.790 -0.6077 -0.5960  0.9758
 2921WAT      O 8973   0.391   4.002   2.088 -0.1335 -0.4060  0.2765
 2921WAT     H1 8974   0.473   3.953   2.082 -0.3211 -1.0036  1.8977
 2921WAT     H2 8975   0.412   4.075   2.147 -0.3492  0.4258 -0.6490
 2922WAT      O 8976  -0.029   3.898   3.589 -0.1542 -0.1168 -0.1849
 2922WAT     H1 8977   0.035   3.964   3.563  0.9002 -0.3521  1.6471
 2922WAT     H2 8978   0.010   3.854   3.664 -2.6483  0.0199  1.3222
 2923WAT      O 8979   2.918   0.314   2.236 -0.5208 -1.0639  0.8349
 2923WAT     H1 8980   2.979   0.371   2.283 -1.6632  0.6988  0.2667
 2923WAT     H2 8981   2.948   0.225   2.257  2.1239 -0.2923  0.6866
 2924WAT      O 8982   4.037   1.754   4.783 -0.0933 -0.0474 -0.3652
 2924WAT     H1 8983   4.132   1.757   4.779  0.0745 -2.1848  0.9181
 2924WAT     H2 8984   4.017   1.681   4.841 -2.5238  1.2745  0.6077
 2925WAT      O 8985   3.327   3.242   4.821 -0.0332 -0.1775 -0.6706
 2925WAT     H1 8986   3.342   3.154   4.856 -0.2288  0.1754  0.3497
 2925WAT     H2 8987   3.396   3.295   4.860 -0.8400  0.4271 -0.0319
 2926WAT      O 8988   2.397   4.583   0.470 -0.0540  0.0804  0.0622
 2926WAT     H1 8989   2.388   4.678   0.470 -0.0964  0.0865 -0.6968
 2926WAT     H2 8990   2.481   4.566   0.511  0.0266  0.4563  0.0509
 2927WAT      O 8991   0.803   0.604   3.186 -0.4001 -0.0519 -0.2526
 2927WAT     H1 8992   0.823   0.675   3.248  0.4923 -0.2595 -0.2925
 2927WAT     H2 8993   0.816   0.524   3.237 -0.0927 -0.2128 -0.5854
 2928WAT      O 8994   1.107   3.081   1.124 -0.2307  0.5998 -0.5345
 2928WAT     H1 8995   1.043   3.130   1.071  0.4034 -0.7449 -2.7116
 2928WAT     H2 8996   1.061   3.000   1.146  0.9588 -0.9119 -3.1319
 2929WAT      O 8997   1.129   4.832   3.774 -0.0249  0.1216 -0.3192
 2929WAT     H1 8998   1.119   4.927   3.782  0.6788  0.1318  0.7046
 2929WAT     H2 8999   1.176   4.820   3.691 -1.0250  0.5785 -0.9786
 2930WAT      O 9000   1.332   0.408   1.255  0.0329 -0.4492 -0.5237
 2930WAT     H1 9001   1.425   0.430   1.257 -0.0077 -0.3457  0.8581
 2930WAT     H2 9002   1.288   0.483   1.295 -0.6668 -0.4830 -1.1904
 2931WAT      O 9003   3.865   0.811   0.566  0.1195  0.1768  0.0263
 2931WAT     H1 9004   3.893   0.728   0.603  0.9251  0.5559  0.2786
 2931WAT     H2 9005   3.946   0.854   0.539 -0.3150  0.7270 -0.4308
 2932WAT      O 9006   3.388   0.324   4.403 -0.1276 -0.6874 -0.2949
 2932WAT     H1 9007   3.339   0.393   4.357  0.4886  0.6491  0.9708
 2932WAT     H2 9008   3.398   0.357   4.492  0.3880 -2.3428  0.2980
 2933WAT      O 9009   1.077   3.593   2.653 -0.1603  0.8002  0.0389
 2933WAT     H1 9010   1.065   3.525   2.719  0.9442  1.2029  0.6920
 2933WAT     H2 9011   1.168   3.583   2.625 -0.0802  1.7803 -0.0926
 2934WAT      O 9012   2.619   3.100   3.275 -0.5842  0.1031 -0.3800
 2934WAT     H1 9013   2.678   3.097   3.199 -0.2230 -0.2403 -0.0859
 2934WAT     H2 9014   2.599   3.008   3.294 -1.0666  0.2070 -0.3579
 2935WAT      O 9015   4.325   0.865   3.579 -0.2175  0.1065  0.1714
 2935WAT     H1 9016   4.307   0.939   3.637  1.7411 -0.0824  1.1043
 2935WAT     H2 9017   4.257   0.870   3.512 -1.2373  1.6339  1.2532
 2936WAT      O 9018   4.096   0.758   2.400 -0.5688  0.5002 -0.5006
 2936WAT     H1 9019   4.104   0.744   2.495 -4.1628  3.5732  0.5055
 2936WAT     H2 9020   4.078   0.670   2.365 -3.1631 -0.2876  2.3571
 2937WAT      O 9021   2.576   0.040   2.572  0.3299  0.1085  0.2864
 2937WAT     H1 9022   2.518   0.096   2.623 -0.1468  0.3582 -0.5240
 2937WAT     H2 9023   2.535   0.034   2.486  0.5909 -1.1486  0.2308
 2938WAT      O 9024   1.752   0.521   3.022 -0.7109  0.4085  0.0934
 2938WAT     H1 9025   1.798   0.552   3.100 -0.1188 -0.0187 -0.0824
 2938WAT     H2 9026   1.767   0.589   2.956 -2.0126  1.2452  0.6130
 2939WAT      O 9027   0.755   3.264   0.282  0.4789  0.3693  0.0425
 2939WAT     H1 9028   0.744   3.358   0.295  0.3449  0.6510 -1.8728
 2939WAT     H2 9029   0.809   3.256   0.204  0.0549 -1.1553 -0.1366
 2940WAT      O 9030   3.236   1.973   4.017  0.1488  0.0432  0.0327
 2940WAT     H1 9031   3.311   1.966   4.075 -0.0618  0.8000  0.4017
 2940WAT     H2 9032   3.160   1.964   4.074 -0.0547  0.3252 -0.1898
 2941WAT      O 9033   0.851   3.131   4.790  0.1365  0.1123 -0.1733
 2941WAT     H1 9034   0.932   3.139   4.739 -0.7049  1.2153 -1.4075
 2941WAT     H2 9035   0.814   3.047   4.763  0.1239  0.3060 -0.7882
 2942WAT      O 9036   0.481   4.230   4.745  0.4435 -0.0391 -0.5267
 2942WAT     H1 9037   0.490   4.135   4.758 -0.7956 -0.0480  0.4410
 2942WAT     H2 9038   0.569   4.264   4.760  0.4433 -0.8012  1.5174
 2943WAT      O 9039   0.624   0.015   3.868 -0.5082  0.1172  0.2531
 2943WAT     H1 9040   0.602   0.105   3.890 -0.0359  0.3970 -0.3766
 2943WAT     H2 9041   0.653   0.019   3.777  1.7854 -0.2589  0.8935
 2944WAT      O 9042   0.871   1.313   3.191 -0.0125 -0.2205  0.7773
 2944WAT     H1 9043   0.913   1.335   3.274 -0.3751 -2.5811  1.6630
 2944WAT     H2 9044   0.797   1.373   3.185  0.8153  0.9079  1.4351
 2945WAT      O 9045   1.686   1.737   1.135 -0.1577  0.0823 -0.2645
 2945WAT     H1 9046   1.693   1.770   1.045  0.5656 -1.2413 -0.7349
 2945WAT     H2 9047   1.613   1.786   1.173 -2.6573 -1.5067 -2.6213
 2946WAT      O 9048   2.298   1.002   2.114 -0.2919 -1.0224  0.2971
 2946WAT     H1 9049   2.364   1.068   2.094  0.4407 -1.3817  1.3915
 2946WAT     H2 9050   2.311   0.983   2.207 -0.2361 -2.9410 -0.0586
 2947WAT      O 9051   1.625   3.299   0.009  0.0918 -0.3207  0.1566
 2947WAT     H1 9052   1.629   3.205  -0.009  1.3438 -0.9429  3.1229
 2947WAT     H2 9053   1.717   3.327   0.008  0.0395  0.0987  2.5637
 2948WAT      O 9054   1.384   1.120   0.468  0.2823  0.0103 -0.8843
 2948WAT     H1 9055   1.381   1.207   0.509  1.3762  0.7840 -2.3321
 2948WAT     H2 9056   1.446   1.130   0.396  1.1869 -2.2472 -0.5060
 2949WAT      O 9057   4.461   3.075   2.593  0.7918 -0.0927  0.5464
 2949WAT     H1 9058   4.397   3.069   2.664  0.7289 -1.1013  0.4226
 2949WAT     H2 9059   4.468   3.169   2.575 -1.9354 -0.0189 -0.5834
 2950WAT      O 9060   2.228   1.516   0.863 -0.1568  0.0923 -0.0730
 2950WAT     H1 9061   2.219   1.603   0.825 -1.2342  0.3349  0.7059
 2950WAT     H2 9062   2.181   1.521   0.946  0.6052 -0.9533  0.4463
 2951WAT      O 9063   2.665   1.087   2.994  0.0315 -0.4825  0.4619
 2951WAT     H1 9064   2.641   1.018   2.931 -1.0666 -0.9364  1.3543
 2951WAT     H2 9065   2.586   1.101   3.046 -0.1922  2.3725 -0.4802
 2952WAT      O 9066   1.171   1.885   3.931  0.1974 -0.0627 -0.7747
 2952WAT     H1 9067   1.109   1.865   3.861 -1.5832 -0.1427  0.7398
 2952WAT     H2 9068   1.209   1.800   3.953 -0.1961 -0.2451 -0.7837
 2953WAT      O 9069   3.414   2.562   0.529 -0.1075  0.2731  0.2866
 2953WAT     H1 9070   3.348   2.596   0.469  0.2167  0.1896 -0.1226
 2953WAT     H2 9071   3.368   2.551   0.612 -0.4977  0.6268  0.1202
 2954WAT      O 9072   4.206   3.835   3.079  0.1757  0.1277  0.1545
 2954WAT     H1 9073   4.166   3.837   3.166 -1.5408  0.3043 -0.5928
 2954WAT     H2 9074   4.284   3.889   3.087  2.5268 -3.2649  2.6620
 2955WAT      O 9075   1.969   4.106   3.952 -0.0588 -0.4840 -0.1358
 2955WAT     H1 9076   1.993   4.181   4.006 -0.9038  2.2946 -3.2167
 2955WAT     H2 9077   1.880   4.084   3.978 -0.1567  0.2609  0.1645
 2956WAT      O 9078   2.489   4.963   0.672 -0.2380  0.1159  0.5352
 2956WAT     H1 9079   2.570   4.912   0.681 -1.7249 -2.1837  1.9327
 2956WAT     H2 9080   2.511   5.049   0.709  1.5439 -0.4625  0.9311
 2957WAT      O 9081   2.617   3.516   0.306  1.0019  0.0141 -0.5117
 2957WAT     H1 9082   2.567   3.448   0.351 -0.4549  1.9143  0.8829
 2957WAT     H2 9083   2.632   3.480   0.218  2.9351 -3.3410  0.9964
 2958WAT      O 9084   3.001   2.192   1.565  0.5663 -0.3105 -0.5359
 2958WAT     H1 9085   2.993   2.166   1.473 -1.9136 -0.3008 -0.3976
 2958WAT     H2 9086   2.996   2.287   1.564 -0.0111 -0.3322 -0.3837
 2959WAT      O 9087   0.637   4.728   1.487 -0.3045 -0.0055 -0.1079
 2959WAT     H1 9088   0.632   4.795   1.420  0.4469 -0.8373 -1.0299
 2959WAT     H2 9089   0.557   4.678   1.478 -0.7136  0.5458  0.3650
 2960WAT      O 9090   0.270   0.623   1.061  0.1132 -0.0353 -0.1673
 2960WAT     H1 9091   0.201   0.576   1.014 -0.6739 -0.6394  1.4948
 2960WAT     H2 9092   0.225   0.695   1.106  0.7567  0.2832 -0.0124
 2961WAT      O 9093   0.062   2.363   0.927 -0.1098  0.2562  0.6128
 2961WAT     H1 9094  -0.033   2.352   0.939 -0.0088 -1.5124 -0.0263
 2961WAT     H2 9095   0.074   2.369   0.833  0.4655 -0.0638  0.6625
 2962WAT      O 9096   4.361   4.275   4.348  0.6606  0.2350  0.2650
 2962WAT     H1 9097   4.341   4.331   4.424  1.0572  0.0394  0.5155
 2962WAT     H2 9098   4.279   4.230   4.330  0.0423  1.5980 -0.5395
 2963WAT      O 9099   2.891   0.582   5.253  0.4100  0.2343  0.6890
 2963WAT     H1 9100   2.812   0.550   5.296  0.4068  0.4849  0.8753
 2963WAT     H2 9101   2.904   0.670   5.290  0.2177  0.5941 -0.0636
 2964WAT      O 9102   0.109   2.624   4.990 -0.3056 -0.3266  0.3054
 2964WAT     H1 9103   0.071   2.546   4.948 -1.0323  0.2102 -0.0552
 2964WAT     H2 9104   0.055   2.637   5.068 -0.6022  0.1827  0.0234
 2965WAT      O 9105   2.765   0.614   2.629  0.5848  0.1644 -0.0782
 2965WAT     H1 9106   2.688   0.671   2.635  0.6278  0.3569 -1.1280
 2965WAT     H2 9107   2.752   0.550   2.698 -1.4029 -0.8372 -1.2920
 2966WAT      O 9108   1.272   3.834   3.341 -0.6427 -0.2247  0.9398
 2966WAT     H1 9109   1.339   3.776   3.305 -0.4167 -0.3456  1.5429
 2966WAT     H2 9110   1.268   3.908   3.280 -0.9938 -0.9032  0.1084
 2967WAT      O 9111   1.299   3.517   4.273 -0.0582 -0.1855 -0.0987
 2967WAT     H1 9112   1.327   3.587   4.332 -1.2170 -0.8275  1.2524
 2967WAT     H2 9113   1.288   3.560   4.188  2.4421  0.5916 -0.1009
 2968WAT      O 9114   2.330   4.696   1.680  0.2840 -0.0995  0.2140
 2968WAT     H1 9115   2.240   4.728   1.687  0.5530  0.5833  0.6504
 2968WAT     H2 9116   2.358   4.681   1.770  0.0210 -2.0353  0.0085
 2969WAT      O 9117   2.282   2.660   0.664  0.4067  0.6146 -0.3553
 2969WAT     H1 9118   2.212   2.668   0.600  2.3394  0.5807 -2.6073
 2969WAT     H2 9119   2.322   2.575   0.646  0.8654  0.4896  1.0903
 2970WAT      O 9120   0.183   1.814   0.857 -0.4148 -0.0786  0.0410
 2970WAT     H1 9121   0.215   1.744   0.800 -1.6221  0.1112 -0.8887
 2970WAT     H2 9122   0.243   1.812   0.932  0.6289 -0.9508 -0.7774
 2971WAT      O 9123   3.056   1.182   4.774 -0.1202 -0.5223  0.2678
 2971WAT     H1 9124   2.996   1.115   4.808 -1.7968 -0.2589 -1.9680
 2971WAT     H2 9125   3.032   1.191   4.682  1.9378  1.2012 -0.1690
 2972WAT      O 9126   0.247   1.019   2.364  0.3095  0.6187 -0.4033
 2972WAT     H1 9127   0.226   0.943   2.417 -0.1093  0.8052 -0.2945
 2972WAT     H2 9128   0.332   1.049   2.396  0.1467  0.6145  0.0287
 2973WAT      O 9129   4.034   4.840   2.187  0.1852  0.1932 -0.6074
 2973WAT     H1 9130   4.081   4.823   2.105 -0.0578  2.0221 -1.1724
 2973WAT     H2 9131   3.942   4.822   2.166  0.3521 -1.3419 -0.1114
 2974WAT      O 9132   2.648   0.798   3.327  0.2701 -0.2970  0.4571
 2974WAT     H1 9133   2.660   0.710   3.362  0.7288 -0.1589  0.6564
 2974WAT     H2 9134   2.733   0.819   3.287  0.6051  0.5622  1.5538
 2975WAT      O 9135   0.426   2.911   4.375 -0.2322 -0.0651  0.3304
 2975WAT     H1 9136   0.442   2.872   4.461 -0.0107 -1.1529 -0.1724
 2975WAT     H2 9137   0.332   2.901   4.361 -0.8428  2.9228  1.7105
 2976WAT      O 9138   3.059   2.230   3.640  0.2089  0.1610  0.0407
 2976WAT     H1 9139   3.085   2.138   3.631  1.4819  0.3856  1.1181
 2976WAT     H2 9140   3.140   2.276   3.662 -0.7981  1.1792  1.8551
 2977WAT      O 9141   2.427   2.418   3.249  0.4150  0.0458 -0.4265
 2977WAT     H1 9142   2.481   2.341   3.265 -2.6874 -2.7351 -1.9308
 2977WAT     H2 9143   2.474   2.466   3.181  1.9127 -1.1791 -0.3168
 2978WAT      O 9144   1.661   3.274   3.047  0.1235 -0.3306  0.2007
 2978WAT     H1 9145   1.610   3.240   3.121  0.0174  1.5943  1.0616
 2978WAT     H2 9146   1.672   3.198   2.989 -1.3954 -1.4381  1.2769
 2979WAT      O 9147   2.046   0.550   3.161 -0.0882 -0.0025  0.0240
 2979WAT     H1 9148   1.957   0.534   3.194  0.2869 -0.9980  0.5769
 2979WAT     H2 9149   2.046   0.510   3.074  0.1302 -0.9396  0.4492
 2980WAT      O 9150   2.049   1.749   2.976 -0.2669 -0.0681 -0.4869
 2980WAT     H1 9151   2.100   1.830   2.967 -0.4795  0.2557  0.9562
 2980WAT     H2 9152   2.115   1.680   2.985 -0.0811  0.2195  0.3879
 2981WAT      O 9153   3.408   0.799   1.905 -0.7963 -0.3339  0.3905
 2981WAT     H1 9154   3.327   0.826   1.949 -1.3060 -0.8137 -0.2345
 2981WAT     H2 9155   3.397   0.827   1.814  0.8127  1.8558  0.7825
 2982WAT      O 9156   2.671   2.223   3.242  0.2375 -0.2693 -0.3216
 2982WAT     H1 9157   2.654   2.131   3.223  0.7759 -0.3556 -0.4215
 2982WAT     H2 9158   2.724   2.221   3.322 -0.1845 -0.0187 -0.0331
 2983WAT      O 9159   2.052   0.478   1.968 -0.6698  0.3402  0.3132
 2983WAT     H1 9160   1.959   0.455   1.977 -0.1501 -1.8183  0.8963
 2983WAT     H2 9161   2.060   0.563   2.009 -2.5706  1.0624 -0.6966
 2984WAT      O 9162   0.858   0.599   2.642 -0.1102  0.0113  0.7423
 2984WAT     H1 9163   0.836   0.687   2.613  1.1752  0.3932  0.8591
 2984WAT     H2 9164   0.870   0.607   2.736  1.3550  0.0388  0.5811
 2985WAT      O 9165   2.321   3.411   0.986  0.5776 -0.3453  0.0860
 2985WAT     H1 9166   2.408   3.379   1.012  1.6042  2.3712  0.4232
 2985WAT     H2 9167   2.288   3.454   1.065 -2.0342 -2.9316  0.5767
 2986WAT      O 9168   0.309   4.420   0.145 -0.3920 -0.0654  0.2748
 2986WAT     H1 9169   0.313   4.510   0.113  1.3187  0.5230  1.9676
 2986WAT     H2 9170   0.348   4.368   0.076  1.7038  0.9621  0.6129
 2987WAT      O 9171   0.409   2.795   1.398 -0.1649 -0.0172 -0.1556
 2987WAT     H1 9172   0.396   2.793   1.303  0.8155  0.6269 -0.3211
 2987WAT     H2 9173   0.477   2.729   1.414 -1.0637 -0.8658  0.2437
 2988WAT      O 9174   3.212   1.743   3.663 -0.3049  0.4579 -0.3153
 2988WAT     H1 9175   3.200   1.650   3.681  0.0787  0.6891  1.2502
 2988WAT     H2 9176   3.257   1.745   3.579 -0.7463 -0.7489 -0.6010
 2989WAT      O 9177   2.647   1.149   5.153 -0.2426  0.0991 -0.3855
 2989WAT     H1 9178   2.731   1.114   5.181  0.2071  0.1550 -1.6094
 2989WAT     H2 9179   2.631   1.223   5.212  0.3469 -0.1852  0.1415
 2990WAT      O 9180   3.259   1.455   4.483 -0.2774  0.2383 -0.1928
 2990WAT     H1 9181   3.195   1.492   4.544 -0.8413  1.0211 -1.2350
 2990WAT     H2 9182   3.207   1.413   4.415  0.3148  0.6445 -0.9098
 2991WAT      O 9183   0.557   1.871   4.810 -0.2399 -0.2933 -0.0382
 2991WAT     H1 9184   0.530   1.846   4.722 -1.9177  0.5159  0.2174
 2991WAT     H2 9185   0.553   1.967   4.810 -0.0223 -0.2737  0.8500
 2992WAT      O 9186   3.011   2.068   4.455 -0.2033 -0.7194 -0.4180
 2992WAT     H1 9187   2.916   2.066   4.470 -0.1450  0.2444  0.1710
 2992WAT     H2 9188   3.022   2.034   4.367 -1.3528  1.6489 -1.5714
 2993WAT      O 9189   4.374   2.601   3.391  0.1829 -0.0418 -0.1653
 2993WAT     H1 9190   4.452   2.583   3.444 -0.2413  0.7467  0.7501
 2993WAT     H2 9191   4.306   2.620   3.454 -0.9709 -1.4246 -0.9266
 2994WAT      O 9192   2.126   4.548   4.948 -0.3202  0.6938  0.2428
 2994WAT     H1 9193   2.113   4.601   5.027 -0.9813 -0.0327  0.6371
 2994WAT     H2 9194   2.220   4.533   4.944 -0.1094  1.9715  0.0655
 2995WAT      O 9195   2.797   1.111   3.413 -0.3582  0.2662  0.4142
 2995WAT     H1 9196   2.796   1.044   3.481 -0.5925  0.5680  0.7087
 2995WAT     H2 9197   2.706   1.140   3.407 -0.1454  1.0021  0.7191
 2996WAT      O 9198   4.507   4.648   1.253  0.2184 -0.2042  0.2604
 2996WAT     H1 9199   4.447   4.715   1.219 -1.3329 -1.8355 -0.3324
 2996WAT     H2 9200   4.575   4.698   1.299 -1.2299  1.7381  0.3954
 2997WAT      O 9201   3.071   2.814   1.306 -0.3184 -0.0670  0.8958
 2997WAT     H1 9202   3.035   2.760   1.237  1.1521  0.0702 -0.0333
 2997WAT     H2 9203   3.150   2.768   1.334  1.1276  1.6434 -0.1077
 2998WAT      O 9204   4.075   0.195   2.043  0.0073  0.3215  0.2097
 2998WAT     H1 9205   4.152   0.245   2.070 -0.1013 -0.0776  1.3131
 2998WAT     H2 9206   4.079   0.115   2.096 -3.0911  1.8360  3.1118
 2999WAT      O 9207   1.132   0.924   3.292  0.0573  0.1299 -0.2711
 2999WAT     H1 9208   1.161   1.008   3.327 -1.9247  1.4402 -1.5619
 2999WAT     H2 9209   1.136   0.864   3.367  0.3846  1.6553  0.9823
 3000WAT      O 9210   3.712   4.879   4.907  0.4822 -0.2756 -0.8047
 3000WAT     H1 9211   3.719   4.899   4.814 -1.9617 -0.8578 -1.1884
 3000WAT     H2 9212   3.633   4.926   4.936  0.6370 -0.8913  0.7300
 3001WAT      O 9213   2.892   4.384   2.338  0.1559  0.1212 -0.2143
 3001WAT     H1 9214   2.804   4.345   2.330 -0.1356  0.7182  0.0425
 3001WAT     H2 9215   2.879   4.476   2.318  0.5085  0.4499  1.0000
 3002WAT      O 9216   0.613   2.507   0.891 -0.5347 -0.4219 -0.3569
 3002WAT     H1 9217   0.607   2.576   0.958  0.2350 -0.4744 -0.2310
 3002WAT     H2 9218   0.522   2.481   0.876 -0.6415 -1.7740  2.1053
 3003WAT      O 9219   1.040   4.147   0.938 -0.7478  0.5505  0.2936
 3003WAT     H1 9220   1.133   4.129   0.925 -0.7643  0.4603  0.3019
 3003WAT     H2 9221   0.995   4.083   0.882 -0.8193  0.1832  0.7639
 3004WAT      O 9222   1.277   2.559   4.043 -0.4587  0.7607  0.1436
 3004WAT     H1 9223   1.215   2.599   3.982 -0.6386  0.9801  0.4614
 3004WAT     H2 9224   1.299   2.475   4.004 -1.0666  0.6188  0.0917
 3005WAT      O 9225   3.168   4.463   2.692 -0.4381  0.5502  0.1923
 3005WAT     H1 9226   3.101   4.422   2.637 -0.9243  2.6875 -0.9161
 3005WAT     H2 9227   3.128   4.546   2.720  1.3675  1.4231  0.3319
 3006WAT      O 9228   1.400   2.563   0.019  0.1901  0.2203  0.7595
 3006WAT     H1 9229   1.354   2.539   0.100  0.3088 -0.2579  0.6868
 3006WAT     H2 9230   1.375   2.495  -0.044  0.3916  0.3839  0.5018
 3007WAT      O 9231   2.392   2.289   3.547 -0.0186  0.4601 -0.1220
 3007WAT     H1 9232   2.417   2.252   3.462  0.5133 -0.4364  0.4062
 3007WAT     H2 9233   2.297   2.289   3.546 -0.1196 -2.3488  0.4017
 3008WAT      O 9234   2.174   4.911   4.268  0.1412 -0.5584 -0.7051
 3008WAT     H1 9235   2.130   4.828   4.253 -0.6665 -0.3227  0.3001
 3008WAT     H2 9236   2.137   4.970   4.202  0.8610 -1.0274 -1.5481
 3009WAT      O 9237   4.058   3.037   2.799  0.2276  0.6360  0.0689
 3009WAT     H1 9238   4.018   2.967   2.748  0.4448 -1.0570  2.0789
 3009WAT     H2 9239   4.149   3.010   2.811  0.3646  1.3421  0.7041
 3010WAT      O 9240   1.138   0.426   2.542 -0.0687  0.0594  0.4930
 3010WAT     H1 9241   1.090   0.506   2.562  1.0330  0.8408  0.1303
 3010WAT     H2 9242   1.229   0.455   2.530  0.2882 -1.1885 -0.0070
 3011WAT      O 9243   4.322   3.737   1.646 -0.8195  0.9338 -0.0145
 3011WAT     H1 9244   4.290   3.654   1.683 -2.3790  1.0789 -0.9652
 3011WAT     H2 9245   4.258   3.802   1.675 -0.3371  1.5912 -0.3966
 3012WAT      O 9246   4.149   4.176   3.211  0.5672 -0.0931 -0.0989
 3012WAT     H1 9247   4.129   4.144   3.123  0.5629 -0.9993  0.2242
 3012WAT     H2 9248   4.172   4.097   3.261  1.7046  0.5384  0.4061
 3013WAT      O 9249   3.449   4.668   2.910  0.6648  0.2946 -0.3128
 3013WAT     H1 9250   3.488   4.755   2.903  1.2741 -0.0966 -2.9900
 3013WAT     H2 9251   3.355   4.683   2.906  0.6813  0.9120  1.0994
 3014WAT      O 9252   0.519   1.234   3.572 -0.5293 -0.1193  0.1411
 3014WAT     H1 9253   0.504   1.279   3.654  1.3303 -0.0615  0.4773
 3014WAT     H2 9254   0.603   1.190   3.583 -1.2948 -1.9941 -0.9138
 3015WAT      O 9255   0.522   4.504   4.322  0.0532 -0.0801  0.4757
 3015WAT     H1 9256   0.530   4.426   4.377  0.9175  1.1625  2.2058
 3015WAT     H2 9257   0.437   4.541   4.344 -0.0827 -0.1989  0.1419
 3016WAT      O 9258   0.349   0.120   1.576 -0.1309 -0.3234 -0.4970
 3016WAT     H1 9259   0.443   0.109   1.586 -0.1755 -0.9118 -0.7452
 3016WAT     H2 9260   0.339   0.211   1.546  0.2268  0.3799  1.3635
 3017WAT      O 9261   0.812   4.010   4.542  0.1105  0.1870 -0.3873
 3017WAT     H1 9262   0.738   4.028   4.600  0.5413  2.4039 -0.4072
 3017WAT     H2 9263   0.880   3.976   4.600  0.2192  1.5020  0.3088
 3018WAT      O 9264   0.890   3.832   4.320 -0.4742  0.1149  0.5216
 3018WAT     H1 9265   0.852   3.748   4.344 -3.3177  0.6964 -1.3753
 3018WAT     H2 9266   0.840   3.897   4.370  1.0131  0.7773  1.2183
 3019WAT      O 9267   4.142   3.661   0.272  0.5654  0.1032 -0.1492
 3019WAT     H1 9268   4.152   3.572   0.239  2.0371  0.3954 -0.5616
 3019WAT     H2 9269   4.218   3.708   0.237 -1.5103  2.2096 -2.1171
 3020WAT      O 9270   4.342   1.933   4.968  0.3586  0.9313  0.0310
 3020WAT     H1 9271   4.362   2.024   4.988  1.9600  0.7013 -0.3812
 3020WAT     H2 9272   4.345   1.888   5.053  1.9333  0.8704 -0.0305
 3021WAT      O 9273   1.830   1.802   1.363 -0.2000 -0.4474  0.6950
 3021WAT     H1 9274   1.777   1.775   1.287  2.1881 -1.5156 -0.6966
 3021WAT     H2 9275   1.832   1.724   1.419  0.6451 -0.7335  0.2788
 3022WAT      O 9276   4.382   0.904   1.956  0.0344 -0.2118 -0.1987
 3022WAT     H1 9277   4.290   0.918   1.978  0.2139 -0.3483  0.6738
 3022WAT     H2 9278   4.430   0.958   2.018  0.5959 -1.3473  0.3878
 3023WAT      O 9279   3.846   1.473   4.466 -0.3495  0.3427  0.0098
 3023WAT     H1 9280   3.781   1.442   4.404 -1.4715 -0.2746  1.4390
 3023WAT     H2 9281   3.890   1.545   4.421  0.6126 -1.6199 -2.4356
 3024WAT      O 9282   3.869   4.679   4.343  0.2603  0.2377 -0.1917
 3024WAT     H1 9283   3.930   4.716   4.278  0.5768 -1.7051 -1.0753
 3024WAT     H2 9284   3.784   4.717   4.321 -0.0244 -1.7192 -3.0144
 3025WAT      O 9285   3.284   4.472   1.533 -0.1392  0.3271 -0.7467
 3025WAT     H1 9286   3.340   4.467   1.610 -0.0522 -0.2871 -0.8434
 3025WAT     H2 9287   3.257   4.381   1.517 -0.2901  0.4721 -1.3385
 3026WAT      O 9288   3.344   1.431   3.258 -0.3456  0.8259  0.2994
 3026WAT     H1 9289   3.337   1.349   3.209 -2.3653  0.9415  0.2851
 3026WAT     H2 9290   3.436   1.437   3.284 -0.1327 -1.3729  0.1891
 3027WAT      O 9291   0.452   5.079   2.567  0.4736 -0.1816  0.2777
 3027WAT     H1 9292   0.441   4.986   2.587  0.2666 -0.2107  0.0315
 3027WAT     H2 9293   0.522   5.108   2.626 -1.0021  0.0468  1.9844
 3028WAT      O 9294   1.271   4.844   4.862  0.3325  0.5767  0.0413
 3028WAT     H1 9295   1.225   4.836   4.946  0.8749  2.5598  0.5884
 3028WAT     H2 9296   1.207   4.885   4.804 -0.8962 -2.9669 -1.3495
 3029WAT      O 9297   0.635   4.919   1.724 -1.2913 -0.6846  0.1634
 3029WAT     H1 9298   0.653   4.870   1.644 -0.3126 -1.2368  0.7042
 3029WAT     H2 9299   0.686   4.875   1.791 -0.3032  1.0846  0.6606
 3030WAT      O 9300   1.153   0.131   2.472  0.1584 -0.7749  0.4200
 3030WAT     H1 9301   1.164   0.226   2.475  0.0728 -0.3863 -4.1276
 3030WAT     H2 9302   1.066   0.118   2.435  1.1857 -2.4062 -1.6900
 3031WAT      O 9303   1.688   2.956   0.339  0.0431 -0.2650  0.3836
 3031WAT     H1 9304   1.640   3.039   0.339  0.9114  0.2761 -0.7476
 3031WAT     H2 9305   1.773   2.978   0.299  0.6806 -1.4866  1.0151
 3032WAT      O 9306   1.610   2.110   1.083 -0.1786 -0.0937 -0.0670
 3032WAT     H1 9307   1.618   2.205   1.073  1.1079 -0.0659  1.0274
 3032WAT     H2 9308   1.550   2.099   1.157 -2.0185 -0.1984 -1.4973
 3033WAT      O 9309   0.732   3.544   0.247 -0.1726 -0.0348  0.1707
 3033WAT     H1 9310   0.708   3.591   0.328 -1.6140  0.1398 -0.3247
 3033WAT     H2 9311   0.685   3.591   0.178 -1.0978 -1.7614 -0.4364
 3034WAT      O 9312   1.172   4.360   3.443 -0.2326  0.1954 -0.5436
 3034WAT     H1 9313   1.136   4.397   3.362  0.2700 -3.7415 -2.8305
 3034WAT     H2 9314   1.095   4.334   3.493 -0.5558  0.7483 -0.7418
 3035WAT      O 9315   0.620   1.304   0.311  0.1877  0.1262  0.0204
 3035WAT     H1 9316   0.560   1.371   0.278 -2.0951 -1.4040  0.8221
 3035WAT     H2 9317   0.633   1.326   0.403  0.3497  0.0890  0.0069
 3036WAT      O 9318   4.368   2.230   4.733 -0.0115  0.1028  0.1197
 3036WAT     H1 9319   4.288   2.266   4.772  0.3348  0.0083  0.9228
 3036WAT     H2 9320   4.336   2.175   4.661 -0.6528  0.3130  0.2355
 3037WAT      O 9321   3.603   3.312   5.277 -0.4071  0.2565  0.5047
 3037WAT     H1 9322   3.680   3.256   5.273 -1.0852 -0.8066  1.6632
 3037WAT     H2 9323   3.633   3.396   5.242  0.8271 -0.5962 -0.5587
 3038WAT      O 9324   2.306   1.980   0.498  0.3219 -0.0866  0.0420
 3038WAT     H1 9325   2.268   1.992   0.411  0.8684 -0.2805 -0.2235
 3038WAT     H2 9326   2.392   2.023   0.493  0.4520 -0.2989  0.4157
 3039WAT      O 9327   3.554   1.094   2.261  0.4166 -0.2674 -0.0873
 3039WAT     H1 9328   3.607   1.071   2.184  0.1086 -0.8787 -0.1172
 3039WAT     H2 9329   3.513   1.012   2.288 -0.2413  0.1326  0.1497
 3040WAT      O 9330   2.780   5.051   2.159  0.0888 -0.1542  0.3296
 3040WAT     H1 9331   2.757   5.038   2.067  1.8727  0.6889 -0.2794
 3040WAT     H2 9332   2.821   4.968   2.186 -2.0764 -1.0946  0.9733
 3041WAT      O 9333   0.978   2.590   4.149  0.7809 -0.0973  0.3261
 3041WAT     H1 9334   1.053   2.580   4.208  0.4042  0.4593  0.9112
 3041WAT     H2 9335   0.924   2.513   4.168  0.4782  0.2701  0.9887
 3042WAT      O 9336   2.546   2.558   3.057  0.0711  0.0055  0.2932
 3042WAT     H1 9337   2.583   2.646   3.053  0.2295 -0.0644  0.1721
 3042WAT     H2 9338   2.620   2.500   3.036 -0.0170 -0.1596  0.4265
 3043WAT      O 9339   1.869   1.088   1.724  0.6034 -0.0626 -0.1699
 3043WAT     H1 9340   1.816   1.028   1.671 -2.3516  1.0424  1.2780
 3043WAT     H2 9341   1.918   1.031   1.783 -1.1950 -1.1881  0.3372
 3044WAT      O 9342   0.065   4.972   3.625 -0.0043 -0.1844 -0.0402
 3044WAT     H1 9343   0.057   4.915   3.702 -2.1529 -1.4230 -1.0841
 3044WAT     H2 9344   0.014   5.050   3.648  0.0720 -0.1774  0.1081
 3045WAT      O 9345   3.724   4.591   4.976 -0.5960 -0.3456 -0.1444
 3045WAT     H1 9346   3.816   4.566   4.971 -0.7480 -1.1037  0.5522
 3045WAT     H2 9347   3.718   4.672   4.927  0.6481  0.2557  0.6543
 3046WAT      O 9348   3.323   3.299   1.063 -0.0359  0.4332 -0.5744
 3046WAT     H1 9349   3.417   3.316   1.065  0.5788 -2.1060 -1.9767
 3046WAT     H2 9350   3.304   3.255   1.146  0.0609  0.7292 -0.3957
 3047WAT      O 9351   1.628   3.121   3.580 -0.2677  0.2009  0.3675
 3047WAT     H1 9352   1.697   3.187   3.570 -1.4517  1.7258  1.7504
 3047WAT     H2 9353   1.641   3.062   3.506  0.7963  2.0411 -1.0018
 3048WAT      O 9354   1.059   3.783   0.689  0.6433 -0.1390 -0.3993
 3048WAT     H1 9355   1.143   3.828   0.676  0.7272  0.1113  0.8828
 3048WAT     H2 9356   1.083   3.694   0.712  0.4762 -0.9078 -2.9013
 3049WAT      O 9357   0.420   1.424   3.397  0.2755  0.0446  0.2004
 3049WAT     H1 9358   0.368   1.461   3.468 -1.9602 -1.4675 -0.5250
 3049WAT     H2 9359   0.466   1.350   3.437  0.1961  0.0957  0.3880
 3050WAT      O 9360   2.016   4.157   0.633  0.0505  0.3588 -0.1705
 3050WAT     H1 9361   1.928   4.128   0.611 -0.4631  2.5625 -1.3023
 3050WAT     H2 9362   2.013   4.252   0.626  2.4676  0.5244 -0.0080
 3051WAT      O 9363   2.616   1.371   0.020 -0.0378 -0.1889 -0.1327
 3051WAT     H1 9364   2.593   1.378   0.112  1.5341  0.0139  0.2775
 3051WAT     H2 9365   2.646   1.459  -0.004 -0.6290 -0.1870 -0.8986
 3052WAT      O 9366   0.652   1.078   0.663 -0.2582  0.0409  0.0361
 3052WAT     H1 9367   0.599   1.067   0.584 -0.0355 -0.5168 -0.0401
 3052WAT     H2 9368   0.627   1.006   0.720  0.0055  0.1003  0.2325
 3053WAT      O 9369   0.272   2.488   3.344  0.0528  0.2159 -0.3197
 3053WAT     H1 9370   0.281   2.393   3.355 -1.1081 -0.2110 -2.4995
 3053WAT     H2 9371   0.279   2.502   3.249  0.6891  2.3975 -0.0204
 3054WAT      O 9372   1.117   2.498   3.198 -0.2738  0.3315  0.0726
 3054WAT     H1 9373   1.167   2.505   3.116 -1.1620  2.2660 -0.3569
 3054WAT     H2 9374   1.177   2.529   3.266 -0.3085  1.0262 -0.2033
 3055WAT      O 9375   4.139   4.138   2.681  0.1032 -0.0984  0.3388
 3055WAT     H1 9376   4.234   4.138   2.678  0.1245 -0.4049  0.8240
 3055WAT     H2 9377   4.117   4.079   2.754 -0.4989 -1.4109 -0.8462
 3056WAT      O 9378   3.884   1.042   4.022 -0.8919 -0.5360 -0.3833
 3056WAT     H1 9379   3.876   1.005   3.934 -1.0863 -1.5804  0.0580
 3056WAT     H2 9380   3.798   1.027   4.062 -0.7618 -0.1886  0.0346
 3057WAT      O 9381   0.665   4.654   2.635  1.1543 -0.7657 -0.3331
 3057WAT     H1 9382   0.682   4.617   2.721  2.6771  0.6629  0.0271
 3057WAT     H2 9383   0.681   4.748   2.645 -0.7657 -0.2422 -1.6624
 3058WAT      O 9384   3.492   3.280   3.199  0.6197 -0.3807 -0.3166
 3058WAT     H1 9385   3.488   3.373   3.219  1.0864 -0.1251 -1.3404
 3058WAT     H2 9386   3.458   3.273   3.110  1.2493 -1.0980 -0.5087
 3059WAT      O 9387   2.111   1.189   1.906 -0.2762 -0.0737 -0.6865
 3059WAT     H1 9388   2.178   1.216   1.843 -0.3407  0.8908 -0.3668
 3059WAT     H2 9389   2.090   1.099   1.883 -0.2802  0.2567 -2.0351
 3060WAT      O 9390   0.212   1.278   0.769 -0.5503 -0.1786  0.6505
 3060WAT     H1 9391   0.250   1.191   0.768  1.5670  0.6970  0.2202
 3060WAT     H2 9392   0.218   1.308   0.678  0.6063  1.1365  1.1226
 3061WAT      O 9393   0.466   3.031   1.789  0.5999  0.1995  0.6650
 3061WAT     H1 9394   0.468   3.068   1.700  0.8453 -1.3401 -0.0117
 3061WAT     H2 9395   0.443   3.105   1.845  0.0514  1.1374 -0.7232
 3062WAT      O 9396   1.625   2.855   4.322 -0.2439  0.5424  0.2379
 3062WAT     H1 9397   1.643   2.935   4.372 -0.0226  0.8544 -0.3388
 3062WAT     H2 9398   1.698   2.847   4.261  0.4724 -0.8657  1.2239
 3063WAT      O 9399   4.308   2.995   2.804 -0.2831 -0.0183  0.4045
 3063WAT     H1 9400   4.368   2.921   2.810  1.1043  0.8008 -1.9994
 3063WAT     H2 9401   4.354   3.067   2.848 -0.1601  0.2318 -0.1263
 3064WAT      O 9402   4.131   4.628   2.353 -0.4843  0.0830 -0.2184
 3064WAT     H1 9403   4.225   4.645   2.364 -0.4082 -0.4015 -0.1224
 3064WAT     H2 9404   4.100   4.702   2.300 -0.2776  0.8479  0.7054
 3065WAT      O 9405   1.922   4.381   0.540 -0.7047  0.1692  0.1167
 3065WAT     H1 9406   1.879   4.359   0.458  2.0092 -1.4444 -0.9963
 3065WAT     H2 9407   1.964   4.466   0.524  1.3931 -0.9925 -0.9256
 3066WAT      O 9408   2.935   4.059   1.466  0.5264  0.3010 -0.7099
 3066WAT     H1 9409   2.914   4.013   1.548  0.4260  0.0411 -0.8820
 3066WAT     H2 9410   2.919   3.994   1.398 -1.1799  1.0767 -1.0873
 3067WAT      O 9411   3.561   4.760   0.789 -0.6344  0.1930  0.2447
 3067WAT     H1 9412   3.644   4.720   0.818 -2.3175 -2.2462  2.1115
 3067WAT     H2 9413   3.587   4.818   0.718  2.7754  0.1663  1.2619
 3068WAT      O 9414   2.728   2.527   2.129 -0.2253 -0.0818  0.0001
 3068WAT     H1 9415   2.678   2.586   2.185  1.4021 -0.1553  1.6502
 3068WAT     H2 9416   2.813   2.570   2.118  1.4400 -2.4522  2.1983
 3069WAT      O 9417   4.388   4.677   3.499 -0.1796 -0.3704  0.1674
 3069WAT     H1 9418   4.321   4.623   3.542 -0.3562 -1.9515 -1.9517
 3069WAT     H2 9419   4.470   4.651   3.540 -0.5694 -0.2740  1.0248
 3070WAT      O 9420   3.951   1.169   0.860  0.3220  0.0105  0.3304
 3070WAT     H1 9421   3.978   1.148   0.771  2.6131 -0.6275  1.0963
 3070WAT     H2 9422   3.898   1.094   0.887  0.3724 -0.2140 -0.1851
 3071WAT      O 9423   4.244   5.045   1.420  0.1032 -0.1690 -0.0543
 3071WAT     H1 9424   4.253   5.126   1.469  0.1720 -0.2061 -0.0046
 3071WAT     H2 9425   4.331   5.031   1.381 -0.0693  0.0760 -0.5242
 3072WAT      O 9426   3.756   4.344   4.189  0.3748  0.3711  0.1868
 3072WAT     H1 9427   3.727   4.402   4.259  1.2028 -1.1264  1.8481
 3072WAT     H2 9428   3.808   4.400   4.131  0.7274  1.4119  1.4621
 3073WAT      O 9429   3.004   2.561   2.314 -0.0486 -0.2440 -0.7487
 3073WAT     H1 9430   3.050   2.634   2.272 -0.7763  1.2462  0.9093
 3073WAT     H2 9431   3.073   2.513   2.360  0.0810  1.2639  0.7203
 3074WAT      O 9432   0.898   4.312   3.266 -0.5714  0.1931  0.4424
 3074WAT     H1 9433   0.990   4.316   3.238 -0.6484 -1.8676 -0.2919
 3074WAT     H2 9434   0.899   4.346   3.355  1.0591 -0.5522  0.7491
 3075WAT      O 9435   0.518   4.097   0.111  0.4219 -1.0180 -0.3464
 3075WAT     H1 9436   0.500   4.174   0.056 -0.7036 -1.0795 -0.0947
 3075WAT     H2 9437   0.436   4.048   0.110  0.3674 -1.0221  1.3920
 3076WAT      O 9438   2.412   0.191   1.765 -0.5033 -0.3232 -0.0979
 3076WAT     H1 9439   2.409   0.211   1.672  0.9681  0.7372  0.0566
 3076WAT     H2 9440   2.389   0.273   1.808  1.2242 -0.1271  0.4952
 3077WAT      O 9441   2.974   3.540   4.560 -0.1686  0.1901  0.1436
 3077WAT     H1 9442   3.007   3.602   4.625  0.2009  0.7207 -0.5410
 3077WAT     H2 9443   3.025   3.460   4.575 -0.2224  0.2430  0.6272
 3078WAT      O 9444   0.183   0.423   0.680  0.2808 -0.1825 -0.4944
 3078WAT     H1 9445   0.176   0.342   0.629  1.4199  0.0935 -1.1144
 3078WAT     H2 9446   0.250   0.474   0.635  0.6565  0.4706  0.7591
 3079WAT      O 9447   3.963   2.858   3.300 -0.4088 -0.0364 -0.2185
 3079WAT     H1 9448   3.950   2.939   3.350 -2.2061 -0.5737  0.2521
 3079WAT     H2 9449   3.888   2.803   3.323  0.5364 -1.6785 -0.8737
 3080WAT      O 9450   1.498   5.012   4.886 -0.2648  0.0722 -0.2893
 3080WAT     H1 9451   1.555   4.937   4.904 -0.3515  0.1000  0.1203
 3080WAT     H2 9452   1.417   4.972   4.853 -0.3317 -0.0217 -0.0190
 3081WAT      O 9453   0.262   2.634   2.086  0.1045 -0.6062 -0.1564
 3081WAT     H1 9454   0.169   2.618   2.100 -0.0698  0.3021 -0.2328
 3081WAT     H2 9455   0.266   2.689   2.008  0.5880  0.7001  0.7503
 3082WAT      O 9456   0.573   1.256   1.928  0.1590  0.1435  0.2507
 3082WAT     H1 9457   0.591   1.286   2.017 -0.7356  1.2745  0.0859
 3082WAT     H2 9458   0.486   1.292   1.908  0.0142 -0.7263 -0.8074
 3083WAT      O 9459   2.705   1.745   4.782 -0.1070  0.4899  0.3063
 3083WAT     H1 9460   2.735   1.663   4.741 -0.9624  0.9111 -1.2406
 3083WAT     H2 9461   2.782   1.778   4.827  0.4199 -0.8751  0.4741
 3084WAT      O 9462   0.928   0.628   0.811 -0.7208  0.3966 -0.6309
 3084WAT     H1 9463   0.986   0.589   0.745 -0.5665  2.2088 -1.6608
 3084WAT     H2 9464   0.843   0.631   0.768 -1.8886 -2.9158  1.1410
 3085WAT      O 9465   4.005   0.530   1.223 -0.0589  0.1631  0.3201
 3085WAT     H1 9466   3.937   0.572   1.169  2.0839  3.1292 -0.3282
 3085WAT     H2 9467   3.974   0.441   1.235 -3.2148  0.8706 -1.3734
 3086WAT      O 9468   1.169   2.190   2.960  0.7802  0.1991  0.2608
 3086WAT     H1 9469   1.199   2.268   2.914  0.3192 -0.0564 -0.4861
 3086WAT     H2 9470   1.249   2.151   2.995  1.0956  0.5915 -0.0126
 3087WAT      O 9471   1.687   4.511   4.858  0.4938  0.0014  0.2570
 3087WAT     H1 9472   1.701   4.420   4.831 -0.9759  0.4696 -2.3582
 3087WAT     H2 9473   1.701   4.562   4.778 -2.3199  1.7121  0.7442
 3088WAT      O 9474   1.375   2.976   0.395  0.6004 -0.3865  0.0471
 3088WAT     H1 9475   1.300   2.994   0.339 -0.6933  0.9790  2.0745
 3088WAT     H2 9476   1.362   2.886   0.425 -0.2560 -0.1687  0.3591
 3089WAT      O 9477   4.341   3.995   4.890 -0.1142  0.2105 -0.0004
 3089WAT     H1 9478   4.293   3.912   4.882 -0.2751  0.3908 -0.9870
 3089WAT     H2 9479   4.289   4.058   4.840  1.4463  0.2755 -1.6531
 3090WAT      O 9480   3.594   2.486   2.369 -0.4267  0.2640  0.8360
 3090WAT     H1 9481   3.557   2.483   2.281  0.0285 -0.1450  0.6536
 3090WAT     H2 9482   3.595   2.395   2.398 -0.3173  0.3667  1.1523
 3091WAT      O 9483   4.306   4.941   2.767  0.1240 -0.6632  0.3549
 3091WAT     H1 9484   4.213   4.918   2.756  0.6174 -2.0961 -1.1769
 3091WAT     H2 9485   4.342   4.869   2.819  0.3501  0.0191  1.1611
 3092WAT      O 9486   2.017   2.527   1.770  0.8249  0.4559 -0.2569
 3092WAT     H1 9487   2.011   2.623   1.763 -0.4384  0.4705  0.7856
 3092WAT     H2 9488   2.102   2.506   1.731  0.1558  1.7647 -2.6316
 3093WAT      O 9489   1.823   1.017   1.254 -0.0116 -0.0172  0.1534
 3093WAT     H1 9490   1.766   0.997   1.179 -1.3033  2.1071  0.4881
 3093WAT     H2 9491   1.790   1.101   1.287  2.4007  0.5425  1.3052
 3094WAT      O 9492   0.746   4.209   1.268  0.4750 -0.0972  0.0272
 3094WAT     H1 9493   0.713   4.254   1.346 -0.5813 -1.0245  0.1452
 3094WAT     H2 9494   0.704   4.254   1.195  3.0245  2.1115 -0.2189
 3095WAT      O 9495   3.323   3.441   4.145 -0.1414  0.1173 -0.3324
 3095WAT     H1 9496   3.380   3.495   4.090 -0.9885  4.6491  2.6338
 3095WAT     H2 9497   3.239   3.487   4.144 -1.0231 -1.2449  2.3704
 3096WAT      O 9498   3.730   3.969   3.902  0.3449  0.1241 -0.1772
 3096WAT     H1 9499   3.804   4.011   3.945 -0.5609  0.2336  1.3482
 3096WAT     H2 9500   3.754   3.966   3.809  1.6326  1.4289  0.0885
 3097WAT      O 9501   0.925   1.315   5.104 -0.2853 -0.6095  0.1584
 3097WAT     H1 9502   1.002   1.264   5.130 -0.2113 -1.2990 -1.3012
 3097WAT     H2 9503   0.875   1.255   5.049 -1.3139  0.1989  0.1917
 3098WAT      O 9504   2.601   2.831   0.715  0.0571 -0.0751 -0.3994
 3098WAT     H1 9505   2.563   2.895   0.655 -0.7995 -1.7946 -1.7629
 3098WAT     H2 9506   2.689   2.865   0.732 -0.6534  1.8865 -0.3838
 3099WAT      O 9507   4.264   0.274   0.759  0.1534  0.0929 -0.2181
 3099WAT     H1 9508   4.267   0.186   0.797  1.1524  0.7892  1.4382
 3099WAT     H2 9509   4.346   0.282   0.710  1.2169  0.8482  1.5610
 3100WAT      O 9510   4.317   1.756   2.910  0.8591  0.0325  0.0204
 3100WAT     H1 9511   4.270   1.754   2.993  1.0605 -0.2906  0.1280
 3100WAT     H2 9512   4.360   1.841   2.909  1.6007 -0.3248  0.6644
 3101WAT      O 9513   0.661   4.893   0.051  0.0503  0.5344 -0.3180
 3101WAT     H1 9514   0.583   4.900   0.106 -0.1864  1.3511 -0.7488
 3101WAT     H2 9515   0.628   4.859  -0.032  0.2848  0.1067 -0.2412
 3102WAT      O 9516   0.757   3.409   1.084  0.2467  0.1904 -0.2443
 3102WAT     H1 9517   0.850   3.427   1.074  0.0152  0.6068 -1.7900
 3102WAT     H2 9518   0.716   3.495   1.097  0.1307 -0.0464  1.1763
 3103WAT      O 9519   1.316   2.680   0.458  0.4807 -0.2646  0.1509
 3103WAT     H1 9520   1.304   2.640   0.544 -0.6068  0.3726  0.3044
 3103WAT     H2 9521   1.246   2.642   0.404  1.5813 -1.2128 -0.6774
 3104WAT      O 9522   0.360   0.047   2.099 -0.5082 -0.6431 -0.1972
 3104WAT     H1 9523   0.421   0.094   2.041 -0.0620 -0.7160  0.2047
 3104WAT     H2 9524   0.402   0.049   2.185  0.1116 -2.7791 -0.3930
 3105WAT      O 9525   1.959   0.579   1.707 -0.0420 -0.1334  0.3286
 3105WAT     H1 9526   1.966   0.485   1.687  0.6039  0.0569 -0.3912
 3105WAT     H2 9527   1.884   0.585   1.767 -1.7398 -0.8157 -1.5886
 3106WAT      O 9528   2.529   3.214   1.241 -0.4522 -0.0008  0.2089
 3106WAT     H1 9529   2.569   3.284   1.191  1.0344 -0.3633  0.8251
 3106WAT     H2 9530   2.601   3.178   1.293 -1.4298 -1.2061  0.7811
 3107WAT      O 9531   4.406   1.522   4.312  0.0603  0.2837 -0.1929
 3107WAT     H1 9532   4.499   1.539   4.321  0.5552 -1.8370 -0.7967
 3107WAT     H2 9533   4.372   1.599   4.267  1.3841  1.3470  0.5397
 3108WAT      O 9534   2.669   3.037   1.403 -0.2881  0.6900 -0.0166
 3108WAT     H1 9535   2.696   2.968   1.342  2.1048  1.6156 -0.0937
 3108WAT     H2 9536   2.656   2.991   1.486  2.7220  0.2666  0.3173
 3109WAT      O 9537   0.576   3.588   5.077 -0.2251 -0.1272  0.1318
 3109WAT     H1 9538   0.528   3.634   5.147 -0.0833  0.8813 -0.4204
 3109WAT     H2 9539   0.536   3.619   4.996  1.0411  0.3883 -0.3256
 3110WAT      O 9540   3.966   3.219   0.707 -0.5240  0.4761  0.0331
 3110WAT     H1 9541   3.940   3.306   0.676 -4.3821 -0.3447  0.4451
 3110WAT     H2 9542   3.889   3.164   0.691  1.0009 -2.3743  1.7301
 3111WAT      O 9543   4.195   0.027   1.731  0.4287 -0.1735 -0.4999
 3111WAT     H1 9544   4.141   0.105   1.742  1.5766  0.4008  1.3846
 3111WAT     H2 9545   4.252   0.048   1.657  0.7707  0.8125  0.0292
 3112WAT      O 9546   4.318   0.271   2.905  0.2184 -0.8060  0.4523
 3112WAT     H1 9547   4.229   0.260   2.938  0.1101 -3.2819 -0.4590
 3112WAT     H2 9548   4.333   0.195   2.849  2.8098 -0.2934  0.3010
 3113WAT      O 9549   0.015   2.027   3.593  0.1459  0.2976  0.7396
 3113WAT     H1 9550  -0.034   2.109   3.583  1.8283  1.2249 -0.3576
 3113WAT     H2 9551   0.106   2.053   3.585  0.7237 -1.7254  0.2350
 3114WAT      O 9552   4.210   2.618   4.164 -0.6887  0.8526  0.7641
 3114WAT     H1 9553   4.138   2.640   4.224 -0.6491 -0.5899  1.3819
 3114WAT     H2 9554   4.244   2.535   4.197 -1.3181 -0.5506 -1.8159
 3115WAT      O 9555   0.873   0.096   2.462 -0.4671  0.2180 -0.2676
 3115WAT     H1 9556   0.854   0.111   2.369 -1.8496  0.7103  0.0770
 3115WAT     H2 9557   0.845   0.177   2.505 -0.0311 -0.0915  0.6119
 3116WAT      O 9558   0.234   3.714   0.198 -0.3598  0.7285  0.6560
 3116WAT     H1 9559   0.217   3.624   0.226 -0.7790  0.2601 -1.0014
 3116WAT     H2 9560   0.305   3.706   0.134  0.5842  1.7672  1.5173
 3117WAT      O 9561   0.552   2.537   4.839  0.3678 -0.2323 -0.4234
 3117WAT     H1 9562   0.474   2.540   4.893 -1.0061  0.9932 -2.3365
 3117WAT     H2 9563   0.612   2.479   4.886 -1.7146 -1.3295  1.0280
 3118WAT      O 9564   3.703   2.962   1.597 -0.7003  0.2528  0.3914
 3118WAT     H1 9565   3.775   3.003   1.646  0.0716 -0.7220  0.1015
 3118WAT     H2 9566   3.625   2.984   1.647 -0.0885  0.4666  1.2839
 3119WAT      O 9567   0.247   5.137   5.123  0.3702  0.3818  0.6952
 3119WAT     H1 9568   0.304   5.061   5.127 -0.2545 -0.0840  0.9501
 3119WAT     H2 9569   0.203   5.139   5.208 -1.0623 -0.1330  0.0014
 3120WAT      O 9570   1.934   0.012   1.629  0.1075 -0.5978  0.1724
 3120WAT     H1 9571   1.853   0.058   1.651  0.3270  0.8368 -1.7904
 3120WAT     H2 9572   1.932   0.004   1.534  2.8409  0.6415 -0.0633
 3121WAT      O 9573   1.101   0.956   4.364  0.1394  0.3573  0.1233
 3121WAT     H1 9574   1.169   0.897   4.332 -0.9493 -1.4973  1.0444
 3121WAT     H2 9575   1.139   0.997   4.442  0.5839  0.1722  0.0069
 3122WAT      O 9576   3.079   0.383   4.570 -0.1575  0.5493  0.1248
 3122WAT     H1 9577   3.106   0.399   4.480 -0.2212  2.5948  0.4370
 3122WAT     H2 9578   3.152   0.414   4.623 -0.4291  0.0439  0.8049
 3123WAT      O 9579   0.605   4.246   2.069  0.3617 -0.0437 -0.1569
 3123WAT     H1 9580   0.657   4.318   2.033  1.6382 -1.4042 -1.1378
 3123WAT     H2 9581   0.577   4.278   2.155 -0.5017  2.2458 -1.1946
 3124WAT      O 9582   4.161   1.343   3.298  0.0361  0.3139  0.0345
 3124WAT     H1 9583   4.198   1.276   3.241  0.9849  1.6287 -0.9454
 3124WAT     H2 9584   4.129   1.294   3.374  0.9085 -1.2114 -0.5327
 3125WAT      O 9585   2.272   5.000   1.572 -0.2022  0.0262  0.1478
 3125WAT     H1 9586   2.213   5.043   1.634 -2.2657  0.5158 -2.0161
 3125WAT     H2 9587   2.214   4.948   1.516  1.7431 -1.6536 -0.4042
 3126WAT      O 9588   2.892   3.929   5.002 -0.3814 -0.1470  0.1240
 3126WAT     H1 9589   2.866   4.002   5.059  0.0341  0.9069 -1.0055
 3126WAT     H2 9590   2.926   3.971   4.923 -0.5524 -1.5753 -0.7397
 3127WAT      O 9591   2.285   0.382   2.085  0.1578  0.3170  0.3593
 3127WAT     H1 9592   2.325   0.469   2.086 -0.2437  0.5439 -0.8714
 3127WAT     H2 9593   2.198   0.395   2.048 -0.1486 -0.5207  0.7460
 3128WAT      O 9594   3.112   1.466   1.741 -0.2001 -0.4749  0.7462
 3128WAT     H1 9595   3.082   1.519   1.815  0.7934 -0.0387  0.8526
 3128WAT     H2 9596   3.069   1.382   1.753 -1.6177  0.2249  0.7025
 3129WAT      O 9597   1.597   1.464   0.375 -0.3323 -0.1004  0.2232
 3129WAT     H1 9598   1.672   1.490   0.321 -0.5964  0.4513  0.1167
 3129WAT     H2 9599   1.534   1.536   0.365 -1.7855 -1.4890 -1.4180
 3130WAT      O 9600   0.337   2.264   1.632 -0.4015 -0.3894  0.4570
 3130WAT     H1 9601   0.391   2.337   1.662  1.1472 -0.7920 -1.2230
 3130WAT     H2 9602   0.359   2.193   1.692 -0.6096  0.0086  1.0219
 3131WAT      O 9603   0.395   0.093   1.059 -0.5545 -0.0379  0.1523
 3131WAT     H1 9604   0.409   0.188   1.054 -0.6105 -0.1129 -2.4621
 3131WAT     H2 9605   0.389   0.064   0.968 -0.2093 -2.6282  0.8672
 3132WAT      O 9606   1.863   3.314   1.423 -0.6198  0.0238  0.1804
 3132WAT     H1 9607   1.799   3.245   1.406 -2.3376  0.9666  2.1627
 3132WAT     H2 9608   1.815   3.395   1.406  0.0918  0.7645  1.5234
 3133WAT      O 9609   3.814   2.853   4.207 -0.3657  0.1423  0.3904
 3133WAT     H1 9610   3.730   2.829   4.248  0.0570 -1.6743  0.2982
 3133WAT     H2 9611   3.794   2.929   4.153 -1.7055  0.4312  1.2542
 3134WAT      O 9612   1.318   3.119   4.524  0.0870 -0.0662  0.4320
 3134WAT     H1 9613   1.384   3.075   4.577  1.2116 -0.0756 -0.9185
 3134WAT     H2 9614   1.366   3.152   4.448 -1.5136 -0.3992 -0.7937
 3135WAT      O 9615   4.090   4.727   2.877  0.4857  0.5000  0.2538
 3135WAT     H1 9616   4.051   4.793   2.821 -1.8034 -0.5654  0.4772
 3135WAT     H2 9617   4.111   4.774   2.958 -2.3059  0.7956  0.9095
 3136WAT      O 9618   1.627   2.940   1.246 -0.5517  0.4162  0.2373
 3136WAT     H1 9619   1.600   2.850   1.265  0.7083  0.1106  0.6775
 3136WAT     H2 9620   1.586   2.993   1.315 -1.6804  0.2668 -0.2935
 3137WAT      O 9621   1.406   0.768   3.618 -0.5459  0.2055  0.0885
 3137WAT     H1 9622   1.476   0.804   3.564  1.0483 -1.7328  0.7317
 3137WAT     H2 9623   1.406   0.822   3.697 -0.4608  0.8264 -0.3284
 3138WAT      O 9624   2.670   4.644   1.251  0.2845  0.4419 -0.4594
 3138WAT     H1 9625   2.679   4.652   1.346  0.8914  2.1915 -0.6222
 3138WAT     H2 9626   2.579   4.619   1.237  0.5981 -1.4941  0.6209
 3139WAT      O 9627   1.659   1.397   2.249  0.2439  0.0056  0.2779
 3139WAT     H1 9628   1.725   1.357   2.305  0.0100 -0.8275 -0.0177
 3139WAT     H2 9629   1.697   1.480   2.222  1.4975 -0.7924 -0.4936
 3140WAT      O 9630   2.277   3.988   0.214  0.2646  0.5345  0.3237
 3140WAT     H1 9631   2.186   3.963   0.231 -0.2869  1.3667 -1.2153
 3140WAT     H2 9632   2.328   3.929   0.269 -1.1912 -0.1216  1.0338
 3141WAT      O 9633   3.975   2.388   4.550  0.1105  0.4599  0.1356
 3141WAT     H1 9634   4.020   2.309   4.520 -0.1053  0.0603  0.8461
 3141WAT     H2 9635   3.885   2.359   4.566  0.1153  0.7707  0.7429
 3142WAT      O 9636   1.792   4.460   5.126 -0.5876  0.6790 -0.2154
 3142WAT     H1 9637   1.731   4.446   5.054 -1.1136 -2.0708  0.6678
 3142WAT     H2 9638   1.860   4.516   5.088 -1.4388  0.2885 -2.4893
 3143WAT      O 9639   2.186   2.296   2.664  0.5965  0.1945  0.4728
 3143WAT     H1 9640   2.198   2.239   2.588  1.7489 -1.6778  1.9620
 3143WAT     H2 9641   2.091   2.306   2.671  0.4655  0.4032 -1.1755
 3144WAT      O 9642   1.756   3.961   0.577  0.6536  0.0623  0.0608
 3144WAT     H1 9643   1.665   3.931   0.574  0.5977  0.0285  1.4398
 3144WAT     H2 9644   1.807   3.887   0.544  0.5104 -1.6540  3.3098
 3145WAT      O 9645   1.089   3.779   5.121 -0.1674  0.0348  0.0741
 3145WAT     H1 9646   1.064   3.782   5.213 -0.4651 -1.4317  0.0752
 3145WAT     H2 9647   1.034   3.710   5.083 -0.7965  1.3182 -1.4624
 3146WAT      O 9648   0.713   1.439   1.745  0.3297 -0.1936  0.7307
 3146WAT     H1 9649   0.750   1.487   1.820  0.2714  0.6458  0.2352
 3146WAT     H2 9650   0.648   1.381   1.784 -1.3799  1.8790  1.1511
 3147WAT      O 9651   2.209   3.568   4.427  0.3698  0.8552 -0.1281
 3147WAT     H1 9652   2.247   3.624   4.359  0.9132  1.9666  1.0670
 3147WAT     H2 9653   2.173   3.629   4.491  1.9829 -0.1114  1.7790
 3148WAT      O 9654   1.922   2.214   2.684 -0.6445  1.0029 -0.2501
 3148WAT     H1 9655   1.905   2.201   2.777 -1.3415 -1.9235 -0.7108
 3148WAT     H2 9656   1.836   2.236   2.647 -0.8848 -0.3202 -0.5327
 3149WAT      O 9657   1.662   3.853   3.436  0.3315 -0.5784  0.5702
 3149WAT     H1 9658   1.650   3.933   3.383 -0.8273 -0.7173  0.6096
 3149WAT     H2 9659   1.755   3.855   3.460  0.5365  0.2709 -0.2151
 3150WAT      O 9660   2.349   3.014   1.461  0.1826 -0.5561 -0.0170
 3150WAT     H1 9661   2.392   3.021   1.375 -1.3745 -0.1722 -0.8049
 3150WAT     H2 9662   2.353   3.102   1.497 -2.3512  0.2253 -1.3676
 3151WAT      O 9663   2.456   4.640   1.895 -0.2634 -0.0552 -0.2234
 3151WAT     H1 9664   2.395   4.628   1.968  0.4860 -0.2044  0.3868
 3151WAT     H2 9665   2.483   4.551   1.872  0.5714  0.0706  0.2436
 3152WAT      O 9666   4.413   2.118   0.440 -0.2937  0.1335 -0.0223
 3152WAT     H1 9667   4.374   2.191   0.392 -0.3501  0.0122 -0.1645
 3152WAT     H2 9668   4.347   2.048   0.434  0.3847 -0.4441 -1.1965
 3153WAT      O 9669   1.475   3.281   4.342  0.1645  0.2678 -0.7389
 3153WAT     H1 9670   1.422   3.330   4.404 -1.3741 -2.3749  0.2001
 3153WAT     H2 9671   1.429   3.289   4.258  0.1333  0.6723 -0.6856
 3154WAT      O 9672   4.502   4.908   0.702  0.1963  0.0873  0.5404
 3154WAT     H1 9673   4.445   4.836   0.675  0.3507  0.5687 -1.1504
 3154WAT     H2 9674   4.569   4.866   0.756  0.3082 -1.0654 -0.4459
 3155WAT      O 9675   0.188   0.168   3.735  0.0105 -0.4579  0.0890
 3155WAT     H1 9676   0.194   0.221   3.815 -1.3737  0.5842 -0.4428
 3155WAT     H2 9677   0.235   0.219   3.669 -0.2464 -0.5094 -0.1344
 3156WAT      O 9678   1.016   3.022   0.056 -0.2231  0.1252 -0.5374
 3156WAT     H1 9679   1.072   3.057  -0.013 -1.2393 -0.2663 -1.5906
 3156WAT     H2 9680   0.942   3.082   0.060 -0.2130  0.0977  0.1631
 3157WAT      O 9681   3.192   0.505   4.335  0.7064  0.0357 -0.5875
 3157WAT     H1 9682   3.115   0.540   4.290  0.2684 -0.8625 -0.5454
 3157WAT     H2 9683   3.222   0.578   4.389 -1.3519 -0.2167  1.0106
 3158WAT      O 9684   4.208   3.568   2.970 -0.0781 -0.3262  0.3712
 3158WAT     H1 9685   4.113   3.557   2.967  0.0233 -1.3865  0.6112
 3158WAT     H2 9686   4.221   3.655   3.009 -0.9479  0.1226 -0.3100
 3159WAT      O 9687   0.947   1.773   0.194 -0.6585 -0.3416  0.2248
 3159WAT     H1 9688   0.955   1.679   0.179  0.2304 -0.1633 -0.5147
 3159WAT     H2 9689   0.854   1.792   0.179 -0.8627 -1.1065  0.4599
 3160WAT      O 9690   4.179   2.886   4.970 -0.0116 -0.0283  0.1064
 3160WAT     H1 9691   4.259   2.938   4.973  0.5408 -0.8211 -0.4256
 3160WAT     H2 9692   4.117   2.939   4.920  1.2120 -0.7125 -2.2984
 3161WAT      O 9693   1.081   4.102   1.784 -0.1404  0.3781 -0.4393
 3161WAT     H1 9694   1.049   4.026   1.832 -0.6966  1.2883  0.6970
 3161WAT     H2 9695   1.161   4.128   1.831  0.6131 -0.0912 -1.4337
 3162WAT      O 9696   1.902   4.806   3.149 -0.7148  0.0943  0.3913
 3162WAT     H1 9697   1.831   4.757   3.107 -0.5844 -0.7506  1.1291
 3162WAT     H2 9698   1.944   4.742   3.207 -1.4117  1.4235  2.4466
 3163WAT      O 9699   3.007   4.386   5.086  0.6300 -0.4872 -0.1785
 3163WAT     H1 9700   3.044   4.348   5.006  1.3585 -0.6697  0.2314
 3163WAT     H2 9701   2.982   4.310   5.139  0.3519 -0.3701 -0.1417
 3164WAT      O 9702   2.141   1.267   2.161 -0.8257  0.4185 -0.1029
 3164WAT     H1 9703   2.105   1.291   2.075  1.2142 -1.0445 -1.4623
 3164WAT     H2 9704   2.173   1.177   2.149  0.2859  0.4814  1.9532
 3165WAT      O 9705   1.228   2.890   0.678  0.8650 -0.0472  0.5014
 3165WAT     H1 9706   1.143   2.884   0.721  0.8832 -0.6207  0.4645
 3165WAT     H2 9707   1.288   2.843   0.736  1.1599  0.3481  0.5244
 3166WAT      O 9708   0.822   1.456   3.575  0.2032 -0.2896  0.0208
 3166WAT     H1 9709   0.879   1.396   3.527  0.3361  0.0395 -0.2430
 3166WAT     H2 9710   0.798   1.523   3.510 -1.9652 -1.3909 -0.4022
 3167WAT      O 9711   1.204   1.411   4.465  0.0407 -0.5513  0.8080
 3167WAT     H1 9712   1.207   1.412   4.369  0.0688 -1.5722  0.7927
 3167WAT     H2 9713   1.257   1.487   4.490 -1.4211  0.7958  0.0107
 3168WAT      O 9714   3.172   0.818   2.540 -0.2934  0.6376  0.2648
 3168WAT     H1 9715   3.159   0.905   2.503  0.8956  0.3266 -0.9752
 3168WAT     H2 9716   3.109   0.812   2.612 -2.9665  1.1698 -1.8835
 3169WAT      O 9717   2.504   3.777   2.189 -0.0420 -0.3252  0.0118
 3169WAT     H1 9718   2.426   3.760   2.136  0.7526 -0.0762 -1.2722
 3169WAT     H2 9719   2.577   3.762   2.130  0.9633 -1.9973  1.5954
 3170WAT      O 9720   0.756   0.500   4.515 -0.6035 -0.1676 -0.6963
 3170WAT     H1 9721   0.737   0.486   4.422  0.1263 -1.6298 -0.6583
 3170WAT     H2 9722   0.842   0.459   4.528 -0.6394  0.1191  0.6058
 3171WAT      O 9723   3.364   4.840   4.168 -0.0321 -0.4010  0.4307
 3171WAT     H1 9724   3.442   4.786   4.182 -0.7641 -2.0099 -1.3393
 3171WAT     H2 9725   3.298   4.801   4.224 -0.9886 -2.4255 -1.9445
 3172WAT      O 9726   2.043   2.376   1.321 -0.0433 -0.1113 -0.4617
 3172WAT     H1 9727   2.043   2.419   1.406 -0.8439 -0.0547 -0.4821
 3172WAT     H2 9728   2.055   2.283   1.340 -1.2727 -0.2333 -0.1962
 3173WAT      O 9729   2.160   4.079   0.919 -0.4270  0.5250 -0.4947
 3173WAT     H1 9730   2.075   4.123   0.925 -0.5762  0.0562  3.5576
 3173WAT     H2 9731   2.139   3.986   0.926  0.3744  0.4240  0.9351
 3174WAT      O 9732   0.858   1.897   0.505  0.3242  0.2177 -0.6580
 3174WAT     H1 9733   0.787   1.847   0.464 -0.2131 -0.2485  0.7945
 3174WAT     H2 9734   0.933   1.837   0.504 -0.1829 -0.4660  0.6352
 3175WAT      O 9735   2.068   2.750   1.585 -0.0211 -0.4081 -0.6982
 3175WAT     H1 9736   2.024   2.781   1.506 -0.0014  0.5777 -0.3423
 3175WAT     H2 9737   2.006   2.768   1.656  1.2803  2.0363 -0.0322
 3176WAT      O 9738   0.694   1.321   0.877 -0.5102 -0.3724  0.0846
 3176WAT     H1 9739   0.658   1.258   0.815  0.7801  1.0348 -2.2303
 3176WAT     H2 9740   0.789   1.305   0.875 -0.4653 -0.7089  2.2412
 3177WAT      O 9741   4.106   0.910   2.848  0.7126 -0.1407 -0.6868
 3177WAT     H1 9742   4.190   0.955   2.845  0.9440 -0.4035  0.7767
 3177WAT     H2 9743   4.116   0.835   2.790  2.2670 -1.3571  1.0291
 3178WAT      O 9744   1.699   2.288   5.029 -0.3576  0.5043 -0.1753
 3178WAT     H1 9745   1.628   2.352   5.034  0.8857  1.9376 -0.5479
 3178WAT     H2 9746   1.772   2.329   5.076 -0.0447 -1.3720  1.1044
 3179WAT      O 9747   0.853   0.021   4.720  0.1710 -0.3098 -0.3421
 3179WAT     H1 9748   0.788   0.060   4.779 -0.9719 -2.4330 -0.0823
 3179WAT     H2 9749   0.840   0.066   4.637 -0.0952  0.8443  0.3121
 3180WAT      O 9750   1.162   0.035   0.877 -0.0477 -0.1790 -0.0923
 3180WAT     H1 9751   1.232   0.065   0.935 -0.3902 -1.3004  0.9435
 3180WAT     H2 9752   1.081   0.066   0.917 -0.1838  1.3757 -1.4484
 3181WAT      O 9753   4.385   0.833   2.346 -0.1912 -0.5487 -0.5732
 3181WAT     H1 9754   4.441   0.770   2.300 -0.5413  0.3063 -2.2264
 3181WAT     H2 9755   4.298   0.792   2.345  0.0838 -1.2114  0.7040
 3182WAT      O 9756   1.074   4.335   1.404  0.1156 -0.2803  0.2865
 3182WAT     H1 9757   1.019   4.303   1.476  2.2185 -0.4628  1.9161
 3182WAT     H2 9758   1.062   4.270   1.334  0.5475 -1.9795  1.7153
 3183WAT      O 9759   0.928   4.356   3.559  0.6498  0.3914 -0.0593
 3183WAT     H1 9760   0.912   4.431   3.615  1.5372  0.5706 -0.0476
 3183WAT     H2 9761   0.938   4.282   3.619  1.6098  0.5847  0.0286
 3184WAT      O 9762   3.680   0.666   2.384  0.2589  0.1282 -0.3075
 3184WAT     H1 9763   3.646   0.595   2.439  0.4435  1.4086  1.5716
 3184WAT     H2 9764   3.716   0.622   2.307  1.4494 -1.9575  1.3197
 3185WAT      O 9765   3.125   3.523   1.054 -0.2835  0.1303  0.2351
 3185WAT     H1 9766   3.201   3.478   1.090 -0.7023 -1.3819 -0.6815
 3185WAT     H2 9767   3.160   3.606   1.020  0.6728  0.1117  1.1424
 3186WAT      O 9768   1.942   0.229   4.411  0.6524  0.2072  0.1590
 3186WAT     H1 9769   1.951   0.243   4.505 -1.0306  3.0789  0.0108
 3186WAT     H2 9770   1.858   0.268   4.388 -0.0494 -2.3401 -2.2652
 3187WAT      O 9771   0.974   2.234   2.054 -0.3725 -0.4360 -0.2694
 3187WAT     H1 9772   0.912   2.294   2.095 -1.9048 -1.5322 -0.8738
 3187WAT     H2 9773   0.957   2.149   2.095  0.8571 -0.7453 -0.3445
 3188WAT      O 9774   3.309   1.191   1.913  0.1429 -0.2280 -0.2593
 3188WAT     H1 9775   3.403   1.208   1.912  0.1970 -0.3063  1.3459
 3188WAT     H2 9776   3.298   1.117   1.972 -0.9444 -0.0600 -0.2209
 3189WAT      O 9777   3.726   2.020   3.133 -0.1475 -0.1680  0.3593
 3189WAT     H1 9778   3.778   1.941   3.144  0.3382  0.2105  0.9201
 3189WAT     H2 9779   3.674   2.006   3.054 -0.2676 -1.1481  0.6064
 3190WAT      O 9780   2.933   1.876   3.955 -0.4702  0.1869  0.2753
 3190WAT     H1 9781   2.906   1.925   3.878 -0.6255 -0.8535 -0.3523
 3190WAT     H2 9782   2.878   1.910   4.025 -0.3440  1.1276 -0.0697
 3191WAT      O 9783   4.262   2.509   1.974  0.3045 -0.0683  0.3030
 3191WAT     H1 9784   4.169   2.485   1.973  0.1577  0.4823  0.1474
 3191WAT     H2 9785   4.288   2.506   1.882  0.4460 -0.2477  0.3499
 3192WAT      O 9786   0.944   2.235   3.121 -0.2523  0.1336  0.1486
 3192WAT     H1 9787   0.996   2.311   3.145 -0.6629  0.8494 -1.1159
 3192WAT     H2 9788   1.004   2.179   3.072 -0.5844  0.8931 -1.1861
 3193WAT      O 9789   1.959   2.663   4.012 -0.1383 -0.3382  0.5047
 3193WAT     H1 9790   2.043   2.619   4.011  0.0355 -0.0260  1.0023
 3193WAT     H2 9791   1.930   2.658   4.103 -0.2167  0.3689  0.5259
 3194WAT      O 9792   1.724   2.228   1.867  0.3970 -0.5983  0.0352
 3194WAT     H1 9793   1.662   2.301   1.875  0.7300 -0.4342  1.2962
 3194WAT     H2 9794   1.688   2.159   1.923  0.8139 -0.8815 -0.0429
 3195WAT      O 9795   3.878   4.695   3.825 -0.5627  0.1760  0.1498
 3195WAT     H1 9796   3.796   4.683   3.777  0.2125 -1.0051 -0.9541
 3195WAT     H2 9797   3.944   4.704   3.757  0.0769  2.6553  1.0100
 3196WAT      O 9798   0.829   4.548   4.566 -0.1978 -0.2723  0.1880
 3196WAT     H1 9799   0.850   4.634   4.530 -0.5119 -0.9550 -1.7869
 3196WAT     H2 9800   0.913   4.501   4.566 -0.4135 -0.6917 -0.9499
 3197WAT      O 9801   2.906   0.988   1.751 -0.0881  0.2265 -0.0914
 3197WAT     H1 9802   2.909   0.899   1.785  0.6498  0.0540 -0.5878
 3197WAT     H2 9803   2.945   1.041   1.820  0.1788  0.0584 -0.1118
 3198WAT      O 9804   2.809   1.412   1.827  0.2171 -0.2049 -0.3713
 3198WAT     H1 9805   2.836   1.350   1.759  1.0823 -1.5172  1.1106
 3198WAT     H2 9806   2.862   1.390   1.903 -0.9762  0.9802  0.8724
 3199WAT      O 9807   2.837   3.864   2.497 -0.2218  0.5406  0.4465
 3199WAT     H1 9808   2.905   3.923   2.530  0.2477  0.9433 -1.1323
 3199WAT     H2 9809   2.862   3.848   2.406 -0.9933 -1.1623  0.4906
 3200WAT      O 9810   0.502   4.726   3.183  0.6547 -0.1988  0.2685
 3200WAT     H1 9811   0.456   4.773   3.253 -0.5832 -0.8048 -0.1068
 3200WAT     H2 9812   0.486   4.634   3.202 -0.3107 -0.3537 -1.1898
 3201WAT      O 9813   0.253   1.495   3.608 -0.1508 -0.2117  0.6842
 3201WAT     H1 9814   0.248   1.574   3.662  0.2787 -0.3692  0.9587
 3201WAT     H2 9815   0.290   1.428   3.666 -0.9750 -0.7514  0.6038
 3202WAT      O 9816   0.541   3.548   1.894 -0.2853 -0.4927  0.0492
 3202WAT     H1 9817   0.469   3.584   1.842 -2.3142 -3.5410  0.4909
 3202WAT     H2 9818   0.511   3.557   1.985 -0.1531 -1.8345  0.2338
 3203WAT      O 9819   4.345   2.101   1.044  0.3647 -0.3148 -0.2489
 3203WAT     H1 9820   4.344   2.083   0.950 -0.2123  0.3104 -0.3725
 3203WAT     H2 9821   4.260   2.142   1.061  0.2298 -0.9669  0.6603
 3204WAT      O 9822   0.042   3.294   3.695 -0.3003 -0.2700 -0.1820
 3204WAT     H1 9823   0.118   3.240   3.718 -0.8563 -1.7368 -1.6271
 3204WAT     H2 9824  -0.019   3.280   3.767  0.9353  1.3820  1.3000
 3205WAT      O 9825   3.350   3.510   4.522 -0.1160 -0.2616 -0.0766
 3205WAT     H1 9826   3.291   3.529   4.595 -1.2333 -0.6356 -0.8531
 3205WAT     H2 9827   3.412   3.583   4.521 -0.0273 -0.2951  1.2837
 3206WAT      O 9828   4.078   2.068   0.137  0.3120  0.5085  0.1488
 3206WAT     H1 9829   4.101   2.138   0.076 -1.5536 -1.6988 -3.4902
 3206WAT     H2 9830   3.984   2.082   0.154  0.1662 -0.4667  0.2009
 3207WAT      O 9831   3.984   3.037   3.512 -0.0299 -0.3422 -0.0852
 3207WAT     H1 9832   4.003   3.129   3.496 -0.8698 -0.2175 -0.3553
 3207WAT     H2 9833   4.013   3.022   3.602 -2.9453  1.0413  1.1820
 3208WAT      O 9834   3.328   3.623   1.343  0.6745 -0.2156  0.4653
 3208WAT     H1 9835   3.317   3.707   1.299  2.7971  0.9321  1.9642
 3208WAT     H2 9836   3.378   3.570   1.280  0.7241  0.2055  0.1461
 3209WAT      O 9837   4.034   3.939   0.739  0.2457 -0.6962  0.5050
 3209WAT     H1 9838   3.957   3.886   0.762 -0.5706 -0.4041 -1.3846
 3209WAT     H2 9839   4.002   4.029   0.737  1.2987 -0.2258  2.2771
 3210WAT      O 9840   0.502   2.273   5.256  0.1684 -0.2547 -0.0358
 3210WAT     H1 9841   0.581   2.222   5.273 -0.1993 -0.3435  1.5591
 3210WAT     H2 9842   0.438   2.241   5.320 -1.1065 -0.0447 -1.1552
 3211WAT      O 9843   0.572   4.157   3.957  0.1657 -0.1369  0.1721
 3211WAT     H1 9844   0.537   4.239   3.992 -1.8071 -1.4671  1.5598
 3211WAT     H2 9845   0.644   4.135   4.015 -0.5188 -0.3142  0.9725
 3212WAT      O 9846   1.760   2.356   3.565  0.3539  0.5728  0.0861
 3212WAT     H1 9847   1.730   2.299   3.636 -2.5271 -1.0302 -2.1714
 3212WAT     H2 9848   1.806   2.297   3.505  0.1455  1.2530 -0.7684
 3213WAT      O 9849   1.933   2.243   1.699  0.2119  0.2249  0.4180
 3213WAT     H1 9850   1.858   2.229   1.757  0.4210  0.4386  0.7484
 3213WAT     H2 9851   1.975   2.322   1.734  0.2217  0.4812 -0.1568
 3214WAT      O 9852   4.071   4.706   3.643 -0.5480  0.3288 -0.4801
 3214WAT     H1 9853   4.136   4.764   3.683  0.3742  0.6670 -2.3612
 3214WAT     H2 9854   4.109   4.619   3.648 -0.5377  0.3385 -0.4033
 3215WAT      O 9855   2.053   2.241   3.595  0.2467 -0.0269 -0.8653
 3215WAT     H1 9856   2.007   2.248   3.511  0.4893  1.2808 -0.9066
 3215WAT     H2 9857   1.994   2.283   3.658  0.5074 -0.1115 -0.5660
 3216WAT      O 9858   2.840   2.497   0.618 -0.1201 -0.3075 -0.0405
 3216WAT     H1 9859   2.828   2.459   0.705  1.6499 -0.8637  0.0050
 3216WAT     H2 9860   2.924   2.543   0.624 -0.6140  0.7603 -1.0825
 3217WAT      O 9861   0.724   1.259   2.864 -0.2216 -0.1542  0.2429
 3217WAT     H1 9862   0.738   1.353   2.876  1.5727 -0.3932  0.2361
 3217WAT     H2 9863   0.810   1.225   2.840 -1.0618 -1.6471 -0.8137
 3218WAT      O 9864   0.173   0.812   1.773  0.3157  0.6948 -0.2847
 3218WAT     H1 9865   0.172   0.730   1.821 -0.6489 -0.1951 -1.7635
 3218WAT     H2 9866   0.250   0.858   1.805  0.5145 -0.5025  1.0167
 3219WAT      O 9867   1.545   1.150   4.570  0.3742 -0.0757  0.1371
 3219WAT     H1 9868   1.543   1.236   4.611 -0.2375 -0.6096  1.2602
 3219WAT     H2 9869   1.602   1.097   4.626 -0.7268 -0.9000  0.5121
 3220WAT      O 9870   3.544   2.518   1.510 -0.3589 -0.1444 -0.1878
 3220WAT     H1 9871   3.615   2.539   1.571  0.7788  0.5704 -1.6820
 3220WAT     H2 9872   3.551   2.424   1.496 -0.6156 -0.3101  0.7470
 3221WAT      O 9873   2.482   0.023   5.078  0.0741 -0.6819  0.0991
 3221WAT     H1 9874   2.443   0.067   5.002  1.8493 -0.8655 -0.9743
 3221WAT     H2 9875   2.425  -0.052   5.094 -1.2028  0.2316 -0.0559
 3222WAT      O 9876   3.269   2.785   3.353 -0.1641  0.6161  0.2591
 3222WAT     H1 9877   3.342   2.763   3.294 -1.3755  3.0629 -2.4096
 3222WAT     H2 9878   3.287   2.875   3.380 -2.5711  1.6165 -1.2327
 3223WAT      O 9879   3.162   1.294   2.911  0.7173 -0.6796  0.4065
 3223WAT     H1 9880   3.242   1.264   2.955  0.3657  1.3209  2.5842
 3223WAT     H2 9881   3.093   1.239   2.947  0.4329  0.9404  2.5010
 3224WAT      O 9882   0.473   1.693   1.956  0.3913  0.2103  0.1205
 3224WAT     H1 9883   0.516   1.775   1.981 -1.4991  0.4620  2.9674
 3224WAT     H2 9884   0.381   1.717   1.944 -0.1195 -1.4091  0.6099
 3225WAT      O 9885   4.447   3.429   2.996 -0.0366 -0.1112  0.6739
 3225WAT     H1 9886   4.464   3.393   3.083 -0.1487 -1.1341  0.2869
 3225WAT     H2 9887   4.360   3.467   3.002  0.3090  0.6166  1.2485
 3226WAT      O 9888   1.036   0.960   1.860 -0.7732  0.6681  0.4310
 3226WAT     H1 9889   0.979   1.017   1.912  1.0265  0.6120  2.6404
 3226WAT     H2 9890   1.120   1.006   1.858  0.2836 -1.1229  0.9358
 3227WAT      O 9891   3.606   2.360   0.492 -0.0385 -0.3672  0.0031
 3227WAT     H1 9892   3.654   2.417   0.431 -1.0823  0.4235 -0.1192
 3227WAT     H2 9893   3.533   2.415   0.523 -1.1286 -1.6641 -0.1688
 3228WAT      O 9894   3.170   4.041   2.217 -0.2963  0.5009 -0.5913
 3228WAT     H1 9895   3.171   3.952   2.251  3.8243  0.4657 -0.3074
 3228WAT     H2 9896   3.125   4.092   2.284 -0.5210 -0.9769  0.4383
 3229WAT      O 9897   0.570   0.822   0.510  0.6112 -0.3561 -0.0415
 3229WAT     H1 9898   0.648   0.836   0.456  0.6522 -1.9637 -0.4384
 3229WAT     H2 9899   0.512   0.895   0.486  0.4951 -1.1596 -2.5333
 3230WAT      O 9900   2.644   1.102   4.896  0.1850  0.2951 -0.3827
 3230WAT     H1 9901   2.731   1.066   4.879  1.2153  2.4064  0.0769
 3230WAT     H2 9902   2.647   1.130   4.988 -1.3382 -0.4803 -0.0637
 3231WAT      O 9903   3.157   4.933   0.672  0.0189  0.3190 -0.3325
 3231WAT     H1 9904   3.246   4.916   0.702 -0.1860  1.0513  0.8006
 3231WAT     H2 9905   3.149   5.029   0.674 -1.0462  0.2415  0.4507
 3232WAT      O 9906   2.328   1.491   2.723  0.4666  0.3413  0.3349
 3232WAT     H1 9907   2.339   1.560   2.658  0.7172 -0.6316 -0.6950
 3232WAT     H2 9908   2.365   1.527   2.803  2.5620  0.6573 -0.7046
 3233WAT      O 9909   2.564   2.474   1.838  0.7685 -0.5639  0.0484
 3233WAT     H1 9910   2.581   2.483   1.932  0.4629 -1.0368  0.1539
 3233WAT     H2 9911   2.579   2.382   1.819  0.9484 -0.4462 -0.3948
 3234WAT      O 9912   2.521   3.206   4.145  0.1972 -0.0663 -0.1133
 3234WAT     H1 9913   2.473   3.123   4.147 -0.5696  0.3746 -0.3012
 3234WAT     H2 9914   2.476   3.259   4.080  1.8215 -0.1745 -1.3819
 3235WAT      O 9915   1.165   1.404   4.188  0.3144 -0.2652  0.1013
 3235WAT     H1 9916   1.145   1.311   4.185  0.8538 -0.3983  0.5623
 3235WAT     H2 9917   1.249   1.413   4.143 -0.0535  0.0962 -0.5373
 3236WAT      O 9918   4.366   2.927   1.911 -0.1256 -0.3345 -0.4534
 3236WAT     H1 9919   4.436   2.876   1.869  0.9799 -0.4637  1.4420
 3236WAT     H2 9920   4.318   2.966   1.837  2.1905  0.0941 -1.8514
 3237WAT      O 9921   0.071   0.999   3.589  0.4371  0.2555 -0.0469
 3237WAT     H1 9922   0.074   1.081   3.539 -1.2065  1.2231  1.3379
 3237WAT     H2 9923  -0.022   0.982   3.601  0.7724 -0.8198  1.2772
 3238WAT      O 9924   3.945   1.728   4.337  0.1016  0.1059 -0.7818
 3238WAT     H1 9925   3.984   1.708   4.252  1.0474 -0.5727 -0.2061
 3238WAT     H2 9926   4.018   1.762   4.390 -0.8027  2.0746 -0.7170
 3239WAT      O 9927   2.621   2.600   1.018 -0.1335 -0.3040 -0.2758
 3239WAT     H1 9928   2.611   2.565   1.107  0.5581 -2.0831 -0.8550
 3239WAT     H2 9929   2.547   2.659   1.007 -2.3312 -2.7931  0.2528
 3240WAT      O 9930   1.658   1.925   0.187  0.0813  0.3742  0.3407
 3240WAT     H1 9931   1.715   2.002   0.179  0.6350 -0.1289 -0.8604
 3240WAT     H2 9932   1.639   1.900   0.096  0.2318 -1.1287  0.6994
 3241WAT      O 9933   1.612   2.757   1.771 -0.2880 -0.1295  0.2557
 3241WAT     H1 9934   1.645   2.696   1.837 -0.0469  0.2015  0.4438
 3241WAT     H2 9935   1.638   2.718   1.687  0.6477  0.1489  0.3997
 3242WAT      O 9936   1.141   0.780   3.545 -0.4906  0.3621 -0.0062
 3242WAT     H1 9937   1.236   0.779   3.553 -0.3203 -0.3522 -1.6196
 3242WAT     H2 9938   1.113   0.698   3.586 -0.2038 -0.3566 -1.1853
 3243WAT      O 9939   3.351   1.750   3.435  0.0922 -0.2000  0.4616
 3243WAT     H1 9940   3.304   1.774   3.355  0.6633 -0.9984 -0.1316
 3243WAT     H2 9941   3.422   1.694   3.405  0.3432 -0.4790  1.5349
 3244WAT      O 9942   0.156   3.437   0.776 -0.4970 -0.7988 -0.7121
 3244WAT     H1 9943   0.179   3.376   0.845  0.4065 -1.2541 -1.3941
 3244WAT     H2 9944   0.121   3.383   0.706  0.4286 -0.5883 -1.3722
 3245WAT      O 9945   4.375   2.083   0.787  0.3149 -0.0167 -0.3080
 3245WAT     H1 9946   4.303   2.079   0.723  1.2597  0.9471 -1.4862
 3245WAT     H2 9947   4.446   2.034   0.745 -0.1844 -2.6301  1.6636
 3246WAT      O 9948   2.779   2.425   0.883 -0.0218  0.4743  0.1927
 3246WAT     H1 9949   2.771   2.510   0.927  0.1146  1.9543 -2.4376
 3246WAT     H2 9950   2.702   2.376   0.911  0.8458  0.6580  3.2360
 3247WAT      O 9951   0.918   4.748   5.129 -0.8148 -0.1094 -0.6998
 3247WAT     H1 9952   0.860   4.738   5.204 -0.0442  3.7242  0.6340
 3247WAT     H2 9953   0.874   4.702   5.058 -4.7510  1.2231  0.6177
 3248WAT      O 9954   0.015   1.673   1.171 -0.2213 -0.1022  0.0128
 3248WAT     H1 9955   0.095   1.631   1.139  1.7406  2.6869  0.8809
 3248WAT     H2 9956  -0.021   1.717   1.095 -0.6808 -0.9404 -0.2674
 3249WAT      O 9957   2.514   3.049   1.816  0.0682  0.5974  0.2192
 3249WAT     H1 9958   2.526   3.119   1.751  0.8851 -0.0582 -0.3564
 3249WAT     H2 9959   2.424   3.019   1.801 -0.3021  1.5183  0.4834
 3250WAT      O 9960   2.030   4.553   3.699  0.0768  0.0301 -0.8009
 3250WAT     H1 9961   1.970   4.496   3.747  0.3479  0.2933 -0.1424
 3250WAT     H2 9962   2.029   4.519   3.610 -0.5793 -0.3483 -0.6549
 3251WAT      O 9963   3.328   0.899   1.656 -0.6192 -0.5832 -0.3415
 3251WAT     H1 9964   3.406   0.940   1.619 -0.6944 -0.5042 -0.4165
 3251WAT     H2 9965   3.270   0.973   1.676 -0.4617 -0.6036  0.2114
 3252WAT      O 9966   2.635   3.034   5.273  0.3819 -0.0801 -0.6383
 3252WAT     H1 9967   2.671   2.951   5.240 -0.6522 -0.9179  0.2605
 3252WAT     H2 9968   2.709   3.076   5.317  0.4863 -1.4323  0.5465
 3253WAT      O 9969   1.871   2.117   2.983 -0.3159  0.2334 -0.4896
 3253WAT     H1 9970   1.823   2.160   3.054 -0.2915 -0.1588 -0.2315
 3253WAT     H2 9971   1.942   2.070   3.027  0.0628  0.4772 -0.8324
 3254WAT      O 9972   4.124   4.117   1.869  0.4210  0.5593  0.0381
 3254WAT     H1 9973   4.035   4.082   1.869  0.7672 -0.3492  0.1720
 3254WAT     H2 9974   4.123   4.187   1.934 -0.2385  0.6876 -0.1031
 3255WAT      O 9975   2.724   1.590   4.410  0.3781  0.2450  0.0245
 3255WAT     H1 9976   2.647   1.545   4.375  0.0131  0.5783  0.3838
 3255WAT     H2 9977   2.736   1.553   4.498  0.1160  0.7816  0.2970
 3256WAT      O 9978   3.336   4.830   1.914  0.2473  0.4747  0.7640
 3256WAT     H1 9979   3.248   4.847   1.947 -0.6931 -1.3058 -0.6281
 3256WAT     H2 9980   3.363   4.912   1.873 -0.9719  0.8979  0.7593
 3257WAT      O 9981   1.661   0.058   1.716  0.1709 -0.0943  0.2975
 3257WAT     H1 9982   1.574   0.046   1.755  0.1816  0.8012  0.6195
 3257WAT     H2 9983   1.645   0.110   1.637  0.2256 -1.3695 -0.5885
 3258WAT      O 9984   1.695   2.727   3.035 -0.2564  0.1172  0.0103
 3258WAT     H1 9985   1.712   2.744   2.942  1.3641 -1.7525 -0.1044
 3258WAT     H2 9986   1.774   2.759   3.079 -0.4251 -0.2527  0.5901
 3259WAT      O 9987   3.216   1.126   2.474 -0.3351 -0.0185 -0.6144
 3259WAT     H1 9988   3.303   1.148   2.508 -0.5373  0.6049 -0.4918
 3259WAT     H2 9989   3.157   1.142   2.548 -0.5768 -0.2894 -0.7463
 3260WAT      O 9990   1.591   4.506   3.377 -0.0353 -0.3594  0.4126
 3260WAT     H1 9991   1.513   4.457   3.353  0.4876 -0.2644 -1.7725
 3260WAT     H2 9992   1.558   4.587   3.415 -1.0447 -0.1598 -0.8046
 3261WAT      O 9993   0.056   3.090   1.056  0.2550  0.2480  0.1873
 3261WAT     H1 9994   0.138   3.138   1.045  0.8896 -0.5680  1.1523
 3261WAT     H2 9995  -0.006   3.135   0.999  1.6928  0.0587 -1.6327
 3262WAT      O 9996   3.344   1.646   4.132  0.1169  0.2189 -0.1374
 3262WAT     H1 9997   3.353   1.737   4.162  0.6089  0.3065 -0.5291
 3262WAT     H2 9998   3.261   1.646   4.083 -1.1042 -0.1198  1.8463
 3263WAT      O 9999   1.626   4.505   4.323  0.3183  0.5189  0.6912
 3263WAT     H110000   1.705   4.508   4.269  1.9777 -0.7302  2.8921
 3263WAT     H210001   1.554   4.508   4.260  2.0748  1.7722 -1.3997
 3264WAT      O10002   4.255   1.946   2.403 -0.1073  0.0016  0.4267
 3264WAT     H110003   4.293   1.890   2.336  1.7694  1.6904 -0.0368
 3264WAT     H210004   4.212   2.016   2.355 -1.2898 -0.3116  0.9983
 3265WAT      O10005   4.295   1.149   3.733  0.0720 -0.0668  0.4741
 3265WAT     H110006   4.374   1.162   3.786  0.3517 -1.6931  0.5305
 3265WAT     H210007   4.223   1.171   3.792  0.4340 -0.4861  1.0915
 3266WAT      O10008   2.384   1.831   3.539  0.0397 -0.3855  0.2772
 3266WAT     H110009   2.335   1.909   3.565  0.9916  0.6855 -1.0497
 3266WAT     H210010   2.461   1.830   3.596  1.3092  1.0765 -1.3336
 3267WAT      O10011   0.825   4.750   4.847  0.1643 -0.1495 -0.3351
 3267WAT     H110012   0.823   4.669   4.796  2.3050  0.4578 -1.5141
 3267WAT     H210013   0.908   4.791   4.824 -1.1521  2.7860 -0.3596
 3268WAT      O10014   1.007   2.386   4.774 -0.0697  0.0752  0.4744
 3268WAT     H110015   1.010   2.374   4.869  1.1764 -0.4827  0.3771
 3268WAT     H210016   0.915   2.408   4.756 -0.0119  1.7160  1.9701
 3269WAT      O10017   3.440   4.566   1.146 -0.3508 -0.3296  0.1013
 3269WAT     H110018   3.483   4.518   1.217  1.4694  1.2405  0.1312
 3269WAT     H210019   3.443   4.657   1.174 -3.3932 -0.0641 -0.1316
 3270WAT      O10020   2.613   3.489   0.666  0.6368 -0.4732  0.0266
 3270WAT     H110021   2.545   3.450   0.610 -0.0444 -0.9498  1.1520
 3270WAT     H210022   2.566   3.554   0.718  1.6239  1.4007 -1.2995
 3271WAT      O10023   3.977   3.767   1.267  0.0730  0.3407 -0.0026
 3271WAT     H110024   4.023   3.726   1.193  1.2338  0.7079  0.4975
 3271WAT     H210025   4.047   3.808   1.319 -0.4724 -1.3938  2.2597
 3272WAT      O10026   3.780   4.214   0.176  0.1063  1.2597 -0.0231
 3272WAT     H110027   3.841   4.152   0.215  2.3480  2.6911 -1.0178
 3272WAT     H210028   3.699   4.203   0.226  0.4401 -2.2212 -0.0195
 3273WAT      O10029   4.315   2.403   1.732  0.2792 -0.4061 -0.0797
 3273WAT     H110030   4.284   2.318   1.701  3.2831 -1.7014  0.0231
 3273WAT     H210031   4.388   2.425   1.674 -0.8887  2.5866 -0.5980
 3274WAT      O10032   4.350   2.336   2.299  0.2223 -0.6267 -0.3682
 3274WAT     H110033   4.330   2.422   2.335 -3.1753 -3.4448  6.2530
 3274WAT     H210034   4.445   2.334   2.291  0.7745  2.7386  2.8252
 3275WAT      O10035   2.532   4.347   4.486  0.4901 -0.5228  0.2976
 3275WAT     H110036   2.540   4.423   4.428  2.9686 -0.7677  0.1767
 3275WAT     H210037   2.535   4.384   4.574  2.5050 -0.4233  0.2545
 3276WAT      O10038   4.405   2.674   0.474  0.3454  0.4339 -0.8485
 3276WAT     H110039   4.389   2.651   0.566 -0.3719  1.3008 -0.7384
 3276WAT     H210040   4.461   2.603   0.441 -0.5965 -0.6872 -0.1480
 3277WAT      O10041   1.072   4.494   0.546  0.3151  0.7161  0.5407
 3277WAT     H110042   1.082   4.409   0.504 -0.2636  0.1209  1.5671
 3277WAT     H210043   1.137   4.550   0.504  1.2894 -0.4571  0.4481
 3278WAT      O10044   3.411   2.636   2.589  0.3499  0.0630  0.2420
 3278WAT     H110045   3.504   2.651   2.571  0.6041 -1.0307  0.5819
 3278WAT     H210046   3.367   2.711   2.549  1.1548 -0.6209 -2.0864
 3279WAT      O10047   0.139   1.786   4.784 -1.0480 -0.0440  0.0641
 3279WAT     H110048   0.186   1.703   4.790  0.1524  0.6842  1.7215
 3279WAT     H210049   0.149   1.813   4.693  0.1247 -0.8448 -0.0603
 3280WAT      O10050   4.451   3.716   3.334  0.8291 -0.2540  0.8785
 3280WAT     H110051   4.367   3.671   3.343  0.2838  0.6979  0.7163
 3280WAT     H210052   4.462   3.763   3.416  1.7542 -1.2611  1.3430
 3281WAT      O10053   0.868   2.521   0.791 -0.2579 -0.4253 -0.2303
 3281WAT     H110054   0.890   2.464   0.865  1.4524 -0.0521 -0.3994
 3281WAT     H210055   0.772   2.521   0.788 -0.3693 -0.7962  1.7141
 3282WAT      O10056   1.954   2.630   0.083  0.1957 -0.1696  0.0086
 3282WAT     H110057   1.865   2.665   0.084 -0.3860 -1.5812  0.1523
 3282WAT     H210058   2.000   2.680   0.150 -0.7729 -0.0769  0.6310
 3283WAT      O10059   3.054   4.961   4.343 -0.0318 -0.2977 -0.1301
 3283WAT     H110060   3.009   4.978   4.261  1.0825 -2.4290 -1.2558
 3283WAT     H210061   2.984   4.940   4.405 -0.8475  0.8685 -0.6168
 3284WAT      O10062   0.620   1.162   4.682  0.4158 -0.2683 -0.3638
 3284WAT     H110063   0.631   1.156   4.587 -1.0999 -0.0972 -0.5628
 3284WAT     H210064   0.657   1.247   4.706  0.5925 -0.2132 -0.8287
 3285WAT      O10065   3.413   1.906   4.233  0.1761 -0.1054  0.1758
 3285WAT     H110066   3.490   1.962   4.233 -1.2270  1.9464  0.9751
 3285WAT     H210067   3.379   1.912   4.323 -2.3539  1.2065 -0.7633
 3286WAT      O10068   1.395   4.204   3.362 -0.4586  0.5610 -0.4768
 3286WAT     H110069   1.357   4.172   3.280 -0.9946 -0.5357  0.1851
 3286WAT     H210070   1.320   4.231   3.415 -0.1341  0.9520 -0.2067
 3287WAT      O10071   2.323   1.524   4.130  0.1427 -0.1171  0.3212
 3287WAT     H110072   2.248   1.584   4.134 -0.4429 -0.8127  0.0192
 3287WAT     H210073   2.379   1.561   4.062 -0.0193  0.3086  0.4154
 3288WAT      O10074   1.740   1.894   4.539  0.0823 -0.8072 -0.7935
 3288WAT     H110075   1.757   1.977   4.584  0.1428 -1.3552  0.2226
 3288WAT     H210076   1.713   1.920   4.451  0.7483  0.2714 -0.7015
 3289WAT      O10077   2.571   0.997   4.081  0.6444 -0.3991 -0.1416
 3289WAT     H110078   2.657   1.030   4.108  0.1626  1.4603 -0.6603
 3289WAT     H210079   2.509   1.047   4.134 -0.1615  0.0673 -1.4725
 3290WAT      O10080   1.407   4.164   4.606 -0.0677  0.4787 -0.1945
 3290WAT     H110081   1.496   4.130   4.591  0.9487  2.1691  1.4936
 3290WAT     H210082   1.410   4.198   4.696 -2.5056  0.4379 -0.0455
 3291WAT      O10083   0.488   0.637   2.944 -0.0142  0.9917 -0.5585
 3291WAT     H110084   0.451   0.676   3.024  1.1251  2.1624 -0.5678
 3291WAT     H210085   0.549   0.703   2.912  1.1321 -0.3531 -1.2331
 3292WAT      O10086   2.228   3.373   1.727 -0.0458  0.6225 -0.3086
 3292WAT     H110087   2.197   3.352   1.638 -0.2058  1.6726 -0.5189
 3292WAT     H210088   2.150   3.365   1.782  0.4201 -1.8767  0.1094
 3293WAT      O10089   1.965   4.598   1.834 -0.3353 -0.5805  0.3276
 3293WAT     H110090   1.999   4.661   1.771 -0.9979 -0.3225  0.2264
 3293WAT     H210091   1.906   4.543   1.783  0.9303 -1.8899  0.1970
 3294WAT      O10092   2.268   0.813   1.165  0.6122 -0.5917 -0.2528
 3294WAT     H110093   2.256   0.880   1.097  3.0836  0.1885  0.0038
 3294WAT     H210094   2.183   0.811   1.211  0.1206  1.6410 -0.9109
 3295WAT      O10095   2.586   1.449   4.217  0.1460 -0.1851 -0.8461
 3295WAT     H110096   2.563   1.356   4.217  0.8702 -0.3744 -1.6860
 3295WAT     H210097   2.501   1.494   4.217 -0.2381 -0.7970  1.2400
 3296WAT      O10098   2.932   3.479   2.864  0.8411  0.3289  0.4363
 3296WAT     H110099   2.867   3.501   2.930  0.2819 -1.0717  0.3923
 3296WAT     H210100   2.903   3.523   2.784 -0.0818 -0.2996  0.4156
 3297WAT      O10101   4.251   0.057   5.172  0.0438  0.2373 -0.1497
 3297WAT     H110102   4.205   0.045   5.089 -1.2802 -0.3120  0.6262
 3297WAT     H210103   4.322  -0.007   5.170  0.7618  1.0318 -1.3336
 3298WAT      O10104   3.249   0.466   0.521 -0.7079  0.2394 -0.2277
 3298WAT     H110105   3.299   0.537   0.563 -1.4417  1.0313 -0.6574
 3298WAT     H210106   3.217   0.414   0.594 -0.5295  0.6100  0.1235
 3299WAT      O10107   2.658   2.200   1.819  0.0368  0.1544 -0.5420
 3299WAT     H110108   2.669   2.105   1.827 -0.3874 -0.0175 -1.7881
 3299WAT     H210109   2.735   2.237   1.863  0.4799 -0.7733 -0.5135
 3300WAT      O10110   0.972   4.711   1.676  0.4868  0.1630  0.8819
 3300WAT     H110111   1.007   4.681   1.592  0.6315 -1.6043  1.5253
 3300WAT     H210112   1.040   4.689   1.740 -0.0082  0.6327  1.5848
 3301WAT      O10113   1.827   1.725   3.139  0.1384  0.0363 -0.4968
 3301WAT     H110114   1.853   1.814   3.164  0.0848  0.3069 -1.3746
 3301WAT     H210115   1.895   1.696   3.079  1.5261 -1.5068  1.6532
 3302WAT      O10116   3.937   4.907   3.226  0.5706  0.3023  0.0716
 3302WAT     H110117   3.943   5.001   3.207  1.3406 -0.3925 -3.8321
 3302WAT     H210118   4.027   4.880   3.244  0.4905  0.1172  0.2014
 3303WAT      O10119   0.589   3.338   5.160  0.2203  0.4169 -0.4101
 3303WAT     H110120   0.566   3.430   5.142  1.3157  0.8877  0.5071
 3303WAT     H210121   0.565   3.292   5.079 -0.2785  1.5136 -0.9193
 3304WAT      O10122   0.285   3.057   1.404 -0.3409  0.1663  0.6262
 3304WAT     H110123   0.344   3.131   1.420 -0.2977 -0.2414  2.6892
 3304WAT     H210124   0.334   2.981   1.435 -0.8909 -0.5693 -0.2630
 3305WAT      O10125   4.412   4.202   1.262 -0.3924  0.2887 -0.0312
 3305WAT     H110126   4.317   4.190   1.262 -0.6073  1.6604  0.8462
 3305WAT     H210127   4.440   4.174   1.175 -1.4685 -1.0250  0.0235
 3306WAT      O10128   0.015   2.822   4.823 -0.0729  0.2657 -0.5509
 3306WAT     H110129  -0.052   2.756   4.805 -0.9838  0.4977  1.6596
 3306WAT     H210130   0.083   2.773   4.869  1.2395  0.0846 -2.5583
 3307WAT      O10131   2.337   1.525   3.666 -0.3139  0.0720 -0.5808
 3307WAT     H110132   2.362   1.445   3.620  0.3051 -1.6795  2.5480
 3307WAT     H210133   2.288   1.575   3.601  2.4311 -1.0585 -3.8549
 3308WAT      O10134   4.387   0.475   4.899  0.3561 -0.0202  0.3221
 3308WAT     H110135   4.460   0.505   4.845  0.1092 -1.4210 -0.8465
 3308WAT     H210136   4.415   0.493   4.989  1.4192  0.9698 -0.1809
 3309WAT      O10137   3.368   2.310   5.089  0.7223  0.2278 -0.5168
 3309WAT     H110138   3.462   2.328   5.079  0.3733  2.3346 -0.3711
 3309WAT     H210139   3.365   2.217   5.114  2.6065 -0.5991 -2.9195
 3310WAT      O10140   0.367   3.428   4.853  0.6805 -0.5416 -0.3335
 3310WAT     H110141   0.379   3.523   4.851  0.0946 -0.4745 -0.6743
 3310WAT     H210142   0.456   3.393   4.851  0.9455  0.0070  0.7664
 3311WAT      O10143   0.719   1.831   0.013  0.4764  1.1613  0.5467
 3311WAT     H110144   0.667   1.840  -0.067 -0.2016 -1.4236  0.6078
 3311WAT     H210145   0.666   1.773   0.069  2.7656 -0.4417  1.1863
 3312WAT      O10146   2.304   3.468   2.441  0.0477 -0.3589  0.5088
 3312WAT     H110147   2.235   3.472   2.508 -0.9574  0.0040 -0.4997
 3312WAT     H210148   2.363   3.540   2.463 -1.2860  0.9731 -0.0126
 3313WAT      O10149   2.927   2.935   3.282 -0.8904 -0.1535 -0.0536
 3313WAT     H110150   2.856   2.908   3.223 -1.5404  1.8449 -0.2491
 3313WAT     H210151   2.992   2.975   3.223 -0.2523 -0.6427  0.3012
 3314WAT      O10152   2.402   1.639   1.956  0.3862  0.3805 -0.0005
 3314WAT     H110153   2.462   1.569   1.932  0.8626  1.0943 -0.9968
 3314WAT     H210154   2.358   1.662   1.874 -0.7593  0.3381  0.5791
 3315WAT      O10155   2.997   0.301   2.575  0.0499 -0.4347  0.5492
 3315WAT     H110156   3.032   0.227   2.526 -0.7838  2.3067 -5.0670
 3315WAT     H210157   2.902   0.285   2.579 -0.0335 -0.0809  0.0669
 3316WAT      O10158   3.049   4.279   3.791  0.4518  0.3619  0.1831
 3316WAT     H110159   2.975   4.297   3.733  0.4845  0.4897  0.1812
 3316WAT     H210160   3.107   4.355   3.781  1.2050 -0.3214 -0.7918
 3317WAT      O10161   0.454   0.375   4.486  0.1182  0.1435  0.5589
 3317WAT     H110162   0.362   0.350   4.486 -0.2035  1.2300 -0.6401
 3317WAT     H210163   0.456   0.464   4.520  0.4953  0.7772 -1.0343
 3318WAT      O10164   1.986   4.643   4.518  0.1278 -0.1610  0.2611
 3318WAT     H110165   1.895   4.620   4.539 -0.7680  1.0670 -1.9265
 3318WAT     H210166   2.008   4.586   4.445  0.2785  1.1423 -0.7260
 3319WAT      O10167   4.237   3.064   0.460  0.8651  0.5569  0.4869
 3319WAT     H110168   4.252   3.142   0.513  2.4574  0.4755  0.1981
 3319WAT     H210169   4.230   2.993   0.524  1.6369  0.6288  0.6647
 3320WAT      O10170   4.136   4.792   0.273  0.2624  0.2568 -0.1092
 3320WAT     H110171   4.159   4.848   0.199 -0.7200  1.6657  0.6012
 3320WAT     H210172   4.216   4.790   0.326  0.2976  1.0496 -0.1177
 3321WAT      O10173   3.130   3.486   1.456 -0.1294  0.3181 -0.2198
 3321WAT     H110174   3.173   3.401   1.471  3.3099  2.0404  0.8352
 3321WAT     H210175   3.192   3.534   1.401 -0.8218  2.9230  1.1178
 3322WAT      O10176   4.167   4.517   0.768  0.9477  0.3852  0.5179
 3322WAT     H110177   4.090   4.572   0.783  0.2520 -0.4586  0.1447
 3322WAT     H210178   4.187   4.481   0.855 -0.0007 -0.5606  0.3528
 3323WAT      O10179   0.880   3.391   4.583  0.1919 -0.2011 -0.1433
 3323WAT     H110180   0.966   3.378   4.544  0.5711 -0.0407  0.6062
 3323WAT     H210181   0.823   3.330   4.537  0.6590 -0.1482 -0.8016
 3324WAT      O10182   3.591   0.631   3.208 -0.8818  0.1824 -0.2210
 3324WAT     H110183   3.679   0.667   3.191 -0.9659  0.6226  0.2435
 3324WAT     H210184   3.595   0.542   3.173 -0.1932  0.1383 -0.0539
 3325WAT      O10185   0.472   2.507   4.366  0.2843  0.5798 -0.4082
 3325WAT     H110186   0.557   2.467   4.384  0.7050  0.7053 -1.9826
 3325WAT     H210187   0.438   2.531   4.452  0.3050 -2.5170  0.5970
 3326WAT      O10188   0.429   1.008   1.933  0.0119  0.1983  0.0480
 3326WAT     H110189   0.436   1.104   1.927 -0.8855  0.2409 -0.4737
 3326WAT     H210190   0.388   0.993   2.018 -2.4988  0.4534 -1.0355
 3327WAT      O10191   1.589   3.770   2.186 -0.2016  0.4171  0.0261
 3327WAT     H110192   1.587   3.863   2.163 -1.2211  0.1925 -0.9168
 3327WAT     H210193   1.646   3.730   2.121 -0.7397  0.2094 -0.3235
 3328WAT      O10194   3.505   0.607   3.816  0.3137 -0.0506 -0.2560
 3328WAT     H110195   3.429   0.604   3.758  1.4281  0.3340 -1.8149
 3328WAT     H210196   3.492   0.535   3.877 -0.9065 -0.4925 -0.9990
 3329WAT      O10197   4.402   2.891   4.144 -0.7085 -0.3560  0.1667
 3329WAT     H110198   4.423   2.855   4.058  0.8437  0.7906  0.0278
 3329WAT     H210199   4.381   2.814   4.197 -0.2447 -1.2203 -0.8550
 3330WAT      O10200   1.851   3.959   2.673 -0.0443  0.3697 -0.5403
 3330WAT     H110201   1.796   3.907   2.732  0.3377  0.9148  0.3162
 3330WAT     H210202   1.934   3.910   2.669 -0.2239  0.0987 -0.9885
 3331WAT      O10203   1.485   3.939   1.859  0.0054  0.0307  0.0876
 3331WAT     H110204   1.546   3.920   1.930  0.6899  0.0049 -0.4993
 3331WAT     H210205   1.460   4.030   1.871  0.3184  0.0990  0.2103
 3332WAT      O10206   1.460   2.805   3.219 -0.2122 -0.4265 -0.4380
 3332WAT     H110207   1.512   2.788   3.141  1.3070  1.4607  0.0723
 3332WAT     H210208   1.408   2.882   3.198 -1.8656 -1.5120 -0.4752
 3333WAT      O10209   0.453   4.543   2.834 -0.3205  0.4239 -0.8578
 3333WAT     H110210   0.511   4.597   2.888 -0.8856  1.1160 -0.9364
 3333WAT     H210211   0.500   4.460   2.825  0.4089  0.7837 -0.4614
 3334WAT      O10212   2.361   2.047   0.074  0.2308  0.2086  0.6747
 3334WAT     H110213   2.323   2.121   0.026  1.8232  0.9088  0.4308
 3334WAT     H210214   2.316   2.048   0.159  0.7046  1.9142  0.9379
 3335WAT      O10215   1.875   4.892   4.735  0.7735  0.0402 -0.1012
 3335WAT     H110216   1.781   4.889   4.716  0.5855  1.8837  0.4178
 3335WAT     H210217   1.915   4.843   4.663 -0.4280  1.1889 -1.6135
 3336WAT      O10218   4.114   2.283   4.817  0.6135 -0.1085 -0.4543
 3336WAT     H110219   4.064   2.353   4.776  0.0208 -1.4983 -2.2696
 3336WAT     H210220   4.050   2.234   4.869  0.9651  0.4861  0.5714
 3337WAT      O10221   0.291   2.709   2.783  0.0698 -0.1038  1.0826
 3337WAT     H110222   0.224   2.733   2.719  1.0545  2.0168  0.7810
 3337WAT     H210223   0.328   2.627   2.748 -0.4524  0.1910 -0.2417
 3338WAT      O10224   2.300   4.194   2.304  0.5475 -0.1279 -0.4852
 3338WAT     H110225   2.338   4.110   2.330 -0.7034 -0.3601  0.6780
 3338WAT     H210226   2.324   4.254   2.374 -1.8053 -0.4617  0.7033
 3339WAT      O10227   2.460   3.026   1.037  0.0344  0.1080 -0.1844
 3339WAT     H110228   2.477   3.095   1.101  0.5495 -0.5806  0.4404
 3339WAT     H210229   2.453   2.946   1.090 -1.0414 -0.2549 -0.8432
 3340WAT      O10230   2.095   0.924   1.832  0.1370  0.0435  0.7728
 3340WAT     H110231   2.181   0.888   1.811 -0.3047 -1.0263  0.7104
 3340WAT     H210232   2.064   0.872   1.906 -1.0313 -0.5709 -0.0933
 3341WAT      O10233   1.583   1.736   3.777  0.4301  0.1080 -0.3891
 3341WAT     H110234   1.547   1.825   3.773 -0.6973 -0.2384  0.9442
 3341WAT     H210235   1.660   1.738   3.721  0.7599  2.0909  0.0665
 3342WAT      O10236   0.313   4.063   1.302 -0.0045  0.6942 -0.4853
 3342WAT     H110237   0.280   4.151   1.321  0.0005  0.7566 -0.7541
 3342WAT     H210238   0.352   4.071   1.215  0.1949  0.4781 -0.4163
 3343WAT      O10239   0.303   2.520   1.343 -0.4538 -0.6341  0.1940
 3343WAT     H110240   0.337   2.466   1.271 -1.0894 -0.8946  0.0863
 3343WAT     H210241   0.260   2.458   1.401 -0.6440 -0.3213  0.3908
 3344WAT      O10242   0.916   3.090   1.475  0.0842 -0.0849 -0.0903
 3344WAT     H110243   0.976   3.015   1.466 -0.5800 -0.7191  0.6223
 3344WAT     H210244   0.850   3.075   1.408 -0.4433 -0.5325  0.5169
 3345WAT      O10245   3.209   1.854   5.215 -0.2375  0.4092 -0.4138
 3345WAT     H110246   3.162   1.806   5.283  1.6909 -0.7904  0.1478
 3345WAT     H210247   3.139   1.889   5.159 -1.8609  0.9824  1.8175
 3346WAT      O10248   1.835   2.509   4.664  0.6780  0.1125 -0.0252
 3346WAT     H110249   1.837   2.554   4.748  1.9491 -1.0003  0.5928
 3346WAT     H210250   1.772   2.558   4.612 -1.7110 -0.3645  2.2272
 3347WAT      O10251   1.562   0.674   1.639  0.1040  0.5254 -0.3983
 3347WAT     H110252   1.472   0.674   1.608 -0.6851 -1.4556  1.6005
 3347WAT     H210253   1.615   0.663   1.560 -1.5442 -0.6018 -1.4136
 3348WAT      O10254   0.479   3.500   3.777  0.4083  0.1398  0.7533
 3348WAT     H110255   0.423   3.498   3.699  3.1218  1.1739 -1.3801
 3348WAT     H210256   0.524   3.584   3.772  2.9276 -1.0588  1.7420
 3349WAT      O10257   1.452   1.188   2.285  0.5521 -0.0500  0.1599
 3349WAT     H110258   1.518   1.229   2.230  0.6092 -1.9737 -1.3085
 3349WAT     H210259   1.501   1.126   2.339  0.3374  0.9451  1.5609
 3350WAT      O10260   3.382   5.112   2.521  0.1430 -0.4415 -0.2225
 3350WAT     H110261   3.404   5.070   2.604  0.9137 -1.2737 -0.8270
 3350WAT     H210262   3.294   5.082   2.502 -0.6848  1.0289  1.0573
 3351WAT      O10263   4.092   2.661   1.064 -0.2017 -0.5391  0.2053
 3351WAT     H110264   4.143   2.687   1.140 -1.0127 -1.3136  1.0515
 3351WAT     H210265   4.020   2.724   1.060  0.0721 -0.2481 -0.1774
 3352WAT      O10266   0.231   2.554   2.432 -0.3549  0.2624  0.0543
 3352WAT     H110267   0.313   2.580   2.391  0.3592 -0.7795  0.7959
 3352WAT     H210268   0.194   2.489   2.372  0.1023 -0.3697  0.4453
 3353WAT      O10269   0.014   3.592   4.881  0.0589 -0.3487 -0.0669
 3353WAT     H110270   0.102   3.565   4.907 -0.0316 -1.2342 -0.6553
 3353WAT     H210271  -0.006   3.666   4.939  0.5773 -1.1191  1.1369
 3354WAT      O10272   0.802   1.359   2.428 -0.6247  0.4018  0.7323
 3354WAT     H110273   0.725   1.302   2.434 -0.6902  0.0940 -2.0444
 3354WAT     H210274   0.766   1.444   2.404 -0.0765 -0.2110 -2.6760
 3355WAT      O10275   0.860   5.057   4.064 -0.0929  0.3687  0.2722
 3355WAT     H110276   0.916   4.979   4.056 -0.2185  0.4320 -1.5028
 3355WAT     H210277   0.800   5.051   3.989 -2.8386  0.0539  2.3132
 3356WAT      O10278   0.230   2.341   3.797  0.3329 -0.1049  0.3453
 3356WAT     H110279   0.316   2.365   3.831 -0.1518  0.2956  1.3378
 3356WAT     H210280   0.178   2.421   3.804  0.0097 -0.2094 -0.7103
 3357WAT      O10281   3.032   4.782   0.456 -0.5430  0.1295  0.2614
 3357WAT     H110282   3.064   4.824   0.536 -1.2208 -1.7549  1.6116
 3357WAT     H210283   3.040   4.849   0.388  1.1937  1.4115  1.6404
 3358WAT      O10284   1.564   2.620   2.271  0.2266 -0.2235  0.0514
 3358WAT     H110285   1.468   2.621   2.271  0.1518 -0.2182 -2.5033
 3358WAT     H210286   1.588   2.649   2.359 -2.0862 -1.3490  1.1532
 3359WAT      O10287   1.478   2.236   3.885  0.3679  0.3605 -0.7650
 3359WAT     H110288   1.543   2.306   3.888 -0.5145  1.1692  0.2290
 3359WAT     H210289   1.410   2.264   3.946 -0.8481 -0.5242 -1.6732
 3360WAT      O10290   3.710   1.426   0.206 -0.3150 -0.0107 -0.6347
 3360WAT     H110291   3.803   1.437   0.187  0.0768  1.1320  1.6404
 3360WAT     H210292   3.706   1.349   0.264 -0.6455  0.5171  0.0642
 3361WAT      O10293   3.025   4.998   3.879 -0.6696 -0.4013  0.3610
 3361WAT     H110294   3.041   4.906   3.859  1.0082 -0.0992  0.1863
 3361WAT     H210295   3.093   5.021   3.943 -0.5908  0.9097 -0.1703
 3362WAT      O10296   0.914   1.959   4.770  0.3216  0.3763 -0.6263
 3362WAT     H110297   1.007   1.948   4.791  0.0489  0.0971  0.5151
 3362WAT     H210298   0.873   1.979   4.854 -0.7209  0.0492 -1.0448
 3363WAT      O10299   0.312   3.302   1.848  0.3575 -0.2248 -0.1753
 3363WAT     H110300   0.400   3.340   1.850  0.8284 -0.9975 -2.7672
 3363WAT     H210301   0.266   3.351   1.780 -0.9691 -0.3854  0.5697
 3364WAT      O10302   0.387   3.437   0.200  0.6549  0.5808 -0.0503
 3364WAT     H110303   0.368   3.450   0.293 -2.5726 -0.6176 -0.4015
 3364WAT     H210304   0.443   3.359   0.198  1.2863  0.9910  0.8887
 3365WAT      O10305   1.662   2.430   3.870 -0.1519  0.0698 -0.0367
 3365WAT     H110306   1.757   2.435   3.881 -0.1531 -0.0780  0.0349
 3365WAT     H210307   1.636   2.521   3.851 -0.2148  0.4387  1.6234
 3366WAT      O10308   0.612   1.910   3.675 -0.1447 -0.3806 -0.2524
 3366WAT     H110309   0.532   1.860   3.660 -0.6303  0.4811 -0.6097
 3366WAT     H210310   0.582   1.998   3.698  0.6756 -0.4774  1.3482
 3367WAT      O10311   2.344   3.724   3.272 -0.3452 -0.0753  0.2711
 3367WAT     H110312   2.298   3.700   3.352 -0.0002 -0.6119  0.3151
 3367WAT     H210313   2.277   3.721   3.204 -0.5165 -0.1862  0.4443
 3368WAT      O10314   3.611   2.735   4.405 -0.1398  0.3443  0.1488
 3368WAT     H110315   3.577   2.753   4.318 -2.1617  3.0696  1.3385
 3368WAT     H210316   3.534   2.734   4.461  1.1573 -0.6642  2.0366
 3369WAT      O10317   3.110   0.775   0.207 -0.1183 -0.7799 -0.0856
 3369WAT     H110318   3.063   0.784   0.124  1.0017  0.5434 -0.6070
 3369WAT     H210319   3.140   0.684   0.208 -1.1009 -1.1246 -0.5903
 3370WAT      O10320   1.762   3.612   2.010 -0.2162 -0.2872 -0.0195
 3370WAT     H110321   1.787   3.626   1.919  1.5381 -0.5976  0.3717
 3370WAT     H210322   1.700   3.539   2.007 -0.5234 -0.0049 -0.9825
 3371WAT      O10323   3.085   4.221   2.859  0.0354 -0.2591  0.3928
 3371WAT     H110324   3.162   4.182   2.901  0.0108 -0.3483  0.3551
 3371WAT     H210325   3.118   4.258   2.778  0.0116 -0.4278  0.3056
 3372WAT      O10326   0.198   4.754   1.404  0.1194  0.3024 -0.4639
 3372WAT     H110327   0.211   4.831   1.459 -0.9623 -0.6000  1.1224
 3372WAT     H210328   0.237   4.682   1.453 -0.4582 -0.4538 -1.0907
 3373WAT      O10329   3.528   2.457   4.070 -0.1541  0.3781  0.3397
 3373WAT     H110330   3.437   2.482   4.056 -0.4394 -0.3938  0.7877
 3373WAT     H210331   3.578   2.521   4.020 -0.9997 -0.3050 -1.4462
 3374WAT      O10332   3.679   0.127   0.804  0.2936 -0.4437  0.7651
 3374WAT     H110333   3.736   0.148   0.731 -2.2557  2.2282 -0.6721
 3374WAT     H210334   3.730   0.148   0.882  1.4411  1.4678 -0.4289
 3375WAT      O10335   1.753   2.164   1.481 -0.1230 -0.9402  0.8845
 3375WAT     H110336   1.800   2.090   1.443  0.7226  0.2508 -0.4898
 3375WAT     H210337   1.817   2.204   1.540  0.7970  0.8504 -1.2004
 3376WAT      O10338   3.530   3.733   4.909 -0.3603 -0.1903 -0.3661
 3376WAT     H110339   3.594   3.712   4.841  2.8139 -0.3964  2.4339
 3376WAT     H210340   3.512   3.826   4.898 -1.0525 -0.5214 -2.3116
 3377WAT      O10341   3.630   3.803   4.099 -0.0907  0.2656  0.1056
 3377WAT     H110342   3.650   3.865   4.029  0.4896  0.1283  0.1427
 3377WAT     H210343   3.645   3.852   4.180  0.5183  0.0442  0.1370
 3378WAT      O10344   2.461   2.205   1.607  0.3533  0.3287  0.1393
 3378WAT     H110345   2.442   2.113   1.588 -2.7535  0.9252 -0.3112
 3378WAT     H210346   2.505   2.204   1.691 -0.9842 -1.5458  0.8878
 3379WAT      O10347   0.956   3.129   3.764  0.5500  0.2360 -0.2326
 3379WAT     H110348   1.049   3.106   3.755  0.5927 -0.1807  1.0035
 3379WAT     H210349   0.946   3.148   3.858 -0.3276  1.5657 -0.5775
 3380WAT      O10350   0.755   3.682   2.922 -0.7169  0.4260 -0.3404
 3380WAT     H110351   0.698   3.672   2.998 -0.0831 -1.2544 -0.0498
 3380WAT     H210352   0.838   3.712   2.959 -0.4324 -0.3169 -0.3542
 3381WAT      O10353   0.441   4.910   4.024 -0.8930  0.0877  0.5076
 3381WAT     H110354   0.511   4.849   4.050 -1.5655 -0.6931  0.5206
 3381WAT     H210355   0.470   4.945   3.940 -0.3481 -0.0121  0.6509
 3382WAT      O10356   2.563   0.714   0.361  0.0226  0.1517 -0.1402
 3382WAT     H110357   2.492   0.652   0.381 -0.2775  0.2828 -0.7724
 3382WAT     H210358   2.602   0.680   0.281  1.1635 -0.3224  0.5890
 3383WAT      O10359   3.872   1.356   4.897 -0.4994  0.2272  0.1073
 3383WAT     H110360   3.938   1.322   4.836  0.2360 -0.7870  1.4000
 3383WAT     H210361   3.801   1.386   4.841  1.2974  1.9827 -1.4144
 3384WAT      O10362   2.422   2.413   4.662  0.1568 -0.0448 -0.4742
 3384WAT     H110363   2.326   2.412   4.657  0.1234  1.3643 -0.6403
 3384WAT     H210364   2.450   2.373   4.579 -0.3251  1.4468 -1.4046
 3385WAT      O10365   1.632   3.649   0.057  0.0664 -0.0811  0.4207
 3385WAT     H110366   1.604   3.740   0.057  2.7553  0.8547 -1.0132
 3385WAT     H210367   1.553   3.600   0.082 -1.0222  2.6773  3.0510
 3386WAT      O10368   1.446   2.045   5.130 -0.3210 -0.4937  0.6121
 3386WAT     H110369   1.537   2.018   5.125 -0.2477 -0.1516 -0.1489
 3386WAT     H210370   1.434   2.074   5.220  1.3631  2.9349 -0.1062
 3387WAT      O10371   2.845   5.076   1.456  0.7421 -0.0956 -0.2761
 3387WAT     H110372   2.894   5.127   1.391 -2.5666  1.3691 -1.8311
 3387WAT     H210373   2.845   4.987   1.421 -0.8473  0.6335 -2.3765
 3388WAT      O10374   4.084   4.078   5.135  0.2962  0.0799 -0.6030
 3388WAT     H110375   4.001   4.046   5.101 -0.0059  1.3022 -1.0547
 3388WAT     H210376   4.122   4.003   5.180 -1.7337 -0.1299  0.9049
 3389WAT      O10377   0.764   3.407   1.828  0.1417  0.3271 -0.0826
 3389WAT     H110378   0.824   3.470   1.789 -0.0552  0.8664  0.4813
 3389WAT     H210379   0.690   3.459   1.860  0.3741 -0.0670  1.1747
 3390WAT      O10380   1.040   0.245   2.760 -0.2404  0.6202  0.7906
 3390WAT     H110381   1.052   0.308   2.689  1.6086  1.0780  1.4564
 3390WAT     H210382   0.952   0.263   2.793  0.3873  3.2061  1.2490
 3391WAT      O10383   4.174   2.721   0.071 -0.2958  0.0144  0.0556
 3391WAT     H110384   4.105   2.698   0.135 -0.5271 -1.1758 -0.5842
 3391WAT     H210385   4.183   2.816   0.079 -2.3297  0.2721 -0.1457
 3392WAT      O10386   4.265   1.299   0.414  0.2939 -0.1023 -0.7321
 3392WAT     H110387   4.300   1.275   0.499  2.0326 -0.4660 -1.5047
 3392WAT     H210388   4.189   1.241   0.402  1.1609 -1.3878 -0.2250
 3393WAT      O10389   0.410   1.791   3.955 -0.3638  0.1868 -0.3459
 3393WAT     H110390   0.484   1.742   3.991 -0.2306  1.4319  1.1579
 3393WAT     H210391   0.419   1.779   3.860  2.0504  0.6484 -0.2580
 3394WAT      O10392   1.529   5.031   3.524  0.4327  0.5671  0.1579
 3394WAT     H110393   1.550   5.125   3.522 -0.9982  0.9398  0.9341
 3394WAT     H210394   1.437   5.027   3.497 -0.3124 -0.3136  2.5373
 3395WAT      O10395   0.602   4.019   4.999 -0.0304 -0.2573  0.1029
 3395WAT     H110396   0.616   4.109   5.029 -0.3094  0.0434 -0.6334
 3395WAT     H210397   0.544   3.981   5.065  0.4554 -0.0395  0.6596
 3396WAT      O10398   2.097   1.662   4.112 -0.5162  0.2170  0.2782
 3396WAT     H110399   2.059   1.586   4.156  1.9144  0.1461  2.5045
 3396WAT     H210400   2.072   1.737   4.167 -1.6166  0.8866 -1.0640
 3397WAT      O10401   2.550   0.880   3.857 -0.0164 -0.4661 -0.3393
 3397WAT     H110402   2.548   0.912   3.947 -2.4002 -0.2916 -0.3875
 3397WAT     H210403   2.608   0.804   3.859  2.1296  1.0986  0.7289
 3398WAT      O10404   2.743   0.282   3.176 -0.1403 -0.1839 -0.0969
 3398WAT     H110405   2.724   0.359   3.230  2.9680  1.2967 -0.8856
 3398WAT     H210406   2.790   0.222   3.234  0.9183  0.2905 -0.4291
 3399WAT      O10407   0.762   1.802   2.684 -0.6468  0.0915  0.1260
 3399WAT     H110408   0.692   1.755   2.640 -1.4527 -0.5917  2.0525
 3399WAT     H210409   0.839   1.746   2.673 -0.5312  0.4750 -1.3249
 3400WAT      O10410   0.107   2.286   2.305 -0.1528 -0.4240 -0.3668
 3400WAT     H110411   0.196   2.252   2.296  1.1957  2.2259  1.5150
 3400WAT     H210412   0.057   2.214   2.343  1.4363 -1.6393 -0.5137
 3401WAT      O10413   2.686   3.369   2.436  0.0536 -0.7979 -0.3293
 3401WAT     H110414   2.604   3.410   2.463  2.0201  2.3293  1.4562
 3401WAT     H210415   2.710   3.414   2.355  1.3022  0.3515  0.6360
 3402WAT      O10416   0.414   0.288   4.216  0.3578  0.3149 -0.7848
 3402WAT     H110417   0.406   0.342   4.295  0.7712 -0.1948 -0.3905
 3402WAT     H210418   0.371   0.206   4.238 -0.6300  0.6105 -1.5235
 3403WAT      O10419   1.444   1.536   2.640 -0.6679 -0.4239  0.2407
 3403WAT     H110420   1.529   1.501   2.666  0.2986  2.3922  1.3402
 3403WAT     H210421   1.451   1.548   2.545  1.2038  1.9965  0.5931
 3404WAT      O10422   1.523   3.134   2.195 -0.3997 -0.4059  0.1776
 3404WAT     H110423   1.473   3.053   2.209 -1.6244 -0.1337 -2.1416
 3404WAT     H210424   1.602   3.105   2.150 -0.3349 -0.4221  0.3018
 3405WAT      O10425   3.208   1.662   3.173  0.4246 -0.0973 -0.2976
 3405WAT     H110426   3.220   1.577   3.216  0.1359 -0.2321 -0.4788
 3405WAT     H210427   3.279   1.667   3.109  1.1765  0.3341  0.5435
 3406WAT      O10428   1.406   0.543   2.617  0.1706 -0.4791  0.1877
 3406WAT     H110429   1.329   0.569   2.668 -0.2078 -1.2130  0.0060
 3406WAT     H210430   1.477   0.540   2.681  0.6677  2.7266 -0.0851
 3407WAT      O10431   1.003   4.151   1.220 -0.2850 -0.1480 -0.7481
 3407WAT     H110432   1.020   4.131   1.128 -0.9731 -1.7989 -0.5350
 3407WAT     H210433   0.908   4.159   1.226 -0.2151  0.4012 -0.2581
 3408WAT      O10434   1.540   4.576   3.050 -0.2067 -0.3882  0.0284
 3408WAT     H110435   1.558   4.633   3.125 -1.3998 -0.1234  0.1250
 3408WAT     H210436   1.607   4.599   2.986  0.9286 -0.7248  1.0596
 3409WAT      O10437   1.393   1.463   0.877 -0.1069 -0.0371 -0.1985
 3409WAT     H110438   1.476   1.490   0.916 -0.1468  1.0195 -0.8085
 3409WAT     H210439   1.374   1.378   0.917  1.0194 -0.0643  0.3111
 3410WAT      O10440   0.122   1.556   2.098  0.0640  0.2802  0.4496
 3410WAT     H110441   0.159   1.507   2.171 -0.6658 -0.2300  0.4875
 3410WAT     H210442   0.027   1.550   2.110 -0.0514  0.9667 -0.0336
 3411WAT      O10443   1.358   2.452   0.994  0.1565 -0.5607  0.2513
 3411WAT     H110444   1.441   2.404   0.995 -0.5547 -1.8226  0.9517
 3411WAT     H210445   1.294   2.387   0.967 -0.8643 -0.0610  1.3823
 3412WAT      O10446   3.326   2.879   2.921  1.0210  0.4624  0.8403
 3412WAT     H110447   3.418   2.878   2.894  1.4470 -1.7914  2.0460
 3412WAT     H210448   3.277   2.866   2.840  1.9182 -0.6033  0.4419
 3413WAT      O10449   3.653   2.399   5.095 -0.0455 -0.2840  0.3423
 3413WAT     H110450   3.705   2.467   5.051  1.3451 -0.5508  1.4815
 3413WAT     H210451   3.717   2.332   5.119 -0.2472  0.6970  4.4392
 3414WAT      O10452   2.419   0.910   5.004  0.1850 -0.4014  0.5765
 3414WAT     H110453   2.489   0.976   5.010  0.0897 -0.2365 -0.0472
 3414WAT     H210454   2.466   0.828   4.986  0.1725 -0.1279 -0.8232
 3415WAT      O10455   3.654   2.964   4.767  0.5281 -0.3768 -0.1942
 3415WAT     H110456   3.692   3.043   4.806 -1.2036  0.4596 -0.0909
 3415WAT     H210457   3.723   2.930   4.711  1.6791  0.6366  0.5465
 3416WAT      O10458   0.194   2.703   4.040 -0.2294  0.0658  0.0394
 3416WAT     H110459   0.198   2.774   3.976 -0.0008  0.1675  0.1623
 3416WAT     H210460   0.116   2.653   4.017  1.2643 -1.5109 -2.0039
 3417WAT      O10461   4.226   3.665   1.091  0.1445  0.0073 -0.2339
 3417WAT     H110462   4.267   3.699   1.171  3.1732 -1.7092 -0.8912
 3417WAT     H210463   4.245   3.731   1.025  0.5623 -0.0897 -0.2139
 3418WAT      O10464   1.361   1.576   2.094  0.1268  0.2131 -0.0343
 3418WAT     H110465   1.425   1.611   2.032  1.5249 -1.0669  0.6438
 3418WAT     H210466   1.285   1.554   2.040  1.1884 -0.5662 -1.2597
 3419WAT      O10467   4.025   1.263   1.105  0.1097 -0.0729 -1.0919
 3419WAT     H110468   4.053   1.191   1.162 -0.0423  1.1876  0.6427
 3419WAT     H210469   3.991   1.219   1.027 -0.2332 -1.9015  0.0260
 3420WAT      O10470   1.823   0.268   3.430  0.2688 -0.1918  0.4120
 3420WAT     H110471   1.893   0.222   3.476  0.3279 -0.1679  0.3449
 3420WAT     H210472   1.821   0.228   3.343  0.4025  0.0191  0.3121
 3421WAT      O10473   2.087   3.068   2.416 -0.3005  0.2117 -0.1823
 3421WAT     H110474   2.049   3.148   2.380  0.0832  0.2052 -0.5976
 3421WAT     H210475   2.090   3.007   2.343  1.8415  0.6789 -0.5248
 3422WAT      O10476   0.323   0.998   1.551  0.5095  0.2448  0.4950
 3422WAT     H110477   0.306   1.030   1.640 -0.9558  2.2978 -0.4274
 3422WAT     H210478   0.345   1.077   1.501  0.7983 -0.7857 -1.0828
 3423WAT      O10479   1.622   3.423   1.047 -0.5097  0.3259 -0.0166
 3423WAT     H110480   1.585   3.465   1.124 -1.7345  0.0126 -0.4035
 3423WAT     H210481   1.714   3.409   1.069 -0.5978  1.1655  0.9765
 3424WAT      O10482   3.625   3.471   1.459  0.2186  0.1364 -0.4436
 3424WAT     H110483   3.567   3.483   1.535  0.3827  0.6468 -0.3933
 3424WAT     H210484   3.686   3.403   1.487  0.8408  0.9367  0.2415
 3425WAT      O10485   1.546   4.159   1.114 -0.2731  0.0088  0.0254
 3425WAT     H110486   1.611   4.089   1.112 -0.6211 -0.3076 -0.4505
 3425WAT     H210487   1.597   4.238   1.128  0.4348 -0.0045 -2.0792
 3426WAT      O10488   3.162   0.235   3.371 -1.0169  0.2219  0.1654
 3426WAT     H110489   3.249   0.198   3.386 -1.1284 -1.8143 -3.1264
 3426WAT     H210490   3.177   0.312   3.317 -1.1873 -0.5080 -0.9792
 3427WAT      O10491   0.769   0.578   3.754  0.0264 -0.1983 -0.8348
 3427WAT     H110492   0.785   0.662   3.711 -1.2165  0.0878 -0.7597
 3427WAT     H210493   0.677   0.581   3.780  0.2042 -1.2213 -0.0235
 3428WAT      O10494   1.254   2.044   4.249  0.1015 -0.2172  0.1601
 3428WAT     H110495   1.246   1.985   4.174  0.3288  0.0897 -0.1110
 3428WAT     H210496   1.342   2.027   4.283 -0.0291 -0.4093  0.4043
 3429WAT      O10497   4.365   4.557   1.455 -0.1696 -0.3847  0.4663
 3429WAT     H110498   4.356   4.647   1.486  1.7405 -0.3645  1.1070
 3429WAT     H210499   4.437   4.561   1.392 -0.7734 -1.2893 -0.2984
 3430WAT      O10500   0.823   4.806   2.208 -0.0043 -0.0916 -0.2641
 3430WAT     H110501   0.865   4.878   2.255 -0.1721  0.4031 -0.8507
 3430WAT     H210502   0.761   4.769   2.270 -0.0186  0.3602 -0.0029
 3431WAT      O10503   3.527   0.338   2.330  0.4392  0.3532 -0.5322
 3431WAT     H110504   3.449   0.290   2.305  0.2157  1.7789 -2.7861
 3431WAT     H210505   3.505   0.377   2.415 -0.1729 -1.6088  0.2591
 3432WAT      O10506   1.942   3.514   3.718  0.3583 -0.2818  0.3213
 3432WAT     H110507   2.019   3.566   3.742 -0.5636  0.9911  0.6007
 3432WAT     H210508   1.934   3.449   3.787  0.7097  0.1010  0.7263
 3433WAT      O10509   1.007   2.549   5.298 -0.1438 -0.3849  0.7052
 3433WAT     H110510   0.915   2.534   5.321 -0.5584  2.2789  1.1235
 3433WAT     H210511   1.004   2.624   5.239  1.6031 -2.0105 -1.6309
 3434WAT      O10512   3.929   1.058   1.894 -0.2019 -0.6852  0.1965
 3434WAT     H110513   3.855   1.021   1.942 -0.8615 -1.1446 -1.1319
 3434WAT     H210514   3.899   1.064   1.803  0.5899  1.2653 -0.0005
 3435WAT      O10515   1.412   0.321   1.503 -0.1602  0.8699 -0.0699
 3435WAT     H110516   1.352   0.250   1.527 -2.4467  2.2134 -1.4423
 3435WAT     H210517   1.375   0.357   1.423  1.5252  2.9531  0.0163
 3436WAT      O10518   4.141   1.970   1.366 -0.0627 -0.2660  0.1689
 3436WAT     H110519   4.089   1.926   1.299  0.2616 -1.6743  0.8116
 3436WAT     H210520   4.128   2.063   1.349 -0.4377 -0.5959 -1.4982
 3437WAT      O10521   3.014   1.845   3.235  0.1392  0.6010 -0.0310
 3437WAT     H110522   3.027   1.933   3.199  0.3202 -0.0765 -1.6778
 3437WAT     H210523   3.093   1.797   3.211  0.4006  0.1648  1.5492
 3438WAT      O10524   0.482   4.649   5.023 -0.1950  0.9217 -0.0470
 3438WAT     H110525   0.419   4.580   5.041  0.9252 -0.2754 -0.6164
 3438WAT     H210526   0.464   4.676   4.933 -0.5806  1.3515  0.1493
 3439WAT      O10527   2.226   0.899   0.220  0.1424 -0.5297 -1.1124
 3439WAT     H110528   2.168   0.962   0.178  0.1829 -1.2902 -2.3675
 3439WAT     H210529   2.314   0.936   0.210 -0.0338  0.3193  0.2348
 3440WAT      O10530   0.840   1.615   3.996 -0.0146 -0.4441  0.0537
 3440WAT     H110531   0.888   1.684   4.042  0.0138 -0.2115 -0.3175
 3440WAT     H210532   0.748   1.634   4.014  0.0177 -0.7761  0.6042
 3441WAT      O10533   1.537   2.243   0.218 -0.2353 -0.3199  0.3567
 3441WAT     H110534   1.632   2.232   0.214 -0.2229  0.1500 -1.5942
 3441WAT     H210535   1.502   2.156   0.198 -0.1717 -0.0337 -1.1413
 3442WAT      O10536   3.011   3.561   0.749 -0.1537  0.3442 -0.6590
 3442WAT     H110537   2.947   3.553   0.678 -1.1054  0.8938  0.1077
 3442WAT     H210538   2.960   3.545   0.829  0.9307 -0.4192 -0.0964
 3443WAT      O10539   0.275   4.234   3.772  0.1341  0.3582  0.1955
 3443WAT     H110540   0.228   4.261   3.851 -1.2935 -0.5353 -0.3132
 3443WAT     H210541   0.320   4.313   3.743 -0.4852  1.0655  1.1033
 3444WAT      O10542   0.895   2.757   4.377  0.6109 -0.3681 -0.1414
 3444WAT     H110543   0.980   2.713   4.379  0.6536 -0.2882 -0.1708
 3444WAT     H210544   0.876   2.770   4.284  0.3793 -0.7415 -0.1457
 3445WAT      O10545   1.462   0.049   2.860 -0.1782  0.0863 -0.4994
 3445WAT     H110546   1.489  -0.041   2.879  1.2167  0.0805 -2.2645
 3445WAT     H210547   1.459   0.054   2.764 -3.5066  1.0159 -0.4832
 3446WAT      O10548   4.268   1.787   4.175  0.3541  0.7041 -0.1740
 3446WAT     H110549   4.225   1.870   4.159  3.1336  1.7679 -3.2120
 3446WAT     H210550   4.228   1.726   4.114  1.1295  0.9424 -0.9353
 3447WAT      O10551   2.620   0.974   0.326  0.6231 -0.0726  0.2232
 3447WAT     H110552   2.710   0.985   0.296  0.4049  1.0530 -0.0970
 3447WAT     H210553   2.612   0.882   0.348  1.8519 -0.1801  0.2547
 3448WAT      O10554   1.669   0.328   5.019  0.1199  0.1598  0.4152
 3448WAT     H110555   1.666   0.291   4.930 -0.1335 -1.9011  1.2105
 3448WAT     H210556   1.626   0.413   5.011  2.1464  1.0758 -1.8565
 3449WAT      O10557   0.190   0.334   3.974  0.2449  0.1811  0.4371
 3449WAT     H110558   0.115   0.392   3.986  0.6073  0.9009 -0.6546
 3449WAT     H210559   0.254   0.365   4.038  1.0134  2.0169 -1.1153
 3450WAT      O10560   4.348   3.266   4.319 -0.5773 -0.6322 -0.0441
 3450WAT     H110561   4.428   3.231   4.282  0.3443 -0.2677  1.5163
 3450WAT     H210562   4.286   3.267   4.246  0.6433 -1.4778 -1.1294
 3451WAT      O10563   2.932   1.784   1.819  0.0626  0.3325  0.2404
 3451WAT     H110564   2.996   1.849   1.845  0.7991  0.1007 -0.8984
 3451WAT     H210565   2.889   1.757   1.900 -0.4097  2.3704  0.7089
 3452WAT      O10566   0.108   0.745   1.257  0.6337  0.1124 -0.0118
 3452WAT     H110567   0.131   0.713   1.344  0.3640  1.0639  0.4194
 3452WAT     H210568   0.014   0.728   1.249  0.0581  2.4655  0.9928
 3453WAT      O10569   2.085   2.258   5.017 -0.1479 -0.0322  0.1967
 3453WAT     H110570   2.174   2.278   4.989 -0.0663  0.0749  0.5237
 3453WAT     H210571   2.045   2.216   4.941  0.1178  0.1020 -0.0215
 3454WAT      O10572   4.184   3.913   1.392  0.0589  0.9794  0.2861
 3454WAT     H110573   4.251   3.846   1.404  1.5177  2.5088  1.1310
 3454WAT     H210574   4.153   3.933   1.480 -3.3133 -1.3019 -0.1850
 3455WAT      O10575   2.591   0.327   2.135 -0.5371 -0.1642 -0.0968
 3455WAT     H110576   2.616   0.238   2.158  1.3853  0.0868 -1.0731
 3455WAT     H210577   2.562   0.366   2.218 -0.4972 -1.3971  0.5102
 3456WAT      O10578   3.905   0.275   1.025 -0.3646  0.0789  0.5293
 3456WAT     H110579   3.936   0.186   1.043  0.9619  0.3188 -0.4017
 3456WAT     H210580   3.984   0.323   1.000 -1.0690  1.5133  0.9706
 3457WAT      O10581   1.079   3.410   5.121 -0.4201 -0.2886  0.7695
 3457WAT     H110582   1.109   3.462   5.196  0.0013 -0.6636  0.8678
 3457WAT     H210583   0.985   3.426   5.116 -0.1595  1.2194  0.2226
 3458WAT      O10584   1.727   3.825   5.106  0.0477 -0.2184  0.2722
 3458WAT     H110585   1.691   3.806   5.193 -1.1613  1.3524  0.1571
 3458WAT     H210586   1.727   3.740   5.062 -1.8747 -0.6071  0.9281
 3459WAT      O10587   0.791   0.285   3.419 -0.0644  0.3350 -0.4849
 3459WAT     H110588   0.809   0.315   3.508 -1.5665  0.0304 -0.0481
 3459WAT     H210589   0.877   0.285   3.376  0.3659  2.8757  0.2057
 3460WAT      O10590   0.375   2.139   0.164 -0.0929  0.4698  0.9557
 3460WAT     H110591   0.363   2.050   0.128 -1.1986 -0.4016  3.2554
 3460WAT     H210592   0.462   2.137   0.203  0.5809  0.9967 -0.4585
 3461WAT      O10593   2.667   4.930   2.659  0.0544 -0.7287  0.5975
 3461WAT     H110594   2.607   4.858   2.642  0.4643 -0.9602  0.1058
 3461WAT     H210595   2.618   5.009   2.634  0.1902 -0.9640 -0.4668
 3462WAT      O10596   2.825   1.406   5.003 -0.2486  0.3534 -0.0309
 3462WAT     H110597   2.816   1.391   4.908 -0.5951  0.5673 -0.0321
 3462WAT     H210598   2.792   1.494   5.016  0.8882  0.7810  0.1245
 3463WAT      O10599   3.208   3.517   4.739  0.0701 -0.2122 -0.0456
 3463WAT     H110600   3.203   3.558   4.826  0.1596  0.9264 -0.5552
 3463WAT     H210601   3.178   3.428   4.753  0.3379 -0.1315  1.2097
 3464WAT      O10602   3.308   4.238   4.198  0.2911 -0.3427  0.4616
 3464WAT     H110603   3.339   4.214   4.286  0.7989  0.7792  0.6160
 3464WAT     H210604   3.230   4.184   4.184 -0.1549 -0.1034  1.8582
 3465WAT      O10605   2.707   3.590   2.979  0.0858 -0.6264  0.5013
 3465WAT     H110606   2.627   3.559   3.022  0.6481  0.3698  2.3787
 3465WAT     H210607   2.758   3.630   3.049  1.7910 -0.3169 -0.8435
 3466WAT      O10608   2.798   3.394   5.168 -0.5318  0.2833  0.5966
 3466WAT     H110609   2.724   3.357   5.119 -1.3082 -0.3790  2.1796
 3466WAT     H210610   2.794   3.349   5.252  1.0902  0.9800  1.0656
 3467WAT      O10611   2.621   4.631   2.369 -0.5792  0.1935  0.4055
 3467WAT     H110612   2.532   4.647   2.338 -0.4076 -0.2561 -0.3482
 3467WAT     H210613   2.613   4.628   2.465 -1.6604 -1.3919  0.3139
 3468WAT      O10614   4.187   3.111   1.112  0.3922  0.2030 -0.1069
 3468WAT     H110615   4.184   3.082   1.021  0.9165  1.4329 -0.5220
 3468WAT     H210616   4.259   3.173   1.116  1.0634 -0.6187  1.3955
 3469WAT      O10617   3.850   3.746   3.684  0.6035  0.3866  0.4160
 3469WAT     H110618   3.764   3.717   3.714  1.1011 -0.9189  0.6477
 3469WAT     H210619   3.830   3.811   3.617 -0.5328  1.8742  2.0992
 3470WAT      O10620   3.784   4.769   2.185  0.0172 -0.6029  0.0144
 3470WAT     H110621   3.734   4.758   2.266 -0.6175  0.0999 -0.2622
 3470WAT     H210622   3.763   4.691   2.133  1.3866 -1.6716  0.9844
 3471WAT      O10623   1.956   1.074   4.419  0.0195  0.4782  0.3862
 3471WAT     H110624   1.883   1.112   4.370 -1.2996 -0.2168  1.7526
 3471WAT     H210625   1.920   0.993   4.456  0.7957  1.2253  2.9270
 3472WAT      O10626   1.846   4.670   2.159 -0.4315 -0.1065  0.8471
 3472WAT     H110627   1.849   4.737   2.091  1.6477 -0.2458  0.7303
 3472WAT     H210628   1.795   4.599   2.121  2.1052 -0.9059 -1.3433
 3473WAT      O10629   0.266   1.889   1.489 -0.1309  0.6257 -0.2280
 3473WAT     H110630   0.206   1.814   1.484  1.7839 -0.9166 -1.9909
 3473WAT     H210631   0.298   1.889   1.579 -2.2167  1.0875  0.5667
 3474WAT      O10632   3.525   2.831   0.386 -0.3977  0.3783 -0.0303
 3474WAT     H110633   3.531   2.746   0.343  2.9304  0.6653 -0.4317
 3474WAT     H210634   3.465   2.881   0.333 -2.3062 -1.5968  0.1099
 3475WAT      O10635   2.076   3.833   0.928  0.0367  0.2372  0.2038
 3475WAT     H110636   2.081   3.759   0.989 -1.3575  0.6005  0.8092
 3475WAT     H210637   1.992   3.822   0.885  0.1167  1.1137 -0.1809
 3476WAT      O10638   2.851   3.883   1.266 -0.3464 -0.3350 -0.0746
 3476WAT     H110639   2.808   3.810   1.310  0.1223 -0.1159  0.7637
 3476WAT     H210640   2.787   3.913   1.201 -1.6801  0.3268  1.4863
 3477WAT      O10641   1.264   3.293   2.907  0.0784 -0.6679 -0.1127
 3477WAT     H110642   1.350   3.329   2.883  0.6504 -1.5142  0.5693
 3477WAT     H210643   1.263   3.206   2.867 -0.6878 -0.4620 -0.5524
 3478WAT      O10644   3.435   4.669   4.756  0.3884 -0.7370 -0.0123
 3478WAT     H110645   3.508   4.660   4.817  1.8907 -1.4233 -1.8123
 3478WAT     H210646   3.452   4.750   4.709 -1.9807  1.0303  1.9020
 3479WAT      O10647   2.840   0.647   0.889  0.1540 -0.5811  0.4606
 3479WAT     H110648   2.791   0.721   0.925 -0.0866  0.5531 -2.0192
 3479WAT     H210649   2.927   0.682   0.870  0.5066 -1.3471  0.6211
 3480WAT      O10650   2.590   1.449   0.729 -0.2837 -0.1735 -0.1556
 3480WAT     H110651   2.627   1.535   0.749 -1.0743 -0.1882  1.5596
 3480WAT     H210652   2.666   1.392   0.715  0.2741  0.4450  0.3412
 3481WAT      O10653   2.502   5.018   3.717 -0.3325  1.1399 -0.1970
 3481WAT     H110654   2.569   5.014   3.785 -2.2226  0.6023  1.7769
 3481WAT     H210655   2.539   4.971   3.643  0.8033 -0.7679  1.4672
 3482WAT      O10656   1.366   1.252   3.184  0.0644  0.5780 -0.3158
 3482WAT     H110657   1.406   1.327   3.141  0.1098  0.2193 -0.9035
 3482WAT     H210658   1.336   1.196   3.113 -0.6264  0.3830  0.1197
 3483WAT      O10659   2.871   0.501   1.984  0.0863 -0.7311 -0.1620
 3483WAT     H110660   2.792   0.467   1.941 -0.6798 -1.6798  1.8346
 3483WAT     H210661   2.878   0.449   2.064  0.0866  2.3924  2.0596
 3484WAT      O10662   0.355   4.888   4.381  1.0255  0.0954  0.0183
 3484WAT     H110663   0.409   4.818   4.419 -0.5808 -1.3725 -0.3105
 3484WAT     H210664   0.284   4.901   4.444  0.8547  0.8772 -0.3161
 3485WAT      O10665   1.434   4.960   2.503  0.0215  0.1145  0.0380
 3485WAT     H110666   1.362   4.910   2.541 -1.0467  0.1825 -1.7808
 3485WAT     H210667   1.513   4.909   2.523 -0.8025 -1.1752  0.0834
 3486WAT      O10668   2.572   1.447   3.324 -0.6815 -0.4171  0.0852
 3486WAT     H110669   2.596   1.471   3.414 -0.5277  0.6220 -0.2184
 3486WAT     H210670   2.653   1.454   3.274 -0.6272 -1.6293 -0.0279
 3487WAT      O10671   2.723   5.002   1.873 -0.0895 -0.9240 -0.6669
 3487WAT     H110672   2.652   5.021   1.811 -0.4958  2.2270  0.5793
 3487WAT     H210673   2.803   5.010   1.820 -0.5233 -1.9236 -1.5155
 3488WAT      O10674   1.539   1.567   1.455 -0.3137  0.0093 -0.1294
 3488WAT     H110675   1.584   1.484   1.466  0.0796  0.0589 -1.1839
 3488WAT     H210676   1.451   1.552   1.488  0.8429  0.3847  3.5300
 3489WAT      O10677   3.447   3.307   4.343 -0.1188 -0.3686 -0.0874
 3489WAT     H110678   3.413   3.365   4.411 -0.8865  1.3114 -1.8100
 3489WAT     H210679   3.394   3.327   4.266 -0.7676 -3.7568 -0.6880
 3490WAT      O10680   0.873   1.590   5.135 -0.1320  0.2670  0.2025
 3490WAT     H110681   0.795   1.567   5.185  0.6434 -0.4383  1.1426
 3490WAT     H210682   0.907   1.507   5.103  1.3980  0.2850  1.6342
 3491WAT      O10683   0.215   0.926   3.299 -0.2821  0.2697 -0.3987
 3491WAT     H110684   0.293   0.980   3.306 -0.5074  0.5081  0.3740
 3491WAT     H210685   0.152   0.979   3.251 -0.0345  0.1431 -0.8708
 3492WAT      O10686   3.502   3.652   0.558 -0.2853 -0.0067 -0.7703
 3492WAT     H110687   3.447   3.707   0.614  1.0221 -0.3876  0.9716
 3492WAT     H210688   3.543   3.714   0.497 -0.8687  0.5790 -0.5778
 3493WAT      O10689   3.392   0.840   2.292  0.4329  0.6644  0.0056
 3493WAT     H110690   3.333   0.821   2.364  1.6127  1.0342  1.0948
 3493WAT     H210691   3.472   0.793   2.313  1.0864  1.4606 -0.6323
 3494WAT      O10692   4.147   1.157   3.498  0.0140 -0.7009 -0.2938
 3494WAT     H110693   4.226   1.141   3.550  0.9716  2.4850 -0.5265
 3494WAT     H210694   4.119   1.070   3.470  3.8234 -1.9742 -0.7647
 3495WAT      O10695   1.120   1.966   0.282  0.5571  0.9202 -0.5491
 3495WAT     H110696   1.084   2.047   0.246 -0.6305  0.5589 -0.2370
 3495WAT     H210697   1.055   1.899   0.261  1.4640  0.0573 -0.7028
 3496WAT      O10698   0.512   0.246   3.710 -0.3622 -0.6464  0.1423
 3496WAT     H110699   0.540   0.298   3.785 -0.2825  1.0200 -1.0000
 3496WAT     H210700   0.437   0.293   3.674  0.2297 -0.8261 -1.4338
 3497WAT      O10701   0.986   4.814   4.017 -0.2456  0.4682  0.3723
 3497WAT     H110702   0.968   4.723   3.994  0.5894  0.2597  0.5119
 3497WAT     H210703   1.039   4.847   3.944 -0.6040  0.8715  0.2865
 3498WAT      O10704   1.324   2.332   5.117  0.0565 -0.6340  0.5608
 3498WAT     H110705   1.368   2.248   5.103  2.1003  0.4414  0.0894
 3498WAT     H210706   1.231   2.312   5.106  0.5295 -2.6632 -0.3761
 3499WAT      O10707  -0.021   0.481   5.139  0.2601  0.4320 -0.4467
 3499WAT     H110708   0.059   0.428   5.137  0.7915  1.1822 -3.2348
 3499WAT     H210709   0.010   0.571   5.151 -0.3932  0.5246  0.7617
 3500WAT      O10710   3.118   4.247   4.833  0.1534  0.5945  0.5745
 3500WAT     H110711   3.156   4.184   4.893 -0.7141 -1.0235 -0.5148
 3500WAT     H210712   3.190   4.305   4.810  0.9109  0.1679  1.7748
 3501WAT      O10713   1.924   4.428   3.446  0.1694 -0.1399  0.1756
 3501WAT     H110714   1.846   4.441   3.392  1.1423 -1.4094 -1.6589
 3501WAT     H210715   1.980   4.502   3.423  0.4428 -0.4936 -0.3127
 3502WAT      O10716   1.464   2.098   1.520 -0.1853  0.2845  0.5283
 3502WAT     H110717   1.484   2.034   1.452 -0.5314  1.5742 -0.8449
 3502WAT     H210718   1.548   2.142   1.536 -0.3293  0.7275  0.1049
 3503WAT      O10719   2.910   1.061   5.137  0.1946  0.0306  0.5262
 3503WAT     H110720   2.928   1.148   5.174 -0.6845 -0.2187  1.5733
 3503WAT     H210721   2.914   1.075   5.042  0.6847  1.0762  0.6813
 3504WAT      O10722   4.233   1.778  -0.010 -0.2348 -0.1084  0.3488
 3504WAT     H110723   4.246   1.708   0.054  1.0275  0.8281  1.1667
 3504WAT     H210724   4.139   1.796  -0.006 -0.4205 -1.0812  0.8406
 3505WAT      O10725   0.695   0.350   2.108  0.0564  0.0911 -0.4883
 3505WAT     H110726   0.763   0.387   2.165 -0.2316 -1.3059  0.8171
 3505WAT     H210727   0.619   0.407   2.121  0.1893  0.1476  0.0635
 3506WAT      O10728   1.405   5.084   3.794 -0.0395  0.1568  0.2986
 3506WAT     H110729   1.436   5.123   3.712 -0.4390 -0.7993 -0.3381
 3506WAT     H210730   1.484   5.064   3.843  0.1723  1.7859  0.6821
 3507WAT      O10731   2.970   4.334   4.591  0.8001 -0.6761 -0.3370
 3507WAT     H110732   2.987   4.429   4.588  0.4450 -0.6422 -1.4112
 3507WAT     H210733   3.041   4.300   4.645  1.2985  0.1264 -0.4589
 3508WAT      O10734   0.090   0.060   4.428 -0.0384  0.3179  0.0620
 3508WAT     H110735   0.105   0.042   4.336  0.3286 -1.6043  0.4537
 3508WAT     H210736   0.125  -0.017   4.474 -2.1968  0.1820  1.6615
 3509WAT      O10737   1.138   1.285   1.908  0.2304  0.7225 -0.4094
 3509WAT     H110738   1.191   1.216   1.869 -1.1218 -0.4309 -0.3224
 3509WAT     H210739   1.140   1.266   2.002  0.0194  0.9007 -0.3678
 3510WAT      O10740   0.123   0.125   1.890 -0.1046 -0.4111 -0.0897
 3510WAT     H110741   0.200   0.109   1.944 -0.3217  2.8155  1.4035
 3510WAT     H210742   0.150   0.197   1.832 -1.1019 -1.2313 -1.6128
 3511WAT      O10743   3.902   2.525  -0.006  0.3967 -0.1672  0.1562
 3511WAT     H110744   3.991   2.490   0.004  0.3967 -0.0272  0.6381
 3511WAT     H210745   3.845   2.448   0.003  0.4980 -0.3837 -0.9022
 3512WAT      O10746   1.808   3.237   0.447  0.3170 -0.1338  0.0025
 3512WAT     H110747   1.714   3.253   0.440  0.2721 -0.0472  0.6796
 3512WAT     H210748   1.845   3.277   0.369 -0.0066  1.5867  0.6738
 3513WAT      O10749   3.377   2.398   0.865  0.7511 -0.7022 -0.5579
 3513WAT     H110750   3.290   2.399   0.824 -0.0437 -1.9223  0.9719
 3513WAT     H210751   3.369   2.459   0.939  1.3925 -0.3535 -0.7761
 3514WAT      O10752   1.384   3.995   4.959 -0.4336  0.2648 -0.3027
 3514WAT     H110753   1.469   4.023   4.992 -0.5677  0.5817 -0.2140
 3514WAT     H210754   1.404   3.943   4.882 -0.1192 -0.4471  0.2517
 3515WAT      O10755   2.302   4.367   4.128 -0.4816 -0.3914 -0.0539
 3515WAT     H110756   2.366   4.432   4.159  0.1943 -1.2156  0.3124
 3515WAT     H210757   2.304   4.377   4.033 -2.8280  2.3979  0.0505
 3516WAT      O10758   1.690   1.646   4.666  0.0508  0.3512  0.4945
 3516WAT     H110759   1.681   1.739   4.645  0.5561  0.9798  2.7276
 3516WAT     H210760   1.757   1.643   4.734  1.1364 -1.8472 -0.5467
 3517WAT      O10761   1.935   1.018   3.443 -0.5868  0.2401  0.3208
 3517WAT     H110762   1.888   0.949   3.394 -1.3195  0.6354  0.4445
 3517WAT     H210763   1.914   1.099   3.396  1.4151  0.2438 -0.6646
 3518WAT      O10764   1.362   3.148   4.109 -0.2993  0.5630  0.4370
 3518WAT     H110765   1.296   3.080   4.125 -1.2292  1.5654  0.9942
 3518WAT     H210766   1.343   3.180   4.021  0.3145 -0.0729  0.0646
 3519WAT      O10767   1.464   4.221   1.624 -0.6838 -0.1136 -0.3454
 3519WAT     H110768   1.524   4.148   1.613  0.9604  1.1772 -0.4248
 3519WAT     H210769   1.424   4.232   1.538  0.6689  0.3729 -0.9477
 3520WAT      O10770   3.448   4.031   2.048  0.2657 -0.0535  0.1605
 3520WAT     H110771   3.381   3.963   2.046 -0.2862  0.4049  1.4903
 3520WAT     H210772   3.399   4.113   2.047  0.8011  0.2926  1.1088
 3521WAT      O10773   4.540   3.815   2.998 -0.5972  0.1080  0.5502
 3521WAT     H110774   4.499   3.871   3.064 -1.9387  0.3019 -0.3954
 3521WAT     H210775   4.496   3.730   3.009 -1.7655  0.4780 -0.8600
 3522WAT      O10776   1.699   2.003   5.069  0.2059  0.0807 -0.4445
 3522WAT     H110777   1.684   2.091   5.035 -1.1957 -0.2152 -0.6687
 3522WAT     H210778   1.780   1.974   5.027  0.3509  1.0271 -0.8386
 3523WAT      O10779   1.002   1.636   2.678 -0.0993  0.3456  0.0268
 3523WAT     H110780   1.086   1.637   2.724  0.1237  1.9864 -0.3575
 3523WAT     H210781   1.019   1.683   2.597 -1.1608 -0.1542 -0.5020
 3524WAT      O10782   3.151   4.231   1.484 -0.5009 -0.2037  0.1325
 3524WAT     H110783   3.059   4.251   1.496 -0.0544  1.2636  1.4488
 3524WAT     H210784   3.166   4.151   1.534 -0.9924 -0.2613  0.1856
 3525WAT      O10785   2.209   2.330   1.911 -0.4316 -0.1385 -0.0101
 3525WAT     H110786   2.197   2.347   1.818  1.0078  0.8352 -0.0551
 3525WAT     H210787   2.220   2.235   1.917 -0.4301 -0.1967 -0.8498
 3526WAT      O10788   0.322   1.517   1.394 -0.1423 -0.1111  0.2578
 3526WAT     H110789   0.340   1.610   1.387  0.4445 -0.2334  0.1449
 3526WAT     H210790   0.272   1.508   1.475 -0.0677  0.2765  0.3463
 3527WAT      O10791   4.453   0.767   3.294  0.5722  0.1801 -0.3565
 3527WAT     H110792   4.512   0.750   3.368 -0.3308 -2.2848 -0.1117
 3527WAT     H210793   4.446   0.862   3.291  1.5417  0.4057  2.0129
 3528WAT      O10794   1.832   0.075   4.803  0.4036  0.0671 -0.0951
 3528WAT     H110795   1.750   0.120   4.786  0.0366 -0.4394  0.3067
 3528WAT     H210796   1.832   0.001   4.742 -0.6464 -1.4194  1.6128
 3529WAT      O10797   3.371   4.492   1.787  0.4887 -0.1123 -0.0464
 3529WAT     H110798   3.352   4.402   1.761 -0.0510 -0.1168  0.3472
 3529WAT     H210799   3.348   4.495   1.879  3.3814 -0.3949  0.7950
 3530WAT      O10800   0.212   2.901   0.844  0.1690  0.2042  0.3353
 3530WAT     H110801   0.204   2.828   0.906  2.5470 -0.9956 -0.6482
 3530WAT     H210802   0.121   2.922   0.821 -0.6664 -3.1887 -0.1307
 3531WAT      O10803   0.398   3.365   2.318 -0.0227  0.2046  0.2317
 3531WAT     H110804   0.483   3.372   2.362 -0.5232  2.1762  0.9865
 3531WAT     H210805   0.387   3.272   2.303  2.0539 -0.1472  0.5657
 3532WAT      O10806   4.259   2.813   3.584  0.4094  0.3938 -0.7093
 3532WAT     H110807   4.332   2.868   3.610  0.6381  0.0341 -0.5847
 3532WAT     H210808   4.181   2.868   3.597  0.5942  0.5147 -0.1131
 3533WAT      O10809   0.039   4.244   4.774 -0.1354  0.5601 -0.1663
 3533WAT     H110810   0.081   4.159   4.760 -1.7736 -0.1152 -1.1662
 3533WAT     H210811   0.074   4.300   4.705  1.3227  0.9017  0.7850
 3534WAT      O10812   0.674   0.417   4.252 -0.1013 -0.3510  0.4111
 3534WAT     H110813   0.676   0.322   4.240 -2.3478 -0.1482 -2.6468
 3534WAT     H210814   0.581   0.438   4.256  0.2884  1.8990 -0.9613
 3535WAT      O10815   1.703   1.431   2.723 -0.3729 -0.4398  0.4211
 3535WAT     H110816   1.709   1.338   2.704  2.9085  0.1119 -2.0815
 3535WAT     H210817   1.773   1.471   2.672 -0.7249  3.2731  2.4681
 3536WAT      O10818   2.612   2.151   4.733  0.4629  0.4062 -1.0528
 3536WAT     H110819   2.650   2.134   4.646  0.9107 -0.0547 -0.7735
 3536WAT     H210820   2.685   2.184   4.785  0.7772 -1.4204 -0.2257
 3537WAT      O10821   1.365   3.645   5.043  0.8652  0.1077  0.2990
 3537WAT     H110822   1.410   3.688   4.971 -0.4309  1.8027  0.4351
 3537WAT     H210823   1.282   3.692   5.051 -0.7380 -2.4966  0.4092
 3538WAT      O10824   0.547   1.471   2.139 -0.1888  0.1889  0.1129
 3538WAT     H110825   0.578   1.529   2.209  1.7481 -1.0985  0.3978
 3538WAT     H210826   0.511   1.531   2.073 -0.4048  1.5391  1.4020
 3539WAT      O10827   4.352   4.499   2.003  0.1963 -0.2926 -0.3036
 3539WAT     H110828   4.356   4.528   1.912 -0.7923 -0.3051 -0.3597
 3539WAT     H210829   4.287   4.556   2.044 -0.7187 -1.4602 -0.0631
 3540WAT      O10830   0.845   3.936   0.760  0.1303 -0.2240 -0.2471
 3540WAT     H110831   0.854   3.987   0.680 -0.0610  0.1351 -0.0416
 3540WAT     H210832   0.918   3.874   0.757  0.4053  0.1073 -0.4628
 3541WAT      O10833   4.127   3.873   0.492 -0.0738  0.2359  0.1738
 3541WAT     H110834   4.079   3.797   0.457 -1.1596  1.8747 -2.2191
 3541WAT     H210835   4.074   3.902   0.566 -1.3169  0.3777 -0.7387
 3542WAT      O10836   2.561   4.782   2.107  0.3663  0.2508  0.0853
 3542WAT     H110837   2.650   4.770   2.072  0.2503 -1.7107  0.3509
 3542WAT     H210838   2.503   4.754   2.036 -0.0827  1.5573 -0.0993
 3543WAT      O10839   2.060   4.707   5.149  0.4340 -0.0274 -0.2282
 3543WAT     H110840   2.127   4.715   5.217  1.0188  0.5114 -0.8545
 3543WAT     H210841   2.014   4.791   5.151  0.0804 -0.2217 -0.1164
 3544WAT      O10842   3.047   3.331   4.337 -0.4322 -0.0251  0.4831
 3544WAT     H110843   3.083   3.335   4.248 -0.7642 -0.3527  0.3333
 3544WAT     H210844   2.953   3.322   4.325 -0.3631 -1.5307  0.8374
 3545WAT      O10845   0.510   0.953   1.211  0.0344  0.6721 -0.2693
 3545WAT     H110846   0.588   0.993   1.172  0.2936 -0.4284 -0.9323
 3545WAT     H210847   0.441   0.966   1.146  0.8339 -2.5551 -1.9760
 3546WAT      O10848   3.304   3.137   2.511 -0.0534  0.4854  0.1342
 3546WAT     H110849   3.289   3.209   2.572 -1.5903  2.2510 -2.1135
 3546WAT     H210850   3.376   3.167   2.456  0.5367 -0.5496  0.3217
 3547WAT      O10851   2.424   1.100   4.527  0.3835  0.3646 -0.4691
 3547WAT     H110852   2.460   1.141   4.606  1.2854  1.5045 -1.4367
 3547WAT     H210853   2.331   1.088   4.547  0.2302  2.2064  0.1604
 3548WAT      O10854   1.560   2.156   2.103 -0.5441  0.5367 -0.0893
 3548WAT     H110855   1.563   2.210   2.182  2.7394  0.7264 -0.2218
 3548WAT     H210856   1.565   2.066   2.136  1.5592  0.6332  0.0006
 3549WAT      O10857   0.482   2.723   4.640  0.1332  0.0442  0.2064
 3549WAT     H110858   0.510   2.654   4.701 -1.4287 -1.8505 -1.0928
 3549WAT     H210859   0.408   2.765   4.683  0.4016  0.1910  0.5314
 3550WAT      O10860   0.216   3.942   0.372 -0.3064  0.5790 -0.0096
 3550WAT     H110861   0.203   3.864   0.318 -0.9661  0.2079  0.6766
 3550WAT     H210862   0.135   3.951   0.422 -0.2218  1.6748 -0.0366
 3551WAT      O10863   3.461   4.357   3.965  0.2261 -0.2324 -0.5972
 3551WAT     H110864   3.433   4.309   4.042 -0.7971 -0.0881 -0.8670
 3551WAT     H210865   3.557   4.352   3.967  0.3564  1.5938  1.8399
 3552WAT      O10866   3.526   1.052   0.060 -0.0013 -0.3115 -0.0308
 3552WAT     H110867   3.611   1.033   0.019  0.4681 -0.7118  1.0684
 3552WAT     H210868   3.524   1.147   0.067 -0.2631 -0.2016 -1.2892
 3553WAT      O10869   2.166   4.400   0.909  0.0091  0.1878 -0.2242
 3553WAT     H110870   2.136   4.325   0.858  0.7327 -0.1163 -0.2138
 3553WAT     H210871   2.137   4.476   0.859 -0.6094 -0.0953 -0.3025
 3554WAT      O10872   3.180   0.614   1.658  0.6024 -0.2476  0.3105
 3554WAT     H110873   3.135   0.642   1.578 -3.3899 -0.7700  2.1428
 3554WAT     H210874   3.215   0.696   1.695  0.2031  0.3797 -0.6566
 3555WAT      O10875   3.264   0.551   3.995 -0.0378  0.1284 -0.3255
 3555WAT     H110876   3.229   0.632   4.034 -0.2883  0.6834 -1.6390
 3555WAT     H210877   3.256   0.565   3.901  0.2786 -1.2880 -0.5826
 3556WAT      O10878   4.435   2.885   0.778 -0.2387  0.4027  0.6368
 3556WAT     H110879   4.396   2.903   0.863 -1.5782 -1.9572  0.6080
 3556WAT     H210880   4.360   2.876   0.719  0.3652 -2.2988  0.1629
 3557WAT      O10881   2.950   2.183   0.573  0.4820 -0.0266 -0.5297
 3557WAT     H110882   2.867   2.230   0.565  0.3571  0.2916  1.8347
 3557WAT     H210883   3.010   2.231   0.517 -0.4890  0.8275 -0.8800
 3558WAT      O10884   1.440   4.653   4.573  0.2452 -0.2579 -0.1233
 3558WAT     H110885   1.399   4.583   4.521 -1.3005  1.8040 -1.8634
 3558WAT     H210886   1.405   4.640   4.661 -0.9336 -1.0241 -0.6692
 3559WAT      O10887   2.414   4.315   2.062 -0.8938 -0.2742  0.1833
 3559WAT     H110888   2.509   4.321   2.049 -1.1523  0.2009 -1.9174
 3559WAT     H210889   2.404   4.272   2.147  1.1778  1.4526  1.4037
 3560WAT      O10890   2.219   4.588   1.436 -0.4842 -0.0774  0.4955
 3560WAT     H110891   2.293   4.601   1.496 -0.5285  1.5795  0.2375
 3560WAT     H210892   2.181   4.504   1.463  1.3897 -0.8950  0.7124
 3561WAT      O10893   4.022   1.369   1.860  0.1125 -0.3980 -0.1976
 3561WAT     H110894   4.015   1.405   1.949  1.6734 -0.4323 -0.0244
 3561WAT     H210895   4.080   1.293   1.869  1.3415  0.3385 -1.4123
 3562WAT      O10896   1.595   4.746   0.360 -0.5521 -0.7672 -0.1383
 3562WAT     H110897   1.678   4.738   0.312 -2.2721 -0.1154 -3.5589
 3562WAT     H210898   1.595   4.836   0.393 -0.5905 -0.1367 -1.7346
 3563WAT      O10899   2.459   4.086   0.541  0.3518 -0.2813 -0.0434
 3563WAT     H110900   2.427   4.177   0.540  0.7835 -0.1217  0.5031
 3563WAT     H210901   2.381   4.035   0.565  0.3252  0.0413  0.6008
 3564WAT      O10902   1.175   0.536   0.945 -0.1807 -0.1227 -0.4669
 3564WAT     H110903   1.251   0.485   0.971  0.1494 -0.6477 -2.2990
 3564WAT     H210904   1.196   0.567   0.857 -1.4085  1.1113 -0.3691
 3565WAT      O10905   0.728   0.576   1.489  0.0526  0.5176  0.6051
 3565WAT     H110906   0.691   0.502   1.539 -0.7455  0.2114 -0.4081
 3565WAT     H210907   0.662   0.594   1.422  0.5648  1.7108  0.4143
 3566WAT      O10908   3.080   1.033   0.772 -0.2032  0.4083 -0.5596
 3566WAT     H110909   2.991   1.018   0.738 -0.8615  1.1887  0.7419
 3566WAT     H210910   3.118   0.945   0.780 -1.7160 -0.1666  1.0593
 3567WAT      O10911   2.984   4.455   2.966 -0.1625  0.6044  0.5156
 3567WAT     H110912   3.025   4.385   2.914  0.4869  1.1820  0.2362
 3567WAT     H210913   2.998   4.534   2.914 -0.3038  1.0478  1.1511
 3568WAT      O10914   3.357   4.596   0.295  0.6255  0.3746 -0.6974
 3568WAT     H110915   3.280   4.563   0.341 -0.9592  1.8683 -2.1119
 3568WAT     H210916   3.396   4.659   0.354  0.4069  0.0620 -0.2153
 3569WAT      O10917   1.992   1.477   0.603  0.3372 -0.4949  0.1078
 3569WAT     H110918   2.073   1.520   0.577  1.3646 -1.3091  1.7875
 3569WAT     H210919   1.995   1.392   0.559 -0.2185 -0.0857 -0.7672
 3570WAT      O10920   4.258   3.136   3.310  0.0937 -0.1113 -0.1942
 3570WAT     H110921   4.255   3.121   3.404 -0.3023 -0.5477 -0.2779
 3570WAT     H210922   4.166   3.149   3.284  0.2573  0.7191 -0.4058
 3571WAT      O10923   3.910   0.318   4.510 -0.5922  0.3584  0.0794
 3571WAT     H110924   3.843   0.357   4.566  0.0384 -0.1623  1.2335
 3571WAT     H210925   3.983   0.301   4.569  0.3459  0.3981 -1.0509
 3572WAT      O10926   3.228   0.665   1.253 -0.0808 -0.0678  0.1953
 3572WAT     H110927   3.137   0.676   1.284  0.4455  1.2106  1.4307
 3572WAT     H210928   3.281   0.671   1.333  1.1460 -0.0001 -0.6013
 3573WAT      O10929   1.702   1.149   1.980 -0.5791  0.0581 -0.1164
 3573WAT     H110930   1.654   1.230   1.999 -0.2821  0.1676  0.1854
 3573WAT     H210931   1.754   1.170   1.903 -1.4071 -0.2271 -0.7663
 3574WAT      O10932   0.027   3.040   1.330 -0.1532  0.2419 -0.0967
 3574WAT     H110933   0.107   3.026   1.381 -0.4782 -0.5995  0.1998
 3574WAT     H210934   0.058   3.065   1.243  0.4955 -1.5730 -0.4451
 3575WAT      O10935   3.410   4.948   0.269  0.7970 -0.7026  0.2017
 3575WAT     H110936   3.406   4.866   0.220 -0.9612 -0.9109  0.5996
 3575WAT     H210937   3.410   4.920   0.361  0.1244 -0.2824  0.3383
 3576WAT      O10938   3.403   3.565   3.870  0.2369  0.4386  0.4358
 3576WAT     H110939   3.426   3.473   3.861 -0.4169  0.1621  1.4466
 3576WAT     H210940   3.308   3.567   3.858  0.2500  0.9849  0.3870
 3577WAT      O10941   0.478   3.145   3.024 -0.1749  0.5197 -0.2059
 3577WAT     H110942   0.479   3.102   2.938  1.1139  1.1772 -0.5459
 3577WAT     H210943   0.407   3.208   3.018 -2.2325 -1.5747  0.3582
 3578WAT      O10944   2.130   3.598   3.872 -0.3014 -0.6806 -0.5063
 3578WAT     H110945   2.153   3.683   3.910 -0.5223 -1.0193  0.4067
 3578WAT     H210946   2.178   3.535   3.925  0.1161 -1.1204 -1.3810
 3579WAT      O10947   1.613   1.372   3.708  0.0104  0.1052 -0.3408
 3579WAT     H110948   1.530   1.391   3.751 -0.7322  0.4138 -1.8444
 3579WAT     H210949   1.679   1.406   3.769 -0.8669 -1.2599  1.4687
 3580WAT      O10950   3.042   2.965   1.537 -0.6832 -0.4949 -0.2171
 3580WAT     H110951   3.056   2.930   1.449  0.8946 -0.5622  0.0196
 3580WAT     H210952   3.016   2.890   1.589 -3.3559 -0.1587 -0.9334
 3581WAT      O10953   2.161   3.312   0.319 -0.4536 -0.4223  0.1325
 3581WAT     H110954   2.166   3.279   0.408 -1.1078 -3.3292 -0.8048
 3581WAT     H210955   2.251   3.309   0.286 -0.1523  0.9998  0.7479
 3582WAT      O10956   3.473   3.305   3.912 -0.2641 -0.3553  0.5949
 3582WAT     H110957   3.568   3.300   3.927 -0.3305  0.1273  1.2504
 3582WAT     H210958   3.434   3.269   3.992 -0.6336  1.2794  1.1904
 3583WAT      O10959   0.191   3.672   0.679  0.4805 -0.4005  0.2839
 3583WAT     H110960   0.282   3.651   0.656 -0.0920 -2.1279 -0.4850
 3583WAT     H210961   0.161   3.597   0.730  0.1486  1.1521  2.5303
 3584WAT      O10962   0.898   4.793   4.482 -0.0081 -0.2308 -0.2455
 3584WAT     H110963   0.821   4.827   4.436 -0.2452  0.2095  0.4549
 3584WAT     H210964   0.970   4.803   4.420 -0.1966  0.9547 -0.2916
 3585WAT      O10965   1.327   2.495   3.007  0.1776 -0.1355  0.4512
 3585WAT     H110966   1.418   2.493   3.036  0.6312  2.6925 -0.4560
 3585WAT     H210967   1.329   2.460   2.918  0.4415  0.2283  0.3141
 3586WAT      O10968   1.202   2.916   4.172 -0.1255  0.2935  0.3036
 3586WAT     H110969   1.248   2.856   4.231  0.6395  1.3379  0.7988
 3586WAT     H210970   1.168   2.859   4.103  2.3720 -0.4800 -0.3816
 3587WAT      O10971   1.249   2.839   3.581 -0.4266 -0.0464  0.0267
 3587WAT     H110972   1.244   2.928   3.546  4.0735 -0.7626 -3.3945
 3587WAT     H210973   1.207   2.784   3.515 -0.4497 -0.7004  0.5703
 3588WAT      O10974   2.429   1.911   0.780  0.1689 -0.3898 -0.3398
 3588WAT     H110975   2.428   1.938   0.872  2.6742  0.2180 -0.4158
 3588WAT     H210976   2.517   1.934   0.750 -0.0929 -1.9368 -2.4866
 3589WAT      O10977   0.599   4.663   2.316 -0.5162 -0.0540 -0.6969
 3589WAT     H110978   0.513   4.671   2.357 -0.6446 -0.7443 -0.8278
 3589WAT     H210979   0.631   4.577   2.343  0.5474  0.5619  0.1266
 3590WAT      O10980   0.943   1.007   1.336  0.0061 -0.2470 -0.0104
 3590WAT     H110981   1.013   0.995   1.399  1.8307  0.0494 -1.8692
 3590WAT     H210982   0.943   0.927   1.284  0.7843  0.7624 -1.6642
 3591WAT      O10983   3.143   2.809   5.030  0.0131  0.2345  0.0640
 3591WAT     H110984   3.156   2.771   5.116  0.6532  0.7259  0.1971
 3591WAT     H210985   3.096   2.891   5.047  0.4489  0.5055 -0.0100
 3592WAT      O10986   1.842   0.768   3.705  0.3086  0.1413 -0.1810
 3592WAT     H110987   1.889   0.689   3.679 -0.8564 -1.4358  2.1410
 3592WAT     H210988   1.774   0.779   3.639 -0.3506 -1.6328  0.1420
 3593WAT      O10989   3.654   2.560   3.572  0.1382 -0.4593 -0.0549
 3593WAT     H110990   3.699   2.595   3.649 -2.6850  0.6609  1.2324
 3593WAT     H210991   3.660   2.629   3.507  1.7511 -1.0540 -0.6025
 3594WAT      O10992   3.687   0.987   0.469 -0.0732 -0.5665  0.2489
 3594WAT     H110993   3.753   0.921   0.491  0.8249  0.7084  1.5593
 3594WAT     H210994   3.635   0.997   0.549 -0.7763 -0.3206 -0.2300
 3595WAT      O10995   1.165   0.888   4.746  0.0832 -0.1308  0.4089
 3595WAT     H110996   1.115   0.967   4.727  1.1659  0.2266 -1.0685
 3595WAT     H210997   1.249   0.920   4.780  0.9277 -0.5719 -1.1564
 3596WAT      O10998   0.659   0.397   5.078 -0.2092  0.1153  0.3721
 3596WAT     H110999   0.730   0.447   5.037 -0.1951  1.2465  1.6996
 3596WAT     H211000   0.608   0.364   5.004  0.7901  0.6317 -0.5799
 3597WAT      O11001   0.243   3.207   4.106  0.5297  0.4593 -0.2119
 3597WAT     H111002   0.319   3.155   4.131  0.7633  0.4509 -0.9477
 3597WAT     H211003   0.211   3.242   4.189  0.6325 -0.4912  0.2498
 3598WAT      O11004   3.275   2.417   3.721  0.6028 -0.4449  0.0053
 3598WAT     H111005   3.265   2.441   3.629 -4.3441 -2.0367 -0.1755
 3598WAT     H211006   3.255   2.497   3.769 -1.1312 -0.5493 -0.4583
 3599WAT      O11007   0.160   0.870   2.121 -0.2861  0.0368 -0.2708
 3599WAT     H111008   0.127   0.926   2.051  1.1164 -0.5733 -1.4865
 3599WAT     H211009   0.178   0.930   2.193 -1.0851  0.7827 -0.6738
 3600WAT      O11010   0.604   4.777   0.302 -0.0957  0.7374 -0.1102
 3600WAT     H111011   0.682   4.811   0.345 -0.4006  0.1003  0.9748
 3600WAT     H211012   0.531   4.821   0.345 -0.4208 -0.1693  0.2973
 3601WAT      O11013   3.276   3.245   1.532 -0.0092 -0.5482 -0.2695
 3601WAT     H111014   3.216   3.211   1.599 -0.4699  0.3812 -0.1885
 3601WAT     H211015   3.358   3.262   1.579 -0.0591 -0.7204 -0.1229
 3602WAT      O11016   2.533   3.026   0.457 -0.5053 -0.5483  0.0734
 3602WAT     H111017   2.453   2.978   0.437 -0.1336 -1.1974  0.1324
 3602WAT     H211018   2.602   2.981   0.408 -0.0610 -0.4158  0.5604
 3603WAT      O11019   1.760   0.508   3.318 -0.0007 -0.2579 -0.1295
 3603WAT     H111020   1.670   0.532   3.300 -0.8624 -1.9144  1.5926
 3603WAT     H211021   1.754   0.436   3.381  2.4787 -1.4473 -1.0771
 3604WAT      O11022   3.732   3.097   0.674  0.1255  0.3071 -0.1162
 3604WAT     H111023   3.698   3.146   0.599 -0.5881 -1.6576 -1.1298
 3604WAT     H211024   3.657   3.089   0.733  0.2950  0.6037  0.1395
 3605WAT      O11025   1.677   0.219   4.034  0.0857  0.0051 -0.2611
 3605WAT     H111026   1.603   0.264   3.992 -0.7560 -0.6511  0.4829
 3605WAT     H211027   1.697   0.146   3.975 -0.1005 -0.0260 -0.2864
 3606WAT      O11028   3.406   1.086   3.370 -0.0773 -0.4410  0.6297
 3606WAT     H111029   3.455   1.153   3.417  0.1479  0.0469 -0.2830
 3606WAT     H211030   3.388   1.018   3.436  3.6418 -1.7008  0.5627
 3607WAT      O11031   1.186   1.007   2.722  0.1501 -0.0882 -0.2253
 3607WAT     H111032   1.204   0.922   2.763  2.0773 -0.0431 -0.8740
 3607WAT     H211033   1.096   1.000   2.691  0.5074 -2.2226 -0.9584
 3608WAT      O11034   4.052   1.889   0.810 -0.6929 -0.5265  0.2433
 3608WAT     H111035   4.026   1.938   0.888  2.1499  0.3345  0.7664
 3608WAT     H211036   3.996   1.925   0.740 -0.2348  1.9433  1.0393
 3609WAT      O11037   4.424   1.181   5.177  0.3131  0.1840  0.5780
 3609WAT     H111038   4.515   1.206   5.161  0.0546  0.7936  0.0230
 3609WAT     H211039   4.388   1.253   5.228 -0.3470  0.8249 -0.7481
 3610WAT      O11040   1.873   0.814   4.480  0.1462  0.0500 -0.2136
 3610WAT     H111041   1.923   0.754   4.536 -1.4016 -2.0611 -0.9689
 3610WAT     H211042   1.829   0.757   4.417 -4.3166  1.4701  1.2290
 3611WAT      O11043   1.726   1.271   1.318  0.0386 -0.4425  0.5837
 3611WAT     H111044   1.705   1.277   1.412 -0.2503 -3.0759  0.7645
 3611WAT     H211045   1.642   1.285   1.274 -0.0888 -0.4835  0.8081
 3612WAT      O11046   2.930   3.838   4.132  0.0905  0.6607  0.0714
 3612WAT     H111047   2.879   3.915   4.159  0.7226  0.5276  1.7586
 3612WAT     H211048   2.912   3.772   4.199  0.4408 -0.2959 -0.7394
 3613WAT      O11049   3.891   1.596   4.072  0.4109 -0.1936 -0.3524
 3613WAT     H111050   3.907   1.504   4.091  1.3776 -0.0966 -0.6505
 3613WAT     H211051   3.800   1.599   4.043 -0.2444 -0.7587  1.4642
 3614WAT      O11052   2.876   3.513   4.117 -0.5096  0.1664  0.1069
 3614WAT     H111053   2.961   3.528   4.076 -1.4787  0.4318 -1.9697
 3614WAT     H211054   2.861   3.419   4.106 -0.0423 -0.0976  1.4860
 3615WAT      O11055   0.092   2.476   0.373  0.4513 -0.6791  0.3762
 3615WAT     H111056   0.100   2.383   0.355 -0.0523 -0.7948  0.7196
 3615WAT     H211057   0.116   2.519   0.291  3.3862 -0.9987  0.9735
 3616WAT      O11058   2.419   1.927   4.648 -0.4342 -1.0068  0.6466
 3616WAT     H111059   2.481   1.966   4.709  1.3086 -0.8799 -1.1226
 3616WAT     H211060   2.472   1.872   4.591 -1.6067  0.5988 -2.1736
 3617WAT      O11061   3.302   2.490   3.453  1.3566 -0.1827  0.1498
 3617WAT     H111062   3.370   2.487   3.386  1.4569  0.5318  0.2168
 3617WAT     H211063   3.253   2.570   3.435  0.5983 -0.6227  0.1734
 3618WAT      O11064   2.448   4.664   4.854  0.1126 -0.0630 -0.0646
 3618WAT     H111065   2.421   4.720   4.782 -1.5521  2.4464  2.3094
 3618WAT     H211066   2.544   4.669   4.854  0.1555 -0.2277 -2.1002
 3619WAT      O11067   0.621   2.057   0.290  0.1616  0.2766  0.1049
 3619WAT     H111068   0.674   2.092   0.219 -0.9632  1.9606  0.0367
 3619WAT     H211069   0.599   2.133   0.343  0.2351 -0.8200  1.7759
 3620WAT      O11070   4.076   4.599   1.525 -0.9339 -0.6379 -0.1398
 3620WAT     H111071   4.036   4.524   1.570 -2.6882 -1.1742 -2.4004
 3620WAT     H211072   4.164   4.569   1.502  0.0303 -0.3565  2.7089
 3621WAT      O11073   4.461   4.204   2.664 -0.1985  0.1688  0.2795
 3621WAT     H111074   4.505   4.127   2.627  0.0685  0.2437  0.4314
 3621WAT     H211075   4.467   4.270   2.595 -0.1180  0.1624  0.2804
 3622WAT      O11076   2.617   2.554   4.837 -0.1686  0.3056  0.0987
 3622WAT     H111077   2.640   2.622   4.774 -0.0312 -1.1821 -1.4993
 3622WAT     H211078   2.541   2.511   4.800 -2.0365  1.3105  2.4550
 3623WAT      O11079   2.837   3.969   0.567 -0.3298 -0.1176 -0.5586
 3623WAT     H111080   2.799   3.883   0.544  0.0243 -0.3682 -0.2162
 3623WAT     H211081   2.777   4.032   0.528 -0.3547 -0.5271 -1.1976
 3624WAT      O11082   3.231   1.183   4.346  0.0625  0.6225 -0.1959
 3624WAT     H111083   3.139   1.208   4.356 -0.5869 -1.5593 -0.2283
 3624WAT     H211084   3.236   1.095   4.382  2.0520  0.4928 -0.6824
 3625WAT      O11085   1.193   1.195   0.242 -0.8030  0.2920  0.2296
 3625WAT     H111086   1.152   1.218   0.159 -0.3549  1.6485  0.3668
 3625WAT     H211087   1.286   1.216   0.229 -0.4859 -0.8109  0.6101
 3626WAT      O11088   2.893   3.508   1.312 -0.2507  0.8010  0.0548
 3626WAT     H111089   2.971   3.495   1.366 -0.2618 -2.0263 -0.4493
 3626WAT     H211090   2.926   3.551   1.233  0.8103 -0.2551 -0.1052
 3627WAT      O11091   0.233   0.988   0.702 -0.0189  0.3710 -0.7449
 3627WAT     H111092   0.154   0.997   0.755  1.8666 -0.8267  2.5812
 3627WAT     H211093   0.224   0.903   0.658 -0.7715  0.4880 -0.8255
 3628WAT      O11094   1.538   5.108   0.091  0.3259 -0.0709 -0.1204
 3628WAT     H111095   1.529   5.170   0.019 -1.0428  0.0159  0.1064
 3628WAT     H211096   1.495   5.028   0.060 -0.0092 -0.1296  0.4843
 3629WAT      O11097   1.956   4.607   2.434 -0.3995  0.4295  0.5034
 3629WAT     H111098   1.917   4.652   2.359  1.6638 -0.3028 -1.1426
 3629WAT     H211099   1.882   4.586   2.491 -1.9810  1.6065 -0.9957
 3630WAT      O11100   3.441   0.417   1.300 -0.4587  0.1368  0.0006
 3630WAT     H111101   3.487   0.388   1.221  0.5710 -0.2391  0.7138
 3630WAT     H211102   3.395   0.497   1.274  0.5128  0.4591 -0.7675
 3631WAT      O11103   4.358   0.099   2.399 -0.7703  0.5406 -0.0208
 3631WAT     H111104   4.446   0.063   2.402 -0.3606  1.5297  0.2795
 3631WAT     H211105   4.326   0.078   2.311 -0.7748 -1.0171  0.3278
 3632WAT      O11106   2.244   2.294   5.266 -0.1399  0.2793  0.5516
 3632WAT     H111107   2.236   2.329   5.177  1.3400 -0.3640  0.1332
 3632WAT     H211108   2.301   2.356   5.311  0.9015 -0.5290  0.3817
 3633WAT      O11109   1.324   2.068   0.108  0.3896 -0.0979 -0.1094
 3633WAT     H111110   1.245   2.034   0.067 -0.1348  1.8969 -0.8782
 3633WAT     H211111   1.320   2.036   0.198  0.1567 -2.2912 -0.8364
 3634WAT      O11112   0.106   3.674   2.335  0.0850  0.0646 -0.2197
 3634WAT     H111113   0.198   3.689   2.356  0.1342  1.3102 -1.2116
 3634WAT     H211114   0.065   3.761   2.340 -1.3936 -0.6479  1.6612
 3635WAT      O11115   1.992   4.299   1.775 -0.4391  1.1206 -0.0575
 3635WAT     H111116   1.984   4.332   1.685  2.3455  2.3459  0.0211
 3635WAT     H211117   2.077   4.333   1.805  0.0638 -1.6288  2.0599
 3636WAT      O11118   2.288   2.685   2.052 -0.3137 -0.0509  0.4134
 3636WAT     H111119   2.366   2.643   2.088 -1.0280 -0.3702  1.6498
 3636WAT     H211120   2.309   2.698   1.959  1.3183  0.1499  0.7748
 3637WAT      O11121   2.138   2.782   4.833 -0.0923 -0.2891 -0.2255
 3637WAT     H111122   2.056   2.732   4.839 -1.3170  1.6159 -0.1986
 3637WAT     H211123   2.168   2.769   4.743 -1.6823  0.7948 -0.9558
 3638WAT      O11124   2.020   0.603   4.616  0.0631 -0.3318  0.3201
 3638WAT     H111125   2.045   0.530   4.558  0.2760  0.4707 -0.6177
 3638WAT     H211126   2.101   0.653   4.628  0.0170 -0.4729  1.3090
 3639WAT      O11127   3.563   4.700   3.878  0.5406 -0.0715 -0.9704
 3639WAT     H111128   3.568   4.614   3.837  0.6580 -0.5144 -0.0427
 3639WAT     H211129   3.594   4.760   3.810 -0.2528 -0.6651 -1.8778
 3640WAT      O11130   0.047   3.459   0.307 -0.2263 -0.0121  0.0337
 3640WAT     H111131  -0.010   3.428   0.236  0.6180  0.1223 -0.7299
 3640WAT     H211132   0.091   3.380   0.339  2.1362  0.3070 -2.1010
 3641WAT      O11133   3.684   1.253   0.392 -0.3399 -0.2988 -0.0716
 3641WAT     H111134   3.731   1.179   0.430 -1.4631 -0.7919  0.4003
 3641WAT     H211135   3.717   1.329   0.440 -0.1808 -0.6653  0.4067
 3642WAT      O11136   1.702   2.228   2.522 -0.0268 -0.4593  0.5218
 3642WAT     H111137   1.678   2.283   2.447  0.3373  0.3420  0.9804
 3642WAT     H211138   1.641   2.155   2.518 -0.1506 -0.3199 -0.4352
 3643WAT      O11139   1.845   3.479   5.263  0.4191 -0.0669 -0.1439
 3643WAT     H111140   1.918   3.529   5.227  0.1656  0.9417  0.7111
 3643WAT     H211141   1.778   3.544   5.285 -1.0758 -1.0272 -1.6089
 3644WAT      O11142   0.486   4.464   3.265 -0.4555 -0.1069 -0.3646
 3644WAT     H111143   0.537   4.409   3.324 -0.7151  0.1032  0.0656
 3644WAT     H211144   0.408   4.413   3.245 -0.5648 -0.0119 -0.1876
 3645WAT      O11145   1.617   0.860   5.057  0.0527 -0.9716 -0.2140
 3645WAT     H111146   1.611   0.883   5.150 -0.8129  0.3827 -0.5627
 3645WAT     H211147   1.709   0.838   5.044  0.5688  0.5097  0.6153
 3646WAT      O11148   3.159   0.527   3.036 -0.2187  0.2995  0.0960
 3646WAT     H111149   3.197   0.481   3.110  1.2189  0.8404 -0.2759
 3646WAT     H211150   3.119   0.458   2.983  1.8178 -0.5682 -0.4100
 3647WAT      O11151   2.075   4.767   3.866 -0.1872 -0.3452  0.3820
 3647WAT     H111152   2.141   4.829   3.834  0.5215 -0.8378  0.8698
 3647WAT     H211153   2.061   4.706   3.794  1.4917 -1.5239  0.9957
 3648WAT      O11154   4.270   0.620   1.896 -0.2615  0.4549  0.3706
 3648WAT     H111155   4.264   0.688   1.964  0.2373 -1.0501  1.9850
 3648WAT     H211156   4.362   0.594   1.896 -0.2159  0.5413 -1.0351
 3649WAT      O11157   2.596   1.577   0.458 -0.4973 -0.3760  0.3718
 3649WAT     H111158   2.605   1.665   0.420  0.3635 -0.6732 -0.1695
 3649WAT     H211159   2.656   1.576   0.532 -1.5769 -0.0578  1.2644
 3650WAT      O11160   2.741   0.414   1.625  0.0952 -0.1725 -0.3163
 3650WAT     H111161   2.773   0.324   1.615  1.2825  0.3002 -0.9229
 3650WAT     H211162   2.666   0.406   1.684 -0.3346 -1.6655 -1.0159
 3651WAT      O11163   2.480   0.639   1.083 -0.2268  0.2695 -0.4061
 3651WAT     H111164   2.531   0.700   1.029 -2.1595  0.6476 -1.9147
 3651WAT     H211165   2.397   0.683   1.098 -0.5772 -0.7968  1.0247
 3652WAT      O11166   4.201   4.891   3.290  0.1942 -0.1457 -0.2666
 3652WAT     H111167   4.212   4.967   3.233 -2.3419  1.5954  1.3361
 3652WAT     H211168   4.221   4.924   3.378 -1.5457 -1.1175  0.5425
 3653WAT      O11169   1.895   2.413   2.320 -0.4842  0.1789  0.0387
 3653WAT     H111170   1.917   2.321   2.332  3.0362  1.0314  1.3713
 3653WAT     H211171   1.960   2.445   2.258 -1.3061  1.9129  0.0028
 3654WAT      O11172   3.367   3.465   2.783 -0.2344 -0.3654  0.0062
 3654WAT     H111173   3.318   3.459   2.701 -1.0863 -1.4311  0.5715
 3654WAT     H211174   3.442   3.522   2.762  0.5038 -1.9453 -1.9537
 3655WAT      O11175   4.089   3.806   4.266  0.2738 -0.5097 -0.8736
 3655WAT     H111176   4.026   3.807   4.195 -0.6774 -1.6571 -0.0788
 3655WAT     H211177   4.125   3.717   4.266  1.1609 -0.1695 -0.6786
 3656WAT      O11178   4.064   0.310   0.361  0.0345  0.3390  0.1488
 3656WAT     H111179   3.975   0.318   0.326  0.1895 -0.9519 -0.6172
 3656WAT     H211180   4.121   0.311   0.283  0.8314  2.5291  0.7056
 3657WAT      O11181   3.011   1.247   0.532 -0.8315 -0.0947  0.0205
 3657WAT     H111182   3.037   1.276   0.445  0.0594  0.4951  0.4655
 3657WAT     H211183   3.001   1.152   0.524 -0.5586 -0.0677 -0.6798
 3658WAT      O11184   2.658   0.899   1.920 -0.0019 -0.7180  0.1601
 3658WAT     H111185   2.655   0.967   1.987 -1.0850 -1.8580  1.3331
 3658WAT     H211186   2.717   0.833   1.955 -0.2168 -1.1197 -0.2177
 3659WAT      O11187   0.343   2.882   5.168 -0.0839  0.4798 -0.1039
 3659WAT     H111188   0.351   2.792   5.138  1.1402  0.7762 -0.7740
 3659WAT     H211189   0.397   2.932   5.106 -0.6244  1.6442  0.3420
 3660WAT      O11190   0.413   2.209   2.539 -0.3225  0.2539 -0.0788
 3660WAT     H111191   0.508   2.223   2.545 -0.4260  0.6108  1.2048
 3660WAT     H211192   0.394   2.208   2.446  1.0627 -0.6182 -0.3723
 3661WAT      O11193   1.514   0.735   0.842 -0.6853 -0.0134 -0.6097
 3661WAT     H111194   1.584   0.791   0.808 -1.4585  0.6222 -1.2022
 3661WAT     H211195   1.517   0.656   0.786 -0.4251  0.0020 -0.6169
 3662WAT      O11196   2.451   0.547   3.710 -0.1757 -0.4151  0.3074
 3662WAT     H111197   2.456   0.539   3.614 -2.7194 -0.6013  0.0999
 3662WAT     H211198   2.527   0.600   3.734  1.9032 -2.3860 -1.4854
 3663WAT      O11199   3.927   2.890   1.114 -0.1247 -0.3108  0.0841
 3663WAT     H111200   3.867   2.865   1.184  0.4851 -1.4862  0.2101
 3663WAT     H211201   3.952   2.980   1.135  2.3079 -1.4774  3.1011
 3664WAT      O11202   0.937   4.177   3.759  0.2714  0.1538 -0.1758
 3664WAT     H111203   1.022   4.135   3.773 -0.8908 -2.5308 -0.6111
 3664WAT     H211204   0.898   4.183   3.846 -0.8504 -2.7865 -0.3766
 3665WAT      O11205   1.670   2.692   4.545  0.3987  0.2181 -0.1512
 3665WAT     H111206   1.600   2.689   4.609  0.2543  0.2066 -0.3095
 3665WAT     H211207   1.638   2.751   4.477 -0.5548 -1.7927 -1.5272
 3666WAT      O11208   2.309   1.178   1.359  0.0577  0.4026  0.5355
 3666WAT     H111209   2.340   1.088   1.366  2.4686  1.1337  0.1820
 3666WAT     H211210   2.233   1.173   1.301 -0.3489 -1.4597  1.1543
 3667WAT      O11211   3.814   2.832   1.395 -0.7709  0.8826 -0.2837
 3667WAT     H111212   3.733   2.804   1.353 -0.8659  0.9425 -0.1399
 3667WAT     H211213   3.786   2.882   1.471 -0.6613 -1.5819  1.5271
 3668WAT      O11214   3.532   1.565   1.614 -0.8704 -0.4242 -0.0428
 3668WAT     H111215   3.576   1.649   1.598 -1.2433  0.5145  3.2003
 3668WAT     H211216   3.597   1.500   1.588  1.0916  0.9152  1.1748
 3669WAT      O11217   3.797   0.105   2.010 -0.0439  0.2721 -0.5838
 3669WAT     H111218   3.881   0.152   2.004 -0.8343  1.7343 -0.5301
 3669WAT     H211219   3.809   0.030   1.952  1.6647 -0.1410  0.2231
 3670WAT      O11220   3.458   1.878   0.418  0.0221 -0.2320 -0.0227
 3670WAT     H111221   3.528   1.885   0.353  0.0384 -0.4841 -0.0330
 3670WAT     H211222   3.473   1.952   0.477 -0.6878  0.6961 -0.9716
 3671WAT      O11223   2.233   1.427   4.778 -0.3108 -0.1782  0.0211
 3671WAT     H111224   2.310   1.390   4.735  0.1126 -0.7836  1.2601
 3671WAT     H211225   2.159   1.379   4.742 -0.1900  0.7638 -1.5702
 3672WAT      O11226   4.125   3.071   2.086 -0.0038 -0.0101  0.0446
 3672WAT     H111227   4.189   3.043   2.021  1.5214 -0.2078  1.5454
 3672WAT     H211228   4.172   3.063   2.170 -1.5320  1.2285  1.0654
 3673WAT      O11229   1.057   2.942   0.468  0.3957  0.5243 -0.2210
 3673WAT     H111230   1.123   2.891   0.515  0.9258  1.6280  0.2720
 3673WAT     H211231   1.073   2.922   0.376  1.3079  0.6304 -0.1002
 3674WAT      O11232   1.863   1.258   4.058 -0.0967  0.0937 -0.3987
 3674WAT     H111233   1.958   1.265   4.063  0.0953 -1.3068 -1.2906
 3674WAT     H211234   1.835   1.234   4.146  0.7688 -2.6141 -0.7551
 3675WAT      O11235   0.364   4.342   0.425 -0.0437 -0.2083  0.0822
 3675WAT     H111236   0.345   4.363   0.333  0.2048  0.2124  0.1239
 3675WAT     H211237   0.286   4.296   0.455 -0.9761  1.3799  0.2078
 3676WAT      O11238   2.808   2.681   4.068 -0.5553 -0.6069 -0.4114
 3676WAT     H111239   2.792   2.687   3.974 -0.5665  1.2830 -0.3225
 3676WAT     H211240   2.788   2.768   4.102 -1.4344 -1.4749  1.4910
 3677WAT      O11241   0.653   1.830   1.126 -0.2010  0.6477  0.1325
 3677WAT     H111242   0.615   1.778   1.055 -3.3884  0.8165  1.5140
 3677WAT     H211243   0.690   1.765   1.186 -0.3867  0.2749 -0.1554
 3678WAT      O11244   0.692   3.019   3.981 -0.3953 -0.2050  0.2258
 3678WAT     H111245   0.752   3.086   3.950 -0.8723  0.3743  0.5349
 3678WAT     H211246   0.748   2.942   3.996 -0.1118 -0.4467 -1.7959
 3679WAT      O11247   0.536   4.728   4.512  0.2187 -0.4009  0.3962
 3679WAT     H111248   0.589   4.793   4.466  0.4110  0.0846  1.2632
 3679WAT     H211249   0.554   4.646   4.467 -0.3568  0.2083 -0.9928
 3680WAT      O11250   2.713   0.809   1.330  0.1790  0.4121 -0.0573
 3680WAT     H111251   2.659   0.731   1.315 -0.7249  0.5527  2.0349
 3680WAT     H211252   2.791   0.776   1.374  1.6745  0.2739 -2.6370
 3681WAT      O11253   0.927   3.274   0.030  0.1249  0.4172  0.1774
 3681WAT     H111254   0.867   3.285  -0.044  0.2185 -0.7982 -0.0900
 3681WAT     H211255   0.984   3.350   0.026 -0.7651  1.0911 -0.1523
 3682WAT      O11256   1.030   1.821   4.386 -0.4593 -0.2038 -0.3889
 3682WAT     H111257   1.078   1.882   4.443 -0.4683  0.0412 -0.6423
 3682WAT     H211258   0.983   1.764   4.447 -1.9744  1.2384 -0.1268
 3683WAT      O11259   0.055   2.714   3.194 -0.1447 -0.1290  0.0940
 3683WAT     H111260   0.041   2.672   3.279  0.2835  0.3666  0.4183
 3683WAT     H211261   0.029   2.805   3.208 -0.8096 -0.2173 -0.5248
 3684WAT      O11262   3.472   4.200   0.437 -0.1600  0.1239 -0.0125
 3684WAT     H111263   3.424   4.140   0.380  1.2872  0.0463 -1.2449
 3684WAT     H211264   3.506   4.267   0.377 -0.2703  1.1917  1.0770
 3685WAT      O11265   0.112   2.729   4.541  0.7324 -0.4601 -0.2017
 3685WAT     H111266   0.023   2.707   4.515  0.3296  0.6408  0.1898
 3685WAT     H211267   0.151   2.769   4.463 -0.6159  3.2541  0.8048
 3686WAT      O11268   4.073   1.517   0.805 -0.8108  0.3079  0.6558
 3686WAT     H111269   4.115   1.534   0.890  0.2970 -2.2929  0.7337
 3686WAT     H211270   4.087   1.423   0.791 -1.6642  0.5211 -2.0552
 3687WAT      O11271   2.815   0.894   2.447 -0.1126 -0.1175  0.1478
 3687WAT     H111272   2.906   0.897   2.478  1.0013  1.4572 -2.8048
 3687WAT     H211273   2.798   0.801   2.433  1.1066 -0.4394  0.6192
 3688WAT      O11274   2.562   2.371   5.132  0.3076 -0.2471  0.3152
 3688WAT     H111275   2.542   2.310   5.061  1.3713 -1.3461  0.9140
 3688WAT     H211276   2.482   2.374   5.184 -0.1358 -0.2379 -0.3511
 3689WAT      O11277   3.515   4.365   0.228 -0.0497  0.0625  0.5064
 3689WAT     H111278   3.518   4.461   0.232 -0.8550  0.1456 -0.6007
 3689WAT     H211279   3.469   4.345   0.146 -0.6122 -1.2608  1.1081
 3690WAT      O11280   1.837   0.824   0.003  0.2229 -0.0833  0.2545
 3690WAT     H111281   1.769   0.771   0.045  0.5907 -0.6323  0.1608
 3690WAT     H211282   1.805   0.914   0.011 -0.7622 -0.3792 -0.2423
 3691WAT      O11283   2.824   2.535   4.381 -0.1919  0.0180 -0.2714
 3691WAT     H111284   2.794   2.609   4.327 -0.1619 -0.0636 -0.4000
 3691WAT     H211285   2.868   2.576   4.455  2.5223  0.1321 -1.8399
 3692WAT      O11286   0.950   3.039   2.480  0.4869 -0.0500 -0.2627
 3692WAT     H111287   0.962   2.950   2.512  2.0623  0.1271 -0.2787
 3692WAT     H211288   0.994   3.095   2.544  1.1278  0.5493 -1.1823
 3693WAT      O11289   2.076   2.863   4.332 -0.3304  0.5618 -0.0889
 3693WAT     H111290   2.093   2.946   4.378  2.2467  1.5489 -2.5154
 3693WAT     H211291   2.010   2.885   4.267  0.9018  0.9931 -1.2413
 3694WAT      O11292   0.547   3.094   1.161  0.0685  0.1097 -0.7157
 3694WAT     H111293   0.617   3.127   1.218  0.4714 -0.6217 -0.7796
 3694WAT     H211294   0.471   3.087   1.218  0.3508 -0.1853 -0.3728
 3695WAT      O11295   0.505   0.907   3.566  0.1473  0.3250  0.1082
 3695WAT     H111296   0.483   0.961   3.490  0.9268  1.8009  0.8996
 3695WAT     H211297   0.439   0.930   3.632  0.7005  0.5845  0.5734
 3696WAT      O11298   2.087   3.301   4.100 -0.3925  0.5394  0.4427
 3696WAT     H111299   2.081   3.258   4.185 -1.2859 -0.5074 -0.1231
 3696WAT     H211300   2.159   3.362   4.109  1.2125 -1.3610  1.1693
 3697WAT      O11301   0.695   2.741   3.743 -0.2954  0.1459 -0.2016
 3697WAT     H111302   0.667   2.654   3.716  0.2124  0.0124 -0.2994
 3697WAT     H211303   0.635   2.764   3.815  0.0768 -0.6160  0.3641
 3698WAT      O11304   1.033   3.192   2.669  0.0353 -0.2202  0.3550
 3698WAT     H111305   0.941   3.175   2.689 -0.5786  0.0631 -1.9492
 3698WAT     H211306   1.051   3.275   2.711 -1.3239  0.6118 -0.6187
 3699WAT      O11307   3.747   3.564   3.867  0.0703  0.3551  0.0141
 3699WAT     H111308   3.709   3.626   3.929 -1.9891  0.0773 -0.8696
 3699WAT     H211309   3.751   3.482   3.914 -1.6679  0.0989 -0.2176
 3700WAT      O11310   2.612   1.251   3.640 -0.0529  0.4150 -0.1072
 3700WAT     H111311   2.531   1.256   3.589  1.3146  1.0328 -2.4138
 3700WAT     H211312   2.650   1.339   3.632  1.7666 -0.3870 -0.7895
 3701WAT      O11313   0.213   3.301   1.020  0.3632 -0.0440 -0.3110
 3701WAT     H111314   0.161   3.358   1.077  0.3863 -1.2727  0.9867
 3701WAT     H211315   0.303   3.312   1.051  0.2958 -1.1933  0.3267
 3702WAT      O11316   3.499   4.441   0.587 -0.0197  0.1683  0.5580
 3702WAT     H111317   3.478   4.358   0.546 -0.7798  1.2538 -1.4095
 3702WAT     H211318   3.595   4.448   0.581  0.6705 -2.2956  4.5182
 3703WAT      O11319   3.500   4.043   5.010  0.8754  0.2922  0.1539
 3703WAT     H111320   3.408   4.039   5.034  0.7121  0.3353 -0.4310
 3703WAT     H211321   3.504   4.111   4.942  1.4802  0.9175  0.7987
 3704WAT      O11322   2.798   0.629   2.352 -0.1362 -0.8795  0.3351
 3704WAT     H111323   2.797   0.548   2.301 -1.8047  0.0544 -1.1929
 3704WAT     H211324   2.828   0.601   2.439  2.1204 -2.6372 -0.8744
 3705WAT      O11325   3.532   2.101   0.579  0.3795 -0.1032 -0.7920
 3705WAT     H111326   3.505   2.092   0.671  1.7811 -0.6330 -0.4078
 3705WAT     H211327   3.546   2.194   0.568 -1.5313  0.2121 -1.0183
 3706WAT      O11328   2.820   2.974   0.805 -0.2101  0.4088  0.0893
 3706WAT     H111329   2.786   3.063   0.811 -0.2576  0.4876 -1.1045
 3706WAT     H211330   2.890   2.978   0.740  0.4746 -0.2354  0.7599
 3707WAT      O11331   3.429   2.019   4.590 -0.0720 -0.6383  0.2171
 3707WAT     H111332   3.468   2.070   4.661  3.2504 -0.1615 -1.7324
 3707WAT     H211333   3.472   1.934   4.595  0.0508 -0.6704 -1.0764
 3708WAT      O11334   4.396   3.366   3.265 -0.0138 -0.4344 -0.0895
 3708WAT     H111335   4.341   3.288   3.273 -2.5787  1.1978 -0.7893
 3708WAT     H211336   4.366   3.424   3.334  2.7972 -0.4672  1.3097
 3709WAT      O11337   2.836   4.791   2.006 -0.4128  0.0870  0.0144
 3709WAT     H111338   2.853   4.715   1.951  3.6552  0.1833  0.8233
 3709WAT     H211339   2.820   4.863   1.944  2.5528 -0.1141 -1.1577
 3710WAT      O11340   3.797   2.442   4.307  0.1696  0.1018  0.2071
 3710WAT     H111341   3.766   2.409   4.391  0.5648 -2.4195 -0.5621
 3710WAT     H211342   3.718   2.463   4.258 -0.1319 -0.5394  0.4172
 3711WAT      O11343   0.885   4.967   0.651  0.4817  0.8606  0.1402
 3711WAT     H111344   0.889   4.908   0.726  1.8699  0.4009 -0.2482
 3711WAT     H211345   0.974   5.003   0.645  0.3905  0.9074 -1.2581
 3712WAT      O11346   0.330   3.964   5.159 -0.0239 -0.1551 -0.3814
 3712WAT     H111347   0.256   3.995   5.106 -0.7647 -1.5536 -0.2178
 3712WAT     H211348   0.304   3.982   5.249  0.3842  0.4590 -0.3811
 3713WAT      O11349   4.386   1.349   0.685 -0.1050 -0.5338  0.4071
 3713WAT     H111350   4.452   1.417   0.677 -1.9009  1.1457 -1.2427
 3713WAT     H211351   4.336   1.372   0.763  0.4875 -1.1190  0.9702
 3714WAT      O11352   0.949   3.032   4.147 -0.0848  0.3843 -0.0107
 3714WAT     H111353   0.945   3.120   4.110  0.4676  0.4534  0.0805
 3714WAT     H211354   1.041   3.019   4.167 -0.2465  0.0053  0.5126
 3715WAT      O11355   0.365   1.890   1.091  0.2830  0.0687  0.4137
 3715WAT     H111356   0.449   1.851   1.114  0.7882  0.7095 -0.2642
 3715WAT     H211357   0.386   1.954   1.023 -0.4056  1.9247  1.8556
 3716WAT      O11358   2.704   1.119   2.079  0.1688 -0.6050  0.9698
 3716WAT     H111359   2.797   1.125   2.103  0.4563 -1.3450  0.1105
 3716WAT     H211360   2.681   1.209   2.054  1.2286 -0.7407 -0.7112
 3717WAT      O11361   1.902   1.610   4.843 -0.5249 -0.5060  0.5576
 3717WAT     H111362   1.995   1.622   4.825 -0.5017 -1.3463  0.0489
 3717WAT     H211363   1.899   1.586   4.936 -0.2865  0.0127  0.7026
 3718WAT      O11364   4.376   3.946   0.477 -0.4118  0.5273  0.0048
 3718WAT     H111365   4.287   3.916   0.496 -0.4222  1.6779  2.0648
 3718WAT     H211366   4.423   3.866   0.453 -1.4366 -0.4936  1.2284
 3719WAT      O11367   1.283   3.526   1.921  0.2116  0.1674 -0.0449
 3719WAT     H111368   1.190   3.520   1.944  0.6123  2.4617  2.8251
 3719WAT     H211369   1.299   3.619   1.909  2.2243 -0.1442 -0.1305
 3720WAT      O11370   0.743   1.424   0.080  0.4184  0.4972 -0.1623
 3720WAT     H111371   0.831   1.456   0.101  1.5882 -1.6399 -1.4307
 3720WAT     H211372   0.709   1.394   0.164  1.2158  0.6505  0.2298
 3721WAT      O11373   3.399   2.899   2.429 -0.3180 -0.1756 -0.2200
 3721WAT     H111374   3.481   2.927   2.469 -0.2069 -0.1134 -0.4903
 3721WAT     H211375   3.333   2.955   2.470 -0.4712 -1.4344  1.3182
 3722WAT      O11376   0.218   3.961   0.727 -0.8018 -0.1108  0.6866
 3722WAT     H111377   0.234   3.867   0.737 -1.5194 -0.3369 -0.1571
 3722WAT     H211378   0.288   3.991   0.668  0.1364  0.1370  1.8874
 3723WAT      O11379   3.926   1.211   3.682  0.0530 -0.5610  0.2006
 3723WAT     H111380   4.000   1.173   3.634 -1.2536 -3.5957  0.3484
 3723WAT     H211381   3.957   1.214   3.773 -0.5793 -3.9469  0.6684
 3724WAT      O11382   3.321   2.288   2.061  0.4363 -0.1900 -0.2797
 3724WAT     H111383   3.299   2.263   2.151 -1.4429 -1.3507 -0.9973
 3724WAT     H211384   3.395   2.348   2.070 -0.2912  0.4399  2.0809
 3725WAT      O11385   3.869   0.797   5.263 -0.0472  0.4806 -0.2268
 3725WAT     H111386   3.822   0.881   5.266  0.2768  0.6439  2.4202
 3725WAT     H211387   3.808   0.734   5.302  0.9342  0.1881  0.8902
 3726WAT      O11388   3.619   4.476   2.761 -0.0439  0.7226 -0.8175
 3726WAT     H111389   3.698   4.530   2.758  0.2833  0.3945  0.8649
 3726WAT     H211390   3.552   4.533   2.799  0.1652  0.1669  0.4588
 3727WAT      O11391   1.356   2.229   1.944 -0.6028 -0.0234 -0.0534
 3727WAT     H111392   1.421   2.187   2.000  0.6004 -0.1511 -1.5085
 3727WAT     H211393   1.401   2.303   1.905 -1.4515  0.1284 -0.7907
 3728WAT      O11394   4.151   2.923   2.458  0.0214  0.0194 -0.0847
 3728WAT     H111395   4.185   2.908   2.546  0.3851 -0.9626 -0.3846
 3728WAT     H211396   4.205   2.994   2.423  1.1458 -0.8685 -0.1956
 3729WAT      O11397   1.424   4.493   1.877 -0.1649  0.0429  0.6126
 3729WAT     H111398   1.488   4.480   1.808  0.3153  1.1577  0.8246
 3729WAT     H211399   1.474   4.487   1.958 -0.4858  0.0135  0.8102
 3730WAT      O11400   3.758   2.180   0.878 -0.1960 -0.1617 -0.0577
 3730WAT     H111401   3.815   2.181   0.955 -0.0920  0.8764 -0.1246
 3730WAT     H211402   3.731   2.272   0.868 -0.7683 -0.4060 -0.8445
 3731WAT      O11403   0.746   3.134   2.728  0.2520  0.0052 -0.0450
 3731WAT     H111404   0.679   3.065   2.733 -0.0992  0.3341 -0.1836
 3731WAT     H211405   0.740   3.179   2.812  1.8722 -1.3975  0.8810
 3732WAT      O11406   2.140   2.400   4.001 -0.5821  0.0682 -0.0410
 3732WAT     H111407   2.234   2.403   3.982 -0.6738  0.8761 -0.3951
 3732WAT     H211408   2.131   2.326   4.061  0.6234  1.3066  1.7962
 3733WAT      O11409   0.822   1.972   1.483 -0.1179  0.0522 -0.4180
 3733WAT     H111410   0.767   1.899   1.512  0.4714  0.0450  0.7443
 3733WAT     H211411   0.760   2.038   1.452 -1.0418  1.0521  3.1078
 3734WAT      O11412   2.501   0.730   2.647  1.0023  0.0144 -0.2808
 3734WAT     H111413   2.450   0.739   2.567  0.0891  0.5151  0.3352
 3734WAT     H211414   2.461   0.657   2.693  2.3560 -1.1417 -0.8559
 3735WAT      O11415   2.501   1.580   2.960 -0.1143  0.5206 -0.0115
 3735WAT     H111416   2.557   1.560   3.035  0.4266  0.0881 -0.5253
 3735WAT     H211417   2.561   1.616   2.895 -0.8879  2.8368  0.4811
 3736WAT      O11418   1.698   0.206   0.847 -0.1874 -0.6565 -0.0695
 3736WAT     H111419   1.767   0.231   0.786  1.0105 -2.9734  0.2039
 3736WAT     H211420   1.629   0.270   0.834  1.4918  1.0024 -1.2811
 3737WAT      O11421   4.013   0.703   0.227  0.5826  0.1546  0.4231
 3737WAT     H111422   4.024   0.765   0.155  1.7255  1.2182  1.4702
 3737WAT     H211423   3.921   0.713   0.252  0.7751  1.5420  0.6620
 3738WAT      O11424   4.430   1.426   1.203 -0.1030  0.0784 -1.0108
 3738WAT     H111425   4.445   1.521   1.197 -0.5754  0.3632  1.3519
 3738WAT     H211426   4.507   1.393   1.249 -0.8640 -0.3651 -0.0341
 3739WAT      O11427   0.104   1.044   1.914 -0.2936 -0.3279 -0.5073
 3739WAT     H111428   0.142   1.126   1.882  1.6103 -1.2200 -0.6982
 3739WAT     H211429   0.088   0.993   1.835 -0.5921 -0.5099 -0.3323
 3740WAT      O11430   4.179   1.347   2.648 -0.4395 -0.6670 -0.3610
 3740WAT     H111431   4.147   1.390   2.569  2.5817  0.5225 -1.0640
 3740WAT     H211432   4.213   1.263   2.618  2.3212  0.4998 -0.7674
 3741WAT      O11433   2.409   4.382   2.532  0.4232 -0.3591  0.8846
 3741WAT     H111434   2.402   4.333   2.614  1.3256 -1.0774  0.5520
 3741WAT     H211435   2.421   4.473   2.560  0.3352 -0.5425  1.5428
 3742WAT      O11436   2.407   0.418   0.112 -0.1100  0.3528 -0.0605
 3742WAT     H111437   2.455   0.341   0.143 -1.3096 -0.7061 -0.7503
 3742WAT     H211438   2.320   0.409   0.151 -0.1195  1.6542  0.2725
 3743WAT      O11439   4.451   2.516   1.277 -0.0755  0.0974  0.0273
 3743WAT     H111440   4.514   2.466   1.224  0.0955 -3.2480  3.0681
 3743WAT     H211441   4.506   2.574   1.330  0.1328 -0.2172  0.1563
 3744WAT      O11442   1.291   0.057   1.598  0.4500  0.0657 -0.3539
 3744WAT     H111443   1.344   0.059   1.678 -1.7920  0.9079  1.2380
 3744WAT     H211444   1.209   0.014   1.625 -0.6519  1.0282 -1.9944
 3745WAT      O11445   0.583   2.587   2.708  0.0111  0.0774 -0.6067
 3745WAT     H111446   0.503   2.539   2.688  0.1219 -1.0378  1.3155
 3745WAT     H211447   0.652   2.520   2.705  0.4777  0.5062  0.1335
 3746WAT      O11448   2.683   4.567   0.083 -0.3058 -0.4397  0.2655
 3746WAT     H111449   2.749   4.585   0.149 -0.9915 -0.1759  0.8894
 3746WAT     H211450   2.703   4.627   0.011 -0.2983  0.1463  0.7507
 3747WAT      O11451   0.465   0.500   1.836  0.4073 -0.6938 -0.3599
 3747WAT     H111452   0.502   0.578   1.877 -2.0958  2.4694 -3.4769
 3747WAT     H211453   0.539   0.460   1.790  1.6155  0.2026  0.7406
 3748WAT      O11454   4.136   0.425   0.943  0.3687  0.2042 -0.3019
 3748WAT     H111455   4.213   0.423   1.000  0.9011 -2.0410 -0.9816
 3748WAT     H211456   4.168   0.391   0.860 -1.2077 -0.1293 -0.7941
 3749WAT      O11457   2.068   1.871   4.248 -0.2932 -0.4759  0.1942
 3749WAT     H111458   2.048   1.915   4.330  0.6302  1.2151 -0.4421
 3749WAT     H211459   2.136   1.924   4.208  0.5617 -2.2589 -0.8548
 3750WAT      O11460   2.675   2.275   3.697  0.7901 -0.4522 -0.7291
 3750WAT     H111461   2.629   2.347   3.652  1.5308  0.1913 -0.4798
 3750WAT     H211462   2.604   2.218   3.728  0.0193  1.2761  0.9383
 3751WAT      O11463   3.340   2.640   1.005 -0.2397 -0.2938 -0.5388
 3751WAT     H111464   3.374   2.723   0.971 -1.4871 -0.1178 -1.4240
 3751WAT     H211465   3.338   2.651   1.100  1.8943 -0.2321 -0.4388
 3752WAT      O11466   3.114   0.053   0.142 -0.5426 -0.7836 -0.2271
 3752WAT     H111467   3.065   0.133   0.161 -0.8821 -0.7009 -1.3352
 3752WAT     H211468   3.194   0.060   0.194 -1.4872 -0.7136  1.2811
 3753WAT      O11469   2.739   4.290   2.657  0.1084  0.0858  0.1477
 3753WAT     H111470   2.693   4.214   2.693 -1.0692 -0.0788 -1.5707
 3753WAT     H211471   2.670   4.353   2.638  0.7218  0.4161 -1.1204
 3754WAT      O11472   0.720   4.344   4.753  0.0800 -0.0609  0.3688
 3754WAT     H111473   0.794   4.289   4.727  0.5752  0.2972  0.9742
 3754WAT     H211474   0.712   4.409   4.684  0.8865  0.4186  0.7186
 3755WAT      O11475   0.465   2.487   1.696  0.1918 -0.1283 -0.0374
 3755WAT     H111476   0.527   2.458   1.629  2.3049 -0.0539  1.7497
 3755WAT     H211477   0.497   2.574   1.721 -0.5542 -0.1374  1.0157
 3756WAT      O11478   4.270   2.737   1.271 -0.9904 -1.0390  0.3082
 3756WAT     H111479   4.283   2.786   1.352 -0.1892  1.2197 -1.0840
 3756WAT     H211480   4.313   2.653   1.287  1.6274  0.3610  1.3320
 3757WAT      O11481   4.200   1.428   2.903 -0.1217 -0.0530  0.3045
 3757WAT     H111482   4.278   1.375   2.922  1.1809  1.6760  0.0575
 3757WAT     H211483   4.176   1.404   2.814 -0.2024 -0.9942  0.5738
 3758WAT      O11484   3.676   1.587   5.233 -0.2973 -0.3876 -0.0670
 3758WAT     H111485   3.600   1.611   5.179 -1.7895 -0.5070  1.8715
 3758WAT     H211486   3.672   1.492   5.239  0.7274 -0.5066 -0.8829
 3759WAT      O11487   0.834   4.118   4.052 -0.3880  0.0840  0.2854
 3759WAT     H111488   0.810   4.093   4.141  0.9781 -0.9511  0.3971
 3759WAT     H211489   0.811   4.043   3.998  0.7349 -0.1580  0.1131
 3760WAT      O11490   2.104   0.575   1.070  0.5928 -0.0659  0.1628
 3760WAT     H111491   2.197   0.596   1.083  0.2166  2.2592 -0.4359
 3760WAT     H211492   2.065   0.658   1.043 -1.2684 -1.4775 -1.7662
 3761WAT      O11493   2.593   3.064   2.509  0.1152 -0.3200  0.2898
 3761WAT     H111494   2.643   3.055   2.428 -1.5992 -0.7268 -0.7795
 3761WAT     H211495   2.511   3.106   2.481 -0.4207 -0.2914  1.8504
 3762WAT      O11496   2.985   2.498   0.290  0.1378 -0.2278  0.1503
 3762WAT     H111497   3.016   2.497   0.199  0.8686 -0.8452  0.3878
 3762WAT     H211498   2.892   2.476   0.284  0.6103 -2.3418 -0.3288
 3763WAT      O11499   4.322   5.131   0.735 -0.6152 -0.4940  0.3364
 3763WAT     H111500   4.320   5.142   0.640 -0.5749  0.1438  0.4020
 3763WAT     H211501   4.386   5.062   0.750 -0.9476 -0.9118 -0.1233
 3764WAT      O11502   1.700   3.127   0.860 -0.2144 -0.9276 -0.3256
 3764WAT     H111503   1.715   3.220   0.876 -0.1778 -1.2948  2.2158
 3764WAT     H211504   1.763   3.104   0.792  1.7226  0.3741  0.9058
 3765WAT      O11505   0.704   4.120   1.814  0.6769  0.0450  0.3325
 3765WAT     H111506   0.698   4.177   1.890 -0.3641 -1.0861  1.1287
 3765WAT     H211507   0.621   4.132   1.769  0.8871 -0.0428 -0.0869
 3766WAT      O11508   2.662   3.753   5.085  0.3503 -0.0776 -0.0687
 3766WAT     H111509   2.704   3.818   5.028  0.3609  2.3928  2.5081
 3766WAT     H211510   2.726   3.737   5.154 -1.2559  0.5469  1.6630
 3767WAT      O11511   1.818   0.582   1.470  0.1444  0.4856  0.0131
 3767WAT     H111512   1.888   0.645   1.489  1.1704  0.0015 -1.8807
 3767WAT     H211513   1.853   0.498   1.501  0.5465  0.2001 -1.1674
 3768WAT      O11514   4.049   2.284   3.142  0.0359  0.2161  0.4476
 3768WAT     H111515   4.091   2.224   3.081  0.1880  0.0033  0.7600
 3768WAT     H211516   4.120   2.338   3.176  0.1129 -0.3235  1.1795
 3769WAT      O11517   2.066   4.981   4.925 -0.1204  0.0434  0.4309
 3769WAT     H111518   2.001   4.925   4.883  0.1040 -0.4146  0.6792
 3769WAT     H211519   2.136   4.991   4.861  0.5427 -1.2248  0.9256
 3770WAT      O11520   0.389   3.979   4.125  0.0318  0.0037  0.5336
 3770WAT     H111521   0.364   3.929   4.048 -0.8084  0.9649  0.1678
 3770WAT     H211522   0.417   4.064   4.091 -0.8877  0.6414  1.3060
 3771WAT      O11523   2.413   2.736   0.888 -1.2813  0.0354 -0.4389
 3771WAT     H111524   2.347   2.720   0.820 -0.4254 -1.9696 -0.8556
 3771WAT     H211525   2.493   2.755   0.840 -0.7755 -0.9577 -0.0255
 3772WAT      O11526   4.183   0.459   1.678 -0.3309  0.4009 -0.2460
 3772WAT     H111527   4.200   0.510   1.599 -2.3022  1.4816 -0.0292
 3772WAT     H211528   4.235   0.502   1.746  0.8757 -0.1492 -0.7871
 3773WAT      O11529   2.518  -0.034   4.569 -0.8365  0.1771 -0.8099
 3773WAT     H111530   2.602  -0.005   4.603 -0.3355 -1.5478 -0.4739
 3773WAT     H211531   2.485   0.040   4.518 -0.5867  2.0337  1.5880
 3774WAT      O11532   3.821   2.986   2.956  0.0831  0.6114  0.7363
 3774WAT     H111533   3.875   2.955   3.028  1.1881  2.8235  0.9446
 3774WAT     H211534   3.884   3.012   2.888 -0.9274 -1.8782 -1.3223
 3775WAT      O11535   2.898   4.444   0.805 -0.0084 -0.1508  0.6415
 3775WAT     H111536   2.841   4.437   0.729 -0.2004  1.8833  0.5360
 3775WAT     H211537   2.916   4.353   0.830 -0.9248 -0.8527 -1.0674
 3776WAT      O11538   2.029   4.264   2.196  0.0169 -0.5060  0.5541
 3776WAT     H111539   2.080   4.204   2.250  1.6276 -0.7323 -1.1093
 3776WAT     H211540   2.094   4.318   2.151 -1.2665  0.1748 -0.5943
 3777WAT      O11541   0.680   4.551   5.186 -0.3189 -0.2373 -0.3420
 3777WAT     H111542   0.613   4.598   5.136 -1.2133 -1.6052 -0.4792
 3777WAT     H211543   0.678   4.591   5.272 -1.9425 -0.8084 -0.0821
 3778WAT      O11544   3.471   0.326   0.669 -0.1795 -0.1377 -0.0713
 3778WAT     H111545   3.496   0.308   0.579  0.1503  0.7149 -0.1548
 3778WAT     H211546   3.528   0.270   0.722 -0.4187 -0.6865 -0.3810
 3779WAT      O11547   1.528   3.997   2.485 -0.0994  0.1039  0.2876
 3779WAT     H111548   1.458   3.932   2.482  0.4155 -0.4960  0.9477
 3779WAT     H211549   1.608   3.947   2.471  0.1149  1.0118 -2.3366
 3780WAT      O11550   0.097   0.493   3.567 -0.5189 -0.0461  0.0390
 3780WAT     H111551   0.011   0.510   3.604 -0.1899 -0.2898  0.9440
 3780WAT     H211552   0.128   0.579   3.538 -0.9837  0.0661 -0.1342
 3781WAT      O11553   0.618   1.787   1.518 -0.4057 -0.0584 -0.2782
 3781WAT     H111554   0.615   1.722   1.448  0.1229 -0.4570  0.0622
 3781WAT     H211555   0.550   1.760   1.580  0.7052 -1.0850  0.5377
 3782WAT      O11556   3.872   4.724   0.289  0.9282 -0.1085  0.0083
 3782WAT     H111557   3.850   4.643   0.243 -0.0495 -0.8756  1.7512
 3782WAT     H211558   3.967   4.729   0.283  0.9325 -0.9080 -0.8980
 3783WAT      O11559   2.204   4.095   2.001 -0.2050 -0.1402  0.1047
 3783WAT     H111560   2.242   4.182   1.994 -0.6260  0.0595  0.3132
 3783WAT     H211561   2.200   4.077   2.095  0.8414 -0.8126  0.0458
 3784WAT      O11562   1.681   2.743   0.061  0.5933  0.3356 -0.0963
 3784WAT     H111563   1.650   2.717   0.147  1.3302 -1.1223 -0.2508
 3784WAT     H211564   1.640   2.681   0.000  0.8318  0.7540 -0.7006
 3785WAT      O11565   4.085   1.127   0.330 -0.0919 -0.3098  0.3266
 3785WAT     H111566   4.018   1.076   0.285  0.8244 -0.7509 -0.6028
 3785WAT     H211567   4.165   1.074   0.321  0.7581  0.9954 -0.1306
 3786WAT      O11568   1.824   4.990   4.346  0.0820  0.4220 -0.1299
 3786WAT     H111569   1.823   4.955   4.257 -0.3104  1.6973 -0.6488
 3786WAT     H211570   1.759   5.060   4.346  2.4099  2.7634  0.1732
 3787WAT      O11571   1.674   1.687   1.674  0.3606 -0.3716 -0.2965
 3787WAT     H111572   1.581   1.695   1.694  0.2864  0.2110 -0.8383
 3787WAT     H211573   1.676   1.642   1.589  0.5611 -0.1402 -0.4145
 3788WAT      O11574   3.548   5.035   5.113  0.2112 -0.0210 -0.3709
 3788WAT     H111575   3.556   5.120   5.069  1.2144  0.0108 -0.1464
 3788WAT     H211576   3.633   5.021   5.154 -0.9951  0.4422  2.5114
 3789WAT      O11577   2.156   0.700   0.041 -0.4981 -0.5262 -0.0086
 3789WAT     H111578   2.250   0.702   0.023 -0.4636  1.2775  0.1913
 3789WAT     H211579   2.138   0.783   0.085 -2.2347 -0.7482 -0.2117
 3790WAT      O11580   1.027   2.927   2.103  0.1477  0.4955 -0.1424
 3790WAT     H111581   1.115   2.927   2.064  1.1255  1.8234  1.8740
 3790WAT     H211582   1.038   2.878   2.185 -1.0836  0.3950 -0.0240
 3791WAT      O11583   1.204   0.768   2.847 -0.0189 -0.5445  0.3147
 3791WAT     H111584   1.134   0.809   2.898  1.1726 -0.8013  2.2425
 3791WAT     H211585   1.208   0.678   2.880  1.3679 -0.4660  0.4092
 3792WAT      O11586   1.380   1.625   0.352 -0.0050  0.1846 -0.1491
 3792WAT     H111587   1.341   1.709   0.378  1.4842  0.8932 -0.0622
 3792WAT     H211588   1.313   1.560   0.372 -1.1350  1.3324 -0.0485
 3793WAT      O11589   4.470   3.156   4.107  0.1076  0.1208  0.0046
 3793WAT     H111590   4.566   3.152   4.105  0.1754  1.4443 -0.9961
 3793WAT     H211591   4.442   3.065   4.117  1.4625 -0.2935  0.2222
 3794WAT      O11592   3.193   2.556   1.775 -0.3092  0.5123 -0.4065
 3794WAT     H111593   3.228   2.637   1.738 -1.0699  0.6001 -0.9601
 3794WAT     H211594   3.125   2.529   1.714  0.5663 -1.0668 -0.7449
 3795WAT      O11595   1.544   3.794   0.571 -0.0576  0.0140  0.0383
 3795WAT     H111596   1.467   3.812   0.626  0.1001 -1.6897  0.8777
 3795WAT     H211597   1.514   3.731   0.507  0.7890 -1.2648  0.8541
 3796WAT      O11598   2.664   1.351   0.291  0.1326 -0.6174  0.3021
 3796WAT     H111599   2.663   1.434   0.339 -1.2391 -0.2160 -0.3715
 3796WAT     H211600   2.746   1.353   0.242 -1.5229  2.2191 -2.7688
 3797WAT      O11601   1.851   1.688   3.965 -0.0910 -0.3169 -0.4999
 3797WAT     H111602   1.914   1.759   3.974 -0.1097 -0.4364  0.7017
 3797WAT     H211603   1.768   1.732   3.944  0.0652 -0.0518 -0.5679
 3798WAT      O11604   0.065   2.727   2.581  0.4969  0.0510 -0.0878
 3798WAT     H111605   0.079   2.648   2.528  0.4369 -0.4648  0.6514
 3798WAT     H211606   0.088   2.799   2.522  0.2052 -0.4939 -0.8890
 3799WAT      O11607   3.693   4.648   2.433 -0.1821  0.2301 -0.3062
 3799WAT     H111608   3.702   4.709   2.506  0.1700  2.1392 -1.8696
 3799WAT     H211609   3.614   4.597   2.454  0.4741  0.0001  1.8525
 3800WAT      O11610   1.465   0.483   3.558 -0.3242  0.3821 -0.1333
 3800WAT     H111611   1.555   0.474   3.588 -0.6916  0.1656  0.9648
 3800WAT     H211612   1.451   0.578   3.552 -0.4651  0.4603  1.1501
 3801WAT      O11613   1.407   2.274   0.599  0.2410 -0.4455 -0.1749
 3801WAT     H111614   1.476   2.232   0.547  0.6606  1.3542 -1.1584
 3801WAT     H211615   1.399   2.218   0.676 -0.2518 -3.1224 -2.0068
 3802WAT      O11616   1.414   1.756   1.762  0.0064  0.3421  0.7379
 3802WAT     H111617   1.325   1.729   1.786 -0.9321  1.0701 -1.5795
 3802WAT     H211618   1.404   1.845   1.730  1.5112  0.3362  0.1655
 3803WAT      O11619   2.233   2.693   5.080  0.4382  0.2852  0.0075
 3803WAT     H111620   2.183   2.747   5.140 -0.6078 -0.8876  0.2446
 3803WAT     H211621   2.224   2.737   4.995 -1.4366 -0.1199 -0.0602
 3804WAT      O11622   4.285   0.662   1.534  0.5955 -0.7175 -0.0424
 3804WAT     H111623   4.320   0.723   1.598 -0.9233 -0.8181  0.9205
 3804WAT     H211624   4.248   0.718   1.465  1.2511 -0.5932 -0.2950
 3805WAT      O11625   2.514   5.161   1.416  0.0795  0.5710 -0.0700
 3805WAT     H111626   2.474   5.103   1.481 -0.7029  0.7373 -0.3911
 3805WAT     H211627   2.561   5.102   1.357  1.4171  0.4779  1.0555
 3806WAT      O11628   1.547   3.207   0.364  0.2324  0.5801 -0.1467
 3806WAT     H111629   1.479   3.236   0.304  1.4264 -0.3339 -2.0157
 3806WAT     H211630   1.501   3.154   0.429 -0.6459 -1.7744 -2.5478
 3807WAT      O11631   3.788   3.841   0.799 -0.0652  0.0721  0.2936
 3807WAT     H111632   3.759   3.842   0.890  0.3218 -1.1393  0.4569
 3807WAT     H211633   3.708   3.856   0.748 -0.4570 -0.1952  0.8171
 3808WAT      O11634   1.437   1.316   0.209 -0.0094  0.9170 -0.1678
 3808WAT     H111635   1.450   1.381   0.139  2.8224 -0.2350 -0.8580
 3808WAT     H211636   1.511   1.330   0.268  0.6374 -1.5671 -0.2839
 3809WAT      O11637   1.493   2.707   4.752 -0.0596  0.3762 -0.2328
 3809WAT     H111638   1.405   2.682   4.781  0.1757  0.2264  0.3678
 3809WAT     H211639   1.551   2.668   4.817  0.6447 -1.7241 -1.9916
 3810WAT      O11640   2.768   0.124   1.634 -0.2781 -0.0871 -0.3161
 3810WAT     H111641   2.682   0.081   1.627 -0.5880  0.5544 -0.4895
 3810WAT     H211642   2.817   0.091   1.559  1.3761 -4.2471  2.2342
 3811WAT      O11643   1.717   0.607   3.941  0.0493 -0.3079  0.0521
 3811WAT     H111644   1.763   0.629   3.860  0.9580  0.7480  0.8302
 3811WAT     H211645   1.735   0.681   3.999 -0.1406 -1.2952  1.4019
 3812WAT      O11646   4.301   0.163   1.523  0.0114  0.1267  0.0580
 3812WAT     H111647   4.249   0.194   1.448 -1.0670  0.2920  0.8450
 3812WAT     H211648   4.320   0.243   1.573  1.4366  0.1253 -0.4538
 3813WAT      O11649   3.745   0.486   5.318 -0.1247 -0.2739 -0.3723
 3813WAT     H111650   3.778   0.516   5.233 -0.8127 -1.0060 -0.9155
 3813WAT     H211651   3.651   0.478   5.306  0.0074 -2.7381 -0.3415
 3814WAT      O11652   3.155   2.883   2.701  0.2954 -0.4329 -0.4524
 3814WAT     H111653   3.099   2.936   2.645  0.4467  1.3586  0.9787
 3814WAT     H211654   3.108   2.801   2.711 -2.9235  1.4312  1.7762
 3815WAT      O11655   4.371   1.401   3.577  0.5674 -0.4363  0.3839
 3815WAT     H111656   4.310   1.327   3.578  0.2552 -0.2308 -1.1264
 3815WAT     H211657   4.380   1.426   3.669 -2.1758 -0.0604  0.6572
 3816WAT      O11658   1.122   0.050   3.450  0.9910 -0.1071 -0.2311
 3816WAT     H111659   1.051   0.041   3.387 -1.2259 -0.3907  2.1410
 3816WAT     H211660   1.202   0.036   3.398 -0.6662 -0.4064 -2.9042
 3817WAT      O11661   2.010   2.120   5.238 -0.5095  0.1512  0.2170
 3817WAT     H111662   1.994   2.122   5.144 -0.6978 -1.5297  0.1929
 3817WAT     H211663   2.094   2.164   5.250  0.4154 -1.2227 -0.9507
 3818WAT      O11664   4.427   1.303   3.007  0.4842  0.4771  0.2517
 3818WAT     H111665   4.454   1.393   2.990 -1.8573  1.5247  1.7024
 3818WAT     H211666   4.506   1.261   3.041  1.8500  1.6780 -1.2158
 3819WAT      O11667   2.104   4.667   4.114 -0.8035 -0.0292  0.0483
 3819WAT     H111668   2.048   4.732   4.073  0.8866  0.9144 -0.8373
 3819WAT     H211669   2.181   4.662   4.059  1.2579  0.7464  2.6543
 3820WAT      O11670   3.872   0.136   0.595  0.1070  0.3737  0.0573
 3820WAT     H111671   3.915   0.065   0.549 -1.4568  0.5174 -1.7293
 3820WAT     H211672   3.926   0.213   0.577 -0.5079  0.4373 -1.6227
 3821WAT      O11673   0.896   1.753   4.616  0.2708  0.1832  0.6755
 3821WAT     H111674   0.970   1.708   4.657  2.0863  2.9696  0.7136
 3821WAT     H211675   0.891   1.837   4.662 -1.4176  1.0144 -0.9021
 3822WAT      O11676   2.165   0.511   0.272  0.5661 -0.1475  0.0535
 3822WAT     H111677   2.086   0.459   0.288  0.6184 -1.4608 -3.1148
 3822WAT     H211678   2.140   0.572   0.203  1.8979  0.5134  0.1161
 3823WAT      O11679   0.560   3.223   3.589  0.1667 -0.3671  0.5197
 3823WAT     H111680   0.486   3.282   3.602 -1.1879 -2.3711  2.4084
 3823WAT     H211681   0.529   3.158   3.526  0.0964 -1.5082  1.6996
 3824WAT      O11682   1.459   3.764   4.790 -0.8043 -0.2633 -0.9066
 3824WAT     H111683   1.532   3.703   4.794 -1.2223 -0.8606 -2.0914
 3824WAT     H211684   1.477   3.819   4.714 -2.3429 -1.4511 -2.1924
 3825WAT      O11685   1.735   1.912   3.513  0.1736  0.2180  0.0700
 3825WAT     H111686   1.645   1.902   3.481  0.6285 -0.2336 -1.1398
 3825WAT     H211687   1.735   1.994   3.561 -0.5578  0.9348 -1.1141
 3826WAT      O11688   1.029   2.192   0.105 -0.0580  0.2713 -0.2846
 3826WAT     H111689   1.069   2.265   0.058 -0.4290  0.7494  0.1321
 3826WAT     H211690   0.998   2.231   0.187  2.3991 -0.9404  1.3241
 3827WAT      O11691   1.071   5.102   0.249 -0.1849  0.1794 -0.2250
 3827WAT     H111692   1.008   5.031   0.239 -0.1376  0.1624 -0.3998
 3827WAT     H211693   1.109   5.113   0.162  2.5616 -2.1106  0.5661
 3828WAT      O11694   3.076   1.940   4.240  0.0017 -0.3489 -0.0882
 3828WAT     H111695   3.153   1.906   4.287 -0.5690 -0.2286  0.9647
 3828WAT     H211696   3.012   1.870   4.245 -0.6196  0.2557  0.7054
 3829WAT      O11697   3.737   0.853   1.736 -0.4034  0.1667  0.0546
 3829WAT     H111698   3.716   0.790   1.806 -3.2105  0.6339 -0.2325
 3829WAT     H211699   3.819   0.821   1.699 -0.2138 -1.6314  1.8053
 3830WAT      O11700   2.394   1.388   0.347  0.2489 -0.1032  0.0406
 3830WAT     H111701   2.426   1.453   0.408 -0.3869 -2.2609  2.8805
 3830WAT     H211702   2.473   1.344   0.315  0.5494  0.5429 -0.1174
 3831WAT      O11703   0.550   0.766   1.902 -0.2409  0.2156  0.0129
 3831WAT     H111704   0.589   0.778   1.815 -0.7845 -0.0617 -0.2689
 3831WAT     H211705   0.519   0.853   1.926 -0.2971  0.2464 -0.1690
 3832WAT      O11706   2.823   0.168   0.459  0.1017 -0.0236 -0.1976
 3832WAT     H111707   2.770   0.242   0.489 -0.3226 -0.6988  0.7889
 3832WAT     H211708   2.856   0.129   0.540  0.1020 -1.0618 -0.6851
 3833WAT      O11709   0.489   4.009   3.050 -0.5619  0.5741 -0.0629
 3833WAT     H111710   0.480   4.096   3.087 -1.3258  0.4610  0.0444
 3833WAT     H211711   0.403   3.990   3.012  0.0729  0.5116 -1.5091
 3834WAT      O11712   4.106   2.844   4.569 -0.6375  0.0109 -0.0803
 3834WAT     H111713   4.197   2.868   4.548 -0.0594 -0.0353  2.1456
 3834WAT     H211714   4.105   2.748   4.565 -0.2037 -0.0616  1.2421
 3835WAT      O11715   2.197   5.137   4.447  0.0848  0.0639  0.2468
 3835WAT     H111716   2.192   5.057   4.396 -0.6551  0.5910 -0.5335
 3835WAT     H211717   2.111   5.178   4.437  0.1757  0.5538  1.2953
 3836WAT      O11718   4.162   2.135   2.209 -0.3030 -0.2872 -0.4630
 3836WAT     H111719   4.206   2.215   2.237  1.3473 -1.4382  0.4530
 3836WAT     H211720   4.182   2.128   2.116 -1.2945  0.8361 -0.7831
 3837WAT      O11721   0.286   1.561   3.077 -0.0184  0.2274 -0.4808
 3837WAT     H111722   0.213   1.549   3.016 -0.6882  0.9151  0.1642
 3837WAT     H211723   0.359   1.515   3.037 -0.5091  0.4811 -1.6930
 3838WAT      O11724   0.985   0.314   4.069 -0.0781  0.4614 -0.2295
 3838WAT     H111725   0.950   0.259   4.139 -1.3929 -2.0298 -2.6368
 3838WAT     H211726   1.031   0.253   4.011 -0.4027  2.1202 -2.3590
 3839WAT      O11727   2.328   5.119   2.409  0.4370 -0.1182 -0.0708
 3839WAT     H111728   2.365   5.042   2.365  1.0558  0.2229 -0.1447
 3839WAT     H211729   2.255   5.145   2.353  0.1009 -0.7654  0.0545
 3840WAT      O11730   0.386   3.725   4.542  0.3145  0.1634  0.2570
 3840WAT     H111731   0.374   3.815   4.513  0.8065  0.0645 -0.2543
 3840WAT     H211732   0.470   3.698   4.506 -0.6731 -1.1318 -1.2056
 3841WAT      O11733   1.930   3.887   1.417 -0.7055 -0.0011 -0.8415
 3841WAT     H111734   1.934   3.845   1.331 -0.9840 -1.1576 -0.3137
 3841WAT     H211735   1.860   3.951   1.409 -2.2653 -1.6375 -0.8660
 3842WAT      O11736   2.449   0.535   0.768  0.0068  0.3602 -0.6740
 3842WAT     H111737   2.462   0.619   0.812  1.5621 -0.1197 -0.1648
 3842WAT     H211738   2.484   0.548   0.680  2.9380 -0.5069  0.2540
 3843WAT      O11739   0.414   2.785   3.669 -0.1842 -0.0866  0.2369
 3843WAT     H111740   0.455   2.856   3.720 -1.4490  0.8908 -0.0510
 3843WAT     H211741   0.361   2.831   3.604 -0.5361 -1.3248 -0.3703
 3844WAT      O11742   4.375   4.817   4.957 -0.1261 -0.3359 -0.0957
 3844WAT     H111743   4.348   4.868   5.033  1.0219  0.1108  0.0425
 3844WAT     H211744   4.398   4.731   4.993 -2.3470 -1.1054 -0.3694
 3845WAT      O11745   2.311   0.201   0.640  0.1046  0.7314  0.2186
 3845WAT     H111746   2.278   0.270   0.697  0.1374  0.5219  0.4948
 3845WAT     H211747   2.391   0.170   0.683  0.1846  0.6429  0.0072
 3846WAT      O11748   2.225   5.042   0.239  0.8109 -0.9510  0.4026
 3846WAT     H111749   2.217   5.113   0.174  0.8755  0.9421  2.3293
 3846WAT     H211750   2.286   4.980   0.199  0.1942 -0.2945 -1.6800
 3847WAT      O11751   3.078   2.969   0.671 -0.0069 -0.8862  0.1294
 3847WAT     H111752   3.124   3.051   0.657  0.1190 -0.6941  1.5350
 3847WAT     H211753   3.110   2.912   0.600  0.9749 -0.1808 -0.0244
 3848WAT      O11754   2.019   4.296   4.829  0.1694 -0.6161 -0.8456
 3848WAT     H111755   2.089   4.233   4.813  0.6880  0.4361 -3.1914
 3848WAT     H211756   2.065   4.372   4.866 -0.3082 -1.2057  1.0399
 3849WAT      O11757   3.732   4.588   1.438  0.3496  0.0178  0.0756
 3849WAT     H111758   3.713   4.679   1.463  0.6214 -0.4347  2.1108
 3849WAT     H211759   3.814   4.567   1.483  0.2005 -1.2943 -0.2205
 3850WAT      O11760   4.522   1.792   4.247  0.1218  0.2826  0.9348
 3850WAT     H111761   4.428   1.795   4.227  0.3016 -2.3452 -0.8177
 3850WAT     H211762   4.556   1.875   4.215 -1.6942  1.7259  2.4903
 3851WAT      O11763   2.347   0.158   2.640  0.1856  0.1646 -0.3296
 3851WAT     H111764   2.292   0.100   2.587  1.3492  0.2121 -1.6431
 3851WAT     H211765   2.371   0.229   2.580  1.2675  0.3980  0.3626
 3852WAT      O11766   1.872   2.000   1.027 -0.7012 -0.2795 -0.1714
 3852WAT     H111767   1.836   1.922   0.985  0.3543 -1.5504  1.1346
 3852WAT     H211768   1.796   2.048   1.060 -1.3330 -1.2700 -0.1658
 3853WAT      O11769   2.274   2.443   1.160 -0.7166  0.9401 -0.5274
 3853WAT     H111770   2.238   2.427   1.247  2.0679  2.2615  1.0106
 3853WAT     H211771   2.259   2.537   1.146  2.5808  1.7720  0.5792
 3854WAT      O11772   1.090   1.142   4.159  0.0894  0.2291  0.6076
 3854WAT     H111773   1.055   1.082   4.226  0.9473 -1.7979 -0.6744
 3854WAT     H211774   1.012   1.181   4.120 -0.6120 -1.3122  0.3852
 3855WAT      O11775   3.447   3.960   3.935  0.2075 -0.3159  0.5581
 3855WAT     H111776   3.476   4.027   3.996  1.1689 -0.8404  0.6916
 3855WAT     H211777   3.521   3.945   3.877 -0.2149 -0.8085  0.1252
 3856WAT      O11778   1.242   3.044   2.803  0.4208 -0.1987 -0.4197
 3856WAT     H111779   1.210   2.967   2.849  0.1930  0.2914  0.2460
 3856WAT     H211780   1.177   3.059   2.734  0.0677 -0.1686 -0.0862
 3857WAT      O11781   0.346   2.221   0.643 -0.3584 -0.4048  0.4966
 3857WAT     H111782   0.275   2.173   0.600  0.1934 -2.0744  1.3508
 3857WAT     H211783   0.423   2.204   0.588 -0.1200 -0.6840  0.9073
 3858WAT      O11784   0.042   3.625   2.065 -0.7330 -0.5420  0.1502
 3858WAT     H111785   0.098   3.626   2.143 -0.3952 -0.0209 -0.0912
 3858WAT     H211786   0.043   3.716   2.034 -0.3639 -0.8624 -0.8139
 3859WAT      O11787   2.480   0.819   3.120  0.8539 -0.1730 -0.2897
 3859WAT     H111788   2.531   0.835   3.200 -0.6340 -0.3923  0.7606
 3859WAT     H211789   2.390   0.843   3.145  0.3792 -0.1497 -1.9466
 3860WAT      O11790   0.620   0.821   4.805  0.2462  0.2460 -0.0122
 3860WAT     H111791   0.714   0.810   4.816  1.0033  4.4699 -0.6500
 3860WAT     H211792   0.587   0.834   4.894  0.5712  0.3829  0.0899
 3861WAT      O11793   1.784   4.881   4.093  0.5072  0.4744  0.2888
 3861WAT     H111794   1.863   4.916   4.051  0.9289 -0.8825 -0.0885
 3861WAT     H211795   1.770   4.797   4.051 -0.6367  0.2930  0.9941
 3862WAT      O11796   2.573   1.118   1.515  0.4530  0.3241  0.9850
 3862WAT     H111797   2.497   1.143   1.462  0.6528  0.6237  0.8424
 3862WAT     H211798   2.575   1.022   1.509 -0.2976  0.2641  1.5180
 3863WAT      O11799   3.621   3.095   2.194 -0.6845 -0.3584  0.1302
 3863WAT     H111800   3.641   3.101   2.287  1.6670 -0.1391 -0.3065
 3863WAT     H211801   3.667   3.016   2.165 -1.7141 -0.6422 -0.7852
 3864WAT      O11802   0.709   2.366   5.096  0.5728 -0.7030 -0.3353
 3864WAT     H111803   0.676   2.291   5.145 -0.3689 -0.9783 -1.3443
 3864WAT     H211804   0.706   2.439   5.158 -0.8685 -0.9755 -0.0613
 3865WAT      O11805   0.483   1.694   4.608  0.7851  0.0947  0.0616
 3865WAT     H111806   0.561   1.691   4.551 -0.0009 -0.0091 -1.0329
 3865WAT     H211807   0.436   1.613   4.588 -0.7396  1.1794 -0.9558
 3866WAT      O11808   2.050   1.149   2.802  0.3284  0.3253 -0.1642
 3866WAT     H111809   2.139   1.149   2.766  1.6994 -1.9318  2.8249
 3866WAT     H211810   2.061   1.132   2.895 -3.1854  2.0573  0.7566
 3867WAT      O11811   3.592   0.477   4.810  0.1702  0.0449  0.5356
 3867WAT     H111812   3.683   0.504   4.794  0.0963 -0.0756 -0.0997
 3867WAT     H211813   3.580   0.489   4.904  0.8833 -0.0447  0.6423
 3868WAT      O11814   4.342   0.781   4.286  0.0720  0.1459 -0.2547
 3868WAT     H111815   4.431   0.807   4.260  0.5919  0.9277  2.0713
 3868WAT     H211816   4.292   0.863   4.285  0.3934  0.4390  2.0783
 3869WAT      O11817   0.844   4.304   5.282  0.1069 -0.6679 -0.1234
 3869WAT     H111818   0.755   4.337   5.274 -0.0818 -1.1588 -0.0772
 3869WAT     H211819   0.894   4.354   5.218 -0.1251 -0.1281  0.1123
 3870WAT      O11820   3.339   0.836   3.509 -0.6359  0.2092 -0.2038
 3870WAT     H111821   3.251   0.829   3.546 -0.4449  0.4087  0.2954
 3870WAT     H211822   3.362   0.746   3.485 -1.3962  0.2988 -1.3525
 3871WAT      O11823   2.394   0.564   3.443 -0.1985  0.4486 -0.0988
 3871WAT     H111824   2.434   0.567   3.356  1.3338 -1.6865  0.4452
 3871WAT     H211825   2.321   0.503   3.434 -0.5748  0.8916 -0.0716
 3872WAT      O11826   3.637   3.334   2.088 -0.2792  0.1733 -0.0986
 3872WAT     H111827   3.628   3.244   2.118  0.3641 -0.1700 -0.8826
 3872WAT     H211828   3.672   3.381   2.164  1.4234 -0.6948 -0.2809
 3873WAT      O11829   3.811   4.647   3.236 -0.2650  0.5129  0.0008
 3873WAT     H111830   3.876   4.706   3.201 -1.0892  1.1217 -0.5436
 3873WAT     H211831   3.792   4.586   3.164 -1.4461  1.3296 -0.4032
 3874WAT      O11832   3.251   2.961   0.913  0.0081 -0.2628  0.1500
 3874WAT     H111833   3.165   2.932   0.883  0.8011 -1.2504 -1.2961
 3874WAT     H211834   3.286   3.012   0.841  0.2513  1.0080  1.1295
 3875WAT      O11835   1.742   3.585   4.960 -0.1022 -0.0970  0.4097
 3875WAT     H111836   1.828   3.547   4.979 -1.3237 -1.8444  3.3465
 3875WAT     H211837   1.691   3.511   4.927 -1.0249  0.3882  0.7265
 3876WAT      O11838   2.736   0.739   4.722 -0.1580  0.5378 -0.1095
 3876WAT     H111839   2.702   0.777   4.641  1.1796  1.4092 -0.2823
 3876WAT     H211840   2.738   0.645   4.705  1.9736  0.8264 -1.8641
 3877WAT      O11841   3.859   0.571   2.188  0.3495 -0.0216  0.0754
 3877WAT     H111842   3.900   0.617   2.115  0.6305  2.8837  1.9184
 3877WAT     H211843   3.933   0.539   2.240  0.2059  0.1051  0.3610
 3878WAT      O11844   3.885   3.715   0.434 -0.3653 -0.0633 -0.8148
 3878WAT     H111845   3.870   3.638   0.488 -0.3283 -0.7102 -1.6948
 3878WAT     H211846   3.955   3.690   0.374 -1.6980 -0.0838 -2.4611
 3879WAT      O11847   1.604   4.485   2.402  0.2878 -0.5270 -0.5271
 3879WAT     H111848   1.569   4.412   2.453  2.2738 -0.2428  1.4002
 3879WAT     H211849   1.686   4.451   2.365  0.4711  0.2631 -0.8624
 3880WAT      O11850   0.257   0.322   2.123 -0.1123  0.7674  0.3045
 3880WAT     H111851   0.332   0.350   2.070  0.6448 -0.0088  0.9362
 3880WAT     H211852   0.266   0.227   2.127  0.2025  0.8348  2.3054
 3881WAT      O11853   0.889   4.539   2.867  0.0651  0.0767  0.1887
 3881WAT     H111854   0.903   4.625   2.828 -0.6979 -0.8246 -2.2619
 3881WAT     H211855   0.969   4.490   2.848 -0.0606 -0.1900  0.3278
 3882WAT      O11856   1.341   4.621   2.387  0.0873  0.4026 -0.3592
 3882WAT     H111857   1.315   4.615   2.479  1.3780  0.8464  0.0578
 3882WAT     H211858   1.399   4.546   2.374 -1.8013 -0.9583 -1.4485
 3883WAT      O11859   2.614   1.854   0.287 -0.9640  0.1811  0.5385
 3883WAT     H111860   2.594   1.857   0.194 -3.5308 -1.7213  0.9149
 3883WAT     H211861   2.555   1.918   0.327  0.0304  0.8935  0.9102
 3884WAT      O11862   0.962   2.731   3.724 -0.3143  0.4009 -0.2856
 3884WAT     H111863   0.979   2.802   3.662 -2.5237  2.3819  1.1767
 3884WAT     H211864   0.868   2.738   3.742  0.1114 -0.4805  2.7617
 3885WAT      O11865   0.126   0.281   0.951  0.1930  0.3058  0.0753
 3885WAT     H111866   0.148   0.188   0.954 -2.4300 -0.5461 -2.0540
 3885WAT     H211867   0.146   0.307   0.861 -0.3044  1.4557  0.2803
 3886WAT      O11868   0.038   4.517   0.235 -0.1332 -0.2235 -0.4112
 3886WAT     H111869   0.107   4.583   0.238 -0.0551 -0.2987 -0.5405
 3886WAT     H211870   0.085   4.434   0.221 -0.0589 -0.5593  1.4676
 3887WAT      O11871   1.663   4.070   2.986  0.2812 -0.0812  0.5177
 3887WAT     H111872   1.643   4.050   3.077  1.5380 -0.5098  0.7107
 3887WAT     H211873   1.656   3.987   2.940 -3.1718  0.5456 -0.3907
 3888WAT      O11874   3.157   3.745   0.107  0.7028 -0.1401  0.6685
 3888WAT     H111875   3.250   3.737   0.084  0.6500 -1.3561  0.7973
 3888WAT     H211876   3.111   3.731   0.025  0.6310  0.2734  0.6395
 3889WAT      O11877   2.704   1.734   1.260  0.5265  0.0852 -0.2264
 3889WAT     H111878   2.711   1.649   1.218  0.6570 -0.1404  0.2498
 3889WAT     H211879   2.707   1.715   1.354  1.7774  0.7205 -0.1179
 3890WAT      O11880   2.218   2.710   4.524 -0.1186  0.2376 -0.0216
 3890WAT     H111881   2.299   2.679   4.483  0.3483  2.1933 -0.7090
 3890WAT     H211882   2.176   2.763   4.456 -2.5789 -1.5854 -0.0535
 3891WAT      O11883   3.196   3.323   0.191 -0.3228 -0.5739 -0.3316
 3891WAT     H111884   3.235   3.255   0.136  0.7664 -0.6066  0.4479
 3891WAT     H211885   3.270   3.360   0.239 -1.3554 -1.2222  1.8547
 3892WAT      O11886   2.765   4.025   2.095 -0.5362  0.4448  0.5162
 3892WAT     H111887   2.848   4.049   2.055 -1.1532  0.4590 -0.8088
 3892WAT     H211888   2.759   4.081   2.173  1.9889 -1.5484  2.3406
 3893WAT      O11889   0.276   0.106   0.304 -0.0029  0.4141  0.4615
 3893WAT     H111890   0.244   0.176   0.360 -0.6103  0.0749  0.5410
 3893WAT     H211891   0.368   0.095   0.329  0.1384  1.2758  0.3456
 3894WAT      O11892   2.424   0.154   3.558 -0.1891  0.2301 -0.3702
 3894WAT     H111893   2.433   0.083   3.622 -0.1819  0.8829  0.3722
 3894WAT     H211894   2.504   0.205   3.569 -1.2364  1.7043  0.8103
 3895WAT      O11895   3.276   1.642   0.278  0.0315 -0.3380 -0.2030
 3895WAT     H111896   3.363   1.647   0.240 -1.2909  2.7768 -3.3727
 3895WAT     H211897   3.281   1.696   0.357  0.6987  0.9390 -1.0891
 3896WAT      O11898   3.916   0.105   3.626 -0.2037 -0.2115 -0.0900
 3896WAT     H111899   3.910   0.105   3.721  2.4659  1.1454  0.1831
 3896WAT     H211900   3.862   0.032   3.598 -1.5829 -0.2499  2.4042
 3897WAT      O11901   2.769   1.611   0.063 -0.0845 -0.1391  0.1787
 3897WAT     H111902   2.735   1.694   0.097 -0.4448 -0.0329 -0.4335
 3897WAT     H211903   2.860   1.610   0.091 -0.4223 -0.1573  1.3392
 3898WAT      O11904   2.847   4.841   4.519  0.7585 -0.2182  0.0583
 3898WAT     H111905   2.769   4.838   4.465 -0.8829  0.2254  2.2505
 3898WAT     H211906   2.832   4.916   4.578  1.4693 -1.8030  2.4036
 3899WAT      O11907   3.847   4.920   3.516 -0.5404  0.4836  0.0404
 3899WAT     H111908   3.933   4.884   3.493 -0.2176  0.7414  0.7901
 3899WAT     H211909   3.808   4.945   3.433  0.0845  0.2989 -0.3164
 3900WAT      O11910   2.895   4.325   1.788  0.4101 -0.6627 -0.5883
 3900WAT     H111911   2.826   4.325   1.722  1.9014  1.0689 -2.2423
 3900WAT     H211912   2.904   4.416   1.814  0.3800 -1.2023  1.5310
 3901WAT      O11913   1.305   3.075   3.100 -0.1217  0.6651  0.1517
 3901WAT     H111914   1.249   3.132   3.048 -1.1870  0.2848  0.8512
 3901WAT     H211915   1.246   3.011   3.139  0.6997  0.6077  1.3881
 3902WAT      O11916   0.392   0.577   4.887 -0.3008 -0.3009  0.2171
 3902WAT     H111917   0.350   0.491   4.890 -0.2813 -0.2992  0.5257
 3902WAT     H211918   0.475   0.562   4.842  0.6387 -0.8389  2.0520
 3903WAT      O11919   3.790   2.134   5.122 -0.6720 -0.0975 -0.4224
 3903WAT     H111920   3.880   2.116   5.095  0.3762 -0.9691  3.1152
 3903WAT     H211921   3.743   2.053   5.106 -0.1449 -0.5154  0.0921
 3904WAT      O11922   1.798   5.044   3.263 -0.4668 -0.1528 -0.0291
 3904WAT     H111923   1.779   5.007   3.349  0.2042  0.0619  0.2189
 3904WAT     H211924   1.851   4.977   3.220 -1.3109 -0.5191 -0.5083
 3905WAT      O11925   0.490   1.017   4.975  0.0150 -0.5602  0.1761
 3905WAT     H111926   0.512   1.110   4.978 -1.9120 -0.0812  2.2775
 3905WAT     H211927   0.475   0.999   4.882 -2.8221  2.1428 -0.0727
 3906WAT      O11928   2.494   0.646   4.059 -0.1681 -0.4462  0.4096
 3906WAT     H111929   2.425   0.699   4.020  1.2226  1.1600  0.0236
 3906WAT     H211930   2.460   0.623   4.145 -0.2577  2.5090  1.2992
 3907WAT      O11931   3.844   4.519   3.484 -0.5460 -0.2521  0.0846
 3907WAT     H111932   3.902   4.592   3.506 -1.6292  0.2346  1.5669
 3907WAT     H211933   3.816   4.536   3.394  0.7332  0.0800 -0.2685
 3908WAT      O11934   3.321   1.164   3.133  0.8592  0.2718  0.0850
 3908WAT     H111935   3.387   1.123   3.078 -0.4441 -0.5741 -0.8888
 3908WAT     H211936   3.347   1.140   3.222  1.0527 -1.2988 -0.3644
 3909WAT      O11937   4.043   0.905   3.630 -0.0844 -0.2217 -0.3036
 3909WAT     H111938   4.056   0.911   3.725 -1.4789  0.2937 -0.1227
 3909WAT     H211939   4.040   0.811   3.612 -1.8592 -0.3494  0.4956
 3910WAT      O11940   0.329   3.561   3.156  0.4694  0.1192  0.1613
 3910WAT     H111941   0.246   3.541   3.199  1.9460 -3.2777  1.7434
 3910WAT     H211942   0.381   3.606   3.223  0.6749  0.3141 -0.1224
 3911WAT      O11943   1.877   3.340   1.074 -0.2237 -0.1399 -0.3040
 3911WAT     H111944   1.962   3.313   1.040 -0.3905  0.0107 -0.8428
 3911WAT     H211945   1.851   3.268   1.133 -0.0300 -0.4995 -0.6539
 3912WAT      O11946   1.093   2.757   2.332 -0.1886 -0.4413  0.6427
 3912WAT     H111947   1.185   2.772   2.352 -0.0134  1.0796 -1.0410
 3912WAT     H211948   1.050   2.752   2.417  0.9717  2.1940  1.4676
 3913WAT      O11949   3.595   1.608   3.082  0.4876  0.5006  0.4007
 3913WAT     H111950   3.608   1.626   3.175  2.2280 -0.1330  0.3192
 3913WAT     H211951   3.662   1.543   3.061 -0.5066 -0.1044 -1.0878
 3914WAT      O11952   1.574   5.071   4.081  0.3750  0.4057 -0.0939
 3914WAT     H111953   1.626   4.992   4.091  1.6219  1.2728  0.5688
 3914WAT     H211954   1.605   5.111   4.000 -1.4866 -0.6353 -1.3866
 3915WAT      O11955   0.785   2.145   4.953 -0.2863 -0.2022 -0.3609
 3915WAT     H111956   0.755   2.214   5.012  0.1723 -2.2098  2.4178
 3915WAT     H211957   0.709   2.127   4.897 -0.8168  1.6288 -0.2947
 3916WAT      O11958   0.027   0.673   2.985 -0.5392  0.0708  0.3026
 3916WAT     H111959   0.080   0.594   2.977  1.7449  1.6204 -0.7478
 3916WAT     H211960   0.027   0.691   3.079  2.6625  1.1124  0.2304
 3917WAT      O11961   0.803   3.624   3.844 -0.5430  0.6890  0.1805
 3917WAT     H111962   0.743   3.550   3.841 -0.2500  0.4799 -0.7229
 3917WAT     H211963   0.889   3.585   3.860 -0.2789  0.7603 -1.0216
 3918WAT      O11964   1.785   4.454   2.639  0.0351  0.5842  0.1494
 3918WAT     H111965   1.842   4.435   2.714  1.7962 -0.6328 -1.4186
 3918WAT     H211966   1.765   4.368   2.602 -0.2616  1.1917 -1.1574
 3919WAT      O11967   0.192   2.234   0.337  0.3319 -0.2484 -0.1516
 3919WAT     H111968   0.270   2.205   0.289 -0.6996 -0.0542 -2.0455
 3919WAT     H211969   0.121   2.180   0.302 -0.7238  0.9698  0.0375
 3920WAT      O11970   1.284   4.077   2.209 -0.1176  0.0170  0.4775
 3920WAT     H111971   1.258   3.985   2.211  0.4510 -0.1681 -0.0592
 3920WAT     H211972   1.219   4.119   2.153  0.4831 -0.3669 -0.5432
 3921WAT      O11973   0.078   0.933   2.895 -0.0333  0.5171 -0.1352
 3921WAT     H111974   0.157   0.907   2.849  0.1412  1.6676 -0.5260
 3921WAT     H211975   0.048   0.854   2.940  3.0407  0.6937  2.6317
 3922WAT      O11976   0.608   1.987   4.363  0.2602  0.1591 -0.2331
 3922WAT     H111977   0.524   2.024   4.392  0.4706 -0.1626  0.8526
 3922WAT     H211978   0.667   2.004   4.436  0.5449 -1.6916  0.0232
 3923WAT      O11979   1.641   0.058   4.321  0.6557  0.9721 -0.0825
 3923WAT     H111980   1.607   0.023   4.238 -0.5431 -0.6024  1.0176
 3923WAT     H211981   1.581   0.129   4.344  0.5228  0.8785 -0.1476
 3924WAT      O11982   4.163   2.166   0.618  0.2370 -0.2617  0.4845
 3924WAT     H111983   4.194   2.235   0.559 -1.5803  0.3068  0.1512
 3924WAT     H211984   4.079   2.140   0.583  1.2707 -3.3883  0.0545
 3925WAT      O11985   0.706   0.675   4.078  0.3413 -0.3524 -0.2241
 3925WAT     H111986   0.687   0.705   4.167  1.4984 -1.1168  0.3112
 3925WAT     H211987   0.724   0.755   4.029 -0.1674  0.0663  0.2682
 3926WAT      O11988   0.305   3.969   2.439  0.2360  0.5223 -0.1151
 3926WAT     H111989   0.353   4.000   2.516  0.8985  1.0719 -0.7413
 3926WAT     H211990   0.343   4.017   2.366 -0.8438  0.4985 -0.7125
 3927WAT      O11991   2.732   4.619   2.731  0.2640 -0.0696 -0.6660
 3927WAT     H111992   2.787   4.693   2.707 -2.0981  2.2770  0.6319
 3927WAT     H211993   2.773   4.584   2.811  0.7768  0.5434 -0.6557
 3928WAT      O11994   2.088   4.966   2.641  0.0904  0.6026 -0.2737
 3928WAT     H111995   2.143   4.892   2.616 -1.8533 -1.4110  1.1238
 3928WAT     H211996   2.075   4.956   2.735 -0.1041  2.8500 -0.0016
 3929WAT      O11997   1.539   5.053   3.206 -0.2180 -0.1765  0.0763
 3929WAT     H111998   1.513   5.143   3.185 -2.0342  0.0498  2.7361
 3929WAT     H211999   1.635   5.056   3.211 -0.0556  0.9030 -2.5024
 3930WAT      O12000   0.149   1.261   0.365 -0.0457 -0.6661 -0.3407
 3930WAT     H112001   0.108   1.214   0.437  1.5990 -0.2405  0.9198
 3930WAT     H212002   0.220   1.311   0.406  0.2618  0.4253 -2.0965
 3931WAT      O12003   2.274   0.364   3.753 -0.0179  0.5880  0.1076
 3931WAT     H112004   2.281   0.306   3.678 -0.8482  0.8525 -0.1819
 3931WAT     H212005   2.342   0.430   3.739  1.8260 -0.9958  1.0890
 3932WAT      O12006   3.684   3.801   1.811 -0.4296 -0.0950  0.1830
 3932WAT     H112007   3.651   3.725   1.763 -1.6047  0.8435 -0.5308
 3932WAT     H212008   3.705   3.767   1.898  2.1603 -1.9389 -1.0136
 3933WAT      O12009   2.749   2.827   1.244 -0.6178  0.1584  0.2155
 3933WAT     H112010   2.843   2.830   1.261  0.3157 -0.5413 -3.8789
 3933WAT     H212011   2.726   2.734   1.249  0.0707 -0.3160 -3.3352
 3934WAT      O12012   3.777   3.774   2.856  0.3534 -0.4067 -0.2206
 3934WAT     H112013   3.860   3.742   2.821  0.8249  0.4525  0.0800
 3934WAT     H212014   3.796   3.864   2.883 -0.5234 -0.3997  0.3972
 3935WAT      O12015   1.623   3.045   4.086 -0.0453 -0.2485  0.0024
 3935WAT     H112016   1.541   3.082   4.120 -0.4922 -0.5333 -0.7221
 3935WAT     H212017   1.606   3.034   3.992  0.7801 -0.4441 -0.1246
 3936WAT      O12018   2.182   1.640   1.794 -0.0501  0.3186 -0.3313
 3936WAT     H112019   2.203   1.570   1.732  1.2810 -0.0107  0.4536
 3936WAT     H212020   2.136   1.705   1.741  2.0495  0.5948 -1.9780
 3937WAT      O12021   2.637   2.288   0.589  0.4653 -0.5491 -0.0238
 3937WAT     H112022   2.554   2.335   0.594  0.3549 -0.8705  2.6589
 3937WAT     H212023   2.703   2.353   0.612  0.7019 -0.8454  0.1336
 3938WAT      O12024   1.558   3.649   4.038  0.1791  0.5514  0.7252
 3938WAT     H112025   1.467   3.633   4.064 -0.7915  1.9712 -1.5286
 3938WAT     H212026   1.591   3.563   4.013 -1.9169  0.5042 -2.3258
 3939WAT      O12027   2.151   4.346   1.499 -0.3604 -0.0155 -0.1347
 3939WAT     H112028   2.151   4.255   1.468  0.0526 -0.6829  1.7220
 3939WAT     H212029   2.184   4.341   1.588 -0.6177  1.9437  0.1098
 3940WAT      O12030   3.524   0.953   3.075  0.2627  0.2648  0.0448
 3940WAT     H112031   3.505   0.884   3.139 -1.6509  1.0543  0.3894
 3940WAT     H212032   3.556   0.905   2.998 -0.4980 -0.9822  0.4647
 3941WAT      O12033   1.271   3.139   1.436 -0.4318 -0.3653  0.1020
 3941WAT     H112034   1.295   3.171   1.349 -1.4025  0.0449 -0.0276
 3941WAT     H212035   1.225   3.212   1.477  0.1951 -0.4809  1.0518
 3942WAT      O12036   3.507   3.070   1.768  0.4154 -0.5610 -0.2900
 3942WAT     H112037   3.506   3.139   1.834  1.9087 -0.5272 -0.2649
 3942WAT     H212038   3.418   3.070   1.732 -0.4612 -0.6136  1.7213
 3943WAT      O12039   0.146   1.810   3.531 -0.0485 -0.0434  0.7721
 3943WAT     H112040   0.093   1.883   3.563 -0.1955 -0.3248  1.1962
 3943WAT     H212041   0.082   1.744   3.506  0.0888 -0.7233  2.0994
 3944WAT      O12042   0.248   0.532   2.885 -0.1685 -0.0210 -0.3026
 3944WAT     H112043   0.333   0.569   2.909 -0.1388  0.5540 -1.2624
 3944WAT     H212044   0.256   0.439   2.907  1.0593 -0.1723 -1.2728
 3945WAT      O12045   1.093   3.219   4.438  0.6352 -0.0139  0.4424
 3945WAT     H112046   1.027   3.150   4.430  0.0909  0.4946  0.5009
 3945WAT     H212047   1.169   3.175   4.475  0.8344 -0.9242 -0.9736
 3946WAT      O12048   1.629   1.752   5.221  0.0658  0.1879  0.4177
 3946WAT     H112049   1.647   1.658   5.217 -1.0071  0.0216 -2.2499
 3946WAT     H212050   1.701   1.792   5.171 -0.1555  0.6753  0.4830
 3947WAT      O12051   0.561   4.005   1.509  0.1700  1.1954 -0.5715
 3947WAT     H112052   0.510   4.082   1.484 -1.2936 -0.1625 -1.9407
 3947WAT     H212053   0.495   3.936   1.524  1.4792 -0.0237 -0.1889
 3948WAT      O12054   1.714   0.365   1.315 -0.7270 -0.2354 -0.2681
 3948WAT     H112055   1.733   0.454   1.343  0.9557 -0.3717 -0.8655
 3948WAT     H212056   1.799   0.328   1.293 -1.6559 -1.0719 -2.7670
 3949WAT      O12057   0.680   1.604   2.320  0.5709  0.4932 -0.9116
 3949WAT     H112058   0.654   1.654   2.397 -0.6327 -0.6629 -0.5312
 3949WAT     H212059   0.752   1.655   2.282  0.9298  1.2936  0.7376
 3950WAT      O12060   2.030   4.963   2.947  0.5274 -0.4320 -0.5343
 3950WAT     H112061   1.997   4.884   2.990 -1.2891 -0.0894 -1.2451
 3950WAT     H212062   2.097   4.995   3.008 -1.0817 -0.6435  1.4789
 3951WAT      O12063   3.122   0.798   0.511 -0.4172  0.1873  0.1111
 3951WAT     H112064   3.079   0.824   0.430 -1.1614 -0.4550  0.2841
 3951WAT     H212065   3.212   0.778   0.486 -0.7088 -0.2664 -0.6164
 3952WAT      O12066   2.665   0.218   3.908  0.2053 -0.2856  0.3481
 3952WAT     H112067   2.651   0.129   3.938  0.6547 -0.6758 -0.5515
 3952WAT     H212068   2.587   0.266   3.936  0.5615 -0.6315  2.0252
 3953WAT      O12069   1.945   3.309   1.891  0.0729  0.4976 -0.1041
 3953WAT     H112070   1.929   3.271   1.804  1.1984 -1.1262  0.3600
 3953WAT     H212071   1.864   3.293   1.939  0.2359 -0.6257 -0.1801
 3954WAT      O12072   3.160   3.005   3.110  0.2352 -0.1626  0.0410
 3954WAT     H112073   3.087   2.994   3.049  0.6217  1.2029 -0.6951
 3954WAT     H212074   3.227   2.945   3.077  0.6810  1.0262 -1.2929
 3955WAT      O12075   0.322   1.927   5.279  0.6048 -0.0833  0.0907
 3955WAT     H112076   0.325   1.841   5.320  0.5468  0.4086  1.1777
 3955WAT     H212077   0.315   1.910   5.186 -2.1307 -1.2815  0.4262
 3956WAT      O12078   2.237   4.204   4.668  0.2022 -1.0386 -0.0578
 3956WAT     H112079   2.332   4.200   4.655  0.1761 -1.4926 -0.1091
 3956WAT     H212080   2.212   4.115   4.693 -0.0965 -0.7388  0.7273
 3957WAT      O12081   0.160   3.342   4.331  0.6895 -0.2007 -0.4503
 3957WAT     H112082   0.176   3.378   4.418  1.3316 -1.4473 -0.0358
 3957WAT     H212083   0.097   3.403   4.292 -1.1843 -0.6654  1.6107
 3958WAT      O12084   3.789   2.299   3.946  0.0484  0.4441  0.2118
 3958WAT     H112085   3.846   2.300   4.023  0.6717 -0.7379 -0.2202
 3958WAT     H212086   3.813   2.379   3.898  1.0247  0.1979  0.2695
 3959WAT      O12087   2.986   4.282   2.565 -0.2067 -0.7071 -0.0165
 3959WAT     H112088   2.959   4.318   2.481  0.0942 -2.9758 -1.1551
 3959WAT     H212089   2.907   4.288   2.620 -0.0080  2.1167  0.1028
 3960WAT      O12090   3.798   4.034   5.007  0.3217  0.2798 -0.2766
 3960WAT     H112091   3.821   4.083   5.086  1.7059 -1.7116  0.6258
 3960WAT     H212092   3.703   4.032   5.007  0.2504  1.9475  0.2595
 3961WAT      O12093   2.017   4.284   4.162  0.1307 -0.7946  0.1772
 3961WAT     H112094   2.110   4.292   4.143 -0.2854  0.3707 -1.7451
 3961WAT     H212095   2.012   4.274   4.257  2.1173  1.3454  0.6184
 3962WAT      O12096   2.551   1.303   4.747 -0.7486  0.0913  0.4779
 3962WAT     H112097   2.570   1.227   4.802 -0.4098  0.7228  1.2460
 3962WAT     H212098   2.634   1.351   4.744 -1.2533  0.9973  0.8920
 3963WAT      O12099   4.271   1.427   4.878  0.1690 -0.0290 -0.0045
 3963WAT     H112100   4.331   1.445   4.806  2.1663  0.1625  1.5990
 3963WAT     H212101   4.266   1.332   4.883  0.5497 -0.0505 -0.0074
 3964WAT      O12102   3.189   0.530   2.574 -0.3296 -0.0483 -0.6612
 3964WAT     H112103   3.180   0.624   2.558 -1.0564 -0.0035 -0.0343
 3964WAT     H212104   3.100   0.499   2.585 -0.1333 -0.9408 -1.4926
 3965WAT      O12105   4.166   2.582   4.488  0.8199 -0.1373  0.1891
 3965WAT     H112106   4.117   2.509   4.526  0.7495  0.2989  0.9651
 3965WAT     H212107   4.110   2.615   4.418 -0.6702  1.1701  1.8799
 3966WAT      O12108   2.407   2.449   2.659  0.0075  0.1764 -0.2948
 3966WAT     H112109   2.323   2.409   2.639 -0.6102  2.1748 -2.0167
 3966WAT     H212110   2.385   2.521   2.719  0.3649  1.1209 -1.2719
 3967WAT      O12111   3.321   0.779   1.033  0.5388  0.1260  0.2791
 3967WAT     H112112   3.259   0.846   1.003  0.2920 -0.1885  0.0704
 3967WAT     H212113   3.271   0.725   1.094  0.0438 -1.2026 -1.2192
 3968WAT      O12114   1.510   1.422   4.627 -0.1966  0.3552 -0.4187
 3968WAT     H112115   1.579   1.482   4.653 -1.2849  1.4496  0.0142
 3968WAT     H212116   1.441   1.433   4.693 -0.4788 -1.2938 -0.3823
 3969WAT      O12117   2.228   0.114   4.951  0.8546 -0.3564 -0.1233
 3969WAT     H112118   2.157   0.071   4.998  0.4397  1.3659  0.8952
 3969WAT     H212119   2.232   0.068   4.867 -0.4913 -1.4258  0.3617
 3970WAT      O12120   2.806   5.064   4.671  0.3333 -0.0490 -0.3688
 3970WAT     H112121   2.831   5.006   4.743  1.7558 -0.6138 -1.2709
 3970WAT     H212122   2.753   5.132   4.712 -0.0501 -1.1128  0.9733
 3971WAT      O12123   1.533   1.175   5.192 -0.1618 -0.1689  0.4933
 3971WAT     H112124   1.478   1.100   5.215  0.3475 -0.3657  1.1250
 3971WAT     H212125   1.493   1.212   5.114 -0.8927 -0.6122  0.6499
 3972WAT      O12126   4.131   3.552   0.666 -0.2838  0.4955  0.0980
 3972WAT     H112127   4.081   3.538   0.586 -1.3043 -0.9358  0.9335
 3972WAT     H212128   4.065   3.564   0.734  0.5626  2.5130  0.6386
 3973WAT      O12129   3.813   2.785   4.576 -0.9534 -0.2917  0.3135
 3973WAT     H112130   3.888   2.820   4.528 -0.3162 -2.1341 -0.1109
 3973WAT     H212131   3.750   2.762   4.508  0.0932 -3.2453  0.2316
 3974WAT      O12132   2.753   2.143   4.488 -0.8866 -0.4399  0.6697
 3974WAT     H112133   2.791   2.221   4.529  0.3453 -0.9047  0.4704
 3974WAT     H212134   2.731   2.171   4.399 -1.0585 -0.1480  0.8029
 3975WAT      O12135   0.068   3.784   3.813  0.1488 -0.3744  0.3838
 3975WAT     H112136   0.043   3.870   3.846  0.2371  0.1262 -0.8119
 3975WAT     H212137   0.131   3.751   3.877  2.7657  1.9074 -0.8590
 3976WAT      O12138   4.226   0.809   0.957 -0.4460 -0.2165  0.5412
 3976WAT     H112139   4.255   0.819   0.866 -3.0691  1.6750 -0.2037
 3976WAT     H212140   4.147   0.756   0.952  0.1095 -1.2336  1.9196
 3977WAT      O12141   0.845   3.571   4.798 -0.0882  0.4527  0.0668
 3977WAT     H112142   0.821   3.498   4.741  2.6373 -0.3354 -0.1873
 3977WAT     H212143   0.918   3.614   4.754 -1.0796  2.9245  0.6161
 3978WAT      O12144   0.583   0.906   0.869  0.5187 -0.4912  0.1216
 3978WAT     H112145   0.633   0.921   0.950  3.6470 -1.1700 -1.5114
 3978WAT     H212146   0.573   0.811   0.864  0.2835 -0.4481 -0.2714
 3979WAT      O12147   0.559   1.442   4.440  0.0031 -0.1177 -0.1019
 3979WAT     H112148   0.590   1.371   4.497 -2.2893 -0.0007  1.4162
 3979WAT     H212149   0.637   1.495   4.424  1.0832 -1.0927  1.5746
 3980WAT      O12150   1.295   2.270   4.078 -0.0315  0.4318 -0.4774
 3980WAT     H112151   1.229   2.215   4.036 -0.9698  1.1574 -0.0018
 3980WAT     H212152   1.270   2.270   4.171  1.5247 -0.4838 -0.0342
 3981WAT      O12153   3.348   4.851   5.113 -0.0392 -0.2695  0.2165
 3981WAT     H112154   3.404   4.788   5.159  1.5722  1.4530  0.7617
 3981WAT     H212155   3.392   4.935   5.126 -2.6695  1.1534  0.4472
 3982WAT      O12156   3.720   2.527   1.729 -0.1848 -0.1876 -0.3917
 3982WAT     H112157   3.813   2.531   1.705  0.0011 -0.7466  0.2131
 3982WAT     H212158   3.715   2.456   1.792 -0.7130  1.0418  0.9969
 3983WAT      O12159   3.024   3.293   2.241 -0.4704  0.3218  0.5481
 3983WAT     H112160   2.957   3.356   2.265 -0.4625  0.7707 -0.5863
 3983WAT     H212161   3.103   3.323   2.287  0.3154  2.8878 -2.2139
 3984WAT      O12162   1.820   1.352   3.521 -0.4003 -0.1311 -0.4678
 3984WAT     H112163   1.866   1.403   3.588 -1.5730  0.8321 -0.3644
 3984WAT     H212164   1.727   1.369   3.537 -0.7194  1.0527 -2.9787
 3985WAT      O12165   1.581   2.107   0.797 -0.0232 -0.5059  0.2993
 3985WAT     H112166   1.643   2.180   0.791 -0.0167 -0.4065  1.3735
 3985WAT     H212167   1.563   2.098   0.890 -1.6487 -0.5261  0.0163
 3986WAT      O12168   4.183   3.557   4.290  0.4642  0.0154  0.1700
 3986WAT     H112169   4.231   3.512   4.221  1.0458 -0.8671  1.1234
 3986WAT     H212170   4.108   3.500   4.308 -0.3852  0.8604 -0.5701
 3987WAT      O12171   2.019   3.251   0.081 -0.1664 -0.1559  0.2964
 3987WAT     H112172   1.992   3.340   0.057 -0.4249 -0.6567 -1.4104
 3987WAT     H212173   2.061   3.262   0.166  0.2444  1.6821 -0.0813
 3988WAT      O12174   2.139   0.179   3.928  0.0194  0.1974  0.1374
 3988WAT     H112175   2.188   0.252   3.890  0.0658  1.7203  2.8684
 3988WAT     H212176   2.047   0.206   3.921 -0.4722 -1.7521 -3.1446
 3989WAT      O12177   0.788   2.913   0.503 -0.0438 -0.5405 -0.0639
 3989WAT     H112178   0.799   2.934   0.410 -0.1899  1.7387  0.3827
 3989WAT     H212179   0.877   2.904   0.537  0.0846  0.7114 -0.0217
 3990WAT      O12180   3.374   1.108   0.615  0.4855 -0.2280 -0.2867
 3990WAT     H112181   3.282   1.132   0.610  0.5025 -0.1408 -0.1864
 3990WAT     H212182   3.374   1.025   0.664  0.2948 -1.2423 -1.9477
 3991WAT      O12183   4.134   4.150   1.256  0.5720  0.3624 -0.2070
 3991WAT     H112184   4.136   4.062   1.292 -1.2470 -0.2856 -1.5434
 3991WAT     H212185   4.170   4.141   1.167  2.6121  1.4582  0.4325
 3992WAT      O12186   3.641   4.629   5.249 -0.5495 -0.1684 -0.7612
 3992WAT     H112187   3.644   4.603   5.157 -0.6362 -0.7797 -0.5951
 3992WAT     H212188   3.701   4.569   5.293 -0.2935  0.2977 -0.4562
 3993WAT      O12189   0.768   3.469   0.790  0.4689  0.1624  0.2229
 3993WAT     H112190   0.705   3.541   0.788 -0.1859 -0.3557 -2.6228
 3993WAT     H212191   0.719   3.394   0.824 -0.1129  0.0859 -0.7386
 3994WAT      O12192   1.188   2.207   3.605  0.2426 -0.4465 -0.2158
 3994WAT     H112193   1.101   2.225   3.569  0.1393  2.1407  1.0708
 3994WAT     H212194   1.246   2.205   3.529 -0.8073 -1.4783 -1.0268
 3995WAT      O12195   3.066   2.482   1.530  0.5430  0.2088 -0.3944
 3995WAT     H112196   3.004   2.474   1.457 -0.6146  2.8243  0.1966
 3995WAT     H212197   3.140   2.531   1.493  0.1360  1.1820  0.0653
 3996WAT      O12198   0.829   1.268   0.535 -0.4309  0.2629  0.0886
 3996WAT     H112199   0.772   1.216   0.592 -0.0497  1.1493  1.3229
 3996WAT     H212200   0.846   1.211   0.460 -0.8332 -0.9952  0.9210
 3997WAT      O12201   3.774   2.927   0.417  0.1444  0.6128 -0.0190
 3997WAT     H112202   3.781   2.888   0.504  1.1838 -1.9198 -1.1500
 3997WAT     H212203   3.684   2.908   0.390  0.8408 -1.8270 -0.8466
 3998WAT      O12204   3.599   4.342   5.022 -0.0075 -0.2885  0.1723
 3998WAT     H112205   3.670   4.285   5.051 -0.5796 -0.7179  0.7588
 3998WAT     H212206   3.641   4.425   5.002  0.5038 -0.1530  1.6887
 3999WAT      O12207   1.098   5.095   3.823  0.0416 -0.2665 -0.0012
 3999WAT     H112208   1.114   5.126   3.912 -0.4445 -0.8661  0.3022
 3999WAT     H212209   1.173   5.128   3.772 -0.3458  1.1898  0.3475
 4000WAT      O12210   4.372   0.651   1.162  0.8890 -0.1473 -0.3731
 4000WAT     H112211   4.326   0.709   1.102  0.5791 -0.3168 -0.2991
 4000WAT     H212212   4.411   0.584   1.105  0.0080 -0.7109 -0.3303
 4001WAT      O12213   2.130   1.255   4.123 -0.5928  0.3853  0.3494
 4001WAT     H112214   2.159   1.299   4.203  1.5595  1.3233 -0.8756
 4001WAT     H212215   2.209   1.245   4.070 -1.7914 -1.0470 -1.2957
 4002WAT      O12216   4.296   3.441   2.743  0.3504  0.8093 -0.1898
 4002WAT     H112217   4.221   3.384   2.723  1.1883  0.0883 -1.4095
 4002WAT     H212218   4.284   3.465   2.835 -0.5224 -0.6029  0.0917
 4003WAT      O12219   1.953   2.798   1.371 -0.3021  0.4883  0.5370
 4003WAT     H112220   1.945   2.881   1.323  0.0062  0.6444  0.7519
 4003WAT     H212221   1.968   2.733   1.302 -0.4611  0.6217  0.3738
 4004WAT      O12222   2.202   4.515   2.350 -0.1770  0.5715 -0.2789
 4004WAT     H112223   2.244   4.458   2.415  0.9371 -0.1319 -1.5682
 4004WAT     H212224   2.116   4.533   2.387 -0.0592 -0.8478  0.7953
 4005WAT      O12225   2.565   1.357   1.964  0.0837 -0.1528 -0.4970
 4005WAT     H112226   2.646   1.355   1.912  1.1380 -2.7593  1.0386
 4005WAT     H212227   2.500   1.312   1.910  0.3933 -0.3763 -0.6868
   4.51204   5.13065   5.28767
