Generic title
12227
    1ILE      N    1   4.444   3.931   2.435 -0.7132 -0.6912  1.0193
    1ILE     H1    2   4.351   3.919   2.471 -1.2854 -1.3778 -0.5993
    1ILE     H2    3   4.495   3.847   2.411 -1.0172 -1.1888  2.0728
    1ILE     H3    4   4.419   3.972   2.346  1.2388 -0.2765  0.6166
    1ILE     CA    5   4.534   4.030   2.496 -0.3047  0.3178  0.4576
    1ILE     HA    6   4.611   4.054   2.423  1.0561 -0.0472  1.7023
    1ILE     CB    7   4.453   4.160   2.538 -0.3969 -0.1970  0.3026
    1ILE     HB    8   4.384   4.201   2.464 -0.9323  1.1619  1.5085
    1ILE    CG2    9   4.368   4.118   2.659  0.3491  0.5150  0.9064
    1ILE   HG21   10   4.417   4.141   2.753  0.7107 -0.8855  1.0862
    1ILE   HG22   11   4.268   4.162   2.661 -1.1925 -2.4813 -1.1289
    1ILE   HG23   12   4.352   4.010   2.660  0.9308  0.3501 -1.3094
    1ILE    CG1   13   4.542   4.286   2.561  0.1223  0.0018 -0.6866
    1ILE   HG12   14   4.619   4.296   2.484  1.1607  1.8582  0.5113
    1ILE   HG13   15   4.590   4.279   2.658 -1.0309  0.9312 -0.0236
    1ILE    CD1   16   4.461   4.418   2.558 -0.0239 -0.1964 -0.5866
    1ILE   HD11   17   4.389   4.426   2.639  0.4972 -0.8967 -0.0441
    1ILE   HD12   18   4.530   4.498   2.586  0.5540 -1.0666  0.5891
    1ILE   HD13   19   4.412   4.443   2.464 -2.7421  1.2252  1.0908
    1ILE      C   20   4.618   3.968   2.606 -0.2823 -0.1202 -0.4587
    1ILE      O   21   4.569   3.880   2.673 -0.5197 -0.2434 -0.2816
    2LEU      N   22   4.743   4.015   2.622 -0.0979 -0.4808  0.2943
    2LEU      H   23   4.769   4.092   2.562  0.9890 -1.7935 -0.9532
    2LEU     CA   24   4.821   3.994   2.745 -0.3408  0.3025 -0.0079
    2LEU     HA   25   4.772   3.926   2.816  2.7361 -0.0597  1.9469
    2LEU     CB   26   4.953   3.926   2.717 -0.2639 -0.8281  0.1170
    2LEU    HB2   27   5.023   4.005   2.691 -0.3500 -0.5486  0.7155
    2LEU    HB3   28   4.988   3.879   2.808 -1.9667 -2.1125  0.1596
    2LEU     CG   29   4.960   3.822   2.605 -0.7269  0.1901 -0.0677
    2LEU     HG   30   4.940   3.861   2.505  1.4863  0.1034 -0.5871
    2LEU    CD1   31   5.111   3.776   2.588  1.1999 -0.1545 -0.1390
    2LEU   HD11   32   5.161   3.852   2.528  0.4164  1.3380  1.0499
    2LEU   HD12   33   5.157   3.768   2.686  0.5264 -1.3107  0.1081
    2LEU   HD13   34   5.125   3.679   2.541  1.2896  0.5062 -1.5445
    2LEU    CD2   35   4.878   3.702   2.634  0.7203 -0.2224  0.2766
    2LEU   HD21   36   4.896   3.679   2.739  0.3812 -1.9506 -0.0068
    2LEU   HD22   37   4.774   3.732   2.632  0.2479 -1.7511  0.5691
    2LEU   HD23   38   4.895   3.615   2.570 -1.9817 -1.4742  1.1241
    2LEU      C   39   4.847   4.125   2.824  0.0240 -0.2287  0.6332
    2LEU      O   40   4.847   4.237   2.770  0.3520  0.5218 -0.1583
    3ARG      N   41   4.853   4.110   2.955  0.6861 -0.4841  0.3063
    3ARG      H   42   4.847   4.016   2.992  2.3040 -0.6869  0.1164
    3ARG     CA   43   4.861   4.223   3.052  0.2146 -0.0698  1.2612
    3ARG     HA   44   4.885   4.314   2.996 -2.2110 -0.4213 -0.5455
    3ARG     CB   45   4.726   4.252   3.124 -0.1646 -0.3670 -0.4447
    3ARG    HB2   46   4.738   4.350   3.170  0.1733 -0.2236 -0.8247
    3ARG    HB3   47   4.655   4.268   3.043  0.3694  0.1900 -0.8166
    3ARG     CG   48   4.671   4.150   3.227  0.1789  0.1065  0.5808
    3ARG    HG2   49   4.662   4.049   3.186 -0.5869  0.0586  0.8480
    3ARG    HG3   50   4.735   4.148   3.315  0.7132 -1.1745  0.1896
    3ARG     CD   51   4.535   4.185   3.285 -0.1242  0.2648  0.0125
    3ARG    HD2   52   4.527   4.137   3.383 -0.2162 -0.4632 -0.3409
    3ARG    HD3   53   4.535   4.290   3.315  1.6949  0.3488 -0.2078
    3ARG     NE   54   4.421   4.150   3.206  0.5914 -0.1454 -0.6981
    3ARG     HE   55   4.392   4.054   3.217 -2.1829  0.8163  1.8738
    3ARG     CZ   56   4.344   4.233   3.135  0.2762  0.3073  0.9941
    3ARG    NH1   57   4.349   4.364   3.149 -0.3662  0.1894 -0.0198
    3ARG   HH11   58   4.430   4.410   3.186 -0.8782  0.8668  0.2861
    3ARG   HH12   59   4.287   4.428   3.103  0.3952  0.9497  0.0012
    3ARG    NH2   60   4.252   4.176   3.054 -0.1603 -0.1513 -0.4702
    3ARG   HH21   61   4.237   4.076   3.050 -2.6856  0.1378  0.0470
    3ARG   HH22   62   4.187   4.238   3.007 -0.6795  1.4793  2.1564
    3ARG      C   63   4.968   4.201   3.157 -0.8625 -0.5764 -0.3283
    3ARG      O   64   5.013   4.091   3.182 -0.4496 -0.5731 -0.3860
    4TRP      N   65   5.027   4.312   3.202  0.0711 -0.8643  0.1516
    4TRP      H   66   4.986   4.402   3.182 -0.1962 -1.2305 -1.0236
    4TRP     CA   67   5.147   4.311   3.290  0.1834 -0.5040 -0.1253
    4TRP     HA   68   5.157   4.213   3.338  2.1483  0.3778  1.4209
    4TRP     CB   69   5.273   4.334   3.196  0.2255  0.1969  0.2002
    4TRP    HB2   70   5.253   4.411   3.122  0.4708 -1.6892 -1.9420
    4TRP    HB3   71   5.365   4.349   3.254 -0.9534  1.1948  1.8734
    4TRP     CG   72   5.306   4.217   3.109  0.8481 -0.0094  0.0963
    4TRP    CD1   73   5.372   4.106   3.149 -0.2479  0.3097 -0.0224
    4TRP    HD1   74   5.407   4.085   3.249  1.6962 -0.5150 -0.8386
    4TRP    NE1   75   5.395   4.027   3.041  0.0200 -0.2385 -0.2770
    4TRP    HE1   76   5.438   3.936   3.051 -0.0345 -0.3183 -0.7485
    4TRP    CE2   77   5.345   4.080   2.926  0.0183 -0.2684  0.2643
    4TRP    CZ2   78   5.338   4.041   2.792  0.0055 -0.8042 -0.1159
    4TRP    HZ2   79   5.381   3.952   2.748 -0.3517 -0.5112 -1.0791
    4TRP    CH2   80   5.266   4.120   2.703 -0.1622  0.2747  0.6928
    4TRP    HH2   81   5.259   4.099   2.598 -1.9245 -2.6537  1.2862
    4TRP    CZ3   82   5.184   4.224   2.747  0.4735 -0.0963 -0.1836
    4TRP    HZ3   83   5.131   4.282   2.672 -1.0920  0.8062  1.5450
    4TRP    CE3   84   5.186   4.270   2.882  0.3399  0.0118 -0.5226
    4TRP    HE3   85   5.126   4.353   2.916 -0.3708 -0.5003 -0.5191
    4TRP    CD2   86   5.271   4.199   2.974 -0.7023 -0.2387  1.0508
    4TRP      C   87   5.141   4.429   3.402  1.3024 -0.1875  0.3656
    4TRP      O   88   5.057   4.519   3.389  0.2271 -0.3506 -0.2270
    5PRO      N   89   5.231   4.431   3.498 -0.0526  0.0216  0.4237
    5PRO     CD   90   5.300   4.311   3.537  0.5880  0.8827 -0.0887
    5PRO    HD2   91   5.401   4.308   3.495  0.6452 -1.7677  0.0623
    5PRO    HD3   92   5.249   4.217   3.515  0.0120  0.8281  1.3640
    5PRO     CG   93   5.313   4.325   3.692  0.3339 -0.3884 -0.3933
    5PRO    HG2   94   5.397   4.267   3.733  0.9563  0.4767 -0.4219
    5PRO    HG3   95   5.222   4.287   3.738  1.1023  0.5547  2.0609
    5PRO     CB   96   5.337   4.474   3.707  0.2723 -0.0287 -1.3502
    5PRO    HB2   97   5.438   4.501   3.677  0.5451 -1.3388 -1.6704
    5PRO    HB3   98   5.305   4.499   3.808 -0.4021 -2.7875 -0.8038
    5PRO     CA   99   5.242   4.531   3.603  0.5380 -0.1755 -1.1548
    5PRO     HA  100   5.144   4.541   3.649  0.0102 -1.4744 -1.9349
    5PRO      C  101   5.289   4.671   3.555 -0.1032 -0.1536  0.3702
    5PRO      O  102   5.343   4.667   3.441  0.3125 -0.0349 -0.4367
    6TRP      N  103   5.294   4.779   3.630  0.0196 -0.3216 -0.0780
    6TRP      H  104   5.240   4.766   3.714 -1.2981 -0.4310 -0.9242
    6TRP     CA  105   5.357   4.912   3.592 -0.0489 -0.1662 -0.4291
    6TRP     HA  106   5.335   4.936   3.488 -1.2566  0.2370 -0.0936
    6TRP     CB  107   5.287   5.022   3.681 -0.3272 -0.3023 -0.3823
    6TRP    HB2  108   5.292   4.990   3.785 -0.3227  2.7773  0.6837
    6TRP    HB3  109   5.332   5.121   3.678 -2.1600  0.7784  2.6812
    6TRP     CG  110   5.142   5.057   3.645  0.7540 -0.1790  0.0815
    6TRP    CD1  111   5.030   5.004   3.703 -0.5124 -0.7483  0.4013
    6TRP    HD1  112   5.042   4.940   3.790 -0.7794  1.8041  2.4536
    6TRP    NE1  113   4.909   5.043   3.642  0.1253  0.3123 -0.3639
    6TRP    HE1  114   4.821   5.002   3.671  0.9962 -1.1713  0.2895
    6TRP    CE2  115   4.941   5.109   3.528 -0.0768  0.2398  0.4470
    6TRP    CZ2  116   4.865   5.163   3.423 -0.1608 -0.1690 -0.0432
    6TRP    HZ2  117   4.760   5.139   3.415  0.2299 -2.3667  0.7900
    6TRP    CH2  118   4.920   5.239   3.321 -0.2580 -0.6802  0.3031
    6TRP    HH2  119   4.852   5.268   3.243  1.0041 -2.3068 -1.5096
    6TRP    CZ3  120   5.058   5.260   3.310  0.3685  0.3515 -0.2564
    6TRP    HZ3  121   5.103   5.313   3.227  0.4027 -1.8018 -1.6808
    6TRP    CE3  122   5.139   5.202   3.414  0.2540 -0.7417  0.4523
    6TRP    HE3  123   5.245   5.219   3.414  0.0504  1.4626 -2.6593
    6TRP    CD2  124   5.083   5.129   3.527 -0.2475  0.1669  0.5053
    6TRP      C  125   5.504   4.919   3.605  0.2077 -0.2455  0.6658
    6TRP      O  126   5.567   5.015   3.557 -0.4036  0.3416 -0.4478
    7TRP      N  127   5.565   4.817   3.670  0.6563  0.4263 -0.2262
    7TRP      H  128   5.501   4.746   3.704  0.0770  1.8271  1.8384
    7TRP     CA  129   5.707   4.816   3.707 -0.3887  0.1878  0.8132
    7TRP     HA  130   5.727   4.914   3.751 -2.0712  0.9696 -0.0531
    7TRP     CB  131   5.731   4.700   3.804 -0.9917 -0.3974  0.3727
    7TRP    HB2  132   5.766   4.613   3.750 -0.0778 -0.5742  1.2183
    7TRP    HB3  133   5.820   4.728   3.861  0.1509 -1.2306 -0.9436
    7TRP     CG  134   5.633   4.660   3.912  0.2928 -0.0021  0.0444
    7TRP    CD1  135   5.630   4.542   3.980 -0.4586  0.8367  0.6682
    7TRP    HD1  136   5.700   4.462   3.963  0.6055  0.9256  4.0064
    7TRP    NE1  137   5.529   4.531   4.072 -0.7930  0.5142 -0.3509
    7TRP    HE1  138   5.516   4.443   4.120  0.1540 -0.4707 -1.7934
    7TRP    CE2  139   5.462   4.653   4.077  0.6937  0.2022  0.2239
    7TRP    CZ2  140   5.359   4.693   4.160  0.6880 -0.5531 -0.2462
    7TRP    HZ2  141   5.319   4.622   4.232 -0.5759 -0.5600 -0.9382
    7TRP    CH2  142   5.302   4.821   4.144  0.4781  0.5898  0.1756
    7TRP    HH2  143   5.224   4.850   4.213 -0.8301 -1.7171 -0.2448
    7TRP    CZ3  144   5.354   4.907   4.046  0.1839 -0.0028  0.1305
    7TRP    HZ3  145   5.306   5.002   4.027  0.6746  0.7403  2.2783
    7TRP    CE3  146   5.472   4.868   3.975  0.3350 -0.2971  0.2748
    7TRP    HE3  147   5.528   4.939   3.916  0.5616  0.5093  1.4277
    7TRP    CD2  148   5.526   4.736   3.981 -0.8145 -0.0527 -0.3013
    7TRP      C  149   5.786   4.805   3.580 -0.6949  0.7124 -0.1128
    7TRP      O  150   5.744   4.732   3.490  0.2993 -0.1556  0.0860
    8PRO      N  151   5.911   4.858   3.570 -0.2652  0.5557  0.1184
    8PRO     CD  152   5.991   4.920   3.676 -0.2435 -0.4885  0.4376
    8PRO    HD2  153   5.998   4.854   3.763  4.2694 -0.4926  0.3183
    8PRO    HD3  154   5.944   5.015   3.700 -0.5087 -0.4168 -0.3343
    8PRO     CG  155   6.130   4.929   3.618 -0.2642 -0.4998 -0.5254
    8PRO    HG2  156   6.190   4.845   3.653  1.9105  2.1360  2.7308
    8PRO    HG3  157   6.179   5.019   3.655  0.7286 -1.4458  0.5627
    8PRO     CB  158   6.111   4.934   3.464 -0.3634  0.3021 -0.3552
    8PRO    HB2  159   6.193   4.881   3.416  2.1845  0.8150  3.0482
    8PRO    HB3  160   6.090   5.036   3.432  0.0525  0.1042 -1.2910
    8PRO     CA  161   5.986   4.852   3.442  0.7917 -0.4525 -0.2801
    8PRO     HA  162   5.933   4.904   3.362 -0.9007 -1.0305  0.4125
    8PRO      C  163   6.022   4.712   3.397 -0.3770  0.3808  0.4753
    8PRO      O  164   6.101   4.641   3.468  0.2126 -0.0688 -0.2454
    9TRP      N  165   5.966   4.674   3.280  0.5067  0.0547 -0.2816
    9TRP      H  166   5.901   4.736   3.235  0.7835  1.3423  1.0100
    9TRP     CA  167   5.995   4.548   3.208  0.2144  0.8073 -0.0186
    9TRP     HA  168   6.096   4.512   3.227 -0.2767 -1.8859 -1.8746
    9TRP     CB  169   5.886   4.444   3.252 -0.8220 -0.1182  0.2770
    9TRP    HB2  170   5.793   4.499   3.239 -0.8730 -0.2843 -0.0932
    9TRP    HB3  171   5.893   4.361   3.182  0.3544 -0.7344  1.1068
    9TRP     CG  172   5.887   4.399   3.400 -0.4088  0.0696 -0.3693
    9TRP    CD1  173   5.793   4.410   3.498  0.1063 -0.3077  0.2855
    9TRP    HD1  174   5.692   4.447   3.486 -0.1348 -0.8445  0.6131
    9TRP    NE1  175   5.835   4.359   3.620  0.0353  0.2278 -0.0434
    9TRP    HE1  176   5.785   4.352   3.707 -0.3675 -2.6396 -0.4024
    9TRP    CE2  177   5.971   4.329   3.615  0.4303 -0.1124 -0.3697
    9TRP    CZ2  178   6.066   4.274   3.704 -0.5066  0.0850  0.4615
    9TRP    HZ2  179   6.038   4.255   3.806  0.0202 -0.5720  0.4935
    9TRP    CH2  180   6.186   4.229   3.656 -0.1042 -0.4410  0.0042
    9TRP    HH2  181   6.250   4.180   3.729 -0.7478  0.9365  1.5715
    9TRP    CZ3  182   6.219   4.246   3.520  0.9958  0.2236 -0.0171
    9TRP    HZ3  183   6.317   4.212   3.491  3.3492  5.3485  0.7368
    9TRP    CE3  184   6.126   4.305   3.429 -0.0941  0.1260 -0.1192
    9TRP    HE3  185   6.150   4.307   3.324 -2.9927  0.0302 -0.8779
    9TRP    CD2  186   6.002   4.350   3.477 -0.2835 -0.2495  0.0446
    9TRP      C  187   5.987   4.572   3.056  0.6671  0.2138 -0.4598
    9TRP      O  188   5.885   4.608   3.003 -0.0568  0.3747  0.1086
   10ARG      N  189   6.096   4.544   2.986 -0.0959 -0.0491 -0.6664
   10ARG      H  190   6.181   4.534   3.040 -0.1457  0.2199 -0.5337
   10ARG     CA  191   6.101   4.547   2.846  0.6228  0.2407  0.3253
   10ARG     HA  192   6.045   4.633   2.811 -0.4264 -0.1163  1.0736
   10ARG     CB  193   6.246   4.550   2.805  0.1237  0.1809 -0.3266
   10ARG    HB2  194   6.299   4.463   2.845 -0.1693  0.4569  0.6927
   10ARG    HB3  195   6.245   4.533   2.697  1.5052 -3.0493  0.0413
   10ARG     CG  196   6.325   4.676   2.838 -0.0118 -0.3253  0.1691
   10ARG    HG2  197   6.268   4.754   2.787 -0.5090 -0.5149  0.4317
   10ARG    HG3  198   6.318   4.709   2.941 -1.2284  2.3204 -0.6549
   10ARG     CD  199   6.475   4.670   2.788  0.0498  0.4692  0.2630
   10ARG    HD2  200   6.521   4.768   2.795 -0.2484  1.0531 -3.7179
   10ARG    HD3  201   6.530   4.591   2.840 -0.6255 -1.1410 -1.3522
   10ARG     NE  202   6.478   4.647   2.640  0.3339 -0.5626  0.0132
   10ARG     HE  203   6.439   4.722   2.585  1.3767  1.2107  1.5671
   10ARG     CZ  204   6.517   4.532   2.582 -0.4614 -0.7168 -0.4209
   10ARG    NH1  205   6.512   4.419   2.650 -0.1946 -0.6877  0.5682
   10ARG   HH11  206   6.462   4.405   2.737 -3.0125 -1.7954 -1.0892
   10ARG   HH12  207   6.557   4.340   2.605 -0.5306 -0.5015 -0.1039
   10ARG    NH2  208   6.558   4.529   2.457  0.0423  0.1913 -0.1757
   10ARG   HH21  209   6.585   4.611   2.404 -2.7698  0.6270 -1.0698
   10ARG   HH22  210   6.579   4.438   2.419 -1.1755 -0.3754  0.4598
   10ARG      C  211   6.034   4.422   2.789 -0.0721  0.3534  0.1982
   10ARG      O  212   6.045   4.311   2.844 -0.0556  0.2936  0.0035
   11ARG      N  213   5.958   4.430   2.678  0.1534 -0.1427  0.2010
   11ARG      H  214   5.949   4.523   2.640 -1.5955 -0.4945 -0.3729
   11ARG     CA  215   5.889   4.324   2.602 -0.3893 -0.6792 -0.1660
   11ARG     HA  216   5.962   4.243   2.607  0.5916  0.1498 -0.7323
   11ARG     CB  217   5.754   4.274   2.671  0.5328  0.8629 -0.1894
   11ARG    HB2  218   5.698   4.211   2.601 -0.5417  0.9895  0.5263
   11ARG    HB3  219   5.775   4.220   2.763  1.5829 -1.0653 -1.4860
   11ARG     CG  220   5.656   4.391   2.700 -0.3736 -0.2251 -0.6000
   11ARG    HG2  221   5.712   4.464   2.758  0.3100 -0.0498 -1.4479
   11ARG    HG3  222   5.632   4.443   2.607  0.3394  1.7250  0.2474
   11ARG     CD  223   5.529   4.349   2.787  0.0444 -0.2709  0.3940
   11ARG    HD2  224   5.464   4.305   2.712  2.2854 -0.4722 -1.5239
   11ARG    HD3  225   5.560   4.280   2.866 -0.1544 -0.5623  0.2220
   11ARG     NE  226   5.461   4.470   2.839 -0.4345 -0.3760 -0.9297
   11ARG     HE  227   5.421   4.541   2.779 -0.1443  1.5619  1.0333
   11ARG     CZ  228   5.470   4.512   2.963 -0.4171 -0.1922  0.3360
   11ARG    NH1  229   5.541   4.466   3.064  0.5306 -0.1232  0.0678
   11ARG   HH11  230   5.596   4.381   3.060  1.4158  0.3829  1.0958
   11ARG   HH12  231   5.555   4.525   3.144 -2.8526  1.0241 -0.0649
   11ARG    NH2  232   5.406   4.620   2.995  0.3148 -0.1622 -0.6972
   11ARG   HH21  233   5.370   4.676   2.919  0.2175 -0.0831 -0.5920
   11ARG   HH22  234   5.377   4.642   3.089 -0.7903  1.6598 -1.4136
   11ARG      C  235   5.876   4.365   2.457 -0.4092  0.1642  0.5484
   11ARG      O  236   5.854   4.487   2.437 -0.2199 -0.5198 -0.3297
   12LYS      N  237   5.869   4.272   2.362 -0.3296 -0.3330  0.2842
   12LYS      H  238   5.888   4.179   2.395  0.2992 -0.1983  0.3107
   12LYS     CA  239   5.841   4.297   2.218  0.0118  0.0299  0.6536
   12LYS     HA  240   5.934   4.347   2.190 -0.8386  0.9735 -0.6101
   12LYS     CB  241   5.826   4.158   2.152  0.7403 -0.2005 -0.6266
   12LYS    HB2  242   5.892   4.083   2.194 -0.0996 -1.0751 -0.8217
   12LYS    HB3  243   5.728   4.118   2.180  1.0515  0.6787  2.0092
   12LYS     CG  244   5.850   4.147   2.006 -0.4963  0.0344 -0.0785
   12LYS    HG2  245   5.790   4.221   1.952 -1.3085  0.2506  1.0844
   12LYS    HG3  246   5.956   4.159   1.986 -0.1149 -1.5434  0.8076
   12LYS     CD  247   5.813   4.014   1.953  0.3654  0.5382 -0.7451
   12LYS    HD2  248   5.877   3.937   1.996 -1.8668 -0.9785  0.0561
   12LYS    HD3  249   5.707   3.993   1.972 -0.0963  3.9313  1.1161
   12LYS     CE  250   5.827   4.022   1.795 -0.1152 -0.2854 -0.0920
   12LYS    HE2  251   5.770   4.106   1.758  0.1310 -1.1359 -2.6312
   12LYS    HE3  252   5.926   4.041   1.753 -0.9148  1.2183 -1.3672
   12LYS     NZ  253   5.774   3.902   1.728 -0.4284  0.2215  1.0607
   12LYS    HZ1  254   5.833   3.821   1.730  1.5361  1.5468  0.1687
   12LYS    HZ2  255   5.681   3.874   1.758  0.8324 -2.9721  2.4161
   12LYS    HZ3  256   5.772   3.926   1.629 -0.1066  0.1779  1.0441
   12LYS      C  257   5.730   4.395   2.177  0.2810 -0.5201 -0.4827
   12LYS      O  258   5.624   4.391   2.235  0.2743 -0.2846  0.2420
   13NHE      N  259   5.762   4.462   2.064 -0.2783  0.0629 -0.3873
   13NHE    HN1  260   5.854   4.458   2.021 -0.3305  1.2636 -0.6354
   13NHE    HN2  261   5.696   4.522   2.017  2.5929  4.6217  0.7856
   14Cl-    Cl-  262   2.502   5.136   1.981  0.3303 -0.3933 -0.0406
   15Cl-    Cl-  263   1.445   0.414   4.019 -0.0585  0.1639  0.0740
   16Cl-    Cl-  264   4.284   2.892   3.038 -0.2185 -0.1564  0.3009
   17Cl-    Cl-  265   1.541   0.435   1.365  0.2404 -0.3201 -0.3520
   18Cl-    Cl-  266   4.507   1.252   4.562  0.2041 -0.0495  0.2099
   19WAT      O  267   3.810   1.607   4.327 -0.0182 -0.5890  0.3428
   19WAT     H1  268   3.803   1.527   4.379 -0.4051 -1.3186 -0.7982
   19WAT     H2  269   3.870   1.584   4.256  0.5045  0.3945  0.4407
   20WAT      O  270   2.310   4.775   4.098 -0.0682 -0.3490 -0.4882
   20WAT     H1  271   2.371   4.793   4.170 -0.7382  3.1017 -0.5768
   20WAT     H2  272   2.236   4.732   4.140  0.1847  0.2677  0.6432
   21WAT      O  273   3.810   2.004   4.055 -0.4174  1.0414 -0.1571
   21WAT     H1  274   3.730   2.054   4.069 -1.1890 -0.4463  1.0921
   21WAT     H2  275   3.781   1.913   4.051  1.2088  0.4646  0.2667
   22WAT      O  276   3.111   4.841   3.010  0.3568  0.1438  0.3049
   22WAT     H1  277   3.174   4.873   3.075 -0.6108 -0.5633  1.6557
   22WAT     H2  278   3.148   4.757   2.982  0.3324  0.0310  0.6080
   23WAT      O  279   0.054   3.369   3.948 -0.3515 -0.0676  0.4072
   23WAT     H1  280   0.073   3.311   4.022 -0.7629  0.3878  0.8838
   23WAT     H2  281   0.140   3.399   3.919 -0.2082  0.3025  1.1667
   24WAT      O  282   1.842   4.647   0.968  0.0596 -0.5586  0.5172
   24WAT     H1  283   1.858   4.732   0.926 -0.4287 -0.0668  1.2972
   24WAT     H2  284   1.759   4.658   1.013 -0.3542 -1.6892  0.0510
   25WAT      O  285   2.298   4.960   3.606  0.2387 -0.2972  0.5380
   25WAT     H1  286   2.365   4.915   3.555 -0.3095 -0.0567 -0.4097
   25WAT     H2  287   2.229   4.896   3.618 -0.3386  0.1172 -0.4198
   26WAT      O  288   2.382   3.306   0.747  0.0855 -0.5255  0.3975
   26WAT     H1  289   2.360   3.397   0.725  0.0561 -0.8209 -0.8834
   26WAT     H2  290   2.477   3.307   0.757  0.1955 -0.5307 -0.5660
   27WAT      O  291   1.582   1.723   3.028 -0.3512 -0.5460  0.6876
   27WAT     H1  292   1.543   1.782   2.964 -0.5309 -1.0098  0.3654
   27WAT     H2  293   1.657   1.772   3.063 -1.7733  0.7779  2.0635
   28WAT      O  294   1.961   1.063   2.906 -0.4518 -0.1898  0.0824
   28WAT     H1  295   2.012   1.128   2.858  0.6533  0.3445  1.8895
   28WAT     H2  296   1.873   1.101   2.912 -1.0560 -0.8993 -2.6195
   29WAT      O  297   2.849   2.664   0.606  0.4358 -0.3581 -0.0158
   29WAT     H1  298   2.806   2.598   0.551 -0.9913 -1.2349  2.0214
   29WAT     H2  299   2.942   2.643   0.602  0.9105  1.5264 -4.4911
   30WAT      O  300   3.667   0.172   0.700  0.5174 -0.4166 -0.5467
   30WAT     H1  301   3.706   0.216   0.776  2.9859 -1.5364 -1.0748
   30WAT     H2  302   3.668   0.239   0.632 -0.1784  0.0969 -0.0718
   31WAT      O  303   1.678   0.235   2.958  0.5080  0.3125 -0.2038
   31WAT     H1  304   1.593   0.203   2.930  0.3614  0.9231 -0.4923
   31WAT     H2  305   1.666   0.330   2.966  1.0622  0.3621  0.1020
   32WAT      O  306   2.790   4.571   3.673 -0.1612  0.5609 -0.2246
   32WAT     H1  307   2.828   4.659   3.681 -0.8600  0.9860 -1.2087
   32WAT     H2  308   2.741   4.575   3.590 -1.0465 -0.4366  0.2302
   33WAT      O  309   3.071   2.635   3.047 -0.1750  0.0628  0.1448
   33WAT     H1  310   3.029   2.550   3.042  0.8882 -0.3945 -2.1441
   33WAT     H2  311   3.164   2.615   3.059 -0.2202  1.0062  2.7390
   34WAT      O  312   2.165   0.655   3.791  0.2099  0.4592 -0.1098
   34WAT     H1  313   2.153   0.744   3.759  0.5729  0.7320  0.5033
   34WAT     H2  314   2.110   0.602   3.733  0.4769  0.9953 -0.8816
   35WAT      O  315   1.375   3.783   0.522  0.3575 -0.0021 -0.2701
   35WAT     H1  316   1.462   3.816   0.501  0.8511 -1.1751 -0.1462
   35WAT     H2  317   1.342   3.749   0.438 -0.0078  0.4985 -0.3305
   36WAT      O  318   3.461   3.088   3.758  0.4925 -1.1122 -0.0899
   36WAT     H1  319   3.467   3.025   3.687 -0.2624 -0.6833 -0.5422
   36WAT     H2  320   3.525   3.156   3.737  1.4522 -1.8159  0.5024
   37WAT      O  321   1.175   2.641   0.626 -0.4581 -0.2421  0.2207
   37WAT     H1  322   1.095   2.679   0.590  0.2463 -0.0738 -1.2636
   37WAT     H2  323   1.201   2.702   0.695 -1.2726  0.0299  0.3030
   38WAT      O  324   3.409   2.953   0.145 -0.2996  0.2140 -0.7283
   38WAT     H1  325   3.367   2.867   0.138  0.2359  0.0159 -1.8366
   38WAT     H2  326   3.337   3.014   0.157 -0.6432 -0.4407  0.7010
   39WAT      O  327   2.757   1.257   1.387 -0.4506 -0.2011 -0.4914
   39WAT     H1  328   2.750   1.164   1.408 -1.6286  0.3188  1.6630
   39WAT     H2  329   2.675   1.295   1.418  0.8900  1.9082  0.7054
   40WAT      O  330   0.885   0.890   2.523 -0.2506 -0.3924  0.1486
   40WAT     H1  331   0.954   0.913   2.461  0.1742 -2.5441 -0.2573
   40WAT     H2  332   0.807   0.878   2.468 -0.4785  0.0984  0.3588
   41WAT      O  333   0.777   3.687   2.928 -0.1480  0.4144  0.3440
   41WAT     H1  334   0.836   3.652   2.860 -1.2984 -0.5508 -0.1914
   41WAT     H2  335   0.786   3.627   3.001 -2.0994 -1.0954 -0.5633
   42WAT      O  336   3.869   2.052   1.925  0.2218 -0.4213  0.5917
   42WAT     H1  337   3.941   2.111   1.902  0.0498 -0.4079  0.0692
   42WAT     H2  338   3.865   2.055   2.021  0.1251  0.5214  0.5692
   43WAT      O  339   0.673   4.581   0.254  0.2578 -0.2778  0.3424
   43WAT     H1  340   0.750   4.638   0.257  0.4357 -0.4110 -1.0325
   43WAT     H2  341   0.689   4.517   0.323  1.0509  0.1104  0.5341
   44WAT      O  342   0.295   0.189   1.570  0.2041 -0.1537  0.2085
   44WAT     H1  343   0.225   0.172   1.633  1.9944  0.4932  2.5153
   44WAT     H2  344   0.359   0.120   1.588  1.6268  1.2109  0.4966
   45WAT      O  345   3.943   0.284   5.216 -0.3790 -0.1734  0.7498
   45WAT     H1  346   4.028   0.261   5.254  0.5101  0.8281 -0.5675
   45WAT     H2  347   3.899   0.200   5.204  2.1605 -1.2612 -2.4766
   46WAT      O  348   0.298   1.933   2.602 -0.6992  0.4515 -0.6299
   46WAT     H1  349   0.276   1.871   2.671  1.5872  1.5654  1.2365
   46WAT     H2  350   0.269   2.018   2.636  1.8117  1.2437 -0.2739
   47WAT      O  351   3.392   1.987   2.634  0.3819 -0.4199  0.0452
   47WAT     H1  352   3.478   2.000   2.595  0.5311  1.0443  0.7795
   47WAT     H2  353   3.408   1.934   2.711  0.7585  0.4450  0.5799
   48WAT      O  354   2.172   3.447   0.996 -0.0983 -0.2395  0.6475
   48WAT     H1  355   2.207   3.535   0.987 -0.9893  0.0325 -0.4240
   48WAT     H2  356   2.246   3.394   1.025 -0.1509  1.3290  4.1051
   49WAT      O  357   1.150   2.592   3.201  0.0476  0.0618 -0.6285
   49WAT     H1  358   1.210   2.597   3.274  1.2407 -0.8956 -1.5150
   49WAT     H2  359   1.125   2.500   3.195 -1.8490  0.4928 -0.0323
   50WAT      O  360   2.781   2.386   1.679  0.1185 -0.4820 -0.4681
   50WAT     H1  361   2.704   2.341   1.713  0.3827  0.4600  1.5561
   50WAT     H2  362   2.746   2.447   1.614 -0.6702 -1.0096 -0.5569
   51WAT      O  363   0.952   2.458   3.921 -0.1470  0.3205 -0.1802
   51WAT     H1  364   1.006   2.379   3.929 -0.6552 -0.1922 -1.6084
   51WAT     H2  365   0.994   2.521   3.979  0.2391 -1.0070  1.0424
   52WAT      O  366   1.163   1.965   4.093 -0.1486 -0.5053 -0.2128
   52WAT     H1  367   1.199   2.052   4.108 -2.8889  1.2551 -2.7099
   52WAT     H2  368   1.071   1.972   4.117 -0.8267 -2.1875 -2.0087
   53WAT      O  369   1.559   5.086   2.402 -0.4429 -0.3070  0.0042
   53WAT     H1  370   1.490   5.024   2.424  0.4808 -1.8520 -1.2537
   53WAT     H2  371   1.514   5.159   2.359 -1.7521  0.7975  2.9654
   54WAT      O  372   0.515   1.674   4.054  0.3812 -0.2289 -0.0785
   54WAT     H1  373   0.482   1.761   4.030  0.9282  0.0654  0.1921
   54WAT     H2  374   0.456   1.613   4.012  0.5326  0.2780 -1.0468
   55WAT      O  375   3.229   1.682   3.995  0.6537  0.1246 -0.2565
   55WAT     H1  376   3.226   1.598   4.041 -0.4076 -0.4742 -1.3544
   55WAT     H2  377   3.206   1.660   3.905 -0.1406  1.6680 -0.4570
   56WAT      O  378   2.106   4.767   2.300 -0.1611 -0.5339 -0.0412
   56WAT     H1  379   2.051   4.845   2.294  0.1356 -0.4329 -2.2025
   56WAT     H2  380   2.131   4.748   2.210  1.4422 -1.9527  0.6363
   57WAT      O  381   3.322   0.757   0.956  0.0893 -0.3889 -0.0128
   57WAT     H1  382   3.290   0.823   0.893 -2.8114  0.2628  1.9210
   57WAT     H2  383   3.298   0.793   1.041  0.8119 -2.7831  1.2743
   58WAT      O  384   1.380   0.240   2.347  0.6732  0.0241  0.0941
   58WAT     H1  385   1.365   0.320   2.398  1.9503 -1.0572  2.3266
   58WAT     H2  386   1.469   0.250   2.313  0.3174  0.1403 -0.8264
   59WAT      O  387   4.396   1.480   2.799 -0.1750  0.2640  0.0197
   59WAT     H1  388   4.475   1.450   2.843  0.7645  0.9653 -1.1314
   59WAT     H2  389   4.354   1.399   2.769  0.2350 -0.1055  0.4210
   60WAT      O  390   3.602   2.470   4.124  0.0221  0.0822  0.4266
   60WAT     H1  391   3.555   2.507   4.199 -0.8021  0.4154 -0.2463
   60WAT     H2  392   3.659   2.404   4.163  0.0307  0.6468  1.4147
   61WAT      O  393   1.272   4.460   0.011 -0.1885  0.0372 -0.6032
   61WAT     H1  394   1.335   4.428   0.075  0.5112 -0.1349 -1.3562
   61WAT     H2  395   1.264   4.554   0.030  0.5558  0.1278 -0.7069
   62WAT      O  396   2.917   1.989   3.411 -0.1368  0.0564  0.1210
   62WAT     H1  397   2.897   1.987   3.317  0.9242 -0.6602 -0.1180
   62WAT     H2  398   3.010   2.012   3.414 -0.1077 -0.1562  0.9868
   63WAT      O  399   1.771   4.784   5.078  0.0373 -0.0291  0.2500
   63WAT     H1  400   1.836   4.729   5.122  0.2957 -0.9245 -1.1880
   63WAT     H2  401   1.820   4.861   5.049 -0.2979  0.9475  2.1532
   64WAT      O  402   1.191   3.388   0.013 -0.0337  0.9431 -0.0201
   64WAT     H1  403   1.185   3.469   0.064  0.9082  0.7527  0.4267
   64WAT     H2  404   1.256   3.407  -0.055  1.2072  0.1915  0.8908
   65WAT      O  405   3.698   1.318   3.215  0.1936 -0.4730 -0.3121
   65WAT     H1  406   3.776   1.263   3.229  0.1990 -1.0961 -2.3746
   65WAT     H2  407   3.627   1.256   3.200  0.0591  0.0450 -2.0187
   66WAT      O  408   2.701   2.069   4.731  0.6803  0.1490  0.3946
   66WAT     H1  409   2.781   2.106   4.770 -0.9723  1.2655  3.0257
   66WAT     H2  410   2.675   2.000   4.791  0.8016 -1.7786 -1.6452
   67WAT      O  411   1.019   1.723   4.483 -0.1120  0.0598 -0.5289
   67WAT     H1  412   0.931   1.760   4.481 -0.2388  0.0113  1.9104
   67WAT     H2  413   1.007   1.629   4.487  0.0228  0.0609  0.0458
   68WAT      O  414   3.606   0.443   5.028  0.2105 -0.0267 -0.2484
   68WAT     H1  415   3.644   0.465   5.114 -0.5645 -0.2962  0.1671
   68WAT     H2  416   3.586   0.528   4.989  1.5453  0.1462 -0.6347
   69WAT      O  417   4.018   4.048   3.531 -0.0355 -0.0329 -0.0882
   69WAT     H1  418   3.938   4.099   3.538 -0.6915 -0.9823 -0.4248
   69WAT     H2  419   3.988   3.958   3.521  1.0979 -0.5259  0.7757
   70WAT      O  420   2.268   1.150   3.706 -0.5239  0.0176 -0.3196
   70WAT     H1  421   2.248   1.057   3.702  2.3862 -0.6700 -0.9385
   70WAT     H2  422   2.259   1.181   3.616 -0.2905  0.0672 -0.3254
   71WAT      O  423   0.392   3.680   1.174  0.1251  0.3371 -0.5725
   71WAT     H1  424   0.467   3.646   1.224  1.0593  0.3490 -1.9160
   71WAT     H2  425   0.322   3.689   1.239  1.1058 -0.2380  0.6037
   72WAT      O  426   1.830   1.281   4.965  0.4220 -0.4145 -0.1051
   72WAT     H1  427   1.917   1.306   4.995 -0.1526 -0.3834  1.6485
   72WAT     H2  428   1.814   1.195   5.004 -0.4705 -0.2577 -0.0848
   73WAT      O  429   3.126   1.136   1.934 -0.8797  0.1999  0.1315
   73WAT     H1  430   3.055   1.078   1.959 -0.4575 -0.3946 -0.0382
   73WAT     H2  431   3.083   1.214   1.900 -1.4582 -0.4681 -0.6966
   74WAT      O  432   0.958   4.023   3.759 -0.0373  0.4885  0.0177
   74WAT     H1  433   0.895   3.993   3.824  0.4061  0.4524  0.4330
   74WAT     H2  434   0.925   3.989   3.676 -1.7836  2.3233 -0.0986
   75WAT      O  435   2.298   3.627   3.729  0.3614 -0.3146 -0.3771
   75WAT     H1  436   2.268   3.633   3.819  1.3625  0.2063 -0.0639
   75WAT     H2  437   2.325   3.536   3.718 -0.0543 -0.4553 -0.2622
   76WAT      O  438   2.966   2.981   0.006 -0.0194 -0.1796  0.0043
   76WAT     H1  439   2.895   3.020  -0.046  0.3477 -2.3422 -2.3018
   76WAT     H2  440   2.922   2.917   0.062 -0.0408 -0.2716 -0.1198
   77WAT      O  441   0.949   4.516   4.558 -0.1261  0.3248  0.4553
   77WAT     H1  442   1.028   4.548   4.514  0.7104 -1.5991  0.4831
   77WAT     H2  443   0.884   4.585   4.543  1.2708  1.5190 -0.3778
   78WAT      O  444   3.840   1.583   1.766 -0.6339 -0.3342  0.2345
   78WAT     H1  445   3.867   1.505   1.815 -1.1273  0.0802  1.1885
   78WAT     H2  446   3.832   1.651   1.832 -0.8189  0.3739 -0.5041
   79WAT      O  447   3.788   3.572   2.306 -0.4020  0.8175  0.5360
   79WAT     H1  448   3.849   3.578   2.380 -1.3869 -0.6974  1.5473
   79WAT     H2  449   3.716   3.631   2.330  0.8120  2.9986 -0.8938
   80WAT      O  450   1.657   3.462   0.786  0.1108 -0.1016 -0.3045
   80WAT     H1  451   1.666   3.412   0.868 -2.4101 -1.7635 -0.9404
   80WAT     H2  452   1.614   3.544   0.813  1.5304  0.4835  0.3143
   81WAT      O  453   0.495   1.902   2.319 -0.0128 -0.1738 -0.1249
   81WAT     H1  454   0.567   1.918   2.257 -0.4725  0.6694 -0.4459
   81WAT     H2  455   0.453   1.987   2.329 -1.5886 -0.8626 -0.7033
   82WAT      O  456   2.779   4.354   0.611 -0.0205  0.1578  0.0924
   82WAT     H1  457   2.685   4.338   0.619  0.0536 -1.4706 -1.5785
   82WAT     H2  458   2.792   4.442   0.647 -1.9159 -0.1634  1.7325
   83WAT      O  459   2.003   0.292   1.622  0.8881  0.2798  0.3239
   83WAT     H1  460   1.989   0.208   1.578 -0.4712 -0.4376  1.9986
   83WAT     H2  461   2.093   0.288   1.655 -0.0972 -2.0479  3.2317
   84WAT      O  462   1.705   2.938   0.569  0.0698 -0.1142 -0.4925
   84WAT     H1  463   1.757   2.995   0.511 -0.0229  0.6735  0.1822
   84WAT     H2  464   1.720   2.974   0.656 -1.2543 -0.1567 -0.2380
   85WAT      O  465   1.960   1.640   5.167 -0.0826  0.3343 -0.9063
   85WAT     H1  466   1.890   1.625   5.103 -0.5378 -0.7050 -0.1884
   85WAT     H2  467   1.945   1.730   5.197 -1.0539  0.1694 -0.8396
   86WAT      O  468   1.678   0.695   3.229 -0.4800  0.7551  0.5309
   86WAT     H1  469   1.604   0.747   3.261 -0.8031  0.8097 -0.2888
   86WAT     H2  470   1.667   0.610   3.272 -0.3097  1.1479  1.3801
   87WAT      O  471   3.642   3.279   3.638  0.6724 -0.1217 -0.0414
   87WAT     H1  472   3.603   3.365   3.657 -1.1450 -0.9883  0.4456
   87WAT     H2  473   3.736   3.295   3.635  0.4457  1.7029  1.0534
   88WAT      O  474   1.634   0.317   4.661 -0.1888  0.4497  0.3404
   88WAT     H1  475   1.660   0.262   4.587 -0.7802  0.6612 -0.0307
   88WAT     H2  476   1.596   0.256   4.724 -0.2143  0.3462  0.2250
   89WAT      O  477   0.841   0.148   3.968  0.0549 -0.1174  0.8253
   89WAT     H1  478   0.746   0.157   3.973 -0.0511  1.0281 -1.7878
   89WAT     H2  479   0.859   0.063   4.010 -2.2989 -1.1928 -0.1357
   90WAT      O  480   4.208   0.242   5.292 -0.0618 -0.0836  0.1527
   90WAT     H1  481   4.260   0.196   5.358 -0.6574 -0.4134  0.3923
   90WAT     H2  482   4.230   0.335   5.306  0.0070 -0.1708  0.6488
   91WAT      O  483   4.352   1.041   2.841 -0.5774  0.3538  0.3571
   91WAT     H1  484   4.345   1.115   2.781 -2.0278  0.5646  0.7459
   91WAT     H2  485   4.304   1.069   2.919  1.8402  0.3522  1.9336
   92WAT      O  486   1.158   3.966   4.819 -0.3880 -0.2046 -0.0175
   92WAT     H1  487   1.160   4.002   4.730 -1.0981 -1.6234 -0.6499
   92WAT     H2  488   1.247   3.935   4.834  0.2438  1.7300  0.5490
   93WAT      O  489   2.117   2.320   4.718 -0.0977 -0.4264  0.4463
   93WAT     H1  490   2.048   2.274   4.766 -0.6364  0.1736  0.2481
   93WAT     H2  491   2.143   2.258   4.650 -0.3348 -0.7163  0.6152
   94WAT      O  492   3.329   2.093   4.452  0.3359  0.1336 -0.3157
   94WAT     H1  493   3.384   2.167   4.427  1.9130 -0.7948  0.3163
   94WAT     H2  494   3.264   2.087   4.381  0.0595  2.2071 -0.2799
   95WAT      O  495   3.396   4.026   0.453 -0.0548 -0.1338  0.8524
   95WAT     H1  496   3.320   3.971   0.472 -0.8182  0.1056 -1.2587
   95WAT     H2  497   3.462   3.964   0.421  0.2482 -0.1908  1.5617
   96WAT      O  498   3.926   2.450   4.341  0.2768 -0.1707  0.4534
   96WAT     H1  499   3.913   2.366   4.296 -0.7253  0.5341 -0.6603
   96WAT     H2  500   3.998   2.434   4.402  0.7301 -1.5822 -0.3925
   97WAT      O  501   3.788   1.571   2.723  0.2404  0.0991  0.2610
   97WAT     H1  502   3.699   1.592   2.751  0.3944  1.1285  0.0219
   97WAT     H2  503   3.836   1.654   2.730  0.7133  0.0119 -1.3917
   98WAT      O  504   2.293   0.686   4.708 -0.0749 -0.1450 -0.2124
   98WAT     H1  505   2.269   0.600   4.675 -0.4754 -0.5209  1.0018
   98WAT     H2  506   2.385   0.679   4.732 -0.3552 -0.5443  0.7914
   99WAT      O  507   4.407   2.941   4.971  0.0935 -0.5042  0.4206
   99WAT     H1  508   4.415   2.847   4.991  2.4745 -0.1128  1.7069
   99WAT     H2  509   4.400   2.983   5.056 -1.1957  0.5206 -0.1527
  100WAT      O  510   2.504   1.481   3.655 -0.7102  0.3884  0.0777
  100WAT     H1  511   2.445   1.420   3.609 -2.0358  2.4492 -1.1084
  100WAT     H2  512   2.522   1.550   3.591  0.4182  1.4663  1.4873
  101WAT      O  513   2.238   1.663   5.196  0.0524  0.3737  0.2518
  101WAT     H1  514   2.146   1.660   5.168 -0.0553  2.3235  0.2716
  101WAT     H2  515   2.270   1.747   5.164  2.6847 -1.3680 -2.1889
  102WAT      O  516   0.404   1.869   3.911 -0.3052 -0.0161  0.1904
  102WAT     H1  517   0.354   1.796   3.874 -1.1986 -0.1135  1.5462
  102WAT     H2  518   0.409   1.933   3.839  0.0857 -1.1868 -0.8622
  103WAT      O  519   0.170   2.962   3.298 -0.1681  0.5351 -0.4703
  103WAT     H1  520   0.101   2.917   3.346 -0.7442  1.0507 -0.8039
  103WAT     H2  521   0.218   3.012   3.365 -0.4314  0.5745 -0.3104
  104WAT      O  522   0.893   4.471   0.865 -0.1797  0.3739  0.4556
  104WAT     H1  523   0.873   4.432   0.779 -0.4475 -1.6604  1.3848
  104WAT     H2  524   0.817   4.527   0.883 -0.8884 -0.4208  0.0524
  105WAT      O  525   3.646   1.555   5.162  0.1885 -0.1227 -0.0798
  105WAT     H1  526   3.725   1.608   5.149  0.1373 -0.5820 -3.1667
  105WAT     H2  527   3.584   1.591   5.098 -0.7704 -2.1823 -0.3663
  106WAT      O  528   3.825   4.413   3.456 -0.2734 -0.1108 -0.2153
  106WAT     H1  529   3.838   4.508   3.448 -1.0741  0.0498  0.2954
  106WAT     H2  530   3.850   4.393   3.546 -0.3510 -0.3481 -0.2468
  107WAT      O  531   1.021   2.699   4.919  0.1543 -0.0860 -0.2886
  107WAT     H1  532   1.079   2.656   4.982 -0.0598  0.2817  0.1610
  107WAT     H2  533   0.940   2.715   4.967 -0.3669 -0.6935 -0.9451
  108WAT      O  534   0.400   2.890   4.793  0.2381  0.1445  0.0359
  108WAT     H1  535   0.467   2.867   4.728  0.4301 -0.6820  0.5169
  108WAT     H2  536   0.443   2.875   4.877 -0.0414  1.1283  0.3580
  109WAT      O  537   1.214   4.196   4.108 -0.3542 -0.9841  0.0220
  109WAT     H1  538   1.122   4.204   4.083 -0.5092 -1.9142  0.2275
  109WAT     H2  539   1.231   4.102   4.102  1.2785 -0.6049 -2.4083
  110WAT      O  540   4.404   4.055   4.781  0.3373 -0.3199 -0.6290
  110WAT     H1  541   4.498   4.074   4.779  0.2595  0.1294 -0.2179
  110WAT     H2  542   4.378   4.072   4.871  0.6684 -4.5375  0.4489
  111WAT      O  543   2.125   2.721   3.433 -0.0277  0.1492  0.2993
  111WAT     H1  544   2.212   2.761   3.443  0.5566 -1.2777  1.2656
  111WAT     H2  545   2.078   2.781   3.376  1.8893  0.5059 -1.0321
  112WAT      O  546   0.930   2.211   1.176  0.1328 -0.0441 -0.1435
  112WAT     H1  547   0.883   2.294   1.166  2.6034  1.3946 -0.8477
  112WAT     H2  548   0.969   2.195   1.090 -0.9121 -2.3847 -0.2264
  113WAT      O  549   1.366   3.440   1.447 -0.0627 -0.5483 -0.2177
  113WAT     H1  550   1.371   3.523   1.401  0.5239 -0.8508 -0.7240
  113WAT     H2  551   1.435   3.445   1.514  0.0496 -0.6661 -0.3230
  114WAT      O  552   1.395   1.796   3.273  0.5118 -0.3292 -0.1268
  114WAT     H1  553   1.337   1.725   3.299 -0.3730  0.3660 -0.1423
  114WAT     H2  554   1.445   1.760   3.199 -1.4177 -0.2877 -1.5349
  115WAT      O  555   1.965   4.247   0.925  0.1514 -0.2471 -0.0105
  115WAT     H1  556   1.974   4.292   0.841  0.6732 -0.3348 -0.0033
  115WAT     H2  557   1.890   4.289   0.967  0.0095 -0.0709 -0.4364
  116WAT      O  558   2.644   1.911   3.415  1.0542  0.1212  0.2357
  116WAT     H1  559   2.735   1.930   3.395  0.5200  3.1870  0.1926
  116WAT     H2  560   2.644   1.888   3.508  1.6917  2.2283  0.8113
  117WAT      O  561   4.205   3.999   3.973  0.3267 -0.3638  0.0569
  117WAT     H1  562   4.238   3.938   3.906  1.1651  2.1925 -2.0412
  117WAT     H2  563   4.111   4.001   3.959  0.3303 -0.9199 -0.0713
  118WAT      O  564   0.964   2.429   0.553 -0.1088  0.1207  0.1318
  118WAT     H1  565   0.949   2.458   0.643  0.1414 -0.3101  0.3161
  118WAT     H2  566   1.006   2.503   0.511  0.3098  0.1223  0.5360
  119WAT      O  567   1.208   1.059   4.139  0.7061  0.1921 -0.4912
  119WAT     H1  568   1.117   1.045   4.113 -0.0045 -1.0305  2.2365
  119WAT     H2  569   1.224   0.990   4.204  2.9721  1.5143  0.4508
  120WAT      O  570   0.285   3.998   0.844 -0.3583  0.2382  0.0199
  120WAT     H1  571   0.323   3.947   0.772 -0.6337  1.2532 -0.8838
  120WAT     H2  572   0.337   3.975   0.920  0.8545  0.1669 -0.7993
  121WAT      O  573   3.112   0.724   2.270 -0.1824 -0.2217 -0.1714
  121WAT     H1  574   3.120   0.662   2.198  1.6563  0.5678 -0.7116
  121WAT     H2  575   3.133   0.673   2.348 -0.3477 -0.6455 -0.3974
  122WAT      O  576   4.157   4.439   2.930 -0.4379 -0.1454 -0.3859
  122WAT     H1  577   4.121   4.445   2.842 -0.4850  0.0332 -0.3541
  122WAT     H2  578   4.129   4.520   2.973 -1.8035 -0.9411  0.3100
  123WAT      O  579   4.286   4.380   3.490  0.1510 -0.1641  0.1700
  123WAT     H1  580   4.316   4.437   3.561 -1.1455  0.0015  0.6197
  123WAT     H2  581   4.296   4.291   3.525 -0.0404 -0.1021  0.3917
  124WAT      O  582   3.178   0.492   2.454  0.3418 -0.6101 -0.5388
  124WAT     H1  583   3.160   0.473   2.362 -1.0821 -0.7470 -0.2495
  124WAT     H2  584   3.131   0.424   2.502  0.4068 -0.0641  0.3179
  125WAT      O  585   0.794   1.178   2.248 -0.4476 -0.7635  0.7122
  125WAT     H1  586   0.771   1.087   2.230 -1.4043 -0.0743 -1.8958
  125WAT     H2  587   0.717   1.214   2.292 -0.6108 -0.8679  0.5120
  126WAT      O  588   0.609   3.767   3.554 -1.0018 -0.8283  0.0681
  126WAT     H1  589   0.643   3.830   3.491  0.1837 -0.9581  0.5561
  126WAT     H2  590   0.550   3.712   3.502 -1.0192 -0.1515 -0.6515
  127WAT      O  591   3.372   2.978   1.453  0.3840 -0.0132  0.7300
  127WAT     H1  592   3.284   2.965   1.417  1.0231 -0.2727 -0.8302
  127WAT     H2  593   3.430   2.957   1.380  1.7589 -0.4716  1.9325
  128WAT      O  594   2.463   2.435   2.900  0.4094 -0.1970  0.5098
  128WAT     H1  595   2.395   2.367   2.896  0.3459 -0.1512  0.7981
  128WAT     H2  596   2.430   2.498   2.964  0.1754  0.4362 -0.2248
  129WAT      O  597   2.646   1.632   3.101 -0.7978 -0.2366 -0.5058
  129WAT     H1  598   2.594   1.590   3.032 -0.2547 -1.4541 -0.2039
  129WAT     H2  599   2.733   1.595   3.091 -0.6814 -0.3418  0.7459
  130WAT      O  600   2.035   1.332   2.757 -0.3661 -0.0164 -0.1372
  130WAT     H1  601   1.985   1.386   2.818 -1.1031 -1.4833  0.6159
  130WAT     H2  602   1.973   1.310   2.687 -0.4505 -0.8259  0.1713
  131WAT      O  603   0.072   1.960   0.141 -0.1977  0.4560 -0.2105
  131WAT     H1  604  -0.019   1.932   0.135 -0.0901  0.4255 -2.4259
  131WAT     H2  605   0.119   1.900   0.083  0.9158  1.7083 -0.6454
  132WAT      O  606   3.249   2.702   1.548 -0.2018  0.0431  0.1799
  132WAT     H1  607   3.340   2.678   1.527 -0.2753 -0.4913  0.4567
  132WAT     H2  608   3.256   2.790   1.586  0.7521 -1.5358  4.1698
  133WAT      O  609   4.145   4.938   2.396 -0.2098 -0.1110  0.6797
  133WAT     H1  610   4.053   4.954   2.373 -0.7901  0.3713  3.0571
  133WAT     H2  611   4.189   5.020   2.377 -0.1879 -0.4395 -0.7591
  134WAT      O  612   3.546   4.188   0.627 -0.0095 -0.0498  0.0393
  134WAT     H1  613   3.486   4.156   0.560 -1.2052  0.6741  0.7265
  134WAT     H2  614   3.609   4.242   0.580 -1.7918  1.7869 -0.3509
  135WAT      O  615   2.901   4.733   4.471  0.1893  0.4350  0.1849
  135WAT     H1  616   2.902   4.721   4.376  0.9633 -0.5436  0.3100
  135WAT     H2  617   2.993   4.736   4.496  0.0079 -0.4648  1.0269
  136WAT      O  618   3.107   0.082   3.184 -0.2916 -0.6191 -0.2391
  136WAT     H1  619   3.164   0.081   3.261 -0.4869  4.0546  0.2392
  136WAT     H2  620   3.165   0.064   3.110  1.2754  1.0501  0.5099
  137WAT      O  621   3.026   0.343   3.142  0.7513  0.3909 -0.2854
  137WAT     H1  622   3.063   0.266   3.185  0.8216  0.5710 -0.0188
  137WAT     H2  623   2.933   0.322   3.130  1.1536 -0.5337 -2.0084
  138WAT      O  624   4.207   4.795   2.159  0.5659 -0.6851  0.2707
  138WAT     H1  625   4.209   4.818   2.252  0.5527 -1.7734  0.5632
  138WAT     H2  626   4.144   4.856   2.121  1.1677  0.3038  0.8126
  139WAT      O  627   0.730   4.688   4.525  0.3767 -0.3663 -0.0190
  139WAT     H1  628   0.645   4.704   4.485  0.2540 -0.4875  0.1933
  139WAT     H2  629   0.732   4.746   4.601  0.1516 -0.9591  0.4415
  140WAT      O  630   4.316   0.040   1.132 -0.0755 -0.2487 -0.0554
  140WAT     H1  631   4.348   0.128   1.117  0.1759  0.2260  2.6780
  140WAT     H2  632   4.342   0.020   1.222  0.0070 -3.1834 -0.6228
  141WAT      O  633   3.055   0.074   2.080 -0.3701 -0.2456 -0.6563
  141WAT     H1  634   3.101   0.143   2.032 -0.9482  0.1797 -0.6170
  141WAT     H2  635   2.966   0.076   2.044 -0.1575 -1.5897 -1.2994
  142WAT      O  636   0.087   4.107   4.188  0.4030  0.2514 -0.0789
  142WAT     H1  637   0.128   4.080   4.106  0.1896  1.9579 -0.7972
  142WAT     H2  638   0.000   4.067   4.186  0.5508 -0.0515 -0.4942
  143WAT      O  639   3.413   0.773   2.228  0.3692  0.1578 -0.0063
  143WAT     H1  640   3.320   0.756   2.238 -0.1043  1.9024 -1.1089
  143WAT     H2  641   3.419   0.865   2.204  2.3798  0.0799 -0.0137
  144WAT      O  642   1.587   4.997   0.840  0.0550 -0.1060 -0.0280
  144WAT     H1  643   1.515   5.058   0.826  1.0620  0.9039 -0.9970
  144WAT     H2  644   1.545   4.916   0.869 -1.4473  0.4885 -0.4736
  145WAT      O  645   3.163   0.182   2.829  0.1544 -0.0115  0.1244
  145WAT     H1  646   3.165   0.144   2.741  0.0063  0.3581 -0.0390
  145WAT     H2  647   3.071   0.203   2.845  0.1556 -0.2493  0.4409
  146WAT      O  648   4.386   1.133   3.592 -0.0345 -0.1394 -0.0736
  146WAT     H1  649   4.398   1.195   3.519  0.3241  1.1256  1.0233
  146WAT     H2  650   4.464   1.078   3.589  0.0571  0.0073 -0.5463
  147WAT      O  651   2.481   2.376   4.073 -0.0652  0.1473 -0.1751
  147WAT     H1  652   2.442   2.347   4.156 -3.2857 -0.0880 -1.6037
  147WAT     H2  653   2.495   2.296   4.023 -0.2000  0.4189 -0.6592
  148WAT      O  654   2.992   2.204   1.762  0.2141 -0.1857 -0.1156
  148WAT     H1  655   2.916   2.254   1.733 -0.7371 -1.0930  0.7081
  148WAT     H2  656   3.064   2.267   1.761 -0.0607  0.2024 -2.8857
  149WAT      O  657   3.462   3.588   1.352 -0.5477  0.4867 -0.1336
  149WAT     H1  658   3.474   3.622   1.264  2.0287  1.4829  0.5302
  149WAT     H2  659   3.540   3.615   1.400 -0.7590 -1.9929  1.8482
  150WAT      O  660   0.677   3.574   0.274 -0.0790  0.6487 -0.5296
  150WAT     H1  661   0.707   3.554   0.185  0.7127 -0.2312 -0.0895
  150WAT     H2  662   0.634   3.659   0.267  2.3531  1.9144 -1.2651
  151WAT      O  663   1.900   3.925   3.473 -0.0755  0.1775 -0.3943
  151WAT     H1  664   1.945   4.000   3.435  1.9528 -1.3754 -1.2066
  151WAT     H2  665   1.953   3.900   3.548 -2.3178  1.2383  1.7022
  152WAT      O  666   3.409   4.662   0.430 -0.2331 -0.2302 -0.2815
  152WAT     H1  667   3.502   4.646   0.445  0.1969  1.9656 -0.3229
  152WAT     H2  668   3.371   4.664   0.517  0.2661  1.4890 -0.0736
  153WAT      O  669   2.413   0.257   1.549 -0.6116  0.1658  0.1718
  153WAT     H1  670   2.497   0.294   1.574 -0.2918 -0.5334  0.1516
  153WAT     H2  671   2.421   0.241   1.455  0.0503 -1.9245  0.5339
  154WAT      O  672   2.657   2.208   0.454  0.3190  0.7424  0.3678
  154WAT     H1  673   2.666   2.128   0.506  2.1337  0.9015  0.3735
  154WAT     H2  674   2.626   2.178   0.369  0.6080  0.0648  0.4938
  155WAT      O  675   0.303   4.608   3.683 -0.1168 -0.0270 -0.2180
  155WAT     H1  676   0.301   4.639   3.773 -0.3579  0.2061 -0.3056
  155WAT     H2  677   0.248   4.669   3.634 -0.8821 -0.7801 -0.3266
  156WAT      O  678   1.059   4.927   4.470 -0.2892  0.1365 -0.0338
  156WAT     H1  679   1.118   4.951   4.541  0.0834  0.9960 -0.6110
  156WAT     H2  680   0.974   4.915   4.512 -0.1196  0.8290  0.5340
  157WAT      O  681   3.976   3.142   3.375  0.4764 -0.1957 -0.7244
  157WAT     H1  682   3.971   3.046   3.378  0.3826 -0.2554 -2.1258
  157WAT     H2  683   3.993   3.168   3.465  1.1405 -1.5687 -0.4261
  158WAT      O  684   3.018   2.375   1.378  0.4434 -0.0515  0.1747
  158WAT     H1  685   2.938   2.412   1.341  1.4133  0.8808 -1.0414
  158WAT     H2  686   3.071   2.450   1.403  1.9233 -0.5703 -1.1988
  159WAT      O  687   1.106   0.565   1.600  0.1495  0.2942  0.1620
  159WAT     H1  688   1.117   0.657   1.627 -0.7537  0.6847 -0.7471
  159WAT     H2  689   1.042   0.530   1.662  0.2731  0.3535  0.3254
  160WAT      O  690   4.345   5.054   0.715 -0.5488 -0.3289  0.9196
  160WAT     H1  691   4.396   5.018   0.642 -1.2747  0.9293 -0.2433
  160WAT     H2  692   4.398   5.126   0.749 -1.1688  0.4795  0.2116
  161WAT      O  693   2.471   4.493   1.084 -0.1762 -0.8788  0.1475
  161WAT     H1  694   2.491   4.405   1.055  2.4972 -0.5409  0.7015
  161WAT     H2  695   2.503   4.497   1.174 -1.5079  0.2702  0.6142
  162WAT      O  696   2.647   4.073   2.032  0.5173  0.4203  0.1281
  162WAT     H1  697   2.613   4.156   1.998 -0.7223  0.3974  1.2341
  162WAT     H2  698   2.586   4.049   2.102  0.5492 -1.6800 -0.4866
  163WAT      O  699   1.519   3.583   5.280  0.3196 -0.3467  0.4637
  163WAT     H1  700   1.527   3.544   5.367  0.2486 -2.5859 -0.4606
  163WAT     H2  701   1.563   3.667   5.287  0.3301 -0.4812  2.6490
  164WAT      O  702   1.081   1.246   0.535  0.1808 -0.0994  0.1464
  164WAT     H1  703   1.128   1.273   0.456  0.6587  0.3483  0.5808
  164WAT     H2  704   1.138   1.181   0.576 -0.2696 -0.6622 -0.0951
  165WAT      O  705   2.944   4.741   2.594 -0.1988 -0.5955  0.5077
  165WAT     H1  706   2.915   4.724   2.505 -0.4080 -3.7275  1.0893
  165WAT     H2  707   2.924   4.834   2.608 -3.7243 -0.9032 -1.4230
  166WAT      O  708   1.911   0.648   0.437  0.1728  0.9088 -0.0550
  166WAT     H1  709   1.824   0.626   0.405 -0.4040 -2.9374  3.3869
  166WAT     H2  710   1.900   0.661   0.531  3.4760 -1.8141  0.9061
  167WAT      O  711   1.523   1.142   4.447 -0.0895  0.6843  0.4207
  167WAT     H1  712   1.482   1.199   4.383 -4.6005 -0.5939  1.8124
  167WAT     H2  713   1.540   1.061   4.400 -3.0202 -0.1171  0.5713
  168WAT      O  714   0.612   0.454   2.406  0.4424 -0.4772 -0.1797
  168WAT     H1  715   0.616   0.440   2.311 -0.5937 -0.8678 -0.1812
  168WAT     H2  716   0.557   0.382   2.438 -1.7845  1.3148  0.3097
  169WAT      O  717   3.797   4.432   4.698 -0.0266 -0.2639  0.7587
  169WAT     H1  718   3.798   4.400   4.788  0.1335 -0.6475  0.6270
  169WAT     H2  719   3.884   4.408   4.664 -0.4639 -1.0640  0.1824
  170WAT      O  720   4.385   4.154   5.098  0.2196 -0.0143  0.0245
  170WAT     H1  721   4.400   4.151   5.193  0.3096 -1.3835 -0.0188
  170WAT     H2  722   4.469   4.182   5.061 -0.2601  2.1289  0.4241
  171WAT      O  723   3.867   4.946   1.039  0.3030 -0.0622  0.8111
  171WAT     H1  724   3.799   4.890   1.075  0.0637 -1.0719 -1.1247
  171WAT     H2  725   3.820   5.013   0.990  0.6636 -0.4277 -0.0522
  172WAT      O  726   1.837   2.103   0.288 -0.3162 -0.8218  0.1838
  172WAT     H1  727   1.906   2.052   0.247  0.0592 -0.4216  0.3123
  172WAT     H2  728   1.825   2.063   0.374  2.4444  1.3837  1.7744
  173WAT      O  729   0.708   0.774   0.130  0.4452 -0.0029  0.2796
  173WAT     H1  730   0.758   0.791   0.051  0.9166  0.1074  0.5985
  173WAT     H2  731   0.707   0.857   0.177 -2.4699  0.8397 -1.0420
  174WAT      O  732   3.996   3.909   0.260 -0.1541  0.0263 -0.2649
  174WAT     H1  733   4.010   3.833   0.315  2.6988  0.2162 -0.5669
  174WAT     H2  734   3.963   3.873   0.178  1.6465 -1.0428 -0.5917
  175WAT      O  735   1.866   2.522   3.029  0.3120 -0.3420  0.0310
  175WAT     H1  736   1.957   2.495   3.044  0.2166 -1.0476 -0.6004
  175WAT     H2  737   1.820   2.498   3.110  0.4204 -1.2445 -0.1621
  176WAT      O  738   3.684   1.721   0.443 -0.4641 -0.5319 -0.0145
  176WAT     H1  739   3.764   1.683   0.480 -0.0819  0.2276 -0.0375
  176WAT     H2  740   3.697   1.815   0.452 -1.2044 -0.3971 -0.3547
  177WAT      O  741   3.412   2.814   2.558  0.0399  0.1033 -0.6036
  177WAT     H1  742   3.402   2.827   2.464  0.2370  0.7387 -0.5385
  177WAT     H2  743   3.353   2.741   2.578  1.0196 -0.9738 -1.4510
  178WAT      O  744   4.215   0.459   1.757 -0.4730  0.4469 -0.2560
  178WAT     H1  745   4.197   0.525   1.690 -0.1352  0.1548 -0.6400
  178WAT     H2  746   4.168   0.381   1.727  1.0481 -0.2020 -1.0514
  179WAT      O  747   0.340   1.182   0.514 -0.2540  0.0337 -0.1007
  179WAT     H1  748   0.401   1.202   0.585 -0.5314 -1.0417  0.4519
  179WAT     H2  749   0.319   1.268   0.476  1.6690  0.4197 -0.3690
  180WAT      O  750   0.705   5.058   1.199  0.5262 -0.1173  0.0288
  180WAT     H1  751   0.636   5.101   1.250  0.9941 -0.1522  0.7130
  180WAT     H2  752   0.779   5.117   1.205 -0.0839  1.0205 -2.5840
  181WAT      O  753   2.366   3.116   3.286 -0.1428 -0.4323  0.3601
  181WAT     H1  754   2.451   3.128   3.243  0.8591 -1.3048  1.9846
  181WAT     H2  755   2.303   3.108   3.214  0.8741  1.8782 -0.8775
  182WAT      O  756   3.857   3.524   4.092 -0.6325 -0.0117  0.3592
  182WAT     H1  757   3.939   3.525   4.142  0.3492  1.9517 -1.1434
  182WAT     H2  758   3.791   3.556   4.153  0.6513  2.9830  0.3189
  183WAT      O  759   2.572   0.175   5.147 -0.2867 -0.2588  0.2613
  183WAT     H1  760   2.667   0.186   5.161  0.1998 -0.9908 -2.0047
  183WAT     H2  761   2.557   0.082   5.162 -0.5506 -0.2277  0.1862
  184WAT      O  762   3.027   0.440   2.228  0.7771  0.9124 -0.0461
  184WAT     H1  763   2.954   0.466   2.171 -0.5666 -0.9243  0.7259
  184WAT     H2  764   3.063   0.361   2.188  2.0751  1.5330 -0.1540
  185WAT      O  765   2.120   0.068   0.347  0.1527 -0.0490 -0.0154
  185WAT     H1  766   2.072   0.076   0.264 -2.4461  1.7127  1.5369
  185WAT     H2  767   2.062   0.018   0.403  2.6416 -2.8386  0.3531
  186WAT      O  768   2.230   4.815   0.734 -0.2111  0.4655 -0.5691
  186WAT     H1  769   2.237   4.803   0.829  0.9327 -0.3687 -0.7374
  186WAT     H2  770   2.320   4.814   0.702 -0.6125 -0.2913 -1.7777
  187WAT      O  771   1.155   1.846   0.569 -0.0479 -0.3517  0.3593
  187WAT     H1  772   1.213   1.902   0.519  0.3248 -0.9606  0.1055
  187WAT     H2  773   1.117   1.904   0.635 -0.0901  0.3187 -0.2455
  188WAT      O  774   0.639   1.996   4.071 -0.1008  0.2947 -0.3752
  188WAT     H1  775   0.586   1.989   4.150 -0.0677  0.9738 -0.2854
  188WAT     H2  776   0.578   2.024   4.003  0.1624  1.2730 -0.2268
  189WAT      O  777   0.074   2.994   4.261  0.0542  0.8117 -0.8725
  189WAT     H1  778   0.076   2.990   4.357 -1.0525  0.3390 -0.8545
  189WAT     H2  779   0.154   3.041   4.238  0.0457  1.4574  0.3148
  190WAT      O  780   2.890   1.438   1.226  0.5614 -0.1571  0.2668
  190WAT     H1  781   2.842   1.371   1.274 -1.9386 -1.1409 -3.2214
  190WAT     H2  782   2.825   1.476   1.167  2.6492  3.1874 -0.1471
  191WAT      O  783   1.543   0.477   2.672  0.0244  0.1242 -0.1692
  191WAT     H1  784   1.519   0.487   2.765 -0.0335 -0.0868 -0.1599
  191WAT     H2  785   1.617   0.536   2.660  1.0300 -0.9552  0.4051
  192WAT      O  786   4.030   3.676   0.396 -0.2310  0.3872 -0.5380
  192WAT     H1  787   4.095   3.609   0.376  0.8189  0.8549  1.1661
  192WAT     H2  788   3.997   3.653   0.482  0.2182  2.0818  0.1324
  193WAT      O  789   1.763   4.032   0.947 -0.0682  0.1273 -0.2469
  193WAT     H1  790   1.811   3.959   0.985  0.1357 -0.2749 -1.2533
  193WAT     H2  791   1.831   4.094   0.920 -0.1755  0.0952 -0.5907
  194WAT      O  792   4.237   0.426   3.466 -0.1798  0.0426  0.6135
  194WAT     H1  793   4.194   0.505   3.498  2.0888  1.3182  0.7296
  194WAT     H2  794   4.323   0.426   3.509  1.2590 -0.5422 -2.0430
  195WAT      O  795   4.025   4.578   4.919 -0.3757  0.0900  0.1034
  195WAT     H1  796   3.966   4.505   4.939 -0.7620  0.0348 -1.1277
  195WAT     H2  797   4.113   4.541   4.929 -0.5650 -0.5489 -0.4524
  196WAT      O  798   3.754   1.634   3.098 -0.0683  0.6194  0.6325
  196WAT     H1  799   3.834   1.590   3.126 -0.4265  0.0464  0.7839
  196WAT     H2  800   3.773   1.727   3.107  1.0890  0.5394 -0.7380
  197WAT      O  801   3.727   0.427   3.423 -0.6949 -0.4317 -0.1441
  197WAT     H1  802   3.726   0.375   3.342 -1.1069 -1.1346  0.3048
  197WAT     H2  803   3.784   0.377   3.482 -1.3028 -0.5202  0.3780
  198WAT      O  804   0.772   0.824   4.748  0.0500  0.3538  0.3471
  198WAT     H1  805   0.702   0.884   4.719  0.2727 -0.0227 -1.0344
  198WAT     H2  806   0.826   0.812   4.670  0.1617 -1.4393  0.6767
  199WAT      O  807   0.470   0.512   1.886  0.1820 -0.0252 -0.6691
  199WAT     H1  808   0.403   0.515   1.817 -0.8535 -2.0219  0.1572
  199WAT     H2  809   0.545   0.470   1.844 -0.5853 -1.6091 -0.5382
  200WAT      O  810   2.071   0.152   4.046  0.4669  0.3396 -0.1199
  200WAT     H1  811   2.111   0.069   4.018  0.3632  0.4771 -0.6774
  200WAT     H2  812   2.145   0.211   4.058  0.3975  0.8110 -1.8640
  201WAT      O  813   0.817   1.177   5.226 -0.6575 -0.2951  0.5440
  201WAT     H1  814   0.845   1.204   5.313 -0.9143 -2.3408  1.3251
  201WAT     H2  815   0.748   1.239   5.202 -0.3610  0.4849  1.6558
  202WAT      O  816   2.890   1.748   4.161 -0.0495 -0.3703  0.1255
  202WAT     H1  817   2.850   1.662   4.144 -2.9362  0.6196  1.2336
  202WAT     H2  818   2.870   1.765   4.253  1.1339  1.1787  0.1288
  203WAT      O  819   3.550   3.429   4.189  0.1414 -0.6700  0.6220
  203WAT     H1  820   3.595   3.444   4.272  1.2178 -2.6565  0.4498
  203WAT     H2  821   3.496   3.352   4.205  0.7930 -1.4143 -0.6618
  204WAT      O  822   2.264   0.085   3.682 -0.4673 -0.2152  0.3761
  204WAT     H1  823   2.272  -0.010   3.673  0.0085 -0.3297  1.7342
  204WAT     H2  824   2.339   0.111   3.736 -2.0163  0.5310  2.3036
  205WAT      O  825   4.485   3.531   0.030 -0.5180  0.0088  0.6369
  205WAT     H1  826   4.519   3.550  -0.058 -1.7555  2.4409  0.6109
  205WAT     H2  827   4.532   3.451   0.057  1.8184  0.6678 -1.1612
  206WAT      O  828   1.711   0.715   2.696  0.1360  0.3812  0.1906
  206WAT     H1  829   1.697   0.768   2.617  2.7617  0.1877 -0.5008
  206WAT     H2  830   1.631   0.726   2.747 -1.4941  0.8474 -2.2966
  207WAT      O  831   3.153   4.266   0.591 -0.3583  0.1773  0.1755
  207WAT     H1  832   3.193   4.216   0.663  1.5307  0.3437 -0.6993
  207WAT     H2  833   3.115   4.343   0.634 -0.5077 -0.4156  1.1503
  208WAT      O  834   4.164   4.936   0.930 -0.4364 -0.5321  0.3264
  208WAT     H1  835   4.218   4.973   0.860  0.2041  0.5554  1.3712
  208WAT     H2  836   4.082   4.985   0.924 -1.3950 -2.1997 -1.2752
  209WAT      O  837   0.033   1.882   0.965  0.3877 -0.5679 -0.0896
  209WAT     H1  838  -0.057   1.895   0.936 -0.0464 -1.2377  0.9115
  209WAT     H2  839   0.078   1.963   0.939 -0.8350  0.4115  0.6877
  210WAT      O  840   0.189   0.758   0.512  0.4110  0.1605 -0.1331
  210WAT     H1  841   0.172   0.852   0.515 -0.5991  0.0083 -0.5381
  210WAT     H2  842   0.284   0.750   0.510  0.4922  1.2009 -1.0574
  211WAT      O  843   2.063   1.387   5.097 -0.7260 -0.1778 -0.7276
  211WAT     H1  844   2.048   1.475   5.132  1.2679  0.3288 -1.0111
  211WAT     H2  845   2.103   1.339   5.169  1.4715  0.2548 -1.5776
  212WAT      O  846   0.073   0.651   0.292  0.7447 -0.4197  0.4065
  212WAT     H1  847   0.037   0.582   0.348 -0.7484  0.5640  0.7129
  212WAT     H2  848   0.123   0.706   0.352  1.1203 -0.6766  0.3343
  213WAT      O  849   1.505   1.618   4.844  0.2775 -0.0030 -0.2085
  213WAT     H1  850   1.519   1.539   4.791  0.4674  1.1777 -1.9846
  213WAT     H2  851   1.445   1.671   4.793  2.7029  2.4937 -0.7144
  214WAT      O  852   1.170   3.566   2.138  0.5872 -0.3859  0.4466
  214WAT     H1  853   1.175   3.528   2.051  0.9269  0.5286  0.0544
  214WAT     H2  854   1.254   3.543   2.179 -0.6567 -3.3476  1.6572
  215WAT      O  855   1.657   4.477   1.661  0.2646  0.1025 -0.3972
  215WAT     H1  856   1.721   4.428   1.610 -1.5301 -0.4524 -2.2672
  215WAT     H2  857   1.616   4.536   1.598 -1.3239  0.1475  0.6167
  216WAT      O  858   3.170   1.259   2.558 -0.2428  0.0469 -0.1187
  216WAT     H1  859   3.222   1.198   2.506 -0.2195 -0.3937  0.4110
  216WAT     H2  860   3.217   1.266   2.641 -0.8234 -0.0548  0.2229
  217WAT      O  861   0.834   2.233   0.762 -0.0490 -0.1257  0.3195
  217WAT     H1  862   0.793   2.230   0.676  0.3765  0.5234  0.0828
  217WAT     H2  863   0.768   2.272   0.819  0.5332  1.8568 -0.2631
  218WAT      O  864   3.013   3.083   3.081  0.1951  0.5079  0.4854
  218WAT     H1  865   2.979   3.167   3.110 -0.5469  0.0500  0.9686
  218WAT     H2  866   3.029   3.034   3.161 -2.7396 -1.1022  0.2255
  219WAT      O  867   3.042   2.395   4.599 -0.0362 -0.0324  0.3059
  219WAT     H1  868   2.995   2.479   4.595  2.1224  1.3730  1.9531
  219WAT     H2  869   3.079   2.384   4.512  1.0679  1.6744  0.5121
  220WAT      O  870   2.787   3.264   2.568 -0.2730  0.1010 -0.2165
  220WAT     H1  871   2.877   3.272   2.534  0.7256 -2.2428  1.6032
  220WAT     H2  872   2.798   3.234   2.658 -2.8934  2.0610  0.8993
  221WAT      O  873   3.333   0.753   4.533 -0.6376 -0.2313 -0.4709
  221WAT     H1  874   3.271   0.821   4.560  0.8140  0.4879  1.2402
  221WAT     H2  875   3.310   0.677   4.586  0.0210  0.0933  0.3012
  222WAT      O  876   2.131   1.704   4.642 -0.3078 -0.5175  0.0594
  222WAT     H1  877   2.046   1.745   4.656 -0.0767 -0.6026  1.9684
  222WAT     H2  878   2.149   1.657   4.724  0.1292 -3.2039 -1.4580
  223WAT      O  879   3.033   4.259   4.124 -0.1066 -0.1880 -0.2154
  223WAT     H1  880   3.069   4.274   4.212 -2.4070 -0.7327  0.8836
  223WAT     H2  881   3.021   4.346   4.087 -1.1664  0.1591  0.9066
  224WAT      O  882   1.189   0.615   2.588 -0.5408  0.3070  0.0716
  224WAT     H1  883   1.102   0.608   2.549 -0.5611 -0.0694  0.1766
  224WAT     H2  884   1.222   0.525   2.587  0.2730  0.6055 -0.9414
  225WAT      O  885   3.254   2.344   4.049 -0.0097 -0.4316 -0.0090
  225WAT     H1  886   3.184   2.288   4.015  1.8613 -2.3649 -0.8405
  225WAT     H2  887   3.320   2.345   3.980  1.6908 -0.3266  1.5583
  226WAT      O  888   2.124   0.650   3.112 -0.5070  0.0606 -0.1199
  226WAT     H1  889   2.160   0.678   3.196  1.5003  0.5687 -1.0787
  226WAT     H2  890   2.053   0.591   3.135 -1.2028  1.5664  1.9391
  227WAT      O  891   0.687   3.659   3.264  0.6492  0.4732  0.0608
  227WAT     H1  892   0.607   3.609   3.275  0.3414  0.3426 -2.2748
  227WAT     H2  893   0.669   3.718   3.190  2.4235  1.0163  0.0032
  228WAT      O  894   4.065   5.110   2.158  0.3947 -0.0796 -0.0480
  228WAT     H1  895   4.066   5.093   2.064  0.0823  1.1215 -0.2808
  228WAT     H2  896   3.974   5.129   2.178  0.6117  0.5720  0.3292
  229WAT      O  897   1.635   0.782   1.266  0.5141 -0.5521 -0.3975
  229WAT     H1  898   1.671   0.847   1.206  1.5273 -0.2686  0.4859
  229WAT     H2  899   1.666   0.698   1.232 -1.5430 -0.7166 -2.0678
  230WAT      O  900   1.506   4.711   1.847 -0.4000 -0.3896  0.5156
  230WAT     H1  901   1.540   4.776   1.909 -1.5210  0.6147  0.1074
  230WAT     H2  902   1.538   4.740   1.762 -0.0111 -0.9905  0.4532
  231WAT      O  903   0.303   4.503   2.664  1.0988 -0.1447  0.1459
  231WAT     H1  904   0.287   4.442   2.592  1.2052 -0.3423  0.2881
  231WAT     H2  905   0.304   4.448   2.742  0.5085  0.1351  0.3509
  232WAT      O  906   0.618   3.320   2.582  0.0095  0.1661 -0.0415
  232WAT     H1  907   0.622   3.255   2.511  2.5297  1.5704 -1.3400
  232WAT     H2  908   0.542   3.374   2.561  0.4884  0.3279 -1.5400
  233WAT      O  909   2.532   0.830   4.227  1.1022 -0.0711 -0.7029
  233WAT     H1  910   2.555   0.848   4.318  1.1252 -1.6458 -0.3675
  233WAT     H2  911   2.613   0.845   4.178  1.1244  0.6512 -0.4565
  234WAT      O  912   3.974   3.462   1.668 -0.1248 -0.3182  0.0928
  234WAT     H1  913   3.986   3.430   1.757 -0.1215  2.7376  1.3101
  234WAT     H2  914   3.879   3.467   1.657 -0.1459  0.8426  0.6045
  235WAT      O  915   3.254   0.488   4.049  0.6370 -0.1990 -0.1976
  235WAT     H1  916   3.340   0.531   4.043  0.9974 -0.7593  0.6755
  235WAT     H2  917   3.209   0.512   3.969  0.9718  1.4774  0.0857
  236WAT      O  918   1.182   2.582   4.550 -0.1800 -0.0736 -0.5472
  236WAT     H1  919   1.098   2.553   4.588 -0.8633 -0.3347 -2.1917
  236WAT     H2  920   1.242   2.583   4.625 -1.4864 -0.4983  0.5590
  237WAT      O  921   0.522   3.776   1.488 -0.2276 -0.2977  0.2380
  237WAT     H1  922   0.530   3.724   1.568  0.0310  0.8486  0.9993
  237WAT     H2  923   0.433   3.760   1.458 -0.4045 -0.5932  0.8878
  238WAT      O  924   0.185   1.471   4.871 -0.1240  0.3395  0.5870
  238WAT     H1  925   0.114   1.527   4.840  0.0795 -0.4129 -1.3469
  238WAT     H2  926   0.163   1.384   4.837  2.3345  0.3281 -1.1839
  239WAT      O  927   3.316   2.254   1.429 -0.8438 -0.0820  0.3517
  239WAT     H1  928   3.229   2.215   1.428 -1.0959  0.4477  0.7548
  239WAT     H2  929   3.336   2.265   1.522  0.6734 -2.3788  0.3592
  240WAT      O  930   4.332   4.039   4.210  0.3190  0.8012  0.5168
  240WAT     H1  931   4.263   4.059   4.273  1.1026  1.4626  1.1884
  240WAT     H2  932   4.286   4.026   4.128 -0.5861  1.5397  0.8851
  241WAT      O  933   4.393   0.981   4.224  0.1255 -0.1048  1.0046
  241WAT     H1  934   4.368   0.924   4.297 -1.2452  1.6034  1.9572
  241WAT     H2  935   4.330   1.053   4.227  0.4069  0.3448 -1.5203
  242WAT      O  936   3.492   1.729   4.527  0.0337  0.0931 -0.2404
  242WAT     H1  937   3.526   1.760   4.443  1.3569  0.6296  0.4587
  242WAT     H2  938   3.443   1.803   4.562 -0.9933 -0.3195 -0.7705
  243WAT      O  939   3.274   0.158   4.676  0.0131  0.1515 -0.1957
  243WAT     H1  940   3.290   0.246   4.709 -1.3125  0.5448 -0.5251
  243WAT     H2  941   3.298   0.100   4.748  1.5435  0.7234 -0.2105
  244WAT      O  942   2.128   3.241   3.023 -0.3234  0.3151 -0.1277
  244WAT     H1  943   2.119   3.288   3.106  0.9832 -3.1044  2.1604
  244WAT     H2  944   2.219   3.256   2.997 -0.2533  0.0316 -0.0451
  245WAT      O  945   0.867   0.097   4.279 -0.3680  0.0674  0.1208
  245WAT     H1  946   0.786   0.055   4.307 -0.1715 -2.0181 -2.1776
  245WAT     H2  947   0.937   0.045   4.319 -0.1302  0.0777 -0.2766
  246WAT      O  948   1.087   3.098   3.880 -0.0563  0.4929 -0.0294
  246WAT     H1  949   1.158   3.153   3.848  0.8823  0.6184  2.0734
  246WAT     H2  950   1.020   3.160   3.909 -0.2219  0.4399 -0.3037
  247WAT      O  951   1.975   3.710   2.040 -0.6435 -0.1094  0.3845
  247WAT     H1  952   2.029   3.735   1.966  0.5668 -2.2040  0.4981
  247WAT     H2  953   1.925   3.789   2.061  2.3691  1.9727  0.2935
  248WAT      O  954   3.527   3.276   1.923  0.4339  0.2245  0.4631
  248WAT     H1  955   3.522   3.302   1.831 -2.6007  1.2831  0.8325
  248WAT     H2  956   3.549   3.357   1.970 -0.1245  0.1542  0.8488
  249WAT      O  957   1.201   1.320   4.434 -0.5220 -0.1395  0.2719
  249WAT     H1  958   1.120   1.327   4.382 -0.9650 -0.3783  0.9116
  249WAT     H2  959   1.171   1.326   4.525  0.2716  0.5438  0.4937
  250WAT      O  960   1.438   1.030   3.664 -0.3287 -0.1398  0.2547
  250WAT     H1  961   1.469   1.000   3.749 -1.0295 -1.0231  0.2188
  250WAT     H2  962   1.471   1.119   3.656 -0.0649 -0.1243  1.3526
  251WAT      O  963   1.532   0.031   3.164 -0.6426  0.1283 -0.5116
  251WAT     H1  964   1.563   0.105   3.218  0.0396 -0.3233 -0.2682
  251WAT     H2  965   1.593  -0.040   3.184  0.4382  0.3053 -2.8104
  252WAT      O  966   4.252   4.909   4.725  0.2852  0.0261 -0.4032
  252WAT     H1  967   4.161   4.913   4.753  0.3116 -2.6318  0.3815
  252WAT     H2  968   4.248   4.880   4.634  0.3549  1.1348 -0.7739
  253WAT      O  969   1.556   0.564   5.034 -0.0017 -0.1111 -0.5260
  253WAT     H1  970   1.634   0.619   5.023 -0.2207  0.2174 -0.4354
  253WAT     H2  971   1.521   0.555   4.946  0.4933 -0.7869 -0.6625
  254WAT      O  972   3.179   2.039   2.477  0.4154  0.6499 -0.8347
  254WAT     H1  973   3.245   2.027   2.546 -0.4477 -1.3853 -0.2826
  254WAT     H2  974   3.203   1.977   2.409 -0.6695  0.1784 -0.8123
  255WAT      O  975   3.573   3.612   3.988 -0.1230  0.2174 -0.0942
  255WAT     H1  976   3.517   3.671   4.039  1.3290  0.8563  0.8359
  255WAT     H2  977   3.597   3.544   4.050  0.9455  0.5197 -0.1662
  256WAT      O  978   0.589   4.269   1.461  0.2743 -0.0689 -0.3575
  256WAT     H1  979   0.670   4.314   1.487  0.3271 -0.1978 -0.2947
  256WAT     H2  980   0.519   4.327   1.488  0.3576  0.2288 -0.7725
  257WAT      O  981   1.074   0.975   2.338 -0.3882 -0.2026  0.1579
  257WAT     H1  982   1.103   0.912   2.271  1.9034  0.8432  0.0528
  257WAT     H2  983   1.060   1.056   2.290  0.3776  0.3204  0.7840
  258WAT      O  984   2.729   4.739   3.970 -0.5983  0.2817  0.3693
  258WAT     H1  985   2.661   4.802   3.948  0.3879  1.7367  1.2737
  258WAT     H2  986   2.682   4.664   4.006 -1.9022 -0.1609 -2.0105
  259WAT      O  987   3.682   4.163   4.446 -0.1232 -0.0587 -0.2560
  259WAT     H1  988   3.695   4.151   4.540  0.2883  0.5472 -0.2293
  259WAT     H2  989   3.756   4.117   4.406 -0.4178 -0.5042 -0.2987
  260WAT      O  990   2.010   4.305   0.535 -0.1290 -0.8502  0.0434
  260WAT     H1  991   2.059   4.387   0.548 -0.8461 -0.4733  0.4335
  260WAT     H2  992   1.930   4.317   0.585 -0.8752 -1.2304 -1.0140
  261WAT      O  993   1.671   0.795   2.011  0.0448  0.7870  0.0329
  261WAT     H1  994   1.705   0.729   1.950  1.2444  1.3628  0.0560
  261WAT     H2  995   1.701   0.766   2.097 -1.7603 -0.0963  0.4084
  262WAT      O  996   0.165   2.593   3.282  0.2300 -0.1541  0.6063
  262WAT     H1  997   0.118   2.622   3.361 -0.3769  1.2999 -0.2398
  262WAT     H2  998   0.165   2.670   3.225  0.1716 -1.3324 -1.0492
  263WAT      O  999   1.396   3.006   1.025  0.3580  0.4263  0.3253
  263WAT     H1 1000   1.420   3.006   1.118 -1.6256 -1.4346  0.9147
  263WAT     H2 1001   1.327   3.072   1.019 -0.3724 -0.3149  0.4505
  264WAT      O 1002   4.234   0.434   3.844 -0.3857 -0.1125 -0.1462
  264WAT     H1 1003   4.285   0.509   3.813  0.9506 -0.9687 -0.0797
  264WAT     H2 1004   4.296   0.382   3.895 -1.6896 -0.4730  1.1423
  265WAT      O 1005   2.313   3.098   1.749  0.1387 -0.3566 -0.4423
  265WAT     H1 1006   2.334   3.097   1.656  0.8928 -0.6369 -0.2738
  265WAT     H2 1007   2.362   3.173   1.784 -1.8946  1.1682 -0.6499
  266WAT      O 1008   0.277   2.028   1.125 -0.3508 -0.4453 -0.6711
  266WAT     H1 1009   0.238   1.967   1.187  1.4620  0.4193  1.4874
  266WAT     H2 1010   0.229   2.110   1.138  1.0953  0.2211  0.9663
  267WAT      O 1011   3.899   2.100   0.843 -0.1828  0.2728 -0.7092
  267WAT     H1 1012   3.838   2.029   0.825  1.3158 -1.0309 -0.8255
  267WAT     H2 1013   3.970   2.087   0.780  0.3033  1.6585 -0.4778
  268WAT      O 1014   3.884   4.098   1.061 -0.3328 -0.2158 -0.0631
  268WAT     H1 1015   3.956   4.038   1.038 -0.5153  0.1840 -1.8376
  268WAT     H2 1016   3.825   4.045   1.114  1.5469 -0.3705  1.9960
  269WAT      O 1017   0.234   5.071   5.233  0.1030 -0.0436 -0.0812
  269WAT     H1 1018   0.164   5.017   5.197  0.2044 -1.1811  1.3551
  269WAT     H2 1019   0.189   5.138   5.284  0.0343 -0.8451  0.9393
  270WAT      O 1020   2.828   5.032   0.527 -0.6319 -0.2843 -0.5865
  270WAT     H1 1021   2.901   5.093   0.514 -2.6201  3.0467  1.9494
  270WAT     H2 1022   2.758   5.066   0.472 -1.1399 -1.6804 -0.8324
  271WAT      O 1023   3.921   1.341   2.842 -0.0686 -0.2699  0.0551
  271WAT     H1 1024   3.918   1.260   2.791 -2.1896 -0.6686  0.6747
  271WAT     H2 1025   3.884   1.407   2.783  0.0784 -0.1277  0.1239
  272WAT      O 1026   4.367   0.561   1.244  0.1616  0.0925 -0.4172
  272WAT     H1 1027   4.307   0.592   1.312  0.0476 -0.5155 -0.2366
  272WAT     H2 1028   4.334   0.600   1.163  1.4544  2.4826  0.1156
  273WAT      O 1029   2.343   3.251   4.542 -0.0878  0.0457  0.0867
  273WAT     H1 1030   2.274   3.185   4.553  1.2713 -1.9519 -2.3157
  273WAT     H2 1031   2.305   3.315   4.482 -1.0816  1.0591  1.7050
  274WAT      O 1032   3.721   1.082   2.733 -0.5046  0.0588 -0.4409
  274WAT     H1 1033   3.721   1.170   2.695 -0.9246 -0.0709 -0.7431
  274WAT     H2 1034   3.694   1.096   2.824 -2.6777  0.0365 -1.0155
  275WAT      O 1035   4.193   2.293   0.892 -0.2697 -0.7808 -0.0297
  275WAT     H1 1036   4.126   2.327   0.833  0.2005  1.0949  0.4369
  275WAT     H2 1037   4.258   2.364   0.897  1.4446 -2.2894  0.0202
  276WAT      O 1038   4.194   4.595   1.362 -0.0162 -0.1199 -0.1524
  276WAT     H1 1039   4.161   4.663   1.303  0.1817 -1.4413 -1.8596
  276WAT     H2 1040   4.127   4.526   1.359  0.1430 -0.3438  0.9601
  277WAT      O 1041   4.486   1.651   0.346  0.1377 -0.6863  0.2407
  277WAT     H1 1042   4.436   1.616   0.272  0.2997 -1.1332  0.3453
  277WAT     H2 1043   4.423   1.653   0.419  0.0739 -0.5600  0.1838
  278WAT      O 1044   1.104   3.642   4.380  0.0019 -0.6229 -0.3993
  278WAT     H1 1045   1.045   3.575   4.414 -1.9526  0.7423 -0.9379
  278WAT     H2 1046   1.080   3.722   4.427 -0.1559  0.4603 -2.2267
  279WAT      O 1047   1.483   4.356   0.165  0.1492  0.1166  0.3344
  279WAT     H1 1048   1.496   4.268   0.199 -0.7464  0.3209  1.2297
  279WAT     H2 1049   1.460   4.409   0.241  0.0761  1.0009 -0.2807
  280WAT      O 1050   2.808   2.225   4.232 -0.4008  0.1795  0.1087
  280WAT     H1 1051   2.832   2.281   4.158  1.1386  2.0297  1.8992
  280WAT     H2 1052   2.745   2.276   4.282 -2.0342 -1.3744 -0.2381
  281WAT      O 1053   3.851   1.326   4.475 -0.2046 -0.4644  0.2013
  281WAT     H1 1054   3.759   1.300   4.473 -0.3924  0.1589  0.4737
  281WAT     H2 1055   3.896   1.252   4.515 -0.6467 -0.6027  0.4445
  282WAT      O 1056   0.544   2.728   3.020  0.0898  0.1121  0.4575
  282WAT     H1 1057   0.617   2.771   3.064  0.8967 -0.6369 -0.1071
  282WAT     H2 1058   0.468   2.783   3.040  0.8273  0.9872  0.9380
  283WAT      O 1059   3.648   0.530   2.992  0.4368  0.2250  0.0488
  283WAT     H1 1060   3.684   0.478   2.920  0.9545  0.6819 -0.0317
  283WAT     H2 1061   3.688   0.616   2.981 -1.0542  0.9033 -0.3085
  284WAT      O 1062   0.275   1.372   4.576  0.2231  0.6312  0.3244
  284WAT     H1 1063   0.246   1.427   4.503 -0.1817 -0.9824 -0.7913
  284WAT     H2 1064   0.196   1.327   4.606  0.4702  0.9336  1.4801
  285WAT      O 1065   0.163   4.124   4.792 -0.1208  0.3343 -0.2558
  285WAT     H1 1066   0.252   4.103   4.765 -0.1445  1.5874 -1.4340
  285WAT     H2 1067   0.174   4.184   4.866  0.0090  0.0326 -0.0312
  286WAT      O 1068   2.586   0.806   2.047  0.1741  0.0195 -0.5130
  286WAT     H1 1069   2.531   0.745   1.999  0.2688  0.4117 -1.1318
  286WAT     H2 1070   2.643   0.845   1.980  1.6439 -0.8277  0.1850
  287WAT      O 1071   3.178   0.397   5.047  0.0071 -0.0464  0.3066
  287WAT     H1 1072   3.129   0.464   5.095  0.3643  1.1148 -0.8792
  287WAT     H2 1073   3.132   0.390   4.963  1.4332  0.5623 -0.5645
  288WAT      O 1074   3.491   1.631   2.015 -0.0317 -0.2151 -0.5824
  288WAT     H1 1075   3.454   1.631   1.926 -1.8227  2.4035  0.0380
  288WAT     H2 1076   3.417   1.608   2.071  0.8902 -1.0681  0.3233
  289WAT      O 1077   0.975   1.735   1.579  0.2634 -0.2460 -0.6907
  289WAT     H1 1078   0.937   1.823   1.572  0.4529 -0.0767  0.3470
  289WAT     H2 1079   0.902   1.677   1.559 -0.5606  0.0820  1.1359
  290WAT      O 1080   2.044   3.219   1.511 -0.2575  0.3360  0.1655
  290WAT     H1 1081   2.016   3.127   1.509  1.0906 -0.1076  0.6649
  290WAT     H2 1082   2.055   3.239   1.604  0.7320  0.5914  0.0039
  291WAT      O 1083   0.864   1.152   3.860  0.6476 -0.0501 -0.0529
  291WAT     H1 1084   0.944   1.169   3.809  1.7744 -0.7934  1.3809
  291WAT     H2 1085   0.865   1.217   3.929 -1.1423  1.2751 -1.1739
  292WAT      O 1086   3.775   2.143   3.143 -0.0914 -0.3672  0.0414
  292WAT     H1 1087   3.693   2.186   3.118 -0.5154 -0.6349  0.9366
  292WAT     H2 1088   3.829   2.213   3.178  0.2629 -0.1029 -0.9963
  293WAT      O 1089   0.586   0.121   0.644  0.1241  0.8640 -0.4897
  293WAT     H1 1090   0.619   0.209   0.632  0.3612  0.6395 -1.5995
  293WAT     H2 1091   0.498   0.122   0.606  0.5139  0.3764 -1.4352
  294WAT      O 1092   3.830   4.532   2.734 -0.4614  0.1363  0.0664
  294WAT     H1 1093   3.779   4.474   2.678  0.3441 -0.4140 -0.1020
  294WAT     H2 1094   3.832   4.488   2.819 -2.3847  1.3531  0.8286
  295WAT      O 1095   1.393   2.848   2.720  0.1971  0.4117 -0.1261
  295WAT     H1 1096   1.344   2.856   2.802  0.1634  0.9068 -0.1904
  295WAT     H2 1097   1.472   2.799   2.745  0.2698  0.7083  0.2413
  296WAT      O 1098   3.864   1.217   4.822 -0.0787  0.3451 -0.0264
  296WAT     H1 1099   3.837   1.308   4.811 -1.9152 -0.1982 -0.3434
  296WAT     H2 1100   3.905   1.215   4.908  2.2511  1.9270 -0.9819
  297WAT      O 1101   3.036   2.786   4.844 -0.0543 -0.1772 -0.3573
  297WAT     H1 1102   3.101   2.718   4.827 -0.3812 -0.4722 -0.4216
  297WAT     H2 1103   3.059   2.820   4.931 -0.9793 -1.6170  0.4897
  298WAT      O 1104   4.052   0.419   5.012  0.4349  0.1064  0.2514
  298WAT     H1 1105   3.983   0.483   4.997  1.2571  1.4881  2.0191
  298WAT     H2 1106   4.022   0.368   5.087  0.1123 -1.1820 -0.7059
  299WAT      O 1107   4.142   0.584   1.482 -0.0165  0.1459 -0.4509
  299WAT     H1 1108   4.176   0.668   1.451 -0.9342  0.7130  0.0415
  299WAT     H2 1109   4.063   0.606   1.532 -0.0058 -0.9658  0.1021
  300WAT      O 1110   3.507   2.346   1.000 -0.3570  0.3714 -0.0006
  300WAT     H1 1111   3.422   2.329   1.041 -0.4895 -1.1403 -0.8351
  300WAT     H2 1112   3.533   2.262   0.964  0.4186  1.3307 -1.7918
  301WAT      O 1113   3.704   0.024   1.732 -0.3300  0.5669 -0.0641
  301WAT     H1 1114   3.636  -0.024   1.778  0.3091  0.0987  0.4249
  301WAT     H2 1115   3.695   0.115   1.763 -0.3791  0.3986  0.4196
  302WAT      O 1116   1.779   3.403   4.228  0.2054 -0.1919 -0.0725
  302WAT     H1 1117   1.755   3.470   4.165 -1.7640  0.1664  0.9937
  302WAT     H2 1118   1.724   3.328   4.205 -1.9813  0.5560  2.2495
  303WAT      O 1119   1.124   0.776   2.128  0.0471  0.5771 -0.5147
  303WAT     H1 1120   1.123   0.692   2.174 -1.6243  1.2697  0.8145
  303WAT     H2 1121   1.057   0.767   2.060 -0.1998  0.8534 -0.3107
  304WAT      O 1122   3.464   0.738   1.863  0.3206  0.2450  0.1524
  304WAT     H1 1123   3.492   0.786   1.785 -2.5607  0.8220 -0.6315
  304WAT     H2 1124   3.439   0.651   1.831  1.5853 -0.4303  0.9064
  305WAT      O 1125   1.838   3.155   1.881 -0.3280 -0.3064  0.0858
  305WAT     H1 1126   1.749   3.165   1.849 -0.1869 -0.0145 -0.2180
  305WAT     H2 1127   1.828   3.139   1.975 -0.6403  1.3085  0.3594
  306WAT      O 1128   3.036   1.522   2.364  0.2557  0.5120  0.1104
  306WAT     H1 1129   2.969   1.468   2.320  1.7961 -1.2325 -0.2309
  306WAT     H2 1130   3.095   1.549   2.293 -0.2389  2.3315  0.3555
  307WAT      O 1131   2.377   3.881   4.005 -0.0030 -0.4868 -0.1574
  307WAT     H1 1132   2.449   3.925   4.050  0.7433 -2.2331  0.4573
  307WAT     H2 1133   2.301   3.897   4.061 -0.0132  0.8814 -0.5117
  308WAT      O 1134   1.478   1.979   5.193  0.3913  0.0271 -0.0521
  308WAT     H1 1135   1.528   2.004   5.271  1.3502  0.4088 -0.7611
  308WAT     H2 1136   1.491   1.885   5.186  1.3190  0.1712 -0.4196
  309WAT      O 1137   0.762   3.433   3.413 -0.3346  0.0169  0.4140
  309WAT     H1 1138   0.775   3.500   3.346 -1.3016 -0.6248 -0.4408
  309WAT     H2 1139   0.774   3.350   3.367 -1.6023 -0.4504  0.8817
  310WAT      O 1140   0.669   1.427   3.239  0.0005 -0.3435 -0.3530
  310WAT     H1 1141   0.618   1.436   3.158  1.0256 -0.5071 -1.0222
  310WAT     H2 1142   0.757   1.404   3.210  0.9265  1.6171  0.6883
  311WAT      O 1143   2.641   3.304   0.814  0.5082  0.0576  0.2609
  311WAT     H1 1144   2.702   3.230   0.811  0.8991  0.3995 -0.2126
  311WAT     H2 1145   2.693   3.380   0.787  0.0836  0.4952  0.6412
  312WAT      O 1146   0.500   0.402   3.644 -0.3610 -0.3322 -0.2984
  312WAT     H1 1147   0.539   0.398   3.557  0.1596 -0.7235 -0.0480
  312WAT     H2 1148   0.502   0.495   3.666  0.5758 -0.3614 -0.2231
  313WAT      O 1149   3.574   4.661   0.818 -0.9122  0.2269 -0.0214
  313WAT     H1 1150   3.582   4.698   0.906 -3.0092  1.1330 -0.1631
  313WAT     H2 1151   3.653   4.608   0.807 -0.5370  0.2172  2.3310
  314WAT      O 1152   3.314   1.921   4.654 -0.0024 -0.4200 -0.0812
  314WAT     H1 1153   3.218   1.928   4.653 -0.0014 -0.4010 -0.0476
  314WAT     H2 1154   3.342   1.957   4.570 -0.1550 -2.3145 -0.9886
  315WAT      O 1155   2.118   4.850   4.843 -0.3900  0.3534 -0.3429
  315WAT     H1 1156   2.182   4.920   4.857  1.1221 -1.0934  0.3274
  315WAT     H2 1157   2.071   4.843   4.925 -0.7238  0.7541 -0.4991
  316WAT      O 1158   4.045   2.488   1.126  0.0837  1.2771  0.2960
  316WAT     H1 1159   3.991   2.440   1.063  1.9737  1.1471 -1.2984
  316WAT     H2 1160   4.097   2.548   1.073  0.8381  2.0860  1.8734
  317WAT      O 1161   1.226   1.329   0.968  0.3936  0.3991  0.6706
  317WAT     H1 1162   1.259   1.290   0.888  1.9971 -0.7890  1.8347
  317WAT     H2 1163   1.135   1.299   0.975  0.0011  1.1142 -1.0188
  318WAT      O 1164   0.014   5.030   0.326  0.4582 -0.1793 -0.5653
  318WAT     H1 1165   0.049   4.993   0.408 -1.1936 -0.6867 -0.0464
  318WAT     H2 1166   0.031   4.963   0.261  0.9756 -0.1601 -0.4572
  319WAT      O 1167   0.478   0.657   1.105 -0.5773 -0.0016 -0.5860
  319WAT     H1 1168   0.554   0.600   1.090  0.2511  1.5698 -2.7450
  319WAT     H2 1169   0.510   0.722   1.167 -0.8952 -0.6329  0.2648
  320WAT      O 1170   2.747   0.293   3.386  0.0718  0.0906  0.4904
  320WAT     H1 1171   2.796   0.374   3.401  0.9430 -0.7287  2.4803
  320WAT     H2 1172   2.655   0.319   3.395  0.3198  0.9415  0.6428
  321WAT      O 1173   0.370   3.077   1.178  0.2015  0.3176 -0.1867
  321WAT     H1 1174   0.424   2.999   1.191 -0.8968 -0.2189  1.6138
  321WAT     H2 1175   0.283   3.043   1.155  0.1454  1.0885 -1.1797
  322WAT      O 1176   3.986   1.073   1.625 -0.0077 -0.0054 -0.1848
  322WAT     H1 1177   3.978   1.031   1.540 -0.4186  0.9737 -0.6404
  322WAT     H2 1178   4.046   1.146   1.611  1.9336 -1.2754  0.9435
  323WAT      O 1179   2.331   1.879   5.089 -0.4910  0.1735  0.1901
  323WAT     H1 1180   2.269   1.952   5.099  0.3109  1.3535 -2.5843
  323WAT     H2 1181   2.412   1.911   5.130 -0.7941 -0.1245  1.0417
  324WAT      O 1182   2.875   3.028   2.680 -0.4038 -0.3772 -0.1121
  324WAT     H1 1183   2.869   2.940   2.716 -1.8063 -0.4877 -0.5308
  324WAT     H2 1184   2.885   3.015   2.586  0.6585 -0.0767 -0.0551
  325WAT      O 1185   4.097   4.916   4.048  0.1003 -0.1387  0.0011
  325WAT     H1 1186   4.109   4.840   4.105 -0.6517  0.0237  0.3850
  325WAT     H2 1187   4.021   4.962   4.085 -0.0770  0.2477 -0.8290
  326WAT      O 1188   4.253   1.200   4.303  0.1259  0.1570  1.3990
  326WAT     H1 1189   4.309   1.183   4.378  0.4923  0.7070  1.2542
  326WAT     H2 1190   4.273   1.290   4.278  0.5273 -0.2487  0.2076
  327WAT      O 1191   1.544   4.054   3.178 -0.0453 -0.6847  0.1082
  327WAT     H1 1192   1.531   4.053   3.273 -0.4316 -0.0212  0.0689
  327WAT     H2 1193   1.585   3.970   3.158 -1.4689 -1.5495  0.6617
  328WAT      O 1194   0.768   3.160   4.541 -0.1945  0.3748 -0.5196
  328WAT     H1 1195   0.753   3.093   4.608  3.2925 -1.0947 -0.9590
  328WAT     H2 1196   0.778   3.241   4.590 -1.2045  0.0093  0.3487
  329WAT      O 1197   3.545   2.879   1.282 -0.6034  0.2851 -0.3598
  329WAT     H1 1198   3.588   2.796   1.259 -2.7568 -0.7759 -0.7994
  329WAT     H2 1199   3.530   2.922   1.198 -0.3271  0.6877 -0.2043
  330WAT      O 1200   1.269   3.424   3.997  0.0829  0.0623 -0.1437
  330WAT     H1 1201   1.287   3.354   4.060  2.2590 -0.1929 -0.9437
  330WAT     H2 1202   1.271   3.380   3.912 -1.6791  0.6024 -0.5107
  331WAT      O 1203   0.007   1.354   0.659  0.4526 -0.3025 -0.6317
  331WAT     H1 1204  -0.046   1.310   0.593 -1.2762 -0.7391  0.9561
  331WAT     H2 1205   0.049   1.282   0.707 -2.0758 -0.3580  1.7200
  332WAT      O 1206   4.304   1.895   4.420  0.3460  0.4917  0.2911
  332WAT     H1 1207   4.384   1.897   4.473  1.5797 -1.4748 -1.3127
  332WAT     H2 1208   4.312   1.971   4.362  0.6331  0.7977  0.7263
  333WAT      O 1209   4.110   5.016   1.690 -0.3433 -0.0271  0.3788
  333WAT     H1 1210   4.109   4.925   1.718 -0.2313 -0.8616 -2.0873
  333WAT     H2 1211   4.045   5.060   1.744 -1.2464 -1.8337  0.7942
  334WAT      O 1212   0.448   2.543   1.106  0.9611 -0.8187  0.0224
  334WAT     H1 1213   0.439   2.522   1.199  1.0682 -0.2159  0.1715
  334WAT     H2 1214   0.358   2.539   1.073  0.8529 -0.5254  0.2678
  335WAT      O 1215   4.476   4.676   2.926  0.5863 -0.6475  0.4607
  335WAT     H1 1216   4.473   4.712   3.015 -1.5513  0.2461  0.0835
  335WAT     H2 1217   4.388   4.642   2.911  1.0836 -1.3182 -1.1177
  336WAT      O 1218   2.354   4.328   2.663 -0.2760 -0.2318  0.6388
  336WAT     H1 1219   2.320   4.322   2.752  0.3475 -1.2224  0.8219
  336WAT     H2 1220   2.435   4.379   2.672 -0.2099 -0.3367  0.6394
  337WAT      O 1221   1.952   4.513   4.207 -0.1394 -0.2308  0.2477
  337WAT     H1 1222   1.934   4.462   4.286  0.1685 -0.4289  0.1921
  337WAT     H2 1223   1.937   4.603   4.234  0.0267 -0.2903  0.5532
  338WAT      O 1224   3.504   3.062   1.075 -0.3833 -0.0679  0.0055
  338WAT     H1 1225   3.498   3.155   1.100  1.4218 -0.4780  2.3274
  338WAT     H2 1226   3.577   3.058   1.014  0.3825 -0.1053  0.9073
  339WAT      O 1227   3.878   0.316   1.490 -0.2116 -0.0850  0.2902
  339WAT     H1 1228   3.955   0.314   1.432  0.4962  1.0404  1.1568
  339WAT     H2 1229   3.822   0.246   1.457  1.4961 -1.4001  0.0491
  340WAT      O 1230   0.704   3.316   2.140 -0.3749 -0.2402  0.0506
  340WAT     H1 1231   0.679   3.408   2.135 -0.1756 -0.1999 -0.1663
  340WAT     H2 1232   0.625   3.272   2.172 -0.8494 -0.1641 -0.9879
  341WAT      O 1233   1.145   4.618   0.847  0.4481 -0.5763 -0.1182
  341WAT     H1 1234   1.062   4.578   0.873  0.2858 -0.9959 -1.2239
  341WAT     H2 1235   1.211   4.570   0.896  0.3016 -2.6476 -1.8098
  342WAT      O 1236   4.373   0.288   1.213 -0.2136  0.5884  0.3470
  342WAT     H1 1237   4.383   0.380   1.239 -0.3141  0.1061  2.2631
  342WAT     H2 1238   4.436   0.241   1.268 -0.6717 -0.5731 -0.0927
  343WAT      O 1239   0.202   0.411   3.266 -0.1612  0.6106 -0.4196
  343WAT     H1 1240   0.243   0.385   3.184  1.6197  0.5537  0.4329
  343WAT     H2 1241   0.203   0.506   3.265  0.6511  0.6107 -0.1077
  344WAT      O 1242   1.590   1.138   3.440  0.4683 -0.0909  0.1121
  344WAT     H1 1243   1.556   1.153   3.351  0.2180  0.8781  0.3599
  344WAT     H2 1244   1.542   1.061   3.471 -0.0039  0.0261 -0.3076
  345WAT      O 1245   1.762   0.972   4.766 -0.1981 -0.0852 -0.1677
  345WAT     H1 1246   1.782   0.917   4.691 -1.1053  2.4895 -2.4512
  345WAT     H2 1247   1.666   0.969   4.774 -0.0437 -2.3577  2.6798
  346WAT      O 1248   0.716   0.462   4.189  0.7770 -0.3939 -0.3303
  346WAT     H1 1249   0.664   0.437   4.266  1.0960 -0.8605 -0.2642
  346WAT     H2 1250   0.682   0.406   4.119  0.5028  0.0141 -0.5221
  347WAT      O 1251   3.303   3.764   0.399  0.4707  0.3704 -0.5775
  347WAT     H1 1252   3.372   3.705   0.371  0.3627  1.6122 -3.9410
  347WAT     H2 1253   3.258   3.789   0.318 -2.7248  1.1381  1.2222
  348WAT      O 1254   0.840   2.428   3.009 -0.0632  0.2407  0.1791
  348WAT     H1 1255   0.818   2.481   2.932 -1.2130 -1.9373 -1.0947
  348WAT     H2 1256   0.861   2.342   2.973  0.3125 -0.5972  2.2652
  349WAT      O 1257   1.644   1.011   1.854  0.2294  0.0777 -0.4607
  349WAT     H1 1258   1.714   1.054   1.904 -0.0015 -0.3767  0.2725
  349WAT     H2 1259   1.619   0.936   1.909  0.5161 -0.9041 -1.6362
  350WAT      O 1260   0.691   2.726   2.344 -0.2213  0.1903  0.4492
  350WAT     H1 1261   0.667   2.816   2.322  1.9978  0.5525 -0.8899
  350WAT     H2 1262   0.772   2.711   2.295  0.8136 -1.7091  2.5772
  351WAT      O 1263   0.600   2.493   3.146 -0.2082  0.0693 -0.2145
  351WAT     H1 1264   0.674   2.450   3.103  0.4842 -0.7412  1.6868
  351WAT     H2 1265   0.587   2.573   3.096  2.0055  0.2793 -0.5508
  352WAT      O 1266   0.192   1.166   3.480 -0.3918  0.0405 -0.0742
  352WAT     H1 1267   0.205   1.236   3.543 -1.3048 -0.7512  1.0333
  352WAT     H2 1268   0.252   1.096   3.509 -0.7686 -0.3041 -0.1163
  353WAT      O 1269   2.751   0.977   2.662 -0.0599 -0.3081 -0.1897
  353WAT     H1 1270   2.824   0.956   2.604  1.8416 -1.0965  2.2804
  353WAT     H2 1271   2.715   1.058   2.627  2.2383  0.3142 -1.3445
  354WAT      O 1272   3.449   0.574   2.758  0.4896  0.0365 -0.2759
  354WAT     H1 1273   3.490   0.571   2.845  1.0848  1.6574 -0.4750
  354WAT     H2 1274   3.399   0.655   2.758 -1.2735 -1.0002 -0.7084
  355WAT      O 1275   0.699   0.038   2.068  0.2878  0.3131  0.0094
  355WAT     H1 1276   0.660  -0.012   2.140 -0.9465 -0.8774 -1.4242
  355WAT     H2 1277   0.759   0.099   2.111 -1.5402  0.7231  2.1838
  356WAT      O 1278   3.199   0.299   2.033 -0.2245  0.0724  0.3441
  356WAT     H1 1279   3.172   0.364   1.968 -2.1424  0.7455  1.7041
  356WAT     H2 1280   3.254   0.347   2.095  2.9645 -0.9187 -1.4896
  357WAT      O 1281   4.004   3.660   0.689  0.3658 -0.9630 -0.8484
  357WAT     H1 1282   4.080   3.613   0.721  1.3352 -0.2035 -1.9484
  357WAT     H2 1283   4.025   3.752   0.702 -0.6966 -0.7559 -0.4654
  358WAT      O 1284   0.885   0.226   5.065 -0.7090 -0.0482  0.4653
  358WAT     H1 1285   0.834   0.306   5.060 -1.5171 -0.5733  0.0323
  358WAT     H2 1286   0.938   0.225   4.986 -0.2822  0.3320  0.7472
  359WAT      O 1287   3.407   4.415   5.053 -0.1978 -0.1309 -0.0700
  359WAT     H1 1288   3.450   4.426   4.968  1.1704 -0.9379  0.4738
  359WAT     H2 1289   3.442   4.487   5.107 -0.3194 -0.1803  0.0752
  360WAT      O 1290   2.269   4.965   1.680 -0.7418  0.2050 -0.7788
  360WAT     H1 1291   2.334   4.986   1.613  0.0604 -0.0928 -0.1108
  360WAT     H2 1292   2.187   5.003   1.647 -0.6758 -1.1059 -2.5689
  361WAT      O 1293   2.691   4.855   3.247  0.4085 -0.3778  0.1761
  361WAT     H1 1294   2.725   4.824   3.163  0.0698 -0.6775  0.1455
  361WAT     H2 1295   2.769   4.868   3.301  0.9287  2.7067 -1.0932
  362WAT      O 1296   3.907   1.825   2.313 -0.1154  0.4134  0.1835
  362WAT     H1 1297   3.911   1.741   2.267  0.6729  0.5591 -0.0222
  362WAT     H2 1298   3.826   1.820   2.364 -0.2993 -0.2959 -0.1612
  363WAT      O 1299   0.050   0.345   4.721  0.3747 -0.1353 -0.1909
  363WAT     H1 1300  -0.027   0.303   4.682 -0.3453  0.2171  0.7802
  363WAT     H2 1301   0.124   0.292   4.692 -0.4427 -1.7329  0.5013
  364WAT      O 1302   2.910   2.697   0.950  0.0631 -0.2342 -0.2522
  364WAT     H1 1303   2.999   2.706   0.916  1.1218 -2.8544  1.4896
  364WAT     H2 1304   2.872   2.626   0.897 -0.7892  0.4373 -0.5552
  365WAT      O 1305   3.129   0.886   4.682 -0.2213 -0.1924 -0.2690
  365WAT     H1 1306   3.055   0.827   4.697  0.1662 -0.7559 -0.5051
  365WAT     H2 1307   3.110   0.963   4.736  0.6450 -1.6998  2.3858
  366WAT      O 1308   3.863   4.265   3.691 -0.5403  0.1128 -0.3625
  366WAT     H1 1309   3.768   4.250   3.688 -1.0296  2.6973 -0.2882
  366WAT     H2 1310   3.885   4.255   3.783 -0.8113 -0.1567 -0.3235
  367WAT      O 1311   3.197   0.461   2.991  0.2101  0.3649  0.2035
  367WAT     H1 1312   3.146   0.413   3.056  2.0071 -0.2273  1.2764
  367WAT     H2 1313   3.181   0.416   2.909  1.4762 -1.8952  1.1021
  368WAT      O 1314   0.282   2.597   3.709  0.0301 -0.2932  0.0462
  368WAT     H1 1315   0.346   2.541   3.665  2.3502  1.1752  1.3301
  368WAT     H2 1316   0.310   2.598   3.801 -2.4090 -0.2876  0.8589
  369WAT      O 1317   1.149   2.507   5.048 -0.0751  0.1970  0.3013
  369WAT     H1 1318   1.067   2.489   5.095  0.3783 -1.0159  0.6594
  369WAT     H2 1319   1.210   2.440   5.079  0.3139 -0.5134 -1.8247
  370WAT      O 1320   0.165   1.425   2.819  0.1471  0.2189  0.3898
  370WAT     H1 1321   0.239   1.422   2.880  1.4096 -0.9628 -1.1190
  370WAT     H2 1322   0.184   1.501   2.763 -0.3944  0.6107  0.7401
  371WAT      O 1323   1.811   0.161   4.152  0.2126 -0.1060 -0.7022
  371WAT     H1 1324   1.894   0.168   4.104 -0.0893  0.8850 -1.1043
  371WAT     H2 1325   1.763   0.240   4.128 -1.4160 -1.2758 -1.5182
  372WAT      O 1326   2.227   3.110   3.799 -0.1356  0.0210 -0.0395
  372WAT     H1 1327   2.242   3.204   3.801 -0.3401  0.0710  2.9912
  372WAT     H2 1328   2.140   3.100   3.760 -0.2367  1.0883 -0.0971
  373WAT      O 1329   4.251   0.873   3.891 -0.0300  0.6206 -0.3907
  373WAT     H1 1330   4.238   0.848   3.982  0.1629  1.7136 -0.0543
  373WAT     H2 1331   4.323   0.936   3.893 -2.2415  3.3977 -0.8044
  374WAT      O 1332   1.289   1.940   2.628 -0.8765  0.7404 -0.1480
  374WAT     H1 1333   1.218   1.908   2.684 -1.9299  0.9023 -1.3541
  374WAT     H2 1334   1.308   2.028   2.661 -0.0339  0.0688  1.2638
  375WAT      O 1335   3.457   2.130   2.059 -0.3824  0.2999  0.4814
  375WAT     H1 1336   3.467   2.038   2.085 -0.9567 -0.0347 -0.4025
  375WAT     H2 1337   3.363   2.146   2.063 -0.1732  1.2923  1.9903
  376WAT      O 1338   2.939   4.040   2.503 -0.5872 -0.0163 -0.4871
  376WAT     H1 1339   2.996   3.965   2.517  1.3291  1.7157  1.7676
  376WAT     H2 1340   2.869   4.030   2.567  0.0107  0.3853  0.2479
  377WAT      O 1341   0.219   4.072   5.211  0.4907  0.2256 -0.1136
  377WAT     H1 1342   0.229   4.089   5.305 -0.4562 -0.1597  0.0633
  377WAT     H2 1343   0.212   3.977   5.205  1.9745  0.1263 -0.7282
  378WAT      O 1344   0.167   3.797   2.325  0.0248 -0.0147 -0.0237
  378WAT     H1 1345   0.162   3.866   2.259  1.2650 -0.9922 -1.2117
  378WAT     H2 1346   0.260   3.771   2.326 -0.1728 -0.7932  1.3082
  379WAT      O 1347   1.316   0.308   4.504 -0.1342 -0.9065 -0.1912
  379WAT     H1 1348   1.351   0.385   4.460  1.5559 -0.7439  1.3401
  379WAT     H2 1349   1.226   0.300   4.470 -0.0366  1.1611 -1.0801
  380WAT      O 1350   1.187   2.684   1.508 -0.6032  0.0169  0.6111
  380WAT     H1 1351   1.189   2.764   1.560  0.9513 -0.6482  1.6342
  380WAT     H2 1352   1.243   2.702   1.433 -1.0578  0.2156  0.3148
  381WAT      O 1353   2.031   0.822   4.037 -0.1543  0.5664  0.6223
  381WAT     H1 1354   2.102   0.861   3.986 -0.3595  1.6442  1.1303
  381WAT     H2 1355   2.072   0.799   4.121  0.0509 -0.6721  0.1913
  382WAT      O 1356   3.551   0.577   2.055 -0.4042 -0.1143  0.0867
  382WAT     H1 1357   3.499   0.585   2.135  0.1704  0.4396  0.4065
  382WAT     H2 1358   3.507   0.635   1.993 -0.3020  0.1778  0.2863
  383WAT      O 1359   2.647   3.987   0.836 -0.0423 -0.1435  0.1137
  383WAT     H1 1360   2.690   3.902   0.827 -0.2480 -0.2790  0.4160
  383WAT     H2 1361   2.701   4.046   0.782  0.2811 -0.3966  0.1539
  384WAT      O 1362   1.949   3.699   4.250 -0.0547  0.3876  0.5321
  384WAT     H1 1363   1.901   3.671   4.172 -0.1824 -0.2676  0.8371
  384WAT     H2 1364   1.885   3.753   4.299 -0.4098 -0.2812  0.8175
  385WAT      O 1365   0.394   4.200   2.474  0.3572  0.1384 -0.3486
  385WAT     H1 1366   0.425   4.197   2.565  0.3343 -0.4261 -0.3545
  385WAT     H2 1367   0.469   4.171   2.423  1.2871  2.9931 -0.7795
  386WAT      O 1368   3.037   3.927   1.771 -0.3664 -0.5578  0.4306
  386WAT     H1 1369   3.095   3.878   1.829  0.2476  1.8073  1.9660
  386WAT     H2 1370   3.093   3.950   1.696  0.4784  0.8564  1.4374
  387WAT      O 1371   3.065   3.494   2.602  0.3265 -0.4107  0.3919
  387WAT     H1 1372   3.059   3.532   2.689  0.9236 -1.4070  0.8723
  387WAT     H2 1373   3.088   3.403   2.616  0.4863 -0.5764 -0.8143
  388WAT      O 1374   3.237   3.544   2.042 -0.2045  0.1225  0.2776
  388WAT     H1 1375   3.235   3.638   2.025  1.9914 -0.0176 -1.1721
  388WAT     H2 1376   3.232   3.504   1.956  0.4840 -1.0417  0.7570
  389WAT      O 1377   1.379   3.080   0.600 -0.2779  0.7670  0.5001
  389WAT     H1 1378   1.291   3.069   0.562 -0.6612 -0.4858  1.6647
  389WAT     H2 1379   1.423   3.140   0.540 -1.9696  1.5387 -0.0456
  390WAT      O 1380   1.118   4.887   3.290 -0.2446 -0.2200  0.4019
  390WAT     H1 1381   1.161   4.967   3.261  1.5564 -1.9787 -2.2029
  390WAT     H2 1382   1.163   4.863   3.371 -0.6222  1.1666  1.0606
  391WAT      O 1383   1.984   0.085   2.584  0.2946 -0.5955  0.0857
  391WAT     H1 1384   1.957   0.105   2.673  0.3523 -2.3026  0.5078
  391WAT     H2 1385   2.052   0.150   2.565 -0.8395  0.8296  0.6548
  392WAT      O 1386   0.768   0.940   3.744 -0.3064  0.2068 -0.3512
  392WAT     H1 1387   0.802   1.020   3.785  2.6438 -0.9290 -0.3539
  392WAT     H2 1388   0.822   0.929   3.666 -0.7290 -1.7327 -0.4058
  393WAT      O 1389   3.454   2.949   5.021 -0.2838 -0.3548  0.1573
  393WAT     H1 1390   3.499   2.988   5.096  0.3135  0.5136 -0.6315
  393WAT     H2 1391   3.362   2.944   5.049 -0.0592 -0.1365  0.9759
  394WAT      O 1392   2.148   2.415   3.978 -0.2975 -0.1290 -0.3984
  394WAT     H1 1393   2.174   2.403   3.887 -0.4354  0.5424 -0.5279
  394WAT     H2 1394   2.071   2.471   3.975  0.6824  1.3303  0.2010
  395WAT      O 1395   0.340   4.843   1.324  0.2825 -0.0981 -0.1160
  395WAT     H1 1396   0.256   4.800   1.337  1.4172 -2.1814  0.6678
  395WAT     H2 1397   0.376   4.803   1.245  0.3333  1.1931 -0.7863
  396WAT      O 1398   3.173   4.741   4.491 -0.4662 -0.1248  0.7678
  396WAT     H1 1399   3.195   4.767   4.580  1.1283  0.8408  0.1287
  396WAT     H2 1400   3.256   4.737   4.445 -1.3713  0.8904 -1.0706
  397WAT      O 1401   4.288   2.796   4.041  0.0928  0.5233 -0.0569
  397WAT     H1 1402   4.311   2.716   4.087  0.2940  0.6906  0.1381
  397WAT     H2 1403   4.213   2.831   4.089 -1.2201 -0.5159 -1.2527
  398WAT      O 1404   4.249   0.600   4.547 -0.5106  0.4186 -0.1652
  398WAT     H1 1405   4.245   0.592   4.642  0.3014 -1.1916 -0.2436
  398WAT     H2 1406   4.162   0.573   4.517 -1.5023  2.9142  0.1672
  399WAT      O 1407   3.382   0.141   1.579  0.4829  0.0893  0.4973
  399WAT     H1 1408   3.356   0.073   1.517  0.1664  0.1551  0.5565
  399WAT     H2 1409   3.368   0.223   1.532 -1.5956  0.2568  1.2751
  400WAT      O 1410   3.049   4.806   3.969 -0.0404  0.5233 -0.3124
  400WAT     H1 1411   3.086   4.766   3.891 -0.9347 -0.6277 -0.1818
  400WAT     H2 1412   2.978   4.861   3.937 -1.0033 -0.6566 -0.2835
  401WAT      O 1413   2.045   4.412   4.635 -0.2455 -0.2667 -0.2155
  401WAT     H1 1414   1.984   4.482   4.661 -1.2808 -1.1540 -0.1492
  401WAT     H2 1415   2.131   4.453   4.638 -0.9828  1.6680 -2.4395
  402WAT      O 1416   2.776   4.533   0.080 -0.0953  0.6676  0.0570
  402WAT     H1 1417   2.844   4.533   0.148 -0.9911  0.2529  0.9886
  402WAT     H2 1418   2.808   4.473   0.014  0.2035  0.0484  0.7528
  403WAT      O 1419   2.374   1.753   2.087 -0.1191 -0.0563  0.2311
  403WAT     H1 1420   2.322   1.832   2.100  0.8120  0.8396 -1.2121
  403WAT     H2 1421   2.379   1.713   2.174 -0.7948  1.3501  0.9470
  404WAT      O 1422   2.498   0.003   1.652  0.2535 -0.2214 -0.0272
  404WAT     H1 1423   2.532   0.015   1.741  2.2601 -0.0138 -0.7718
  404WAT     H2 1424   2.441   0.079   1.638  1.2271  0.6319  0.5090
  405WAT      O 1425   2.398   3.730   5.076  0.1054  0.3411  0.0229
  405WAT     H1 1426   2.404   3.749   5.169  1.4851  0.2675 -0.0341
  405WAT     H2 1427   2.307   3.748   5.054 -0.4306 -0.3538  1.5310
  406WAT      O 1428   4.281   3.843   0.395 -0.6004  0.1019 -0.4730
  406WAT     H1 1429   4.309   3.820   0.306  0.2592  0.1203 -0.2242
  406WAT     H2 1430   4.186   3.834   0.394 -0.4189 -2.7146 -0.6049
  407WAT      O 1431   2.198   4.088   0.508 -0.0275 -0.3629  0.0707
  407WAT     H1 1432   2.125   4.150   0.502  1.2762  1.4573  1.7955
  407WAT     H2 1433   2.223   4.089   0.600  2.2149 -0.8823 -0.4658
  408WAT      O 1434   3.429   0.909   4.974  0.8516  0.7638  0.0447
  408WAT     H1 1435   3.506   0.946   4.930  0.3704 -1.2842 -2.8212
  408WAT     H2 1436   3.356   0.966   4.947  1.1019  1.9283  1.6874
  409WAT      O 1437   0.765   4.006   4.897 -1.2604 -0.6336 -0.0310
  409WAT     H1 1438   0.705   4.078   4.878 -0.8059  0.0580  1.0612
  409WAT     H2 1439   0.838   4.047   4.942 -0.6348 -1.6798 -0.0622
  410WAT      O 1440   3.858   1.894   1.304  0.0442  0.1712  0.3659
  410WAT     H1 1441   3.894   1.961   1.245 -1.2836  0.1308 -0.5303
  410WAT     H2 1442   3.854   1.815   1.250  1.4607 -0.6437  1.3704
  411WAT      O 1443   2.874   4.989   4.793 -0.2035 -0.4779  0.6026
  411WAT     H1 1444   2.917   4.904   4.796 -0.4955 -0.6493  0.0049
  411WAT     H2 1445   2.913   5.034   4.718  1.7977  0.9405  2.3452
  412WAT      O 1446   3.065   4.788   2.012 -0.6641 -0.1053 -0.2514
  412WAT     H1 1447   2.973   4.792   2.039 -0.5247  0.0236  0.2153
  412WAT     H2 1448   3.073   4.858   1.947 -1.1206 -0.7425 -1.0133
  413WAT      O 1449   1.691   4.236   3.039 -0.6874  0.0217  0.0462
  413WAT     H1 1450   1.636   4.184   3.098 -0.4834 -0.1957  0.0460
  413WAT     H2 1451   1.628   4.278   2.979 -1.2258  2.9532  2.4362
  414WAT      O 1452   1.355   2.586   3.383  0.5931 -0.0296 -0.0314
  414WAT     H1 1453   1.350   2.594   3.479 -0.6564 -0.3810 -0.0536
  414WAT     H2 1454   1.333   2.495   3.366  1.9002 -0.2568 -0.6046
  415WAT      O 1455   4.144   4.139   0.270 -0.0355  0.0561  0.6060
  415WAT     H1 1456   4.126   4.177   0.356  0.7501 -0.0303  0.8216
  415WAT     H2 1457   4.106   4.052   0.273  0.0058  0.0476  0.8771
  416WAT      O 1458   2.263   1.708   1.428  0.0122  0.0493 -0.2118
  416WAT     H1 1459   2.251   1.686   1.520  0.4354 -1.7383 -0.5396
  416WAT     H2 1460   2.278   1.803   1.427  2.4504 -0.1945  1.8367
  417WAT      O 1461   1.467   1.338   3.701  0.1206 -0.3953 -0.0600
  417WAT     H1 1462   1.445   1.293   3.783  0.5801  0.6993  0.6918
  417WAT     H2 1463   1.418   1.420   3.704  3.0478  1.4807  1.0303
  418WAT      O 1464   1.517   3.871   3.842  0.1355 -0.0386 -0.0222
  418WAT     H1 1465   1.430   3.907   3.825  0.0670  0.1943  0.7874
  418WAT     H2 1466   1.532   3.888   3.935  0.0547 -2.2408  0.4380
  419WAT      O 1467   1.262   1.963   0.339 -0.1243  0.5211 -0.7041
  419WAT     H1 1468   1.278   1.925   0.253  0.5059 -0.0656 -0.3350
  419WAT     H2 1469   1.286   2.055   0.330 -1.1984  0.7489 -1.4748
  420WAT      O 1470   3.759   1.847   0.769 -0.3374 -0.0946  0.4852
  420WAT     H1 1471   3.746   1.902   0.692 -1.9909 -0.2251  0.6434
  420WAT     H2 1472   3.787   1.763   0.735 -1.5822 -0.3186 -0.0432
  421WAT      O 1473   1.106   3.120   1.300 -0.1912 -0.3954 -0.4936
  421WAT     H1 1474   1.162   3.154   1.230  1.2773  1.9682  1.6728
  421WAT     H2 1475   1.019   3.153   1.278  0.5985  2.0430 -0.2764
  422WAT      O 1476   0.933   4.672   2.632 -0.4489 -0.4750 -0.3920
  422WAT     H1 1477   0.934   4.663   2.537 -1.2026 -1.3224 -0.3280
  422WAT     H2 1478   0.844   4.698   2.653 -0.4800 -1.0123  0.1454
  423WAT      O 1479   3.145   2.023   2.833  0.2195 -0.7149  1.0170
  423WAT     H1 1480   3.206   1.960   2.794 -0.2320 -1.0844  0.8999
  423WAT     H2 1481   3.125   2.085   2.763 -0.2411 -1.1189  0.7859
  424WAT      O 1482   0.166   0.445   4.220  0.6514 -0.4102  0.3856
  424WAT     H1 1483   0.224   0.384   4.174  0.2356 -0.4687 -0.0682
  424WAT     H2 1484   0.104   0.388   4.266  0.6643 -0.3416  0.4867
  425WAT      O 1485   4.409   3.845   4.416  0.1821  0.5113 -0.0240
  425WAT     H1 1486   4.490   3.806   4.383  0.1236 -0.1761  0.6265
  425WAT     H2 1487   4.400   3.926   4.366 -0.4763 -0.9828 -2.5107
  426WAT      O 1488   2.484   1.741   0.466 -0.2665  0.4065  0.2131
  426WAT     H1 1489   2.507   1.733   0.374  0.7042 -0.0596  0.4873
  426WAT     H2 1490   2.452   1.655   0.491  0.5297  0.2090  0.5854
  427WAT      O 1491   0.336   0.925   3.136 -0.3579  0.2092  0.5245
  427WAT     H1 1492   0.385   0.984   3.194 -0.5895  0.8698  0.0531
  427WAT     H2 1493   0.401   0.894   3.073 -0.1391 -0.3910  1.0379
  428WAT      O 1494   2.081   1.157   0.996  0.3243  0.5355  0.4420
  428WAT     H1 1495   2.079   1.209   1.076 -0.4560  0.3925  0.5260
  428WAT     H2 1496   2.148   1.090   1.012  0.0617  0.4115  1.0347
  429WAT      O 1497   0.665   3.581   5.272  0.2649  0.8016  0.2157
  429WAT     H1 1498   0.575   3.603   5.247  0.0650 -0.5451 -0.3446
  429WAT     H2 1499   0.719   3.622   5.204  0.0539  1.2012  0.2823
  430WAT      O 1500   1.701   4.080   1.394 -0.1142  0.1953  0.3744
  430WAT     H1 1501   1.770   4.072   1.461  1.0512  0.8526 -0.6927
  430WAT     H2 1502   1.737   4.143   1.331 -2.5186  2.0898  0.7613
  431WAT      O 1503   3.829   4.511   2.154  0.4566 -0.6072 -0.3824
  431WAT     H1 1504   3.772   4.471   2.089  0.2843 -0.7948 -0.1189
  431WAT     H2 1505   3.826   4.604   2.134 -2.2316 -0.1917  1.3377
  432WAT      O 1506   3.445   3.462   0.252  0.3144 -0.2471  0.5753
  432WAT     H1 1507   3.419   3.518   0.180  1.1589 -2.4600 -1.5815
  432WAT     H2 1508   3.366   3.415   0.276  0.1872  0.0079  0.6626
  433WAT      O 1509   2.181   3.727   1.843  0.4709  0.5714  0.1098
  433WAT     H1 1510   2.208   3.642   1.809 -0.5668 -0.0433  0.7728
  433WAT     H2 1511   2.243   3.745   1.914 -0.7910 -0.8578  1.6607
  434WAT      O 1512   0.589   2.818   4.609 -0.7710  0.0287 -0.0406
  434WAT     H1 1513   0.572   2.834   4.516  1.4170 -0.1376 -0.5207
  434WAT     H2 1514   0.682   2.796   4.613  0.4222  4.3480  2.6742
  435WAT      O 1515   1.654   3.801   3.464 -0.8608  0.3379 -0.0698
  435WAT     H1 1516   1.744   3.835   3.470 -1.4279  2.0041 -0.3153
  435WAT     H2 1517   1.599   3.880   3.465 -2.2177 -0.4843 -2.0490
  436WAT      O 1518   2.153   0.289   2.927 -0.0280 -0.3855  0.3637
  436WAT     H1 1519   2.155   0.374   2.884 -0.8604 -0.5664 -0.0610
  436WAT     H2 1520   2.218   0.237   2.879  0.5273  0.0147  0.6653
  437WAT      O 1521   2.979   2.049   0.562  0.4281 -0.3176  0.0091
  437WAT     H1 1522   3.060   2.029   0.515 -0.5689 -0.1893 -1.8535
  437WAT     H2 1523   2.950   1.966   0.598  1.4098 -0.3513  0.7417
  438WAT      O 1524   2.607   4.500   4.557 -0.4367  0.0185 -0.3457
  438WAT     H1 1525   2.688   4.466   4.595 -0.6946  0.8009  0.9390
  438WAT     H2 1526   2.626   4.506   4.463 -0.2259 -3.1951 -0.6378
  439WAT      O 1527   1.247   2.245   0.561  0.1781 -0.4837 -0.1599
  439WAT     H1 1528   1.269   2.243   0.468  0.3901  0.5917 -0.1518
  439WAT     H2 1529   1.321   2.204   0.605  0.8465  0.4749 -0.3549
  440WAT      O 1530   0.611   4.943   2.923 -0.5884 -0.1638  0.1664
  440WAT     H1 1531   0.528   4.982   2.895 -0.6743 -0.2939  0.2366
  440WAT     H2 1532   0.607   4.945   3.019 -0.7833 -0.7373  0.1738
  441WAT      O 1533   1.816   3.164   0.437  0.2041  0.1033 -0.4151
  441WAT     H1 1534   1.800   3.179   0.344 -2.1252 -0.6158 -0.1970
  441WAT     H2 1535   1.770   3.235   0.481 -1.5044 -1.3244  0.2326
  442WAT      O 1536   1.239   3.044   4.484 -0.3317 -0.3557 -0.4249
  442WAT     H1 1537   1.331   3.070   4.490 -0.8408  1.4953  0.1703
  442WAT     H2 1538   1.226   2.987   4.560 -0.0525  0.7043  0.4435
  443WAT      O 1539   0.314   2.478   4.483 -0.2778  0.3962  0.0725
  443WAT     H1 1540   0.334   2.554   4.429  0.2336 -0.5867 -1.1743
  443WAT     H2 1541   0.399   2.436   4.497 -0.6323 -0.2796  0.2096
  444WAT      O 1542   4.216   1.052   1.428  0.0547 -0.0600  0.2788
  444WAT     H1 1543   4.143   1.085   1.375  0.3433  0.6096  0.2916
  444WAT     H2 1544   4.247   1.128   1.476  0.9820 -0.2592  0.0166
  445WAT      O 1545   2.228   1.037   1.450 -0.1210 -0.1624  0.0030
  445WAT     H1 1546   2.142   1.072   1.426  0.1073 -0.2324 -0.9340
  445WAT     H2 1547   2.258   1.094   1.521 -0.9774 -0.1946  0.4039
  446WAT      O 1548   3.426   4.993   2.704 -0.1403 -0.3531  0.0676
  446WAT     H1 1549   3.451   5.071   2.655 -0.6924 -1.4463 -2.0914
  446WAT     H2 1550   3.498   4.980   2.767  0.2497  1.5086  0.0564
  447WAT      O 1551   0.079   2.562   4.312  0.8053  0.0101 -0.4764
  447WAT     H1 1552   0.079   2.642   4.259  0.9531  0.3685  0.0626
  447WAT     H2 1553   0.144   2.578   4.380 -0.3102  0.0768  0.5998
  448WAT      O 1554   0.125   2.084   1.583  0.1249  0.1919 -0.0869
  448WAT     H1 1555   0.188   2.156   1.589 -0.8791  1.5297 -3.5589
  448WAT     H2 1556   0.040   2.126   1.595 -0.3565 -0.9927  0.8666
  449WAT      O 1557   2.752   2.135   2.677  0.5740 -0.3671 -0.2966
  449WAT     H1 1558   2.770   2.193   2.603  1.7504 -0.3572 -0.0219
  449WAT     H2 1559   2.801   2.055   2.658  0.9389 -0.3394  0.5007
  450WAT      O 1560   3.901   3.667   1.219  0.4464  0.6070  0.4081
  450WAT     H1 1561   3.882   3.576   1.242 -1.3055  0.5925 -0.8725
  450WAT     H2 1562   3.950   3.661   1.137  0.3786  0.8033  0.3534
  451WAT      O 1563   1.878   3.529   2.193  0.2465 -0.3175  0.0505
  451WAT     H1 1564   1.934   3.515   2.270  1.0312  1.0671 -0.2466
  451WAT     H2 1565   1.931   3.581   2.133 -0.8595 -0.1971 -0.8646
  452WAT      O 1566   0.087   1.252   3.939 -0.8471  0.1532  0.4915
  452WAT     H1 1567   0.176   1.218   3.947 -0.9778  0.1615  2.4414
  452WAT     H2 1568   0.084   1.327   3.999 -2.0763  0.3677  0.1938
  453WAT      O 1569   3.453   3.689   5.037 -0.2465  0.4108 -0.0843
  453WAT     H1 1570   3.504   3.647   5.106  1.2864  0.5634 -1.0965
  453WAT     H2 1571   3.392   3.746   5.084  0.9540  0.7329  1.1348
  454WAT      O 1572   2.444   2.968   3.681 -0.1198 -0.4885  0.2291
  454WAT     H1 1573   2.412   2.968   3.591 -0.0210 -0.5571  0.1937
  454WAT     H2 1574   2.379   3.019   3.729  0.5818  0.8013 -0.1450
  455WAT      O 1575   0.307   0.680   2.624 -0.5765 -0.5889  1.1836
  455WAT     H1 1576   0.217   0.653   2.604 -0.3391 -1.8777  1.7357
  455WAT     H2 1577   0.297   0.753   2.685 -1.2472  0.2193  0.1462
  456WAT      O 1578   1.920   2.021   2.314  0.0908  0.1134 -0.2141
  456WAT     H1 1579   1.978   2.083   2.269 -1.1523  0.7911 -0.9418
  456WAT     H2 1580   1.884   2.071   2.386  1.7346 -0.8447  1.3602
  457WAT      O 1581   3.631   3.308   0.340  0.3114  0.5720 -0.1548
  457WAT     H1 1582   3.564   3.359   0.295  1.0016 -0.6140 -2.6467
  457WAT     H2 1583   3.708   3.314   0.285  0.2737 -3.6115 -1.0183
  458WAT      O 1584   3.029   3.657   1.689  0.7073  0.1633  0.2802
  458WAT     H1 1585   3.002   3.706   1.766  2.4650  0.0997  0.9806
  458WAT     H2 1586   2.982   3.698   1.616 -0.2003  0.8718  1.2465
  459WAT      O 1587   4.404   3.759   4.872  0.2087 -0.5975  0.1568
  459WAT     H1 1588   4.406   3.851   4.844 -1.5046 -1.3397 -2.9715
  459WAT     H2 1589   4.433   3.711   4.794  0.1977 -2.7551  1.4251
  460WAT      O 1590   2.360   1.979   2.795  0.6882  0.4002 -0.2442
  460WAT     H1 1591   2.397   2.020   2.717  1.6523  1.2146  0.5981
  460WAT     H2 1592   2.436   1.943   2.841 -0.0249 -1.4621 -0.4272
  461WAT      O 1593   1.601   3.349   1.274 -0.5533 -0.7373  0.2863
  461WAT     H1 1594   1.615   3.441   1.249 -1.8104 -0.4812  0.4516
  461WAT     H2 1595   1.681   3.326   1.323 -0.2040  0.2587  0.2287
  462WAT      O 1596   1.019   3.724   3.330 -0.0215  0.5658 -0.0912
  462WAT     H1 1597   1.001   3.663   3.402 -0.0066 -0.4826 -0.9441
  462WAT     H2 1598   0.983   3.680   3.252  0.7694  1.2518 -0.8685
  463WAT      O 1599   2.051   3.274   1.788  0.2966 -0.5580  0.0212
  463WAT     H1 1600   2.118   3.230   1.840  2.1581  0.2656 -1.5532
  463WAT     H2 1601   1.968   3.246   1.827  1.5381 -0.4311  3.0271
  464WAT      O 1602   2.413   3.950   2.303  0.1538 -0.3898  0.5516
  464WAT     H1 1603   2.386   3.979   2.391 -2.4118 -0.0754 -0.2588
  464WAT     H2 1604   2.420   4.031   2.253 -1.2127 -0.7329 -0.2298
  465WAT      O 1605   2.921   3.991   4.761 -0.0302 -0.2161  0.1119
  465WAT     H1 1606   2.841   4.033   4.792  0.3524 -0.3025  1.2859
  465WAT     H2 1607   2.896   3.901   4.741  0.2981 -1.1657  3.3741
  466WAT      O 1608   3.585   0.922   0.906 -0.1621 -0.6314 -0.1629
  466WAT     H1 1609   3.592   0.826   0.899 -0.1532 -0.5740 -1.0317
  466WAT     H2 1610   3.559   0.950   0.819 -0.9510  0.0949  0.2978
  467WAT      O 1611   0.919   1.244   1.542 -0.2857  0.3744  0.4209
  467WAT     H1 1612   0.957   1.162   1.513  0.0688  0.8603 -0.5184
  467WAT     H2 1613   0.827   1.223   1.559  0.0200 -0.4271  1.1324
  468WAT      O 1614   3.497   0.845   2.498  0.4993  0.3596  0.2831
  468WAT     H1 1615   3.560   0.910   2.466  0.0102  0.8076  0.2285
  468WAT     H2 1616   3.476   0.792   2.420  0.7624  0.2370  0.2911
  469WAT      O 1617   0.963   3.936   4.253 -0.0840  0.1011  0.0426
  469WAT     H1 1618   0.989   3.895   4.170 -0.2635  1.7879 -0.9078
  469WAT     H2 1619   1.016   4.016   4.257 -0.4800  0.3126  1.3000
  470WAT      O 1620   2.534   3.492   5.108  0.1885  0.4152 -0.2541
  470WAT     H1 1621   2.498   3.443   5.034  1.6817  0.4604 -1.0400
  470WAT     H2 1622   2.479   3.570   5.114  0.6153  0.8875 -1.9497
  471WAT      O 1623   4.255   4.459   4.934  0.0958  0.2621  0.1408
  471WAT     H1 1624   4.334   4.469   4.881  0.8028  2.4838  1.4549
  471WAT     H2 1625   4.287   4.435   5.021 -0.7847 -0.2419  0.3315
  472WAT      O 1626   1.435   0.046   2.116 -0.2678  1.0292  0.5045
  472WAT     H1 1627   1.357   0.009   2.075  0.6084 -0.1036 -0.2240
  472WAT     H2 1628   1.447   0.131   2.072 -0.6037  0.8242  0.0025
  473WAT      O 1629   1.867   1.520   0.155  0.8579  0.4006  0.0665
  473WAT     H1 1630   1.844   1.578   0.083  0.2886  0.8109  0.5742
  473WAT     H2 1631   1.832   1.563   0.233 -0.3515 -1.0181  0.3611
  474WAT      O 1632   1.322   3.400   0.669 -0.1444  0.3810 -0.0871
  474WAT     H1 1633   1.364   3.376   0.587 -1.0161  1.1788 -0.8004
  474WAT     H2 1634   1.382   3.463   0.709  0.3540 -0.1236 -0.0334
  475WAT      O 1635   2.939   0.597   1.398 -1.2358 -0.1098 -0.6000
  475WAT     H1 1636   2.968   0.513   1.433 -0.9537  0.3237  0.2492
  475WAT     H2 1637   2.993   0.611   1.320  0.6267  0.4956  0.7257
  476WAT      O 1638   0.856   1.225   0.184  0.5946 -0.2207 -0.0793
  476WAT     H1 1639   0.929   1.283   0.205 -0.3809  1.1254 -0.2670
  476WAT     H2 1640   0.822   1.198   0.269  0.9828 -0.4378  0.0107
  477WAT      O 1641   3.910   2.036   4.356 -0.0039 -0.6914 -0.3914
  477WAT     H1 1642   3.910   1.952   4.310  2.3096 -2.0054  1.7564
  477WAT     H2 1643   3.929   2.014   4.447  0.4957  2.1660  0.3090
  478WAT      O 1644   1.209   3.918   4.062  0.0692 -0.4678 -0.1939
  478WAT     H1 1645   1.213   3.837   4.113  1.8578  0.2809  0.9358
  478WAT     H2 1646   1.267   3.903   3.987  1.9530  0.3751  1.0255
  479WAT      O 1647   4.465   4.848   4.246  0.3250  0.0056  0.5013
  479WAT     H1 1648   4.454   4.775   4.306 -0.5934  0.1296  0.5019
  479WAT     H2 1649   4.484   4.808   4.162 -0.2822 -0.2477  0.4793
  480WAT      O 1650   1.118   1.075   3.733 -0.6689 -0.5553 -0.1548
  480WAT     H1 1651   1.186   1.132   3.698 -1.0122 -0.3418 -0.4865
  480WAT     H2 1652   1.153   1.044   3.817  0.1153 -0.9768 -0.6243
  481WAT      O 1653   0.130   4.255   5.038  0.0560 -0.0814 -0.4915
  481WAT     H1 1654   0.162   4.190   5.101 -0.1324 -1.8604 -2.1072
  481WAT     H2 1655   0.192   4.327   5.043 -0.0257 -0.1196  1.7796
  482WAT      O 1656   1.896   4.102   4.667 -1.0429  0.2402  0.2082
  482WAT     H1 1657   1.905   4.031   4.730 -2.0764 -1.1921 -1.1597
  482WAT     H2 1658   1.876   4.179   4.720  1.4640 -0.1332  1.8384
  483WAT      O 1659   1.647   1.230   2.435  0.3390 -0.3106 -0.5381
  483WAT     H1 1660   1.586   1.275   2.377 -0.2989  1.3328  1.2641
  483WAT     H2 1661   1.596   1.212   2.514  1.9091  0.2420  0.6557
  484WAT      O 1662   1.434   3.875   2.790 -0.1844  0.2001 -0.4482
  484WAT     H1 1663   1.444   3.927   2.870  0.7975  0.2010 -0.5520
  484WAT     H2 1664   1.483   3.795   2.807 -1.7038 -0.7291 -0.2812
  485WAT      O 1665   0.367   5.063   1.916 -0.1687 -0.1896  1.2349
  485WAT     H1 1666   0.336   5.108   1.837 -1.1233 -1.5881  0.7502
  485WAT     H2 1667   0.439   5.009   1.886 -0.7780 -1.0145  1.2142
  486WAT      O 1668   2.871   0.808   2.183 -0.2177  0.0583  0.6230
  486WAT     H1 1669   2.950   0.772   2.223 -0.2732 -0.2110  0.4877
  486WAT     H2 1670   2.808   0.737   2.185  0.5668 -0.8653 -2.3070
  487WAT      O 1671   1.465   1.884   1.076 -0.1639  0.5305  0.1251
  487WAT     H1 1672   1.408   1.960   1.087 -0.9436 -0.2383  1.6410
  487WAT     H2 1673   1.476   1.876   0.981 -0.8374  1.9577 -0.0994
  488WAT      O 1674   3.056   2.151   1.214 -0.1444  0.1085 -0.7808
  488WAT     H1 1675   2.977   2.102   1.189 -1.1671  1.2589  0.0844
  488WAT     H2 1676   3.025   2.216   1.277  1.4712  0.7492 -0.6023
  489WAT      O 1677   3.499   2.598   1.562  0.1789 -0.0729 -0.3818
  489WAT     H1 1678   3.564   2.647   1.612 -1.9158  0.5488  1.9478
  489WAT     H2 1679   3.544   2.519   1.534  2.1471  0.6926  0.4587
  490WAT      O 1680   1.813   1.014   4.355 -0.2038  0.1331  0.1846
  490WAT     H1 1681   1.799   0.989   4.264  0.7311  0.4466 -0.0603
  490WAT     H2 1682   1.783   0.938   4.405  1.4464 -1.0578 -0.4923
  491WAT      O 1683   3.957   2.464   1.373  0.0273  0.3346  0.2996
  491WAT     H1 1684   3.986   2.474   1.282 -0.5729 -0.8603 -0.0466
  491WAT     H2 1685   3.970   2.371   1.392  0.3543  0.6133  1.5276
  492WAT      O 1686   2.892   4.089   1.534 -0.4691  0.3878  0.0789
  492WAT     H1 1687   2.985   4.086   1.557 -0.8103 -0.4351  1.4321
  492WAT     H2 1688   2.891   4.079   1.439  0.9062  2.1487 -0.1871
  493WAT      O 1689   2.204   2.054   3.846 -0.3141  0.1201  0.3841
  493WAT     H1 1690   2.263   2.059   3.922  1.0284 -2.2201 -0.3983
  493WAT     H2 1691   2.250   2.102   3.777 -0.3987  0.1827  0.3703
  494WAT      O 1692   4.143   0.911   5.007  0.4826 -0.1671 -0.0619
  494WAT     H1 1693   4.177   0.980   5.063 -0.2319  0.2313 -0.1068
  494WAT     H2 1694   4.069   0.875   5.056  0.7712 -0.8209 -0.0939
  495WAT      O 1695   1.262   3.457   3.501 -0.1263  0.2046 -0.2953
  495WAT     H1 1696   1.193   3.520   3.522  0.4946  1.0288 -0.6790
  495WAT     H2 1697   1.340   3.510   3.488  0.2948 -0.5961 -1.1627
  496WAT      O 1698   1.207   1.871   4.387  0.1588  0.0850 -0.7957
  496WAT     H1 1699   1.214   1.838   4.298  0.4945 -1.5958 -0.1724
  496WAT     H2 1700   1.136   1.820   4.426  0.3950  0.3939  0.0632
  497WAT      O 1701   2.165   4.481   3.074  0.0745  0.0572 -0.5656
  497WAT     H1 1702   2.123   4.472   3.159  1.1127 -1.0104 -0.1536
  497WAT     H2 1703   2.154   4.574   3.052 -0.4824  0.2754  0.5667
  498WAT      O 1704   0.866   0.442   3.908 -0.2152  0.1548 -0.7016
  498WAT     H1 1705   0.925   0.491   3.965 -0.3053 -1.0924  0.5452
  498WAT     H2 1706   0.890   0.350   3.922 -1.1810 -0.2627 -1.6273
  499WAT      O 1707   1.214   0.899   1.397  0.2408 -0.5603  0.1502
  499WAT     H1 1708   1.283   0.954   1.432  0.5190 -0.6413 -0.2614
  499WAT     H2 1709   1.255   0.814   1.382  0.5449 -0.1125 -1.7818
  500WAT      O 1710   0.732   0.699   3.842 -0.6559  0.2158  0.2249
  500WAT     H1 1711   0.735   0.789   3.810 -0.0301 -0.2028 -0.9376
  500WAT     H2 1712   0.813   0.659   3.811 -0.4853 -0.5029  1.5201
  501WAT      O 1713   0.514   3.246   1.000 -0.2830  0.5967  0.1625
  501WAT     H1 1714   0.478   3.179   1.058 -0.3113  1.0324  0.6547
  501WAT     H2 1715   0.443   3.267   0.940 -0.3984  0.4695  0.2546
  502WAT      O 1716   3.141   0.146   0.105  0.2886 -0.0532 -0.1817
  502WAT     H1 1717   3.072   0.080   0.107  0.2897 -0.0432  0.5973
  502WAT     H2 1718   3.222   0.097   0.117  0.7392 -0.3960 -3.6705
  503WAT      O 1719   2.786   0.778   3.342 -0.1792 -0.0282  0.7550
  503WAT     H1 1720   2.696   0.764   3.313  0.5037  0.2601 -1.7100
  503WAT     H2 1721   2.833   0.699   3.317  0.1139 -0.5829  2.8854
  504WAT      O 1722   1.246   3.033   4.089  0.2205 -0.4272 -0.1332
  504WAT     H1 1723   1.188   3.053   4.015 -0.4959  0.7082  0.7082
  504WAT     H2 1724   1.218   3.093   4.158  3.0966  0.9096 -0.0253
  505WAT      O 1725   1.830   0.669   5.026  0.0035 -0.2798  0.4301
  505WAT     H1 1726   1.898   0.611   5.061 -0.0031  0.3806  1.5993
  505WAT     H2 1727   1.872   0.712   4.951  1.0132  0.3863  1.3485
  506WAT      O 1728   2.596   4.194   2.497 -0.5126  0.3247  0.2899
  506WAT     H1 1729   2.518   4.140   2.507  0.2594 -0.8773  0.0143
  506WAT     H2 1730   2.631   4.201   2.586 -0.9760  0.9637  0.4330
  507WAT      O 1731   2.268   2.589   0.616 -0.2444  0.4155 -0.2107
  507WAT     H1 1732   2.220   2.555   0.691 -1.3277 -1.1340 -1.5362
  507WAT     H2 1733   2.205   2.644   0.570 -0.3523 -0.4587 -1.1674
  508WAT      O 1734   3.617   1.877   2.121  0.0634  0.0332  0.2289
  508WAT     H1 1735   3.704   1.849   2.152  0.2363  0.0647 -0.2253
  508WAT     H2 1736   3.584   1.801   2.073 -0.3991 -0.1822  0.8697
  509WAT      O 1737   3.871   4.361   1.752  0.0982 -0.1424 -0.5444
  509WAT     H1 1738   3.855   4.454   1.771 -2.0634 -0.9970  2.7211
  509WAT     H2 1739   3.789   4.331   1.713 -0.0896 -1.0711  0.5004
  510WAT      O 1740   4.363   1.189   0.496 -0.2057  0.0218 -0.2241
  510WAT     H1 1741   4.304   1.246   0.447  1.3547  1.3466 -0.6346
  510WAT     H2 1742   4.358   1.105   0.449 -1.0353  0.3768 -0.8051
  511WAT      O 1743   0.700   0.707   4.123  0.2760 -0.2114  0.5473
  511WAT     H1 1744   0.706   0.709   4.028  1.6514  0.6383  0.6343
  511WAT     H2 1745   0.710   0.615   4.146 -1.1334 -0.5692 -0.1673
  512WAT      O 1746   1.734   1.571   5.009  0.4645  0.4622 -0.5740
  512WAT     H1 1747   1.651   1.585   4.963  1.5722  0.4736 -2.7307
  512WAT     H2 1748   1.742   1.476   5.014  0.4878  0.4560 -0.7132
  513WAT      O 1749   2.226   3.533   4.815  0.6632 -0.0067 -0.4733
  513WAT     H1 1750   2.137   3.500   4.810 -0.8570  3.3102  1.3164
  513WAT     H2 1751   2.271   3.473   4.874 -0.6118 -1.2761 -0.7549
  514WAT      O 1752   1.291   2.840   1.938  0.2982  0.3340  0.3599
  514WAT     H1 1753   1.378   2.874   1.956  0.7334 -0.8155  0.5084
  514WAT     H2 1754   1.285   2.837   1.842 -1.1450  4.2397  0.1541
  515WAT      O 1755   4.070   4.666   0.338 -0.2360  0.2099 -0.3122
  515WAT     H1 1756   4.048   4.742   0.284 -0.1323  0.2475 -0.3031
  515WAT     H2 1757   4.125   4.702   0.408  0.1133  0.0726 -0.5107
  516WAT      O 1758   3.356   3.610   2.306  0.3391  0.5109  0.3729
  516WAT     H1 1759   3.263   3.588   2.314  0.0195  2.3471  2.5311
  516WAT     H2 1760   3.401   3.539   2.352 -0.0038 -0.0417 -0.1208
  517WAT      O 1761   2.718   1.927   0.503 -0.2903  0.2988  0.1628
  517WAT     H1 1762   2.775   1.854   0.481  0.5738  1.3005 -1.0822
  517WAT     H2 1763   2.630   1.894   0.488  0.1061 -0.3707 -0.7795
  518WAT      O 1764   3.926   4.544   4.242  0.1774 -0.0730  0.6828
  518WAT     H1 1765   3.851   4.579   4.193 -0.4975 -2.3893 -0.0886
  518WAT     H2 1766   3.918   4.583   4.329 -0.2057  1.9915 -0.2288
  519WAT      O 1767   2.051   2.199   2.169  0.3425 -0.2327 -0.0638
  519WAT     H1 1768   2.099   2.269   2.212  0.3941 -0.5217  0.3609
  519WAT     H2 1769   2.002   2.242   2.100  3.1782 -0.2253 -2.2551
  520WAT      O 1770   2.528   2.730   2.022 -0.1774 -0.4803 -0.0270
  520WAT     H1 1771   2.606   2.677   2.009 -0.3209 -0.9215  0.8481
  520WAT     H2 1772   2.465   2.671   2.062 -0.0827  0.5308  1.7125
  521WAT      O 1773   1.766   0.610   3.658 -0.2302 -0.3307 -0.1053
  521WAT     H1 1774   1.683   0.563   3.669 -1.1419  0.6722 -2.2428
  521WAT     H2 1775   1.748   0.699   3.687  0.3426 -0.3001  0.1772
  522WAT      O 1776   0.527   4.149   1.727 -0.2679  0.4375 -0.1933
  522WAT     H1 1777   0.452   4.187   1.682  0.7843  1.4687 -1.1591
  522WAT     H2 1778   0.491   4.077   1.778 -2.1930  2.0479  0.8622
  523WAT      O 1779   4.396   4.443   1.223 -0.0478  0.3758  0.3679
  523WAT     H1 1780   4.368   4.521   1.271  1.0702  0.5241  0.8154
  523WAT     H2 1781   4.315   4.399   1.199 -0.8315  2.7275 -1.7197
  524WAT      O 1782   0.871   0.799   1.979  0.4076  0.3102  0.0854
  524WAT     H1 1783   0.822   0.762   1.906  1.5003 -0.4835 -0.2655
  524WAT     H2 1784   0.868   0.894   1.964 -0.5467  0.2426 -0.2144
  525WAT      O 1785   0.377   3.177   0.555 -0.4797 -0.4884  0.3527
  525WAT     H1 1786   0.393   3.265   0.520 -0.7595 -1.4453 -2.4158
  525WAT     H2 1787   0.464   3.145   0.578 -0.0766 -0.2910 -0.8065
  526WAT      O 1788   1.395   2.281   4.307 -0.6016 -0.3114 -0.7099
  526WAT     H1 1789   1.480   2.322   4.323 -0.0169 -2.0085  0.9111
  526WAT     H2 1790   1.398   2.255   4.215  0.6345 -0.3227 -0.6822
  527WAT      O 1791   2.301   1.994   0.119 -0.1440 -0.0412  0.2308
  527WAT     H1 1792   2.376   1.940   0.095  0.7438  0.4395  1.7771
  527WAT     H2 1793   2.339   2.078   0.146 -1.3490  0.6970 -0.2844
  528WAT      O 1794   3.920   4.677   0.984  0.4551 -0.1137 -0.3440
  528WAT     H1 1795   3.940   4.707   0.895  1.3290  1.5332  0.3618
  528WAT     H2 1796   3.991   4.712   1.038  0.2554 -1.5633  0.9402
  529WAT      O 1797   0.154   3.707   0.751 -0.3518  0.1906 -0.1089
  529WAT     H1 1798   0.089   3.743   0.690  0.6245 -0.6278 -1.7113
  529WAT     H2 1799   0.233   3.759   0.735  0.1717 -0.6167 -0.1922
  530WAT      O 1800   3.782   3.352   4.452 -0.2488  0.7043 -0.0932
  530WAT     H1 1801   3.784   3.263   4.417  0.6988  0.1895  1.1776
  530WAT     H2 1802   3.777   3.408   4.375 -1.0132 -0.4359 -0.9177
  531WAT      O 1803   3.479   4.175   4.833 -0.0056  0.0609  0.0272
  531WAT     H1 1804   3.498   4.115   4.905  0.8053  0.9476  0.5784
  531WAT     H2 1805   3.408   4.230   4.865  0.5222  0.6190  0.2665
  532WAT      O 1806   3.017   1.266   3.666 -0.1321 -0.4739 -0.6737
  532WAT     H1 1807   3.005   1.173   3.680 -0.3869 -0.3740 -0.2119
  532WAT     H2 1808   2.940   1.292   3.614 -0.1341 -0.4922 -0.6800
  533WAT      O 1809   1.648   4.871   1.990 -0.3311 -0.8188  0.8490
  533WAT     H1 1810   1.650   4.923   2.071  0.5344 -1.0139  0.9624
  533WAT     H2 1811   1.718   4.908   1.937 -1.0707 -0.5095  0.0561
  534WAT      O 1812   0.625   0.638   2.844 -0.4883 -0.3315  0.2816
  534WAT     H1 1813   0.593   0.726   2.863 -1.3800 -0.5455 -0.2153
  534WAT     H2 1814   0.605   0.625   2.752  1.9011 -0.1099 -0.3345
  535WAT      O 1815   0.219   1.635   0.823 -0.3205 -0.1847  0.4898
  535WAT     H1 1816   0.133   1.633   0.780 -0.7103  1.7159  1.1043
  535WAT     H2 1817   0.247   1.726   0.817  1.5851 -0.7439  0.4734
  536WAT      O 1818   0.215   3.798   5.188  0.0725  0.4979 -0.0696
  536WAT     H1 1819   0.188   3.717   5.144 -0.4370  0.5966  0.0511
  536WAT     H2 1820   0.307   3.810   5.163  0.2889 -0.3611  0.2858
  537WAT      O 1821   0.828   5.099   2.918 -0.4441 -0.1080  0.3214
  537WAT     H1 1822   0.736   5.075   2.904 -0.8834  1.0266  1.0812
  537WAT     H2 1823   0.824   5.190   2.948  0.9721  0.1180 -0.1066
  538WAT      O 1824   3.725   1.344   2.601 -0.2606  1.1695 -0.0353
  538WAT     H1 1825   3.738   1.415   2.664 -0.5186  1.3273 -0.1591
  538WAT     H2 1826   3.806   1.342   2.550  0.2677  0.5348  0.7990
  539WAT      O 1827   2.551   4.299   3.881  0.2181  0.0554  0.6055
  539WAT     H1 1828   2.623   4.272   3.938  0.8835 -2.1828 -1.1077
  539WAT     H2 1829   2.490   4.225   3.883 -0.4857  0.5757 -0.3769
  540WAT      O 1830   0.394   0.808   0.077 -0.5310 -0.3573  0.1005
  540WAT     H1 1831   0.488   0.801   0.061 -0.7872 -0.5564 -1.5220
  540WAT     H2 1832   0.385   0.881   0.138  0.7217 -0.9483  1.0311
  541WAT      O 1833   2.645   0.618   4.066 -0.0635  0.7131  0.2997
  541WAT     H1 1834   2.573   0.590   4.122 -0.2313  1.6837  0.5784
  541WAT     H2 1835   2.626   0.580   3.981 -1.3532  1.6516  0.1501
  542WAT      O 1836   2.948   1.155   5.015 -0.0693  0.8798  0.1190
  542WAT     H1 1837   2.998   1.220   5.065 -3.4046  2.7765  1.2850
  542WAT     H2 1838   2.887   1.206   4.962 -0.6451 -1.2806 -1.4620
  543WAT      O 1839   2.636   0.507   3.562  0.3551  0.0978  0.3737
  543WAT     H1 1840   2.593   0.533   3.644  1.0362 -0.9959  1.1055
  543WAT     H2 1841   2.565   0.505   3.498 -0.2423  0.7309  0.9953
  544WAT      O 1842   2.022   2.145   4.023  0.0130  0.0463  0.2780
  544WAT     H1 1843   2.071   2.083   3.970  0.4058  0.7093 -0.1487
  544WAT     H2 1844   2.071   2.227   4.016 -0.8003  0.5529  0.3644
  545WAT      O 1845   0.329   1.484   1.168  0.3963 -0.4383 -0.2892
  545WAT     H1 1846   0.419   1.477   1.135 -0.7019 -0.0966 -3.8343
  545WAT     H2 1847   0.318   1.577   1.188  1.4709 -0.8454  2.5750
  546WAT      O 1848   1.386   3.424   5.114  0.5532 -0.4163 -0.1541
  546WAT     H1 1849   1.419   3.489   5.176  1.8470 -1.6737  0.5406
  546WAT     H2 1850   1.436   3.345   5.134 -1.2916 -1.7698 -0.6646
  547WAT      O 1851   4.335   3.667   2.725  0.0089  0.1873 -0.1572
  547WAT     H1 1852   4.407   3.635   2.780  0.5874  0.3677 -0.8005
  547WAT     H2 1853   4.375   3.684   2.640 -0.3653  2.1789  0.0147
  548WAT      O 1854   4.514   4.159   2.235 -0.6814 -0.2732  0.6351
  548WAT     H1 1855   4.586   4.102   2.211 -0.6565  0.2587 -0.6342
  548WAT     H2 1856   4.546   4.248   2.217 -1.2915  0.0351  1.0179
  549WAT      O 1857   3.232   1.127   4.885 -0.4924  0.3047 -0.2565
  549WAT     H1 1858   3.220   1.218   4.858 -1.9816  0.4311  0.6709
  549WAT     H2 1859   3.155   1.109   4.939  1.2539 -0.5632  2.1110
  550WAT      O 1860   2.152   3.856   2.474  0.4026  0.1089 -0.2567
  550WAT     H1 1861   2.160   3.855   2.379  0.2340  0.7835 -0.2822
  550WAT     H2 1862   2.105   3.775   2.495  1.8207 -0.8271 -0.6019
  551WAT      O 1863   1.979   4.612   5.172 -0.1296  0.6018  0.2371
  551WAT     H1 1864   1.977   4.552   5.246 -0.4410  0.1927 -0.0996
  551WAT     H2 1865   2.072   4.637   5.164  0.3800 -1.4621 -0.9010
  552WAT      O 1866   1.323   0.241   0.347 -0.1091 -0.3268  0.0489
  552WAT     H1 1867   1.337   0.279   0.434  1.1915 -2.4720  0.8599
  552WAT     H2 1868   1.383   0.290   0.290 -1.0921  1.2084  0.2773
  553WAT      O 1869   1.447   4.971   5.106  0.3793  0.5842 -0.0143
  553WAT     H1 1870   1.518   5.016   5.151  1.3982  0.1276 -1.1184
  553WAT     H2 1871   1.425   5.028   5.033  1.2553 -0.3666 -1.0597
  554WAT      O 1872   0.228   4.431   3.418 -0.2035 -0.0657 -0.1073
  554WAT     H1 1873   0.215   4.360   3.482 -0.6075  1.3003  1.3746
  554WAT     H2 1874   0.292   4.488   3.459 -1.4189  1.5185 -0.3238
  555WAT      O 1875   1.903   3.594   3.466 -0.0869 -0.0609 -0.0702
  555WAT     H1 1876   1.852   3.558   3.539  1.7830 -0.9858  0.8535
  555WAT     H2 1877   1.878   3.687   3.464 -0.5207 -0.1068  1.4872
  556WAT      O 1878   4.222   0.863   3.611 -0.1612  0.6488 -0.6556
  556WAT     H1 1879   4.272   0.939   3.582 -1.5123  1.3633 -1.1769
  556WAT     H2 1880   4.242   0.856   3.705  0.7023  1.0711 -0.8017
  557WAT      O 1881   1.803   1.143   3.606 -0.0353  0.2387 -0.1927
  557WAT     H1 1882   1.729   1.144   3.546 -0.0883 -1.9458 -0.2223
  557WAT     H2 1883   1.876   1.176   3.553 -0.3904 -0.2699 -1.0221
  558WAT      O 1884   0.383   1.456   3.451  0.2597  0.0040 -0.1548
  558WAT     H1 1885   0.365   1.410   3.369  1.2931 -0.4783 -0.1274
  558WAT     H2 1886   0.414   1.388   3.510  0.2767  0.4824  0.3976
  559WAT      O 1887   2.919   3.394   4.184 -0.3475 -0.5828  0.1961
  559WAT     H1 1888   2.895   3.425   4.097  1.0720  0.0519  0.0043
  559WAT     H2 1889   2.918   3.473   4.238  2.5654 -0.2227 -0.1300
  560WAT      O 1890   0.513   1.167   0.761 -0.0525 -0.2488 -0.3650
  560WAT     H1 1891   0.485   1.252   0.726  0.3597  0.1647  0.3039
  560WAT     H2 1892   0.491   1.171   0.854  1.3043 -0.3012 -0.0229
  561WAT      O 1893   3.322   1.060   1.747  0.3927 -0.0577 -0.2993
  561WAT     H1 1894   3.412   1.050   1.780  0.0445 -0.5762  0.5429
  561WAT     H2 1895   3.274   1.099   1.820 -0.1004  0.0660 -0.6851
  562WAT      O 1896   3.115   2.323   0.383  0.6165 -0.0164  0.5211
  562WAT     H1 1897   3.185   2.277   0.428  1.8316 -1.2538 -2.3906
  562WAT     H2 1898   3.067   2.255   0.336 -1.5738  1.0057  1.1195
  563WAT      O 1899   3.070   3.159   2.406 -0.3159 -0.1751  0.6639
  563WAT     H1 1900   3.023   3.229   2.361 -1.4782 -0.1082  1.9499
  563WAT     H2 1901   3.013   3.083   2.398  1.5661 -1.4921 -2.0124
  564WAT      O 1902   1.637   3.493   1.634 -0.1739 -0.6926  0.1186
  564WAT     H1 1903   1.647   3.588   1.628  1.0334 -0.8731 -1.0761
  564WAT     H2 1904   1.596   3.479   1.720  0.4628  0.8388  0.7040
  565WAT      O 1905   0.077   1.440   1.574  0.1643  0.1994 -0.0788
  565WAT     H1 1906   0.018   1.489   1.517  3.1480 -0.4718 -4.1984
  565WAT     H2 1907   0.065   1.349   1.549  2.5328  0.0067 -0.8100
  566WAT      O 1908   0.509   4.039   0.082 -0.2836 -0.4887 -0.1055
  566WAT     H1 1909   0.433   4.097   0.079  0.4412  0.4954 -0.0234
  566WAT     H2 1910   0.581   4.096   0.112  0.9836 -0.8430 -2.2789
  567WAT      O 1911   4.174   2.598   0.149  0.0297 -0.0964  0.4075
  567WAT     H1 1912   4.242   2.657   0.182 -0.1381  0.2582  0.1305
  567WAT     H2 1913   4.223   2.528   0.106  0.2272  0.2020  0.1318
  568WAT      O 1914   0.561   2.377   4.591  0.6496  0.3783  0.3987
  568WAT     H1 1915   0.593   2.460   4.627 -2.4884  2.9016 -1.9338
  568WAT     H2 1916   0.625   2.354   4.523  0.5606  2.0742 -0.3068
  569WAT      O 1917   4.450   4.321   4.351 -0.1283  0.1217 -0.5582
  569WAT     H1 1918   4.397   4.285   4.422  0.1655  1.5122  0.4078
  569WAT     H2 1919   4.517   4.254   4.334 -0.1765 -0.2101  0.5181
  570WAT      O 1920   2.854   4.359   4.674  0.1473 -0.3815 -0.1160
  570WAT     H1 1921   2.940   4.368   4.715  1.9598  3.4260 -3.9907
  570WAT     H2 1922   2.863   4.282   4.618  0.9817 -0.1603 -0.3025
  571WAT      O 1923   2.862   1.631   0.805 -0.3303 -0.6902 -0.2115
  571WAT     H1 1924   2.954   1.606   0.810 -0.0477 -0.1460 -1.9222
  571WAT     H2 1925   2.832   1.594   0.721 -2.0775 -2.0738  0.9404
  572WAT      O 1926   2.054   2.432   3.685 -0.0200 -0.1396  0.4991
  572WAT     H1 1927   2.129   2.469   3.638  0.2034 -0.0486  0.9291
  572WAT     H2 1928   1.993   2.505   3.695  0.4560  0.1411  1.4201
  573WAT      O 1929   2.396   1.466   0.489 -0.6601  0.5833  0.5485
  573WAT     H1 1930   2.322   1.521   0.466 -1.6549 -1.0751 -0.3989
  573WAT     H2 1931   2.357   1.385   0.523  0.6588 -0.5882 -0.5848
  574WAT      O 1932   1.462   1.804   4.565 -0.3733 -0.3135  0.0642
  574WAT     H1 1933   1.430   1.714   4.554 -2.3391  0.0792  1.8966
  574WAT     H2 1934   1.435   1.849   4.486  1.2697 -1.4479 -1.2098
  575WAT      O 1935   0.134   3.943   1.871  0.7613  0.3616 -0.0682
  575WAT     H1 1936   0.146   3.947   1.776  1.5423 -0.0494 -0.0027
  575WAT     H2 1937   0.112   3.851   1.888 -0.3613  0.6449  0.0545
  576WAT      O 1938   0.867   3.911   0.542  0.1001  0.0203 -0.5567
  576WAT     H1 1939   0.842   3.950   0.458  0.7065  3.5381  0.7236
  576WAT     H2 1940   0.839   3.975   0.608  1.7197 -1.4967  1.7656
  577WAT      O 1941   2.074   4.969   3.193 -0.1360 -0.2204 -0.8052
  577WAT     H1 1942   2.029   5.017   3.263  2.0962  0.5971  0.1514
  577WAT     H2 1943   2.021   4.985   3.115 -2.4369 -0.7620  0.5424
  578WAT      O 1944   2.848   3.614   2.317 -0.1777  0.2664  0.4979
  578WAT     H1 1945   2.803   3.684   2.270  0.5516  0.5048  0.1364
  578WAT     H2 1946   2.798   3.603   2.398 -1.1741  0.1710 -0.1161
  579WAT      O 1947   1.758   2.048   3.991  0.3021  0.7058  0.7952
  579WAT     H1 1948   1.836   2.100   4.010  1.7232 -0.9313 -0.2542
  579WAT     H2 1949   1.788   1.980   3.931 -1.7226 -0.6063  1.1501
  580WAT      O 1950   4.151   1.512   4.869  0.2370  0.3909 -0.3220
  580WAT     H1 1951   4.159   1.424   4.906 -0.9566  0.7253  0.8119
  580WAT     H2 1952   4.092   1.501   4.794  1.8976 -0.1267 -1.6052
  581WAT      O 1953   1.930   4.430   0.050  0.7193  0.2368 -0.1304
  581WAT     H1 1954   1.845   4.421   0.008  1.1806 -0.2463 -0.9843
  581WAT     H2 1955   1.940   4.350   0.101  0.6182  0.3418  0.0545
  582WAT      O 1956   4.503   0.291   3.364 -0.0421 -0.4046 -0.1880
  582WAT     H1 1957   4.592   0.321   3.344  0.3146 -1.0687  0.3509
  582WAT     H2 1958   4.482   0.332   3.447  0.0960 -0.8994  0.0995
  583WAT      O 1959   0.416   4.230   4.507 -0.1230  0.2731 -0.3680
  583WAT     H1 1960   0.350   4.161   4.506 -1.8664  1.8521  0.1005
  583WAT     H2 1961   0.391   4.286   4.581  0.8966  1.7241 -1.0700
  584WAT      O 1962   3.844   4.115   2.367  0.1845  0.2328 -0.4614
  584WAT     H1 1963   3.763   4.162   2.384  0.5317  0.1955  1.5258
  584WAT     H2 1964   3.902   4.140   2.439  1.9239  0.1866 -1.7794
  585WAT      O 1965   1.273   3.951   4.350  0.5617  0.4006 -0.5655
  585WAT     H1 1966   1.290   3.912   4.265  2.6519  0.3874 -0.1887
  585WAT     H2 1967   1.356   3.945   4.397 -0.8820 -0.9729  2.0591
  586WAT      O 1968   1.477   2.133   2.760  0.4398 -0.3285 -0.1448
  586WAT     H1 1969   1.437   2.082   2.831 -0.4027  1.0631  0.4028
  586WAT     H2 1970   1.564   2.156   2.794  0.2946 -0.2302  0.1627
  587WAT      O 1971   2.344   0.273   0.769 -0.6278 -0.0476  0.1165
  587WAT     H1 1972   2.361   0.180   0.782  1.8784  0.2982 -0.2177
  587WAT     H2 1973   2.388   0.294   0.686 -0.0729  1.6871  0.8121
  588WAT      O 1974   2.576   3.758   1.446 -0.4468 -0.0037  0.4518
  588WAT     H1 1975   2.592   3.845   1.483 -1.8463 -0.2145  1.6551
  588WAT     H2 1976   2.547   3.775   1.357  0.7434  0.6527  0.1662
  589WAT      O 1977   2.887   1.108   0.141  0.2282 -0.0119  0.1268
  589WAT     H1 1978   2.928   1.040   0.194  1.0533  0.0115 -0.4585
  589WAT     H2 1979   2.942   1.113   0.062 -0.3039  0.7501 -0.2057
  590WAT      O 1980   1.265   2.142   4.492 -0.1630 -0.0977 -0.3617
  590WAT     H1 1981   1.331   2.196   4.447  1.7775 -0.9413  1.2969
  590WAT     H2 1982   1.281   2.053   4.459 -0.5564 -0.2814 -0.0608
  591WAT      O 1983   0.781   3.165   0.892 -0.3742  0.0707  0.2226
  591WAT     H1 1984   0.753   3.106   0.821  0.1545  1.5387 -1.2639
  591WAT     H2 1985   0.700   3.207   0.920 -0.5792 -0.4665  0.4497
  592WAT      O 1986   0.957   2.537   0.203  0.2964  0.4295 -0.1846
  592WAT     H1 1987   0.989   2.447   0.192 -0.0573  0.2185  0.4763
  592WAT     H2 1988   0.867   2.527   0.233  0.0935  1.0136 -0.5784
  593WAT      O 1989   3.144   2.598   0.402  0.0028 -0.3263  0.7356
  593WAT     H1 1990   3.123   2.507   0.378 -0.6032 -0.1927  0.7272
  593WAT     H2 1991   3.112   2.606   0.492  0.3993 -0.2304  0.8663
  594WAT      O 1992   2.737   3.929   0.523 -0.1220  0.5424  0.0799
  594WAT     H1 1993   2.659   3.930   0.468 -0.2278  1.8383  0.2349
  594WAT     H2 1994   2.808   3.961   0.467 -0.3743  2.5963  0.8505
  595WAT      O 1995   3.216   2.386   1.804 -0.0300  0.7467 -0.3616
  595WAT     H1 1996   3.233   2.479   1.823  0.7201  1.0155 -2.1816
  595WAT     H2 1997   3.303   2.349   1.789 -0.0387 -0.9012  2.7173
  596WAT      O 1998   1.545   1.278   1.159 -0.2888 -0.0614  0.5808
  596WAT     H1 1999   1.597   1.198   1.152 -1.2861 -0.7751  1.0572
  596WAT     H2 2000   1.564   1.311   1.247  1.9127  1.5401 -0.4194
  597WAT      O 2001   2.027   2.883   2.382 -0.0276 -0.0019 -0.2390
  597WAT     H1 2002   1.945   2.859   2.425 -0.5313  0.1672 -1.0917
  597WAT     H2 2003   2.023   2.839   2.297  0.6707  0.1855 -0.3745
  598WAT      O 2004   0.091   3.373   0.195  0.0773 -0.5042  0.4072
  598WAT     H1 2005   0.182   3.375   0.166 -0.3294  0.7215 -0.9085
  598WAT     H2 2006   0.065   3.281   0.189  0.1066 -0.3953 -3.0618
  599WAT      O 2007   3.701   3.986   4.068  0.0280 -0.0092  0.4285
  599WAT     H1 2008   3.693   4.020   3.979  2.1159 -2.5503 -0.8549
  599WAT     H2 2009   3.611   3.966   4.094 -0.4815 -1.5715 -2.1838
  600WAT      O 2010   2.151   5.019   5.143  0.3377 -0.4175 -0.6977
  600WAT     H1 2011   2.070   5.022   5.093 -1.3533 -1.4919  1.7490
  600WAT     H2 2012   2.190   5.106   5.131 -2.8637  1.3773  0.5502
  601WAT      O 2013   3.678   2.658   0.513  0.1568 -0.1816 -0.1785
  601WAT     H1 2014   3.630   2.580   0.541  1.2165 -1.0942 -0.7799
  601WAT     H2 2015   3.613   2.712   0.468 -1.2982  0.7348  2.7550
  602WAT      O 2016   0.981   1.634   0.203 -0.0318 -0.1439  0.0350
  602WAT     H1 2017   0.983   1.611   0.296  3.5461  2.3403  0.7894
  602WAT     H2 2018   0.903   1.690   0.194  0.0506  0.3120  1.7714
  603WAT      O 2019   3.036   1.507   4.228 -0.1686  0.4331 -0.2166
  603WAT     H1 2020   2.983   1.466   4.159 -1.1810  2.2346 -0.5663
  603WAT     H2 2021   3.126   1.498   4.197 -0.4149 -0.7541 -0.6627
  604WAT      O 2022   2.191   0.572   1.724  0.4215 -0.5381  0.1123
  604WAT     H1 2023   2.237   0.650   1.695 -1.8394  0.7585 -0.2130
  604WAT     H2 2024   2.109   0.572   1.674  0.5040 -3.3746 -0.2201
  605WAT      O 2025   0.327   4.829   3.091  0.5196 -0.8671 -0.1594
  605WAT     H1 2026   0.278   4.910   3.104 -0.4928 -1.2322 -1.5540
  605WAT     H2 2027   0.350   4.801   3.180 -3.1222 -1.4864  0.7532
  606WAT      O 2028   1.068   1.479   4.927  0.1223 -0.6855 -0.4161
  606WAT     H1 2029   1.111   1.394   4.913  1.1647 -0.3309  0.4842
  606WAT     H2 2030   1.080   1.496   5.021 -0.0479  0.4758 -0.5950
  607WAT      O 2031   3.594   1.431   0.661  0.2778  0.0651 -0.1511
  607WAT     H1 2032   3.545   1.389   0.732  2.1505  1.1842  1.9080
  607WAT     H2 2033   3.643   1.359   0.621  0.7194 -0.3106  1.0067
  608WAT      O 2034   2.602   4.234   1.350 -0.6501 -0.0111 -0.2267
  608WAT     H1 2035   2.611   4.176   1.426  0.7378  0.3353 -0.0807
  608WAT     H2 2036   2.539   4.190   1.293  1.2316 -2.3190 -0.6945
  609WAT      O 2037   2.854   1.373   3.423 -0.7629 -1.2549  0.0277
  609WAT     H1 2038   2.846   1.468   3.437  0.4083 -1.3219  1.3674
  609WAT     H2 2039   2.787   1.353   3.357 -0.4574  0.6317 -0.9268
  610WAT      O 2040   4.482   2.678   1.632 -0.4185 -0.4037 -0.2496
  610WAT     H1 2041   4.403   2.628   1.610 -0.9235 -1.7196  3.7606
  610WAT     H2 2042   4.548   2.647   1.570 -2.3884 -1.1791 -2.0664
  611WAT      O 2043   0.816   1.167   0.567  0.6834 -0.0204 -0.6192
  611WAT     H1 2044   0.895   1.213   0.539 -0.7776  2.9052 -0.3357
  611WAT     H2 2045   0.833   1.143   0.658  1.0915  0.9813 -0.4180
  612WAT      O 2046   2.414   4.161   0.326  0.2985 -0.3859  0.3492
  612WAT     H1 2047   2.333   4.197   0.362 -0.3608 -1.0338 -0.4434
  612WAT     H2 2048   2.465   4.238   0.300  0.6354  0.0995  2.2222
  613WAT      O 2049   1.317   2.374   2.795 -0.2374 -0.3978 -0.1235
  613WAT     H1 2050   1.384   2.305   2.797 -0.0734 -0.2572 -0.6694
  613WAT     H2 2051   1.234   2.327   2.785 -0.2914 -0.6095  1.1247
  614WAT      O 2052   1.226   1.691   1.505  0.3544  0.0058  0.2073
  614WAT     H1 2053   1.231   1.714   1.412 -0.5748 -1.7915 -0.3203
  614WAT     H2 2054   1.134   1.705   1.528  0.6221  0.6294  0.9159
  615WAT      O 2055   4.321   1.575   4.566  0.5414  0.4158 -0.0510
  615WAT     H1 2056   4.250   1.593   4.505  0.2248  0.5214  0.3391
  615WAT     H2 2057   4.318   1.481   4.581 -0.0294  0.5256  0.5728
  616WAT      O 2058   2.903   3.253   5.072  0.1407  1.2331 -0.1484
  616WAT     H1 2059   2.839   3.262   5.001  0.2573 -0.1952 -0.4550
  616WAT     H2 2060   2.978   3.211   5.032 -0.2463 -0.6989  1.0466
  617WAT      O 2061   1.149   0.583   3.618 -0.1354  0.2777 -0.2325
  617WAT     H1 2062   1.109   0.501   3.590 -0.0455  0.0019  0.4337
  617WAT     H2 2063   1.140   0.641   3.542 -1.9384  0.2692 -0.0751
  618WAT      O 2064   2.447   4.809   3.868  0.4838  0.1255  0.0545
  618WAT     H1 2065   2.385   4.772   3.931 -2.6022 -0.8082 -3.1836
  618WAT     H2 2066   2.407   4.892   3.841  2.1075  0.8703 -0.1753
  619WAT      O 2067   4.327   1.377   3.368  0.9900  0.0131  0.5461
  619WAT     H1 2068   4.235   1.386   3.389  0.8038  0.0275 -0.2185
  619WAT     H2 2069   4.372   1.438   3.426  0.9143 -2.4162  3.4191
  620WAT      O 2070   0.841   0.911   4.476  0.1777 -0.0598 -0.1928
  620WAT     H1 2071   0.757   0.885   4.438 -0.3788  1.7368 -0.3006
  620WAT     H2 2072   0.903   0.845   4.445 -1.3112 -1.9474  0.6137
  621WAT      O 2073   2.561   4.575   1.786  0.0790 -0.5522  1.2470
  621WAT     H1 2074   2.471   4.587   1.757  0.4295 -1.1778 -0.1680
  621WAT     H2 2075   2.565   4.621   1.870 -1.2965  0.2908  0.8858
  622WAT      O 2076   1.046   2.966   5.216 -0.0227 -0.0973  0.1541
  622WAT     H1 2077   1.065   2.894   5.276 -0.7494  0.0862  0.6173
  622WAT     H2 2078   1.115   2.961   5.150  1.8834  0.7629  1.9668
  623WAT      O 2079   0.599   0.986   4.005  0.4201  0.1781  0.3570
  623WAT     H1 2080   0.634   0.938   4.080  0.8097 -0.1499 -0.0323
  623WAT     H2 2081   0.664   0.974   3.936 -1.4401 -2.3413 -1.1230
  624WAT      O 2082   2.623   4.530   3.141  0.1750 -0.1930  0.3522
  624WAT     H1 2083   2.713   4.534   3.109  0.4421 -2.3295  0.6957
  624WAT     H2 2084   2.588   4.450   3.103 -1.2068  0.0034  1.1667
  625WAT      O 2085   0.555   0.141   5.107  0.5985 -0.3555  0.0632
  625WAT     H1 2086   0.531   0.205   5.174 -0.2693 -0.9430  0.3336
  625WAT     H2 2087   0.628   0.092   5.145  0.6649 -0.1284  0.2268
  626WAT      O 2088   4.031   4.590   4.531  0.7867  0.9040 -0.9535
  626WAT     H1 2089   4.075   4.529   4.590 -0.6038  1.6112  0.9674
  626WAT     H2 2090   4.095   4.660   4.516  1.2202  0.6431 -0.3559
  627WAT      O 2091   2.254   1.978   1.826 -0.0470  0.1180  0.0077
  627WAT     H1 2092   2.208   2.015   1.751  1.0546  0.9048 -0.2941
  627WAT     H2 2093   2.200   1.903   1.851 -0.2510 -0.3965 -1.7956
  628WAT      O 2094   4.102   0.946   4.381 -0.2547  0.3020 -0.0739
  628WAT     H1 2095   4.021   0.961   4.332  1.0952  1.9461 -1.9594
  628WAT     H2 2096   4.106   1.018   4.443 -0.4103  0.0026  0.2870
  629WAT      O 2097   4.048   3.932   0.771  0.0902 -0.1367 -0.5184
  629WAT     H1 2098   4.075   3.920   0.863 -0.4560  1.4963 -0.1147
  629WAT     H2 2099   4.044   4.027   0.760  0.4565 -0.3127 -2.3481
  630WAT      O 2100   0.247   3.137   2.902  0.3128 -0.1223 -0.6663
  630WAT     H1 2101   0.269   3.219   2.946 -0.2634  0.4322 -1.3951
  630WAT     H2 2102   0.152   3.136   2.900  0.3241 -0.5518 -1.1325
  631WAT      O 2103   1.242   0.616   3.884 -0.1228  0.8392 -0.3761
  631WAT     H1 2104   1.258   0.624   3.789  0.7070  1.2295 -0.2155
  631WAT     H2 2105   1.299   0.544   3.911 -1.3504 -0.1553 -0.3895
  632WAT      O 2106   4.254   3.566   1.910 -0.0925  0.1449  0.2778
  632WAT     H1 2107   4.219   3.651   1.883 -0.1978  0.1896  0.5525
  632WAT     H2 2108   4.193   3.502   1.874 -0.3322  0.2124  0.5650
  633WAT      O 2109   4.492   2.253   2.246  0.5949 -0.2180 -0.8150
  633WAT     H1 2110   4.478   2.347   2.234 -2.4497 -0.3266  0.8741
  633WAT     H2 2111   4.554   2.247   2.318  1.1467  0.4742 -1.2209
  634WAT      O 2112   1.747   3.227   4.729 -0.2457  0.9219 -0.4398
  634WAT     H1 2113   1.741   3.317   4.762  1.5180  0.7440  0.4607
  634WAT     H2 2114   1.794   3.179   4.797 -1.4244 -0.7831 -0.7575
  635WAT      O 2115   4.165   4.613   3.176  0.3494  0.1983  0.1589
  635WAT     H1 2116   4.171   4.704   3.145  0.2748  0.7014  1.5676
  635WAT     H2 2117   4.073   4.590   3.161  0.2560  0.5139  0.2352
  636WAT      O 2118   1.012   4.943   1.009 -0.0882 -0.6735  0.0842
  636WAT     H1 2119   1.041   4.991   1.086  0.8178 -0.6808 -0.2371
  636WAT     H2 2120   0.995   5.010   0.943  0.8566 -0.7516 -0.2589
  637WAT      O 2121   2.826   4.266   3.534 -0.0498  0.0483 -0.3341
  637WAT     H1 2122   2.776   4.215   3.598 -1.1220 -1.2978 -2.1610
  637WAT     H2 2123   2.852   4.345   3.582 -0.6016 -0.9875  1.8117
  638WAT      O 2124   0.398   1.396   3.811  0.5974  0.3537  0.4261
  638WAT     H1 2125   0.409   1.350   3.894 -0.5321  1.4286  1.2107
  638WAT     H2 2126   0.421   1.331   3.745 -0.3353 -1.1426  1.5028
  639WAT      O 2127   3.679   0.012   3.440  0.2088  0.1860  0.1862
  639WAT     H1 2128   3.691   0.017   3.534 -1.6867 -1.1970  0.5590
  639WAT     H2 2129   3.767  -0.003   3.405  0.7663 -0.5738  1.8303
  640WAT      O 2130   2.395   0.518   0.191 -0.2730  0.2613 -0.1738
  640WAT     H1 2131   2.377   0.431   0.155 -1.5752 -0.4649  2.0152
  640WAT     H2 2132   2.491   0.524   0.191 -0.1165 -1.5337  0.3671
  641WAT      O 2133   4.126   3.531   4.284  0.0795 -0.2815  0.1346
  641WAT     H1 2134   4.213   3.501   4.259  0.3612  0.9685 -0.4367
  641WAT     H2 2135   4.107   3.484   4.366  1.4581 -0.2504  0.4869
  642WAT      O 2136   1.796   1.923   2.076  0.1938 -0.1057 -0.0636
  642WAT     H1 2137   1.818   1.988   2.143  0.8006  0.1380 -0.4938
  642WAT     H2 2138   1.759   1.849   2.125 -0.2203  0.4409  0.4525
  643WAT      O 2139   2.359   1.968   0.622  0.6217  0.0256 -0.5991
  643WAT     H1 2140   2.264   1.962   0.634  0.7377 -2.9098 -0.2328
  643WAT     H2 2141   2.382   1.888   0.574  2.7916  1.2788 -1.8246
  644WAT      O 2142   4.138   1.584   0.783 -0.2119  0.4567  0.4408
  644WAT     H1 2143   4.053   1.565   0.745 -0.3126 -0.6710  1.1672
  644WAT     H2 2144   4.146   1.522   0.855 -0.1887  2.6947  2.5051
  645WAT      O 2145   1.033   0.966   0.344 -0.0191 -0.3918 -0.4422
  645WAT     H1 2146   1.121   0.990   0.373 -0.2643 -0.0158  0.0008
  645WAT     H2 2147   1.023   1.012   0.261 -1.1071  2.5318  1.1745
  646WAT      O 2148   4.002   1.018   3.879 -0.8242 -0.0357 -0.1158
  646WAT     H1 2149   3.974   1.030   3.788 -0.8471 -1.8902 -0.4092
  646WAT     H2 2150   4.072   0.953   3.873  1.0828  1.7932  0.9637
  647WAT      O 2151   0.918   0.602   0.174  0.7300 -0.4061 -0.3566
  647WAT     H1 2152   0.910   0.515   0.135  1.1159 -0.4124 -0.4293
  647WAT     H2 2153   0.830   0.640   0.168  0.4024 -1.0390  0.2716
  648WAT      O 2154   0.202   2.176   1.868 -0.0996 -0.5931 -0.2989
  648WAT     H1 2155   0.203   2.160   1.962 -1.6358 -0.5347 -0.2476
  648WAT     H2 2156   0.248   2.102   1.830  0.9674 -0.3697  0.5182
  649WAT      O 2157   2.445   1.094   5.092 -0.1494 -0.2218 -0.2049
  649WAT     H1 2158   2.500   1.039   5.035  0.6968 -0.5724  0.8986
  649WAT     H2 2159   2.388   1.031   5.137  0.7165 -0.2243  0.9492
  650WAT      O 2160   3.118   0.752   2.835  0.3856 -0.8423  0.2471
  650WAT     H1 2161   3.206   0.783   2.858 -0.7057  2.2713  0.6254
  650WAT     H2 2162   3.071   0.749   2.918 -0.1720 -1.5266 -0.0850
  651WAT      O 2163   1.475   3.528   4.425  0.1699  0.4589 -0.3199
  651WAT     H1 2164   1.409   3.525   4.495  0.1864  0.3675 -0.3076
  651WAT     H2 2165   1.558   3.536   4.471  0.0357  2.5465 -0.3848
  652WAT      O 2166   1.550   2.300   1.853  0.6861 -0.4890  0.6501
  652WAT     H1 2167   1.504   2.338   1.927  0.3547  1.1344 -0.3525
  652WAT     H2 2168   1.507   2.215   1.839 -1.3702  0.5450  0.3697
  653WAT      O 2169   2.834   5.013   3.909 -0.3874  0.5961 -0.1558
  653WAT     H1 2170   2.771   4.988   3.842  0.5477 -0.5536 -0.6494
  653WAT     H2 2171   2.783   5.018   3.990 -0.7598 -2.9337 -0.0169
  654WAT      O 2172   1.366   2.747   1.323  0.3833 -0.7677 -0.5708
  654WAT     H1 2173   1.460   2.730   1.323  0.1684 -2.0732 -1.2584
  654WAT     H2 2174   1.331   2.689   1.256 -1.3241 -2.7100  1.8174
  655WAT      O 2175   3.262   2.642   4.510  0.5733  0.2790 -0.6808
  655WAT     H1 2176   3.179   2.600   4.534  0.9978 -0.0712  0.2204
  655WAT     H2 2177   3.238   2.733   4.488 -0.0474  0.1641 -0.4864
  656WAT      O 2178   2.004   4.440   3.314  0.3028 -0.4987  0.1261
  656WAT     H1 2179   2.064   4.512   3.330  0.6962 -0.7767 -0.0855
  656WAT     H2 2180   2.043   4.365   3.360 -1.0066 -0.1857  1.8924
  657WAT      O 2181   1.162   3.648   4.124  0.1665  0.0313 -0.3844
  657WAT     H1 2182   1.157   3.633   4.218 -1.4298  0.2501 -0.4089
  657WAT     H2 2183   1.208   3.572   4.090  0.2701 -0.3212  0.5104
  658WAT      O 2184   1.183   0.722   1.166  0.1515 -0.2867  0.0411
  658WAT     H1 2185   1.192   0.806   1.211 -2.0105 -0.2840  0.5904
  658WAT     H2 2186   1.267   0.679   1.179  1.4221  1.8924 -0.5123
  659WAT      O 2187   2.374   2.681   3.719  0.1357 -0.4155 -0.3950
  659WAT     H1 2188   2.314   2.718   3.784 -1.6562 -0.6235 -1.8269
  659WAT     H2 2189   2.378   2.747   3.650  0.5432 -0.9553 -0.9005
  660WAT      O 2190   1.307   4.390   0.633 -0.6048  0.3208  0.4723
  660WAT     H1 2191   1.302   4.402   0.727  3.5837 -0.1335  0.9238
  660WAT     H2 2192   1.276   4.301   0.618  2.5609 -1.1947  2.1131
  661WAT      O 2193   2.492   1.301   1.819  0.0977 -0.0245 -0.2892
  661WAT     H1 2194   2.409   1.257   1.801  0.6111 -0.4904 -1.7246
  661WAT     H2 2195   2.495   1.310   1.914 -0.5486 -2.0878 -0.0196
  662WAT      O 2196   2.260   4.164   4.588  0.4615  0.2051 -0.6801
  662WAT     H1 2197   2.192   4.132   4.530  0.2726 -2.3909  0.8322
  662WAT     H2 2198   2.219   4.235   4.637 -0.0089  1.0074 -2.1688
  663WAT      O 2199   1.569   3.320   3.820  0.1010 -0.1465 -0.1203
  663WAT     H1 2200   1.588   3.235   3.781 -0.1214 -0.0604 -0.4267
  663WAT     H2 2201   1.535   3.299   3.907 -0.3137 -0.3951 -0.3356
  664WAT      O 2202   2.157   1.316   4.687 -0.0434 -0.9496 -0.2423
  664WAT     H1 2203   2.133   1.307   4.594  1.3464 -0.3874 -0.6776
  664WAT     H2 2204   2.126   1.235   4.727 -0.0141 -1.5309 -1.3410
  665WAT      O 2205   0.072   1.701   4.987  0.1422  0.1099  0.1826
  665WAT     H1 2206   0.164   1.690   4.962  0.1737  0.5514  0.0808
  665WAT     H2 2207   0.028   1.725   4.905  0.1906  1.2617  0.4689
  666WAT      O 2208   3.363   1.444   1.574  0.2266  0.0417 -0.4106
  666WAT     H1 2209   3.319   1.404   1.650  1.4501  0.0262  0.3265
  666WAT     H2 2210   3.424   1.507   1.613  2.2430 -1.2971 -1.2268
  667WAT      O 2211   0.679   2.804   0.300  0.7563 -0.0966 -0.2148
  667WAT     H1 2212   0.670   2.710   0.315 -1.2705  0.1300  0.3858
  667WAT     H2 2213   0.590   2.838   0.311  1.2365  1.7420 -1.5425
  668WAT      O 2214   2.151   0.704   0.629 -0.4224 -0.3719  0.3701
  668WAT     H1 2215   2.077   0.755   0.661 -0.0337  0.2868  0.2472
  668WAT     H2 2216   2.151   0.624   0.682 -0.4926  0.1699  1.1918
  669WAT      O 2217   0.582   1.538   2.226  0.5289 -0.4967 -0.0807
  669WAT     H1 2218   0.592   1.558   2.133  1.8061  0.2388  0.1942
  669WAT     H2 2219   0.672   1.537   2.260  0.0077  0.9965  1.4932
  670WAT      O 2220   4.472   0.437   2.177 -0.3125 -0.2636 -0.0795
  670WAT     H1 2221   4.468   0.416   2.083 -0.4056  0.5224 -0.2617
  670WAT     H2 2222   4.515   0.522   2.180 -1.2305  0.1927  0.5128
  671WAT      O 2223   3.480   4.861   0.079  0.0053  0.3642  0.4679
  671WAT     H1 2224   3.524   4.901   0.154  1.8666  0.3026 -0.5365
  671WAT     H2 2225   3.548   4.853   0.012 -1.2922 -0.7592 -0.7940
  672WAT      O 2226   0.339   2.939   0.849  0.2422 -0.3020  0.0688
  672WAT     H1 2227   0.381   2.918   0.933 -0.5614 -1.4976  0.1926
  672WAT     H2 2228   0.401   2.907   0.783  1.2050  1.2674  0.1481
  673WAT      O 2229   0.686   4.842   0.070 -0.6065 -0.2166 -0.1067
  673WAT     H1 2230   0.629   4.906   0.028 -0.5127  0.3026  0.5461
  673WAT     H2 2231   0.654   4.836   0.160 -0.0765 -0.4419  0.0711
  674WAT      O 2232   4.050   4.889   0.173  0.2909  0.0734  0.2172
  674WAT     H1 2233   3.979   4.857   0.118 -1.3133  0.3148  2.0297
  674WAT     H2 2234   4.018   4.972   0.208  1.2826 -0.0143  1.4185
  675WAT      O 2235   3.533   0.013   0.000 -0.1149  0.1476  0.5532
  675WAT     H1 2236   3.496  -0.040   0.071 -1.8135 -0.4606 -0.7002
  675WAT     H2 2237   3.481  -0.012  -0.077  0.5104  2.0442 -0.5398
  676WAT      O 2238   1.331   0.219   0.016 -0.6117  0.1036 -0.5878
  676WAT     H1 2239   1.374   0.290   0.064  1.0794 -2.1663  1.5602
  676WAT     H2 2240   1.239   0.224   0.042 -0.4127  1.1591 -0.0526
  677WAT      O 2241   3.915   0.530   2.546  0.4751  0.0958  0.6330
  677WAT     H1 2242   3.859   0.509   2.471 -2.2221  1.7147  2.0133
  677WAT     H2 2243   3.974   0.599   2.514 -1.3335  1.5081  0.1801
  678WAT      O 2244   0.958   0.335   4.165  0.2320  0.5159  0.4825
  678WAT     H1 2245   0.922   0.255   4.203 -0.0996 -1.0472 -2.7948
  678WAT     H2 2246   0.887   0.398   4.169 -0.0038  0.2031  1.7223
  679WAT      O 2247   0.858   1.440   4.544  0.1300  0.3064 -0.0438
  679WAT     H1 2248   0.902   1.356   4.532 -1.3510 -0.1599 -3.5062
  679WAT     H2 2249   0.769   1.417   4.571  0.0126  0.7961  0.0045
  680WAT      O 2250   1.487   4.722   2.541 -0.1781  0.0313 -0.3296
  680WAT     H1 2251   1.558   4.694   2.484  0.7915  0.7408  0.5015
  680WAT     H2 2252   1.407   4.702   2.492  0.4980 -2.4943 -0.5349
  681WAT      O 2253   4.099   4.352   4.698 -0.0656 -0.4501  0.1720
  681WAT     H1 2254   4.112   4.380   4.788  1.7579  0.1586 -0.2499
  681WAT     H2 2255   4.177   4.301   4.676  0.8275  1.6308 -1.8716
  682WAT      O 2256   4.238   0.558   4.823  0.1700  0.0956 -0.0975
  682WAT     H1 2257   4.281   0.472   4.825  1.9569  0.9403  0.4588
  682WAT     H2 2258   4.187   0.561   4.904 -1.0752 -0.9733 -0.8151
  683WAT      O 2259   0.405   4.019   4.722  0.5430  0.2603 -0.3581
  683WAT     H1 2260   0.468   3.960   4.764  0.3350 -0.2884 -0.8034
  683WAT     H2 2261   0.423   4.009   4.628  1.5458  2.0540 -0.4161
  684WAT      O 2262   2.923   0.251   0.877 -0.3080  0.3107 -0.2014
  684WAT     H1 2263   2.849   0.208   0.835 -0.2375  0.3395 -0.3549
  684WAT     H2 2264   3.000   0.209   0.839 -0.2246  1.0142 -0.8325
  685WAT      O 2265   3.417   2.595   3.611  0.4510  0.0626 -0.3624
  685WAT     H1 2266   3.474   2.528   3.573  1.7944  2.0727 -2.1173
  685WAT     H2 2267   3.438   2.593   3.705  0.9277 -1.4878 -0.4713
  686WAT      O 2268   1.398   3.976   2.479  0.1020 -0.8622 -0.1501
  686WAT     H1 2269   1.405   3.880   2.477 -1.6168 -1.1244  2.3826
  686WAT     H2 2270   1.486   4.006   2.498  0.6207 -1.9199 -0.7524
  687WAT      O 2271   4.188   3.829   1.830  0.3801  0.2335 -0.0127
  687WAT     H1 2272   4.108   3.866   1.866  1.3111  0.2243  2.2192
  687WAT     H2 2273   4.259   3.879   1.870  1.6723 -2.9999  2.2253
  688WAT      O 2274   3.407   1.587   0.508 -0.4277 -0.0193  0.0944
  688WAT     H1 2275   3.497   1.613   0.490 -0.2775  0.2023  1.0969
  688WAT     H2 2276   3.414   1.525   0.581 -0.9996 -0.8289 -0.5190
  689WAT      O 2277   3.197   4.898   4.173 -0.4087 -0.1516  0.5618
  689WAT     H1 2278   3.125   4.866   4.118 -0.3388  1.4519 -0.5604
  689WAT     H2 2279   3.234   4.971   4.122  1.2598 -0.1933  1.6505
  690WAT      O 2280   0.979   4.008   0.906  0.0790  0.8249  0.1278
  690WAT     H1 2281   0.895   4.035   0.868 -0.3868  0.0406  0.5603
  690WAT     H2 2282   1.022   3.958   0.837 -1.2578 -1.5770  0.9117
  691WAT      O 2283   0.141   3.266   1.701 -0.0023  0.1381  0.5458
  691WAT     H1 2284   0.181   3.198   1.647  0.4424  2.0219 -1.6806
  691WAT     H2 2285   0.149   3.234   1.791 -0.0550 -2.8075 -0.4156
  692WAT      O 2286   1.029   1.034   1.135  0.4609  0.0220 -0.4054
  692WAT     H1 2287   0.990   1.106   1.085 -0.8882 -0.9933 -0.8934
  692WAT     H2 2288   1.122   1.056   1.142  0.0416  1.9176 -0.3151
  693WAT      O 2289   3.468   4.954   0.418 -0.0264 -0.2453  0.1426
  693WAT     H1 2290   3.556   4.941   0.383  1.6836  2.6625  2.8674
  693WAT     H2 2291   3.440   4.866   0.444  2.1018 -1.2357 -0.6397
  694WAT      O 2292   1.299   3.560   4.666 -0.7003  0.6592  0.1017
  694WAT     H1 2293   1.239   3.610   4.721  0.5345 -0.7855  2.9895
  694WAT     H2 2294   1.257   3.475   4.654  0.2567 -0.0168  1.3036
  695WAT      O 2295   1.546   4.016   0.495  0.2727 -0.0027  0.4956
  695WAT     H1 2296   1.556   4.043   0.403  0.5137 -0.6986  0.3097
  695WAT     H2 2297   1.601   4.078   0.543  1.7630 -0.8433 -0.0487
  696WAT      O 2298   1.429   0.650   1.858 -0.3081 -0.3934  0.1791
  696WAT     H1 2299   1.451   0.586   1.790  0.2431 -0.7730  0.7127
  696WAT     H2 2300   1.512   0.669   1.901 -0.0403  2.3228 -1.3620
  697WAT      O 2301   0.897   4.603   2.376  0.3873  0.3751 -0.0115
  697WAT     H1 2302   0.911   4.681   2.322  0.5035  0.5492  0.2730
  697WAT     H2 2303   0.922   4.530   2.318 -0.1421  0.5139 -0.4292
  698WAT      O 2304   3.639   2.801   1.692 -0.1069 -0.1634  0.5465
  698WAT     H1 2305   3.618   2.885   1.651  1.0620 -0.4395 -0.6854
  698WAT     H2 2306   3.727   2.814   1.729 -0.2544 -0.6024  1.0577
  699WAT      O 2307   3.227   3.811   1.963  0.0995 -0.3232  0.0775
  699WAT     H1 2308   3.315   3.815   2.000 -0.1357  0.9817  0.5274
  699WAT     H2 2309   3.171   3.854   2.027 -0.9367 -1.3876 -0.0608
  700WAT      O 2310   2.676   1.017   4.821 -0.8519 -0.1362 -0.4712
  700WAT     H1 2311   2.614   1.088   4.806 -0.1765  0.4588 -0.5127
  700WAT     H2 2312   2.737   1.021   4.746 -0.0942  0.0180  0.1404
  701WAT      O 2313   1.751   0.328   0.353  0.0286 -0.1404  0.3262
  701WAT     H1 2314   1.716   0.409   0.389 -1.1633 -0.5986  0.2268
  701WAT     H2 2315   1.801   0.356   0.276 -1.0698  0.4310 -0.1974
  702WAT      O 2316   2.086   2.465   1.773  0.5818  0.0131  0.0882
  702WAT     H1 2317   2.015   2.420   1.818  1.0010  0.0042  0.7533
  702WAT     H2 2318   2.080   2.435   1.682  1.3152 -1.9824  0.6616
  703WAT      O 2319   0.318   1.027   4.567 -0.2278 -0.2215 -0.2600
  703WAT     H1 2320   0.224   1.008   4.566 -0.5977  1.3824  0.9333
  703WAT     H2 2321   0.326   1.107   4.515  0.6977 -1.0682 -1.4858
  704WAT      O 2322   2.905   2.902   1.278  0.0927 -0.4535  0.4268
  704WAT     H1 2323   2.859   2.983   1.260  0.2693 -0.4617 -0.0754
  704WAT     H2 2324   2.996   2.928   1.295  0.2747 -0.5916 -0.2996
  705WAT      O 2325   1.231   1.389   2.769  0.7378 -0.4206 -0.2429
  705WAT     H1 2326   1.178   1.342   2.705 -1.3124 -0.3652  1.3167
  705WAT     H2 2327   1.317   1.398   2.727  0.3949 -3.0649 -1.7129
  706WAT      O 2328   1.337   3.044   3.594  0.3085  0.1555  0.1845
  706WAT     H1 2329   1.315   3.075   3.506 -1.1492  1.2579  0.8892
  706WAT     H2 2330   1.268   2.981   3.615  1.1550 -0.7844  0.2119
  707WAT      O 2331   3.942   3.104   5.001  0.1041  0.0370  0.5560
  707WAT     H1 2332   3.959   3.017   5.039 -0.8937 -0.7474 -0.7172
  707WAT     H2 2333   3.912   3.086   4.912  1.0586  1.7644 -0.1655
  708WAT      O 2334   1.873   0.548   3.068 -0.0497  0.3757 -0.3026
  708WAT     H1 2335   1.908   0.594   2.991 -1.2530  0.5127 -0.7923
  708WAT     H2 2336   1.804   0.605   3.101  1.0496  0.7469  1.4627
  709WAT      O 2337   3.408   3.711   0.108  0.0525  0.0416 -0.9406
  709WAT     H1 2338   3.489   3.748   0.073 -0.5925  1.5017 -0.9682
  709WAT     H2 2339   3.366   3.672   0.031  0.4361 -0.1747 -1.0446
  710WAT      O 2340   4.302   1.627   1.130 -0.0211 -0.2916 -0.3588
  710WAT     H1 2341   4.310   1.558   1.064 -0.0281  0.2630 -0.9464
  710WAT     H2 2342   4.208   1.643   1.137  0.0058 -0.0330 -0.5553
  711WAT      O 2343   1.678   4.960   3.133 -0.3044 -0.3433 -0.2686
  711WAT     H1 2344   1.732   4.883   3.152 -1.8435 -1.2886  0.4341
  711WAT     H2 2345   1.697   4.979   3.041  1.5537 -0.3445  0.0628
  712WAT      O 2346   2.835   0.145   5.218 -0.0113  0.0787  0.2882
  712WAT     H1 2347   2.886   0.074   5.178  2.4566  0.8249  1.9129
  712WAT     H2 2348   2.812   0.112   5.304  0.5681  0.9478  0.7929
  713WAT      O 2349   2.378   1.561   4.541 -0.1620 -0.2303 -0.2849
  713WAT     H1 2350   2.317   1.622   4.498  0.2451  1.0803  0.9196
  713WAT     H2 2351   2.323   1.512   4.602 -0.1527  0.3501  0.1893
  714WAT      O 2352   0.242   1.684   3.481  0.0151 -0.2235 -0.3106
  714WAT     H1 2353   0.298   1.608   3.468 -1.5621 -1.3899 -0.6053
  714WAT     H2 2354   0.206   1.702   3.394 -1.7173 -0.8740  0.2286
  715WAT      O 2355   3.143   0.815   2.555 -0.3615 -0.0904 -0.3509
  715WAT     H1 2356   3.168   0.843   2.643  1.5503  0.0969 -0.9003
  715WAT     H2 2357   3.159   0.721   2.554 -1.9221 -0.3819 -0.0403
  716WAT      O 2358   3.328   3.631   3.535 -0.2038 -0.5264 -0.5494
  716WAT     H1 2359   3.266   3.588   3.476  0.2044 -0.1604 -1.2493
  716WAT     H2 2360   3.370   3.559   3.582  0.5157 -0.9030 -1.7480
  717WAT      O 2361   1.239   1.540   3.281 -0.0594  0.0068  0.1091
  717WAT     H1 2362   1.234   1.457   3.329  0.2442  0.3257  0.7021
  717WAT     H2 2363   1.241   1.514   3.189 -0.0302 -0.6407  0.2848
  718WAT      O 2364   0.051   0.962   4.620  0.6460  0.7237  0.4992
  718WAT     H1 2365   0.024   1.053   4.615 -0.4498  0.5193  2.0395
  718WAT     H2 2366  -0.025   0.912   4.591  1.0644  0.2833  0.1478
  719WAT      O 2367   2.211   2.546   1.090  0.4220 -0.2230  0.3463
  719WAT     H1 2368   2.189   2.596   1.169 -0.2790 -0.8653  0.5737
  719WAT     H2 2369   2.264   2.606   1.038 -0.7269  0.8981  0.4281
  720WAT      O 2370   2.742   1.160   1.723  0.5461 -0.6491 -0.2076
  720WAT     H1 2371   2.800   1.232   1.697 -1.9036  1.0041 -1.4460
  720WAT     H2 2372   2.676   1.202   1.779 -0.0998 -2.2386  0.2745
  721WAT      O 2373   0.674   0.196   0.316 -0.4658 -0.1068  0.0292
  721WAT     H1 2374   0.651   0.244   0.395  0.2379 -1.1112  0.8756
  721WAT     H2 2375   0.754   0.238   0.284  0.1484 -0.6736  0.7663
  722WAT      O 2376   0.093   4.444   2.241 -0.0712  0.0317 -0.0462
  722WAT     H1 2377   0.017   4.460   2.184  0.8366  0.2409 -1.2585
  722WAT     H2 2378   0.156   4.512   2.214  0.2684  0.3312  1.4540
  723WAT      O 2379   0.367   4.652   1.616 -0.3836  0.7037  0.7950
  723WAT     H1 2380   0.393   4.744   1.612 -0.3677  0.6692 -0.1097
  723WAT     H2 2381   0.274   4.654   1.641 -0.4974  0.9856  0.3612
  724WAT      O 2382   0.671   5.098   4.878  0.4038  0.1863 -0.2515
  724WAT     H1 2383   0.668   5.161   4.950 -2.0425 -0.3506  0.1992
  724WAT     H2 2384   0.697   5.149   4.802  0.5076  1.3027  0.5185
  725WAT      O 2385   2.834   2.774   1.526 -0.4973 -0.1315  0.1278
  725WAT     H1 2386   2.874   2.822   1.453 -0.3471  2.9398  2.0604
  725WAT     H2 2387   2.906   2.721   1.560  0.2225  0.5437 -0.2810
  726WAT      O 2388   1.508   0.230   3.593  0.2005 -0.3034 -0.1417
  726WAT     H1 2389   1.601   0.227   3.569  0.1623 -1.1438 -0.2105
  726WAT     H2 2390   1.504   0.189   3.679 -0.0924 -0.1762 -0.0935
  727WAT      O 2391   3.216   0.588   0.031 -0.0751  0.2335 -0.2355
  727WAT     H1 2392   3.143   0.528   0.017  0.2203 -0.2705  0.3118
  727WAT     H2 2393   3.183   0.673   0.004 -1.0511  0.1097  0.4942
  728WAT      O 2394   2.141   4.564   0.601 -0.3298 -0.3780 -0.0708
  728WAT     H1 2395   2.099   4.643   0.566 -1.4127  0.5492  2.9545
  728WAT     H2 2396   2.234   4.579   0.588 -0.5744  0.8868 -0.5861
  729WAT      O 2397   2.924   3.317   2.264 -0.3608 -0.1396  0.1799
  729WAT     H1 2398   2.957   3.287   2.179 -0.1244  0.0278  0.2106
  729WAT     H2 2399   2.925   3.413   2.258 -0.1838 -0.1249  0.4308
  730WAT      O 2400   3.651   2.244   2.191 -0.2257 -0.0866  0.1401
  730WAT     H1 2401   3.721   2.178   2.187 -0.3404 -0.2046  0.0856
  730WAT     H2 2402   3.578   2.205   2.143 -0.8749 -0.6173  1.4935
  731WAT      O 2403   2.897   4.778   1.247 -0.2205  0.6589 -0.2770
  731WAT     H1 2404   2.987   4.746   1.248 -0.0968  1.0060  0.5589
  731WAT     H2 2405   2.870   4.775   1.338 -0.5363  1.9866 -0.3018
  732WAT      O 2406   4.016   1.937   0.400 -0.0541 -0.6129 -0.3690
  732WAT     H1 2407   4.027   1.999   0.328  2.9075 -2.8415 -2.0560
  732WAT     H2 2408   4.035   1.852   0.362 -0.8450 -2.2316  2.5383
  733WAT      O 2409   3.858   2.437   3.377 -0.0012 -0.5528  0.0317
  733WAT     H1 2410   3.864   2.461   3.285 -0.3727  0.1450  0.1853
  733WAT     H2 2411   3.898   2.350   3.382  3.4696  0.8831 -0.1711
  734WAT      O 2412   2.209   0.128   1.973 -0.1212  0.6463  0.5659
  734WAT     H1 2413   2.300   0.122   2.000  0.1655 -1.4095 -0.6322
  734WAT     H2 2414   2.212   0.173   1.889  0.3299 -2.5665 -1.3097
  735WAT      O 2415   2.407   0.310   2.586 -0.2219  0.2065 -0.2264
  735WAT     H1 2416   2.436   0.240   2.645 -2.4214  0.2039  0.9367
  735WAT     H2 2417   2.462   0.385   2.609 -0.1679 -0.1774  0.9317
  736WAT      O 2418   1.051   4.346   1.300 -0.2948  0.4522 -0.8889
  736WAT     H1 2419   0.963   4.382   1.289 -0.2097  0.4449 -1.6318
  736WAT     H2 2420   1.109   4.418   1.275 -0.0544  0.8085  0.5967
  737WAT      O 2421   2.915   3.899   3.791 -0.0238 -0.5305 -0.1131
  737WAT     H1 2422   2.867   3.887   3.873 -1.3477  2.6320 -0.2654
  737WAT     H2 2423   2.964   3.818   3.779 -2.5295 -2.5079  1.9528
  738WAT      O 2424   3.948   2.099   1.147 -0.0797  0.4873 -0.1413
  738WAT     H1 2425   4.039   2.083   1.122 -0.4622 -1.6245 -0.4336
  738WAT     H2 2426   3.901   2.100   1.063 -0.7296 -1.9197  0.1065
  739WAT      O 2427   4.144   1.705   2.579  0.1567  0.0018  0.6520
  739WAT     H1 2428   4.117   1.681   2.668  0.3858  1.2066  1.0717
  739WAT     H2 2429   4.062   1.727   2.535 -0.1166 -1.9372  0.0983
  740WAT      O 2430   2.730   3.510   3.631 -0.2062  0.8760 -0.2913
  740WAT     H1 2431   2.656   3.541   3.684 -0.5971  0.2315 -0.4520
  740WAT     H2 2432   2.739   3.418   3.654 -0.2361  0.6433 -1.1715
  741WAT      O 2433   4.385   3.045   3.482  0.4751  0.3504  0.3932
  741WAT     H1 2434   4.381   2.987   3.405  0.7696  1.6367 -0.6295
  741WAT     H2 2435   4.447   3.001   3.540 -0.8486 -1.3854  0.5722
  742WAT      O 2436   2.065   4.102   3.307 -0.1065  0.6181 -0.1949
  742WAT     H1 2437   2.066   4.160   3.230  0.6120  0.4013 -0.3568
  742WAT     H2 2438   2.087   4.159   3.380 -1.2877  0.9298 -0.0609
  743WAT      O 2439   1.079   5.020   4.211  0.6664 -0.5304 -0.2764
  743WAT     H1 2440   1.016   4.977   4.153  0.6006 -0.7935 -0.0132
  743WAT     H2 2441   1.080   4.965   4.289  2.2390 -1.2991 -0.7920
  744WAT      O 2442   3.340   0.105   4.383 -0.4706 -0.2401 -0.0654
  744WAT     H1 2443   3.278   0.150   4.326  1.5266  1.4444 -1.0720
  744WAT     H2 2444   3.345   0.160   4.462  0.8359  0.5353 -0.6511
  745WAT      O 2445   1.053   0.179   0.288 -0.7943  0.1030 -0.6038
  745WAT     H1 2446   1.053   0.087   0.262 -2.4303  0.4361 -1.9795
  745WAT     H2 2447   1.145   0.199   0.305 -0.2174 -1.3922 -1.7051
  746WAT      O 2448   0.089   3.662   1.806 -0.0019 -0.4447 -0.6843
  746WAT     H1 2449   0.127   3.641   1.721  0.7001  1.9377 -1.0246
  746WAT     H2 2450   0.104   3.583   1.859 -0.3150 -1.9247 -2.6611
  747WAT      O 2451   3.392   0.317   0.443  0.0840 -0.3711 -0.0465
  747WAT     H1 2452   3.421   0.235   0.482 -1.0072 -0.2510  1.0904
  747WAT     H2 2453   3.440   0.323   0.361  1.8018 -1.0756  0.8546
  748WAT      O 2454   2.065   0.040   0.784 -0.0608  0.1111 -0.7377
  748WAT     H1 2455   2.027  -0.018   0.718  0.0035  0.0552 -0.7265
  748WAT     H2 2456   2.032   0.127   0.762 -0.2130  0.0609 -0.7154
  749WAT      O 2457   0.004   1.852   1.939 -0.3707 -0.1105  0.4914
  749WAT     H1 2458  -0.035   1.842   1.852 -0.4459  1.1076  0.3746
  749WAT     H2 2459  -0.032   1.934   1.972  0.3637 -0.1064  1.3094
  750WAT      O 2460   0.183   2.367   4.716 -0.5092  0.5101  0.0738
  750WAT     H1 2461   0.261   2.364   4.772 -0.0685  1.1106 -0.4925
  750WAT     H2 2462   0.216   2.394   4.630 -1.0086 -1.4815 -0.7906
  751WAT      O 2463   0.116   3.289   5.154  0.4347  0.1719 -0.4007
  751WAT     H1 2464   0.052   3.234   5.200  0.6354  0.2035 -0.0800
  751WAT     H2 2465   0.119   3.253   5.065  1.6185 -1.2672  0.1732
  752WAT      O 2466   2.629   5.080   4.915  0.3019  0.4181  0.4829
  752WAT     H1 2467   2.603   5.049   5.001  1.9462  0.8227  1.1583
  752WAT     H2 2468   2.696   5.018   4.886  0.2281  0.6525 -0.2279
  753WAT      O 2469   2.678   1.861   1.529  0.2995 -0.7220  0.4716
  753WAT     H1 2470   2.664   1.955   1.531  0.8675 -0.6258  2.1113
  753WAT     H2 2471   2.626   1.827   1.602  0.1748 -1.6628 -0.0355
  754WAT      O 2472   2.196   2.756   3.900 -0.0662 -0.3200  0.1661
  754WAT     H1 2473   2.260   2.732   3.967 -0.6295 -0.6826  0.5756
  754WAT     H2 2474   2.174   2.847   3.919  0.0291 -0.3170  0.2623
  755WAT      O 2475   2.834   0.982   1.498  0.8116 -0.2488 -0.0516
  755WAT     H1 2476   2.910   1.002   1.443  0.9430 -1.5491 -0.3656
  755WAT     H2 2477   2.855   1.022   1.583  0.8070  1.3842 -0.7817
  756WAT      O 2478   2.127   1.567   2.172 -0.1555  0.0084  0.0193
  756WAT     H1 2479   2.128   1.633   2.241  0.9583 -0.4784  0.4949
  756WAT     H2 2480   2.178   1.494   2.208 -3.0979 -2.0400  0.4048
  757WAT      O 2481   0.807   1.790   0.458 -0.0481  0.4063  0.2241
  757WAT     H1 2482   0.774   1.800   0.547 -0.7527  0.5448 -0.0507
  757WAT     H2 2483   0.880   1.728   0.466 -0.4577 -0.0030  0.8088
  758WAT      O 2484   3.616   0.271   1.829 -0.2727 -0.9282  0.5926
  758WAT     H1 2485   3.653   0.281   1.917 -1.2495 -2.0057  1.1464
  758WAT     H2 2486   3.548   0.338   1.824  0.0531 -0.5984  0.4928
  759WAT      O 2487   3.375   3.075   2.354 -0.0599 -0.0445 -0.5574
  759WAT     H1 2488   3.397   2.983   2.336  0.8488  0.2950 -1.2452
  759WAT     H2 2489   3.289   3.071   2.397 -0.0663 -1.2096 -0.6497
  760WAT      O 2490   3.683   4.269   4.181 -0.6807 -0.3338  0.1706
  760WAT     H1 2491   3.650   4.179   4.181 -0.1082 -0.5530 -0.2317
  760WAT     H2 2492   3.697   4.290   4.273 -0.5444 -0.7614  0.2499
  761WAT      O 2493   1.811   2.904   1.737 -0.3174 -0.3733  0.4389
  761WAT     H1 2494   1.761   2.919   1.656 -2.1218  0.2768  1.6015
  761WAT     H2 2495   1.861   2.984   1.750  0.5724 -0.7751 -0.4039
  762WAT      O 2496   3.669   3.428   2.996  0.0722 -0.0605  0.1263
  762WAT     H1 2497   3.679   3.335   3.017  0.6217  0.2259  1.2206
  762WAT     H2 2498   3.580   3.435   2.961 -1.2288 -0.5267  3.0218
  763WAT      O 2499   0.884   4.330   1.536 -0.8777 -0.5352  0.3733
  763WAT     H1 2500   0.912   4.422   1.543 -1.3466 -0.3192 -0.4240
  763WAT     H2 2501   0.961   4.285   1.501 -0.9624 -0.2543 -0.1930
  764WAT      O 2502   2.917   3.064   1.868 -0.0075 -0.4497 -0.3639
  764WAT     H1 2503   2.954   3.145   1.903 -2.0469  1.3817 -2.0288
  764WAT     H2 2504   2.984   2.998   1.880  2.0760  1.6905  0.3957
  765WAT      O 2505   3.778   1.967   0.516  0.3769 -0.4817 -0.4506
  765WAT     H1 2506   3.764   2.058   0.489 -1.7203 -0.9301 -1.0096
  765WAT     H2 2507   3.868   1.949   0.489  0.2734  0.8982 -1.9023
  766WAT      O 2508   1.972   2.598   3.951 -0.8203  0.2980 -0.9078
  766WAT     H1 2509   2.043   2.641   3.902  1.3468 -0.1776  1.5619
  766WAT     H2 2510   1.928   2.670   3.996 -0.4502  0.3877 -0.6875
  767WAT      O 2511   0.356   0.058   0.516  0.4895  0.2894 -0.0957
  767WAT     H1 2512   0.333   0.042   0.425  1.1041  0.2614 -0.2482
  767WAT     H2 2513   0.332   0.150   0.531  2.0641  0.8571 -0.8282
  768WAT      O 2514   3.649   4.529   0.535  0.5196 -1.0492 -0.5476
  768WAT     H1 2515   3.709   4.492   0.471  0.5626 -2.2740  0.1613
  768WAT     H2 2516   3.692   4.514   0.620  0.3407  0.2827 -0.2021
  769WAT      O 2517   2.115   3.263   2.574 -0.0542  0.0211 -0.2992
  769WAT     H1 2518   2.111   3.324   2.648 -2.2140 -0.1996 -0.1700
  769WAT     H2 2519   2.104   3.317   2.497  2.6141  0.3061 -0.5850
  770WAT      O 2520   3.282   4.166   5.109  0.1069 -0.1292  0.2028
  770WAT     H1 2521   3.320   4.252   5.092 -0.4910 -0.1304 -1.3010
  770WAT     H2 2522   3.226   4.149   5.033  0.6943 -2.1146  0.1633
  771WAT      O 2523   1.246   1.425   3.032 -0.1054 -0.2779 -0.3411
  771WAT     H1 2524   1.235   1.348   3.087  0.8778 -0.2928 -0.1307
  771WAT     H2 2525   1.218   1.398   2.945 -1.5934 -0.2829  0.1271
  772WAT      O 2526   3.527   1.181   1.371  0.5186 -0.4687  0.4036
  772WAT     H1 2527   3.549   1.165   1.280 -0.8209 -0.9155  0.1269
  772WAT     H2 2528   3.611   1.195   1.415  1.0713  2.4724 -1.3523
  773WAT      O 2529   2.899   4.809   3.707 -0.6795  0.2818 -0.8266
  773WAT     H1 2530   2.971   4.870   3.689 -0.6120  0.2388 -0.7030
  773WAT     H2 2531   2.844   4.854   3.770  0.6543 -0.7248  1.1768
  774WAT      O 2532   2.927   0.274   1.728  0.5384  0.4917  0.2008
  774WAT     H1 2533   2.897   0.210   1.793 -0.1338  0.0363 -0.5424
  774WAT     H2 2534   2.852   0.287   1.670  1.4682  0.0089 -1.1678
  775WAT      O 2535   2.586   2.071   4.166 -0.4428  0.0452  0.1457
  775WAT     H1 2536   2.669   2.117   4.173 -0.4678 -0.1254  2.5126
  775WAT     H2 2537   2.597   1.993   4.221 -1.3108 -1.3771 -1.5991
  776WAT      O 2538   0.853   1.063   2.895  0.1797  0.0124 -0.0986
  776WAT     H1 2539   0.915   1.115   2.844  0.2650 -0.8419 -0.9077
  776WAT     H2 2540   0.878   0.972   2.876  0.0837 -0.3317  1.3291
  777WAT      O 2541   1.477   4.448   0.433  0.3602 -0.0055 -0.0652
  777WAT     H1 2542   1.408   4.413   0.490  0.6883 -2.7403 -1.1885
  777WAT     H2 2543   1.490   4.538   0.464 -2.6078  0.1192  1.1832
  778WAT      O 2544   3.417   1.991   5.268  0.1439  0.0680  0.6532
  778WAT     H1 2545   3.463   1.911   5.294 -0.0326  0.0730  0.9746
  778WAT     H2 2546   3.405   2.040   5.349 -0.7902 -0.1183  0.6389
  779WAT      O 2547   3.591   0.956   1.617 -0.0175 -0.0240  0.2914
  779WAT     H1 2548   3.506   0.993   1.593  0.2055 -0.3050 -1.0037
  779WAT     H2 2549   3.610   0.993   1.703  0.1497  2.8084 -0.8519
  780WAT      O 2550   4.374   3.723   1.670  1.1300 -0.3415 -0.4653
  780WAT     H1 2551   4.445   3.708   1.733  1.8194 -0.5400 -1.2803
  780WAT     H2 2552   4.317   3.786   1.714  2.6709  1.1168 -0.4379
  781WAT      O 2553   4.269   3.905   5.216  0.2598 -0.1444 -0.0508
  781WAT     H1 2554   4.283   3.960   5.294  1.4357  0.6236 -0.7652
  781WAT     H2 2555   4.269   3.967   5.143 -1.6530 -0.7568 -0.6179
  782WAT      O 2556   1.720   3.806   4.363 -1.0330  0.2516  0.3534
  782WAT     H1 2557   1.655   3.756   4.314 -2.2765  1.5293  0.6081
  782WAT     H2 2558   1.680   3.893   4.373  0.5114  0.9279  0.9633
  783WAT      O 2559   2.894   4.732   3.416 -0.3914  0.6296  0.8562
  783WAT     H1 2560   2.981   4.765   3.392 -1.1665  1.3833 -1.1627
  783WAT     H2 2561   2.901   4.637   3.406  0.0943  0.7194  0.2289
  784WAT      O 2562   3.304   1.785   0.364 -0.2291  0.2009  0.2645
  784WAT     H1 2563   3.266   1.744   0.286 -0.2766  0.3772  0.1951
  784WAT     H2 2564   3.336   1.711   0.416  2.9311  0.1412 -1.4641
  785WAT      O 2565   0.022   3.807   1.204  0.2607 -0.2000  0.3025
  785WAT     H1 2566  -0.011   3.828   1.291  1.4263 -0.2799  0.7768
  785WAT     H2 2567   0.056   3.718   1.213  1.4682  0.2255  0.0940
  786WAT      O 2568   0.474   3.500   3.384 -0.3634 -0.3342  0.1242
  786WAT     H1 2569   0.446   3.409   3.378 -0.7061 -0.1506 -1.2493
  786WAT     H2 2570   0.536   3.501   3.458  0.1538 -1.8101 -0.2605
  787WAT      O 2571   0.565   0.686   2.570 -0.1737 -0.0252 -0.3358
  787WAT     H1 2572   0.472   0.671   2.589 -0.2527 -1.3215 -1.5239
  787WAT     H2 2573   0.591   0.609   2.519  1.3681  0.6829 -0.6729
  788WAT      O 2574   0.245   2.260   3.719 -0.2839 -0.1767 -0.4928
  788WAT     H1 2575   0.310   2.326   3.695 -0.8185  0.3071 -0.6197
  788WAT     H2 2576   0.189   2.304   3.783 -1.0480 -0.2923 -1.0748
  789WAT      O 2577   3.381   1.604   0.865 -0.1233 -0.4479 -0.0683
  789WAT     H1 2578   3.410   1.643   0.948 -0.6746  0.0824 -0.1185
  789WAT     H2 2579   3.441   1.530   0.851  3.0251  2.1333 -1.5379
  790WAT      O 2580   2.809   4.405   1.370  0.0917  0.0565 -0.6614
  790WAT     H1 2581   2.742   4.338   1.355  0.3287 -0.0956 -1.0462
  790WAT     H2 2582   2.869   4.396   1.296  0.0071  0.8403 -0.8314
  791WAT      O 2583   2.470   0.241   0.448  0.3039  0.1866  0.4449
  791WAT     H1 2584   2.453   0.194   0.367  0.8326  0.0969  0.3831
  791WAT     H2 2585   2.426   0.325   0.436  0.1862  0.0852  0.1546
  792WAT      O 2586   0.639   4.354   1.896 -0.7894  0.1857  0.2988
  792WAT     H1 2587   0.699   4.408   1.844 -0.2331  0.5484  1.3001
  792WAT     H2 2588   0.596   4.298   1.831  2.0121 -1.4626 -0.2630
  793WAT      O 2589   2.284   0.078   1.026  0.0349  0.3251  0.6761
  793WAT     H1 2590   2.200   0.121   1.042  1.1499  2.2067  1.9258
  793WAT     H2 2591   2.279  -0.005   1.074 -2.1427 -1.0870 -1.7301
  794WAT      O 2592   2.568   5.119   0.472  0.3860  0.3037  0.6736
  794WAT     H1 2593   2.539   5.208   0.452  2.2513  1.3618  2.4208
  794WAT     H2 2594   2.493   5.080   0.517 -0.5143  0.9070 -0.2499
  795WAT      O 2595   3.210   2.964   3.574  0.0430 -0.3662  0.1892
  795WAT     H1 2596   3.270   2.939   3.504 -0.4079  1.5700 -0.9361
  795WAT     H2 2597   3.155   3.032   3.536 -2.1069 -1.2385  1.5599
  796WAT      O 2598   4.023   1.101   0.268  0.2607 -0.1028  0.0397
  796WAT     H1 2599   3.966   1.176   0.288 -1.4469 -1.3900  0.2591
  796WAT     H2 2600   4.106   1.140   0.241 -0.7208  1.8694 -0.2816
  797WAT      O 2601   2.412   3.644   2.807  0.3809 -0.3908 -0.0206
  797WAT     H1 2602   2.425   3.560   2.762 -1.1713 -0.1944 -0.8926
  797WAT     H2 2603   2.501   3.671   2.832  1.2051 -1.0454 -2.0124
  798WAT      O 2604   2.372   0.704   3.599 -0.2565  0.0863 -0.4382
  798WAT     H1 2605   2.347   0.654   3.677 -0.2466 -0.7244 -0.9426
  798WAT     H2 2606   2.415   0.782   3.634  0.5870 -0.6979  0.3781
  799WAT      O 2607   3.444   3.042   2.752 -0.6472  0.1356 -0.6379
  799WAT     H1 2608   3.419   3.024   2.843 -0.2684  0.8694 -0.3867
  799WAT     H2 2609   3.418   2.963   2.705 -2.8891  0.6016 -0.2964
  800WAT      O 2610   3.794   3.772   4.937 -0.2291 -0.4192  0.3689
  800WAT     H1 2611   3.816   3.684   4.967 -0.5616 -0.9704 -0.9238
  800WAT     H2 2612   3.876   3.808   4.904  0.8501  1.3053  4.3136
  801WAT      O 2613   1.091   3.340   0.417 -0.1854 -0.0302 -0.7341
  801WAT     H1 2614   1.156   3.395   0.372  0.1742 -1.6372 -2.3152
  801WAT     H2 2615   1.060   3.394   0.489  0.9164  1.8289 -1.5627
  802WAT      O 2616   3.964   0.100   4.807 -0.1372  0.1618  0.0111
  802WAT     H1 2617   3.889   0.154   4.784  0.1480  1.3744  1.7287
  802WAT     H2 2618   4.038   0.140   4.760  0.1304  1.5517  1.5134
  803WAT      O 2619   2.305   0.580   4.040  0.0423  0.3425  0.5214
  803WAT     H1 2620   2.260   0.589   3.956  1.3276 -0.6643 -0.3066
  803WAT     H2 2621   2.291   0.665   4.083 -1.0974  0.6818 -0.4632
  804WAT      O 2622   4.364   0.873   0.651 -0.4826  0.2681 -0.1106
  804WAT     H1 2623   4.397   0.857   0.563 -1.7897  0.6504 -0.6864
  804WAT     H2 2624   4.442   0.902   0.700  0.7963 -2.2906 -0.4361
  805WAT      O 2625   3.295   4.409   4.699 -0.0796 -0.0686 -0.0938
  805WAT     H1 2626   3.226   4.404   4.766 -0.1922  1.7651 -0.0249
  805WAT     H2 2627   3.247   4.425   4.618  0.2093  0.7838 -0.1114
  806WAT      O 2628   4.450   0.350   3.980  0.1472 -0.0059  0.8273
  806WAT     H1 2629   4.528   0.304   4.009  1.0399  0.7535 -0.2913
  806WAT     H2 2630   4.483   0.427   3.934 -1.1966 -0.5864 -1.2501
  807WAT      O 2631   3.015   3.653   3.788  0.0490 -0.0311  0.6001
  807WAT     H1 2632   2.982   3.587   3.850  0.0166 -0.5592  0.0302
  807WAT     H2 2633   3.099   3.680   3.825  0.0983 -0.4450  0.8063
  808WAT      O 2634   1.394   5.096   0.102 -0.1392 -0.0449  0.0374
  808WAT     H1 2635   1.356   5.182   0.119  1.3389  0.6209  0.1334
  808WAT     H2 2636   1.470   5.092   0.160 -1.2861 -2.2492  1.5301
  809WAT      O 2637   2.514   1.636   4.163  0.0682 -0.1609 -0.2691
  809WAT     H1 2638   2.552   1.707   4.214  0.6349  0.3188 -1.3391
  809WAT     H2 2639   2.523   1.663   4.072 -0.1855 -1.3662 -0.6794
  810WAT      O 2640   1.109   1.763   4.959  0.6010  0.6723  0.6058
  810WAT     H1 2641   1.088   1.804   4.875 -1.1506 -0.5376  0.3891
  810WAT     H2 2642   1.105   1.669   4.942  2.4313  0.3796  1.5662
  811WAT      O 2643   0.491   1.697   3.236  0.6786  0.9180  0.0916
  811WAT     H1 2644   0.396   1.708   3.238  0.5887  0.2807 -0.3479
  811WAT     H2 2645   0.506   1.608   3.268  1.1373  1.0662  0.3001
  812WAT      O 2646   0.923   3.594   0.089 -0.2002  0.0289 -0.6813
  812WAT     H1 2647   0.906   3.608  -0.005 -0.5343  0.2190 -0.5960
  812WAT     H2 2648   0.914   3.500   0.102  1.8873 -0.2948 -1.2342
  813WAT      O 2649   2.080   3.630   2.621 -0.2278 -0.9017  0.2491
  813WAT     H1 2650   2.100   3.563   2.686 -1.1483 -0.2507  1.2406
  813WAT     H2 2651   1.996   3.666   2.649  1.1361  2.0631  0.9683
  814WAT      O 2652   0.771   3.954   3.920  0.3962 -0.3328 -0.2037
  814WAT     H1 2653   0.734   3.993   3.999 -1.3198 -1.2968 -0.4840
  814WAT     H2 2654   0.699   3.956   3.857  1.2701 -0.9781 -1.2469
  815WAT      O 2655   2.657   1.619   1.715  0.2745 -0.0375  0.2770
  815WAT     H1 2656   2.727   1.673   1.678  0.4914  0.4977  1.4082
  815WAT     H2 2657   2.629   1.667   1.794 -1.8837  0.1549 -0.5327
  816WAT      O 2658   2.843   1.825   2.878 -0.1818 -0.2236  0.3246
  816WAT     H1 2659   2.883   1.740   2.897  0.6531  0.3139  1.0641
  816WAT     H2 2660   2.914   1.875   2.838 -0.8447 -0.0692 -0.6805
  817WAT      O 2661   2.161   2.120   1.588 -0.1624  0.0919 -0.2285
  817WAT     H1 2662   2.131   2.199   1.541 -1.4850  0.0291  0.4633
  817WAT     H2 2663   2.223   2.079   1.528  2.3856  2.8066  0.2583
  818WAT      O 2664   0.991   3.645   2.706 -0.9118  0.0557  0.4223
  818WAT     H1 2665   0.978   3.550   2.701 -0.8611  0.0897 -0.5310
  818WAT     H2 2666   1.083   3.658   2.684 -0.7608  0.2877  1.1600
  819WAT      O 2667   3.068   0.608   3.845  0.0410 -0.4253 -0.4909
  819WAT     H1 2668   3.003   0.581   3.779  0.4575  0.0650 -1.1136
  819WAT     H2 2669   3.018   0.615   3.926 -0.6975 -0.0066 -0.9709
  820WAT      O 2670   2.669   5.130   0.150 -0.6593  0.8834 -0.6345
  820WAT     H1 2671   2.688   5.218   0.183  1.5413 -0.7630  3.2383
  820WAT     H2 2672   2.596   5.100   0.203 -0.8841  0.0811 -1.3776
  821WAT      O 2673   2.840   0.522   2.042  0.0187  0.4558  0.4686
  821WAT     H1 2674   2.795   0.453   1.992  1.0564  0.4922 -0.5679
  821WAT     H2 2675   2.775   0.552   2.105 -0.7435 -0.8637  0.3515
  822WAT      O 2676   4.159   2.689   3.438  0.4448  0.6352 -0.5063
  822WAT     H1 2677   4.136   2.655   3.525  0.2535 -1.1457 -1.2228
  822WAT     H2 2678   4.152   2.784   3.448 -1.7195  0.4155  0.8563
  823WAT      O 2679   2.765   2.450   0.450 -0.2893  0.1383 -0.0615
  823WAT     H1 2680   2.783   2.439   0.357  0.7814 -0.9714  0.2556
  823WAT     H2 2681   2.719   2.371   0.476 -1.4598  0.8700  0.1697
  824WAT      O 2682   0.698   0.471   1.147 -0.0669  0.0986  0.0155
  824WAT     H1 2683   0.760   0.544   1.144  1.4194 -1.1264 -1.6032
  824WAT     H2 2684   0.716   0.427   1.230  0.3303  0.5131  0.1510
  825WAT      O 2685   2.920   3.480   4.663 -0.0675 -0.4582  0.2281
  825WAT     H1 2686   3.008   3.514   4.645 -0.0873  0.0178  0.9562
  825WAT     H2 2687   2.877   3.478   4.578  0.3564  0.1806 -0.0104
  826WAT      O 2688   2.335   2.823   0.452  0.0375 -0.1100  0.2191
  826WAT     H1 2689   2.317   2.827   0.546 -0.5872  0.4864  0.0777
  826WAT     H2 2690   2.419   2.776   0.446  1.1967  1.7352  1.1908
  827WAT      O 2691   2.115   1.527   4.358  0.6646  0.2090  0.3396
  827WAT     H1 2692   2.129   1.511   4.265 -0.5618  0.7126  0.0437
  827WAT     H2 2693   2.128   1.441   4.399  2.2869  0.1981 -0.1339
  828WAT      O 2694   2.305   3.124   0.543 -0.1913 -0.3752  0.3260
  828WAT     H1 2695   2.284   3.179   0.619 -0.0566 -0.4973  0.4536
  828WAT     H2 2696   2.391   3.088   0.564 -0.0994 -0.3125  0.0581
  829WAT      O 2697   4.130   3.178   1.198  0.1900  0.8050 -0.0507
  829WAT     H1 2698   4.132   3.083   1.199 -0.4431  0.7699 -0.7505
  829WAT     H2 2699   4.120   3.203   1.290  1.5075  0.2502  0.2570
  830WAT      O 2700   3.132   1.666   0.726 -0.3560 -0.0793 -0.3502
  830WAT     H1 2701   3.194   1.620   0.782  1.0990  2.3336  0.1745
  830WAT     H2 2702   3.155   1.638   0.637  0.1892 -0.6607 -0.0312
  831WAT      O 2703   3.608   2.678   2.665 -0.3459 -0.0230 -0.0266
  831WAT     H1 2704   3.655   2.638   2.592 -0.2903 -1.0394  0.5506
  831WAT     H2 2705   3.531   2.718   2.625 -0.9805 -1.6596 -0.4998
  832WAT      O 2706   0.234   3.316   1.255 -0.2003 -0.3150  0.6604
  832WAT     H1 2707   0.267   3.348   1.339 -0.2469 -1.6342  1.2154
  832WAT     H2 2708   0.290   3.240   1.235  0.7335  0.7908 -1.2190
  833WAT      O 2709   0.437   3.898   5.076 -0.6003 -0.1868  0.3159
  833WAT     H1 2710   0.477   3.892   4.989 -0.0101  0.4240  0.5394
  833WAT     H2 2711   0.432   3.992   5.094 -2.4239 -0.2163  0.1765
  834WAT      O 2712   1.110   0.245   1.371  0.4497 -0.4387  0.2271
  834WAT     H1 2713   1.191   0.201   1.345  0.9653  0.6233 -0.0179
  834WAT     H2 2714   1.122   0.336   1.342 -0.3799 -0.0200  1.1555
  835WAT      O 2715   3.741   2.891   4.167 -0.3850  0.0031  0.6054
  835WAT     H1 2716   3.753   2.962   4.230  0.9393 -1.2336  1.8394
  835WAT     H2 2717   3.711   2.817   4.221 -1.6373 -0.4341 -0.6291
  836WAT      O 2718   2.465   3.821   4.510  0.0307  0.0352 -0.4111
  836WAT     H1 2719   2.402   3.802   4.579  1.7153 -0.5415  1.0312
  836WAT     H2 2720   2.439   3.764   4.438 -0.1390 -1.4144  0.7511
  837WAT      O 2721   2.441   2.219   0.720 -0.1610 -0.1243  0.7752
  837WAT     H1 2722   2.532   2.192   0.737 -0.8881 -1.7888  2.3103
  837WAT     H2 2723   2.406   2.148   0.665 -0.3210  0.9663 -0.5963
  838WAT      O 2724   1.321   1.085   2.430 -0.1844 -0.0750  0.1769
  838WAT     H1 2725   1.248   1.025   2.444 -1.0385  1.1376  1.2189
  838WAT     H2 2726   1.331   1.088   2.335 -0.9721 -0.8635  0.0523
  839WAT      O 2727   3.991   2.781   2.968  0.2487 -0.4314 -0.1786
  839WAT     H1 2728   4.081   2.811   2.978  0.3610  0.2413 -2.6133
  839WAT     H2 2729   3.968   2.803   2.878 -1.6577 -2.4587 -0.2854
  840WAT      O 2730   1.478   1.897   0.799  0.2758  0.2731  0.2454
  840WAT     H1 2731   1.540   1.969   0.804 -0.3057  0.7684  0.5416
  840WAT     H2 2732   1.393   1.940   0.784 -0.1281 -0.3246  0.7514
  841WAT      O 2733   0.816   3.434   1.404  0.2306 -0.1978 -0.2618
  841WAT     H1 2734   0.745   3.497   1.394  0.0626 -0.1593  1.0255
  841WAT     H2 2735   0.886   3.483   1.448 -0.1328 -1.0373  1.3163
  842WAT      O 2736   0.435   1.358   1.385  0.0690  0.2410  0.3062
  842WAT     H1 2737   0.364   1.374   1.323  0.3057 -1.7668 -0.5543
  842WAT     H2 2738   0.390   1.330   1.465 -0.1643 -0.6678 -0.1220
  843WAT      O 2739   0.866   4.917   3.204  0.3324  0.3337  0.8745
  843WAT     H1 2740   0.953   4.891   3.233 -0.5178 -3.3799  0.5098
  843WAT     H2 2741   0.877   4.938   3.111  0.5237 -2.6026  0.1482
  844WAT      O 2742   2.908   3.400   1.202  0.2306 -0.2295 -0.1300
  844WAT     H1 2743   2.947   3.368   1.121 -0.4473 -0.4562 -0.3747
  844WAT     H2 2744   2.836   3.340   1.219 -0.4595  0.5970 -0.0767
  845WAT      O 2745   0.917   1.133   3.372  0.2403 -0.0767 -0.3661
  845WAT     H1 2746   0.951   1.202   3.315  1.1474 -1.1348 -1.1618
  845WAT     H2 2747   0.920   1.054   3.317 -2.4518 -0.4596 -0.1004
  846WAT      O 2748   3.796   3.091   0.434 -0.2142 -0.1074  0.9332
  846WAT     H1 2749   3.867   3.150   0.458 -0.0039 -0.8043  2.0763
  846WAT     H2 2750   3.723   3.117   0.489 -0.2609 -0.6204  1.1143
  847WAT      O 2751   1.948   2.685   3.635 -0.3837 -0.0056  0.4876
  847WAT     H1 2752   1.864   2.716   3.601  0.7885  1.4307 -1.3142
  847WAT     H2 2753   2.010   2.705   3.566  1.5841 -0.3569  2.0607
  848WAT      O 2754   2.452   1.058   0.479  0.6859  0.2724 -0.1124
  848WAT     H1 2755   2.522   1.033   0.540 -0.4219 -1.0567  0.6596
  848WAT     H2 2756   2.467   1.003   0.401  2.5106  2.4559 -1.4078
  849WAT      O 2757   4.248   1.290   2.436  0.2426  0.1925 -0.2293
  849WAT     H1 2758   4.299   1.359   2.392 -1.4944  1.6840 -0.0403
  849WAT     H2 2759   4.231   1.226   2.367  0.7289  0.6431 -0.7843
  850WAT      O 2760   0.490   4.201   4.998  0.3038 -0.4697  0.3393
  850WAT     H1 2761   0.466   4.248   4.918  0.6463 -1.6745 -0.4769
  850WAT     H2 2762   0.415   4.215   5.056 -0.4901 -0.5883 -0.6278
  851WAT      O 2763   2.359   1.697   2.688 -0.2666  0.3827 -0.3642
  851WAT     H1 2764   2.351   1.740   2.603 -2.3254 -0.0720 -0.4515
  851WAT     H2 2765   2.324   1.760   2.751 -1.9467 -0.5464 -0.3128
  852WAT      O 2766   2.700   3.252   3.702  0.2281 -0.3170 -0.2679
  852WAT     H1 2767   2.637   3.229   3.634 -0.7524 -0.7137  0.7446
  852WAT     H2 2768   2.774   3.193   3.687 -0.2014 -0.7617 -0.6711
  853WAT      O 2769   0.605   3.201   3.954 -0.6295 -0.5432 -0.0053
  853WAT     H1 2770   0.700   3.209   3.968 -0.5675 -0.5251 -0.4144
  853WAT     H2 2771   0.568   3.277   3.998 -0.3926 -0.1901 -0.4006
  854WAT      O 2772   0.557   2.110   1.882 -0.0993 -0.4716  0.2893
  854WAT     H1 2773   0.539   2.192   1.927  2.9271  0.5264 -0.0649
  854WAT     H2 2774   0.592   2.136   1.797  1.3362 -2.0720  0.3230
  855WAT      O 2775   0.092   3.590   5.039  0.1565 -0.3208 -0.3553
  855WAT     H1 2776   0.098   3.504   4.997  1.2498 -0.0815 -0.7109
  855WAT     H2 2777   0.084   3.651   4.966 -2.0712 -0.1862 -0.0825
  856WAT      O 2778   3.931   1.015   3.575  0.2682  0.0486 -0.2689
  856WAT     H1 2779   3.897   1.003   3.486 -0.8312  0.0096  0.1392
  856WAT     H2 2780   4.013   0.966   3.575 -0.2913 -0.9530 -0.9373
  857WAT      O 2781   0.216   0.856   2.812 -0.8176  0.3468  0.1186
  857WAT     H1 2782   0.126   0.846   2.844 -0.6197  0.5651  0.7449
  857WAT     H2 2783   0.210   0.926   2.747 -1.2388 -0.1681 -0.4127
  858WAT      O 2784   0.349   5.044   2.843 -0.1646  0.1758 -0.2250
  858WAT     H1 2785   0.280   5.040   2.909 -0.6681  1.5099 -0.6327
  858WAT     H2 2786   0.324   4.979   2.777  0.8772 -1.9156  1.3272
  859WAT      O 2787   0.543   0.959   4.699  0.0497 -0.1432  0.0299
  859WAT     H1 2788   0.512   0.884   4.750 -0.0644  0.7343  1.3166
  859WAT     H2 2789   0.466   0.987   4.649 -1.4091  1.9408  3.0990
  860WAT      O 2790   4.506   4.915   2.536 -0.0351  0.0985  0.0494
  860WAT     H1 2791   4.556   4.875   2.607  1.3255 -0.8433 -1.3858
  860WAT     H2 2792   4.566   4.918   2.462 -1.1925  1.6773 -0.9119
  861WAT      O 2793   2.272   0.484   4.404 -0.2658  0.0277  0.1741
  861WAT     H1 2794   2.309   0.422   4.467 -0.0323 -1.3538 -1.2331
  861WAT     H2 2795   2.347   0.509   4.349 -0.7396  0.0042 -0.4958
  862WAT      O 2796   3.335   3.409   4.998 -0.4590  1.0784 -0.6630
  862WAT     H1 2797   3.425   3.379   4.986 -0.3925 -0.4788  2.5932
  862WAT     H2 2798   3.282   3.331   4.980 -0.8310  0.9503  0.8548
  863WAT      O 2799   3.866   1.268   3.989  0.4108 -0.4111 -0.6948
  863WAT     H1 2800   3.937   1.221   3.947  0.1120 -0.4320 -1.1810
  863WAT     H2 2801   3.902   1.296   4.074  1.8541  1.8017 -1.9393
  864WAT      O 2802   2.220   0.612   2.481 -0.2229 -0.0999 -0.9016
  864WAT     H1 2803   2.146   0.669   2.503  1.0235  1.5001 -0.7271
  864WAT     H2 2804   2.275   0.614   2.559 -0.4637 -2.1170 -0.6296
  865WAT      O 2805   2.596   0.756   4.821 -0.5941 -0.8142 -0.2031
  865WAT     H1 2806   2.597   0.852   4.828  0.3792 -0.9116  1.6403
  865WAT     H2 2807   2.584   0.739   4.728  3.3637  1.1346 -1.2581
  866WAT      O 2808   3.410   3.181   0.781  0.0590 -0.3162 -0.7524
  866WAT     H1 2809   3.396   3.267   0.822  1.2387 -0.4848  0.0425
  866WAT     H2 2810   3.504   3.167   0.786 -0.1918 -2.0053 -0.1560
  867WAT      O 2811   2.002   2.080   4.802 -0.7374 -0.1165 -0.4386
  867WAT     H1 2812   1.940   2.064   4.874 -0.3066  0.7802  0.1481
  867WAT     H2 2813   1.961   2.039   4.726 -1.1950 -1.1124  0.3173
  868WAT      O 2814   3.168   1.397   4.813 -0.5567  0.1830  0.0553
  868WAT     H1 2815   3.187   1.477   4.765  0.6680 -0.6541 -0.8936
  868WAT     H2 2816   3.097   1.356   4.764  1.1821 -1.0440 -1.5848
  869WAT      O 2817   1.497   4.182   1.594  0.3789  0.0905  0.0933
  869WAT     H1 2818   1.408   4.202   1.566  0.6150  1.0454 -0.0416
  869WAT     H2 2819   1.548   4.186   1.513  0.5857 -0.1809  0.2107
  870WAT      O 2820   3.136   0.914   4.022  0.3994  0.3571 -0.1920
  870WAT     H1 2821   3.156   0.987   3.965 -0.4957  0.1297 -0.8136
  870WAT     H2 2822   3.137   0.837   3.965 -0.4128  0.1156  0.0919
  871WAT      O 2823   3.876   5.047   4.119  0.7761 -0.5201  0.1103
  871WAT     H1 2824   3.874   5.092   4.034  0.7068  0.6743  0.7321
  871WAT     H2 2825   3.907   5.113   4.181 -1.3453 -0.6599  1.4369
  872WAT      O 2826   1.723   3.066   0.801 -0.2927  0.7768 -0.1482
  872WAT     H1 2827   1.629   3.047   0.798  0.1470 -1.5715 -1.4034
  872WAT     H2 2828   1.753   3.026   0.882 -0.4148  1.9843  0.5208
  873WAT      O 2829   2.380   5.089   4.646 -0.1207 -0.1436 -0.1758
  873WAT     H1 2830   2.370   5.021   4.579 -0.8306 -1.1443  0.9036
  873WAT     H2 2831   2.475   5.098   4.656 -0.0039 -1.5310  0.1714
  874WAT      O 2832   2.002   0.037   3.645  0.2959 -0.5460  1.0602
  874WAT     H1 2833   1.951   0.099   3.698  0.2709 -0.5442  1.0346
  874WAT     H2 2834   2.092   0.046   3.676  0.5823  0.6906 -0.0552
  875WAT      O 2835   4.196   2.416   4.798  0.5561 -0.4458  0.3672
  875WAT     H1 2836   4.164   2.485   4.855  0.8997  1.3342 -1.5180
  875WAT     H2 2837   4.118   2.375   4.762  0.3620  0.0537  0.2221
  876WAT      O 2838   2.805   0.778   4.464  0.6906  0.2430 -0.0487
  876WAT     H1 2839   2.843   0.737   4.541  0.6174 -0.6200 -0.4600
  876WAT     H2 2840   2.880   0.799   4.408  0.6490 -0.4855 -0.3885
  877WAT      O 2841   0.201   0.244   4.020 -0.1542 -0.0264  0.4105
  877WAT     H1 2842   0.220   0.250   3.927 -1.0461 -0.0937  0.2147
  877WAT     H2 2843   0.199   0.150   4.038  1.2179 -0.0087  0.7687
  878WAT      O 2844   2.654   0.352   1.691  0.0301 -0.1935 -0.8236
  878WAT     H1 2845   2.626   0.443   1.686 -0.1980 -0.2428 -0.4844
  878WAT     H2 2846   2.645   0.329   1.783 -2.1478 -1.2539 -1.2426
  879WAT      O 2847   2.364   4.966   1.179 -0.3401  0.1216  0.4671
  879WAT     H1 2848   2.302   4.922   1.236 -1.0811  2.5489  1.6786
  879WAT     H2 2849   2.449   4.949   1.219 -0.4137 -1.4343  0.0167
  880WAT      O 2850   2.536   0.295   2.327 -0.4069 -0.4160  0.0456
  880WAT     H1 2851   2.539   0.384   2.291 -1.5839 -0.7793 -1.0456
  880WAT     H2 2852   2.483   0.303   2.406  0.8137  0.1031  0.8432
  881WAT      O 2853   0.194   0.684   4.099 -0.2172 -0.4319 -0.5383
  881WAT     H1 2854   0.176   0.595   4.126 -0.2265 -0.5280 -0.8564
  881WAT     H2 2855   0.130   0.737   4.147 -0.2920 -0.6083 -0.4423
  882WAT      O 2856   3.180   0.523   4.363  0.0500  0.4460  0.5052
  882WAT     H1 2857   3.263   0.478   4.379 -1.0663 -1.5126  1.2972
  882WAT     H2 2858   3.162   0.509   4.271 -0.1265 -0.5171  0.6739
  883WAT      O 2859   2.640   4.925   2.594  0.8618 -0.0629 -0.1403
  883WAT     H1 2860   2.664   4.900   2.505  2.3711  0.2067  0.1613
  883WAT     H2 2861   2.719   4.967   2.629 -0.0598  0.8421  0.9489
  884WAT      O 2862   3.578   1.972   2.919 -0.6622  0.1565  0.7712
  884WAT     H1 2863   3.651   1.949   2.976 -0.9244 -2.1244  0.2889
  884WAT     H2 2864   3.523   1.893   2.917 -1.4877  0.7016 -1.3740
  885WAT      O 2865   1.758   1.516   0.538 -0.2445  0.0157 -0.0782
  885WAT     H1 2866   1.730   1.520   0.630 -1.9605 -1.0253 -0.5220
  885WAT     H2 2867   1.811   1.437   0.533  0.2795  0.3471  0.1053
  886WAT      O 2868   4.027   2.861   2.232 -0.0810  0.8365  0.3067
  886WAT     H1 2869   3.979   2.910   2.165 -1.3911 -0.6290  0.1111
  886WAT     H2 2870   3.965   2.854   2.305 -0.2600 -1.2142  0.0023
  887WAT      O 2871   0.383   3.314   2.189  0.3362  0.3151 -0.1798
  887WAT     H1 2872   0.413   3.368   2.261  0.2475  1.4127 -0.9405
  887WAT     H2 2873   0.293   3.343   2.173  0.0780 -0.4654 -0.2398
  888WAT      O 2874   2.270   4.442   2.206  0.0468  0.5815  0.6857
  888WAT     H1 2875   2.236   4.503   2.141 -1.0034 -1.3884 -0.7144
  888WAT     H2 2876   2.355   4.479   2.231  0.4380  1.4912 -1.7033
  889WAT      O 2877   2.590   1.548   3.890  0.0661 -0.2079 -0.3748
  889WAT     H1 2878   2.550   1.531   3.805  0.3927  0.0054 -0.5729
  889WAT     H2 2879   2.619   1.462   3.920  0.9910 -0.1313 -1.0097
  890WAT      O 2880   2.781   2.685   4.842  0.0472  0.5918  0.0648
  890WAT     H1 2881   2.859   2.739   4.833  0.1683  0.7855  1.9573
  890WAT     H2 2882   2.798   2.630   4.918 -1.7045  0.7334  0.5975
  891WAT      O 2883   0.411   0.351   1.250  0.1947 -0.3850 -0.4179
  891WAT     H1 2884   0.491   0.400   1.228  1.1346 -0.9619  1.4205
  891WAT     H2 2885   0.410   0.277   1.189  1.9328 -1.1954  0.4426
  892WAT      O 2886   2.615   2.115   0.213  0.5573  0.0306 -0.0680
  892WAT     H1 2887   2.671   2.161   0.151  0.7016  0.5323  0.4226
  892WAT     H2 2888   2.530   2.158   0.205 -0.5399 -2.3180 -2.6130
  893WAT      O 2889   1.870   2.490   4.477  0.4600 -0.0360 -0.3126
  893WAT     H1 2890   1.871   2.417   4.415 -2.0062  0.8853 -1.5773
  893WAT     H2 2891   1.816   2.459   4.550  0.0051  0.2602 -0.5184
  894WAT      O 2892   4.051   2.927   1.160  0.1434  0.5507 -0.5882
  894WAT     H1 2893   3.973   2.883   1.129  0.2918 -0.0485 -0.1197
  894WAT     H2 2894   4.118   2.905   1.095  0.9055 -2.1301  0.9617
  895WAT      O 2895   2.060   5.034   2.404  0.0475  0.1507  0.4024
  895WAT     H1 2896   1.993   5.076   2.458 -0.6290  1.0209 -1.0317
  895WAT     H2 2897   2.138   5.030   2.459 -0.5506  1.1894  1.3515
  896WAT      O 2898   1.105   3.621   1.108 -0.2127  0.0095  0.6993
  896WAT     H1 2899   1.020   3.594   1.073  0.3692 -1.1303  0.0910
  896WAT     H2 2900   1.165   3.552   1.079  0.6033 -0.1278  2.6083
  897WAT      O 2901   3.248   1.075   3.847  0.1648 -0.5796 -0.7667
  897WAT     H1 2902   3.192   1.050   3.773 -0.7394 -0.8329 -0.0132
  897WAT     H2 2903   3.252   1.170   3.842 -0.9743 -0.4962 -0.3895
  898WAT      O 2904   1.900   4.504   2.172 -0.1273  0.1853  0.0502
  898WAT     H1 2905   1.980   4.547   2.141  0.9253 -1.1554  0.7960
  898WAT     H2 2906   1.847   4.492   2.094  0.9151  0.0733 -0.6592
  899WAT      O 2907   0.155   4.424   0.138  0.0041  0.0190  0.0148
  899WAT     H1 2908   0.217   4.493   0.114 -0.6336  0.1269 -1.4560
  899WAT     H2 2909   0.071   4.470   0.148 -1.1238 -0.7489 -3.9126
  900WAT      O 2910   0.776   2.259   2.197 -0.3654  0.1174  0.3973
  900WAT     H1 2911   0.717   2.268   2.122  0.0032 -0.9192 -0.0282
  900WAT     H2 2912   0.863   2.275   2.160 -0.3707  1.9180  1.0743
  901WAT      O 2913   3.080   3.530   2.883  0.4787  0.0227 -0.1968
  901WAT     H1 2914   3.135   3.605   2.906  2.6378 -1.3369 -0.6784
  901WAT     H2 2915   3.100   3.464   2.949 -0.2026 -0.6910 -0.6887
  902WAT      O 2916   2.776   4.178   4.002  0.2132 -0.0412  0.5866
  902WAT     H1 2917   2.846   4.133   4.049  0.2145  2.4879  3.3134
  902WAT     H2 2918   2.806   4.269   3.998 -0.3557  0.1633 -3.4692
  903WAT      O 2919   1.220   3.178   0.818 -0.1846  0.1614  0.2494
  903WAT     H1 2920   1.266   3.112   0.766  1.0146  1.2138 -0.0778
  903WAT     H2 2921   1.270   3.259   0.804 -1.3931  1.0617  0.9362
  904WAT      O 2922   3.784   2.950   0.119  0.0044 -0.0309 -0.0119
  904WAT     H1 2923   3.766   2.990   0.204  0.5004  0.9649 -0.3614
  904WAT     H2 2924   3.736   2.867   0.121 -2.0245  1.0727  0.2911
  905WAT      O 2925   0.144   2.821   5.101  0.6615  0.3528 -0.3776
  905WAT     H1 2926   0.145   2.796   5.009  1.4031  0.2296 -0.3436
  905WAT     H2 2927   0.215   2.884   5.109  1.5668 -0.7273  0.3983
  906WAT      O 2928   0.422   1.792   0.620  0.2938 -0.1989 -0.2320
  906WAT     H1 2929   0.367   1.812   0.696  0.2699 -1.8359  0.2205
  906WAT     H2 2930   0.363   1.747   0.559  0.0103  2.0884 -1.7901
  907WAT      O 2931   1.313   2.640   4.274 -0.2243  0.4087  0.3610
  907WAT     H1 2932   1.389   2.695   4.294 -0.2919  0.0150  1.7903
  907WAT     H2 2933   1.273   2.623   4.359 -1.6990  0.2805 -0.3364
  908WAT      O 2934   0.283   2.927   3.905  0.0572  0.2197 -0.0076
  908WAT     H1 2935   0.362   2.940   3.852 -0.8482 -0.2350 -1.5274
  908WAT     H2 2936   0.211   2.926   3.842 -1.0658 -0.4910  1.2240
  909WAT      O 2937   0.461   1.953   4.295  0.4444 -0.0876 -0.3190
  909WAT     H1 2938   0.376   1.990   4.321  0.4511 -0.9766  1.0466
  909WAT     H2 2939   0.459   1.863   4.327  2.0942  0.0167  0.1595
  910WAT      O 2940   0.540   3.530   2.928  0.4446 -0.2711 -0.3173
  910WAT     H1 2941   0.627   3.496   2.906  0.0627  0.0470 -2.5504
  910WAT     H2 2942   0.556   3.621   2.953  0.6637  0.1280 -1.8331
  911WAT      O 2943   1.036   0.350   4.437 -0.1121 -0.4736 -0.0076
  911WAT     H1 2944   1.068   0.432   4.475  0.8488  0.4320 -2.5397
  911WAT     H2 2945   1.020   0.371   4.345 -0.5616 -2.9665 -0.5743
  912WAT      O 2946   2.714   2.721   2.318  0.0548 -0.6843 -0.1323
  912WAT     H1 2947   2.687   2.662   2.247  0.2446 -1.2492  0.2567
  912WAT     H2 2948   2.643   2.784   2.325 -1.7034 -2.6865  1.4872
  913WAT      O 2949   3.155   4.716   3.347 -0.2631  0.7407 -0.3413
  913WAT     H1 2950   3.212   4.650   3.308  0.9941  1.6602 -0.1038
  913WAT     H2 2951   3.185   4.799   3.310 -0.1417  1.4501  1.2729
  914WAT      O 2952   1.103   0.414   0.703 -0.0353 -0.5363  0.1063
  914WAT     H1 2953   1.042   0.346   0.674 -1.1343 -0.5852  2.3597
  914WAT     H2 2954   1.052   0.468   0.764  1.5045  0.8794  0.2158
  915WAT      O 2955   0.559   1.417   4.566  0.2304 -0.0951  0.0162
  915WAT     H1 2956   0.465   1.401   4.579  0.1715 -0.5533 -0.8476
  915WAT     H2 2957   0.589   1.339   4.519  1.1805 -0.2354  0.8502
  916WAT      O 2958   2.652   1.098   0.255  0.3980  0.1069  0.1852
  916WAT     H1 2959   2.649   1.016   0.303  0.1955 -0.7943 -1.3017
  916WAT     H2 2960   2.735   1.095   0.207 -0.3731 -0.0540 -1.2066
  917WAT      O 2961   0.996   2.492   4.725  0.0595  0.0382 -0.5510
  917WAT     H1 2962   0.913   2.455   4.753  0.1573 -1.3982 -2.0563
  917WAT     H2 2963   1.027   2.542   4.801 -0.9343 -1.5272  0.9383
  918WAT      O 2964   4.471   1.685   4.231 -0.1629  0.7684 -0.3035
  918WAT     H1 2965   4.528   1.742   4.181  1.7417  0.9773  1.9529
  918WAT     H2 2966   4.432   1.741   4.298 -0.3198 -0.0497  0.3161
  919WAT      O 2967   4.142   1.644   2.850  0.0909  0.7311 -0.2545
  919WAT     H1 2968   4.215   1.583   2.843 -1.6336 -1.4375 -0.1174
  919WAT     H2 2969   4.118   1.642   2.943  0.1493  1.8323 -0.1999
  920WAT      O 2970   2.544   4.714   2.030 -0.6619 -0.2271 -0.2394
  920WAT     H1 2971   2.455   4.747   2.041 -0.6586 -0.4780  0.6037
  920WAT     H2 2972   2.568   4.680   2.117  0.1679 -0.3694 -0.5163
  921WAT      O 2973   4.098   4.204   5.290  0.0727 -0.4670  0.1817
  921WAT     H1 2974   4.129   4.194   5.380 -1.2944  1.4274  0.9226
  921WAT     H2 2975   4.120   4.295   5.268 -0.9239 -0.4608 -0.8519
  922WAT      O 2976   0.981   2.708   0.396 -0.2643 -0.4305 -0.4640
  922WAT     H1 2977   0.980   2.649   0.321  0.3925 -1.0630  0.0145
  922WAT     H2 2978   1.029   2.785   0.366  0.3646 -0.8570 -0.5686
  923WAT      O 2979   0.139   0.669   2.284 -0.4273  0.1191  0.2654
  923WAT     H1 2980   0.170   0.757   2.265  1.3753 -0.8407 -1.7638
  923WAT     H2 2981   0.194   0.612   2.229 -1.9782 -2.2140  0.9673
  924WAT      O 2982   4.408   3.629   0.571  0.1933  0.0285  0.5468
  924WAT     H1 2983   4.385   3.709   0.524 -1.2165 -1.2014 -0.9790
  924WAT     H2 2984   4.470   3.584   0.512 -1.2657 -1.3333 -0.0099
  925WAT      O 2985   1.758   3.750   3.815 -0.6700  0.0988 -0.2764
  925WAT     H1 2986   1.835   3.800   3.790 -0.4735 -0.3426 -0.5531
  925WAT     H2 2987   1.685   3.810   3.799 -0.4049  0.4514 -0.1905
  926WAT      O 2988   3.396   0.535   3.462 -0.1068 -0.7942 -0.0003
  926WAT     H1 2989   3.379   0.609   3.404  1.6527 -0.6098 -0.3296
  926WAT     H2 2990   3.397   0.573   3.550  0.1023 -0.5429 -0.1106
  927WAT      O 2991   2.811   1.111   4.208  0.0295  0.1988 -0.4959
  927WAT     H1 2992   2.795   1.165   4.286 -0.2184 -0.3378 -0.1702
  927WAT     H2 2993   2.823   1.023   4.243  1.3383  0.1806 -0.9353
  928WAT      O 2994   1.310   3.186   1.515 -0.0773 -0.3218 -0.0546
  928WAT     H1 2995   1.329   3.278   1.498  3.8442 -1.2506 -1.7998
  928WAT     H2 2996   1.237   3.165   1.456 -0.9886  1.5982  0.3368
  929WAT      O 2997   1.167   1.855   4.701  0.3396  0.6041 -0.4867
  929WAT     H1 2998   1.250   1.902   4.712  0.3969  0.9765 -2.2231
  929WAT     H2 2999   1.169   1.825   4.611 -0.5936 -1.0573  0.0215
  930WAT      O 3000   2.585   2.039   2.046 -0.2573  0.1516 -0.3676
  930WAT     H1 3001   2.680   2.050   2.046 -0.1973 -0.2710 -1.4836
  930WAT     H2 3002   2.571   1.948   2.021 -0.8828 -1.0672  3.7289
  931WAT      O 3003   3.214   0.251   4.165 -0.0903 -0.0333  0.3504
  931WAT     H1 3004   3.228   0.343   4.140 -1.1981  0.5629  1.7527
  931WAT     H2 3005   3.262   0.201   4.100 -1.3882  1.4534 -1.9072
  932WAT      O 3006   0.952   3.051   2.781 -0.6014  0.0258  0.3751
  932WAT     H1 3007   0.901   2.970   2.779 -0.3253 -0.1826  1.2261
  932WAT     H2 3008   0.962   3.076   2.689 -0.8266 -0.8162  0.1179
  933WAT      O 3009   0.204   0.681   3.222 -0.1750  0.2048  0.3073
  933WAT     H1 3010   0.224   0.702   3.314  0.1186  0.1531  0.2567
  933WAT     H2 3011   0.254   0.745   3.172 -2.7836  2.3687  0.1984
  934WAT      O 3012   2.436   0.021   2.288 -0.1852  0.2126  0.0677
  934WAT     H1 3013   2.482   0.101   2.311  1.0093 -0.6355  0.7420
  934WAT     H2 3014   2.448   0.013   2.193  1.3394 -0.1326  0.2607
  935WAT      O 3015   4.468   3.458   2.033 -0.4450  0.3267  0.2123
  935WAT     H1 3016   4.392   3.487   1.982  0.6826 -0.5967 -2.1504
  935WAT     H2 3017   4.477   3.365   2.010  0.7488  0.1369  1.3331
  936WAT      O 3018   3.131   0.760   0.458 -0.0592 -0.6369  0.1311
  936WAT     H1 3019   3.186   0.796   0.528 -1.7994  1.0916  0.6997
  936WAT     H2 3020   3.161   0.669   0.449 -0.5119 -1.3589  3.9857
  937WAT      O 3021   2.611   3.438   4.451 -0.0519  0.7905  0.2092
  937WAT     H1 3022   2.571   3.462   4.534  0.3074  2.1028  0.0345
  937WAT     H2 3023   2.565   3.493   4.386 -0.8099 -0.7075 -0.5761
  938WAT      O 3024   0.515   5.055   0.001  0.4451 -0.7121 -0.2792
  938WAT     H1 3025   0.419   5.053  -0.006  0.4927  0.4222 -1.5411
  938WAT     H2 3026   0.534   5.136   0.047  0.8357 -0.2245 -1.2700
  939WAT      O 3027   3.665   2.020   1.728 -0.1292 -0.5410  0.4525
  939WAT     H1 3028   3.718   2.006   1.806  0.9357 -0.4000 -0.2066
  939WAT     H2 3029   3.730   2.024   1.657 -0.8378  1.5603 -0.1537
  940WAT      O 3030   4.484   2.777   4.637  0.1044 -0.0837 -0.1493
  940WAT     H1 3031   4.446   2.692   4.616  2.3672 -1.1264 -0.3006
  940WAT     H2 3032   4.547   2.759   4.706  1.4865  1.2344 -0.9914
  941WAT      O 3033   1.390   0.886   3.428 -0.6105  0.3212  0.2677
  941WAT     H1 3034   1.391   0.900   3.523  0.3156 -0.7308  0.4296
  941WAT     H2 3035   1.306   0.842   3.412 -0.5310  0.0135  0.6753
  942WAT      O 3036   2.142   3.415   3.479  0.2727  0.5619  0.1815
  942WAT     H1 3037   2.087   3.337   3.475 -0.3718  0.7635  2.9936
  942WAT     H2 3038   2.082   3.486   3.503  1.1897  1.5331 -0.2826
  943WAT      O 3039   3.657   4.134   1.561 -0.3219  0.0097  0.0213
  943WAT     H1 3040   3.614   4.057   1.522  0.2251  0.0165 -0.6147
  943WAT     H2 3041   3.629   4.133   1.652  2.3502 -2.9323  0.9753
  944WAT      O 3042   0.995   4.583   1.571  0.0660  0.1234  0.2091
  944WAT     H1 3043   0.978   4.637   1.494 -1.3130 -0.2682  0.2092
  944WAT     H2 3044   1.078   4.615   1.605  1.2649 -0.4129 -2.0409
  945WAT      O 3045   3.051   4.385   4.872 -0.2637  0.1256  0.1567
  945WAT     H1 3046   3.058   4.297   4.910  1.7265  0.2844  0.2702
  945WAT     H2 3047   3.061   4.444   4.947 -1.1930  0.4606  0.0253
  946WAT      O 3048   0.662   0.189   1.849  0.0176  0.3813  0.3017
  946WAT     H1 3049   0.675   0.112   1.792  1.5097  0.4163  0.5596
  946WAT     H2 3050   0.638   0.152   1.934  0.1885  0.2177  0.2799
  947WAT      O 3051   2.902   2.741   2.699  0.4984  0.2467  0.3923
  947WAT     H1 3052   2.963   2.678   2.660 -0.4351 -0.5847  0.2605
  947WAT     H2 3053   2.918   2.734   2.794  0.6142  0.0427  0.3578
  948WAT      O 3054   3.085   1.995   0.094  0.2516  0.0218  0.2795
  948WAT     H1 3055   3.015   2.026   0.152 -1.2132  1.2664 -2.0206
  948WAT     H2 3056   3.165   2.025   0.136 -0.8855  3.7511  0.1574
  949WAT      O 3057   0.996   3.975   0.078  0.0160  0.0822 -0.6244
  949WAT     H1 3058   1.037   4.051   0.037  1.9008 -0.5503 -0.0511
  949WAT     H2 3059   1.070   3.916   0.097 -1.3008 -1.5670 -0.3984
  950WAT      O 3060   0.699   1.441   4.267  0.2945  0.5645  0.2332
  950WAT     H1 3061   0.763   1.415   4.333 -0.0376  1.5183  0.9588
  950WAT     H2 3062   0.736   1.520   4.228 -1.0522  1.9897  1.6736
  951WAT      O 3063   3.164   4.568   4.149  0.0804  0.2070  0.7811
  951WAT     H1 3064   3.192   4.554   4.059  0.6566 -0.2331  1.0200
  951WAT     H2 3065   3.246   4.574   4.199 -0.2335 -1.5726  1.5646
  952WAT      O 3066   4.338   3.519   3.867 -0.3630  0.0861  0.6653
  952WAT     H1 3067   4.266   3.456   3.861 -0.1394 -0.1129 -4.7140
  952WAT     H2 3068   4.415   3.466   3.888 -0.7144 -0.9828 -0.5791
  953WAT      O 3069   0.539   1.895   5.214  0.6324  0.0224 -0.6088
  953WAT     H1 3070   0.590   1.818   5.242  2.1157  0.9079 -0.7733
  953WAT     H2 3071   0.593   1.936   5.147 -0.7758  0.4774 -1.4948
  954WAT      O 3072   0.139   5.012   0.960 -0.3868 -0.4425  0.4434
  954WAT     H1 3073   0.219   4.981   0.918 -0.5510  0.8518 -0.9050
  954WAT     H2 3074   0.118   5.094   0.914 -1.3342  0.3361  2.1745
  955WAT      O 3075   1.031   2.356   3.211 -0.3630 -0.4894  0.0570
  955WAT     H1 3076   0.964   2.382   3.149 -1.3979 -0.6045  1.0893
  955WAT     H2 3077   0.983   2.307   3.279  0.7941 -0.7779  0.6970
  956WAT      O 3078   4.517   2.505   0.285  0.4297 -0.5956 -0.5260
  956WAT     H1 3079   4.536   2.411   0.291 -0.7966 -0.9498 -1.6035
  956WAT     H2 3080   4.534   2.527   0.194 -1.4242 -0.3013 -0.8307
  957WAT      O 3081   4.074   3.333   1.874 -0.3727  0.1431 -0.9560
  957WAT     H1 3082   4.046   3.262   1.933  0.7283  2.0272  2.0926
  957WAT     H2 3083   4.127   3.290   1.808 -0.3937 -1.9797  0.3202
  958WAT      O 3084   1.248   2.956   2.410 -0.1731  0.7382  0.4582
  958WAT     H1 3085   1.191   3.008   2.352 -1.1457  0.2193  0.9190
  958WAT     H2 3086   1.189   2.890   2.447  0.4439  1.0351  2.0196
  959WAT      O 3087   3.801   4.798   1.731 -0.2411 -0.1527 -0.3394
  959WAT     H1 3088   3.820   4.829   1.643 -1.6330  1.5789 -0.0974
  959WAT     H2 3089   3.883   4.810   1.780  0.5720 -1.2413 -1.3885
  960WAT      O 3090   1.880   4.778   1.691  0.2728  0.1291  0.3515
  960WAT     H1 3091   1.885   4.848   1.755 -0.6803 -0.3279  0.9380
  960WAT     H2 3092   1.787   4.755   1.686  0.6173 -1.4745  0.6045
  961WAT      O 3093   1.759   1.527   3.777  0.5191  0.6442 -0.0343
  961WAT     H1 3094   1.838   1.475   3.790 -0.7393 -1.2223  0.5721
  961WAT     H2 3095   1.734   1.509   3.686 -1.0891 -1.6837  0.7665
  962WAT      O 3096   3.707   0.470   2.336  0.5457 -0.3094 -0.3792
  962WAT     H1 3097   3.624   0.490   2.379 -0.3975 -1.3202 -1.6561
  962WAT     H2 3098   3.706   0.375   2.324  2.0289 -0.3766 -0.1711
  963WAT      O 3099   0.179   2.979   0.474  0.5723  0.7294 -0.0024
  963WAT     H1 3100   0.216   2.921   0.408  0.7655  0.7505  0.0858
  963WAT     H2 3101   0.254   3.030   0.505  0.4438  0.8643  0.0822
  964WAT      O 3102   3.519   0.499   0.968 -0.2974  0.4433 -0.5603
  964WAT     H1 3103   3.458   0.560   0.927  0.3366  0.8437 -0.9080
  964WAT     H2 3104   3.547   0.543   1.048  2.1540  1.8141 -2.0488
  965WAT      O 3105   1.283   4.763   2.350  0.3895  0.5777  0.5019
  965WAT     H1 3106   1.294   4.776   2.256 -2.3964  0.9213  0.1265
  965WAT     H2 3107   1.266   4.669   2.360 -0.0506  0.6635  0.5678
  966WAT      O 3108   1.749   4.761   0.610 -0.1511 -0.2382 -0.1508
  966WAT     H1 3109   1.825   4.751   0.552  1.4061 -1.0591  1.9282
  966WAT     H2 3110   1.784   4.802   0.689 -1.5822 -1.8322  1.3928
  967WAT      O 3111   0.264   3.759   1.408 -0.3555  0.2763 -0.9097
  967WAT     H1 3112   0.221   3.697   1.467 -0.5873  1.4944  0.2461
  967WAT     H2 3113   0.222   3.843   1.427 -1.8516  0.4094 -4.2355
  968WAT      O 3114   3.682   2.526   0.872 -0.2864  1.1561  0.1904
  968WAT     H1 3115   3.627   2.597   0.840 -0.1145  1.3943  0.4247
  968WAT     H2 3116   3.623   2.470   0.923 -0.3203  1.3894  0.4059
  969WAT      O 3117   4.023   1.731   1.106 -0.4829 -0.8268  0.6637
  969WAT     H1 3118   3.934   1.702   1.087 -0.5256 -0.5080  0.3782
  969WAT     H2 3119   4.052   1.776   1.027 -0.6115  0.3716  1.2803
  970WAT      O 3120   2.603   4.573   3.461  0.0072  0.3057  0.4711
  970WAT     H1 3121   2.560   4.658   3.459  0.3678  0.5113  1.1287
  970WAT     H2 3122   2.628   4.556   3.370 -0.3560  0.7427  0.2852
  971WAT      O 3123   2.829   1.420   2.706  0.9221  0.0575  0.1418
  971WAT     H1 3124   2.867   1.427   2.793  0.8896 -0.4848  0.2008
  971WAT     H2 3125   2.747   1.371   2.719  0.5908  0.5350 -0.0982
  972WAT      O 3126   1.915   3.969   0.136 -0.1442  0.1176 -0.1593
  972WAT     H1 3127   1.918   4.054   0.180  0.6100  0.5329 -0.9811
  972WAT     H2 3128   1.900   3.991   0.043 -0.1801 -0.6591 -0.3449
  973WAT      O 3129   1.247   1.315   5.249  0.1185 -0.2167  0.5597
  973WAT     H1 3130   1.339   1.316   5.277  1.7208  0.9282 -3.8469
  973WAT     H2 3131   1.242   1.240   5.189 -2.2782 -1.0653  1.7196
  974WAT      O 3132   2.626   1.271   4.076 -0.2123  0.1504 -0.7041
  974WAT     H1 3133   2.568   1.214   4.026 -1.7166  0.6910  0.3372
  974WAT     H2 3134   2.686   1.211   4.120 -1.4590 -0.6535 -0.0121
  975WAT      O 3135   1.140   3.224   2.144 -0.3289 -0.1716 -0.1409
  975WAT     H1 3136   1.122   3.132   2.125  0.8912 -0.5329  0.3403
  975WAT     H2 3137   1.120   3.234   2.237  1.9722 -0.6483  0.4786
  976WAT      O 3138   4.517   0.200   4.324 -0.3544 -0.5673  0.6478
  976WAT     H1 3139   4.459   0.210   4.249  1.1587  1.0277 -0.3912
  976WAT     H2 3140   4.499   0.112   4.357 -2.0730 -0.7634 -0.6878
  977WAT      O 3141   4.248   3.125   0.129  0.1894 -0.6734 -0.0363
  977WAT     H1 3142   4.287   3.077   0.202  1.9434  1.7425  0.7269
  977WAT     H2 3143   4.264   3.217   0.149 -0.0474  0.1306 -3.0626
  978WAT      O 3144   2.989   5.136   4.322  0.3313 -0.0080 -0.3540
  978WAT     H1 3145   3.042   5.073   4.273  0.7225  1.9494 -2.6653
  978WAT     H2 3146   2.899   5.115   4.296  0.5366  1.0381 -2.1072
  979WAT      O 3147   2.024   0.481   1.032  0.2228  0.2575 -0.4349
  979WAT     H1 3148   2.058   0.467   0.944  0.0772  0.6598 -0.5573
  979WAT     H2 3149   2.040   0.574   1.050 -0.8715  0.4775 -0.5275
  980WAT      O 3150   3.182   3.861   2.407  0.1700 -0.0022  0.0836
  980WAT     H1 3151   3.244   3.891   2.473  1.7695  0.8689 -1.7420
  980WAT     H2 3152   3.167   3.769   2.429  1.9139 -0.1655  0.7186
  981WAT      O 3153   0.537   0.385   0.543  0.5078 -0.2024  0.2638
  981WAT     H1 3154   0.599   0.414   0.611 -1.1292 -0.4439  1.9543
  981WAT     H2 3155   0.470   0.453   0.542  0.8916  0.2081 -1.7676
  982WAT      O 3156   0.675   4.034   0.330 -0.1248  0.0703  0.4304
  982WAT     H1 3157   0.626   3.958   0.300 -0.1574  0.7346 -1.3396
  982WAT     H2 3158   0.757   4.030   0.282 -0.1495  1.1624  0.2604
  983WAT      O 3159   2.242   3.069   2.384  0.3146  0.0528 -0.3161
  983WAT     H1 3160   2.220   3.128   2.456 -0.6711 -1.5763  0.7823
  983WAT     H2 3161   2.166   3.011   2.376  1.0829 -0.8350 -1.6088
  984WAT      O 3162   3.337   3.418   1.109 -0.4038 -0.3622  0.0814
  984WAT     H1 3163   3.426   3.440   1.136 -0.3790 -1.1708  0.7032
  984WAT     H2 3164   3.282   3.486   1.148  0.0136  0.6415 -1.0328
  985WAT      O 3165   0.771   1.337   0.840  0.2321  0.0945 -0.6848
  985WAT     H1 3166   0.856   1.370   0.812  0.1797  1.1876  0.3260
  985WAT     H2 3167   0.709   1.370   0.775  0.3106  1.2599 -0.1938
  986WAT      O 3168   2.736   4.437   4.991 -0.5791 -0.2586 -0.4480
  986WAT     H1 3169   2.816   4.407   5.034 -0.4259  0.2736 -0.3526
  986WAT     H2 3170   2.720   4.373   4.922  0.6619  0.3321 -1.3222
  987WAT      O 3171   3.169   3.372   3.109  0.1810  0.0027  0.1385
  987WAT     H1 3172   3.186   3.419   3.190  0.1387 -0.0473  0.1764
  987WAT     H2 3173   3.232   3.299   3.111 -1.1836 -1.1994  1.1081
  988WAT      O 3174   3.443   3.910   4.143  0.2859  0.8392  0.7365
  988WAT     H1 3175   3.392   3.837   4.109  1.3960  0.4754 -0.2373
  988WAT     H2 3176   3.394   3.988   4.118 -0.3108  0.4659  0.7367
  989WAT      O 3177   0.659   1.624   2.650 -0.3061 -0.5912  0.4666
  989WAT     H1 3178   0.603   1.656   2.580 -0.4397  1.5510  1.4518
  989WAT     H2 3179   0.635   1.678   2.726  1.4564 -1.2102  1.5277
  990WAT      O 3180   3.963   3.961   1.908 -0.0209  0.4046 -0.1922
  990WAT     H1 3181   3.904   4.010   1.965 -2.0773 -0.9731 -1.0028
  990WAT     H2 3182   3.983   4.021   1.836 -1.6386  0.4671 -0.6331
  991WAT      O 3183   3.149   4.361   0.869  0.6286 -0.0146  0.7266
  991WAT     H1 3184   3.197   4.279   0.863  1.3958  0.3317  1.7573
  991WAT     H2 3185   3.200   4.422   0.816 -0.2791 -0.3285 -0.5515
  992WAT      O 3186   1.661   2.948   3.269  0.5072  0.1758 -0.4572
  992WAT     H1 3187   1.580   2.930   3.316  0.3898  0.0616 -0.7058
  992WAT     H2 3188   1.643   2.922   3.179 -0.3391  3.3244 -1.3028
  993WAT      O 3189   1.763   4.585   1.302 -0.3242 -0.1617  0.6069
  993WAT     H1 3190   1.694   4.532   1.341 -1.8138  1.8975  0.9178
  993WAT     H2 3191   1.819   4.522   1.256 -2.6167 -1.8808  0.0041
  994WAT      O 3192   0.931   4.854   1.738  0.1226  0.3946  0.0802
  994WAT     H1 3193   0.857   4.840   1.679 -0.8644  1.4816  0.9919
  994WAT     H2 3194   0.969   4.937   1.709 -1.3686  1.7997  1.8741
  995WAT      O 3195   2.563   1.977   1.081  0.0882 -0.1123 -0.0802
  995WAT     H1 3196   2.498   1.967   1.012  0.2975 -0.1542 -0.2740
  995WAT     H2 3197   2.541   1.911   1.146  1.7300 -2.2381 -1.5444
  996WAT      O 3198   0.506   1.171   3.274 -0.6678  0.1196  0.3973
  996WAT     H1 3199   0.433   1.228   3.250  1.0041  1.9683 -0.6026
  996WAT     H2 3200   0.583   1.225   3.263  0.9275 -1.9000  0.9756
  997WAT      O 3201   0.034   0.241   2.699  0.0248 -0.3079  0.2343
  997WAT     H1 3202   0.028   0.192   2.616 -2.8694  0.8464 -0.3833
  997WAT     H2 3203   0.102   0.305   2.683 -1.6548  1.0979 -2.0889
  998WAT      O 3204   3.645   1.926   5.109 -0.6977  0.6154 -0.3963
  998WAT     H1 3205   3.589   1.861   5.068  0.5032 -0.2675 -0.6957
  998WAT     H2 3206   3.586   1.979   5.163 -1.7777 -0.3661 -0.5892
  999WAT      O 3207   2.789   1.066   4.573 -0.3713 -0.0011 -0.5607
  999WAT     H1 3208   2.768   1.150   4.533 -1.8561  0.2281  0.6095
  999WAT     H2 3209   2.744   1.002   4.519 -1.8347  0.2526  0.3026
 1000WAT      O 3210   0.921   0.590   0.810  0.1894  0.3101  0.3732
 1000WAT     H1 3211   0.904   0.641   0.889 -0.9010 -1.4502  1.3410
 1000WAT     H2 3212   0.902   0.650   0.738  1.2707  1.9771  1.4079
 1001WAT      O 3213   3.336   4.262   0.287  0.3964  0.3108 -0.0674
 1001WAT     H1 3214   3.425   4.288   0.311  0.0627  0.0316  1.6072
 1001WAT     H2 3215   3.322   4.178   0.332 -0.6785  0.3177 -0.3569
 1002WAT      O 3216   2.883   4.007   1.185 -0.1457 -0.2367  0.3918
 1002WAT     H1 3217   2.823   3.938   1.157  1.1515 -1.0940 -0.3598
 1002WAT     H2 3218   2.957   4.001   1.124 -1.1410  3.6112 -1.4865
 1003WAT      O 3219   4.081   3.227   1.454 -0.6597  0.2636  0.1470
 1003WAT     H1 3220   4.132   3.247   1.533 -0.8947  0.9266  0.1376
 1003WAT     H2 3221   3.990   3.235   1.481 -0.7601  1.9757 -0.5175
 1004WAT      O 3222   0.797   1.203   4.719  0.4116 -0.6557 -0.0917
 1004WAT     H1 3223   0.874   1.145   4.721  2.1921  1.5315 -0.8286
 1004WAT     H2 3224   0.804   1.254   4.800 -1.0805 -1.3345  0.5010
 1005WAT      O 3225   2.048   0.422   0.413 -0.0272  0.3282 -0.9723
 1005WAT     H1 3226   2.021   0.408   0.322 -0.4985  1.2521 -0.9886
 1005WAT     H2 3227   2.004   0.503   0.438  0.6417  0.4377 -0.1305
 1006WAT      O 3228   0.465   4.138   3.544  0.1498  0.0868  0.0689
 1006WAT     H1 3229   0.379   4.119   3.505 -1.0813  2.0611  1.6106
 1006WAT     H2 3230   0.452   4.221   3.591  2.0610 -1.0979  2.9563
 1007WAT      O 3231   1.887   3.812   1.056  0.1408  0.3287 -0.2360
 1007WAT     H1 3232   1.965   3.828   1.108 -0.7741  0.5869  1.1343
 1007WAT     H2 3233   1.897   3.722   1.024  0.9894  0.3621 -0.0704
 1008WAT      O 3234   0.173   5.079   1.235  0.4609  0.4587  0.6571
 1008WAT     H1 3235   0.190   4.992   1.269  0.1916  0.2687  0.3045
 1008WAT     H2 3236   0.148   5.065   1.143  0.0175  0.8693  0.7106
 1009WAT      O 3237   1.915   0.169   2.850 -0.3222  0.4741 -0.2828
 1009WAT     H1 3238   1.978   0.230   2.889 -1.5086  1.0148  0.8667
 1009WAT     H2 3239   1.830   0.205   2.874 -1.0786 -1.9902  0.9647
 1010WAT      O 3240   0.275   0.776   3.460 -0.1547 -0.3385  0.2162
 1010WAT     H1 3241   0.356   0.823   3.437 -0.3488 -0.7113 -1.3270
 1010WAT     H2 3242   0.299   0.726   3.538  0.2996  1.6250  1.4306
 1011WAT      O 3243   4.370   4.805   3.649 -0.4148  0.6335  0.4674
 1011WAT     H1 3244   4.387   4.711   3.640 -0.9497  0.5744  0.0235
 1011WAT     H2 3245   4.287   4.809   3.697 -0.1280  0.8918  0.9521
 1012WAT      O 3246   3.896   1.696   5.184 -0.0071  0.7426  0.4429
 1012WAT     H1 3247   3.891   1.789   5.206 -0.7247  0.2969  2.3699
 1012WAT     H2 3248   3.953   1.693   5.107  0.2841  2.7376  0.5175
 1013WAT      O 3249   2.134   0.302   2.520  0.2315  0.0113  0.2976
 1013WAT     H1 3250   2.113   0.394   2.502 -0.0072 -0.1880 -0.4561
 1013WAT     H2 3251   2.227   0.304   2.545 -0.6373  0.9650  4.2013
 1014WAT      O 3252   2.889   4.249   0.368  0.5719  0.1422 -0.6567
 1014WAT     H1 3253   2.886   4.338   0.333  0.1419  0.3673 -0.0621
 1014WAT     H2 3254   2.881   4.260   0.463 -0.5125 -0.5734 -0.6479
 1015WAT      O 3255   2.158   4.641   3.329 -0.6153 -0.1768 -0.2900
 1015WAT     H1 3256   2.135   4.717   3.276 -2.6721 -0.3405  0.2860
 1015WAT     H2 3257   2.246   4.659   3.360 -1.5749  2.7623  1.1277
 1016WAT      O 3258   1.203   0.951   2.984  0.3603 -0.1163  0.5539
 1016WAT     H1 3259   1.218   0.863   2.951  2.0274  0.2927  0.0988
 1016WAT     H2 3260   1.208   1.006   2.905  1.0056  0.5341  1.0348
 1017WAT      O 3261   3.454   2.522   0.450  0.1807  0.2872  0.0130
 1017WAT     H1 3262   3.488   2.482   0.370 -0.3065 -2.1551  0.9454
 1017WAT     H2 3263   3.405   2.452   0.493 -0.6475  1.8966  1.8402
 1018WAT      O 3264   2.812   2.410   1.115 -0.0285 -0.2149  0.0267
 1018WAT     H1 3265   2.827   2.408   1.020  0.5779 -2.9609  0.0917
 1018WAT     H2 3266   2.825   2.502   1.139 -1.6795  0.8833 -2.7244
 1019WAT      O 3267   0.798   3.307   3.682 -0.1799 -0.3224  0.2143
 1019WAT     H1 3268   0.776   3.319   3.589 -1.0736  1.1120  0.5804
 1019WAT     H2 3269   0.775   3.216   3.700  1.9316 -1.2918 -1.4480
 1020WAT      O 3270   1.985   1.113   4.711  0.0601  0.2433 -0.6450
 1020WAT     H1 3271   1.917   1.068   4.761  1.0267 -0.6857 -0.1429
 1020WAT     H2 3272   2.059   1.053   4.711  1.5657  2.0050  0.4139
 1021WAT      O 3273   3.425   3.465   0.547 -0.2762 -0.3077  0.0078
 1021WAT     H1 3274   3.467   3.394   0.596  0.9856 -0.7224 -1.5630
 1021WAT     H2 3275   3.460   3.456   0.458 -0.6599  1.8418 -0.4151
 1022WAT      O 3276   1.318   2.357   4.846  0.2014  0.0325 -0.2049
 1022WAT     H1 3277   1.230   2.383   4.872  0.0228  0.4703 -1.2338
 1022WAT     H2 3278   1.346   2.424   4.784  0.7367 -0.8291 -0.9142
 1023WAT      O 3279   0.641   3.248   0.226  0.7458  0.4934  0.0033
 1023WAT     H1 3280   0.622   3.187   0.155  1.0149  1.4721 -0.9471
 1023WAT     H2 3281   0.708   3.306   0.190  0.0540  1.7298  0.6436
 1024WAT      O 3282   3.572   2.873   1.994  0.1269  0.4097  0.1657
 1024WAT     H1 3283   3.582   2.899   1.903  0.2280 -0.4966 -0.1003
 1024WAT     H2 3284   3.516   2.940   2.033 -1.2483 -0.0332 -0.9652
 1025WAT      O 3285   3.364   0.173   1.247  0.6879 -0.2313  0.0057
 1025WAT     H1 3286   3.400   0.187   1.159 -0.7585  0.4311 -0.4981
 1025WAT     H2 3287   3.276   0.141   1.233  0.7007 -0.8853  1.2347
 1026WAT      O 3288   3.582   4.595   3.360  0.3455 -0.2474  0.1142
 1026WAT     H1 3289   3.670   4.606   3.396  0.4554 -0.1787 -0.1729
 1026WAT     H2 3290   3.524   4.608   3.435  0.5207  1.1280  0.0365
 1027WAT      O 3291   3.402   2.048   3.697 -0.2396 -0.4016 -0.2678
 1027WAT     H1 3292   3.464   1.987   3.736 -0.7460 -0.9353 -0.2681
 1027WAT     H2 3293   3.431   2.058   3.606  0.3850  0.0921 -0.0156
 1028WAT      O 3294   4.156   3.250   4.712 -0.1843  0.5074 -0.0998
 1028WAT     H1 3295   4.191   3.252   4.801  1.7157 -1.2684 -0.7274
 1028WAT     H2 3296   4.196   3.173   4.672 -0.5784  1.5342 -2.6688
 1029WAT      O 3297   3.409   4.328   4.413 -0.6314 -0.1503  0.1282
 1029WAT     H1 3298   3.503   4.336   4.397 -0.6764 -0.9895 -0.6347
 1029WAT     H2 3299   3.403   4.295   4.503 -0.2424  0.9266  0.5676
 1030WAT      O 3300   0.432   3.920   1.055  0.4365  0.3875 -0.0928
 1030WAT     H1 3301   0.428   3.878   1.140 -1.7520  0.2025 -0.2311
 1030WAT     H2 3302   0.506   3.877   1.010  1.8961  0.7939  1.8001
 1031WAT      O 3303   4.358   1.974   0.752 -0.3974 -0.0745  0.5698
 1031WAT     H1 3304   4.431   2.021   0.793 -1.5995  0.5283  2.1588
 1031WAT     H2 3305   4.380   1.970   0.659  2.5961 -1.6726  1.2155
 1032WAT      O 3306   1.556   0.873   0.892 -0.5243  0.5501 -0.7004
 1032WAT     H1 3307   1.555   0.860   0.798 -2.7382  0.7578 -0.7620
 1032WAT     H2 3308   1.476   0.831   0.923  0.1224  0.5346  1.1001
 1033WAT      O 3309   3.850   4.520   1.431  0.6412 -0.2670  0.1844
 1033WAT     H1 3310   3.871   4.593   1.489 -0.7761  1.7481 -1.6704
 1033WAT     H2 3311   3.768   4.484   1.466  1.3063 -0.9601  1.0621
 1034WAT      O 3312   0.608   2.718   3.644  0.3293  0.2286 -0.0840
 1034WAT     H1 3313   0.605   2.808   3.676 -1.3870  0.8933 -1.9473
 1034WAT     H2 3314   0.616   2.665   3.723  0.5001  1.9486  1.1105
 1035WAT      O 3315   0.977   1.778   2.225 -0.0799 -0.2709 -0.6860
 1035WAT     H1 3316   1.024   1.756   2.145  1.0850 -2.2328  0.4674
 1035WAT     H2 3317   1.046   1.801   2.288 -0.9047  0.1358  0.0948
 1036WAT      O 3318   0.467   2.088   3.739 -0.1685  0.3588  0.0965
 1036WAT     H1 3319   0.392   2.147   3.752  0.0720  1.3053 -2.2917
 1036WAT     H2 3320   0.543   2.145   3.742  0.3169 -0.2997  0.5646
 1037WAT      O 3321   3.949   3.538   3.087  0.2293 -0.3112 -0.1272
 1037WAT     H1 3322   3.947   3.448   3.120  0.2469 -0.2964 -0.0853
 1037WAT     H2 3323   4.028   3.543   3.033 -0.4294 -0.6762 -1.1487
 1038WAT      O 3324   4.105   3.911   1.016  0.1827 -0.1375 -0.2558
 1038WAT     H1 3325   4.154   3.968   1.074  0.0890 -0.0144 -0.2973
 1038WAT     H2 3326   4.120   3.823   1.050 -0.0414 -0.0477  0.0785
 1039WAT      O 3327   2.318   1.995   1.391  0.2887 -0.0966 -0.1862
 1039WAT     H1 3328   2.258   1.973   1.319  0.4106 -0.0326 -0.3062
 1039WAT     H2 3329   2.373   2.065   1.357  0.9269 -0.6611 -0.3338
 1040WAT      O 3330   2.114   1.031   4.316 -0.0668 -0.1930 -0.6665
 1040WAT     H1 3331   2.026   1.036   4.355  0.1299 -2.6731  0.2699
 1040WAT     H2 3332   2.099   1.028   4.222 -0.9005  0.4288 -0.5666
 1041WAT      O 3333   1.503   0.336   3.190 -0.5312 -0.3689  0.2029
 1041WAT     H1 3334   1.408   0.327   3.197 -0.5746 -0.0732  0.0174
 1041WAT     H2 3335   1.525   0.405   3.252 -0.4571 -0.3193  0.1209
 1042WAT      O 3336   2.258   4.321   4.869  0.7486 -0.2471  0.2143
 1042WAT     H1 3337   2.186   4.278   4.915  1.2747 -0.0729  1.2416
 1042WAT     H2 3338   2.231   4.412   4.862 -0.0725 -0.5795 -1.3664
 1043WAT      O 3339   0.354   1.779   4.943  0.3384  0.3816  0.2361
 1043WAT     H1 3340   0.351   1.712   4.875 -0.7967  0.4285  0.2242
 1043WAT     H2 3341   0.403   1.851   4.904  0.2555  0.1507 -0.3014
 1044WAT      O 3342   2.374   4.101   4.992  0.0540  0.0409 -0.1466
 1044WAT     H1 3343   2.296   4.139   4.952 -0.6113 -1.0171  0.1012
 1044WAT     H2 3344   2.413   4.048   4.922 -0.4099 -0.7944  0.2125
 1045WAT      O 3345   3.128   1.706   0.095  0.0012  0.3108 -0.1412
 1045WAT     H1 3346   3.103   1.676   0.007  2.2650  0.7804 -0.9999
 1045WAT     H2 3347   3.091   1.794   0.102 -2.4079 -0.6649  0.4560
 1046WAT      O 3348   1.649   3.837   0.773 -0.0942  0.0339  0.0276
 1046WAT     H1 3349   1.706   3.773   0.731  0.5976  0.1765  0.7357
 1046WAT     H2 3350   1.708   3.903   0.809 -0.8401  1.8796 -1.9045
 1047WAT      O 3351   4.320   2.039   1.269  0.4390 -0.2909 -0.5495
 1047WAT     H1 3352   4.299   2.055   1.177 -1.3403 -0.9311 -0.2944
 1047WAT     H2 3353   4.256   1.973   1.297  0.3422  0.5480  1.3695
 1048WAT      O 3354   3.841   1.905   2.994  0.3830 -0.0855  0.2622
 1048WAT     H1 3355   3.840   1.979   3.054 -0.7498  1.2158 -1.2579
 1048WAT     H2 3356   3.933   1.895   2.970  0.4626  1.5416 -0.2757
 1049WAT      O 3357   3.018   3.299   0.300  0.1846 -0.0301  0.6305
 1049WAT     H1 3358   2.968   3.218   0.289  0.0481  0.2973 -1.4875
 1049WAT     H2 3359   2.954   3.361   0.337 -0.2082 -0.3938  0.5738
 1050WAT      O 3360   0.265   0.720   1.417 -0.1212 -0.1297 -0.3012
 1050WAT     H1 3361   0.265   0.701   1.323 -1.3927  0.7063 -0.5015
 1050WAT     H2 3362   0.281   0.814   1.423 -1.4397  0.0820  0.2205
 1051WAT      O 3363   2.818   3.593   2.578  0.4746 -0.4480  0.3846
 1051WAT     H1 3364   2.791   3.571   2.667 -0.9746 -0.3905 -0.0203
 1051WAT     H2 3365   2.913   3.580   2.578  0.5874  0.1919  2.1094
 1052WAT      O 3366   1.497   2.183   3.508  0.1330  0.1703  0.5153
 1052WAT     H1 3367   1.437   2.115   3.538  1.9593 -1.3408  0.9458
 1052WAT     H2 3368   1.445   2.235   3.446 -1.3739 -1.5370  0.2545
 1053WAT      O 3369   3.836   1.320   1.036  0.1999  0.3536  0.1492
 1053WAT     H1 3370   3.830   1.225   1.024  0.1182  0.4135 -0.2962
 1053WAT     H2 3371   3.746   1.348   1.054 -0.1077  0.5782 -1.5213
 1054WAT      O 3372   1.747   2.439   3.798  0.4230  0.3476 -0.1833
 1054WAT     H1 3373   1.785   2.352   3.784  1.2585  0.5099  0.9543
 1054WAT     H2 3374   1.819   2.493   3.829 -0.4057  1.0443  0.6131
 1055WAT      O 3375   2.397   3.326   4.949  0.5826 -0.3119  0.4367
 1055WAT     H1 3376   2.310   3.319   4.987 -0.5748  0.6170 -1.8128
 1055WAT     H2 3377   2.410   3.244   4.902 -1.2581  1.2275 -3.1811
 1056WAT      O 3378   4.428   2.097   2.040 -0.2693 -0.2957  0.1569
 1056WAT     H1 3379   4.430   2.146   2.123  0.8667 -0.1985  0.0980
 1056WAT     H2 3380   4.505   2.129   1.992 -0.6604 -0.6839 -0.7444
 1057WAT      O 3381   0.206   3.778   3.350 -0.4487  0.2562  0.2950
 1057WAT     H1 3382   0.184   3.866   3.381  1.1174  1.5416 -1.9621
 1057WAT     H2 3383   0.137   3.722   3.385 -1.9385  2.4970  1.1520
 1058WAT      O 3384   2.882   0.727   5.282 -0.2069 -0.0165 -0.0110
 1058WAT     H1 3385   2.821   0.792   5.247 -1.4748 -0.0586  2.0031
 1058WAT     H2 3386   2.890   0.662   5.212 -0.4037  1.3036 -1.3117
 1059WAT      O 3387   0.965   1.349   4.065 -0.3209  0.1817 -0.3238
 1059WAT     H1 3388   0.933   1.312   4.147 -0.4778  1.2672  0.1301
 1059WAT     H2 3389   0.901   1.417   4.043  0.8631  1.4031 -0.1611
 1060WAT      O 3390   2.407   1.175   1.030  0.3037  0.6218 -0.0816
 1060WAT     H1 3391   2.342   1.226   1.078 -2.0890 -1.2159 -1.1238
 1060WAT     H2 3392   2.434   1.232   0.958 -1.3465  0.9018 -0.5108
 1061WAT      O 3393   0.690   2.242   3.549  0.0994 -0.0712  0.3605
 1061WAT     H1 3394   0.657   2.157   3.518 -0.3333 -0.0319  0.7054
 1061WAT     H2 3395   0.773   2.253   3.503 -0.1211 -0.4129 -0.1360
 1062WAT      O 3396   0.998   1.424   0.721  0.2665 -0.6025 -0.2552
 1062WAT     H1 3397   1.061   1.483   0.760 -0.6580 -0.2077  0.6806
 1062WAT     H2 3398   1.050   1.369   0.662  1.6019 -0.8061  1.0623
 1063WAT      O 3399   1.609   1.281   0.893  0.1331  0.6424  0.2546
 1063WAT     H1 3400   1.664   1.205   0.913 -1.1283 -1.0769 -2.2418
 1063WAT     H2 3401   1.568   1.303   0.977  1.2869 -0.8257  1.2515
 1064WAT      O 3402   1.893   0.959   1.254  0.2565 -0.2280  0.0994
 1064WAT     H1 3403   1.927   0.871   1.265  1.6431 -0.0135 -1.8654
 1064WAT     H2 3404   1.946   1.014   1.311  1.4095 -0.2837 -0.8894
 1065WAT      O 3405   2.193   3.458   2.341  0.3674  0.1629  0.3713
 1065WAT     H1 3406   2.273   3.509   2.354  1.5858 -1.6293  0.2581
 1065WAT     H2 3407   2.185   3.452   2.246 -0.0262  0.4888  0.3804
 1066WAT      O 3408   2.906   1.345   0.334 -0.3750 -0.0999  0.2551
 1066WAT     H1 3409   2.834   1.361   0.273  0.0539 -2.0454 -0.8242
 1066WAT     H2 3410   2.935   1.256   0.314  2.5982  0.7438  0.3551
 1067WAT      O 3411   0.750   2.486   1.662 -0.0817  0.1590  0.0875
 1067WAT     H1 3412   0.712   2.401   1.642 -0.5637  0.6811 -1.3454
 1067WAT     H2 3413   0.842   2.468   1.683  0.2891 -0.5575 -1.9322
 1068WAT      O 3414   1.725   4.455   1.969 -0.2694  0.1348  0.1035
 1068WAT     H1 3415   1.755   4.391   1.905 -1.6055 -2.1045  1.5889
 1068WAT     H2 3416   1.633   4.469   1.947 -0.3588  0.4495  0.6655
 1069WAT      O 3417   3.930   0.809   5.173 -0.1948  0.2207  0.0264
 1069WAT     H1 3418   3.850   0.795   5.223 -1.6531 -1.2345 -2.4698
 1069WAT     H2 3419   4.000   0.779   5.231 -1.4530  1.0833  2.0988
 1070WAT      O 3420   4.475   1.023   3.965  0.3564  0.0717  0.0902
 1070WAT     H1 3421   4.538   1.093   3.943  1.9160 -0.9918  1.0035
 1070WAT     H2 3422   4.479   1.015   4.060 -1.1598 -0.0705  0.1699
 1071WAT      O 3423   2.785   1.811   2.360 -0.3238  0.3889  0.3994
 1071WAT     H1 3424   2.780   1.899   2.397 -0.9220  0.0868  1.0632
 1071WAT     H2 3425   2.828   1.759   2.428  0.1005  0.1794 -0.0239
 1072WAT      O 3426   3.300   4.215   1.840  0.4452 -0.2076 -0.2843
 1072WAT     H1 3427   3.280   4.238   1.931 -1.9783 -2.4500 -0.1270
 1072WAT     H2 3428   3.298   4.298   1.793 -0.7968  0.7266  1.3113
 1073WAT      O 3429   2.511   0.906   2.301  0.2689  0.4644 -0.8600
 1073WAT     H1 3430   2.565   0.875   2.227 -0.5309 -0.8730 -0.9072
 1073WAT     H2 3431   2.433   0.943   2.260  0.5310  1.1591 -0.7382
 1074WAT      O 3432   1.649   0.337   0.737  0.2985  0.1383  1.0037
 1074WAT     H1 3433   1.652   0.422   0.781 -0.2588 -0.1422  1.6059
 1074WAT     H2 3434   1.557   0.322   0.719  0.3735 -0.4012  1.0300
 1075WAT      O 3435   4.127   4.016   1.373 -0.4491 -0.1167 -0.4348
 1075WAT     H1 3436   4.114   3.925   1.400  0.1005  0.4822  2.1161
 1075WAT     H2 3437   4.038   4.052   1.368 -0.6312 -0.6025 -0.7696
 1076WAT      O 3438   1.390   4.792   0.835 -0.1029 -0.2102  0.4234
 1076WAT     H1 3439   1.354   4.760   0.918 -0.6958 -1.1732 -0.1995
 1076WAT     H2 3440   1.314   4.812   0.781  0.2300 -2.1374 -0.8551
 1077WAT      O 3441   3.677   0.327   3.174 -0.0142  0.1228 -0.0515
 1077WAT     H1 3442   3.662   0.406   3.122 -1.8757  0.8564  1.4561
 1077WAT     H2 3443   3.607   0.267   3.146 -1.5883  0.8401  2.0314
 1078WAT      O 3444   1.585   3.233   5.168 -0.1785  0.5520 -0.4676
 1078WAT     H1 3445   1.634   3.151   5.164 -1.1860 -0.0302 -1.1998
 1078WAT     H2 3446   1.647   3.299   5.135 -0.2732 -0.3917 -2.6890
 1079WAT      O 3447   4.506   1.639   3.060  0.5770 -0.3199 -0.0484
 1079WAT     H1 3448   4.442   1.641   3.132  0.8897 -0.8874  0.2443
 1079WAT     H2 3449   4.454   1.617   2.982  0.6847 -2.8287  0.5063
 1080WAT      O 3450   2.487   3.912   0.415 -0.7153  0.3822  0.1229
 1080WAT     H1 3451   2.481   3.870   0.329  1.0636 -1.7275  0.9428
 1080WAT     H2 3452   2.475   4.005   0.396 -1.3913 -0.1151 -2.2616
 1081WAT      O 3453   1.052   2.972   3.630  0.8924 -0.3170 -0.1528
 1081WAT     H1 3454   1.070   3.000   3.719  3.1971 -1.2851 -0.2558
 1081WAT     H2 3455   1.019   3.051   3.586 -1.2605 -0.0562  1.7263
 1082WAT      O 3456   0.362   1.541   5.096 -0.6699 -0.0057 -0.2713
 1082WAT     H1 3457   0.343   1.632   5.076 -1.8599 -0.5477 -1.8511
 1082WAT     H2 3458   0.318   1.492   5.027  2.2098 -1.6666 -1.1069
 1083WAT      O 3459   1.027   3.216   3.498  0.5190  0.6305  0.0494
 1083WAT     H1 3460   1.025   3.311   3.503  1.1499  0.7220 -1.1521
 1083WAT     H2 3461   1.047   3.197   3.406  0.2196 -0.6618  0.2326
 1084WAT      O 3462   0.009   0.870   3.555  0.1092  0.1821  0.4610
 1084WAT     H1 3463   0.072   0.831   3.495 -2.5033 -3.3744 -0.3039
 1084WAT     H2 3464   0.048   0.858   3.642  1.0029 -0.9728 -0.0718
 1085WAT      O 3465   4.017   1.436   0.042  0.2220  0.0108  0.0689
 1085WAT     H1 3466   3.935   1.404   0.080  0.6094  1.4037  2.2533
 1085WAT     H2 3467   3.991   1.511  -0.012  0.2206  3.1547  3.9907
 1086WAT      O 3468   1.833   3.934   2.014  0.5825  0.0543 -0.3102
 1086WAT     H1 3469   1.831   3.980   1.930  0.8519  0.8330  0.1058
 1086WAT     H2 3470   1.863   3.999   2.077  0.0047 -0.4087  0.4662
 1087WAT      O 3471   4.007   2.298   2.490 -0.2598 -0.4028  0.3944
 1087WAT     H1 3472   4.102   2.308   2.489 -0.1368 -1.2410  1.4763
 1087WAT     H2 3473   3.976   2.353   2.418  1.1072 -0.8305 -0.5635
 1088WAT      O 3474   3.806   0.422   2.774  0.0622  0.2933  0.3030
 1088WAT     H1 3475   3.800   0.453   2.684  0.0166 -1.3079 -0.2797
 1088WAT     H2 3476   3.893   0.450   2.803 -0.1302  1.2912 -0.0280
 1089WAT      O 3477   3.091   2.911   3.277 -0.0738  0.6111 -0.2288
 1089WAT     H1 3478   3.076   2.830   3.325 -1.9650 -0.0322 -1.8195
 1089WAT     H2 3479   3.186   2.916   3.268  0.0830 -1.3694 -0.0307
 1090WAT      O 3480   3.876   0.691   3.794 -0.1302 -0.2448  0.2203
 1090WAT     H1 3481   3.860   0.623   3.728  2.4477 -1.8371  1.0960
 1090WAT     H2 3482   3.870   0.773   3.745 -0.5402 -1.2384 -1.4898
 1091WAT      O 3483   3.460   0.049   0.551  0.1599 -0.2346  0.3475
 1091WAT     H1 3484   3.532   0.067   0.611  0.5804 -0.7837  0.0117
 1091WAT     H2 3485   3.473  -0.042   0.524 -0.7834 -0.4097  0.4482
 1092WAT      O 3486   0.668   4.652   0.926  0.0647  0.0883 -0.1053
 1092WAT     H1 3487   0.715   4.732   0.949 -0.9597  0.8346 -0.5102
 1092WAT     H2 3488   0.596   4.647   0.989  0.0912 -0.4898 -0.1129
 1093WAT      O 3489   2.551   3.053   1.068 -0.5132  0.4658  0.0931
 1093WAT     H1 3490   2.498   3.000   1.128  0.4050 -2.3236 -1.3831
 1093WAT     H2 3491   2.630   3.001   1.053  2.7879  4.3162  2.0380
 1094WAT      O 3492   1.955   1.704   2.843  0.8379 -0.0050 -0.1603
 1094WAT     H1 3493   1.886   1.683   2.781 -0.2683  2.9302 -0.0795
 1094WAT     H2 3494   1.930   1.659   2.923  0.4519 -1.0759 -0.8666
 1095WAT      O 3495   1.276   1.784   1.240 -0.2224  0.1821  0.4259
 1095WAT     H1 3496   1.235   1.709   1.197  0.7943 -0.4565  0.5342
 1095WAT     H2 3497   1.341   1.816   1.177  1.4519 -0.9103  1.5199
 1096WAT      O 3498   2.426   2.965   5.114 -0.0975  0.6262  0.1269
 1096WAT     H1 3499   2.448   2.900   5.047  1.7856  0.7480  0.5941
 1096WAT     H2 3500   2.510   2.996   5.146 -0.8191 -0.8198  3.9132
 1097WAT      O 3501   3.797   1.260   1.426 -0.2717  0.6650  0.2778
 1097WAT     H1 3502   3.882   1.216   1.417  0.0325  1.5308 -1.7975
 1097WAT     H2 3503   3.817   1.344   1.465 -0.3680  0.3639  0.9863
 1098WAT      O 3504   1.739   2.079   3.456 -0.3285 -0.3258 -0.6957
 1098WAT     H1 3505   1.800   2.088   3.529 -0.7425  0.4680 -0.4356
 1098WAT     H2 3506   1.658   2.119   3.487  0.2732  2.6354 -2.5250
 1099WAT      O 3507   0.402   4.408   0.527  0.1517  0.1028  0.1804
 1099WAT     H1 3508   0.343   4.344   0.487  1.2448  0.2457 -1.7738
 1099WAT     H2 3509   0.369   4.493   0.497  0.6137  0.2590  0.1065
 1100WAT      O 3510   2.595   4.285   4.268 -0.4646 -0.3394  0.2411
 1100WAT     H1 3511   2.636   4.370   4.250 -0.2539 -0.5074 -0.0964
 1100WAT     H2 3512   2.502   4.300   4.255 -0.3518 -0.3659 -0.6904
 1101WAT      O 3513   0.196   3.410   2.419  0.6299  0.3299  0.0523
 1101WAT     H1 3514   0.285   3.440   2.397  0.5558  0.1180 -0.5665
 1101WAT     H2 3515   0.188   3.425   2.513  0.4932  2.5245 -0.2590
 1102WAT      O 3516   2.392   0.385   1.031 -0.3875 -0.4889  0.2663
 1102WAT     H1 3517   2.375   0.337   0.950  0.4870 -2.3253  1.0840
 1102WAT     H2 3518   2.371   0.476   1.011  1.8073 -0.4731 -2.6958
 1103WAT      O 3519   2.189   3.445   1.362 -0.3453  0.9423  0.3035
 1103WAT     H1 3520   2.160   3.368   1.410  0.3939  0.5229  0.1069
 1103WAT     H2 3521   2.276   3.421   1.329 -0.1129  1.8488  0.2163
 1104WAT      O 3522   2.049   3.016   0.481 -0.1833 -0.2086  0.3983
 1104WAT     H1 3523   1.982   3.083   0.498  0.8872  1.1721 -0.6553
 1104WAT     H2 3524   2.130   3.055   0.511  0.2348 -1.7761  1.4246
 1105WAT      O 3525   1.441   2.256   2.367 -0.3622  0.1695 -0.1301
 1105WAT     H1 3526   1.465   2.308   2.444 -0.8519  1.4116 -0.7890
 1105WAT     H2 3527   1.522   2.252   2.315  0.1990 -1.3729  0.8068
 1106WAT      O 3528   2.774   1.319   4.908 -0.0004 -0.0337 -0.0305
 1106WAT     H1 3529   2.682   1.311   4.882 -0.0440  0.3978 -0.0314
 1106WAT     H2 3530   2.772   1.373   4.987  0.2569  0.0701 -0.0916
 1107WAT      O 3531   1.260   2.653   2.565  0.0208  0.0441  0.0964
 1107WAT     H1 3532   1.328   2.677   2.501 -1.9900  0.8499 -1.8613
 1107WAT     H2 3533   1.275   2.711   2.639  1.8021 -0.2125 -0.0170
 1108WAT      O 3534   0.388   3.573   5.004  0.1426  0.0677  0.2836
 1108WAT     H1 3535   0.457   3.639   5.004 -0.4549  0.6998 -0.4161
 1108WAT     H2 3536   0.318   3.610   4.950  0.7258 -2.1167 -2.1681
 1109WAT      O 3537   4.282   0.799   1.432 -0.6173 -0.1310 -0.4527
 1109WAT     H1 3538   4.358   0.780   1.486 -0.2060 -1.0521 -1.3226
 1109WAT     H2 3539   4.269   0.894   1.441  1.0925  0.1818 -0.8725
 1110WAT      O 3540   4.246   3.548   0.786 -0.3386  0.5031 -0.7663
 1110WAT     H1 3541   4.275   3.581   0.700  0.7960 -0.0531 -0.6204
 1110WAT     H2 3542   4.327   3.518   0.828 -0.3784  3.4453  1.7224
 1111WAT      O 3543   3.418   0.794   0.385 -0.0367  0.2985 -0.1783
 1111WAT     H1 3544   3.442   0.749   0.304 -0.2252  0.3952 -0.2874
 1111WAT     H2 3545   3.392   0.724   0.445  0.2838  0.2119 -0.1400
 1112WAT      O 3546   1.134   4.111   1.119  0.4659 -0.3131 -0.0459
 1112WAT     H1 3547   1.069   4.143   1.182 -0.0761 -2.4283  0.5739
 1112WAT     H2 3548   1.084   4.097   1.038  0.3856 -0.9194  0.1075
 1113WAT      O 3549   2.887   2.314   2.507 -0.1441 -0.0109  0.6474
 1113WAT     H1 3550   2.909   2.247   2.442  2.4581  0.4592  0.9326
 1113WAT     H2 3551   2.824   2.370   2.463  2.4693  1.0446 -2.0674
 1114WAT      O 3552   2.368   4.745   0.992 -0.4205 -0.7845  0.6451
 1114WAT     H1 3553   2.412   4.802   1.054  0.9967  0.9828 -1.7959
 1114WAT     H2 3554   2.415   4.662   0.998 -0.1333 -0.5559  1.6924
 1115WAT      O 3555   2.677   4.552   4.279 -0.3957  0.2201  0.2705
 1115WAT     H1 3556   2.769   4.576   4.266 -0.5909 -0.0304 -1.8848
 1115WAT     H2 3557   2.638   4.559   4.192 -2.1687 -0.7688  0.9461
 1116WAT      O 3558   4.470   4.753   4.853  0.6641  1.0761  0.2861
 1116WAT     H1 3559   4.435   4.699   4.924 -0.7219 -0.5492 -1.5387
 1116WAT     H2 3560   4.408   4.825   4.845 -0.4061  0.0816 -0.6548
 1117WAT      O 3561   3.662   1.816   2.453 -0.3133 -0.3866 -0.1067
 1117WAT     H1 3562   3.628   1.905   2.449  1.5837  0.3773 -0.1611
 1117WAT     H2 3563   3.703   1.810   2.540  2.1468 -0.1787 -1.1923
 1118WAT      O 3564   1.970   0.628   2.054  0.2121 -0.0603 -0.1242
 1118WAT     H1 3565   1.952   0.550   2.001 -2.6493  1.9532 -2.4681
 1118WAT     H2 3566   2.048   0.666   2.013  0.8585 -0.9534  0.2241
 1119WAT      O 3567   1.267   3.251   3.756  0.2879  0.1515  0.1925
 1119WAT     H1 3568   1.313   3.326   3.718  0.9895  0.8867  2.3542
 1119WAT     H2 3569   1.302   3.175   3.708 -0.2986  1.1178 -1.9107
 1120WAT      O 3570   3.893   3.577   2.008 -0.6845  0.0153  0.3830
 1120WAT     H1 3571   3.896   3.587   2.103 -0.1512 -0.5049  0.4302
 1120WAT     H2 3572   3.894   3.482   1.994 -0.5190  0.0891 -0.1413
 1121WAT      O 3573   1.853   2.566   0.690 -0.1629  0.5806 -0.8544
 1121WAT     H1 3574   1.909   2.640   0.667 -0.9072  1.5283  0.2088
 1121WAT     H2 3575   1.784   2.605   0.744 -0.0898 -1.0305  0.4937
 1122WAT      O 3576   0.144   3.067   2.054 -0.1908  0.0039  0.0550
 1122WAT     H1 3577   0.137   3.135   2.122  1.9590 -1.1857  1.5774
 1122WAT     H2 3578   0.057   3.027   2.051 -0.1696 -0.3695  2.6424
 1123WAT      O 3579   4.288   4.528   0.295 -0.4037  0.4278  0.4216
 1123WAT     H1 3580   4.324   4.506   0.381 -0.4178 -0.8308  0.1347
 1123WAT     H2 3581   4.196   4.548   0.312 -0.7933 -1.2859  0.5469
 1124WAT      O 3582   1.758   2.760   2.911 -0.3764 -0.5593  0.2516
 1124WAT     H1 3583   1.670   2.756   2.948  0.5495  1.4127  2.9696
 1124WAT     H2 3584   1.810   2.701   2.965  0.7061  1.2913  1.3545
 1125WAT      O 3585   3.128   2.416   2.183  0.6054 -0.2311 -0.3160
 1125WAT     H1 3586   3.114   2.511   2.174  0.2562 -0.2946 -0.4433
 1125WAT     H2 3587   3.153   2.404   2.274 -0.7354 -0.1862  0.0744
 1126WAT      O 3588   1.826   0.683   2.274  0.2534  0.2663  0.1904
 1126WAT     H1 3589   1.813   0.610   2.213 -0.4977  0.2718  0.3281
 1126WAT     H2 3590   1.918   0.706   2.265  0.0604  0.5244 -1.2375
 1127WAT      O 3591   1.483   2.452   2.549 -0.1783 -0.9656  0.2155
 1127WAT     H1 3592   1.534   2.506   2.609  0.1104 -0.1744 -0.7102
 1127WAT     H2 3593   1.403   2.430   2.597  0.8163 -1.8421  1.5150
 1128WAT      O 3594   4.331   3.347   1.141 -0.4958 -0.0740 -0.0321
 1128WAT     H1 3595   4.248   3.310   1.172 -0.3455  0.3068  0.8588
 1128WAT     H2 3596   4.315   3.442   1.139  0.1542  0.0743  0.9433
 1129WAT      O 3597   0.536   5.000   2.233 -0.3451  0.3650  0.1289
 1129WAT     H1 3598   0.555   4.989   2.326  1.2009  0.1916 -0.1888
 1129WAT     H2 3599   0.580   4.927   2.191 -2.8231 -0.8221 -0.5844
 1130WAT      O 3600   3.956   3.544   4.926  0.0025 -0.1762  0.1584
 1130WAT     H1 3601   3.979   3.582   4.841 -1.9081 -0.0202 -0.3337
 1130WAT     H2 3602   3.897   3.472   4.905 -0.7815  0.0870  1.3740
 1131WAT      O 3603   1.868   4.686   3.473 -0.2060  0.2168 -0.8969
 1131WAT     H1 3604   1.819   4.607   3.494 -0.8048  0.3948 -1.5856
 1131WAT     H2 3605   1.952   4.654   3.440 -0.0436 -0.1013 -0.1974
 1132WAT      O 3606   1.603   2.412   3.287  1.1708  0.2732  1.0438
 1132WAT     H1 3607   1.537   2.480   3.277  1.7269  0.6698 -0.2033
 1132WAT     H2 3608   1.626   2.413   3.380  0.5360  1.1864  1.1997
 1133WAT      O 3609   0.140   2.908   1.373 -0.4445 -0.0443  0.4822
 1133WAT     H1 3610   0.207   2.930   1.438 -0.2498 -2.0616  1.0184
 1133WAT     H2 3611   0.127   2.814   1.382  0.0985 -0.5625 -2.9206
 1134WAT      O 3612   2.954   1.749   3.775 -0.0142 -0.6973 -0.6227
 1134WAT     H1 3613   3.032   1.712   3.732  0.2157 -0.5360 -0.3480
 1134WAT     H2 3614   2.988   1.790   3.855 -0.6633 -2.6461  0.7359
 1135WAT      O 3615   4.106   2.496   1.794  0.2491 -0.0436 -0.3193
 1135WAT     H1 3616   4.097   2.486   1.888 -1.4075  0.1072 -0.4301
 1135WAT     H2 3617   4.085   2.410   1.758  0.9413 -0.1200 -0.5618
 1136WAT      O 3618   3.903   4.152   0.696 -0.5297 -0.0011 -0.0646
 1136WAT     H1 3619   3.872   4.095   0.626 -0.1855  1.2213 -1.2563
 1136WAT     H2 3620   3.827   4.168   0.751 -0.6377 -1.5564  0.2776
 1137WAT      O 3621   1.480   2.493   3.891 -0.1232  0.0577 -0.3489
 1137WAT     H1 3622   1.573   2.475   3.903 -0.2599 -0.1276  0.4502
 1137WAT     H2 3623   1.435   2.432   3.950 -0.6841  1.3885  0.6570
 1138WAT      O 3624   4.007   1.283   4.223 -0.4212 -0.0761 -0.3191
 1138WAT     H1 3625   3.965   1.289   4.309 -0.9278 -0.5462 -0.5253
 1138WAT     H2 3626   4.085   1.230   4.237 -1.0486 -1.0258 -0.3333
 1139WAT      O 3627   1.642   4.426   5.257  0.7885  0.3386 -0.5583
 1139WAT     H1 3628   1.622   4.511   5.216 -2.6152  0.2539  0.5972
 1139WAT     H2 3629   1.595   4.428   5.340  0.5915 -2.6873 -0.4991
 1140WAT      O 3630   3.817   2.484   3.911 -0.0511 -0.0836  0.3215
 1140WAT     H1 3631   3.740   2.492   3.855  0.2858 -1.1253 -0.3217
 1140WAT     H2 3632   3.782   2.477   4.000 -0.5448  2.8035  0.4305
 1141WAT      O 3633   3.911   1.792   4.534 -0.6763  0.6071  0.1171
 1141WAT     H1 3634   3.891   1.756   4.620  1.2206  0.6513  0.6304
 1141WAT     H2 3635   3.850   1.748   4.475 -2.8546  1.4688  1.6010
 1142WAT      O 3636   2.139   1.592   0.787  0.5137  0.1317 -0.5409
 1142WAT     H1 3637   2.140   1.586   0.692  0.3569 -0.3253 -0.5159
 1142WAT     H2 3638   2.176   1.509   0.817  0.4829  0.2389 -0.2039
 1143WAT      O 3639   3.747   0.162   0.374 -0.3233  0.4414  0.2615
 1143WAT     H1 3640   3.806   0.227   0.412  0.2632 -0.5127  1.0286
 1143WAT     H2 3641   3.693   0.212   0.313  2.8359  0.9893 -2.3396
 1144WAT      O 3642   1.574   2.012   3.139 -0.3061 -0.6991  0.0319
 1144WAT     H1 3643   1.644   2.072   3.112  0.0028 -1.1188 -0.1264
 1144WAT     H2 3644   1.587   2.000   3.233 -0.8938  0.1406  0.2353
 1145WAT      O 3645   3.585   0.003   3.134  0.1518  0.4580  0.2954
 1145WAT     H1 3646   3.513  -0.006   3.072 -0.8800 -0.1430  1.5265
 1145WAT     H2 3647   3.542   0.019   3.218  1.3423 -1.6279  1.3911
 1146WAT      O 3648   4.289   0.289   4.177  0.5402  0.4835  0.5025
 1146WAT     H1 3649   4.330   0.313   4.094  1.2118 -0.1519  0.6455
 1146WAT     H2 3650   4.236   0.365   4.200  0.4717  0.7277 -0.4288
 1147WAT      O 3651   0.868   3.550   4.112 -0.2610  0.1157 -0.0288
 1147WAT     H1 3652   0.956   3.588   4.119  0.0532 -0.2338 -1.6579
 1147WAT     H2 3653   0.824   3.575   4.193  1.3085  0.3829  0.7676
 1148WAT      O 3654   1.056   3.559   5.029  0.4395 -0.1365  0.3573
 1148WAT     H1 3655   1.076   3.615   4.954  0.3532  0.5463  0.8319
 1148WAT     H2 3656   1.117   3.588   5.097 -0.3948  0.1889  0.9874
 1149WAT      O 3657   0.948   0.176   0.971  0.4994 -0.3312  0.5123
 1149WAT     H1 3658   0.867   0.126   0.966  1.2559 -1.5391 -0.1194
 1149WAT     H2 3659   0.994   0.157   0.889  0.2030  2.5351 -0.4339
 1150WAT      O 3660   3.274   3.731   3.046 -0.3554  0.1014 -0.0568
 1150WAT     H1 3661   3.202   3.792   3.026 -0.9075 -0.1104  1.2150
 1150WAT     H2 3662   3.330   3.779   3.107  0.7458  0.3505 -1.2207
 1151WAT      O 3663   3.267   2.382   1.109  0.5260 -0.3894 -0.3972
 1151WAT     H1 3664   3.211   2.413   1.181  0.1088  3.5268 -2.1118
 1151WAT     H2 3665   3.207   2.340   1.048  0.4400 -1.3087  0.3070
 1152WAT      O 3666   1.306   0.738   0.921  0.6241  0.3329  0.7600
 1152WAT     H1 3667   1.253   0.788   0.859  0.8204 -0.7518 -0.3240
 1152WAT     H2 3668   1.250   0.729   0.999 -0.2940  0.2855  0.1109
 1153WAT      O 3669   3.474   0.388   1.446 -0.1996  0.0396 -0.3218
 1153WAT     H1 3670   3.569   0.404   1.446 -0.0184 -0.3025  2.9096
 1153WAT     H2 3671   3.460   0.328   1.373  1.9806  0.5156 -1.2078
 1154WAT      O 3672   0.835   0.607   2.186  0.0237  0.1745  0.0457
 1154WAT     H1 3673   0.745   0.602   2.220 -0.3035 -1.1489 -0.9386
 1154WAT     H2 3674   0.840   0.695   2.148  0.4461  1.7916  3.4110
 1155WAT      O 3675   3.823   0.992   2.227 -0.0060 -0.4270  0.0299
 1155WAT     H1 3676   3.819   0.898   2.210  1.7119 -0.6528  0.6594
 1155WAT     H2 3677   3.759   1.007   2.296  0.7841 -1.4428  1.0273
 1156WAT      O 3678   2.697   0.131   1.341  0.1740 -0.2821  0.1628
 1156WAT     H1 3679   2.699   0.212   1.291  0.5375 -1.2052 -1.3879
 1156WAT     H2 3680   2.606   0.101   1.335  0.1584 -0.2632  0.2926
 1157WAT      O 3681   4.421   4.918   1.066  0.0627 -0.2157 -0.4664
 1157WAT     H1 3682   4.510   4.935   1.034  0.3728  0.0693  0.5078
 1157WAT     H2 3683   4.377   5.002   1.060  0.4969  0.1405  0.9648
 1158WAT      O 3684   3.743   3.905   1.211 -0.0462 -0.2998 -0.0436
 1158WAT     H1 3685   3.710   3.878   1.296 -1.3408 -0.1041 -0.4590
 1158WAT     H2 3686   3.789   3.828   1.177  1.6534  0.0401  1.3667
 1159WAT      O 3687   0.196   2.801   4.126  0.1184  0.2156 -0.2499
 1159WAT     H1 3688   0.127   2.856   4.164 -0.3506  0.7546 -1.7861
 1159WAT     H2 3689   0.231   2.854   4.054  1.5610 -0.4098 -0.0410
 1160WAT      O 3690   3.298   1.299   1.099  0.0998  0.4964  0.2841
 1160WAT     H1 3691   3.322   1.316   1.190  0.4099  0.2562  0.2496
 1160WAT     H2 3692   3.219   1.351   1.085  0.6966  1.4651  0.3497
 1161WAT      O 3693   1.591   4.041   4.384  0.2380  0.2686  0.2900
 1161WAT     H1 3694   1.607   4.118   4.330  2.3757 -0.0946  0.3022
 1161WAT     H2 3695   1.551   4.075   4.464  0.4409  1.2595 -0.0259
 1162WAT      O 3696   4.342   0.946   4.817 -0.3562  0.0765  0.0789
 1162WAT     H1 3697   4.272   0.927   4.879 -0.8234 -3.0044 -1.2079
 1162WAT     H2 3698   4.423   0.927   4.865 -0.6519 -0.9595  0.1880
 1163WAT      O 3699   2.619   2.931   1.650 -0.0932  0.5478 -0.1421
 1163WAT     H1 3700   2.582   2.855   1.696 -1.4899  1.4437  0.2573
 1163WAT     H2 3701   2.707   2.902   1.624  0.1856 -0.5040  1.7875
 1164WAT      O 3702   2.982   3.286   0.948  0.3725  0.2149  0.1151
 1164WAT     H1 3703   2.951   3.209   0.902 -1.7211  1.1439 -0.1303
 1164WAT     H2 3704   3.032   3.335   0.882 -1.8758  1.1091 -1.0346
 1165WAT      O 3705   1.249   4.769   1.055  0.3177  0.0429 -0.0382
 1165WAT     H1 3706   1.165   4.807   1.031  0.6496  0.4505 -0.5802
 1165WAT     H2 3707   1.278   4.819   1.131 -0.6442 -1.1204  1.1430
 1166WAT      O 3708   0.723   3.927   5.207 -0.4938  0.1159  0.0181
 1166WAT     H1 3709   0.785   3.986   5.250  0.0223  2.5481 -3.5998
 1166WAT     H2 3710   0.637   3.955   5.238 -0.0673  0.4792  0.8946
 1167WAT      O 3711   2.874   2.634   1.210  0.0965 -0.4437  0.3594
 1167WAT     H1 3712   2.942   2.656   1.274 -0.4749  0.9809  0.4974
 1167WAT     H2 3713   2.913   2.658   1.126 -0.5244  1.2377  0.5085
 1168WAT      O 3714   0.747   2.248   2.465 -0.3740 -0.2010  0.3349
 1168WAT     H1 3715   0.667   2.295   2.488  0.3321  0.3610  1.8053
 1168WAT     H2 3716   0.750   2.249   2.369 -1.2423  1.2748  0.3054
 1169WAT      O 3717   1.764   2.347   0.574 -0.2073  0.0136  0.8557
 1169WAT     H1 3718   1.798   2.429   0.610  1.2542 -1.1208  2.1975
 1169WAT     H2 3719   1.829   2.281   0.597 -1.9632 -1.7874  1.0095
 1170WAT      O 3720   2.896   4.211   3.038  0.0723  0.0673 -0.1074
 1170WAT     H1 3721   2.802   4.201   3.023  0.3619 -0.1756 -2.0290
 1170WAT     H2 3722   2.917   4.144   3.103 -1.2055  0.6779  0.9771
 1171WAT      O 3723   0.082   1.296   5.146  0.4626  0.4206 -0.5553
 1171WAT     H1 3724   0.161   1.251   5.177 -0.4749 -0.4689  0.6331
 1171WAT     H2 3725   0.046   1.237   5.079  0.8046  0.8358 -1.1121
 1172WAT      O 3726   2.085   0.874   3.677  0.3967 -0.5939 -0.1406
 1172WAT     H1 3727   2.084   0.928   3.598  0.9376  0.3914  0.5016
 1172WAT     H2 3728   1.994   0.873   3.706  0.4486  0.3871  0.1004
 1173WAT      O 3729   3.121   3.043   2.832 -0.0594 -0.5277  0.3584
 1173WAT     H1 3730   3.091   3.067   2.920 -0.0057 -0.6860  0.4201
 1173WAT     H2 3731   3.043   3.006   2.790 -0.2858  0.2323  0.0811
 1174WAT      O 3732   3.190   1.886   2.076  1.2336  0.7101 -0.6430
 1174WAT     H1 3733   3.141   1.842   2.006  1.5869 -0.0636 -0.4129
 1174WAT     H2 3734   3.187   1.978   2.053 -3.9499  1.4163  1.4623
 1175WAT      O 3735   3.641   4.223   3.398 -0.4284  0.7335  0.4575
 1175WAT     H1 3736   3.693   4.302   3.412  0.7514  0.2211 -0.8952
 1175WAT     H2 3737   3.640   4.180   3.484 -1.3792  2.3324  1.3113
 1176WAT      O 3738   2.676   1.887   0.089  0.5401 -0.5069 -0.5580
 1176WAT     H1 3739   2.626   1.905   0.009  1.2584  2.1421 -0.4766
 1176WAT     H2 3740   2.653   1.958   0.149  1.9178 -1.0653  0.6984
 1177WAT      O 3741   1.819   2.970   1.063 -0.4372 -0.1738 -0.8414
 1177WAT     H1 3742   1.872   2.894   1.086 -2.4787 -0.4692  4.1035
 1177WAT     H2 3743   1.878   3.045   1.078  0.3685 -0.6173 -1.6780
 1178WAT      O 3744   0.359   4.364   1.623  0.0845 -0.2025  0.0830
 1178WAT     H1 3745   0.395   4.446   1.591  0.6125 -0.3876  0.1858
 1178WAT     H2 3746   0.321   4.386   1.708 -2.0800  0.4718 -1.0022
 1179WAT      O 3747   1.783   3.878   2.468 -0.0794 -0.0427 -0.2578
 1179WAT     H1 3748   1.844   3.885   2.541 -0.9958 -1.4243  0.6739
 1179WAT     H2 3749   1.731   3.958   2.471  1.2151  0.8529 -0.6771
 1180WAT      O 3750   2.095   0.887   3.375 -0.3587  0.1381 -0.4374
 1180WAT     H1 3751   2.149   0.808   3.372  0.7530  0.8098  0.8489
 1180WAT     H2 3752   2.022   0.867   3.317  0.4101 -1.4411 -0.9476
 1181WAT      O 3753   0.067   0.804   0.885  0.3745 -0.3706 -0.1221
 1181WAT     H1 3754   0.157   0.810   0.917 -0.3230 -1.0908  2.1905
 1181WAT     H2 3755   0.025   0.742   0.944 -1.2372 -1.3903 -2.2131
 1182WAT      O 3756   3.296   4.001   4.680  0.2478 -0.4233  0.2004
 1182WAT     H1 3757   3.330   3.959   4.601 -0.5365 -2.2462  0.7883
 1182WAT     H2 3758   3.369   4.055   4.711  0.4048  0.7586 -2.0178
 1183WAT      O 3759   2.433   0.391   4.686 -0.0343  0.1844  0.2204
 1183WAT     H1 3760   2.382   0.325   4.640 -0.7604  0.5282  0.5180
 1183WAT     H2 3761   2.430   0.365   4.778 -0.5460  0.7720  0.3740
 1184WAT      O 3762   1.393   1.115   1.442 -0.3379 -0.3557  0.7750
 1184WAT     H1 3763   1.348   1.193   1.410  0.6707 -0.5293 -1.2558
 1184WAT     H2 3764   1.456   1.148   1.506 -0.8381  0.3136  0.9386
 1185WAT      O 3765   0.323   0.425   5.202 -0.8633 -0.2776  0.3027
 1185WAT     H1 3766   0.411   0.464   5.199 -0.4477 -1.2335 -0.2750
 1185WAT     H2 3767   0.284   0.461   5.282  0.8248 -1.4271  1.7015
 1186WAT      O 3768   2.498   4.807   0.674  0.2862  0.1795  0.1350
 1186WAT     H1 3769   2.562   4.839   0.610 -0.5762 -0.6732 -1.2301
 1186WAT     H2 3770   2.541   4.819   0.759  1.8996  0.4223 -0.6621
 1187WAT      O 3771   3.170   4.101   1.109  0.6039  0.7027 -0.1552
 1187WAT     H1 3772   3.203   4.035   1.171  0.6558  0.4153 -0.4831
 1187WAT     H2 3773   3.139   4.049   1.034  0.9384  1.0700 -0.5545
 1188WAT      O 3774   0.377   1.007   0.250 -0.4793 -0.2064  0.1731
 1188WAT     H1 3775   0.378   1.044   0.338 -0.2990  0.0052  0.0807
 1188WAT     H2 3776   0.442   1.057   0.201  0.8406 -1.5955  0.4269
 1189WAT      O 3777   2.363   4.137   1.203 -0.2868  0.3745  0.2325
 1189WAT     H1 3778   2.319   4.083   1.270  0.1203  0.1758  0.3431
 1189WAT     H2 3779   2.298   4.202   1.179 -0.1878  0.9323  1.3830
 1190WAT      O 3780   3.473   2.878   3.581  0.0870  0.0249 -0.2678
 1190WAT     H1 3781   3.427   2.794   3.587  0.1830  0.0946  2.5487
 1190WAT     H2 3782   3.565   2.854   3.564 -0.1895 -0.3005 -1.4192
 1191WAT      O 3783   3.887   1.885   4.847  0.2090  0.5144  0.1808
 1191WAT     H1 3784   3.877   1.793   4.870 -1.1197  0.7264  0.5289
 1191WAT     H2 3785   3.980   1.896   4.830  0.3498 -0.9340 -0.0509
 1192WAT      O 3786   4.413   3.829   1.431  0.2141  1.0208  0.5362
 1192WAT     H1 3787   4.373   3.915   1.441 -0.4958  0.6942  0.5930
 1192WAT     H2 3788   4.396   3.785   1.514  1.6070  1.2281  0.9563
 1193WAT      O 3789   3.674   0.672   0.786  0.1674  0.6073 -0.6425
 1193WAT     H1 3790   3.654   0.604   0.850 -0.9396  1.4353 -0.0852
 1193WAT     H2 3791   3.680   0.625   0.703 -1.5742 -0.0668 -0.4277
 1194WAT      O 3792   0.675   2.488   0.498 -0.2547 -0.4473  0.2883
 1194WAT     H1 3793   0.724   2.531   0.569 -0.2527 -0.8098  0.5100
 1194WAT     H2 3794   0.730   2.413   0.474  1.8650  1.8234 -2.9031
 1195WAT      O 3795   0.913   2.743   3.286  0.3233 -0.0917 -0.1439
 1195WAT     H1 3796   0.970   2.677   3.247  0.4232 -0.3035  0.3520
 1195WAT     H2 3797   0.837   2.694   3.316  0.8055 -0.1332  1.0511
 1196WAT      O 3798   0.704   1.007   4.997 -0.8184 -0.2973  0.5733
 1196WAT     H1 3799   0.780   0.981   4.945 -0.4342 -0.2950  1.1245
 1196WAT     H2 3800   0.631   1.006   4.935 -0.1783  0.8144 -0.2294
 1197WAT      O 3801   3.650   4.655   0.220 -0.4474  0.2791 -0.4443
 1197WAT     H1 3802   3.614   4.684   0.136  1.0912 -0.8537 -1.5436
 1197WAT     H2 3803   3.632   4.561   0.222  2.2119 -0.3077 -0.9926
 1198WAT      O 3804   3.757   3.594   4.317  0.0395  0.4972 -0.0442
 1198WAT     H1 3805   3.670   3.623   4.346 -0.0659 -1.5841  2.0484
 1198WAT     H2 3806   3.816   3.617   4.388  0.9255  0.4788 -0.7476
 1199WAT      O 3807   1.088   4.642   1.854  0.5756 -0.3623 -0.1829
 1199WAT     H1 3808   1.049   4.718   1.811 -2.2888 -1.8868 -0.5454
 1199WAT     H2 3809   1.168   4.676   1.894  1.1605  2.0915 -3.0297
 1200WAT      O 3810   2.338   2.387   3.763  0.3589 -0.0145  0.0872
 1200WAT     H1 3811   2.407   2.333   3.802  0.4431  0.2832  0.3491
 1200WAT     H2 3812   2.379   2.472   3.749  1.1985 -0.8153 -3.1474
 1201WAT      O 3813   2.845   2.585   5.101 -0.2747 -0.1883  0.4419
 1201WAT     H1 3814   2.914   2.582   5.167  0.0367 -0.4018  0.1054
 1201WAT     H2 3815   2.808   2.497   5.101 -0.7816  0.0158  0.8626
 1202WAT      O 3816   1.419   3.491   2.252  0.4280 -0.0335  0.0800
 1202WAT     H1 3817   1.409   3.423   2.318  0.9906  0.0878  0.2979
 1202WAT     H2 3818   1.486   3.456   2.192 -1.4068 -0.9962 -1.5417
 1203WAT      O 3819   3.125   0.064   0.457  0.1295  0.0771 -0.1448
 1203WAT     H1 3820   3.144   0.050   0.550  1.4105 -1.8448 -0.6523
 1203WAT     H2 3821   3.074   0.146   0.456  0.7273  0.5646  2.1551
 1204WAT      O 3822   0.752   2.818   0.866 -0.0171 -0.6738 -0.3356
 1204WAT     H1 3823   0.752   2.891   0.928 -1.4798 -0.8095 -0.1405
 1204WAT     H2 3824   0.714   2.854   0.786  0.1919 -0.9655 -0.5721
 1205WAT      O 3825   0.367   3.842   0.635  0.3013 -0.1847  0.3066
 1205WAT     H1 3826   0.458   3.815   0.621  0.3907 -0.4228  1.2243
 1205WAT     H2 3827   0.318   3.803   0.563  0.6062 -1.8940  0.9775
 1206WAT      O 3828   3.125   2.173   0.943  0.4044 -0.2881 -0.1652
 1206WAT     H1 3829   3.112   2.165   1.037  0.1494  0.2080 -0.1604
 1206WAT     H2 3830   3.092   2.090   0.907 -3.1739  1.0069 -0.2011
 1207WAT      O 3831   4.425   0.335   5.010  0.4271  0.3883  0.1357
 1207WAT     H1 3832   4.459   0.415   5.048 -0.7019  0.2224  1.5845
 1207WAT     H2 3833   4.441   0.268   5.076 -1.4506  0.0601  0.3174
 1208WAT      O 3834   3.472   5.067   2.294 -0.9262  0.8226 -0.1678
 1208WAT     H1 3835   3.398   5.019   2.331 -0.0556 -0.5063 -0.0752
 1208WAT     H2 3836   3.546   5.008   2.306  0.3108  2.4453  0.4419
 1209WAT      O 3837   0.284   3.135   4.141 -0.0520 -0.2074  0.3286
 1209WAT     H1 3838   0.283   3.086   4.059  0.7895 -0.8609  0.6823
 1209WAT     H2 3839   0.377   3.142   4.163 -0.2460  0.3250  1.0054
 1210WAT      O 3840   2.496   4.871   3.427 -0.0671 -0.3178  0.2655
 1210WAT     H1 3841   2.560   4.878   3.357  0.1208  1.1887  0.5399
 1210WAT     H2 3842   2.549   4.866   3.507 -0.2851 -0.8624  0.3780
 1211WAT      O 3843   0.623   2.840   4.338  0.2698 -0.0104  0.3073
 1211WAT     H1 3844   0.587   2.878   4.258  0.6639 -2.9898 -1.4617
 1211WAT     H2 3845   0.717   2.838   4.323  0.2234 -2.3778 -0.1735
 1212WAT      O 3846   0.205   2.006   0.385 -0.3917  0.5894 -0.2455
 1212WAT     H1 3847   0.232   1.915   0.399 -0.2175  0.5214 -0.9886
 1212WAT     H2 3848   0.148   2.002   0.309  0.1309  1.1893 -0.6753
 1213WAT      O 3849   4.193   2.057   1.037  0.0396 -0.0641 -0.1340
 1213WAT     H1 3850   4.178   1.968   1.005 -0.9189 -0.4365  1.2650
 1213WAT     H2 3851   4.186   2.112   0.959  0.7464 -1.2181 -1.0336
 1214WAT      O 3852   1.510   4.452   4.324 -0.1351 -0.7088 -0.5692
 1214WAT     H1 3853   1.555   4.439   4.407  1.6069 -1.9965 -1.6336
 1214WAT     H2 3854   1.545   4.534   4.290 -2.0109  0.6443  0.6181
 1215WAT      O 3855   3.494   5.128   3.778  0.3153  0.3179 -0.1034
 1215WAT     H1 3856   3.588   5.142   3.787  0.4399 -0.3219 -0.3850
 1215WAT     H2 3857   3.454   5.203   3.823  0.9554  0.6217 -0.0344
 1216WAT      O 3858   1.042   0.323   2.722 -0.4654  0.3889  0.0274
 1216WAT     H1 3859   1.004   0.280   2.645  0.7046  1.1435 -1.0333
 1216WAT     H2 3860   1.136   0.325   2.703 -0.0972  0.1703  1.7248
 1217WAT      O 3861   1.385   0.126   2.935 -0.2654 -0.3380 -0.2063
 1217WAT     H1 3862   1.434   0.096   3.012 -1.7535 -1.1238  0.4787
 1217WAT     H2 3863   1.299   0.151   2.970 -0.5111  0.6318 -1.4307
 1218WAT      O 3864   0.006   0.063   2.482 -0.0727  0.1299  0.2833
 1218WAT     H1 3865  -0.046   0.086   2.404  1.7195  1.5788 -0.5747
 1218WAT     H2 3866  -0.026  -0.024   2.507 -1.3058 -0.0161 -1.5468
 1219WAT      O 3867   4.104   4.890   3.144 -0.4015 -0.3276 -0.3254
 1219WAT     H1 3868   4.051   4.935   3.210 -0.5911  1.6563 -1.7588
 1219WAT     H2 3869   4.120   4.956   3.077  1.7355 -1.6178 -1.1810
 1220WAT      O 3870   3.047   1.361   1.785  0.2239 -0.2813  0.0984
 1220WAT     H1 3871   3.052   1.402   1.698 -0.3425 -1.4233 -0.5004
 1220WAT     H2 3872   2.959   1.381   1.816 -0.1333 -1.1875 -0.2909
 1221WAT      O 3873   3.679   0.768   3.988 -0.3009  0.9502 -0.5577
 1221WAT     H1 3874   3.743   0.727   3.930  0.7950 -0.3873  1.4768
 1221WAT     H2 3875   3.681   0.861   3.965  1.2990  0.7030 -1.5489
 1222WAT      O 3876   0.440   1.312   4.250  0.4526 -0.0061  0.0758
 1222WAT     H1 3877   0.382   1.372   4.298  0.6272 -1.5737  2.3829
 1222WAT     H2 3878   0.528   1.346   4.266  0.4455 -0.0127  0.1305
 1223WAT      O 3879   1.396   3.169   4.805  0.7182 -0.3107 -0.5322
 1223WAT     H1 3880   1.418   3.123   4.724 -0.9880 -0.2707 -1.0620
 1223WAT     H2 3881   1.478   3.175   4.853  1.9782  0.4937 -2.6685
 1224WAT      O 3882   1.293   4.742   5.246 -0.0427 -0.3242  0.8462
 1224WAT     H1 3883   1.319   4.820   5.197  3.1820 -1.2258  0.9635
 1224WAT     H2 3884   1.248   4.687   5.181  0.8163  0.1096 -0.1449
 1225WAT      O 3885   3.506   1.020   0.654  0.1452 -0.0125  0.0313
 1225WAT     H1 3886   3.500   1.115   0.645  1.8977  0.1083 -0.2430
 1225WAT     H2 3887   3.528   0.989   0.566  2.1730 -0.3802  0.6235
 1226WAT      O 3888   1.174   4.662   4.466  0.3828  0.3056  0.2834
 1226WAT     H1 3889   1.251   4.665   4.409  0.2735 -1.1240  0.0095
 1226WAT     H2 3890   1.124   4.740   4.444  1.6566  1.1642  0.3380
 1227WAT      O 3891   3.602   2.667   0.105 -0.1426 -0.2670  0.3077
 1227WAT     H1 3892   3.591   2.573   0.116 -1.5808 -0.1250  0.3459
 1227WAT     H2 3893   3.602   2.702   0.194  0.6068 -0.2545  0.3012
 1228WAT      O 3894   3.793   2.999   2.355 -0.0112 -0.0764  0.3180
 1228WAT     H1 3895   3.774   3.081   2.310  3.6837  0.0535 -1.3847
 1228WAT     H2 3896   3.755   2.932   2.299  0.8546  0.3035 -0.7574
 1229WAT      O 3897   1.547   2.194   3.813  0.2756 -0.2095  0.0025
 1229WAT     H1 3898   1.564   2.174   3.721  0.5327  2.2744 -0.5392
 1229WAT     H2 3899   1.622   2.156   3.860  0.6335 -0.6512 -0.9055
 1230WAT      O 3900   1.921   4.426   1.536  0.3412  0.3059  0.0615
 1230WAT     H1 3901   2.010   4.449   1.561  0.5838  0.2801 -0.7430
 1230WAT     H2 3902   1.929   4.342   1.491  0.0866  0.8427 -1.0245
 1231WAT      O 3903   4.026   0.599   0.448 -0.0454  0.2067  0.0074
 1231WAT     H1 3904   4.065   0.605   0.535  0.7829  2.1999 -0.4385
 1231WAT     H2 3905   4.002   0.689   0.426 -2.6662 -0.5910 -0.7768
 1232WAT      O 3906   4.317   3.524   2.263  0.0760  0.6890  0.8709
 1232WAT     H1 3907   4.372   3.495   2.191 -0.3355 -1.1655  1.2653
 1232WAT     H2 3908   4.252   3.581   2.222 -2.3867 -3.0658 -0.9846
 1233WAT      O 3909   3.415   1.696   2.459 -0.6138 -0.3027 -1.0763
 1233WAT     H1 3910   3.379   1.767   2.406  0.6443  1.4622  0.3055
 1233WAT     H2 3911   3.510   1.704   2.449 -0.3805 -0.5332  0.6371
 1234WAT      O 3912   2.672   2.793   4.412  0.1462  0.1816 -0.3782
 1234WAT     H1 3913   2.733   2.865   4.397  1.5573 -1.3371 -2.3543
 1234WAT     H2 3914   2.629   2.779   4.328 -1.3463 -0.2387  0.4108
 1235WAT      O 3915   3.247   4.798   1.132 -0.4842 -0.1911  0.1112
 1235WAT     H1 3916   3.245   4.894   1.132 -1.5325 -0.1999  0.3507
 1235WAT     H2 3917   3.242   4.774   1.039  0.2530 -0.0192  0.0210
 1236WAT      O 3918   0.202   1.164   1.190 -0.1048 -0.2537  0.6801
 1236WAT     H1 3919   0.130   1.227   1.200 -0.4143 -0.4454 -0.2214
 1236WAT     H2 3920   0.159   1.079   1.189  0.2358 -0.4312  1.0846
 1237WAT      O 3921   1.985   4.213   0.250  0.2696 -0.3580  0.7500
 1237WAT     H1 3922   1.941   4.242   0.330 -0.7239  0.1354  0.0430
 1237WAT     H2 3923   2.073   4.252   0.255  0.0293  0.1225  1.3332
 1238WAT      O 3924   1.109   2.215   2.723  0.1956  0.3371  0.2771
 1238WAT     H1 3925   1.073   2.291   2.676 -1.4259  0.8737  2.2396
 1238WAT     H2 3926   1.069   2.140   2.681 -0.0071  0.7102 -0.2072
 1239WAT      O 3927   2.232   4.857   1.396  0.0776  0.1765 -0.1531
 1239WAT     H1 3928   2.315   4.898   1.418 -0.5719  0.8400  1.1743
 1239WAT     H2 3929   2.167   4.905   1.447 -1.2087  0.0752 -1.6338
 1240WAT      O 3930   2.543   0.749   4.526  0.0821  0.3877 -0.3468
 1240WAT     H1 3931   2.516   0.834   4.561  1.6631 -0.2791  2.8692
 1240WAT     H2 3932   2.630   0.766   4.488  0.0894  0.3348 -0.3530
 1241WAT      O 3933   3.056   1.457   1.529  0.0159 -0.2922  0.5668
 1241WAT     H1 3934   2.980   1.418   1.486  0.7802 -0.2254 -0.9145
 1241WAT     H2 3935   3.131   1.414   1.489  0.8104  1.1709  0.4166
 1242WAT      O 3936   4.430   4.715   2.345 -0.6627  0.0310 -0.4097
 1242WAT     H1 3937   4.496   4.726   2.277 -0.8700 -0.9636 -0.7932
 1242WAT     H2 3938   4.451   4.781   2.410 -1.5154  2.2458 -2.2418
 1243WAT      O 3939   2.754   2.837   5.157  0.0370  0.0025  0.3973
 1243WAT     H1 3940   2.777   2.898   5.087  1.1971 -0.9267 -0.0687
 1243WAT     H2 3941   2.767   2.750   5.119  2.4520 -0.5717  2.2245
 1244WAT      O 3942   1.267   4.427   4.714  0.2338 -0.2322  0.1767
 1244WAT     H1 3943   1.311   4.400   4.634 -1.1163  2.0307 -1.4691
 1244WAT     H2 3944   1.216   4.504   4.688  2.1042  2.5800  3.8802
 1245WAT      O 3945   4.419   2.231   1.600  1.1257  0.3153 -0.5971
 1245WAT     H1 3946   4.401   2.271   1.515  2.5927 -1.6881 -1.9627
 1245WAT     H2 3947   4.348   2.167   1.612 -0.9782  2.7931  1.3794
 1246WAT      O 3948   2.465   0.994   4.582  0.0889 -0.2621  0.0966
 1246WAT     H1 3949   2.441   1.050   4.508 -0.9853 -0.0559  0.5817
 1246WAT     H2 3950   2.429   1.039   4.658 -1.1102 -1.7614  0.4645
 1247WAT      O 3951   2.523   4.500   5.138  0.6803  0.2228  0.0032
 1247WAT     H1 3952   2.520   4.412   5.175 -0.0950 -0.0132 -0.5876
 1247WAT     H2 3953   2.602   4.500   5.083 -0.5024 -0.8994 -1.8269
 1248WAT      O 3954   4.336   4.465   3.989  0.3011 -0.1051 -0.4894
 1248WAT     H1 3955   4.251   4.429   4.015  0.3170  0.3346  0.1838
 1248WAT     H2 3956   4.318   4.556   3.966  0.6218  0.0550 -0.1251
 1249WAT      O 3957   3.765   0.725   2.230 -0.2585 -0.2388  0.6744
 1249WAT     H1 3958   3.775   0.681   2.314 -0.9250 -2.2294 -0.2279
 1249WAT     H2 3959   3.756   0.654   2.167  0.0879  1.2077 -1.0771
 1250WAT      O 3960   4.013   3.106   2.479 -0.1107  0.1466  0.0958
 1250WAT     H1 3961   3.919   3.093   2.475 -0.2980  1.7037 -1.0673
 1250WAT     H2 3962   4.033   3.168   2.409  1.9491 -1.0756 -0.4994
 1251WAT      O 3963   1.317   2.451   2.148  0.0554 -0.1117 -0.3794
 1251WAT     H1 3964   1.338   2.521   2.210 -1.5607  0.3649 -0.3293
 1251WAT     H2 3965   1.313   2.372   2.201 -2.3872  0.4523  0.3894
 1252WAT      O 3966   2.691   3.353   1.979 -0.1257 -0.1937 -0.4316
 1252WAT     H1 3967   2.712   3.275   2.031  0.2560  0.2823  0.1316
 1252WAT     H2 3968   2.774   3.399   1.969 -0.4775  0.5383 -0.1011
 1253WAT      O 3969   4.375   4.024   1.918  0.2161  0.4180 -0.0087
 1253WAT     H1 3970   4.470   4.018   1.917  0.3313  0.2792  2.7357
 1253WAT     H2 3971   4.357   4.118   1.923  0.3173  0.3960  1.0593
 1254WAT      O 3972   0.242   3.199   0.796 -0.3054  0.3083 -0.2482
 1254WAT     H1 3973   0.280   3.177   0.711  0.5626 -1.8071  0.6116
 1254WAT     H2 3974   0.272   3.129   0.854 -3.0564  0.2071  1.2071
 1255WAT      O 3975   2.201   2.728   4.854  0.1218  0.3026  0.3225
 1255WAT     H1 3976   2.127   2.673   4.827  1.1977 -1.4015  0.6534
 1255WAT     H2 3977   2.273   2.665   4.869  1.3388  1.7921  0.9985
 1256WAT      O 3978   3.995   1.565   4.148 -0.1532 -0.5621 -0.0289
 1256WAT     H1 3979   4.074   1.617   4.165 -0.6990  0.7885 -1.4162
 1256WAT     H2 3980   4.027   1.475   4.137  0.8364 -0.5382  2.2184
 1257WAT      O 3981   3.061   0.005   4.596 -0.3056  0.4955  0.1861
 1257WAT     H1 3982   3.114   0.082   4.612  1.1773  0.0237 -1.9508
 1257WAT     H2 3983   3.020   0.022   4.511 -1.5282 -0.2522  0.6032
 1258WAT      O 3984   3.180   3.732   4.419 -0.4465 -0.3183  0.3709
 1258WAT     H1 3985   3.240   3.732   4.345  0.1769  1.5375  0.8224
 1258WAT     H2 3986   3.146   3.821   4.422 -1.9871 -0.9001  1.1283
 1259WAT      O 3987   4.433   4.428   0.549 -0.4430  0.3585  0.0815
 1259WAT     H1 3988   4.380   4.421   0.628 -0.4318  1.0627  0.1598
 1259WAT     H2 3989   4.523   4.415   0.579 -0.6692 -4.2075 -0.4983
 1260WAT      O 3990   0.318   1.351   3.212 -0.0880 -0.1627  0.2788
 1260WAT     H1 3991   0.349   1.416   3.149 -2.9237  0.3677 -0.7133
 1260WAT     H2 3992   0.229   1.330   3.183 -0.6274 -1.7152  2.7510
 1261WAT      O 3993   0.226   0.165   4.635  0.4359  0.1876  0.3433
 1261WAT     H1 3994   0.286   0.130   4.701  0.6545 -2.2588 -1.0447
 1261WAT     H2 3995   0.154   0.102   4.632 -0.4820  1.2377 -0.4735
 1262WAT      O 3996   0.744   1.821   3.657  0.8224  0.4900 -0.3830
 1262WAT     H1 3997   0.685   1.746   3.647  1.1781  0.2875 -1.0421
 1262WAT     H2 3998   0.697   1.894   3.617 -0.9081  1.4240  2.9906
 1263WAT      O 3999   1.907   5.038   0.612 -0.3787  0.4490 -0.3985
 1263WAT     H1 4000   1.851   4.978   0.662  0.8437 -0.0160  0.4918
 1263WAT     H2 4001   1.846   5.095   0.565 -1.6108 -1.8979 -1.8208
 1264WAT      O 4002   2.136   1.580   0.508  0.3870 -0.6425  0.0074
 1264WAT     H1 4003   2.117   1.511   0.444  0.9071  0.3204 -1.2286
 1264WAT     H2 4004   2.070   1.647   0.491 -0.6351 -1.1333  1.7513
 1265WAT      O 4005   0.985   1.028   4.782 -0.0801 -0.1693  0.1694
 1265WAT     H1 4006   0.995   1.025   4.877  1.6053  1.1748  0.0924
 1265WAT     H2 4007   0.931   0.952   4.761  0.3542 -1.0821  2.1078
 1266WAT      O 4008   0.991   3.167   4.856  0.4342 -0.4352 -0.3988
 1266WAT     H1 4009   0.997   3.161   4.952 -0.0287  1.0957 -0.2352
 1266WAT     H2 4010   0.919   3.109   4.833 -1.8878  1.8286  0.6339
 1267WAT      O 4011   0.343   3.024   5.082  0.0344 -0.3492  0.2162
 1267WAT     H1 4012   0.427   3.065   5.062 -0.1861 -0.6928 -1.5351
 1267WAT     H2 4013   0.285   3.053   5.012 -0.6182 -2.1937 -0.0550
 1268WAT      O 4014   1.802   1.812   1.004  0.2101  0.1848 -0.3785
 1268WAT     H1 4015   1.792   1.749   1.076  0.3606  0.5413 -0.0443
 1268WAT     H2 4016   1.840   1.889   1.045 -1.0617  0.9333 -0.5642
 1269WAT      O 4017   2.087   1.685   3.766 -0.0333 -0.4985 -0.1749
 1269WAT     H1 4018   2.044   1.606   3.734  1.8063 -1.2267 -1.0024
 1269WAT     H2 4019   2.154   1.705   3.700  0.1477  1.2248  0.4756
 1270WAT      O 4020   2.026   0.546   5.155 -0.2138 -0.0588 -0.1180
 1270WAT     H1 4021   2.045   0.594   5.235  0.1330 -0.6771  0.1782
 1270WAT     H2 4022   2.106   0.552   5.103 -0.0257 -0.6475  0.0948
 1271WAT      O 4023   3.342   1.255   3.256 -0.1597 -0.1312 -0.2081
 1271WAT     H1 4024   3.307   1.314   3.324  0.1130 -1.0446  0.7438
 1271WAT     H2 4025   3.279   1.183   3.253 -0.1130 -0.1443 -0.8683
 1272WAT      O 4026   0.078   0.785   4.340 -0.3396 -0.3447 -0.2482
 1272WAT     H1 4027   0.094   0.711   4.399  1.5280  1.6424  1.9418
 1272WAT     H2 4028  -0.006   0.820   4.368 -0.1245 -0.2542  0.2980
 1273WAT      O 4029   1.476   4.681   2.128  0.1305 -0.1253  0.8248
 1273WAT     H1 4030   1.535   4.644   2.194 -1.0197 -1.4177  1.1749
 1273WAT     H2 4031   1.530   4.691   2.050  0.8621 -1.0658  1.1963
 1274WAT      O 4032   0.349   4.522   3.965  0.0516 -0.2382  0.6273
 1274WAT     H1 4033   0.263   4.540   4.004  0.0810  0.5681  0.3266
 1274WAT     H2 4034   0.348   4.427   3.950 -0.7850 -0.2398  0.6171
 1275WAT      O 4035   4.405   3.127   5.211  0.1446 -0.0373 -0.1376
 1275WAT     H1 4036   4.366   3.093   5.292  0.9058 -0.4330  0.0735
 1275WAT     H2 4037   4.343   3.193   5.180  0.3263  0.8602  1.3140
 1276WAT      O 4038   3.819   1.904   0.139 -0.3831 -0.0314 -0.2647
 1276WAT     H1 4039   3.892   1.920   0.199 -0.7008  1.5764 -0.2897
 1276WAT     H2 4040   3.850   1.938   0.055  0.0456 -2.2269 -1.0708
 1277WAT      O 4041   2.043   1.961   0.170 -0.5349 -0.1853  0.7148
 1277WAT     H1 4042   2.132   1.995   0.165 -2.0126  4.7334  2.1954
 1277WAT     H2 4043   2.018   1.946   0.079  1.3251 -0.3082  0.1853
 1278WAT      O 4044   4.451   2.302   4.862 -0.2577  0.9956 -0.9593
 1278WAT     H1 4045   4.530   2.330   4.817  0.2355 -1.5043 -1.8153
 1278WAT     H2 4046   4.381   2.358   4.827  0.5120  0.6823 -3.1083
 1279WAT      O 4047   3.836   4.011   0.479  0.0255  0.3740  0.4619
 1279WAT     H1 4048   3.869   3.972   0.398 -1.2350  0.4290 -0.0971
 1279WAT     H2 4049   3.749   4.044   0.456  0.3470  1.9512  1.3834
 1280WAT      O 4050   3.114   1.929   0.793 -0.4658 -0.0525 -0.2394
 1280WAT     H1 4051   3.164   1.955   0.716  1.5869 -0.0254  1.0373
 1280WAT     H2 4052   3.102   1.834   0.782 -0.5420  0.0153 -0.7778
 1281WAT      O 4053   0.975   3.902   1.727  0.0985 -0.1884 -0.4312
 1281WAT     H1 4054   0.940   3.888   1.639 -0.4277 -0.1001 -0.2453
 1281WAT     H2 4055   0.926   3.978   1.759  1.1205  0.5106 -0.4959
 1282WAT      O 4056   4.506   3.618   0.946  0.1124 -0.3622 -0.0344
 1282WAT     H1 4057   4.570   3.650   0.882  0.8077 -0.8158  0.4240
 1282WAT     H2 4058   4.556   3.610   1.028 -1.2564  2.5724  1.2686
 1283WAT      O 4059   1.921   1.974   2.928 -0.1017  0.8876 -0.5052
 1283WAT     H1 4060   2.007   2.016   2.929  0.3281  0.0618  1.3698
 1283WAT     H2 4061   1.938   1.883   2.905 -0.5006  0.7754 -0.3638
 1284WAT      O 4062   0.353   5.034   4.005 -0.2087  0.3427 -0.5421
 1284WAT     H1 4063   0.271   5.078   4.028 -0.8415 -0.3898 -1.3208
 1284WAT     H2 4064   0.421   5.098   4.024 -1.0333  1.2790 -0.6733
 1285WAT      O 4065   2.558   0.640   5.069  0.4391  0.2916 -0.0280
 1285WAT     H1 4066   2.635   0.593   5.101 -0.8514 -2.6604 -0.8576
 1285WAT     H2 4067   2.588   0.681   4.987  1.3467 -0.0299  0.1261
 1286WAT      O 4068   3.462   4.457   2.173 -0.3145 -0.0604  0.1506
 1286WAT     H1 4069   3.435   4.530   2.229  0.2320 -0.1628  0.5587
 1286WAT     H2 4070   3.382   4.430   2.128 -0.4214  1.1611 -0.4359
 1287WAT      O 4071   1.395   1.377   1.791  0.3537  0.1128  0.4839
 1287WAT     H1 4072   1.319   1.377   1.849 -0.4927  0.0213 -0.5902
 1287WAT     H2 4073   1.359   1.392   1.703  1.6398  0.7381  0.0233
 1288WAT      O 4074   3.621   2.375   4.689 -0.2658  0.1496 -0.1674
 1288WAT     H1 4075   3.647   2.284   4.702 -1.7732 -0.6617 -2.1880
 1288WAT     H2 4076   3.560   2.393   4.761  0.4090 -0.2625  0.5194
 1289WAT      O 4077   0.624   1.047   0.097  0.1128 -0.2018 -0.2775
 1289WAT     H1 4078   0.696   1.099   0.060 -1.1929  1.5882 -0.4745
 1289WAT     H2 4079   0.626   1.067   0.190  0.6488 -1.1665 -0.0769
 1290WAT      O 4080   3.236   3.047   3.912 -0.6453 -0.3482  0.1230
 1290WAT     H1 4081   3.297   3.039   3.985 -1.5695  0.8607  1.0876
 1290WAT     H2 4082   3.290   3.042   3.834  1.1080  3.0175  0.9204
 1291WAT      O 4083   3.168   3.657   1.141 -0.2118 -0.1040 -0.0317
 1291WAT     H1 4084   3.134   3.644   1.229 -0.9088 -0.2062 -0.3136
 1291WAT     H2 4085   3.092   3.649   1.084  0.0650  0.9864 -0.5669
 1292WAT      O 4086   3.829   0.886   1.492  0.3981 -0.0081  0.2651
 1292WAT     H1 4087   3.850   0.811   1.547  0.2864 -0.4151 -0.2397
 1292WAT     H2 4088   3.745   0.918   1.525 -1.0606 -1.9221 -1.3717
 1293WAT      O 4089   0.308   2.574   3.994  0.0182  0.4016 -0.1502
 1293WAT     H1 4090   0.290   2.645   4.056 -0.6329 -0.8437  1.1656
 1293WAT     H2 4091   0.394   2.540   4.020 -0.2566 -0.1281  0.0809
 1294WAT      O 4092   3.892   4.910   5.237 -0.3241  0.7858 -0.5704
 1294WAT     H1 4093   3.973   4.908   5.185 -1.2021 -0.5299 -1.9521
 1294WAT     H2 4094   3.857   4.822   5.229 -1.1945  0.9260  1.2066
 1295WAT      O 4095   0.578   2.301   0.875 -0.2169 -0.0480  0.1910
 1295WAT     H1 4096   0.534   2.300   0.959  0.2451 -0.4078  0.4321
 1295WAT     H2 4097   0.507   2.290   0.811 -0.2764 -3.5819  0.6684
 1296WAT      O 4098   4.318   0.436   3.209 -0.6828 -0.8446  0.1382
 1296WAT     H1 4099   4.405   0.397   3.215  1.4630  3.3545  0.4890
 1296WAT     H2 4100   4.278   0.418   3.294  1.5070  0.2456  1.5113
 1297WAT      O 4101   2.197   2.714   0.201  0.6101 -0.3925  0.0730
 1297WAT     H1 4102   2.248   2.742   0.277  1.9541 -0.8539 -0.6263
 1297WAT     H2 4103   2.178   2.795   0.154  0.6734 -0.2144  0.3544
 1298WAT      O 4104   0.376   4.271   4.222 -0.5720 -0.0473  0.4909
 1298WAT     H1 4105   0.414   4.249   4.307 -0.6901 -2.6271 -0.0150
 1298WAT     H2 4106   0.283   4.253   4.231 -0.8298  1.0888  0.2143
 1299WAT      O 4107   0.243   3.679   0.146 -0.4752  0.6503 -0.2951
 1299WAT     H1 4108   0.234   3.720   0.060  2.9049 -0.6286 -1.4282
 1299WAT     H2 4109   0.214   3.589   0.133  0.3024  0.3792 -0.1596
 1300WAT      O 4110   3.784   4.612   3.782  0.3454 -0.8700  0.0364
 1300WAT     H1 4111   3.723   4.539   3.772  0.8302 -1.4989  1.4570
 1300WAT     H2 4112   3.744   4.669   3.847  1.5630 -1.6588  1.5339
 1301WAT      O 4113   1.627   1.852   3.749  0.0879 -0.3076 -0.1583
 1301WAT     H1 4114   1.564   1.867   3.819 -0.5641  0.0887 -0.8083
 1301WAT     H2 4115   1.577   1.804   3.682  0.1103  1.0685 -1.2058
 1302WAT      O 4116   0.485   1.575   1.960  0.1287  0.0036  0.6413
 1302WAT     H1 4117   0.395   1.575   1.994 -0.9445  2.3162 -1.8279
 1302WAT     H2 4118   0.504   1.668   1.944  1.0334 -0.6979 -3.4464
 1303WAT      O 4119   3.916   2.709   1.850 -0.3761 -0.2495  0.3714
 1303WAT     H1 4120   3.873   2.694   1.766 -1.4855 -1.4092  1.1157
 1303WAT     H2 4121   4.001   2.665   1.841 -0.8088 -1.0527  0.1176
 1304WAT      O 4122   0.843   1.650   4.157  0.0512  0.2505  0.3142
 1304WAT     H1 4123   0.794   1.678   4.080 -0.7160 -1.8795 -0.0506
 1304WAT     H2 4124   0.933   1.680   4.140 -0.7362  2.7746  0.2345
 1305WAT      O 4125   3.042   2.968   4.177 -0.4381 -0.1491  0.0022
 1305WAT     H1 4126   3.063   3.057   4.208 -2.3442  0.1745  0.4963
 1305WAT     H2 4127   3.102   2.954   4.103 -1.9602  2.7071 -1.9487
 1306WAT      O 4128   3.295   3.052   0.509  0.0814 -0.3417 -0.1415
 1306WAT     H1 4129   3.310   3.089   0.597 -0.8226 -0.7896  0.2102
 1306WAT     H2 4130   3.325   2.961   0.517  1.9768  0.1572 -0.9079
 1307WAT      O 4131   2.096   2.388   2.664 -0.2060 -0.4623  0.1702
 1307WAT     H1 4132   2.106   2.298   2.631  0.5759  0.1736 -1.4226
 1307WAT     H2 4133   2.172   2.400   2.722  0.5401 -0.3613 -0.7931
 1308WAT      O 4134   2.311   1.135   2.498  0.9320 -0.6973 -0.6849
 1308WAT     H1 4135   2.232   1.115   2.448  1.0764  0.4846 -1.4257
 1308WAT     H2 4136   2.338   1.051   2.535  0.5847 -1.5413 -2.2632
 1309WAT      O 4137   4.304   1.915   2.299 -0.0052 -0.8973  0.1584
 1309WAT     H1 4138   4.335   1.946   2.384  4.0978  0.9290 -1.7333
 1309WAT     H2 4139   4.357   1.837   2.282  1.8438  0.7048 -2.0312
 1310WAT      O 4140   3.363   2.071   1.200  0.0537 -0.1825  0.2818
 1310WAT     H1 4141   3.298   2.114   1.145  1.2953 -0.0147 -1.1158
 1310WAT     H2 4142   3.376   2.132   1.273  2.2725  2.3428 -1.9902
 1311WAT      O 4143   3.013   3.841   4.146  0.4660 -0.1150 -0.5738
 1311WAT     H1 4144   2.923   3.857   4.119 -0.0400  0.5370  1.3215
 1311WAT     H2 4145   3.018   3.875   4.235  2.6921  0.1600 -0.7347
 1312WAT      O 4146   4.074   0.858   1.039  0.1015 -0.0957  0.1421
 1312WAT     H1 4147   4.015   0.850   1.114  2.0262 -0.4808  1.6995
 1312WAT     H2 4148   4.018   0.846   0.963 -1.8720 -0.0768  1.5155
 1313WAT      O 4149   4.162   3.337   3.842  0.3445  0.2033  0.1404
 1313WAT     H1 4150   4.210   3.298   3.769  1.1025  0.3419  0.5561
 1313WAT     H2 4151   4.144   3.263   3.900 -1.2657 -0.1142 -0.7052
 1314WAT      O 4152   1.252   3.671   2.649 -0.2153 -0.1556 -0.4638
 1314WAT     H1 4153   1.280   3.741   2.708 -1.0259  0.0798 -0.3401
 1314WAT     H2 4154   1.328   3.654   2.594  0.3996 -0.0530  0.3401
 1315WAT      O 4155   0.885   3.188   2.298 -0.1186  0.1995 -0.5045
 1315WAT     H1 4156   0.834   3.248   2.242 -0.0931  0.1661 -0.5633
 1315WAT     H2 4157   0.917   3.244   2.369  2.2230  0.8734 -1.9911
 1316WAT      O 4158   0.424   4.355   3.689  0.7092  0.3143 -0.2583
 1316WAT     H1 4159   0.383   4.441   3.700  0.9539  0.3465  0.4485
 1316WAT     H2 4160   0.421   4.315   3.776  3.1146  0.7417  0.0845
 1317WAT      O 4161   1.230   0.550   4.850  0.5812 -0.3674 -0.5158
 1317WAT     H1 4162   1.310   0.525   4.803  1.2862  1.7330 -0.5315
 1317WAT     H2 4163   1.259   0.617   4.912 -1.2756  0.9471 -0.9886
 1318WAT      O 4164   0.983   0.993   0.059  0.6974 -0.2951 -0.4587
 1318WAT     H1 4165   0.925   1.061   0.025 -0.2400 -0.1027  1.3898
 1318WAT     H2 4166   0.962   0.915   0.006 -0.1080  0.1857 -0.8659
 1319WAT      O 4167   4.477   2.822   2.523  0.4212 -0.0194 -0.2361
 1319WAT     H1 4168   4.517   2.872   2.594 -0.5725 -0.2556  0.5134
 1319WAT     H2 4169   4.474   2.883   2.450 -1.0693  1.1918  0.7630
 1320WAT      O 4170   2.831   4.182   2.314 -0.3877 -0.0472  0.3481
 1320WAT     H1 4171   2.751   4.199   2.364 -0.8196 -2.1564  0.4693
 1320WAT     H2 4172   2.884   4.127   2.372  1.4456  1.7447  0.4963
 1321WAT      O 4173   3.718   2.918   0.707  0.6232 -0.2798 -0.1360
 1321WAT     H1 4174   3.782   2.854   0.738 -0.6647 -1.1731  0.7559
 1321WAT     H2 4175   3.711   2.902   0.613 -0.4424 -2.2039  0.2222
 1322WAT      O 4176   2.540   4.327   4.805  0.7533 -0.0119 -0.4044
 1322WAT     H1 4177   2.561   4.408   4.759 -0.5221  1.5528  1.5790
 1322WAT     H2 4178   2.446   4.335   4.826 -0.3866 -3.6637 -3.2021
 1323WAT      O 4179   0.258   3.368   4.518 -0.5670  0.3236 -0.1932
 1323WAT     H1 4180   0.195   3.339   4.452 -0.4444 -0.5808  0.0741
 1323WAT     H2 4181   0.342   3.367   4.473 -0.2006 -2.0263  0.4086
 1324WAT      O 4182   3.605   0.286   0.182  0.3674  0.2928  0.1148
 1324WAT     H1 4183   3.544   0.359   0.177 -0.0696 -0.0863 -0.2270
 1324WAT     H2 4184   3.572   0.223   0.118  1.0191  0.0065  0.0507
 1325WAT      O 4185   1.297   3.086   0.161  0.3794  0.7170  0.3663
 1325WAT     H1 4186   1.240   3.146   0.112 -1.7139 -0.3928  1.2964
 1325WAT     H2 4187   1.371   3.140   0.188 -0.3072  2.2959 -0.7391
 1326WAT      O 4188   0.811   3.451   3.052 -0.3035 -0.7832 -0.2793
 1326WAT     H1 4189   0.903   3.459   3.076 -0.8049 -2.0040  2.3311
 1326WAT     H2 4190   0.804   3.366   3.010 -0.4276 -1.2215  0.6140
 1327WAT      O 4191   0.229   1.176   4.847 -0.1407  0.2829 -0.3245
 1327WAT     H1 4192   0.241   1.128   4.765 -0.5205 -0.0626 -0.1772
 1327WAT     H2 4193   0.311   1.164   4.894 -1.1161 -2.3922  0.8466
 1328WAT      O 4194   2.882   3.282   3.206 -0.1659  0.4106  0.1851
 1328WAT     H1 4195   2.953   3.331   3.163 -0.1284 -1.7919 -2.5593
 1328WAT     H2 4196   2.838   3.348   3.260  1.9648  2.6110 -0.5431
 1329WAT      O 4197   4.499   0.575   3.838  0.0752 -0.1608 -0.5785
 1329WAT     H1 4198   4.492   0.548   3.746  0.8422 -1.5285 -0.2651
 1329WAT     H2 4199   4.552   0.655   3.836 -1.0496  0.5906 -1.4225
 1330WAT      O 4200   2.087   1.745   2.366 -0.2311  0.3498 -0.0192
 1330WAT     H1 4201   2.083   1.685   2.440 -1.7582  0.8408  0.3210
 1330WAT     H2 4202   2.050   1.826   2.399  0.6599  1.1164 -0.8407
 1331WAT      O 4203   1.662   5.052   0.192  0.1151  0.0469 -0.3468
 1331WAT     H1 4204   1.627   4.981   0.246  0.2137 -0.0326 -0.3852
 1331WAT     H2 4205   1.715   5.104   0.252  0.5679 -0.2808 -0.4504
 1332WAT      O 4206   2.554   0.609   1.700 -0.4011  0.3506 -0.3516
 1332WAT     H1 4207   2.506   0.627   1.619  0.8985  2.9298 -0.6327
 1332WAT     H2 4208   2.643   0.640   1.683  0.4017 -0.7707  1.4535
 1333WAT      O 4209   0.284   3.138   4.705  0.7906  0.0020  0.0730
 1333WAT     H1 4210   0.326   3.225   4.707  0.4992  0.1862 -1.0472
 1333WAT     H2 4211   0.339   3.084   4.762  1.0603  0.8857  0.6748
 1334WAT      O 4212   1.776   2.419   2.763 -0.4483  0.2435  0.2952
 1334WAT     H1 4213   1.759   2.333   2.801 -1.3949  0.1200 -0.3467
 1334WAT     H2 4214   1.823   2.467   2.831 -0.3578 -0.6133  0.8534
 1335WAT      O 4215   2.188   4.007   1.394 -0.1161  0.1619  0.0466
 1335WAT     H1 4216   2.183   3.948   1.468  2.1062  0.1296  0.2088
 1335WAT     H2 4217   2.142   4.086   1.424 -1.5634 -0.7873  0.4470
 1336WAT      O 4218   0.775   2.627   5.282  0.3419  0.0507 -0.2015
 1336WAT     H1 4219   0.707   2.610   5.348  0.2351  0.9096 -0.0693
 1336WAT     H2 4220   0.853   2.583   5.316  0.4542  0.9853  0.8360
 1337WAT      O 4221   2.853   0.216   2.579  0.0192 -0.6174 -0.1175
 1337WAT     H1 4222   2.833   0.144   2.639  2.0317  0.7532  2.3999
 1337WAT     H2 4223   2.831   0.295   2.628  0.5365  0.5679 -1.7007
 1338WAT      O 4224   0.176   4.220   3.576  0.3670 -0.3931 -0.2432
 1338WAT     H1 4225   0.188   4.233   3.670 -0.2899 -1.4241 -0.0065
 1338WAT     H2 4226   0.150   4.129   3.567 -1.3923  0.1549 -1.2472
 1339WAT      O 4227   3.408   4.449   0.796  0.1858  0.1431 -0.2806
 1339WAT     H1 4228   3.481   4.510   0.783 -0.8711  1.4177 -0.4596
 1339WAT     H2 4229   3.402   4.401   0.713 -0.0533  1.0141 -0.7782
 1340WAT      O 4230   3.393   0.829   3.893 -0.1635  0.2165 -0.6445
 1340WAT     H1 4231   3.354   0.909   3.930 -1.0682 -0.3086 -0.4247
 1340WAT     H2 4232   3.455   0.801   3.960 -2.2266 -1.0611  0.8593
 1341WAT      O 4233   1.369   0.663   0.337 -0.0814  0.1525 -0.1007
 1341WAT     H1 4234   1.353   0.606   0.412 -0.8530 -2.4131 -2.0880
 1341WAT     H2 4235   1.319   0.743   0.357 -2.9051 -1.6893  0.7366
 1342WAT      O 4236   3.955   1.150   3.225  0.1906  0.3341  0.1822
 1342WAT     H1 4237   4.044   1.129   3.254  0.4187 -0.3570 -1.0037
 1342WAT     H2 4238   3.899   1.091   3.275  0.6489 -1.4860 -1.3665
 1343WAT      O 4239   4.139   0.316   2.254  0.6735 -0.1644  0.1903
 1343WAT     H1 4240   4.135   0.391   2.194  2.8628 -1.0072 -1.1443
 1343WAT     H2 4241   4.109   0.242   2.203  0.5303 -0.5564  0.8267
 1344WAT      O 4242   3.381   4.614   3.561 -0.5277  0.8533 -0.2534
 1344WAT     H1 4243   3.375   4.699   3.605  1.4376  1.8026 -1.7003
 1344WAT     H2 4244   3.290   4.585   3.554 -1.1508  2.1236  1.5478
 1345WAT      O 4245   0.592   5.092   1.672  0.6476  0.1110 -0.0205
 1345WAT     H1 4246   0.522   5.063   1.613 -1.4920  1.6764  1.5603
 1345WAT     H2 4247   0.585   5.035   1.748  0.9252  0.4288  0.2471
 1346WAT      O 4248   2.173   1.725   1.929  0.0852  0.0297 -0.1411
 1346WAT     H1 4249   2.260   1.722   1.970  0.2939 -0.0834 -0.5869
 1346WAT     H2 4250   2.113   1.699   1.999  0.2991  1.0864  0.4691
 1347WAT      O 4251   0.839   0.821   5.206 -0.4248 -0.2080 -0.4515
 1347WAT     H1 4252   0.842   0.740   5.155  1.2798  0.7524 -1.9825
 1347WAT     H2 4253   0.812   0.888   5.143 -0.2559  0.6844  0.4060
 1348WAT      O 4254   2.135   2.998   4.046  0.1442 -0.0347  0.1093
 1348WAT     H1 4255   2.182   3.043   3.976  0.1388 -0.5042 -0.1945
 1348WAT     H2 4256   2.175   3.032   4.126 -0.0204  0.6877 -0.1074
 1349WAT      O 4257   0.438   1.528   3.021  0.0262  0.0360 -0.4683
 1349WAT     H1 4258   0.513   1.521   2.963 -0.8464  1.2034 -1.7888
 1349WAT     H2 4259   0.437   1.619   3.049 -1.0631  0.1134 -0.7125
 1350WAT      O 4260   4.494   1.177   2.437 -0.3039 -0.3163 -0.1736
 1350WAT     H1 4261   4.404   1.200   2.414 -0.1729 -0.2864 -0.6731
 1350WAT     H2 4262   4.489   1.086   2.463 -0.6638 -0.0111  0.8774
 1351WAT      O 4263   4.218   5.047   1.444  0.8524  0.0995  0.5431
 1351WAT     H1 4264   4.177   5.039   1.530  1.9837  0.0740  1.1041
 1351WAT     H2 4265   4.145   5.056   1.383  0.0450  0.5536  1.5483
 1352WAT      O 4266   1.513   4.020   3.446 -0.0039 -0.4758 -0.5084
 1352WAT     H1 4267   1.437   3.994   3.499  0.0099  1.4032  0.4931
 1352WAT     H2 4268   1.540   4.105   3.481  2.5462 -1.0475 -0.9030
 1353WAT      O 4269   2.961   0.877   0.284  0.6716  0.0584 -0.2092
 1353WAT     H1 4270   2.873   0.840   0.291  0.0252  1.6774  0.5946
 1353WAT     H2 4271   3.013   0.828   0.347  0.4098 -1.0303 -0.8152
 1354WAT      O 4272   3.448   4.874   3.686 -0.1463  0.4606  1.0509
 1354WAT     H1 4273   3.449   4.968   3.705  3.0173  0.4956  1.3209
 1354WAT     H2 4274   3.472   4.833   3.769  3.5804 -0.1126 -0.1084
 1355WAT      O 4275   2.905   4.484   3.096 -0.5313  0.0542 -0.2971
 1355WAT     H1 4276   2.917   4.391   3.076  1.4709  0.0402  0.6699
 1355WAT     H2 4277   2.895   4.486   3.192  0.9063  0.9266 -0.1434
 1356WAT      O 4278   2.453   4.716   4.884  0.0055  0.5313  0.1066
 1356WAT     H1 4279   2.454   4.812   4.884 -1.6744  0.5953  1.4061
 1356WAT     H2 4280   2.543   4.691   4.862  0.2881  2.3834 -1.0947
 1357WAT      O 4281   2.234   4.465   4.405 -0.3737  0.0326 -0.0824
 1357WAT     H1 4282   2.200   4.376   4.415  0.7757 -0.7151 -2.2343
 1357WAT     H2 4283   2.329   4.454   4.404 -0.2021  1.3620  0.1313
 1358WAT      O 4284   1.550   1.184   1.653  0.2094 -0.3767  0.0111
 1358WAT     H1 4285   1.501   1.247   1.705  1.7053 -0.0610  1.0704
 1358WAT     H2 4286   1.564   1.110   1.712 -0.2373 -1.0809 -0.7470
 1359WAT      O 4287   0.781   2.885   1.360  0.9818  0.0762 -0.2392
 1359WAT     H1 4288   0.867   2.846   1.341  0.6362 -0.3937 -0.8820
 1359WAT     H2 4289   0.765   2.865   1.452  0.7263 -1.4812 -0.6051
 1360WAT      O 4290   1.541   0.788   0.118 -0.2811 -0.2658  0.3928
 1360WAT     H1 4291   1.461   0.830   0.084  0.0546 -1.5531 -2.2277
 1360WAT     H2 4292   1.513   0.700   0.142 -0.2366  0.2379  2.5181
 1361WAT      O 4293   0.808   1.955   1.501  0.8413  0.4782  0.0248
 1361WAT     H1 4294   0.730   1.916   1.540  1.1915  0.0430  0.2790
 1361WAT     H2 4295   0.799   1.936   1.407 -0.5863  2.5086 -0.3365
 1362WAT      O 4296   1.538   1.425   2.236 -0.0703 -0.0832  0.4709
 1362WAT     H1 4297   1.560   1.445   2.145  2.2791  0.0429  1.0123
 1362WAT     H2 4298   1.610   1.461   2.287 -0.1298 -2.1941  2.2021
 1363WAT      O 4299   2.956   0.590   2.679  0.4119  0.4827 -0.6468
 1363WAT     H1 4300   3.009   0.660   2.716  0.5576 -0.2851  0.6599
 1363WAT     H2 4301   2.905   0.556   2.753  1.1270 -1.4723 -0.9759
 1364WAT      O 4302   0.621   4.316   0.376 -0.1155  0.1531 -0.0270
 1364WAT     H1 4303   0.589   4.226   0.368  0.4650 -0.0671  0.1193
 1364WAT     H2 4304   0.554   4.361   0.428  0.1152 -0.4615  0.8061
 1365WAT      O 4305   2.175   4.280   1.091 -0.1797 -0.5979 -0.1135
 1365WAT     H1 4306   2.202   4.354   1.037 -1.7123 -0.3884 -0.6625
 1365WAT     H2 4307   2.095   4.249   1.049 -1.8415 -0.0027  2.4187
 1366WAT      O 4308   2.686   1.751   3.695 -0.4998 -0.0537  1.0287
 1366WAT     H1 4309   2.777   1.768   3.720 -0.0654 -0.9087  0.1203
 1366WAT     H2 4310   2.644   1.722   3.776  0.5787 -1.6363  1.0846
 1367WAT      O 4311   2.559   0.481   2.731  0.0531  0.7503  0.5573
 1367WAT     H1 4312   2.648   0.510   2.752 -0.3924  0.8442  2.4197
 1367WAT     H2 4313   2.503   0.553   2.758 -0.6401  0.5485 -0.2918
 1368WAT      O 4314   0.615   1.573   3.578 -0.0464 -0.0497  0.1561
 1368WAT     H1 4315   0.534   1.545   3.536 -0.0010 -0.9484  0.6472
 1368WAT     H2 4316   0.676   1.500   3.563  0.3510  0.1659  0.6927
 1369WAT      O 4317   2.628   3.151   3.117 -0.3381  0.0897 -0.0956
 1369WAT     H1 4318   2.714   3.163   3.158  0.4545  0.3950 -1.7696
 1369WAT     H2 4319   2.638   3.072   3.064 -0.9416  0.4018 -0.6833
 1370WAT      O 4320   1.891   1.552   3.486 -0.4332 -1.0968 -0.1476
 1370WAT     H1 4321   1.800   1.521   3.491 -0.6213 -0.7510 -1.1546
 1370WAT     H2 4322   1.883   1.647   3.477  0.0776 -0.9361  0.9826
 1371WAT      O 4323   1.700   5.017   2.846 -0.6356  0.1095 -0.1081
 1371WAT     H1 4324   1.618   4.967   2.842 -0.5538 -0.0898  0.4879
 1371WAT     H2 4325   1.674   5.107   2.827 -0.9884  0.0410  0.0353
 1372WAT      O 4326   0.964   1.925   0.088 -0.5823 -0.1665  0.1715
 1372WAT     H1 4327   1.051   1.964   0.078 -1.1837  0.8735 -1.2151
 1372WAT     H2 4328   0.941   1.941   0.180  1.0875 -1.3788  0.8491
 1373WAT      O 4329   1.989   3.075   3.709  0.4331 -0.3190  0.0629
 1373WAT     H1 4330   1.929   3.014   3.751  1.8201 -2.3695 -0.7686
 1373WAT     H2 4331   1.934   3.124   3.649 -0.8379 -0.2833  1.1993
 1374WAT      O 4332   1.598   2.326   0.893  0.5454  0.2421 -0.5045
 1374WAT     H1 4333   1.550   2.389   0.840  0.4109 -0.4473 -1.2138
 1374WAT     H2 4334   1.561   2.335   0.981  0.8628  1.4864 -0.4799
 1375WAT      O 4335   3.610   0.907   4.374 -0.2968 -0.2016  0.0497
 1375WAT     H1 4336   3.594   0.936   4.464  0.0320 -0.4609  0.1978
 1375WAT     H2 4337   3.618   0.988   4.324  0.0850 -0.0371  0.3633
 1376WAT      O 4338   2.778   1.497   0.592 -0.0794 -0.0640  0.1410
 1376WAT     H1 4339   2.682   1.499   0.585 -0.0068 -0.1713 -1.0492
 1376WAT     H2 4340   2.806   1.437   0.523  0.8541 -0.0397  0.4810
 1377WAT      O 4341   2.189   0.845   2.914  0.0065  0.3956  0.1580
 1377WAT     H1 4342   2.161   0.774   2.972 -1.6021  0.1547 -0.8320
 1377WAT     H2 4343   2.113   0.862   2.858  0.6344  2.3413 -0.2025
 1378WAT      O 4344   4.397   2.695   1.175 -0.6547 -0.1496  0.2365
 1378WAT     H1 4345   4.390   2.788   1.193 -1.6142 -0.6518  2.8629
 1378WAT     H2 4346   4.344   2.681   1.096  2.0754  1.9111 -2.1734
 1379WAT      O 4347   1.939   1.940   5.150 -0.0414  0.4756 -0.6435
 1379WAT     H1 4348   1.999   2.014   5.141  0.6827 -0.0538 -0.2558
 1379WAT     H2 4349   1.888   1.941   5.069  0.3428  1.0597 -0.8871
 1380WAT      O 4350   1.926   3.653   4.963  0.3395  0.0485  0.7496
 1380WAT     H1 4351   2.005   3.599   4.972 -1.3089 -3.0637 -1.7603
 1380WAT     H2 4352   1.856   3.591   4.946 -2.1098  2.8919 -0.3812
 1381WAT      O 4353   3.669   1.028   3.898  0.1527 -0.2982 -0.4267
 1381WAT     H1 4354   3.703   1.075   3.974 -0.3175 -0.9381  0.1950
 1381WAT     H2 4355   3.668   1.093   3.828 -0.3466  0.5814  0.3695
 1382WAT      O 4356   3.438   2.309   3.838 -0.0067  0.1398  1.0687
 1382WAT     H1 4357   3.420   2.248   3.766  0.4276 -0.6109  1.5782
 1382WAT     H2 4358   3.525   2.344   3.817 -0.4809  1.0202  0.4928
 1383WAT      O 4359   0.326   3.668   4.309 -0.0256  0.3375  0.0412
 1383WAT     H1 4360   0.357   3.758   4.315  2.1845 -0.1575 -2.2529
 1383WAT     H2 4361   0.230   3.676   4.309  0.1041  2.6960 -0.3933
 1384WAT      O 4362   1.259   0.135   4.985  0.0242 -0.5546 -0.3233
 1384WAT     H1 4363   1.251   0.094   4.900 -0.6375 -0.0021 -0.5404
 1384WAT     H2 4364   1.217   0.220   4.975  1.5830  0.2912  0.0440
 1385WAT      O 4365   3.850   3.124   4.273  0.3269 -0.2066 -0.0768
 1385WAT     H1 4366   3.827   3.150   4.184  0.6233 -1.6078 -0.5716
 1385WAT     H2 4367   3.930   3.073   4.264  0.9013  0.4342  1.1055
 1386WAT      O 4368   1.930   4.093   1.553 -1.2623  0.2276  1.0453
 1386WAT     H1 4369   1.956   4.002   1.535  0.4322  1.1129 -1.6462
 1386WAT     H2 4370   2.013   4.138   1.570 -1.1939  2.2735 -3.3423
 1387WAT      O 4371   0.269   3.450   3.795 -0.1010  0.0257  0.1709
 1387WAT     H1 4372   0.357   3.459   3.759 -0.3356  2.1869  0.0126
 1387WAT     H2 4373   0.212   3.444   3.719 -0.1331 -1.5925  0.2716
 1388WAT      O 4374   3.030   3.836   2.704  0.2678 -0.2971  0.8594
 1388WAT     H1 4375   3.063   3.872   2.786 -0.4752 -0.4614  1.2401
 1388WAT     H2 4376   2.935   3.846   2.710  0.2707  0.9804 -0.5834
 1389WAT      O 4377   3.928   4.441   0.311 -0.3406  0.1817  0.5402
 1389WAT     H1 4378   3.964   4.529   0.321  0.2430 -0.0657  0.6624
 1389WAT     H2 4379   3.977   4.388   0.374 -0.5022 -0.2873  0.2723
 1390WAT      O 4380   2.450   2.997   1.987  0.0220  0.6479 -0.0932
 1390WAT     H1 4381   2.467   2.905   2.003 -1.1916  0.4931  0.4839
 1390WAT     H2 4382   2.440   3.004   1.892  0.1205  0.1806 -0.1391
 1391WAT      O 4383   1.490   1.227   0.538  0.6222 -0.6182  0.2745
 1391WAT     H1 4384   1.577   1.211   0.575 -0.0105 -1.8822  1.3202
 1391WAT     H2 4385   1.492   1.318   0.509  2.7587 -1.0305 -1.0791
 1392WAT      O 4386   3.569   3.525   5.253  0.9869  0.0401 -0.3072
 1392WAT     H1 4387   3.662   3.503   5.251  0.8283 -0.5901 -1.1088
 1392WAT     H2 4388   3.524   3.441   5.265  0.4871  0.2425 -0.7022
 1393WAT      O 4389   3.980   0.230   0.748  0.2245  0.6404  0.0345
 1393WAT     H1 4390   3.994   0.136   0.737 -0.8406  0.7445 -3.9323
 1393WAT     H2 4391   4.067   0.268   0.750  0.6582 -0.2731 -0.9739
 1394WAT      O 4392   2.809   2.777   3.678  0.4107  0.6647  0.9621
 1394WAT     H1 4393   2.754   2.801   3.753  0.4150 -0.7808  1.4634
 1394WAT     H2 4394   2.845   2.691   3.701  1.3020  0.6904 -0.2251
 1395WAT      O 4395   1.430   3.644   3.995  0.0588  0.3162 -0.6803
 1395WAT     H1 4396   1.383   3.561   3.997  1.9211 -0.8956 -2.9504
 1395WAT     H2 4397   1.440   3.664   3.902  2.1608  1.5835 -0.2543
 1396WAT      O 4398   2.419   4.156   1.720  0.5942  0.2551 -0.1290
 1396WAT     H1 4399   2.496   4.132   1.668  1.4393  1.1586  0.6614
 1396WAT     H2 4400   2.449   4.149   1.811 -0.6585 -0.6675  0.2359
 1397WAT      O 4401   3.413   3.683   4.756 -0.0345 -0.0578 -0.2860
 1397WAT     H1 4402   3.428   3.679   4.851 -0.3522  0.3287 -0.2162
 1397WAT     H2 4403   3.319   3.673   4.746  0.2724 -3.7671 -0.8035
 1398WAT      O 4404   2.307   2.060   4.797  0.3649 -0.3622  0.6067
 1398WAT     H1 4405   2.227   2.047   4.848  1.1383 -1.2010  1.6280
 1398WAT     H2 4406   2.275   2.089   4.711 -0.9881  0.2391  1.2852
 1399WAT      O 4407   1.668   2.026   0.085  0.0443  0.1134 -0.1312
 1399WAT     H1 4408   1.707   2.085   0.020  0.6096  0.7386  0.7578
 1399WAT     H2 4409   1.702   2.056   0.169  1.4808 -2.3219  0.2707
 1400WAT      O 4410   1.130   3.050   0.491 -0.0265 -0.6146 -0.0400
 1400WAT     H1 4411   1.122   3.141   0.462  1.1794 -0.8760 -1.3270
 1400WAT     H2 4412   1.054   3.006   0.455 -0.3523 -0.2227  0.1640
 1401WAT      O 4413   2.593   4.922   0.919  0.2729 -0.1784  0.4690
 1401WAT     H1 4414   2.596   4.882   1.006  0.3185 -0.9635  0.1145
 1401WAT     H2 4415   2.676   4.898   0.879  0.3165  0.3122  0.2651
 1402WAT      O 4416   3.293   1.064   4.207 -0.4049 -0.3899 -0.0061
 1402WAT     H1 4417   3.325   0.976   4.229 -0.2729 -0.6150 -1.0623
 1402WAT     H2 4418   3.208   1.049   4.167 -1.5005  0.1517  1.9722
 1403WAT      O 4419   0.440   2.155   1.378 -0.4038  0.0707 -0.1930
 1403WAT     H1 4420   0.477   2.179   1.293 -0.9700  0.2616 -0.3844
 1403WAT     H2 4421   0.468   2.064   1.392  2.7241  1.0770  1.0344
 1404WAT      O 4422   3.276   1.286   1.381  0.3145 -0.0142  0.4413
 1404WAT     H1 4423   3.346   1.220   1.380 -2.0234 -2.7759  2.3732
 1404WAT     H2 4424   3.308   1.353   1.440  1.7458 -0.6831  0.4831
 1405WAT      O 4425   0.162   3.441   2.666 -0.7054 -0.5029  0.1793
 1405WAT     H1 4426   0.072   3.466   2.687 -0.7615 -1.1659  0.7676
 1405WAT     H2 4427   0.204   3.429   2.751 -0.2907 -0.9777 -0.0881
 1406WAT      O 4428   2.998   1.376   4.463  0.1163 -0.1964 -0.1974
 1406WAT     H1 4429   3.074   1.319   4.475 -0.6034 -1.1040  0.1325
 1406WAT     H2 4430   3.022   1.431   4.388  1.1880 -0.3064  0.0441
 1407WAT      O 4431   3.430   4.697   2.508  0.4550 -0.3441  0.1596
 1407WAT     H1 4432   3.439   4.771   2.568 -1.0819 -0.8017  1.0018
 1407WAT     H2 4433   3.519   4.683   2.474  1.0729  0.8536  1.2030
 1408WAT      O 4434   3.607   3.496   3.248  0.5373 -0.0856 -0.3460
 1408WAT     H1 4435   3.543   3.503   3.177  0.2357 -0.0832 -0.0752
 1408WAT     H2 4436   3.681   3.448   3.209 -0.2088 -1.3528 -0.2655
 1409WAT      O 4437   0.510   3.433   4.353 -0.0174  0.1944  0.3463
 1409WAT     H1 4438   0.451   3.494   4.309 -0.9885 -1.4621 -0.7576
 1409WAT     H2 4439   0.596   3.474   4.345 -0.5847  1.2652 -0.6463
 1410WAT      O 4440   1.123   2.887   0.235  0.2366 -0.5763 -0.0129
 1410WAT     H1 4441   1.172   2.969   0.242 -0.3391 -0.1407 -0.8897
 1410WAT     H2 4442   1.190   2.821   0.220  0.7088 -0.2658  0.6948
 1411WAT      O 4443   1.546   4.758   4.343 -0.0700  0.1218 -0.1780
 1411WAT     H1 4444   1.515   4.824   4.405  0.6650  2.1586 -1.8455
 1411WAT     H2 4445   1.467   4.733   4.294 -0.4822 -0.8122  0.9272
 1412WAT      O 4446   1.469   3.198   4.055  0.0870  0.0273  0.3199
 1412WAT     H1 4447   1.425   3.113   4.054 -2.2776  1.1475  1.3128
 1412WAT     H2 4448   1.438   3.240   4.135  2.3815  1.2832  0.6278
 1413WAT      O 4449   2.485   3.128   4.761 -0.3201 -0.0336  0.1644
 1413WAT     H1 4450   2.499   3.039   4.729 -0.6247 -0.4795  1.2313
 1413WAT     H2 4451   2.450   3.175   4.685  3.5659  0.2967 -1.6467
 1414WAT      O 4452   0.553   0.401   4.419  0.4780  0.5662 -0.4234
 1414WAT     H1 4453   0.644   0.425   4.438  0.8857 -0.9769 -0.2781
 1414WAT     H2 4454   0.501   0.466   4.466  1.4814 -0.5045  2.3464
 1415WAT      O 4455   4.084   4.359   4.124 -0.0726  0.2486 -0.1188
 1415WAT     H1 4456   4.118   4.288   4.178  1.5580  0.8759 -0.2548
 1415WAT     H2 4457   4.019   4.402   4.179 -0.2743 -0.6572  0.3728
 1416WAT      O 4458   1.513   1.162   3.169  0.3200  0.1318 -0.2480
 1416WAT     H1 4459   1.538   1.078   3.129  3.1431  0.7951 -0.1129
 1416WAT     H2 4460   1.512   1.223   3.096 -1.8045  0.0568 -0.3565
 1417WAT      O 4461   1.143   2.675   0.031  0.1808 -0.3386  0.1697
 1417WAT     H1 4462   1.220   2.617   0.031  0.8648  0.4650  2.1127
 1417WAT     H2 4463   1.078   2.627   0.082 -1.2077 -1.6238 -2.5992
 1418WAT      O 4464   3.955   4.311   4.421 -0.1366  0.0830  0.2360
 1418WAT     H1 4465   4.000   4.331   4.503  2.1077  0.1624 -0.9350
 1418WAT     H2 4466   3.873   4.360   4.426  0.6336  1.2936  1.8039
 1419WAT      O 4467   0.173   4.006   3.928  0.3640 -0.1194  0.2859
 1419WAT     H1 4468   0.087   3.966   3.938 -1.0127  2.4165 -0.4427
 1419WAT     H2 4469   0.218   3.951   3.865 -1.6281 -0.2885 -1.0912
 1420WAT      O 4470   3.415   4.675   2.920  0.1668  0.3206  0.2901
 1420WAT     H1 4471   3.350   4.669   2.850  1.9851 -0.9153 -1.4029
 1420WAT     H2 4472   3.481   4.736   2.886  1.1116 -0.3518  0.8821
 1421WAT      O 4473   0.798   2.855   2.069 -0.0465  0.8974  0.5817
 1421WAT     H1 4474   0.769   2.782   2.014  0.0701  0.2689  1.3407
 1421WAT     H2 4475   0.885   2.829   2.099  0.2290  1.6046  0.4263
 1422WAT      O 4476   3.044   3.904   2.166 -0.1865  0.2893  0.4482
 1422WAT     H1 4477   3.089   3.911   2.251 -1.6938  0.9528  1.2386
 1422WAT     H2 4478   3.009   3.991   2.150 -4.4483 -0.9114  1.8279
 1423WAT      O 4479   2.041   3.429   0.627 -0.2048  0.2960  0.0962
 1423WAT     H1 4480   2.125   3.460   0.659 -0.3024  0.9608 -0.2788
 1423WAT     H2 4481   2.014   3.362   0.690 -0.0747  1.0893  0.9983
 1424WAT      O 4482   4.421   4.870   3.110 -0.2134 -0.2965  0.4564
 1424WAT     H1 4483   4.505   4.906   3.082  0.3176 -1.0227  1.0931
 1424WAT     H2 4484   4.356   4.928   3.071  0.6164  1.1856  1.1881
 1425WAT      O 4485   0.575   1.862   1.578  0.3386 -0.0203 -0.0875
 1425WAT     H1 4486   0.533   1.789   1.624 -1.2585  1.6263  1.1818
 1425WAT     H2 4487   0.521   1.875   1.500  0.0018  0.4786  0.2302
 1426WAT      O 4488   3.416   1.213   0.495  0.1659  0.4095  0.4001
 1426WAT     H1 4489   3.346   1.273   0.520 -0.5771 -0.9552  1.8275
 1426WAT     H2 4490   3.374   1.152   0.434  0.2310 -0.1244  0.8839
 1427WAT      O 4491   2.795   3.546   5.158  0.2767 -0.1045 -0.1574
 1427WAT     H1 4492   2.858   3.475   5.146  0.3058 -0.4217  1.6202
 1427WAT     H2 4493   2.710   3.506   5.140  0.4281 -0.1172 -0.8804
 1428WAT      O 4494   0.499   2.819   0.034 -0.2881 -0.3626  0.1201
 1428WAT     H1 4495   0.567   2.794   0.097 -0.9237 -2.9149 -0.0798
 1428WAT     H2 4496   0.464   2.735   0.003 -2.9572  0.8495 -0.4270
 1429WAT      O 4497   0.808   0.943   0.939  0.4242  0.7712  0.0412
 1429WAT     H1 4498   0.868   1.015   0.955  0.4318  0.5286  1.1840
 1429WAT     H2 4499   0.834   0.909   0.854  1.5851  0.9831  0.2921
 1430WAT      O 4500   0.098   4.990   1.661  0.0230 -0.0113  0.1441
 1430WAT     H1 4501   0.041   4.916   1.685 -0.8155  0.9376  1.1699
 1430WAT     H2 4502   0.042   5.067   1.671  1.2005  0.8578  0.1822
 1431WAT      O 4503   1.135   1.285   0.256 -0.1474  0.3271 -0.7718
 1431WAT     H1 4504   1.200   1.355   0.268 -0.1766  0.5970 -2.0502
 1431WAT     H2 4505   1.159   1.244   0.172 -0.4393 -0.8695 -0.2952
 1432WAT      O 4506   2.190   3.613   3.982 -0.3084  0.7822  0.3504
 1432WAT     H1 4507   2.134   3.553   4.031  1.3853 -0.1653  1.2417
 1432WAT     H2 4508   2.247   3.652   4.049  0.0479  1.7635 -0.4999
 1433WAT      O 4509   1.811   2.247   1.279 -0.4775 -0.4000 -0.3642
 1433WAT     H1 4510   1.904   2.272   1.279 -0.8215  0.9705 -0.3547
 1433WAT     H2 4511   1.811   2.157   1.247  0.8117 -0.2503 -0.8835
 1434WAT      O 4512   4.440   4.604   0.072 -0.3190 -0.0942  0.6847
 1434WAT     H1 4513   4.401   4.567   0.151 -0.4352  0.1913  0.7624
 1434WAT     H2 4514   4.458   4.695   0.094 -0.0199 -0.1074  0.5000
 1435WAT      O 4515   1.051   2.862   1.258 -0.0074  0.2782  0.0294
 1435WAT     H1 4516   1.059   2.957   1.271  0.8219 -0.0198  2.1240
 1435WAT     H2 4517   1.142   2.830   1.260 -0.3684 -0.7979  1.8898
 1436WAT      O 4518   3.905   1.497   4.696 -0.8102 -0.6038  0.0583
 1436WAT     H1 4519   3.912   1.462   4.608  2.1670  0.3845 -0.2021
 1436WAT     H2 4520   3.815   1.530   4.702 -0.7231  0.4817 -3.0757
 1437WAT      O 4521   3.528   2.096   0.873  0.0914  0.8613 -0.7806
 1437WAT     H1 4522   3.488   2.022   0.829  0.6167  0.2126 -0.1901
 1437WAT     H2 4523   3.586   2.057   0.938 -1.9024  1.7801  1.6752
 1438WAT      O 4524   0.823   1.997   0.304  0.2204 -0.5390  0.2087
 1438WAT     H1 4525   0.882   2.051   0.357  1.6532 -2.0822  0.2823
 1438WAT     H2 4526   0.808   1.919   0.358 -0.3399 -1.0099 -0.6123
 1439WAT      O 4527   4.501   0.924   5.262  0.0749 -0.2850  0.1704
 1439WAT     H1 4528   4.460   1.003   5.229  2.0107  0.7219  0.0385
 1439WAT     H2 4529   4.532   0.878   5.184  0.9165 -0.0251  0.3375
 1440WAT      O 4530   1.044   3.832   2.143  0.2975 -0.4875 -0.1377
 1440WAT     H1 4531   1.082   3.747   2.118  1.8925  0.2257 -0.2936
 1440WAT     H2 4532   1.086   3.853   2.227  0.0244  0.2073 -0.1710
 1441WAT      O 4533   2.357   0.679   2.737  0.3723  0.0376  0.3137
 1441WAT     H1 4534   2.404   0.736   2.676 -0.2504  0.7582  0.4850
 1441WAT     H2 4535   2.315   0.739   2.798 -1.3247 -0.5081 -0.2324
 1442WAT      O 4536   0.113   1.362   3.696  0.1659  0.6520  0.3428
 1442WAT     H1 4537   0.173   1.414   3.750 -1.1529  0.9596  1.5694
 1442WAT     H2 4538   0.047   1.330   3.757 -0.9418  0.3434 -0.9601
 1443WAT      O 4539   1.583   2.351   0.360  0.6229 -0.0837  0.0549
 1443WAT     H1 4540   1.650   2.319   0.421  1.0714  2.0251  0.7438
 1443WAT     H2 4541   1.633   2.373   0.280  0.4495 -0.3054 -0.1153
 1444WAT      O 4542   1.532   0.129   5.138  0.2286  0.2808 -0.8108
 1444WAT     H1 4543   1.512   0.156   5.048 -1.8028 -1.5814 -0.9917
 1444WAT     H2 4544   1.449   0.136   5.184  1.0997  0.5743  0.8045
 1445WAT      O 4545   2.649   5.008   4.149 -0.4203 -0.3071 -0.9126
 1445WAT     H1 4546   2.624   4.930   4.198  0.8652 -1.0938 -1.4484
 1445WAT     H2 4547   2.632   5.080   4.209  2.4732 -1.3269  1.3716
 1446WAT      O 4548   3.905   5.113   0.230  0.2650 -1.0025 -0.4600
 1446WAT     H1 4549   3.908   5.150   0.141  0.4830  0.5510  0.1552
 1446WAT     H2 4550   3.844   5.169   0.277  1.1001 -1.0342  0.7011
 1447WAT      O 4551   1.214   1.589   0.686 -0.0604  0.2793  0.7163
 1447WAT     H1 4552   1.305   1.562   0.701  0.0526  0.5579  0.5505
 1447WAT     H2 4553   1.222   1.667   0.630 -0.4421 -0.3193 -0.1846
 1448WAT      O 4554   0.777   3.985   4.453  0.4375  0.2074 -0.1752
 1448WAT     H1 4555   0.812   4.072   4.431  0.4384  0.1725 -0.3161
 1448WAT     H2 4556   0.831   3.924   4.403  0.1367  0.1585 -0.4494
 1449WAT      O 4557   1.461   0.726   4.072 -0.0653  0.5775 -0.6554
 1449WAT     H1 4558   1.511   0.645   4.069 -0.0675  0.5920 -1.0376
 1449WAT     H2 4559   1.383   0.708   4.020 -0.6937  0.3996  0.3094
 1450WAT      O 4560   3.927   3.792   1.620  0.2281 -0.1622 -0.4431
 1450WAT     H1 4561   3.985   3.841   1.679 -0.4852  0.3450 -0.1432
 1450WAT     H2 4562   3.980   3.773   1.543  0.6275  0.7872 -0.4095
 1451WAT      O 4563   0.642   2.241   1.613 -0.2543 -0.0769  0.0645
 1451WAT     H1 4564   0.585   2.201   1.547 -1.6601 -0.1262  1.2719
 1451WAT     H2 4565   0.729   2.206   1.593 -0.8778 -1.1248 -0.9535
 1452WAT      O 4566   3.609   0.668   4.876 -0.2209 -0.8048 -0.2276
 1452WAT     H1 4567   3.563   0.744   4.911  2.0337  0.4663  0.1393
 1452WAT     H2 4568   3.593   0.673   4.781  0.5580  0.6337 -0.3141
 1453WAT      O 4569   2.858   3.773   1.491 -0.2943 -0.9273  0.1866
 1453WAT     H1 4570   2.842   3.852   1.544 -0.5649 -0.8439 -0.0178
 1453WAT     H2 4571   2.773   3.731   1.484 -0.0542 -1.5184  0.7294
 1454WAT      O 4572   0.673   4.099   4.156  0.1101  0.4401 -0.4626
 1454WAT     H1 4573   0.659   4.156   4.232 -0.4154 -1.2076  0.7461
 1454WAT     H2 4574   0.585   4.076   4.127  0.2973 -0.4891 -0.3293
 1455WAT      O 4575   1.800   4.153   2.736 -0.1878 -0.4167  0.1982
 1455WAT     H1 4576   1.832   4.190   2.819 -0.8837 -0.6122  0.5627
 1455WAT     H2 4577   1.878   4.114   2.696  0.1912 -0.1790  0.6833
 1456WAT      O 4578   1.347   2.454   0.150  0.3822 -0.0273  0.0095
 1456WAT     H1 4579   1.413   2.523   0.154 -2.5188  2.9469  0.8535
 1456WAT     H2 4580   1.343   2.429   0.058  1.1854  1.2811 -0.4063
 1457WAT      O 4581   3.868   3.442   1.347  0.0970 -0.1468  0.1170
 1457WAT     H1 4582   3.912   3.362   1.319 -0.5127 -0.4119 -0.1188
 1457WAT     H2 4583   3.778   3.414   1.365 -0.4620  0.7140 -1.1663
 1458WAT      O 4584   1.827   1.362   4.698 -0.3975 -0.1001  0.2907
 1458WAT     H1 4585   1.831   1.306   4.776  1.4366  2.0026  1.8137
 1458WAT     H2 4586   1.899   1.330   4.643  0.0551  0.1617  0.7265
 1459WAT      O 4587   0.780   3.369   4.712  0.5660 -0.6359 -0.1437
 1459WAT     H1 4588   0.727   3.447   4.729  0.6171 -0.8843  1.2548
 1459WAT     H2 4589   0.799   3.334   4.799  2.3857 -0.9744 -0.6407
 1460WAT      O 4590   0.205   3.578   2.103  0.4454  0.5854 -0.4441
 1460WAT     H1 4591   0.178   3.598   2.192  1.1301  1.0654 -0.3352
 1460WAT     H2 4592   0.140   3.516   2.071  1.5085 -1.5452  1.2399
 1461WAT      O 4593   2.897   1.691   1.998  0.2610  0.2946  0.1021
 1461WAT     H1 4594   2.856   1.643   2.070 -0.8948  1.3924  0.2247
 1461WAT     H2 4595   2.958   1.629   1.959  0.7791 -0.3833  1.8994
 1462WAT      O 4596   0.878   1.788   5.150  0.0088 -0.2457 -0.2825
 1462WAT     H1 4597   0.901   1.820   5.237 -3.2954 -0.3890  0.8048
 1462WAT     H2 4598   0.962   1.769   5.108  1.9347  3.3979  1.4159
 1463WAT      O 4599   0.944   4.226   4.093  0.0178  0.3860 -0.1131
 1463WAT     H1 4600   0.940   4.211   3.999  0.1064 -1.1026  0.0925
 1463WAT     H2 4601   0.867   4.180   4.128  0.2493  0.5225  0.5931
 1464WAT      O 4602   2.236   1.320   0.846 -0.3388  0.2468 -0.3451
 1464WAT     H1 4603   2.186   1.251   0.889  1.8918  0.4004  2.8383
 1464WAT     H2 4604   2.252   1.287   0.757 -3.2098 -1.1675 -0.4435
 1465WAT      O 4605   3.873   2.612   1.602 -0.4640  0.1534  0.6330
 1465WAT     H1 4606   3.855   2.537   1.659  0.8526 -1.0942 -0.4943
 1465WAT     H2 4607   3.905   2.573   1.521  1.3391  1.9590  0.3885
 1466WAT      O 4608   3.205   3.531   5.207  0.3568  0.0382 -0.2817
 1466WAT     H1 4609   3.180   3.444   5.238 -1.9271  0.1776 -1.5088
 1466WAT     H2 4610   3.256   3.515   5.128  1.6746 -0.1959  0.5924
 1467WAT      O 4611   3.043   3.611   1.370  0.4254 -0.4412 -0.1520
 1467WAT     H1 4612   2.978   3.560   1.322 -0.1458 -1.0011  1.1986
 1467WAT     H2 4613   2.992   3.670   1.425  1.0602  1.8494 -1.8617
 1468WAT      O 4614   1.216   1.846   2.386  0.0318  0.0421 -0.1066
 1468WAT     H1 4615   1.296   1.796   2.369 -0.6714 -1.4644  0.7770
 1468WAT     H2 4616   1.233   1.889   2.471  0.3645  0.7597 -0.5259
 1469WAT      O 4617   3.916   2.414   2.250  0.1568 -0.3188 -0.3651
 1469WAT     H1 4618   3.865   2.480   2.201 -0.3944 -0.7504 -0.3848
 1469WAT     H2 4619   3.868   2.333   2.237  0.9618 -0.7772 -0.5301
 1470WAT      O 4620   3.165   0.431   1.695 -0.0488 -0.3541 -0.6883
 1470WAT     H1 4621   3.128   0.497   1.754  1.9641  1.6426 -1.5238
 1470WAT     H2 4622   3.091   0.373   1.676 -2.2391  2.1632 -0.6272
 1471WAT      O 4623   2.945   0.927   0.676  0.3806  0.0271 -0.5237
 1471WAT     H1 4624   3.027   0.975   0.663  0.2085 -0.0927 -2.3121
 1471WAT     H2 4625   2.973   0.840   0.704  0.7458  0.6988  1.3210
 1472WAT      O 4626   3.050   0.773   3.088 -0.4755 -0.2003  0.0352
 1472WAT     H1 4627   3.139   0.761   3.121 -0.2506 -3.0480 -1.2937
 1472WAT     H2 4628   2.995   0.727   3.151 -0.8281  0.1165 -0.0376
 1473WAT      O 4629   2.011   3.407   4.751 -0.1007 -0.3730 -0.1920
 1473WAT     H1 4630   1.920   3.424   4.774  0.1210  1.9142 -0.7870
 1473WAT     H2 4631   2.007   3.355   4.671 -0.8603 -1.5264  0.5745
 1474WAT      O 4632   4.459   2.396   2.976 -0.6391  0.0827  0.1598
 1474WAT     H1 4633   4.477   2.484   3.009  0.2591  0.9222 -2.3542
 1474WAT     H2 4634   4.379   2.405   2.925 -0.3229 -0.4549 -0.4486
 1475WAT      O 4635   2.882   0.551   4.127  0.1499 -0.1305  0.2805
 1475WAT     H1 4636   2.789   0.566   4.110  0.2628 -0.7709 -1.0615
 1475WAT     H2 4637   2.890   0.455   4.135  0.8666 -0.1868 -0.8711
 1476WAT      O 4638   2.673   2.924   2.958  0.5054  0.5121  0.1532
 1476WAT     H1 4639   2.767   2.909   2.963  0.6700  1.6893  0.8612
 1476WAT     H2 4640   2.653   2.922   2.864  0.7782 -2.1930  0.0756
 1477WAT      O 4641   3.721   4.673   4.834 -0.1758 -0.3977  0.2149
 1477WAT     H1 4642   3.805   4.627   4.823 -0.4878 -0.8108 -0.5875
 1477WAT     H2 4643   3.666   4.637   4.764 -0.8089  0.3502  0.3208
 1478WAT      O 4644   0.049   2.209   3.493 -0.3025 -0.1737 -0.2738
 1478WAT     H1 4645   0.022   2.295   3.462 -1.1406 -0.9300 -1.7121
 1478WAT     H2 4646   0.120   2.227   3.555 -0.4787  1.5353 -0.5351
 1479WAT      O 4647   0.311   2.406   2.210  0.2182 -0.0265  0.2607
 1479WAT     H1 4648   0.367   2.437   2.281 -0.4606 -0.4451  0.9917
 1479WAT     H2 4649   0.265   2.484   2.179  0.7382  0.2095  0.0708
 1480WAT      O 4650   0.989   2.253   1.442 -0.4665 -0.0489 -0.3827
 1480WAT     H1 4651   0.981   2.348   1.433 -1.4566  0.1056  1.5467
 1480WAT     H2 4652   0.970   2.219   1.355 -1.4130  1.4520 -0.8074
 1481WAT      O 4653   2.512   0.200   3.069  0.0719 -0.6158  0.1004
 1481WAT     H1 4654   2.448   0.135   3.096 -0.4680 -1.0157 -1.9766
 1481WAT     H2 4655   2.596   0.167   3.103 -0.8353  0.6354  4.1045
 1482WAT      O 4656   0.537   0.132   2.456  0.0391 -0.1938  0.0814
 1482WAT     H1 4657   0.549   0.174   2.541  1.3794  1.3100 -0.8010
 1482WAT     H2 4658   0.450   0.092   2.462  0.1741 -0.3304  2.2128
 1483WAT      O 4659   3.536   4.882   1.610  0.1295  0.4496  0.2957
 1483WAT     H1 4660   3.628   4.870   1.588 -0.0484  2.4855 -1.9681
 1483WAT     H2 4661   3.534   4.882   1.706  2.2896 -0.7152  0.3966
 1484WAT      O 4662   2.644   2.721   3.445  0.1904 -0.1123 -0.3696
 1484WAT     H1 4663   2.693   2.738   3.526  1.8665 -0.7294 -1.1965
 1484WAT     H2 4664   2.709   2.731   3.375 -0.9250 -0.7858 -1.5551
 1485WAT      O 4665   3.080   1.376   5.075 -0.5514 -0.0328  0.4609
 1485WAT     H1 4666   3.114   1.391   4.987 -1.0124  2.3202  0.6058
 1485WAT     H2 4667   3.019   1.449   5.090  1.9288  1.6121  3.9159
 1486WAT      O 4668   2.705   2.332   5.109  0.5396 -0.4203 -0.3741
 1486WAT     H1 4669   2.629   2.295   5.064  1.1647 -1.8416 -0.3142
 1486WAT     H2 4670   2.703   2.293   5.196  0.5161  0.6876  0.1317
 1487WAT      O 4671   4.475   3.129   2.848  0.7269  0.5070  0.0642
 1487WAT     H1 4672   4.401   3.183   2.822  1.2268  0.7185 -0.9703
 1487WAT     H2 4673   4.456   3.104   2.938  0.2793  2.0493  0.4282
 1488WAT      O 4674   0.989   3.214   1.780  0.3277  0.2515  0.4851
 1488WAT     H1 4675   0.915   3.182   1.831  0.4983 -0.6193  0.2047
 1488WAT     H2 4676   0.961   3.205   1.689  1.1622 -1.1259  0.3312
 1489WAT      O 4677   1.157   0.204   3.074  0.0934  0.4799 -0.2716
 1489WAT     H1 4678   1.108   0.148   3.133  1.1164 -0.7787 -0.5609
 1489WAT     H2 4679   1.094   0.269   3.044 -1.1231 -0.4916  0.1057
 1490WAT      O 4680   0.348   2.501   1.863 -0.3111 -0.1686  0.3475
 1490WAT     H1 4681   0.317   2.551   1.939 -0.9247  1.1997 -0.7659
 1490WAT     H2 4682   0.276   2.442   1.842 -0.1518 -0.5311  0.7867
 1491WAT      O 4683   0.653   4.732   3.184  0.5059  0.4892 -0.0214
 1491WAT     H1 4684   0.684   4.705   3.271 -0.4320  0.9082  0.4608
 1491WAT     H2 4685   0.681   4.824   3.177  0.4595  0.4960 -0.1132
 1492WAT      O 4686   4.481   1.617   2.578  0.1845  0.6174  0.4728
 1492WAT     H1 4687   4.439   1.588   2.659 -2.1820 -0.3579 -1.0030
 1492WAT     H2 4688   4.447   1.706   2.564 -2.4090 -0.5164 -1.2211
 1493WAT      O 4689   2.871   2.065   2.060  0.5640 -0.2837  0.0372
 1493WAT     H1 4690   2.918   2.104   1.986  0.1907  2.4657  1.1332
 1493WAT     H2 4691   2.915   1.981   2.075  1.4533 -0.3519 -2.4587
 1494WAT      O 4692   3.033   3.151   1.413  0.2180  0.1723  0.5993
 1494WAT     H1 4693   2.956   3.194   1.376  1.5922  2.3296  0.0974
 1494WAT     H2 4694   3.105   3.174   1.354  1.5069 -0.6757  1.7600
 1495WAT      O 4695   4.497   1.199   1.524  0.1972  0.1642  0.0524
 1495WAT     H1 4696   4.524   1.139   1.594 -0.8060 -0.2788  0.0826
 1495WAT     H2 4697   4.493   1.144   1.446  0.0746  0.3696 -0.0861
 1496WAT      O 4698   3.443   1.271   5.058 -0.4331 -0.2728  0.8812
 1496WAT     H1 4699   3.510   1.220   5.102  0.7340  1.6017  1.4139
 1496WAT     H2 4700   3.368   1.270   5.119 -0.5433 -1.5333  0.7467
 1497WAT      O 4701   1.052   0.442   3.307 -0.4552 -0.2780  0.2077
 1497WAT     H1 4702   1.026   0.447   3.399  0.4075 -0.6661  0.4878
 1497WAT     H2 4703   1.065   0.349   3.291 -1.5302 -0.2998 -0.5871
 1498WAT      O 4704   2.351   3.895   3.687 -0.5983 -0.1556  0.2597
 1498WAT     H1 4705   2.313   3.807   3.678  0.0783 -0.2864 -1.7510
 1498WAT     H2 4706   2.372   3.902   3.780 -3.9424 -0.7044  1.1676
 1499WAT      O 4707   2.123   1.802   0.947 -0.3002  0.2364 -0.3279
 1499WAT     H1 4708   2.029   1.822   0.944 -1.2860 -3.6710 -1.1028
 1499WAT     H2 4709   2.131   1.720   0.898  3.3681 -0.2033  0.7545
 1500WAT      O 4710   1.627   3.890   1.199 -0.3912  1.0624 -0.0937
 1500WAT     H1 4711   1.631   3.929   1.286  0.5182 -0.7118  0.7362
 1500WAT     H2 4712   1.711   3.914   1.159 -0.1587  0.6500  0.1278
 1501WAT      O 4713   0.553   3.432   3.667  0.1830 -0.1262  0.1512
 1501WAT     H1 4714   0.570   3.495   3.737  2.2883 -1.0307  0.5285
 1501WAT     H2 4715   0.607   3.356   3.690 -1.2296 -1.5544 -0.9999
 1502WAT      O 4716   2.404   2.178   1.200 -0.0454 -0.0239 -0.2009
 1502WAT     H1 4717   2.463   2.117   1.156 -0.0525  0.3325 -0.7217
 1502WAT     H2 4718   2.459   2.254   1.220  0.0637 -0.3614  0.8173
 1503WAT      O 4719   3.188   2.175   2.048 -0.1339  0.1849 -0.2756
 1503WAT     H1 4720   3.178   2.242   2.115 -0.2037 -0.1013 -0.0004
 1503WAT     H2 4721   3.183   2.223   1.965  1.3732  0.7399 -0.0691
 1504WAT      O 4722   0.461   0.813   1.771 -0.1068 -0.0159 -1.0574
 1504WAT     H1 4723   0.411   0.732   1.759  0.7709 -0.7112 -0.2740
 1504WAT     H2 4724   0.548   0.782   1.799  0.5865  1.1590 -1.8359
 1505WAT      O 4725   3.644   2.805   2.247 -0.4920  0.0574 -0.0171
 1505WAT     H1 4726   3.565   2.754   2.266 -0.3383 -0.1712  0.0179
 1505WAT     H2 4727   3.645   2.815   2.152  0.0443 -0.9341 -0.1244
 1506WAT      O 4728   3.895   4.146   1.434 -0.3176  0.7244 -0.0171
 1506WAT     H1 4729   3.808   4.150   1.474 -1.5950 -1.0913 -2.4217
 1506WAT     H2 4730   3.894   4.214   1.367 -0.3812 -0.1538 -0.9243
 1507WAT      O 4731   2.472   2.111   2.580 -0.1957 -0.1391  0.0113
 1507WAT     H1 4732   2.540   2.165   2.619 -0.2933 -0.5637  0.7960
 1507WAT     H2 4733   2.435   2.165   2.510  1.1827 -0.0509 -0.6688
 1508WAT      O 4734   1.155   5.125   2.027 -0.7106  0.5412 -0.6247
 1508WAT     H1 4735   1.155   5.119   2.123 -1.5392  2.5159 -0.4635
 1508WAT     H2 4736   1.067   5.097   2.002 -0.2912 -0.6057 -0.8987
 1509WAT      O 4737   1.538   2.342   5.014  0.1108  0.1111 -0.1770
 1509WAT     H1 4738   1.578   2.425   4.989  1.2624 -0.4704 -0.3398
 1509WAT     H2 4739   1.459   2.336   4.960  0.2753  0.8727 -0.5147
 1510WAT      O 4740   3.436   5.061   1.363  0.7679  0.2557  0.0636
 1510WAT     H1 4741   3.531   5.049   1.354  0.8668 -0.7555  1.9288
 1510WAT     H2 4742   3.418   5.146   1.322  2.3481  0.1308 -0.9717
 1511WAT      O 4743   0.856   2.761   4.681  0.0160  0.3008 -0.4242
 1511WAT     H1 4744   0.928   2.760   4.744  0.5981  0.0229 -1.0847
 1511WAT     H2 4745   0.887   2.708   4.608 -0.5554  0.8223 -1.0574
 1512WAT      O 4746   0.147   0.299   1.361  0.6588  0.2491  0.1913
 1512WAT     H1 4747   0.203   0.268   1.433  0.4982 -1.5695 -0.4208
 1512WAT     H2 4748   0.208   0.335   1.297  0.9031  0.6527  0.6410
 1513WAT      O 4749   0.744   3.593   4.364 -0.8713 -0.3383  0.1810
 1513WAT     H1 4750   0.683   3.643   4.418 -0.1709  0.8190 -0.0879
 1513WAT     H2 4751   0.817   3.573   4.423 -0.7537 -0.2993  0.0478
 1514WAT      O 4752   1.721   1.793   3.427  0.1754  0.0221  0.0734
 1514WAT     H1 4753   1.734   1.852   3.502 -2.1650  1.7406 -0.7423
 1514WAT     H2 4754   1.744   1.847   3.351  1.2343 -1.2751 -0.5680
 1515WAT      O 4755   2.533   2.465   0.779 -0.0532  0.0112  0.3192
 1515WAT     H1 4756   2.505   2.374   0.780 -1.1905  0.3409  1.2897
 1515WAT     H2 4757   2.468   2.510   0.724  0.6440  0.2172 -0.3692
 1516WAT      O 4758   0.594   0.070   4.333 -0.2483  0.2535  0.4555
 1516WAT     H1 4759   0.520   0.114   4.375  0.1635 -0.6513  2.2763
 1516WAT     H2 4760   0.606  -0.010   4.385 -0.7237 -1.8692 -2.4235
 1517WAT      O 4761   2.434   1.501   1.628 -0.4470 -0.4911 -0.1369
 1517WAT     H1 4762   2.513   1.555   1.628 -0.5198 -0.2926 -2.3746
 1517WAT     H2 4763   2.450   1.435   1.696  1.3621 -0.0819 -0.1128
 1518WAT      O 4764   0.990   1.604   0.475  0.7888 -0.0217  0.5868
 1518WAT     H1 4765   0.982   1.534   0.540  0.4682  0.3544  0.9583
 1518WAT     H2 4766   1.069   1.652   0.500  0.9258 -0.1617  0.4211
 1519WAT      O 4767   1.247   4.770   2.022  0.4030 -0.4822 -0.0792
 1519WAT     H1 4768   1.278   4.854   1.989 -2.4222  0.5066 -0.4500
 1519WAT     H2 4769   1.325   4.730   2.062  1.5489  2.9423  1.5028
 1520WAT      O 4770   1.976   4.487   1.131  0.6104  0.3156 -0.3848
 1520WAT     H1 4771   2.065   4.521   1.145  1.0455 -0.7210 -0.5949
 1520WAT     H2 4772   1.939   4.546   1.065  0.8627  1.2156  0.2563
 1521WAT      O 4773   3.396   1.813   1.376 -0.2697 -0.6087  0.0678
 1521WAT     H1 4774   3.333   1.809   1.448 -0.8712  0.2173 -0.3865
 1521WAT     H2 4775   3.380   1.899   1.335 -0.3410 -1.2719 -1.3759
 1522WAT      O 4776   2.929   4.471   2.250 -0.3301  0.1223  0.0113
 1522WAT     H1 4777   2.870   4.423   2.309  0.8938 -0.5641  0.7217
 1522WAT     H2 4778   2.888   4.462   2.163 -0.6259 -1.4570  0.2722
 1523WAT      O 4779   3.477   2.023   3.409 -0.0924  0.5942 -0.5348
 1523WAT     H1 4780   3.546   2.089   3.409  2.0765 -1.5220  0.5109
 1523WAT     H2 4781   3.457   2.009   3.316 -0.1346  2.2159 -0.7887
 1524WAT      O 4782   1.843   0.150   2.318 -0.1610 -0.2824  0.3501
 1524WAT     H1 4783   1.906   0.108   2.378 -1.9118 -0.1361  2.4077
 1524WAT     H2 4784   1.789   0.205   2.375 -1.2440  0.7315 -1.5643
 1525WAT      O 4785   3.053   2.234   5.292  0.0787  0.0337  0.6039
 1525WAT     H1 4786   3.076   2.144   5.315  0.7597  0.4752  1.7610
 1525WAT     H2 4787   3.136   2.277   5.277 -0.0575  1.0241  2.3675
 1526WAT      O 4788   3.430   3.789   2.132 -0.2885 -0.0132 -0.2944
 1526WAT     H1 4789   3.509   3.826   2.174 -0.0834 -0.5736 -0.1796
 1526WAT     H2 4790   3.398   3.725   2.195  0.0016 -0.8429 -0.9690
 1527WAT      O 4791   3.476   3.940   4.422 -0.4299 -0.1108 -0.1338
 1527WAT     H1 4792   3.471   3.896   4.337  0.0917  1.0790 -0.8062
 1527WAT     H2 4793   3.513   4.026   4.402  1.0001 -0.2934  1.4815
 1528WAT      O 4794   3.569   4.140   1.812 -0.3105  0.1987 -0.2429
 1528WAT     H1 4795   3.477   4.159   1.832 -0.5967 -1.0752 -0.2795
 1528WAT     H2 4796   3.617   4.171   1.889 -0.8926 -0.1641  0.2775
 1529WAT      O 4797   2.358   4.787   2.382  0.6564  0.0275  0.0005
 1529WAT     H1 4798   2.324   4.869   2.417 -1.2277 -0.2107 -1.1436
 1529WAT     H2 4799   2.281   4.742   2.346  2.2896  0.0963 -4.1224
 1530WAT      O 4800   2.003   0.469   3.690  0.5547 -0.4401 -0.1313
 1530WAT     H1 4801   1.986   0.381   3.724 -0.8731 -0.2180 -0.2286
 1530WAT     H2 4802   1.917   0.508   3.680  1.1535  0.8450 -0.4636
 1531WAT      O 4803   2.295   4.687   1.751 -0.1576 -0.1644 -0.1462
 1531WAT     H1 4804   2.204   4.656   1.752  0.7810 -3.1836 -0.1709
 1531WAT     H2 4805   2.287   4.782   1.746 -3.3254 -0.1768  1.7848
 1532WAT      O 4806   2.051   0.688   4.318  0.3585  0.2429 -0.1290
 1532WAT     H1 4807   2.054   0.632   4.395 -1.6656 -0.3891 -0.4644
 1532WAT     H2 4808   2.141   0.685   4.283  0.8596 -0.9021  1.1689
 1533WAT      O 4809   1.040   4.618   3.296 -0.8025 -0.3307  0.0313
 1533WAT     H1 4810   0.967   4.647   3.351  0.5500  0.4741  1.5063
 1533WAT     H2 4811   1.117   4.626   3.353  0.7219  0.7551 -2.0580
 1534WAT      O 4812   3.836   3.956   2.937 -0.3156 -0.5313  0.8545
 1534WAT     H1 4813   3.775   4.026   2.915 -0.5250 -1.4382 -1.6808
 1534WAT     H2 4814   3.791   3.876   2.912  2.0972 -1.2031 -1.7600
 1535WAT      O 4815   3.278   2.176   5.119 -0.0743  0.3174 -0.4903
 1535WAT     H1 4816   3.332   2.111   5.163 -0.7985  0.9773  1.4874
 1535WAT     H2 4817   3.246   2.132   5.040  0.0011 -1.4878  0.4369
 1536WAT      O 4818   3.675   3.835   3.226 -0.4454 -0.4358 -0.2556
 1536WAT     H1 4819   3.768   3.854   3.242 -0.8482  1.7915 -0.1716
 1536WAT     H2 4820   3.674   3.786   3.144  0.7784 -0.1643 -0.4566
 1537WAT      O 4821   3.702   0.515   1.423  0.0199  0.5259  0.1660
 1537WAT     H1 4822   3.771   0.450   1.438 -1.1978 -0.8180  0.1395
 1537WAT     H2 4823   3.746   0.600   1.432  1.9881 -0.2793 -1.3503
 1538WAT      O 4824   1.885   0.574   4.097 -0.1482 -0.1673  0.0538
 1538WAT     H1 4825   1.880   0.654   4.045  0.2483 -0.5381 -0.5741
 1538WAT     H2 4826   1.979   0.560   4.109 -0.1802 -1.0126 -0.6031
 1539WAT      O 4827   3.271   3.328   2.167 -0.0999  0.0552  0.1157
 1539WAT     H1 4828   3.277   3.421   2.145 -1.1509 -0.2237 -1.5164
 1539WAT     H2 4829   3.286   3.325   2.261  1.8291  1.6663 -0.0625
 1540WAT      O 4830   2.397   3.274   3.013  0.0556  0.0452 -0.8139
 1540WAT     H1 4831   2.487   3.243   3.029 -0.1610  0.0372  0.5005
 1540WAT     H2 4832   2.397   3.365   3.044 -0.2937  0.1719 -1.1753
 1541WAT      O 4833   4.359   5.046   3.996 -0.3499 -0.0503 -0.5031
 1541WAT     H1 4834   4.427   4.986   4.029  1.2552  2.0479  0.2225
 1541WAT     H2 4835   4.277   5.009   4.027  0.4482 -2.4366 -1.0112
 1542WAT      O 4836   3.680   3.726   1.477  0.6238 -0.0700  0.0773
 1542WAT     H1 4837   3.713   3.736   1.566 -0.4020 -0.7127  0.5512
 1542WAT     H2 4838   3.751   3.681   1.430  1.6778  1.3956  0.2182
 1543WAT      O 4839   0.307   0.596   1.693 -0.1779 -0.3752  0.3543
 1543WAT     H1 4840   0.336   0.609   1.602  2.4510 -1.0922  1.0036
 1543WAT     H2 4841   0.230   0.540   1.685 -0.4499  0.1735 -1.4521
 1544WAT      O 4842   2.683   1.573   1.121  0.9599  0.0220  0.1280
 1544WAT     H1 4843   2.630   1.616   1.187  2.2286 -0.5352  1.5597
 1544WAT     H2 4844   2.626   1.504   1.086  0.9274 -1.0109  2.1116
 1545WAT      O 4845   4.248   2.674   2.639  0.5545  0.3728 -0.0444
 1545WAT     H1 4846   4.167   2.722   2.623  0.9823  2.4180  3.1126
 1545WAT     H2 4847   4.315   2.723   2.591  0.0245 -1.6914 -3.2080
 1546WAT      O 4848   2.112   1.991   3.579  0.2459  0.1934 -0.6117
 1546WAT     H1 4849   2.159   2.074   3.567  2.7820 -1.0034  0.3201
 1546WAT     H2 4850   2.103   1.982   3.674  2.3269 -1.6783 -0.4896
 1547WAT      O 4851   2.921   0.172   3.594 -0.1596 -0.4304  0.6873
 1547WAT     H1 4852   2.933   0.088   3.550 -0.5930 -2.2620  3.8212
 1547WAT     H2 4853   2.830   0.197   3.575 -0.1479 -0.8474  0.0699
 1548WAT      O 4854   1.425   0.114   2.662 -0.2895  0.2325  0.2546
 1548WAT     H1 4855   1.401   0.132   2.753  1.7772 -0.3890  0.9779
 1548WAT     H2 4856   1.410   0.020   2.651 -0.3647  0.2719  0.0210
 1549WAT      O 4857   3.252   1.524   2.610  0.5059 -0.1999  0.0223
 1549WAT     H1 4858   3.308   1.580   2.557 -0.2186  0.5359  0.0122
 1549WAT     H2 4859   3.205   1.470   2.546  1.0379 -0.6685  0.0206
 1550WAT      O 4860   0.981   0.669   1.354  0.1380 -0.5031  0.3070
 1550WAT     H1 4861   1.053   0.641   1.410  0.5575  1.0030  0.5696
 1550WAT     H2 4862   1.023   0.690   1.270  0.0930  0.7380  0.5745
 1551WAT      O 4863   3.860   1.767   1.984 -0.3302 -0.2109 -0.0379
 1551WAT     H1 4864   3.951   1.756   2.011 -0.7203 -1.6034  0.8223
 1551WAT     H2 4865   3.855   1.857   1.952  1.0620  0.2833  1.0246
 1552WAT      O 4866   1.107   4.042   4.556 -0.1332  0.5643  0.3955
 1552WAT     H1 4867   1.140   3.992   4.481 -0.7751 -0.8527  1.0262
 1552WAT     H2 4868   1.036   4.095   4.519 -1.0961 -0.8468  0.1365
 1553WAT      O 4869   4.140   2.347   0.336 -0.1693 -0.1583  0.4568
 1553WAT     H1 4870   4.174   2.433   0.310  0.4376 -0.4875  0.1192
 1553WAT     H2 4871   4.102   2.362   0.422 -1.3246  0.7439 -0.1725
 1554WAT      O 4872   1.803   4.463   3.133  0.0864 -0.2903  0.1815
 1554WAT     H1 4873   1.783   4.380   3.090  0.3174 -0.0815 -0.3385
 1554WAT     H2 4874   1.880   4.444   3.187 -0.4565 -0.6573  0.8359
 1555WAT      O 4875   0.302   1.437   0.405  0.2984 -0.0130  0.2578
 1555WAT     H1 4876   0.238   1.483   0.458  0.1883  1.3886 -1.0187
 1555WAT     H2 4877   0.254   1.414   0.325  1.4346  1.4510 -0.9065
 1556WAT      O 4878   4.122   5.024   0.585 -0.2515  0.5590  0.1853
 1556WAT     H1 4879   4.153   4.963   0.518 -0.2272  0.5655  0.1907
 1556WAT     H2 4880   4.193   5.028   0.649 -0.6287 -0.1161  0.6586
 1557WAT      O 4881   2.630   2.321   1.307 -0.3103 -0.5753  0.0977
 1557WAT     H1 4882   2.679   2.325   1.225  0.2751  1.0570  0.4908
 1557WAT     H2 4883   2.602   2.411   1.322 -2.6450 -1.2954  0.3883
 1558WAT      O 4884   2.287   3.386   4.267 -0.0640  0.7618  0.0869
 1558WAT     H1 4885   2.204   3.415   4.228  0.0747  1.4437  0.2975
 1558WAT     H2 4886   2.296   3.295   4.238 -0.5785  0.8767 -0.4506
 1559WAT      O 4887   4.380   1.871   2.567 -0.7138  0.0309  0.4972
 1559WAT     H1 4888   4.405   1.885   2.659 -0.9293 -0.4588  0.6360
 1559WAT     H2 4889   4.300   1.819   2.572  0.1707 -1.4315  0.0226
 1560WAT      O 4890   3.088   2.271   2.672 -0.2015 -0.1640  0.0248
 1560WAT     H1 4891   3.006   2.266   2.623  0.5930  0.5297 -1.4600
 1560WAT     H2 4892   3.077   2.346   2.731 -1.0569 -0.8101  0.7022
 1561WAT      O 4893   3.945   1.418   2.440 -0.3113  0.1570  0.3569
 1561WAT     H1 4894   4.040   1.415   2.449 -0.2424  2.3836  1.0788
 1561WAT     H2 4895   3.930   1.467   2.359 -0.8711 -1.2106 -0.3924
 1562WAT      O 4896   0.740   2.943   1.105  0.3449  0.3582  0.5201
 1562WAT     H1 4897   0.746   2.925   1.199 -0.4887  0.7597  0.6630
 1562WAT     H2 4898   0.780   3.029   1.094  1.6879 -0.2754  0.2844
 1563WAT      O 4899   3.275   0.325   3.324  0.0568 -0.0294 -0.6271
 1563WAT     H1 4900   3.206   0.335   3.390 -0.5411  0.0369 -1.2533
 1563WAT     H2 4901   3.336   0.396   3.343  1.2018 -1.4563  1.3968
 1564WAT      O 4902   2.176   4.207   1.639 -0.4137  0.4330  0.2826
 1564WAT     H1 4903   2.261   4.172   1.668 -0.1352  0.1023 -0.8716
 1564WAT     H2 4904   2.198   4.289   1.597 -0.5587 -0.0468 -0.7492
 1565WAT      O 4905   3.601   3.390   4.657 -0.2293  0.4563 -0.0017
 1565WAT     H1 4906   3.668   3.392   4.589  0.5878 -3.3908  0.4142
 1565WAT     H2 4907   3.648   3.369   4.737 -1.7325 -1.6260  0.4377
 1566WAT      O 4908   4.100   0.497   2.044  0.4063 -0.5139  0.0920
 1566WAT     H1 4909   4.166   0.530   1.984  0.6824 -1.7309 -0.2979
 1566WAT     H2 4910   4.053   0.575   2.074  2.3888  0.4586  0.8381
 1567WAT      O 4911   0.330   3.934   4.252  0.2868 -0.0023 -0.1702
 1567WAT     H1 4912   0.356   3.922   4.161 -1.7373  0.8768 -0.9132
 1567WAT     H2 4913   0.245   3.979   4.248  0.5731  0.9324  2.1577
 1568WAT      O 4914   3.922   3.970   3.177 -0.6191 -0.2086  0.0872
 1568WAT     H1 4915   3.930   4.065   3.188  0.8546 -0.3469  0.4116
 1568WAT     H2 4916   3.889   3.960   3.087  0.1368  0.5863 -0.2950
 1569WAT      O 4917   4.127   3.710   2.103  0.1323 -0.7509 -0.1092
 1569WAT     H1 4918   4.104   3.662   2.024  3.3713  0.4238 -1.9429
 1569WAT     H2 4919   4.080   3.793   2.096 -0.4175 -1.0620 -0.1992
 1570WAT      O 4920   0.109   2.926   1.091 -0.2587 -0.6624 -0.1046
 1570WAT     H1 4921   0.108   2.912   1.186 -0.7683 -1.0752 -0.1660
 1570WAT     H2 4922   0.049   2.999   1.077  0.2711 -0.2109 -0.0562
 1571WAT      O 4923   0.206   4.860   2.377 -0.3460  0.0565 -0.8077
 1571WAT     H1 4924   0.255   4.780   2.397  0.8443  1.0201  0.2297
 1571WAT     H2 4925   0.218   4.872   2.282  0.0574 -0.5943 -0.8485
 1572WAT      O 4926   3.112   1.796   1.173 -0.4692 -0.2260 -0.0148
 1572WAT     H1 4927   3.124   1.860   1.243  2.4869  0.5329 -1.0485
 1572WAT     H2 4928   3.025   1.814   1.138 -0.6006  1.7534  1.1788
 1573WAT      O 4929   0.423   2.543   3.362 -0.0096 -0.4777 -0.2288
 1573WAT     H1 4930   0.347   2.593   3.333 -0.2143 -0.8199 -0.2821
 1573WAT     H2 4931   0.473   2.525   3.282  0.8182  0.8683 -0.0483
 1574WAT      O 4932   0.278   3.065   0.096 -0.3010 -0.5840  0.3071
 1574WAT     H1 4933   0.252   2.973   0.102  0.7928 -0.8927  0.3796
 1574WAT     H2 4934   0.309   3.075   0.006  1.0405 -0.6866  0.7414
 1575WAT      O 4935   0.617   2.518   2.813  0.2674  0.2588  0.0807
 1575WAT     H1 4936   0.570   2.600   2.825 -1.1156 -0.2218 -1.6722
 1575WAT     H2 4937   0.556   2.450   2.840  0.6864 -0.2785 -0.2853
 1576WAT      O 4938   4.162   1.829   0.885 -0.0572  0.3816 -0.1057
 1576WAT     H1 4939   4.157   1.737   0.857  2.4972 -0.2765  1.3252
 1576WAT     H2 4940   4.228   1.868   0.828 -1.2879  1.4792 -0.8578
 1577WAT      O 4941   2.427   0.572   3.107 -0.0230 -0.0223 -0.4235
 1577WAT     H1 4942   2.408   0.624   3.029 -1.6752 -1.8884 -1.3553
 1577WAT     H2 4943   2.357   0.507   3.110  2.3340 -2.7418  0.1942
 1578WAT      O 4944   0.753   1.580   1.564 -0.2414  0.4888  0.1597
 1578WAT     H1 4945   0.695   1.545   1.632 -1.9180  0.1583 -1.3438
 1578WAT     H2 4946   0.699   1.579   1.484  1.0431  2.5498 -0.8203
 1579WAT      O 4947   2.729   4.663   4.833  0.4839  0.2109  0.2159
 1579WAT     H1 4948   2.734   4.589   4.894 -0.5063  0.2494  0.3635
 1579WAT     H2 4949   2.810   4.658   4.783  1.7530  0.6897  2.1113
 1580WAT      O 4950   1.915   3.540   0.989 -0.3034  0.4173 -0.9193
 1580WAT     H1 4951   1.880   3.464   0.944  0.8026 -0.7179  0.0713
 1580WAT     H2 4952   2.008   3.522   0.999 -0.7763 -0.7254  4.0727
 1581WAT      O 4953   2.716   2.032   3.853 -0.3975 -0.0888 -0.2231
 1581WAT     H1 4954   2.760   2.066   3.774  1.2297  1.3316  1.1951
 1581WAT     H2 4955   2.767   2.068   3.925 -1.6727 -1.5731  1.5014
 1582WAT      O 4956   0.033   1.948   4.541 -0.1296 -0.2368 -0.2926
 1582WAT     H1 4957   0.123   1.918   4.549 -0.0515  0.0056 -0.2485
 1582WAT     H2 4958   0.040   2.043   4.532 -0.4884  0.0263  1.7978
 1583WAT      O 4959   3.428   4.554   4.244 -0.4105 -0.4731  0.2519
 1583WAT     H1 4960   3.469   4.532   4.161 -0.0458 -0.0922  0.3336
 1583WAT     H2 4961   3.438   4.474   4.297  1.1312 -0.0598  0.6320
 1584WAT      O 4962   0.737   3.697   1.380 -0.4584  0.5064  0.7074
 1584WAT     H1 4963   0.758   3.765   1.316 -0.2761  2.4688  2.7365
 1584WAT     H2 4964   0.653   3.723   1.416 -0.6246 -0.6330  1.1941
 1585WAT      O 4965   1.481   3.101   1.309 -0.6416  0.1863 -0.1184
 1585WAT     H1 4966   1.530   3.182   1.293 -0.7098  0.3571  0.5402
 1585WAT     H2 4967   1.430   3.119   1.388 -0.6471 -0.5054  0.0366
 1586WAT      O 4968   0.161   1.127   0.805 -0.6338  0.1907 -0.3742
 1586WAT     H1 4969   0.250   1.136   0.839 -0.9483  1.1407  0.2450
 1586WAT     H2 4970   0.152   1.033   0.788  0.9582  0.2415 -1.8001
 1587WAT      O 4971   0.018   3.081   0.231 -0.6226 -0.2273  0.4890
 1587WAT     H1 4972   0.102   3.064   0.188 -1.3733 -1.5625 -0.5377
 1587WAT     H2 4973   0.029   3.047   0.320 -0.4518 -1.5725 -0.0204
 1588WAT      O 4974   3.695   0.496   3.679 -0.4473 -0.2838 -0.2553
 1588WAT     H1 4975   3.667   0.479   3.589  0.1658 -1.0352 -0.3087
 1588WAT     H2 4976   3.742   0.416   3.705 -1.0578 -0.2873  0.9032
 1589WAT      O 4977   3.505   2.933   4.499 -0.2411 -0.5975  0.1288
 1589WAT     H1 4978   3.527   2.854   4.547  1.9694 -0.1048  0.0435
 1589WAT     H2 4979   3.458   2.902   4.422 -1.4004 -1.6086  1.2091
 1590WAT      O 4980   2.552   3.547   2.138  0.3126 -0.0527 -0.3334
 1590WAT     H1 4981   2.564   3.477   2.074  2.7558  0.5412 -0.6230
 1590WAT     H2 4982   2.578   3.509   2.222  0.7721  0.2410 -0.3396
 1591WAT      O 4983   1.790   2.744   4.808 -0.0390 -0.4290  0.8043
 1591WAT     H1 4984   1.842   2.670   4.778  2.2097  1.2358  0.3840
 1591WAT     H2 4985   1.851   2.799   4.857 -1.1279  2.0183 -0.3765
 1592WAT      O 4986   1.148   3.978   0.414  0.1292  0.0651 -0.0682
 1592WAT     H1 4987   1.110   4.057   0.450 -0.1338 -0.8224  1.6905
 1592WAT     H2 4988   1.076   3.914   0.415  0.5685 -0.4559 -0.6544
 1593WAT      O 4989   3.475   3.931   1.501  0.7470 -0.0486 -0.4588
 1593WAT     H1 4990   3.458   3.905   1.592  2.1899 -0.4612 -0.2856
 1593WAT     H2 4991   3.543   3.870   1.471 -1.9536 -2.1744 -2.9154
 1594WAT      O 4992   0.688   0.162   4.672 -0.0349 -1.1978 -0.4893
 1594WAT     H1 4993   0.781   0.179   4.688 -0.3056 -0.9735  0.9782
 1594WAT     H2 4994   0.650   0.248   4.655 -0.2901 -1.0412  0.7752
 1595WAT      O 4995   1.011   1.960   2.683  0.1510  0.1325  0.2856
 1595WAT     H1 4996   0.933   2.003   2.649 -0.4288 -0.8985  0.2536
 1595WAT     H2 4997   1.001   1.868   2.657  0.5107 -0.3654  1.7721
 1596WAT      O 4998   1.145   2.944   3.342 -0.2262  0.1924  0.3440
 1596WAT     H1 4999   1.121   2.980   3.428 -1.2851  0.7615 -0.1728
 1596WAT     H2 5000   1.080   2.877   3.325 -0.8560  1.0064 -0.5921
 1597WAT      O 5001   3.179   2.307   0.729  0.4489 -0.9762 -0.2140
 1597WAT     H1 5002   3.121   2.261   0.669  1.2542  0.1040 -1.8752
 1597WAT     H2 5003   3.151   2.278   0.816 -2.6630 -0.3504 -0.9088
 1598WAT      O 5004   2.015   4.054   2.197 -0.1576  0.2167 -0.0097
 1598WAT     H1 5005   2.053   4.067   2.110  0.2972 -0.3160  0.0958
 1598WAT     H2 5006   2.061   3.976   2.231 -1.3109 -0.4068  0.1545
 1599WAT      O 5007   0.709   3.920   1.910 -0.3670  0.0372 -0.4612
 1599WAT     H1 5008   0.758   3.974   1.972 -0.1208  0.2687 -0.8551
 1599WAT     H2 5009   0.759   3.839   1.905  1.1533  1.0057 -2.3979
 1600WAT      O 5010   4.441   2.004   3.871  0.9097 -0.3296 -1.2691
 1600WAT     H1 5011   4.498   2.039   3.939  0.4248  0.8442 -1.4509
 1600WAT     H2 5012   4.441   1.909   3.887  0.2652 -0.0309  0.8078
 1601WAT      O 5013   0.726   2.017   2.618 -0.0650  0.3598 -0.0967
 1601WAT     H1 5014   0.684   1.953   2.560  1.3119 -0.0784 -0.6492
 1601WAT     H2 5015   0.728   2.098   2.567  0.0285  0.3057 -0.1782
 1602WAT      O 5016   3.378   4.010   2.530 -0.5990  0.0847  0.5451
 1602WAT     H1 5017   3.317   4.081   2.552 -0.1849  0.8574 -0.7157
 1602WAT     H2 5018   3.447   4.017   2.596 -0.4653  0.9991  0.3260
 1603WAT      O 5019   1.039   4.219   0.455 -0.4162  0.1246 -0.4593
 1603WAT     H1 5020   1.003   4.269   0.382 -0.8582  0.5031  0.0081
 1603WAT     H2 5021   0.986   4.245   0.530 -2.3071 -2.8310 -0.6058
 1604WAT      O 5022   0.718   4.306   1.086  0.2591 -0.5292  0.5769
 1604WAT     H1 5023   0.750   4.385   1.130 -1.9488 -0.8268  2.9381
 1604WAT     H2 5024   0.776   4.296   1.010  0.3948  3.5610 -0.1039
 1605WAT      O 5025   4.134   0.713   2.224 -0.3102  0.7855  0.0568
 1605WAT     H1 5026   4.204   0.772   2.196  1.6392 -1.3514  0.1309
 1605WAT     H2 5027   4.151   0.698   2.316 -0.3338 -0.4225 -0.1217
 1606WAT      O 5028   3.175   2.080   4.200 -0.1587  0.3651 -1.0307
 1606WAT     H1 5029   3.209   1.993   4.177 -0.8014 -0.0487 -0.4201
 1606WAT     H2 5030   3.170   2.126   4.116  1.1555  0.1767 -1.2405
 1607WAT      O 5031   3.441   2.271   0.683 -0.1300 -0.4958 -0.9569
 1607WAT     H1 5032   3.374   2.310   0.739 -1.2259 -1.4036 -1.6043
 1607WAT     H2 5033   3.487   2.209   0.740  1.8787  1.8762  0.1936
 1608WAT      O 5034   1.185   2.946   1.606  0.3058 -0.3960 -0.4109
 1608WAT     H1 5035   1.123   2.980   1.541 -0.6137 -0.8066  0.2315
 1608WAT     H2 5036   1.246   3.018   1.620 -0.8439  0.5440 -0.0443
 1609WAT      O 5037   0.919   1.571   0.972 -0.2026  0.1771  0.4331
 1609WAT     H1 5038   0.986   1.504   0.984  0.1259  0.2959 -0.6037
 1609WAT     H2 5039   0.967   1.654   0.979 -0.5890  0.3222  1.6176
 1610WAT      O 5040   1.175   2.748   3.913 -0.1699 -0.5643  0.2838
 1610WAT     H1 5041   1.203   2.661   3.943 -0.2992 -0.7010  0.0137
 1610WAT     H2 5042   1.193   2.806   3.987  1.0482 -0.5996  0.0343
 1611WAT      O 5043   0.228   2.348   3.136 -0.0395 -0.1695 -0.3935
 1611WAT     H1 5044   0.198   2.419   3.192 -1.7350 -0.2245 -1.1707
 1611WAT     H2 5045   0.291   2.300   3.190 -0.5075  0.6416  0.9164
 1612WAT      O 5046   0.016   2.754   3.587  0.6422  0.1778 -0.2030
 1612WAT     H1 5047  -0.051   2.786   3.647 -0.3974 -0.4262 -1.0056
 1612WAT     H2 5048   0.089   2.728   3.644 -0.8167 -1.6645  0.9652
 1613WAT      O 5049   0.917   0.443   3.558 -0.1871  0.4746 -0.3090
 1613WAT     H1 5050   0.895   0.445   3.651  2.2359 -0.0002  0.3454
 1613WAT     H2 5051   0.841   0.480   3.515 -0.5227  2.8502  2.0379
 1614WAT      O 5052   3.337   4.183   3.493 -0.0967  0.0594  0.0888
 1614WAT     H1 5053   3.279   4.117   3.457  0.3853  0.1767 -0.9310
 1614WAT     H2 5054   3.409   4.189   3.430  0.4415  0.7348  0.7451
 1615WAT      O 5055   0.520   3.187   4.247 -0.2228  0.5415 -0.6597
 1615WAT     H1 5056   0.587   3.138   4.295  0.2089  0.2173 -1.5690
 1615WAT     H2 5057   0.529   3.277   4.277 -0.8216  0.1284  0.8092
 1616WAT      O 5058   0.276   4.179   0.155 -0.3346  0.3871 -0.5847
 1616WAT     H1 5059   0.247   4.268   0.138  0.6368  0.9950  0.7676
 1616WAT     H2 5060   0.271   4.169   0.250  0.4594 -0.6782 -0.6256
 1617WAT      O 5061   4.490   3.174   0.488 -0.5092  0.0633 -0.9607
 1617WAT     H1 5062   4.501   3.253   0.540 -2.0528 -0.4835  0.3010
 1617WAT     H2 5063   4.548   3.110   0.528 -0.8191 -0.0231 -0.6446
 1618WAT      O 5064   3.239   1.504   0.223  0.3783  0.5217  0.1486
 1618WAT     H1 5065   3.242   1.583   0.169 -0.9244 -0.1899 -1.0416
 1618WAT     H2 5066   3.241   1.432   0.160 -0.5711 -0.3483  1.0730
 1619WAT      O 5067   3.586   1.500   1.038 -0.5817  0.3460  0.6628
 1619WAT     H1 5068   3.637   1.581   1.034  0.6948 -0.4637 -1.3321
 1619WAT     H2 5069   3.560   1.491   1.130 -1.0336  3.1371  0.8678
 1620WAT      O 5070   0.579   0.378   2.118  0.5835  0.3158 -0.0513
 1620WAT     H1 5071   0.547   0.411   2.034  1.1240  1.4143  0.1544
 1620WAT     H2 5072   0.526   0.300   2.135 -2.1087  2.1033  0.3492
 1621WAT      O 5073   2.461   4.062   3.134 -0.1960  0.2843 -0.3545
 1621WAT     H1 5074   2.462   4.094   3.224  1.4964  0.5402 -0.4161
 1621WAT     H2 5075   2.441   3.969   3.141 -2.5219  0.7595  0.0523
 1622WAT      O 5076   2.431   1.760   4.836  0.3778 -0.1294 -0.0116
 1622WAT     H1 5077   2.356   1.768   4.777 -0.4345 -0.7968  0.9127
 1622WAT     H2 5078   2.414   1.823   4.906  2.3296  2.1804 -1.4294
 1623WAT      O 5079   1.337   2.226   0.298 -0.1836  0.3825 -0.1827
 1623WAT     H1 5080   1.431   2.215   0.315 -0.2026  0.4829 -0.0140
 1623WAT     H2 5081   1.331   2.306   0.246 -0.1810  0.4004 -0.1549
 1624WAT      O 5082   3.196   4.002   1.578 -0.7252 -0.1663 -0.4910
 1624WAT     H1 5083   3.222   3.975   1.490 -2.0021  0.3009 -1.0329
 1624WAT     H2 5084   3.267   4.060   1.607  0.6592 -1.8277 -0.4101
 1625WAT      O 5085   0.922   3.609   3.552  0.2644  1.0237 -0.3089
 1625WAT     H1 5086   0.885   3.644   3.633 -0.1940 -1.6423  0.7226
 1625WAT     H2 5087   0.854   3.553   3.516  0.7260  1.6110 -2.2329
 1626WAT      O 5088   1.745   0.060   0.417  0.0484 -0.1828 -0.5215
 1626WAT     H1 5089   1.766   0.151   0.398 -0.1491 -0.3200 -1.4595
 1626WAT     H2 5090   1.656   0.063   0.454  0.2533  0.0482 -0.0379
 1627WAT      O 5091   4.374   4.096   0.104 -0.0535 -0.0794 -0.4370
 1627WAT     H1 5092   4.311   4.131   0.167  0.6117  1.7143 -0.7086
 1627WAT     H2 5093   4.437   4.047   0.158 -1.0670 -0.9989 -0.0541
 1628WAT      O 5094   1.875   1.914   3.221  0.0180 -0.4272  0.0258
 1628WAT     H1 5095   1.875   1.941   3.130  0.0127  0.2598  0.2265
 1628WAT     H2 5096   1.854   1.993   3.270  1.7299 -0.3590  0.7387
 1629WAT      O 5097   2.933   1.945   2.607  0.4726  0.6693 -0.4265
 1629WAT     H1 5098   2.936   1.850   2.591  0.6290  0.3463  1.2520
 1629WAT     H2 5099   3.009   1.979   2.561  2.0666 -0.4628  1.2235
 1630WAT      O 5100   2.903   0.113   2.936 -0.0956 -0.1369  0.5637
 1630WAT     H1 5101   2.892   0.083   3.026  1.3182 -0.0712  0.7759
 1630WAT     H2 5102   2.815   0.139   2.908 -0.8930 -1.9049  1.2907
 1631WAT      O 5103   4.238   2.165   2.728 -0.1785  0.3413 -0.0824
 1631WAT     H1 5104   4.280   2.081   2.743 -2.0089 -0.4330  0.9094
 1631WAT     H2 5105   4.244   2.178   2.633  0.5985 -0.6209 -0.1791
 1632WAT      O 5106   4.338   0.825   4.422 -0.2310  0.2770  0.4066
 1632WAT     H1 5107   4.315   0.734   4.441 -0.4247  0.4522  1.0249
 1632WAT     H2 5108   4.254   0.870   4.420 -0.0703  0.6076  0.9933
 1633WAT      O 5109   0.497   2.235   3.231  0.0213  0.0441 -0.0127
 1633WAT     H1 5110   0.518   2.245   3.324 -1.1625  1.0459  0.1617
 1633WAT     H2 5111   0.545   2.305   3.188 -0.3509  0.2994 -0.0134
 1634WAT      O 5112   1.457   0.552   5.287 -0.2754  0.2552  0.4517
 1634WAT     H1 5113   1.488   0.564   5.197  0.1472  1.0340  0.6875
 1634WAT     H2 5114   1.363   0.572   5.283  0.0872  2.2101  0.5101
 1635WAT      O 5115   2.459   4.567   3.731  0.2376  0.1467 -0.0342
 1635WAT     H1 5116   2.483   4.653   3.766  0.7390 -0.5359  1.4237
 1635WAT     H2 5117   2.532   4.510   3.757 -0.4214 -0.8576 -0.3292
 1636WAT      O 5118   0.329   1.978   2.982  0.5805  0.4982 -0.0226
 1636WAT     H1 5119   0.406   2.012   2.936  0.6239  0.3457 -0.0638
 1636WAT     H2 5120   0.309   1.896   2.937  0.8346  0.1755  0.4520
 1637WAT      O 5121   3.533   4.236   2.357 -0.4959  0.7742  0.2614
 1637WAT     H1 5122   3.463   4.175   2.335  0.0839  0.2018 -0.0608
 1637WAT     H2 5123   3.518   4.312   2.300 -2.3273  1.8119  1.9930
 1638WAT      O 5124   3.828   2.830   1.430  0.0154 -0.5265 -0.1556
 1638WAT     H1 5125   3.741   2.866   1.411  0.3243 -0.1599 -0.9318
 1638WAT     H2 5126   3.811   2.755   1.487 -0.7683 -0.1315  0.1455
 1639WAT      O 5127   2.658   2.584   4.099 -0.2995 -0.1341 -0.0444
 1639WAT     H1 5128   2.601   2.515   4.066 -1.4263  0.2139  1.1166
 1639WAT     H2 5129   2.700   2.546   4.176 -0.2210  0.1704  0.0641
 1640WAT      O 5130   1.419   3.600   3.711  0.4802 -0.4234 -0.2446
 1640WAT     H1 5131   1.462   3.517   3.688  0.4954 -0.2223 -0.9463
 1640WAT     H2 5132   1.484   3.667   3.693 -0.3483 -0.0453 -2.0568
 1641WAT      O 5133   0.219   2.530   0.981 -0.1066 -0.8393 -0.0408
 1641WAT     H1 5134   0.250   2.551   0.893  1.7186  2.4872  1.2139
 1641WAT     H2 5135   0.140   2.584   0.991  1.1927  0.9528  1.1655
 1642WAT      O 5136   4.492   0.063   1.391  0.0121 -0.0260 -0.6179
 1642WAT     H1 5137   4.579   0.049   1.354  0.5975 -0.0523  0.7327
 1642WAT     H2 5138   4.498   0.031   1.481 -1.1019  0.9377 -0.1762
 1643WAT      O 5139   3.819   3.964   4.311 -0.4484 -0.1420 -0.4127
 1643WAT     H1 5140   3.876   3.889   4.297 -0.3435  0.2069 -1.9186
 1643WAT     H2 5141   3.755   3.960   4.240 -1.1687  0.5318  0.1698
 1644WAT      O 5142   1.439   4.450   1.844 -0.0900 -0.4083 -0.6849
 1644WAT     H1 5143   1.484   4.425   1.764 -0.7728 -1.0141 -0.8876
 1644WAT     H2 5144   1.457   4.544   1.853  0.3010 -0.4158 -1.3363
 1645WAT      O 5145   2.216   1.934   2.159 -0.0326 -0.5591  0.3069
 1645WAT     H1 5146   2.130   1.906   2.191 -0.0734  0.3495  1.0609
 1645WAT     H2 5147   2.206   2.028   2.144  0.4564 -0.6867 -0.8920
 1646WAT      O 5148   3.647   3.822   4.727  0.0597  0.0478  0.1797
 1646WAT     H1 5149   3.693   3.792   4.805  0.1491 -0.7194 -0.1548
 1646WAT     H2 5150   3.567   3.770   4.724  0.6041 -0.7905 -0.8527
 1647WAT      O 5151   0.122   2.247   0.125  0.4671 -0.2049  0.0010
 1647WAT     H1 5152   0.152   2.262   0.035  0.1806  0.2106 -0.0282
 1647WAT     H2 5153   0.144   2.156   0.143  1.0296 -0.1327 -0.2998
 1648WAT      O 5154   1.934   3.869   4.809 -0.3413  0.2790 -0.1961
 1648WAT     H1 5155   1.957   3.805   4.741 -2.5013 -0.1909 -0.5517
 1648WAT     H2 5156   1.940   3.821   4.891  2.8261  0.9888  0.1379
 1649WAT      O 5157   2.385   4.037   2.583  0.7862  0.1504 -0.2512
 1649WAT     H1 5158   2.338   4.118   2.603  0.4938  0.0158 -0.3885
 1649WAT     H2 5159   2.354   3.974   2.648  1.1185  0.1835 -0.0556
 1650WAT      O 5160   2.054   5.059   4.482  0.1793  0.0615 -0.3348
 1650WAT     H1 5161   2.143   5.085   4.458  0.1238  0.5023 -0.0703
 1650WAT     H2 5162   2.016   5.027   4.401  0.8828 -1.0181 -0.2678
 1651WAT      O 5163   0.410   3.712   4.029  0.0903 -0.3152 -0.3629
 1651WAT     H1 5164   0.465   3.639   4.001  1.1162  0.4893 -0.4774
 1651WAT     H2 5165   0.372   3.683   4.111  1.0080 -0.7309 -0.0759
 1652WAT      O 5166   1.491   2.493   0.603  0.6099 -0.3981 -0.3787
 1652WAT     H1 5167   1.442   2.507   0.522 -1.8091 -1.7113  0.7461
 1652WAT     H2 5168   1.532   2.407   0.591  0.3572 -0.5341 -0.2913
 1653WAT      O 5169   4.370   3.033   4.715 -0.3003  0.0985  0.4216
 1653WAT     H1 5170   4.353   3.009   4.806 -0.8220  2.2247  0.9556
 1653WAT     H2 5171   4.385   2.950   4.670 -2.8374 -1.2662  1.8723
 1654WAT      O 5172   0.109   1.024   0.533  0.4184 -0.1006 -0.3654
 1654WAT     H1 5173   0.027   1.067   0.509 -0.1309 -0.5035  0.7379
 1654WAT     H2 5174   0.164   1.095   0.567  0.8580  0.3120 -1.8543
 1655WAT      O 5175   3.358   0.775   4.218 -0.2938  0.4392 -0.0123
 1655WAT     H1 5176   3.408   0.702   4.180 -2.6126 -1.4277  0.2852
 1655WAT     H2 5177   3.373   0.767   4.312 -0.3579  0.5034  0.0025
 1656WAT      O 5178   4.499   4.347   1.552 -0.4106 -0.5033  0.0655
 1656WAT     H1 5179   4.517   4.375   1.463 -0.7010 -0.7303 -0.0659
 1656WAT     H2 5180   4.457   4.261   1.542  1.9231 -1.7880  0.5047
 1657WAT      O 5181   2.044   4.125   3.935 -0.3427  0.4021  0.1666
 1657WAT     H1 5182   2.078   4.097   4.020 -0.3924  0.5041  0.2206
 1657WAT     H2 5183   2.004   4.210   3.953 -0.1313  0.5405 -0.0084
 1658WAT      O 5184   4.029   3.306   2.299 -0.2085 -0.3686 -0.8845
 1658WAT     H1 5185   4.016   3.389   2.345 -0.9733 -0.6615 -0.5685
 1658WAT     H2 5186   3.963   3.307   2.229  1.5836  0.5421 -2.6791
 1659WAT      O 5187   4.116   1.063   0.652  0.5847 -0.0146 -0.5432
 1659WAT     H1 5188   4.187   1.001   0.671  1.7517  1.8061  1.4162
 1659WAT     H2 5189   4.148   1.112   0.576  1.7732  1.1665  0.6568
 1660WAT      O 5190   4.033   2.606   0.544  0.0422  0.4989 -0.4641
 1660WAT     H1 5191   4.028   2.645   0.456  1.2229 -0.8176 -1.1663
 1660WAT     H2 5192   3.991   2.521   0.535 -1.9765  1.2725  0.8987
 1661WAT      O 5193   1.812   4.269   1.247  0.3501 -0.4351 -0.2668
 1661WAT     H1 5194   1.906   4.289   1.251  0.0576  1.0907  3.2912
 1661WAT     H2 5195   1.781   4.313   1.168  2.3934  0.1855 -0.7884
 1662WAT      O 5196   4.173   0.134   0.424 -0.1637  0.1372 -0.1608
 1662WAT     H1 5197   4.111   0.063   0.437 -0.2234 -0.0606 -1.3930
 1662WAT     H2 5198   4.220   0.141   0.508  0.8726 -2.3267 -0.4410
 1663WAT      O 5199   1.971   0.282   0.663  0.3264 -0.3241 -0.2313
 1663WAT     H1 5200   1.876   0.282   0.650  0.2164  1.2942  0.3528
 1663WAT     H2 5201   2.007   0.290   0.575 -0.1624  1.5144 -0.2900
 1664WAT      O 5202   2.771   0.179   4.789  0.1362  0.5951  0.0592
 1664WAT     H1 5203   2.714   0.118   4.836 -0.7801 -0.3947 -2.1831
 1664WAT     H2 5204   2.854   0.133   4.780 -1.2440 -1.6607 -3.7692
 1665WAT      O 5205   2.237   1.529   4.122 -0.1280  0.4713  0.0999
 1665WAT     H1 5206   2.328   1.536   4.094 -0.1694 -0.9604 -0.4865
 1665WAT     H2 5207   2.201   1.617   4.111  0.4817  0.4848 -2.1918
 1666WAT      O 5208   1.425   0.479   4.307 -0.6004 -0.8225  0.0654
 1666WAT     H1 5209   1.521   0.483   4.314 -0.6365  1.7033 -0.1842
 1666WAT     H2 5210   1.409   0.461   4.214 -0.3420  1.2332 -0.4112
 1667WAT      O 5211   3.913   3.789   3.558  0.2894 -0.4843 -0.6457
 1667WAT     H1 5212   3.870   3.722   3.504 -0.3009 -1.3402  0.8225
 1667WAT     H2 5213   3.970   3.740   3.617  1.2916  0.4649 -0.7874
 1668WAT      O 5214   1.741   2.092   4.318 -0.4812 -0.0846  0.2004
 1668WAT     H1 5215   1.738   2.047   4.234  2.5038 -2.5166  1.2047
 1668WAT     H2 5216   1.679   2.045   4.373  0.6340 -1.2825  0.4746
 1669WAT      O 5217   3.537   2.757   0.823 -0.7710  0.0502  0.3661
 1669WAT     H1 5218   3.466   2.750   0.760  0.3260 -1.1194 -0.8172
 1669WAT     H2 5219   3.602   2.813   0.780 -0.8986  1.0276  1.3862
 1670WAT      O 5220   2.381   4.454   0.127  0.2044  0.4934 -0.0449
 1670WAT     H1 5221   2.454   4.454   0.188  0.0478  0.1399  0.1492
 1670WAT     H2 5222   2.400   4.383   0.066  1.1785  1.8832 -1.4282
 1671WAT      O 5223   4.247   3.518   1.562  0.0213  0.4616  0.0077
 1671WAT     H1 5224   4.156   3.526   1.589 -0.2827  0.5693 -1.0167
 1671WAT     H2 5225   4.294   3.579   1.619 -0.4834  0.1174  0.8002
 1672WAT      O 5226   4.117   1.824   2.089 -0.7824 -0.2432  0.0099
 1672WAT     H1 5227   4.129   1.851   2.180  0.3561  3.4394 -1.0708
 1672WAT     H2 5228   4.184   1.757   2.074 -0.8323 -0.7285  1.7433
 1673WAT      O 5229   3.676   1.742   4.020 -0.2546  0.4478 -0.2980
 1673WAT     H1 5230   3.629   1.776   3.944  0.7550 -0.5399 -1.4010
 1673WAT     H2 5231   3.672   1.647   4.011 -0.3117  0.3080  1.0185
 1674WAT      O 5232   1.198   5.134   2.303  0.0017 -0.6040 -0.5447
 1674WAT     H1 5233   1.144   5.134   2.382 -1.4801  2.9373 -1.3373
 1674WAT     H2 5234   1.283   5.170   2.332 -0.6496  1.0167 -0.5302
 1675WAT      O 5235   2.450   2.453   2.225 -0.1729 -0.1343  0.9943
 1675WAT     H1 5236   2.365   2.496   2.215 -0.4795 -1.0875 -0.7735
 1675WAT     H2 5237   2.435   2.363   2.198  1.7886  0.1086 -1.2369
 1676WAT      O 5238   0.513   4.696   4.387 -0.0039  0.3846  0.1458
 1676WAT     H1 5239   0.502   4.736   4.301  2.8127 -0.8236 -0.9046
 1676WAT     H2 5240   0.453   4.621   4.386 -2.2214  2.0328  0.5237
 1677WAT      O 5241   3.841   4.395   4.969 -0.1988  0.0721  0.0994
 1677WAT     H1 5242   3.796   4.460   5.023 -0.1297  0.2330 -0.0362
 1677WAT     H2 5243   3.823   4.311   5.012 -0.3827  0.1688  0.2098
 1678WAT      O 5244   3.696   4.729   4.362 -0.1996  0.2573  0.1783
 1678WAT     H1 5245   3.625   4.759   4.419 -2.3448 -1.6098 -1.3443
 1678WAT     H2 5246   3.678   4.770   4.278 -0.2706 -1.2712 -0.5830
 1679WAT      O 5247   2.715   3.265   4.850 -0.0319 -0.2828  0.2134
 1679WAT     H1 5248   2.732   3.329   4.780 -0.7613  0.1478  0.4253
 1679WAT     H2 5249   2.624   3.239   4.837  0.3578 -1.5975 -0.1150
 1680WAT      O 5250   0.470   3.342   1.400 -0.2963 -0.0464 -0.0993
 1680WAT     H1 5251   0.534   3.271   1.388 -0.4370 -0.1251 -0.4094
 1680WAT     H2 5252   0.478   3.394   1.320  0.2151  0.6216  0.3723
 1681WAT      O 5253   4.166   1.309   1.562 -0.4219  0.3527  1.1007
 1681WAT     H1 5254   4.157   1.348   1.475 -0.3382  1.1553  1.4526
 1681WAT     H2 5255   4.228   1.366   1.608  0.5075 -0.7590  1.2808
 1682WAT      O 5256   2.812   1.656   0.059  0.1492  0.1126 -0.4551
 1682WAT     H1 5257   2.888   1.608   0.091 -1.7513 -1.1691  2.5753
 1682WAT     H2 5258   2.805   1.731   0.118 -1.2844 -0.1506 -0.2644
 1683WAT      O 5259   4.515   3.342   0.754  0.0145  0.0563  0.2199
 1683WAT     H1 5260   4.526   3.428   0.796 -2.3969 -0.3705  1.9007
 1683WAT     H2 5261   4.601   3.300   0.764  0.9699  1.8959  0.1983
 1684WAT      O 5262   1.006   2.150   0.456  0.3030  0.0811  0.0664
 1684WAT     H1 5263   1.027   2.228   0.508  2.3985 -2.2289  3.0252
 1684WAT     H2 5264   1.066   2.083   0.488  0.4354 -2.1597 -4.1605
 1685WAT      O 5265   3.305   3.783   3.805 -0.1507 -0.5565  0.0742
 1685WAT     H1 5266   3.292   3.759   3.897  1.7909 -1.2686  0.1991
 1685WAT     H2 5267   3.336   3.703   3.763  2.9162  0.6951 -0.2997
 1686WAT      O 5268   0.045   0.637   2.538  0.5461  0.0632 -0.3297
 1686WAT     H1 5269  -0.030   0.578   2.525  2.2051 -2.3729  0.3925
 1686WAT     H2 5270   0.074   0.659   2.449 -1.6010  1.9886 -0.6539
 1687WAT      O 5271   2.275   2.624   1.890 -0.4229  0.2558  0.4459
 1687WAT     H1 5272   2.269   2.654   1.980  0.1798 -0.5607  0.7648
 1687WAT     H2 5273   2.184   2.605   1.864 -0.4201 -1.5142  1.5787
 1688WAT      O 5274   0.095   3.379   3.585 -0.1804 -0.3334  0.1865
 1688WAT     H1 5275   0.100   3.357   3.492 -1.2058  0.0412  0.0359
 1688WAT     H2 5276   0.110   3.296   3.630 -0.1656 -0.6055 -0.3164
 1689WAT      O 5277   2.050   0.753   1.383 -0.5071  0.0270 -0.2421
 1689WAT     H1 5278   2.093   0.816   1.440  0.3492  0.4881 -1.3712
 1689WAT     H2 5279   2.037   0.676   1.439  0.2245  0.4905  0.5993
 1690WAT      O 5280   1.351   1.216   3.896 -0.0390 -0.5879 -0.5722
 1690WAT     H1 5281   1.278   1.238   3.954 -1.4166 -0.0912 -2.4241
 1690WAT     H2 5282   1.414   1.172   3.953  0.2833  2.8873  2.1143
 1691WAT      O 5283   0.335   1.779   0.233 -0.3992  0.1327 -0.2612
 1691WAT     H1 5284   0.295   1.777   0.146 -1.7710 -0.9609  0.3600
 1691WAT     H2 5285   0.428   1.794   0.215 -0.6250 -0.1969 -1.9212
 1692WAT      O 5286   2.640   2.667   2.594 -0.7801  0.3707  0.4369
 1692WAT     H1 5287   2.640   2.690   2.501 -2.7824  1.6586  0.7074
 1692WAT     H2 5288   2.727   2.692   2.624  1.1004 -2.8989 -1.6533
 1693WAT      O 5289   3.164   2.937   1.262 -0.2099 -0.0672  0.0667
 1693WAT     H1 5290   3.181   2.864   1.202 -2.5575 -0.5722 -0.1004
 1693WAT     H2 5291   3.195   3.014   1.215 -1.4959 -0.5199 -1.6278
 1694WAT      O 5292   1.460   1.715   3.586  0.0346 -0.0566  0.1696
 1694WAT     H1 5293   1.509   1.672   3.515 -2.0772 -1.0854 -0.7563
 1694WAT     H2 5294   1.400   1.774   3.541 -1.0434 -0.3983  1.1364
 1695WAT      O 5295   3.627   2.830   2.889  0.3350 -0.0960 -0.2050
 1695WAT     H1 5296   3.539   2.823   2.926  0.7849  0.0847  0.9313
 1695WAT     H2 5297   3.630   2.763   2.820 -0.4610 -0.5596  0.2079
 1696WAT      O 5298   0.460   1.703   4.362 -0.0761 -0.5331 -0.3254
 1696WAT     H1 5299   0.374   1.662   4.377  1.1673 -3.1128  0.2998
 1696WAT     H2 5300   0.478   1.688   4.269  0.0109 -0.6526 -0.2894
 1697WAT      O 5301   3.736   3.705   3.799 -0.0573  0.1320 -0.1974
 1697WAT     H1 5302   3.686   3.676   3.876 -0.3177  1.8584  0.3184
 1697WAT     H2 5303   3.808   3.642   3.793 -1.8474 -2.0297 -0.5607
 1698WAT      O 5304   2.226   4.668   3.630  0.3516 -0.2104 -0.2836
 1698WAT     H1 5305   2.305   4.645   3.679 -0.1325 -0.9012  0.1851
 1698WAT     H2 5306   2.155   4.627   3.678 -0.2726  0.1619 -0.8661
 1699WAT      O 5307   0.046   2.546   2.715 -0.5555 -0.3707 -0.1728
 1699WAT     H1 5308   0.066   2.563   2.623 -3.6157 -0.6829 -1.0151
 1699WAT     H2 5309  -0.048   2.525   2.715 -1.2075  1.8113  3.2864
 1700WAT      O 5310   1.078   5.002   1.287 -0.0995  0.6530 -0.6100
 1700WAT     H1 5311   1.117   5.038   1.367 -0.6243  0.1484 -0.1203
 1700WAT     H2 5312   1.015   5.069   1.259  1.1928  1.5488 -1.4981
 1701WAT      O 5313   1.602   4.761   0.234 -0.4746 -0.2214  0.0628
 1701WAT     H1 5314   1.584   4.741   0.142 -0.9584  1.2163 -0.1822
 1701WAT     H2 5315   1.673   4.702   0.258  0.4522  0.1460 -1.5710
 1702WAT      O 5316   1.066   3.692   4.781  0.2997 -0.0680 -0.0309
 1702WAT     H1 5317   0.981   3.686   4.737  0.2607 -2.1978  0.2332
 1702WAT     H2 5318   1.076   3.786   4.801  0.0306  0.9626 -3.9175
 1703WAT      O 5319   2.150   1.907   1.201 -0.1093  0.4365 -0.9066
 1703WAT     H1 5320   2.170   1.855   1.123 -0.1782 -0.8891 -0.0780
 1703WAT     H2 5321   2.103   1.847   1.259 -0.0200  1.3657  0.1808
 1704WAT      O 5322   4.040   3.429   4.535 -0.0860 -0.3593  0.0460
 1704WAT     H1 5323   3.953   3.389   4.529 -0.2338 -0.7552  3.2861
 1704WAT     H2 5324   4.088   3.372   4.594  1.4291  1.4420  0.6357
 1705WAT      O 5325   3.831   0.454   0.095 -0.3339 -0.1745  0.3505
 1705WAT     H1 5326   3.765   0.399   0.136 -1.2369  0.7840  0.2305
 1705WAT     H2 5327   3.884   0.394   0.043 -2.3348 -0.7085 -1.1410
 1706WAT      O 5328   0.147   3.395   4.799  0.2005  0.7622 -0.2548
 1706WAT     H1 5329   0.061   3.373   4.765  0.1030  0.8855 -0.0907
 1706WAT     H2 5330   0.207   3.379   4.726  0.4468 -2.2179  0.4698
 1707WAT      O 5331   0.283   4.584   2.986  0.1585  0.2855  0.2066
 1707WAT     H1 5332   0.278   4.657   3.048 -1.1339 -1.0461  1.7482
 1707WAT     H2 5333   0.197   4.581   2.945  0.1484 -0.4543  0.2650
 1708WAT      O 5334   0.715   2.951   0.627 -0.2385  0.0150 -0.2062
 1708WAT     H1 5335   0.746   2.896   0.555  0.5955 -0.5959  0.6057
 1708WAT     H2 5336   0.720   3.041   0.593  0.2596 -0.2612 -0.8658
 1709WAT      O 5337   0.955   2.186   2.943  0.1338 -0.3433 -0.4222
 1709WAT     H1 5338   1.003   2.194   2.861  0.7173 -0.0464 -0.0590
 1709WAT     H2 5339   1.023   2.169   3.009 -0.1278  1.1620  0.2720
 1710WAT      O 5340   2.242   0.496   1.296 -0.4106 -0.2403 -0.3007
 1710WAT     H1 5341   2.268   0.463   1.211 -1.6854  0.4752 -1.0026
 1710WAT     H2 5342   2.169   0.440   1.322 -0.5274  0.0262 -0.0460
 1711WAT      O 5343   2.888   5.051   2.692  0.2420 -0.1010 -0.2776
 1711WAT     H1 5344   2.856   5.078   2.778 -1.3503  0.7420 -1.0922
 1711WAT     H2 5345   2.982   5.036   2.705  0.2067  0.8927  1.4050
 1712WAT      O 5346   1.037   1.061   5.046 -0.2720  0.8460 -0.4864
 1712WAT     H1 5347   1.115   1.058   5.101 -0.7870  1.4831  0.3051
 1712WAT     H2 5348   0.970   1.099   5.102 -1.5790 -1.0762 -0.6445
 1713WAT      O 5349   1.919   4.874   3.680 -0.4430 -0.0541  0.1341
 1713WAT     H1 5350   1.887   4.826   3.604 -1.9783 -0.5048  1.0242
 1713WAT     H2 5351   1.931   4.964   3.649  0.8750 -0.6165 -1.1181
 1714WAT      O 5352   2.202   3.790   4.210  0.1522 -0.3892 -0.1058
 1714WAT     H1 5353   2.254   3.735   4.267 -1.0842 -1.1006  0.3825
 1714WAT     H2 5354   2.113   3.754   4.216 -0.8957  2.1418  0.8620
 1715WAT      O 5355   3.922   4.888   2.850 -0.0877 -0.3309  0.0654
 1715WAT     H1 5356   3.956   4.973   2.823  1.3198 -0.5199  1.1322
 1715WAT     H2 5357   3.913   4.839   2.768  0.9638  0.1888 -0.3814
 1716WAT      O 5358   2.929   2.835   2.960  0.2069 -0.3692 -0.4689
 1716WAT     H1 5359   2.981   2.765   2.999  1.8373 -0.8680 -3.2644
 1716WAT     H2 5360   2.960   2.915   3.004 -0.2289 -1.1379  1.3216
 1717WAT      O 5361   4.358   4.529   2.152 -0.2514 -0.9074 -0.3443
 1717WAT     H1 5362   4.382   4.584   2.226 -0.6982  0.9659 -1.5336
 1717WAT     H2 5363   4.263   4.522   2.158 -0.2083 -1.4883 -0.2649
 1718WAT      O 5364   4.210   3.345   3.338  0.5914 -0.2334 -0.1749
 1718WAT     H1 5365   4.129   3.296   3.351  1.3594 -1.2840  0.9537
 1718WAT     H2 5366   4.221   3.350   3.243 -0.3670 -0.8167 -0.3287
 1719WAT      O 5367   3.878   0.511   1.101  0.0478  0.2983 -0.1929
 1719WAT     H1 5368   3.802   0.563   1.127 -0.2826 -0.5301  0.5228
 1719WAT     H2 5369   3.922   0.490   1.183  0.6921  0.2204 -0.5551
 1720WAT      O 5370   0.457   5.122   0.884 -0.2890  0.3873 -0.6747
 1720WAT     H1 5371   0.427   5.031   0.888  0.4215  0.2032  2.6292
 1720WAT     H2 5372   0.503   5.128   0.800  0.4141 -2.5554 -0.6047
 1721WAT      O 5373   0.346   0.891   2.145 -0.0058 -0.4351 -0.0315
 1721WAT     H1 5374   0.373   0.972   2.100  0.4384 -0.1588  0.7170
 1721WAT     H2 5375   0.368   0.906   2.236  0.0953 -1.4221  0.1144
 1722WAT      O 5376   1.878   5.000   1.864  0.0372 -0.0777 -0.7090
 1722WAT     H1 5377   1.929   4.983   1.943 -0.2200  0.4153 -0.4353
 1722WAT     H2 5378   1.871   5.095   1.859 -1.6705 -0.1342 -0.2082
 1723WAT      O 5379   0.393   3.620   4.573  0.4761  0.0944  0.0387
 1723WAT     H1 5380   0.350   3.625   4.487 -2.3917  1.9307  1.4095
 1723WAT     H2 5381   0.375   3.532   4.605  0.0835 -0.0319 -0.5281
 1724WAT      O 5382   2.442   0.108   1.304 -0.5192  0.2329  0.2299
 1724WAT     H1 5383   2.388   0.039   1.342 -0.6232 -0.3501 -0.9176
 1724WAT     H2 5384   2.426   0.101   1.210  1.0558  0.4831 -0.0775
 1725WAT      O 5385   1.251   2.038   0.790  0.0180  0.0510  0.0939
 1725WAT     H1 5386   1.258   2.088   0.871 -0.4330 -1.9647  1.4404
 1725WAT     H2 5387   1.158   2.016   0.782  0.1573 -0.3492 -0.5978
 1726WAT      O 5388   0.908   2.420   5.130  0.6398 -0.1539 -0.4303
 1726WAT     H1 5389   0.864   2.335   5.126 -0.3611  0.1091  2.6637
 1726WAT     H2 5390   0.843   2.478   5.169  2.4170  1.2049  0.6119
 1727WAT      O 5391   2.759   3.495   3.367 -0.2952  0.4882  0.0793
 1727WAT     H1 5392   2.788   3.584   3.347 -0.8931  0.9231  1.0484
 1727WAT     H2 5393   2.738   3.498   3.460 -0.4215 -0.6471  0.0939
 1728WAT      O 5394   0.559   3.825   3.046  0.7287  1.0885 -0.4204
 1728WAT     H1 5395   0.633   3.794   2.993  1.2928  1.5507  0.0819
 1728WAT     H2 5396   0.586   3.911   3.077  0.0325  1.2035 -0.1117
 1729WAT      O 5397   1.508   1.216   5.113 -0.1039 -0.5070 -0.2274
 1729WAT     H1 5398   1.568   1.145   5.090 -0.5787 -0.2862 -2.3290
 1729WAT     H2 5399   1.566   1.285   5.147  0.7318 -0.7116 -1.1780
 1730WAT      O 5400   2.492   3.673   2.425 -0.1471 -0.4387 -0.3417
 1730WAT     H1 5401   2.498   3.762   2.390 -0.5770  0.2141  1.1781
 1730WAT     H2 5402   2.478   3.684   2.519  1.9928 -2.1083  0.2691
 1731WAT      O 5403   2.482   1.480   4.856 -0.1612 -0.5831 -0.2063
 1731WAT     H1 5404   2.498   1.574   4.844  0.1656 -0.6197 -0.0645
 1731WAT     H2 5405   2.433   1.475   4.939 -2.2534 -0.3471 -1.3535
 1732WAT      O 5406   0.272   4.291   1.189  0.4348 -0.3178  0.1029
 1732WAT     H1 5407   0.247   4.206   1.225 -0.7425 -0.0425 -0.0393
 1732WAT     H2 5408   0.353   4.313   1.235  1.4700 -2.0848 -0.7558
 1733WAT      O 5409   1.030   0.114   2.527  0.1002 -0.0549 -0.1465
 1733WAT     H1 5410   0.997   0.043   2.582  0.4071 -0.7938 -0.9085
 1733WAT     H2 5411   0.966   0.121   2.457  0.3851  0.0243 -0.3978
 1734WAT      O 5412   1.430   0.896   3.155  0.2598  0.2334  0.2419
 1734WAT     H1 5413   1.350   0.886   3.103  0.6612  0.0042 -0.3336
 1734WAT     H2 5414   1.399   0.896   3.246 -0.3103 -0.6981  0.0638
 1735WAT      O 5415   3.343   4.572   3.229  0.1044 -0.0202 -0.1094
 1735WAT     H1 5416   3.367   4.558   3.137  0.4636  1.3017 -0.2325
 1735WAT     H2 5417   3.427   4.577   3.275 -0.0596 -2.5857  0.6510
 1736WAT      O 5418   2.171   4.710   4.420  0.3602 -0.4498 -0.3026
 1736WAT     H1 5419   2.165   4.616   4.405 -0.9223 -0.4803  0.3481
 1736WAT     H2 5420   2.107   4.729   4.488  1.8581  0.6175  0.9123
 1737WAT      O 5421   1.695   0.362   5.274 -0.4991  0.3727 -0.1184
 1737WAT     H1 5422   1.650   0.287   5.235 -0.9999  1.5599 -2.0105
 1737WAT     H2 5423   1.690   0.429   5.206 -0.1902  2.1687  1.5551
 1738WAT      O 5424   1.154   3.978   2.809  0.1944 -0.4671 -0.1442
 1738WAT     H1 5425   1.246   3.954   2.798  0.2883  0.1062 -0.6473
 1738WAT     H2 5426   1.151   4.072   2.792 -0.4217 -0.4057  0.2682
 1739WAT      O 5427   4.347   4.086   1.634 -0.0957  0.7380 -0.1594
 1739WAT     H1 5428   4.268   4.086   1.580  0.7268 -2.3962 -1.6038
 1739WAT     H2 5429   4.314   4.077   1.724 -1.5036 -2.3765 -0.8560
 1740WAT      O 5430   3.899   2.708   0.756  0.2394 -0.1068 -0.6039
 1740WAT     H1 5431   3.842   2.632   0.765  1.3706 -0.8698  0.4930
 1740WAT     H2 5432   3.947   2.693   0.674  1.1363 -1.0806  0.0749
 1741WAT      O 5433   2.045   3.440   4.158  0.5557  1.2746 -0.5689
 1741WAT     H1 5434   1.962   3.470   4.194  0.5243 -1.2839  1.7898
 1741WAT     H2 5435   2.020   3.383   4.085  0.2245  0.7212 -0.0327
 1742WAT      O 5436   1.633   3.173   1.661  0.0007  0.3041  0.3075
 1742WAT     H1 5437   1.597   3.118   1.591  0.0806 -1.0642  1.2892
 1742WAT     H2 5438   1.607   3.262   1.638 -1.2009 -0.2795 -0.7161
 1743WAT      O 5439   2.380   2.243   0.220 -0.0012  0.0613  0.0373
 1743WAT     H1 5440   2.318   2.242   0.293 -0.2953  0.6822 -0.2018
 1743WAT     H2 5441   2.379   2.333   0.189 -1.2673 -0.5783 -1.9437
 1744WAT      O 5442   1.312   0.785   4.634 -0.2889 -0.4896 -0.4536
 1744WAT     H1 5443   1.260   0.840   4.692 -0.0956 -0.4321 -0.3329
 1744WAT     H2 5444   1.369   0.735   4.693  1.7277  1.3887 -0.6687
 1745WAT      O 5445   2.638   0.295   3.929  0.2364  0.2207  0.2056
 1745WAT     H1 5446   2.725   0.257   3.919 -0.4391 -1.5069  0.5382
 1745WAT     H2 5447   2.613   0.273   4.019 -1.0621 -0.4865 -0.3047
 1746WAT      O 5448   2.572   0.824   0.011 -0.3143 -0.1253 -0.5072
 1746WAT     H1 5449   2.519   0.895  -0.025 -0.2155  0.2197  0.0215
 1746WAT     H2 5450   2.551   0.748  -0.045 -2.4361 -0.3666  0.5145
 1747WAT      O 5451   4.076   3.541   3.569 -0.1471  0.1736 -0.3262
 1747WAT     H1 5452   4.035   3.574   3.489 -0.4396  2.3417  0.6579
 1747WAT     H2 5453   4.170   3.546   3.551 -0.2165 -0.1625 -0.8194
 1748WAT      O 5454   1.329   2.131   1.059  0.2079 -0.1683 -1.3199
 1748WAT     H1 5455   1.287   2.122   1.144  1.6839 -1.3610 -0.6708
 1748WAT     H2 5456   1.364   2.220   1.058 -1.8097  0.6816 -1.6844
 1749WAT      O 5457   1.786   4.724   3.211  0.1660 -0.0328 -0.2369
 1749WAT     H1 5458   1.773   4.633   3.185 -2.0307  0.5217 -1.2882
 1749WAT     H2 5459   1.818   4.719   3.301 -0.3209 -1.8363 -0.1290
 1750WAT      O 5460   3.535   1.404   0.303 -0.3040 -0.2463 -0.2430
 1750WAT     H1 5461   3.453   1.449   0.325 -0.5814 -0.2198 -1.2955
 1750WAT     H2 5462   3.563   1.364   0.386 -0.4949  1.1298  0.5214
 1751WAT      O 5463   2.003   1.796   0.385 -0.0683  0.4016  0.7425
 1751WAT     H1 5464   1.918   1.757   0.367  0.3916  0.0032 -0.6564
 1751WAT     H2 5465   2.019   1.855   0.312  1.1720 -0.0846  0.5866
 1752WAT      O 5466   3.572   4.478   4.020 -0.3121  0.1257 -0.3362
 1752WAT     H1 5467   3.578   4.448   3.929 -0.1143 -1.4579  0.1609
 1752WAT     H2 5468   3.638   4.426   4.067 -1.3383 -0.0701  0.9503
 1753WAT      O 5469   4.184   4.551   5.246  0.3680  0.3542 -0.5190
 1753WAT     H1 5470   4.200   4.636   5.205  1.2635  0.0753 -0.7681
 1753WAT     H2 5471   4.257   4.540   5.307 -1.1521  0.9455  1.5077
 1754WAT      O 5472   1.899   2.693   1.184  0.3070  0.1670  0.0901
 1754WAT     H1 5473   1.989   2.698   1.218  0.2983 -1.6413  0.4572
 1754WAT     H2 5474   1.896   2.611   1.136 -1.3017 -0.0687  0.5349
 1755WAT      O 5475   4.469   3.651   2.468 -0.5638 -0.8856 -0.1217
 1755WAT     H1 5476   4.565   3.655   2.464 -0.6505  1.8072 -1.7703
 1755WAT     H2 5477   4.445   3.589   2.400 -0.0268 -2.1488  0.7948
 1756WAT      O 5478   3.400   4.095   0.037 -0.4140 -0.6807 -0.2951
 1756WAT     H1 5479   3.429   4.004   0.032  0.9963 -0.2350 -0.6460
 1756WAT     H2 5480   3.363   4.113  -0.050 -0.0139 -0.6957 -0.4671
 1757WAT      O 5481   3.509   3.626   1.078  0.4817 -0.3223 -0.2824
 1757WAT     H1 5482   3.575   3.594   1.016  0.6968 -1.7373  0.6306
 1757WAT     H2 5483   3.429   3.632   1.026  1.2124  1.1102 -1.3274
 1758WAT      O 5484   4.021   4.120   1.674 -0.0927 -0.7317  0.7542
 1758WAT     H1 5485   3.995   4.110   1.582  0.3162 -0.2883  0.5884
 1758WAT     H2 5486   3.975   4.198   1.703 -0.2989 -0.9281  0.9605
 1759WAT      O 5487   0.402   2.451   4.858 -0.6627  0.2283  0.6230
 1759WAT     H1 5488   0.486   2.487   4.828 -0.6508 -0.2949  0.0089
 1759WAT     H2 5489   0.412   2.445   4.953  0.2477 -0.4437  0.5002
 1760WAT      O 5490   3.901   2.563   0.079  0.0776 -1.1713  0.5535
 1760WAT     H1 5491   3.888   2.593   0.169 -0.7548 -1.7357  0.6322
 1760WAT     H2 5492   3.989   2.593   0.057  0.2068 -0.8221  1.4722
 1761WAT      O 5493   0.841   3.813   0.244  0.0299 -0.2286 -0.3087
 1761WAT     H1 5494   0.871   3.861   0.167 -1.7278 -0.1063 -0.9546
 1761WAT     H2 5495   0.842   3.721   0.217  1.2492 -0.3881  0.1932
 1762WAT      O 5496   0.153   3.562   1.154  0.5518 -0.3460  0.0671
 1762WAT     H1 5497   0.163   3.479   1.202  1.2219 -0.1455  0.2940
 1762WAT     H2 5498   0.243   3.585   1.128  0.1414 -0.8158 -1.9304
 1763WAT      O 5499   0.926   0.685   0.482 -0.0261  0.0579 -0.4770
 1763WAT     H1 5500   0.838   0.667   0.515  0.1074  0.6785  0.2663
 1763WAT     H2 5501   0.918   0.680   0.387 -0.4507 -1.7150 -0.3899
 1764WAT      O 5502   3.360   2.811   2.963 -0.5259  0.2231 -0.5449
 1764WAT     H1 5503   3.273   2.831   2.929 -0.9009  1.4612  1.0212
 1764WAT     H2 5504   3.371   2.717   2.947 -3.1950 -0.5340  1.3996
 1765WAT      O 5505   4.419   4.902   1.350 -0.2964  0.1549  0.4520
 1765WAT     H1 5506   4.415   4.910   1.255 -0.8791 -1.3808  0.3247
 1765WAT     H2 5507   4.343   4.952   1.381 -0.5188  0.0506  0.0764
 1766WAT      O 5508   0.490   0.896   2.909 -0.1137 -0.1999 -0.6113
 1766WAT     H1 5509   0.407   0.885   2.862 -0.6973 -0.4429  0.4262
 1766WAT     H2 5510   0.522   0.982   2.882 -0.2140 -0.5082 -1.7574
 1767WAT      O 5511   0.052   1.243   3.234  0.7460 -0.5672 -0.2850
 1767WAT     H1 5512   0.093   1.217   3.317  1.3758 -1.7797 -0.9469
 1767WAT     H2 5513  -0.012   1.309   3.259  3.1946  1.5631  0.8045
 1768WAT      O 5514   1.283   0.233   3.407  0.5457  0.0944 -0.1359
 1768WAT     H1 5515   1.370   0.242   3.444  0.5726 -0.6793 -0.0071
 1768WAT     H2 5516   1.228   0.205   3.480  0.4227 -0.5605 -0.4724
 1769WAT      O 5517   3.932   0.683   1.654  0.1991  0.2486  0.1978
 1769WAT     H1 5518   3.901   0.595   1.679  0.6814 -0.0703 -0.3165
 1769WAT     H2 5519   3.979   0.714   1.731  1.0357 -0.4266 -0.0227
 1770WAT      O 5520   2.145   3.549   5.122  0.9587  0.6304  0.1357
 1770WAT     H1 5521   2.143   3.454   5.122  2.3867  0.5634 -0.8646
 1770WAT     H2 5522   2.176   3.573   5.209  0.6662  0.1813  0.3633
 1771WAT      O 5523   2.388   0.046   0.242  0.0899  0.2898  0.1075
 1771WAT     H1 5524   2.319   0.080   0.299  0.6274  0.3578  0.7354
 1771WAT     H2 5525   2.347  -0.025   0.193 -0.2775 -0.0248  0.8677
 1772WAT      O 5526   2.303   0.954   0.912  0.5596  0.1016  0.1665
 1772WAT     H1 5527   2.355   1.034   0.911 -2.7040  2.4222 -0.1215
 1772WAT     H2 5528   2.320   0.916   0.998  2.1054  1.1349  0.3590
 1773WAT      O 5529   4.508   5.096   4.643  0.1245  0.2577  0.7615
 1773WAT     H1 5530   4.446   5.121   4.711 -0.9921 -1.4278  0.4360
 1773WAT     H2 5531   4.457   5.099   4.562  0.9272  0.4236  0.2514
 1774WAT      O 5532   2.470   3.795   0.664 -0.4021  0.4823  0.0074
 1774WAT     H1 5533   2.510   3.859   0.724 -0.0543  0.4212 -0.1637
 1774WAT     H2 5534   2.459   3.843   0.582  0.1046  0.2407 -0.2018
 1775WAT      O 5535   3.373   2.511   0.023  0.1103 -0.6276  0.1947
 1775WAT     H1 5536   3.286   2.523  -0.016 -0.5264  0.4202  1.8247
 1775WAT     H2 5537   3.433   2.516  -0.051 -1.1846 -1.0085 -0.9250
 1776WAT      O 5538   1.777   2.011   4.935 -0.1975  0.2027  0.4858
 1776WAT     H1 5539   1.723   2.002   4.857 -0.5231 -1.5523  0.8682
 1776WAT     H2 5540   1.722   2.061   4.996 -1.2253 -1.1083  0.6848
 1777WAT      O 5541   2.897   2.075   0.290  0.2982  0.2218  0.1609
 1777WAT     H1 5542   2.882   2.031   0.374  1.8784 -2.6360 -0.9123
 1777WAT     H2 5543   2.810   2.078   0.249 -0.0409 -1.0038  0.7426
 1778WAT      O 5544   0.408   2.156   4.988 -0.0927  0.0889  0.2475
 1778WAT     H1 5545   0.435   2.112   4.907  1.0016  4.6085 -2.1882
 1778WAT     H2 5546   0.314   2.173   4.975  0.0575  0.7088 -0.0931
 1779WAT      O 5547   4.343   2.525   4.105  0.1993 -0.2994 -0.4132
 1779WAT     H1 5548   4.299   2.472   4.038 -1.3860 -0.3383  0.5998
 1779WAT     H2 5549   4.415   2.469   4.135 -0.2167 -1.0587 -0.7771
 1780WAT      O 5550   4.490   1.551   3.495 -0.5130 -0.0497 -0.6721
 1780WAT     H1 5551   4.585   1.547   3.491 -0.3213 -0.5119  2.3620
 1780WAT     H2 5552   4.468   1.637   3.458  1.3058  1.1757  0.9265
 1781WAT      O 5553   3.054   0.603   1.872 -0.4937  0.3405 -0.0429
 1781WAT     H1 5554   3.100   0.677   1.912 -1.3132  1.2524 -0.7191
 1781WAT     H2 5555   2.988   0.579   1.938 -1.0274  1.0274 -0.3132
 1782WAT      O 5556   4.099   0.208   2.640  0.1630  0.1645 -0.0165
 1782WAT     H1 5557   4.099   0.267   2.716  1.1230  0.0178  0.1090
 1782WAT     H2 5558   4.092   0.267   2.564  0.0823  0.3703  0.1502
 1783WAT      O 5559   3.382   2.853   4.264  0.6168 -0.3303  0.2315
 1783WAT     H1 5560   3.354   2.763   4.247  1.6017 -0.5751 -0.1605
 1783WAT     H2 5561   3.399   2.890   4.178  0.9343 -0.0016  0.4312
 1784WAT      O 5562   3.858   3.262   2.089 -0.0741 -0.1107  0.1329
 1784WAT     H1 5563   3.787   3.231   2.145 -0.2598 -0.0202 -0.0510
 1784WAT     H2 5564   3.825   3.248   2.000 -0.1432  0.5755  0.0464
 1785WAT      O 5565   2.869   1.759   1.046  0.1614 -0.0840  0.1969
 1785WAT     H1 5566   2.807   1.693   1.077  1.2968 -1.2145  0.1349
 1785WAT     H2 5567   2.882   1.740   0.953 -1.2703  1.7090 -0.4255
 1786WAT      O 5568   0.212   1.812   1.305  0.4337  0.1670 -0.0986
 1786WAT     H1 5569   0.141   1.842   1.361  1.5950  1.2143  0.8818
 1786WAT     H2 5570   0.172   1.745   1.250 -1.0368 -0.0611  1.1655
 1787WAT      O 5571   3.738   4.176   5.107 -0.7136  0.1688 -0.0894
 1787WAT     H1 5572   3.657   4.138   5.072 -0.0249 -0.5421 -0.9408
 1787WAT     H2 5573   3.806   4.114   5.083  0.2185  1.1674 -0.1141
 1788WAT      O 5574   3.774   0.201   1.231 -0.1635 -0.1182 -0.5256
 1788WAT     H1 5575   3.841   0.147   1.189  2.8194 -0.2722  3.7088
 1788WAT     H2 5576   3.721   0.138   1.280 -0.5557  0.3543 -0.3331
 1789WAT      O 5577   2.505   3.268   5.259  0.1610 -0.3419 -0.2051
 1789WAT     H1 5578   2.419   3.227   5.251 -0.0230  0.1649 -0.9886
 1789WAT     H2 5579   2.501   3.343   5.199  0.9777 -0.0250  0.1237
 1790WAT      O 5580   1.298   0.110   1.695  0.7071 -0.0325 -0.0915
 1790WAT     H1 5581   1.318   0.185   1.640  1.4009  0.5458  0.9349
 1790WAT     H2 5582   1.259   0.147   1.774  2.7970 -0.5717  1.2564
 1791WAT      O 5583   3.368   1.728   1.111 -0.0078  0.3560 -0.6930
 1791WAT     H1 5584   3.390   1.755   1.200  0.5730  1.9888 -1.2781
 1791WAT     H2 5585   3.281   1.765   1.097 -0.4636 -0.6355 -0.5279
 1792WAT      O 5586   1.733   0.375   3.952  0.3598 -0.1268  0.0150
 1792WAT     H1 5587   1.645   0.388   3.986 -0.7211 -0.0832 -2.5502
 1792WAT     H2 5588   1.785   0.446   3.992 -1.4784  1.7177 -0.6732
 1793WAT      O 5589   0.942   3.301   0.171  0.4999 -0.0584 -0.4225
 1793WAT     H1 5590   0.896   3.226   0.208  0.4983  0.1639  0.0310
 1793WAT     H2 5591   1.002   3.328   0.239  0.2632  0.5608 -0.4537
 1794WAT      O 5592   1.800   2.208   3.173  0.0282  0.5486  0.0130
 1794WAT     H1 5593   1.890   2.199   3.204  0.8348 -2.3945 -2.6819
 1794WAT     H2 5594   1.759   2.268   3.236  3.0029 -0.3395  3.0790
 1795WAT      O 5595   2.020   2.487   0.076 -0.1116 -0.0131  0.4755
 1795WAT     H1 5596   2.060   2.527  -0.002 -1.0867 -0.3358 -0.2011
 1795WAT     H2 5597   2.071   2.523   0.149  0.7549  0.3787 -0.2931
 1796WAT      O 5598   3.097   2.067   1.542 -0.6862 -0.4730  0.5953
 1796WAT     H1 5599   3.047   2.013   1.481 -0.7535 -1.1899  1.2790
 1796WAT     H2 5600   3.032   2.120   1.587 -0.6039  0.3249 -0.2067
 1797WAT      O 5601   2.022   2.586   4.709 -0.0416 -0.1965  0.1942
 1797WAT     H1 5602   1.967   2.558   4.635  0.2209 -1.3621  0.4252
 1797WAT     H2 5603   2.084   2.514   4.721  1.4903  1.0195  0.0149
 1798WAT      O 5604   1.434   1.690   1.975 -0.7496 -0.4644 -0.1744
 1798WAT     H1 5605   1.504   1.630   2.000  0.7184  1.8562  1.6216
 1798WAT     H2 5606   1.428   1.680   1.880  1.8845 -0.9192 -0.3697
 1799WAT      O 5607   1.412   3.877   4.797 -0.2965 -0.4588  0.5553
 1799WAT     H1 5608   1.482   3.858   4.859  0.7414 -0.5238 -0.5924
 1799WAT     H2 5609   1.440   3.834   4.716  0.1204  2.4794 -0.9669
 1800WAT      O 5610   0.235   2.642   2.079  1.0131  0.5200 -0.0059
 1800WAT     H1 5611   0.214   2.703   2.150  1.2314  0.5056  0.0723
 1800WAT     H2 5612   0.153   2.633   2.031  0.7625  0.2423  0.4623
 1801WAT      O 5613   0.086   4.194   0.839  0.5574  0.0319 -0.5795
 1801WAT     H1 5614   0.162   4.137   0.835 -0.4068 -1.2493 -1.6103
 1801WAT     H2 5615   0.050   4.182   0.927 -1.0568 -2.9988 -1.5005
 1802WAT      O 5616   3.596   1.549   3.352  0.2562  0.0598 -0.0867
 1802WAT     H1 5617   3.628   1.465   3.319  0.4087 -0.9612  2.3968
 1802WAT     H2 5618   3.656   1.614   3.317  0.0208 -0.8061 -2.2231
 1803WAT      O 5619   1.990   3.181   0.780 -0.3864 -0.5124 -0.0312
 1803WAT     H1 5620   2.038   3.101   0.798  0.3029 -0.2622 -0.7354
 1803WAT     H2 5621   1.898   3.158   0.797 -0.2115 -1.4818 -0.3735
 1804WAT      O 5622   3.907   0.840   0.743 -0.0406  0.2921 -0.0873
 1804WAT     H1 5623   3.893   0.886   0.660 -1.3566  1.0649  0.5373
 1804WAT     H2 5624   3.820   0.807   0.766  0.4520 -0.5137  0.6454
 1805WAT      O 5625   3.415   0.086   3.333 -0.2594 -0.0967  0.4172
 1805WAT     H1 5626   3.497   0.090   3.382  0.3391  0.2993 -0.5979
 1805WAT     H2 5627   3.386   0.177   3.326  0.7921  0.1359 -1.7837
 1806WAT      O 5628   4.376   0.071   3.742  0.5452  0.0112  0.0526
 1806WAT     H1 5629   4.464   0.107   3.733  0.4070  0.6102  0.9913
 1806WAT     H2 5630   4.370   0.041   3.833  0.2141 -1.2357 -0.3507
 1807WAT      O 5631   2.827   0.882   3.638  0.7945  0.6322  0.1076
 1807WAT     H1 5632   2.771   0.946   3.683 -0.0110 -0.2760  0.4295
 1807WAT     H2 5633   2.797   0.884   3.547  0.1841  0.0927  0.2957
 1808WAT      O 5634   3.216   3.614   0.604 -0.2701 -0.2467 -0.4101
 1808WAT     H1 5635   3.288   3.551   0.593  1.7178  1.9501 -0.7965
 1808WAT     H2 5636   3.238   3.685   0.543 -0.6686  2.2750  2.1970
 1809WAT      O 5637   1.526   2.978   1.936  0.2281  0.2646 -0.0021
 1809WAT     H1 5638   1.475   3.053   1.906 -0.9299  0.7625  2.8891
 1809WAT     H2 5639   1.600   2.973   1.876 -2.0375  0.8516 -3.0710
 1810WAT      O 5640   3.152   4.278   0.061 -0.7759  0.1083 -0.3640
 1810WAT     H1 5641   3.181   4.279   0.153 -2.1495 -1.9039  0.1581
 1810WAT     H2 5642   3.208   4.213   0.019 -1.1673 -0.1021 -0.5673
 1811WAT      O 5643   2.990   4.357   2.646 -0.3687 -0.1853 -0.0620
 1811WAT     H1 5644   3.034   4.365   2.561 -1.9265 -0.7588 -0.9667
 1811WAT     H2 5645   3.047   4.301   2.698  0.8101  0.4987 -0.5639
 1812WAT      O 5646   3.554   2.598   3.190  0.7139  0.1627 -0.3599
 1812WAT     H1 5647   3.623   2.542   3.155  0.9292  1.1989 -1.6854
 1812WAT     H2 5648   3.602   2.671   3.230  0.3975  0.4184 -0.4520
 1813WAT      O 5649   2.675   2.335   3.769 -0.2682 -0.5642  0.2093
 1813WAT     H1 5650   2.724   2.322   3.688  0.4439 -0.2049  0.5720
 1813WAT     H2 5651   2.736   2.381   3.827 -0.5750 -1.3011  1.1433
 1814WAT      O 5652   2.259   4.130   0.793 -0.5562 -0.0241  0.0754
 1814WAT     H1 5653   2.218   4.182   0.862  0.0656  0.7409 -0.1028
 1814WAT     H2 5654   2.320   4.073   0.839  0.4035  1.0038  0.1381
 1815WAT      O 5655   4.429   4.425   5.156  0.0404  0.1401 -0.0816
 1815WAT     H1 5656   4.515   4.385   5.138  0.1565  0.5852 -0.5179
 1815WAT     H2 5657   4.449   4.496   5.218 -0.1236 -0.2622  0.4399
 1816WAT      O 5658   0.757   2.309   4.420 -0.0619  0.1537 -0.1662
 1816WAT     H1 5659   0.849   2.332   4.437 -0.1227  1.0477 -0.9820
 1816WAT     H2 5660   0.760   2.216   4.397  0.8510  0.4978 -1.5939
 1817WAT      O 5661   2.055   4.574   1.773  0.3891 -0.6302 -0.4454
 1817WAT     H1 5662   2.013   4.489   1.781 -0.6105 -0.1107 -0.0381
 1817WAT     H2 5663   1.995   4.627   1.722  0.2726  0.2808  0.5898
 1818WAT      O 5664   1.343   4.986   1.890  0.1023 -0.4087 -0.0818
 1818WAT     H1 5665   1.263   5.034   1.911 -0.3191 -1.7092  1.4270
 1818WAT     H2 5666   1.394   5.047   1.837 -1.7096  0.5815 -0.7541
 1819WAT      O 5667   2.846   4.609   2.862  0.2371  0.1419 -0.5267
 1819WAT     H1 5668   2.913   4.626   2.796 -1.0664  0.4838 -1.8352
 1819WAT     H2 5669   2.890   4.559   2.930  1.9786  0.9957 -0.9803
 1820WAT      O 5670   2.798   0.342   0.499 -0.3792 -0.5158  0.5897
 1820WAT     H1 5671   2.777   0.430   0.529  0.4376 -0.8925  2.3764
 1820WAT     H2 5672   2.893   0.345   0.482 -0.4061 -0.9656  0.3583
 1821WAT      O 5673   2.383   3.266   1.017  0.7357  0.1312 -0.1674
 1821WAT     H1 5674   2.447   3.196   1.035  2.3531  1.4598 -0.4990
 1821WAT     H2 5675   2.376   3.268   0.922  0.6813  0.3935 -0.1586
 1822WAT      O 5676   0.815   3.088   5.150  0.2153  0.1471  0.4056
 1822WAT     H1 5677   0.880   3.019   5.160  0.4261 -0.2121 -2.6196
 1822WAT     H2 5678   0.866   3.169   5.149  0.4152  0.0145 -0.1306
 1823WAT      O 5679   4.350   3.778   0.142 -0.0422  0.1791 -0.1352
 1823WAT     H1 5680   4.326   3.816   0.057 -2.5320 -3.7058 -1.4400
 1823WAT     H2 5681   4.411   3.708   0.120 -0.8077 -0.9635  1.2442
 1824WAT      O 5682   0.435   4.948   0.601 -0.6805 -0.3071 -0.9440
 1824WAT     H1 5683   0.506   4.884   0.591 -1.3455 -0.9969 -1.3373
 1824WAT     H2 5684   0.472   5.029   0.566  0.5656 -0.1573  0.5931
 1825WAT      O 5685   3.638   0.996   0.393  0.2362  1.0344 -0.1497
 1825WAT     H1 5686   3.597   0.912   0.413 -0.4088  1.5586  0.7934
 1825WAT     H2 5687   3.629   1.006   0.299 -0.1708  0.2988 -0.1896
 1826WAT      O 5688   4.202   4.752   1.137  0.1351  0.4798 -0.7154
 1826WAT     H1 5689   4.175   4.796   1.056  1.5575  1.3209 -0.7677
 1826WAT     H2 5690   4.293   4.779   1.150  0.8937 -1.9446 -0.3891
 1827WAT      O 5691   2.861   2.726   3.289 -0.2040 -0.4486 -0.5800
 1827WAT     H1 5692   2.878   2.794   3.224 -1.2396  2.5546  2.0007
 1827WAT     H2 5693   2.947   2.696   3.317  0.2671 -0.5326 -2.0635
 1828WAT      O 5694   3.601   0.662   4.597 -0.6244  0.0446  0.0839
 1828WAT     H1 5695   3.639   0.582   4.561  1.6649  0.8239  0.5618
 1828WAT     H2 5696   3.554   0.702   4.524  0.7572 -0.2801 -1.0408
 1829WAT      O 5697   3.407   0.210   3.933 -0.0904 -0.7353  0.2155
 1829WAT     H1 5698   3.445   0.266   4.001  2.1956 -0.9740 -0.7645
 1829WAT     H2 5699   3.385   0.271   3.862 -1.5422 -0.6100  0.7456
 1830WAT      O 5700   3.933   4.900   3.728 -0.2242  0.2398  0.0806
 1830WAT     H1 5701   3.934   4.808   3.757 -0.9681  0.1577 -0.1360
 1830WAT     H2 5702   3.962   4.897   3.637  1.1135  0.3845  0.4834
 1831WAT      O 5703   2.654   0.207   1.044 -0.1729  0.2770  0.7156
 1831WAT     H1 5704   2.569   0.251   1.050 -0.8295 -0.9434  0.6080
 1831WAT     H2 5705   2.675   0.208   0.950  0.0587  0.7927  0.7687
 1832WAT      O 5706   2.834   4.614   0.703 -0.0010  0.3151 -0.7378
 1832WAT     H1 5707   2.782   4.693   0.687 -0.0084  0.4161 -0.2297
 1832WAT     H2 5708   2.877   4.630   0.787 -1.0974 -0.7937  0.0652
 1833WAT      O 5709   3.455   4.189   3.198  0.3843  0.1353  0.5787
 1833WAT     H1 5710   3.536   4.200   3.249  0.9817 -1.2605 -0.0218
 1833WAT     H2 5711   3.438   4.095   3.200 -0.6375  0.2834 -0.2124
 1834WAT      O 5712   3.959   4.729   2.615  0.5861 -0.1388 -0.2563
 1834WAT     H1 5713   4.009   4.688   2.544  2.6350  0.2139  0.9326
 1834WAT     H2 5714   3.911   4.656   2.654 -0.0075 -0.4587 -1.5055
 1835WAT      O 5715   0.983   3.466   3.843 -0.5260  0.0909 -0.3689
 1835WAT     H1 5716   0.937   3.400   3.790 -0.7418  0.8911 -1.1992
 1835WAT     H2 5717   0.924   3.541   3.844 -0.0914  0.4301  0.2083
 1836WAT      O 5718   2.251   1.571   3.402  0.3760  0.1802 -0.5370
 1836WAT     H1 5719   2.339   1.607   3.413  0.7879 -0.4751 -1.5635
 1836WAT     H2 5720   2.196   1.648   3.384  0.5901  0.6735  0.7979
 1837WAT      O 5721   4.461   2.358   1.015  0.0333  0.3103  0.3728
 1837WAT     H1 5722   4.411   2.361   1.097 -1.6160  0.2335 -0.5886
 1837WAT     H2 5723   4.506   2.443   1.012 -2.1911  1.5619  0.0130
 1838WAT      O 5724   0.961   3.438   4.515 -0.0661  0.8886 -0.4560
 1838WAT     H1 5725   1.046   3.403   4.545  0.6762  2.7624 -0.2207
 1838WAT     H2 5726   0.900   3.413   4.584  0.3756 -0.0858 -0.3949
 1839WAT      O 5727   2.449   2.445   4.564 -0.1427 -0.6796 -0.4562
 1839WAT     H1 5728   2.438   2.421   4.656  0.1637 -3.1085 -0.9863
 1839WAT     H2 5729   2.360   2.463   4.534 -0.1830  0.6842  0.4300
 1840WAT      O 5730   4.237   2.954   1.539 -0.0814  0.1454 -0.2527
 1840WAT     H1 5731   4.201   2.882   1.488  0.5852 -0.4110  0.0487
 1840WAT     H2 5732   4.328   2.928   1.557 -0.2551  0.3834  1.0793
 1841WAT      O 5733   3.461   1.181   4.709  0.3918 -0.2127  0.2933
 1841WAT     H1 5734   3.378   1.146   4.741 -0.5850  0.4014 -1.4551
 1841WAT     H2 5735   3.528   1.132   4.758 -0.9578 -2.0867  0.3786
 1842WAT      O 5736   0.000   3.074   3.116 -0.3455  0.2992  0.4680
 1842WAT     H1 5737  -0.074   3.014   3.107 -0.1459  0.1709 -0.3447
 1842WAT     H2 5738   0.052   3.037   3.188 -0.5198 -0.1922  0.3456
 1843WAT      O 5739   2.130   2.942   0.814 -0.5433 -0.1688  0.1646
 1843WAT     H1 5740   2.136   2.948   0.909 -1.3409 -0.6358  0.2540
 1843WAT     H2 5741   2.220   2.930   0.785 -0.1287  1.2773  0.7495
 1844WAT      O 5742   0.724   4.730   2.798  0.6552  0.2169  0.0863
 1844WAT     H1 5743   0.710   4.822   2.822 -0.4296  0.2486 -0.5915
 1844WAT     H2 5744   0.649   4.684   2.838  0.4292 -0.1560 -0.7432
 1845WAT      O 5745   0.563   3.968   3.741 -0.0871 -0.1858 -0.7203
 1845WAT     H1 5746   0.532   4.042   3.689  0.7220 -0.3860 -1.5153
 1845WAT     H2 5747   0.584   3.901   3.676  1.5229 -0.2333 -0.1894
 1846WAT      O 5748   0.541   2.323   5.168 -0.1819  0.0617  0.4480
 1846WAT     H1 5749   0.516   2.260   5.101  0.2532  1.3743 -1.0195
 1846WAT     H2 5750   0.610   2.279   5.217 -0.9364 -1.1623  0.4488
 1847WAT      O 5751   2.748   0.118   3.174 -0.4493  0.2852  0.5289
 1847WAT     H1 5752   2.758   0.173   3.251  0.1465 -0.0990  0.7302
 1847WAT     H2 5753   2.770   0.030   3.204 -1.0070 -0.0005  0.1144
 1848WAT      O 5754   3.933   0.832   0.363  0.2614 -0.0306 -0.4089
 1848WAT     H1 5755   3.948   0.918   0.324 -0.1197  0.3848  0.3398
 1848WAT     H2 5756   3.846   0.807   0.332 -0.0268  0.2838  0.1319
 1849WAT      O 5757   4.329   2.508   3.284 -0.1851  0.6050  0.3157
 1849WAT     H1 5758   4.243   2.548   3.268 -0.1058  0.4713 -0.4916
 1849WAT     H2 5759   4.389   2.561   3.231  0.1418  0.3133  0.3957
 1850WAT      O 5760   1.028   5.096   1.671 -0.0502  0.2343  0.7703
 1850WAT     H1 5761   0.977   5.176   1.659  1.1151  0.7090 -1.5816
 1850WAT     H2 5762   1.118   5.126   1.681  0.6849 -0.7224 -1.9258
 1851WAT      O 5763   3.027   0.107   1.497  0.0726  0.2056 -0.1407
 1851WAT     H1 5764   3.065   0.024   1.527 -0.2462 -0.8524 -2.4460
 1851WAT     H2 5765   2.936   0.103   1.523  0.4744  0.7293  1.4378
 1852WAT      O 5766   1.498   0.299   2.043  0.4320 -0.1742 -0.0273
 1852WAT     H1 5767   1.532   0.315   1.955  1.3008 -0.6476  0.2154
 1852WAT     H2 5768   1.469   0.385   2.073  2.6847  0.5423  0.2937
 1853WAT      O 5769   2.663   1.600   2.231  0.4830  0.5192 -0.1424
 1853WAT     H1 5770   2.704   1.676   2.273 -0.9345  0.2393  1.9229
 1853WAT     H2 5771   2.576   1.595   2.271  0.4966 -2.1307 -0.2425
 1854WAT      O 5772   2.572   4.539   1.344 -0.5332 -0.2806  0.2331
 1854WAT     H1 5773   2.579   4.612   1.406  0.5426  0.1028 -0.3203
 1854WAT     H2 5774   2.654   4.491   1.355 -0.7139 -0.7106 -0.2854
 1855WAT      O 5775   1.634   3.158   2.151  0.0601 -0.0362 -0.9365
 1855WAT     H1 5776   1.677   3.171   2.236  0.2318 -1.1294 -0.8493
 1855WAT     H2 5777   1.593   3.072   2.158 -0.3510  0.0844 -1.7869
 1856WAT      O 5778   1.313   1.560   3.767  0.8074  0.0034  0.8559
 1856WAT     H1 5779   1.335   1.625   3.700 -1.2952  1.2554  1.3001
 1856WAT     H2 5780   1.373   1.580   3.839  1.2648  0.3983  0.3783
 1857WAT      O 5781   0.808   4.304   0.625 -0.6406  0.6394  0.3504
 1857WAT     H1 5782   0.778   4.249   0.552  0.2873  0.2197  0.2631
 1857WAT     H2 5783   0.745   4.376   0.629 -0.3023  1.0652 -1.3465
 1858WAT      O 5784   2.174   0.771   1.982  0.0141 -0.0303 -0.1434
 1858WAT     H1 5785   2.171   0.836   1.912 -0.6968 -1.3688 -1.4148
 1858WAT     H2 5786   2.255   0.723   1.966 -0.2004 -0.4039 -0.1219
 1859WAT      O 5787   0.013   2.674   0.517  0.6422 -0.1827  0.0298
 1859WAT     H1 5788   0.070   2.739   0.477 -1.5971  0.3343 -2.6308
 1859WAT     H2 5789   0.023   2.596   0.463 -1.8058  0.2445 -1.1568
 1860WAT      O 5790   0.852   1.048   1.847 -0.0524  0.9587 -0.2395
 1860WAT     H1 5791   0.824   1.123   1.795 -0.5632  0.6949 -0.3535
 1860WAT     H2 5792   0.926   1.011   1.798 -1.3518 -0.0830 -1.5255
 1861WAT      O 5793   1.033   5.048   0.246  0.2241  0.0003 -0.5852
 1861WAT     H1 5794   1.095   4.988   0.205 -0.1908 -0.7086 -0.2002
 1861WAT     H2 5795   0.958   5.051   0.186 -0.3277 -0.9367  0.0289
 1862WAT      O 5796   1.004   3.653   1.377 -0.0566  0.0647  0.3368
 1862WAT     H1 5797   0.909   3.656   1.363 -0.5503 -1.4017  2.8013
 1862WAT     H2 5798   1.040   3.633   1.290 -1.8837  1.4760 -0.8266
 1863WAT      O 5799   3.564   4.538   1.321  0.3941  1.0831 -0.4176
 1863WAT     H1 5800   3.635   4.545   1.257 -1.5538  2.5462 -2.5471
 1863WAT     H2 5801   3.508   4.468   1.287 -0.4290  1.5687 -0.0810
 1864WAT      O 5802   0.031   1.687   2.177  0.3264 -0.5992  0.2897
 1864WAT     H1 5803   0.012   1.741   2.101 -0.1633 -0.7266  0.3161
 1864WAT     H2 5804   0.126   1.684   2.182  0.3571 -0.4897 -0.2426
 1865WAT      O 5805   0.488   0.325   4.932 -0.1796 -0.6585  0.3644
 1865WAT     H1 5806   0.550   0.274   4.984 -0.0889 -0.6730  0.2405
 1865WAT     H2 5807   0.461   0.267   4.862 -0.3940 -0.6792  0.4631
 1866WAT      O 5808   3.944   2.964   1.656  0.1160  0.1765 -0.4416
 1866WAT     H1 5809   3.933   2.935   1.566 -0.9955  0.4229 -0.3992
 1866WAT     H2 5810   4.039   2.967   1.669  0.2845 -1.4449 -1.0769
 1867WAT      O 5811   3.555   1.384   2.400 -0.4310 -0.4775 -0.1636
 1867WAT     H1 5812   3.509   1.459   2.436  1.3845  1.6498 -1.9136
 1867WAT     H2 5813   3.622   1.363   2.465 -1.0834 -0.7178  0.4307
 1868WAT      O 5814   3.936   0.144   3.890  0.4569  0.9304 -0.1303
 1868WAT     H1 5815   4.017   0.156   3.841  1.2196 -0.9939  0.5921
 1868WAT     H2 5816   3.962   0.148   3.982  0.1360 -1.6988  0.1457
 1869WAT      O 5817   3.991   4.373   1.243 -0.1603  0.3846  0.0196
 1869WAT     H1 5818   3.985   4.365   1.148  1.9903  1.0574 -0.2292
 1869WAT     H2 5819   3.907   4.411   1.269 -1.3667 -1.1412 -1.3953
 1870WAT      O 5820   4.095   3.980   2.818  0.2835 -0.2827 -0.1256
 1870WAT     H1 5821   4.159   3.936   2.874 -1.3891 -2.3740  0.2716
 1870WAT     H2 5822   4.011   3.964   2.860 -0.8500 -0.4583 -2.3363
 1871WAT      O 5823   2.825   4.878   2.091 -0.7274 -0.0562 -0.0165
 1871WAT     H1 5824   2.761   4.900   2.158 -0.5691  1.8320 -0.4389
 1871WAT     H2 5825   2.782   4.899   2.008 -0.1248 -0.2725 -0.3936
 1872WAT      O 5826   1.964   1.067   0.143  0.1080  0.1753  0.1340
 1872WAT     H1 5827   2.015   1.112   0.075 -0.4530 -0.4414 -0.7148
 1872WAT     H2 5828   1.915   1.000   0.096  1.5633 -1.9511  1.4554
 1873WAT      O 5829   3.814   2.307   1.669  0.2346 -0.5390  0.5588
 1873WAT     H1 5830   3.758   2.308   1.747  0.5947 -0.7857  0.8265
 1873WAT     H2 5831   3.888   2.253   1.695  1.5393  1.3221  0.8612
 1874WAT      O 5832   0.633   4.559   1.477 -0.2121  0.0997  0.1186
 1874WAT     H1 5833   0.579   4.638   1.468  0.6424  0.6386 -0.3757
 1874WAT     H2 5834   0.676   4.570   1.562  0.1542  0.3358 -0.0920
 1875WAT      O 5835   1.429   2.636   2.345 -0.2376  0.2161 -0.0117
 1875WAT     H1 5836   1.432   2.560   2.402 -2.8525 -0.6610 -0.9005
 1875WAT     H2 5837   1.519   2.668   2.343  1.0489 -3.0093  0.1720
 1876WAT      O 5838   1.900   1.720   4.369  0.2936 -0.1386  0.4964
 1876WAT     H1 5839   1.965   1.652   4.383  1.2917  0.5796 -0.4574
 1876WAT     H2 5840   1.936   1.772   4.297 -0.4810  1.3461  1.1533
 1877WAT      O 5841   3.628   2.639   4.605 -0.3365 -0.7747  0.3556
 1877WAT     H1 5842   3.585   2.683   4.679 -1.9564 -0.4305 -0.7380
 1877WAT     H2 5843   3.640   2.549   4.636 -0.5921 -0.5345  1.2067
 1878WAT      O 5844   2.010   1.155   0.396 -1.0458 -0.3124  0.4536
 1878WAT     H1 5845   2.032   1.245   0.370 -1.4660  0.5163  2.7166
 1878WAT     H2 5846   1.980   1.113   0.315 -1.2674  1.7245 -0.5801
 1879WAT      O 5847   3.730   5.038   2.590  0.5012  0.4649  0.3869
 1879WAT     H1 5848   3.816   5.043   2.632  0.6046  3.6283 -0.0041
 1879WAT     H2 5849   3.680   5.110   2.626 -1.6277 -0.5609 -0.3048
 1880WAT      O 5850   0.727   1.954   2.171  0.1197 -0.2226  0.3275
 1880WAT     H1 5851   0.804   1.909   2.206  0.6780 -0.1435 -0.7464
 1880WAT     H2 5852   0.751   2.046   2.173  0.2032 -0.2283 -0.3613
 1881WAT      O 5853   0.204   2.020   3.217  0.1486  0.3830  0.2317
 1881WAT     H1 5854   0.261   2.001   3.143 -0.2701 -0.0173  0.0076
 1881WAT     H2 5855   0.264   2.036   3.290  0.7205  4.0649 -0.8752
 1882WAT      O 5856   0.985   4.371   5.003  0.1138 -0.6840 -0.0695
 1882WAT     H1 5857   0.977   4.276   5.004  1.0924 -0.7756 -0.0758
 1882WAT     H2 5858   0.972   4.395   4.912 -0.0429 -0.8240 -0.0838
 1883WAT      O 5859   3.262   1.960   0.563  0.7606  0.1096  0.4984
 1883WAT     H1 5860   3.345   1.966   0.611  1.2383 -0.8922 -0.1770
 1883WAT     H2 5861   3.280   1.899   0.491 -0.5617 -0.1283  0.3438
 1884WAT      O 5862   3.126   3.203   4.282  0.1529  0.2517  0.3761
 1884WAT     H1 5863   3.082   3.265   4.224 -2.2048 -1.3138  0.3084
 1884WAT     H2 5864   3.094   3.225   4.370  0.8985  0.3951  0.6142
 1885WAT      O 5865   2.616   4.228   2.988  0.4377  0.2177  0.1221
 1885WAT     H1 5866   2.551   4.274   2.935  0.0522 -0.5066 -0.0484
 1885WAT     H2 5867   2.565   4.163   3.036  1.1029 -0.7201 -0.4089
 1886WAT      O 5868   0.874   0.635   2.945  0.1216 -0.2664 -0.3873
 1886WAT     H1 5869   0.896   0.710   2.890  0.5322 -1.2185 -1.5593
 1886WAT     H2 5870   0.790   0.603   2.910 -0.0700 -0.3362  0.1269
 1887WAT      O 5871   2.244   0.630   3.378  0.1254  0.1460 -0.0314
 1887WAT     H1 5872   2.307   0.658   3.445 -0.2872  0.7777  0.1038
 1887WAT     H2 5873   2.237   0.536   3.389  1.6981 -0.0852 -0.6047
 1888WAT      O 5874   3.091   2.640   3.370 -0.3835  0.0964  0.5618
 1888WAT     H1 5875   3.155   2.600   3.310 -0.0803 -0.6042  1.3435
 1888WAT     H2 5876   3.095   2.586   3.449  0.1380  1.7390  1.7047
 1889WAT      O 5877   0.374   1.428   0.068  0.3573  0.1012 -0.2735
 1889WAT     H1 5878   0.283   1.429   0.096 -0.2346 -1.7983 -1.9032
 1889WAT     H2 5879   0.377   1.491  -0.004  0.0416 -0.6018 -0.9205
 1890WAT      O 5880   0.362   2.116   2.398 -0.3267  0.1535  0.0963
 1890WAT     H1 5881   0.374   2.072   2.482  2.1721  1.6893  0.6413
 1890WAT     H2 5882   0.341   2.207   2.420 -0.3654  0.4180 -0.9515
 1891WAT      O 5883   0.959   0.238   0.563  0.0120 -0.4129  0.2430
 1891WAT     H1 5884   0.965   0.234   0.467 -0.4216 -0.9687  0.2294
 1891WAT     H2 5885   0.867   0.256   0.580 -0.2470 -1.9201  0.5731
 1892WAT      O 5886   3.221   0.464   1.184  0.2547 -0.7495  0.4593
 1892WAT     H1 5887   3.175   0.401   1.238 -0.5825 -1.1895 -0.7220
 1892WAT     H2 5888   3.276   0.513   1.245 -0.6610 -1.2131  1.6891
 1893WAT      O 5889   0.720   2.602   3.867  0.2187 -0.2735  0.0831
 1893WAT     H1 5890   0.768   2.684   3.883  0.9948 -0.7602  0.2837
 1893WAT     H2 5891   0.782   2.533   3.888 -0.3556 -0.9266 -0.3116
 1894WAT      O 5892   0.382   0.207   4.430 -0.1071  0.0647  0.4719
 1894WAT     H1 5893   0.313   0.222   4.495 -1.2882 -0.6454 -0.5769
 1894WAT     H2 5894   0.431   0.289   4.428  0.9708 -0.3713  3.3552
 1895WAT      O 5895   2.437   2.802   1.178 -0.2034 -0.5358 -0.4847
 1895WAT     H1 5896   2.450   2.767   1.090 -1.9373 -0.6436 -0.7288
 1895WAT     H2 5897   2.503   2.757   1.231 -0.3001 -1.8110 -1.3965
 1896WAT      O 5898   0.095   4.682   1.931 -0.6216 -0.3274  0.1963
 1896WAT     H1 5899   0.169   4.659   1.987  1.1307 -0.1157 -1.9339
 1896WAT     H2 5900   0.047   4.748   1.981  1.2659  0.3681  1.1897
 1897WAT      O 5901   4.412   2.213   0.463 -0.1069  0.2747  0.2010
 1897WAT     H1 5902   4.351   2.261   0.407  0.1818 -1.3159 -1.6076
 1897WAT     H2 5903   4.378   2.123   0.465  0.6120  0.0050  1.5465
 1898WAT      O 5904   1.068   3.492   0.673 -0.3955 -0.2018 -0.4257
 1898WAT     H1 5905   1.162   3.480   0.656 -0.2318  0.6835 -0.1549
 1898WAT     H2 5906   1.049   3.429   0.742 -0.0972 -0.6766 -0.7632
 1899WAT      O 5907   4.245   3.685   4.572  0.0541 -0.4371  0.2272
 1899WAT     H1 5908   4.203   3.638   4.500 -0.9300  0.1421  0.4140
 1899WAT     H2 5909   4.302   3.748   4.528 -0.4365 -0.1801 -0.0506
 1900WAT      O 5910   1.248   3.840   1.202  0.5158 -0.3626 -0.3551
 1900WAT     H1 5911   1.206   3.916   1.162 -0.4831 -0.5467  0.3201
 1900WAT     H2 5912   1.206   3.764   1.162  0.7213 -0.5583 -0.2086
 1901WAT      O 5913   0.038   2.938   0.758 -0.1872 -0.2116  0.5401
 1901WAT     H1 5914   0.060   2.886   0.681 -0.9180  1.6108 -0.9794
 1901WAT     H2 5915   0.120   2.943   0.808  0.4151 -1.0741 -0.3349
 1902WAT      O 5916   2.923   4.660   4.204 -0.3733 -0.1772  0.5371
 1902WAT     H1 5917   2.916   4.714   4.126  1.0177  0.4650  0.8274
 1902WAT     H2 5918   3.005   4.612   4.193 -0.9004 -1.2075  0.9311
 1903WAT      O 5919   0.046   2.499   5.240  0.1379  0.3232  0.4485
 1903WAT     H1 5920  -0.037   2.458   5.264  0.8108 -1.7768 -0.5499
 1903WAT     H2 5921   0.107   2.426   5.230  1.4207  1.5452 -1.5096
 1904WAT      O 5922   1.800   1.832   1.496 -0.2492  0.4914 -0.0537
 1904WAT     H1 5923   1.751   1.854   1.575 -1.2409 -3.0737  0.5068
 1904WAT     H2 5924   1.754   1.880   1.426 -0.8930  1.7679  1.1922
 1905WAT      O 5925   3.341   3.172   3.078  0.4858  0.3415  0.4750
 1905WAT     H1 5926   3.433   3.196   3.073  0.8918 -0.8352  1.7204
 1905WAT     H2 5927   3.340   3.088   3.125 -1.2660  0.6109  1.0050
 1906WAT      O 5928   1.266   0.202   3.907  0.0442 -0.1878  0.4485
 1906WAT     H1 5929   1.229   0.171   3.990 -0.8766 -0.1457  0.0680
 1906WAT     H2 5930   1.309   0.284   3.929 -2.1682  1.0415  0.5144
 1907WAT      O 5931   2.838   0.890   0.968 -0.3115  0.5854 -0.2694
 1907WAT     H1 5932   2.890   0.958   1.009 -1.1017  1.4513 -0.6683
 1907WAT     H2 5933   2.892   0.858   0.896  0.3284  0.3224  0.3157
 1908WAT      O 5934   4.198   1.123   3.327 -0.2054  0.0145  0.2308
 1908WAT     H1 5935   4.234   1.187   3.389 -0.0769 -0.7829  0.9863
 1908WAT     H2 5936   4.258   1.048   3.333 -1.4064 -0.9303  0.7513
 1909WAT      O 5937   0.402   0.885   2.414  0.0297  0.0858  0.2594
 1909WAT     H1 5938   0.354   0.919   2.490  0.3090 -0.8740  0.8852
 1909WAT     H2 5939   0.446   0.806   2.447  0.6972  0.0263 -0.7315
 1910WAT      O 5940   1.440   0.139   4.194  0.3683 -0.0962  0.4028
 1910WAT     H1 5941   1.455   0.228   4.164  1.1180 -0.8964 -1.7992
 1910WAT     H2 5942   1.345   0.133   4.205 -0.0973  0.0886 -2.6965
 1911WAT      O 5943   3.249   2.635   4.092 -0.1060  0.0629  0.0208
 1911WAT     H1 5944   3.261   2.541   4.101  1.8567 -0.4097 -4.6250
 1911WAT     H2 5945   3.155   2.646   4.076 -0.5462 -0.8552  1.7648
 1912WAT      O 5946   2.491   1.217   4.808 -0.3533 -0.1010 -0.0595
 1912WAT     H1 5947   2.483   1.313   4.812 -0.4178 -0.1221  0.4262
 1912WAT     H2 5948   2.457   1.187   4.892  0.8975 -0.4654  0.3473
 1913WAT      O 5949   1.779   1.287   4.385 -0.6268  0.1458  0.0346
 1913WAT     H1 5950   1.777   1.192   4.373  0.4656  0.1554 -0.3037
 1913WAT     H2 5951   1.710   1.304   4.449 -0.5672 -0.9218  0.4123
 1914WAT      O 5952   2.706   2.170   0.803  0.4527 -0.5519  0.8076
 1914WAT     H1 5953   2.732   2.123   0.882  1.9867  1.4451  1.5913
 1914WAT     H2 5954   2.788   2.202   0.766 -0.4409  0.7842 -0.1268
 1915WAT      O 5955   0.559   4.618   2.966  0.9200  0.6500  0.7541
 1915WAT     H1 5956   0.588   4.650   3.052 -1.3800  1.4133  1.3222
 1915WAT     H2 5957   0.463   4.617   2.972  0.7200 -0.0397 -1.5533
 1916WAT      O 5958   1.937   3.443   4.490  0.5482 -0.1419  0.4245
 1916WAT     H1 5959   1.940   3.442   4.394  0.5587  2.9580  0.2850
 1916WAT     H2 5960   1.845   3.459   4.511  0.9336  1.9158  0.7535
 1917WAT      O 5961   0.607   0.861   4.324 -0.0704 -0.3943 -0.0218
 1917WAT     H1 5962   0.629   0.794   4.259 -0.7169 -2.8846  2.1470
 1917WAT     H2 5963   0.513   0.876   4.313  0.0964  0.2851 -0.5840
 1918WAT      O 5964   0.713   1.957   4.727 -0.0239 -0.3275  0.0040
 1918WAT     H1 5965   0.801   1.995   4.731 -0.3109  0.5266 -1.0286
 1918WAT     H2 5966   0.728   1.866   4.704  0.5803  0.0140 -1.0456
 1919WAT      O 5967   4.017   3.598   5.170  0.0551 -0.1137 -0.0575
 1919WAT     H1 5968   3.973   3.573   5.089 -1.1205  1.0243  0.2103
 1919WAT     H2 5969   4.110   3.582   5.153 -0.4122 -2.4428 -0.6675
 1920WAT      O 5970   2.976   3.053   0.489  0.0982  0.3030  0.5155
 1920WAT     H1 5971   3.042   3.058   0.420 -0.0074 -1.9877  0.1699
 1920WAT     H2 5972   3.022   3.012   0.563 -0.7188 -0.6233  0.5250
 1921WAT      O 5973   1.855   2.323   4.955 -0.5182 -0.4811  0.0291
 1921WAT     H1 5974   1.943   2.358   4.969 -1.0118  1.1520 -0.7368
 1921WAT     H2 5975   1.833   2.283   5.039  0.3967  0.3667  0.7081
 1922WAT      O 5976   1.498   3.801   0.220 -0.3149  0.5132  0.0523
 1922WAT     H1 5977   1.556   3.756   0.282 -0.4114 -0.5860 -0.6390
 1922WAT     H2 5978   1.548   3.877   0.192  0.6770 -0.2347 -0.2751
 1923WAT      O 5979   4.218   0.925   1.762 -0.2156 -0.0499 -0.0416
 1923WAT     H1 5980   4.165   0.959   1.690 -1.4443 -1.5687  0.0849
 1923WAT     H2 5981   4.172   0.846   1.791  1.2530 -0.5237  1.1801
 1924WAT      O 5982   1.282   2.629   2.966 -0.3904  0.3762 -0.3566
 1924WAT     H1 5983   1.242   2.604   3.049  1.8931  1.5352  1.2181
 1924WAT     H2 5984   1.304   2.545   2.924 -0.9615 -0.2302  0.5178
 1925WAT      O 5985   2.864   1.694   0.434 -0.0379  0.3160  0.0220
 1925WAT     H1 5986   2.952   1.658   0.432 -0.1240  0.1120 -0.1360
 1925WAT     H2 5987   2.813   1.629   0.483 -0.2125  0.1804 -0.3387
 1926WAT      O 5988   3.634   4.365   1.988  0.3400 -0.8873 -0.1072
 1926WAT     H1 5989   3.629   4.427   1.915  1.8189  2.4836  2.4035
 1926WAT     H2 5990   3.573   4.400   2.053  1.8348 -1.5800  1.7352
 1927WAT      O 5991   0.245   4.541   4.786 -0.7129  0.3513 -0.1430
 1927WAT     H1 5992   0.209   4.570   4.869 -0.9373 -0.8715  0.2104
 1927WAT     H2 5993   0.259   4.621   4.736 -2.0455  0.9909  0.4742
 1928WAT      O 5994   3.472   0.680   0.137 -0.2023  0.0302  0.2813
 1928WAT     H1 5995   3.461   0.737   0.060  1.0425  1.2402  0.9394
 1928WAT     H2 5996   3.429   0.598   0.113 -0.1836  0.5114 -1.5537
 1929WAT      O 5997   2.019   3.057   2.752  0.3477 -0.1674  0.1943
 1929WAT     H1 5998   2.086   3.102   2.701 -0.0786  1.0322  0.6474
 1929WAT     H2 5999   2.033   3.087   2.842  0.1060 -1.0195  0.5240
 1930WAT      O 6000   2.409   3.357   2.714 -0.0684 -0.1059  0.0593
 1930WAT     H1 6001   2.333   3.313   2.753  0.1655 -0.3107  0.2880
 1930WAT     H2 6002   2.440   3.297   2.647  0.1909 -0.2468  0.3034
 1931WAT      O 6003   1.585   4.347   4.555  0.1433 -0.7035 -0.3644
 1931WAT     H1 6004   1.636   4.341   4.636  0.0828  0.1571 -0.2554
 1931WAT     H2 6005   1.522   4.275   4.561 -2.2724  1.3689  2.0776
 1932WAT      O 6006   3.793   1.667   3.629 -0.2805 -0.0133 -0.4988
 1932WAT     H1 6007   3.735   1.591   3.625  0.1139 -0.3060 -0.7608
 1932WAT     H2 6008   3.842   1.655   3.711 -1.5612  0.9627  0.4484
 1933WAT      O 6009   3.196   2.704   0.917 -0.0399  0.3237 -0.2579
 1933WAT     H1 6010   3.214   2.797   0.930  1.1446  0.1216 -0.3136
 1933WAT     H2 6011   3.253   2.659   0.979 -0.8927 -0.3617  0.0494
 1934WAT      O 6012   3.648   4.766   5.085 -0.4485 -0.3601 -0.3906
 1934WAT     H1 6013   3.666   4.758   4.992 -2.4814 -1.5874 -0.7314
 1934WAT     H2 6014   3.657   4.677   5.119 -2.0813 -0.3846  0.0752
 1935WAT      O 6015   2.767   2.680   1.846  0.0157  0.0769  0.4686
 1935WAT     H1 6016   2.836   2.672   1.781 -1.0849 -1.9339 -0.5603
 1935WAT     H2 6017   2.780   2.605   1.904 -0.0447  0.8937  1.5780
 1936WAT      O 6018   1.117   1.170   3.126 -0.7924  0.0407  0.1688
 1936WAT     H1 6019   1.156   1.143   3.209 -1.1193  0.2339  0.3882
 1936WAT     H2 6020   1.137   1.099   3.065 -0.3778 -0.0068  0.3614
 1937WAT      O 6021   0.344   2.706   4.350 -0.0797  0.6509  0.0274
 1937WAT     H1 6022   0.300   2.741   4.273 -0.0784  0.5333 -0.0270
 1937WAT     H2 6023   0.406   2.774   4.376 -0.5952  0.9991  0.3569
 1938WAT      O 6024   2.104   2.462   2.335  0.6445 -0.5598  0.4813
 1938WAT     H1 6025   2.070   2.499   2.416  0.9080  0.0333  0.3247
 1938WAT     H2 6026   2.029   2.462   2.275  0.7972  0.3108  0.2837
 1939WAT      O 6027   3.750   2.761   5.156  0.0411 -0.0058  0.2454
 1939WAT     H1 6028   3.735   2.719   5.240 -0.8309 -0.7615 -0.2751
 1939WAT     H2 6029   3.673   2.816   5.142  0.1547  0.0731 -0.0954
 1940WAT      O 6030   0.811   4.145   1.719 -0.0984 -0.7086  0.2083
 1940WAT     H1 6031   0.822   4.207   1.647 -0.1361 -0.4869  0.3929
 1940WAT     H2 6032   0.717   4.127   1.721 -0.1594 -0.3549  0.5017
 1941WAT      O 6033   4.246   4.136   3.616  0.3448 -0.0965  0.1936
 1941WAT     H1 6034   4.165   4.099   3.581 -0.1447 -0.2838  1.4787
 1941WAT     H2 6035   4.218   4.186   3.692  1.5228 -0.7887  1.1037
 1942WAT      O 6036   1.537   1.109   2.660 -0.3153 -0.4806  0.1695
 1942WAT     H1 6037   1.551   1.017   2.640  0.3779 -0.7258  1.6173
 1942WAT     H2 6038   1.445   1.125   2.640 -0.6567 -1.7092  0.6723
 1943WAT      O 6039   0.210   0.560   0.712 -0.1847  0.3239 -0.0557
 1943WAT     H1 6040   0.201   0.587   0.804 -2.4185  1.2269 -0.4621
 1943WAT     H2 6041   0.164   0.628   0.663  1.9092  0.4740 -1.9984
 1944WAT      O 6042   3.240   3.678   4.040  0.1658  0.0258 -0.6013
 1944WAT     H1 6043   3.172   3.713   4.097  3.3734  0.9925  3.0105
 1944WAT     H2 6044   3.249   3.587   4.065  0.4659  0.0027 -0.7844
 1945WAT      O 6045   3.401   3.195   4.196 -0.0364  0.0501 -0.7409
 1945WAT     H1 6046   3.327   3.151   4.238  1.4916 -0.5767  1.4383
 1945WAT     H2 6047   3.432   3.131   4.131  0.0234 -0.6568 -0.0296
 1946WAT      O 6048   1.681   1.749   0.041  0.0802  0.2056 -0.0583
 1946WAT     H1 6049   1.707   1.840   0.056 -0.4951  0.3326  0.1773
 1946WAT     H2 6050   1.593   1.742   0.077 -0.4385 -0.0854 -1.3212
 1947WAT      O 6051   2.542   3.710   4.827  0.4854 -0.4499 -0.7010
 1947WAT     H1 6052   2.478   3.719   4.898  0.7825  0.0035 -0.4810
 1947WAT     H2 6053   2.543   3.797   4.785  2.4070  0.1978  0.5652
 1948WAT      O 6054   2.779   2.098   2.353 -0.2735  0.2658 -0.2189
 1948WAT     H1 6055   2.818   2.120   2.269  1.8734  0.0331  0.6437
 1948WAT     H2 6056   2.692   2.139   2.351 -0.9018 -0.9947 -3.0884
 1949WAT      O 6057   0.239   2.326   5.173  0.2815  0.0691 -0.0892
 1949WAT     H1 6058   0.332   2.302   5.167  0.7115  1.7682 -0.6637
 1949WAT     H2 6059   0.195   2.260   5.119  0.8714 -1.9381  1.7247
 1950WAT      O 6060   4.371   2.628   5.078  0.0040 -0.4763  0.2713
 1950WAT     H1 6061   4.458   2.597   5.051 -0.4677 -3.5629  1.8275
 1950WAT     H2 6062   4.389   2.679   5.158  0.4897  0.2059 -0.2600
 1951WAT      O 6063   3.061   2.296   5.008 -0.6713  0.0463 -0.5607
 1951WAT     H1 6064   2.994   2.273   5.073  0.8357  1.1917  1.4902
 1951WAT     H2 6065   3.144   2.275   5.050  0.5209  3.5967 -0.8618
 1952WAT      O 6066   2.629   4.127   0.070  0.1421 -0.0893  0.3811
 1952WAT     H1 6067   2.662   4.082   0.148 -0.3975 -0.8802  0.1630
 1952WAT     H2 6068   2.690   4.103   0.000  0.4269  0.3349  0.4853
 1953WAT      O 6069   2.175   2.064   2.961 -0.2258 -0.3301 -0.3050
 1953WAT     H1 6070   2.238   2.032   2.897 -0.1804 -2.1280  0.5900
 1953WAT     H2 6071   2.212   2.040   3.046 -1.8101 -0.8781  0.2613
 1954WAT      O 6072   0.144   2.167   4.004 -0.5266  0.0814 -0.4882
 1954WAT     H1 6073   0.130   2.239   3.943 -0.2281  1.4235  0.9740
 1954WAT     H2 6074   0.236   2.174   4.030 -0.8920  0.2019  0.8856
 1955WAT      O 6075   4.272   0.271   0.702 -0.5886 -0.2725  0.8023
 1955WAT     H1 6076   4.323   0.313   0.633 -2.2303 -2.0363 -1.6702
 1955WAT     H2 6077   4.315   0.296   0.783  1.0830  2.4457 -0.7893
 1956WAT      O 6078   4.216   3.467   0.414 -0.2180  0.4128  0.8638
 1956WAT     H1 6079   4.276   3.475   0.488  1.0546  1.8281 -0.2577
 1956WAT     H2 6080   4.266   3.418   0.349 -1.2152 -0.5597  0.8152
 1957WAT      O 6081   2.373   2.507   0.167 -0.2436 -0.3423  0.3286
 1957WAT     H1 6082   2.395   2.529   0.077 -1.2731 -0.2846  0.0778
 1957WAT     H2 6083   2.324   2.583   0.199 -1.2187 -0.9927  0.4226
 1958WAT      O 6084   2.071   1.901   0.623 -0.4306 -0.1984 -0.2350
 1958WAT     H1 6085   2.035   1.837   0.685  1.2261  0.0877  1.0685
 1958WAT     H2 6086   2.033   1.875   0.538 -1.9383 -1.2195  0.6975
 1959WAT      O 6087   1.039   0.555   4.642  0.0231  0.0694 -0.1407
 1959WAT     H1 6088   1.102   0.532   4.711  0.4974  0.9346 -0.2783
 1959WAT     H2 6089   1.085   0.618   4.587 -1.2473  1.3887  0.2503
 1960WAT      O 6090   1.330   4.446   0.937 -0.4188 -0.2613 -0.1052
 1960WAT     H1 6091   1.412   4.488   0.908 -0.8117  0.4934 -0.1412
 1960WAT     H2 6092   1.359   4.378   0.998  0.2070  0.3335  0.2774
 1961WAT      O 6093   4.446   0.430   1.900 -0.1210  0.5146 -0.1074
 1961WAT     H1 6094   4.466   0.370   1.828  0.1955  0.3922  0.0784
 1961WAT     H2 6095   4.363   0.471   1.876 -0.4190 -0.1184 -0.1574
 1962WAT      O 6096   2.664   2.122   1.494  0.2255 -0.1005 -0.5116
 1962WAT     H1 6097   2.662   2.192   1.429  1.1388  1.4283  1.0426
 1962WAT     H2 6098   2.635   2.163   1.576 -0.0338 -1.7447  0.2743
 1963WAT      O 6099   2.227   2.810   4.587  0.6954  0.1623 -0.4684
 1963WAT     H1 6100   2.187   2.741   4.534 -0.6031  1.7479 -1.6479
 1963WAT     H2 6101   2.212   2.782   4.678  1.0567 -1.5460 -0.8996
 1964WAT      O 6102   3.026   2.073   3.089  0.3612 -0.2263  0.0967
 1964WAT     H1 6103   3.049   2.063   2.996  1.1192 -0.5644  0.3068
 1964WAT     H2 6104   2.940   2.114   3.088  0.7613  0.6410 -0.7471
 1965WAT      O 6105   0.371   0.986   3.683  0.5010 -0.1669 -0.0248
 1965WAT     H1 6106   0.433   0.939   3.628  2.3852 -0.1789  1.9694
 1965WAT     H2 6107   0.358   0.928   3.758 -0.0906  0.8671  0.6911
 1966WAT      O 6108   1.424   3.683   0.846  0.3470 -0.1787 -0.1420
 1966WAT     H1 6109   1.335   3.715   0.832  0.5057 -0.1190 -1.1382
 1966WAT     H2 6110   1.480   3.752   0.811  0.7502 -0.6538 -0.4595
 1967WAT      O 6111   2.447   3.219   2.231  0.1824  0.3936  0.5076
 1967WAT     H1 6112   2.482   3.296   2.276 -0.3986  0.3109  1.1260
 1967WAT     H2 6113   2.377   3.187   2.289 -0.0050 -0.2288 -0.0433
 1968WAT      O 6114   0.844   0.568   4.966  0.0426  0.9260 -0.3276
 1968WAT     H1 6115   0.927   0.588   4.922  0.5732  1.9002  1.0531
 1968WAT     H2 6116   0.792   0.523   4.899  1.5286  0.6308 -1.3426
 1969WAT      O 6117   0.164   0.187   2.066 -0.0963  0.3311  0.4974
 1969WAT     H1 6118   0.148   0.271   2.109  1.0451  0.7968  0.0440
 1969WAT     H2 6119   0.258   0.171   2.079  0.5182  0.9408 -2.5748
 1970WAT      O 6120   0.840   3.745   4.610  0.1781 -0.6102 -0.3786
 1970WAT     H1 6121   0.803   3.826   4.576  0.3015 -0.8393 -1.0640
 1970WAT     H2 6122   0.771   3.709   4.666  0.3080  0.2112  0.3423
 1971WAT      O 6123   1.476   5.139   0.414  0.0630 -0.6740 -0.5568
 1971WAT     H1 6124   1.445   5.063   0.464  1.7329 -0.7334  0.4923
 1971WAT     H2 6125   1.399   5.195   0.405 -0.8136 -1.7191  0.1225
 1972WAT      O 6126   4.377   1.741   3.331 -0.1530  0.2870 -0.3426
 1972WAT     H1 6127   4.293   1.785   3.320 -0.0536  0.1312 -1.9568
 1972WAT     H2 6128   4.442   1.811   3.326 -0.1257  0.2628 -0.3293
 1973WAT      O 6129   0.593   3.324   1.645  0.0660  0.2494  0.1062
 1973WAT     H1 6130   0.661   3.366   1.593 -0.1009  0.6529  0.2042
 1973WAT     H2 6131   0.511   3.344   1.598 -0.0072 -0.0296  0.1151
 1974WAT      O 6132   2.781   1.402   1.873  0.1399  0.1256  0.1408
 1974WAT     H1 6133   2.709   1.372   1.929 -0.4116 -0.2536 -0.7543
 1974WAT     H2 6134   2.740   1.466   1.815 -0.0038 -1.6601 -1.8214
 1975WAT      O 6135   3.247   0.552   1.457  0.7786  0.4815 -0.4057
 1975WAT     H1 6136   3.336   0.518   1.458  0.4941 -0.2666  0.2214
 1975WAT     H2 6137   3.209   0.523   1.540 -0.2898  0.1422 -0.9894
 1976WAT      O 6138   2.836   4.831   3.000  0.2513  0.5742  0.3133
 1976WAT     H1 6139   2.929   4.833   3.019  0.1482  0.5174  0.8480
 1976WAT     H2 6140   2.824   4.754   2.943  0.6989  1.2767 -0.7524
 1977WAT      O 6141   4.399   0.092   4.855  0.0710  0.2473 -0.4401
 1977WAT     H1 6142   4.323   0.075   4.910 -2.2227  1.0411 -3.1538
 1977WAT     H2 6143   4.440   0.169   4.895 -0.7478  0.0413  0.8583
 1978WAT      O 6144   1.547   4.073   0.195  0.6090 -0.4065  0.3363
 1978WAT     H1 6145   1.464   4.065   0.149  0.3949 -0.4273  0.7166
 1978WAT     H2 6146   1.612   4.087   0.126  0.4611 -1.5923 -0.0584
 1979WAT      O 6147   1.325   3.213   3.374  0.1217  0.1407 -0.2183
 1979WAT     H1 6148   1.247   3.195   3.321  0.6059 -2.1054 -0.2897
 1979WAT     H2 6149   1.306   3.295   3.419 -1.8643  0.1549 -1.0089
 1980WAT      O 6150   1.746   0.525   4.340  0.4997 -0.2546 -0.1690
 1980WAT     H1 6151   1.793   0.458   4.390  0.8286  0.8120  1.0016
 1980WAT     H2 6152   1.798   0.535   4.260  1.2511 -0.3803  0.2907
 1981WAT      O 6153   1.735   3.622   4.071  0.6280  0.1984  0.3034
 1981WAT     H1 6154   1.640   3.626   4.068  0.6160 -0.1777  0.0246
 1981WAT     H2 6155   1.763   3.664   3.990  0.6929  0.1261  0.2884
 1982WAT      O 6156   0.245   3.502   3.170  0.6227 -0.2679  0.0847
 1982WAT     H1 6157   0.160   3.498   3.215  0.3793 -0.8705 -0.4181
 1982WAT     H2 6158   0.307   3.527   3.239  0.4745 -2.4272  1.0964
 1983WAT      O 6159   3.125   1.495   1.096 -0.7022 -0.1448 -0.9005
 1983WAT     H1 6160   3.051   1.511   1.155  2.5174 -2.0086  4.2837
 1983WAT     H2 6161   3.171   1.578   1.092 -1.7979  0.4254 -2.2926
 1984WAT      O 6162   0.218   0.257   0.908  0.1573 -0.2904 -0.3048
 1984WAT     H1 6163   0.298   0.205   0.898 -0.3070 -1.9839  3.1488
 1984WAT     H2 6164   0.247   0.336   0.953  0.4401  1.2800 -3.0699
 1985WAT      O 6165   3.117   2.936   0.719  0.6482 -0.2916 -0.0229
 1985WAT     H1 6166   3.178   2.994   0.765  1.0372 -0.6397 -0.1008
 1985WAT     H2 6167   3.158   2.850   0.722 -0.1759 -0.6820  0.5652
 1986WAT      O 6168   4.428   1.565   1.404 -0.4517 -0.3388 -0.2105
 1986WAT     H1 6169   4.449   1.657   1.390  1.3180 -0.9252 -1.7122
 1986WAT     H2 6170   4.337   1.557   1.374 -0.0771  0.5825 -1.6799
 1987WAT      O 6171   3.511   1.741   4.968  0.2845 -0.7949  0.1014
 1987WAT     H1 6172   3.416   1.746   4.977  0.2752  2.4389 -0.7287
 1987WAT     H2 6173   3.525   1.708   4.879 -0.1442  1.0448 -0.6826
 1988WAT      O 6174   1.047   2.129   4.921  0.3128  0.1260 -0.2902
 1988WAT     H1 6175   0.971   2.158   4.971  0.8841  2.0088 -0.4441
 1988WAT     H2 6176   1.122   2.161   4.971  0.9465  0.1616 -1.2324
 1989WAT      O 6177   0.679   4.822   1.547 -0.2721 -0.0933  0.3839
 1989WAT     H1 6178   0.759   4.819   1.496 -0.1664 -0.3548  0.5602
 1989WAT     H2 6179   0.659   4.915   1.556  0.7472  0.0397  1.4813
 1990WAT      O 6180   3.045   0.008   2.345  0.0080 -0.5620  0.2769
 1990WAT     H1 6181   3.056   0.037   2.255  1.4694  3.9915  1.6811
 1990WAT     H2 6182   2.950   0.011   2.360 -0.1205  0.3690 -0.6387
 1991WAT      O 6183   3.014   4.753   4.799  0.3562  0.2313  0.3790
 1991WAT     H1 6184   2.994   4.682   4.860 -0.5700 -0.3802 -0.5944
 1991WAT     H2 6185   3.109   4.759   4.799  0.4898 -1.5038 -0.0521
 1992WAT      O 6186   0.370   1.968   3.458 -0.0258  0.7743  0.7597
 1992WAT     H1 6187   0.356   2.030   3.530 -1.9341  0.8868  0.3389
 1992WAT     H2 6188   0.332   1.886   3.489  0.2652  0.4734  0.3441
 1993WAT      O 6189   1.705   1.150   2.899  0.0898 -0.1973  0.5860
 1993WAT     H1 6190   1.744   1.234   2.874  1.2283 -1.1541 -1.1340
 1993WAT     H2 6191   1.632   1.138   2.838 -0.1688 -0.3805  0.9276
 1994WAT      O 6192   2.531   0.513   3.819  0.4934  0.3903  0.3492
 1994WAT     H1 6193   2.581   0.432   3.833  0.6795  0.4615  0.0971
 1994WAT     H2 6194   2.468   0.515   3.891  2.0510  1.2352  1.7476
 1995WAT      O 6195   3.432   1.305   0.836  0.3008 -0.4491 -0.7904
 1995WAT     H1 6196   3.400   1.296   0.926 -0.8355  1.9040 -0.8867
 1995WAT     H2 6197   3.353   1.301   0.783  0.7900 -0.2472 -1.5434
 1996WAT      O 6198   1.977   0.171   4.576  0.1523  0.6160  0.4358
 1996WAT     H1 6199   1.895   0.155   4.530 -0.3555 -0.6893  1.7351
 1996WAT     H2 6200   2.019   0.085   4.582  0.9860  1.0431  0.9612
 1997WAT      O 6201   4.263   2.924   1.002  0.4437 -0.6526  0.0514
 1997WAT     H1 6202   4.329   2.966   1.057 -1.0161  0.5400  0.9584
 1997WAT     H2 6203   4.280   2.958   0.914  1.6146 -1.1011  0.0920
 1998WAT      O 6204   3.639   3.281   0.603  0.3190  0.4690  0.0609
 1998WAT     H1 6205   3.638   3.298   0.508 -0.3622  0.3786  0.0432
 1998WAT     H2 6206   3.660   3.366   0.642  1.1744  0.3787 -0.1893
 1999WAT      O 6207   2.506   0.078   3.811  0.0762  0.1204  0.0681
 1999WAT     H1 6208   2.570   0.017   3.774 -0.5450  0.1232 -1.0583
 1999WAT     H2 6209   2.551   0.162   3.814  0.1308  0.1247 -0.7290
 2000WAT      O 6210   0.056   4.684   1.645 -0.9146 -0.6124  0.1081
 2000WAT     H1 6211   0.070   4.699   1.738  0.6177  0.7025 -0.2827
 2000WAT     H2 6212  -0.033   4.649   1.639 -2.1307  1.8830  1.8175
 2001WAT      O 6213   0.945   1.663   3.266  0.2110  0.4763 -0.3796
 2001WAT     H1 6214   0.881   1.734   3.257 -1.0572 -0.5971 -0.1290
 2001WAT     H2 6215   0.964   1.637   3.176 -1.3843 -0.6203 -0.4377
 2002WAT      O 6216   3.869   4.323   0.930 -0.5408 -0.1168 -0.0490
 2002WAT     H1 6217   3.866   4.237   0.973 -1.0827 -0.6098 -1.0281
 2002WAT     H2 6218   3.918   4.307   0.849 -1.7376  0.2032 -0.8580
 2003WAT      O 6219   1.458   3.099   2.570 -0.4584  0.4955  0.1200
 2003WAT     H1 6220   1.396   3.036   2.533 -0.4971  0.3287  0.4639
 2003WAT     H2 6221   1.498   3.053   2.643  2.1381 -0.4219 -1.7451
 2004WAT      O 6222   4.511   2.690   3.007 -0.1198  0.4546  0.7977
 2004WAT     H1 6223   4.509   2.658   2.917  1.1479  0.5943  0.6938
 2004WAT     H2 6224   4.441   2.755   3.011 -2.0361 -1.4813  0.7230
 2005WAT      O 6225   3.642   4.407   1.558 -0.0825  0.1485 -0.6069
 2005WAT     H1 6226   3.603   4.320   1.556 -1.4897  0.6507  1.4628
 2005WAT     H2 6227   3.574   4.465   1.523  0.4801  0.5436 -1.0759
 2006WAT      O 6228   3.266   0.899   0.701 -0.8596  0.9411 -0.5666
 2006WAT     H1 6229   3.232   0.980   0.739  1.3787  2.1198 -0.9520
 2006WAT     H2 6230   3.354   0.920   0.672 -0.0255 -1.7517 -0.3147
 2007WAT      O 6231   1.366   3.446   1.003  0.1242 -0.1841  0.1490
 2007WAT     H1 6232   1.390   3.495   0.924 -1.8587  0.8329  0.1141
 2007WAT     H2 6233   1.412   3.491   1.074 -0.6306  0.9471 -0.0521
 2008WAT      O 6234   3.786   3.105   1.209  0.0663  0.3442 -0.3709
 2008WAT     H1 6235   3.859   3.045   1.224  1.6918  2.1401 -0.6927
 2008WAT     H2 6236   3.759   3.089   1.119  0.8777  0.4774 -0.6462
 2009WAT      O 6237   0.613   4.687   3.861  0.5931 -0.1540 -0.0324
 2009WAT     H1 6238   0.661   4.685   3.943  0.4088 -2.7111  0.1047
 2009WAT     H2 6239   0.527   4.650   3.882  0.5256 -0.8192 -1.3170
 2010WAT      O 6240   0.440   4.997   5.031 -0.1179  0.1773  0.5743
 2010WAT     H1 6241   0.421   5.050   5.108  2.2391  1.6035  0.2484
 2010WAT     H2 6242   0.526   5.027   5.001 -0.6798 -0.7436 -2.2665
 2011WAT      O 6243   2.773   3.251   0.519 -0.4612 -0.3821  0.0972
 2011WAT     H1 6244   2.845   3.197   0.487  0.0148 -0.0659  0.6106
 2011WAT     H2 6245   2.812   3.337   0.533 -0.9726 -0.1737  0.2521
 2012WAT      O 6246   3.631   1.806   4.302  0.6049  0.3317 -0.5366
 2012WAT     H1 6247   3.701   1.748   4.332  1.2337  1.6134  0.6359
 2012WAT     H2 6248   3.625   1.790   4.208  1.9524 -0.3655 -0.5319
 2013WAT      O 6249   1.315   4.110   0.571 -0.0855 -0.0739  0.2403
 2013WAT     H1 6250   1.249   4.059   0.524  1.1548 -0.7302 -0.8420
 2013WAT     H2 6251   1.398   4.079   0.537  0.7564  3.5108 -1.3788
 2014WAT      O 6252   3.194   4.493   0.365  0.0057  0.4760  0.0950
 2014WAT     H1 6253   3.262   4.560   0.351  0.2970 -0.0779 -1.4067
 2014WAT     H2 6254   3.235   4.412   0.335 -0.9135 -0.0812  0.3377
 2015WAT      O 6255   3.520   0.867   1.236  0.6567  0.2849 -0.5297
 2015WAT     H1 6256   3.425   0.860   1.243  0.8529 -0.8383  1.5979
 2015WAT     H2 6257   3.534   0.943   1.179 -1.4922  0.1036 -1.3890
 2016WAT      O 6258   3.983   0.945   2.964  1.1316 -0.0221  0.6523
 2016WAT     H1 6259   4.033   0.904   3.034 -0.0452  2.1122  2.9010
 2016WAT     H2 6260   4.005   1.038   2.970  0.7718  0.2782 -1.6800
 2017WAT      O 6261   1.877   0.299   5.007  0.0263  0.2568 -0.7347
 2017WAT     H1 6262   1.890   0.365   5.075  0.7655  0.3054 -0.9223
 2017WAT     H2 6263   1.961   0.253   5.002 -0.9890 -1.9392  0.6892
 2018WAT      O 6264   4.297   3.333   2.724 -0.8117  0.1854  0.5022
 2018WAT     H1 6265   4.279   3.339   2.631  1.7499 -3.1718 -0.4298
 2018WAT     H2 6266   4.219   3.294   2.762 -1.3191  0.2030 -0.5061
 2019WAT      O 6267   1.379   2.052   4.805  0.7853  0.4041  0.1807
 2019WAT     H1 6268   1.329   2.129   4.779  1.5843  0.6342 -0.7131
 2019WAT     H2 6269   1.464   2.062   4.762  1.5082 -0.1282  1.4286
 2020WAT      O 6270   1.509   2.751   3.024  0.1453  0.1928  0.7765
 2020WAT     H1 6271   1.494   2.828   3.078  0.3940  0.8382 -0.0613
 2020WAT     H2 6272   1.423   2.711   3.014  0.0497  0.2397  1.3777
 2021WAT      O 6273   0.086   2.044   4.249 -0.5280  0.6228 -0.4061
 2021WAT     H1 6274   0.067   2.066   4.341  0.7185 -0.1214  0.0605
 2021WAT     H2 6275   0.130   2.121   4.214  0.1208  0.4496  0.0062
 2022WAT      O 6276   0.378   1.204   4.010  0.0143 -0.1789  0.0850
 2022WAT     H1 6277   0.406   1.257   4.085  1.4114  0.1331 -0.6147
 2022WAT     H2 6278   0.414   1.117   4.027  0.8176  0.0354 -0.4740
 2023WAT      O 6279   2.092   0.976   0.588 -0.0774  0.1508 -0.2562
 2023WAT     H1 6280   2.148   0.907   0.553 -1.0730  0.0234 -1.6753
 2023WAT     H2 6281   2.070   1.030   0.512 -0.0731  1.5012  0.6695
 2024WAT      O 6282   4.142   2.036   5.041  0.2642 -0.2154 -0.5376
 2024WAT     H1 6283   4.184   2.112   5.080  1.2149 -0.8427 -0.2903
 2024WAT     H2 6284   4.150   2.049   4.947  1.6730 -0.6501 -0.5027
 2025WAT      O 6285   2.004   0.394   4.418 -0.1568 -0.0095 -0.1718
 2025WAT     H1 6286   2.094   0.417   4.391  0.2319  0.7765  1.6320
 2025WAT     H2 6287   2.014   0.315   4.470 -0.4924  0.1481  0.1343
 2026WAT      O 6288   3.979   3.253   3.113  0.3570  0.4138 -0.3766
 2026WAT     H1 6289   3.999   3.188   3.047  0.9775  0.5423 -0.3204
 2026WAT     H2 6290   3.941   3.203   3.186  1.8121 -0.0446  0.1005
 2027WAT      O 6291   2.501   4.764   0.350  0.0352 -0.1767  0.0212
 2027WAT     H1 6292   2.587   4.805   0.352  0.3682 -0.7800 -1.3557
 2027WAT     H2 6293   2.470   4.775   0.260 -0.7975 -1.0351  0.1763
 2028WAT      O 6294   1.300   1.041   5.138 -0.1494 -0.1812  0.5017
 2028WAT     H1 6295   1.332   1.006   5.221  0.9364 -2.0514 -0.6335
 2028WAT     H2 6296   1.353   1.120   5.123 -0.5755  0.3581  1.6963
 2029WAT      O 6297   1.356   3.370   4.235 -0.7547 -0.2209 -0.2883
 2029WAT     H1 6298   1.288   3.319   4.280  0.0434 -0.2123  0.9647
 2029WAT     H2 6299   1.398   3.421   4.304  2.6922 -2.6014 -0.3283
 2030WAT      O 6300   0.702   2.598   3.408 -0.0969  0.0653  0.0472
 2030WAT     H1 6301   0.627   2.563   3.360  0.6689 -2.8529  0.8054
 2030WAT     H2 6302   0.667   2.624   3.493 -0.2998 -1.2126  0.3706
 2031WAT      O 6303   3.652   0.707   3.404 -0.0782 -0.5134  0.0158
 2031WAT     H1 6304   3.669   0.616   3.381  2.7004 -0.1858  0.3993
 2031WAT     H2 6305   3.651   0.708   3.500 -0.9685 -0.2569  0.0122
 2032WAT      O 6306   3.565   4.757   3.920 -0.1016 -0.4372  0.0311
 2032WAT     H1 6307   3.596   4.818   3.987 -1.6036 -0.4482  0.7937
 2032WAT     H2 6308   3.533   4.682   3.969  1.4230 -1.7476 -0.8841
 2033WAT      O 6309   1.282   4.288   4.952 -0.2037  0.0365 -0.9090
 2033WAT     H1 6310   1.198   4.301   4.997  0.8322  3.2519  0.4006
 2033WAT     H2 6311   1.268   4.326   4.865 -0.1662  0.3245 -0.7880
 2034WAT      O 6312   1.185   0.310   1.825  0.3872  0.3654 -0.5689
 2034WAT     H1 6313   1.147   0.269   1.903  1.6298 -0.9300 -0.6082
 2034WAT     H2 6314   1.244   0.378   1.860  0.8621 -0.1418 -0.3653
 2035WAT      O 6315   2.364   2.865   3.412  0.2237  0.1457  0.5268
 2035WAT     H1 6316   2.449   2.823   3.426  0.5940  0.9148  0.6063
 2035WAT     H2 6317   2.382   2.937   3.352 -0.5780 -0.3778 -0.3591
 2036WAT      O 6318   4.359   2.434   1.254  0.0240 -0.4535  0.2713
 2036WAT     H1 6319   4.364   2.527   1.235  2.4578 -0.2182  1.6656
 2036WAT     H2 6320   4.289   2.426   1.320  1.4401  0.7975  2.0040
 2037WAT      O 6321   2.249   0.812   1.626 -0.1510 -0.2883 -0.0090
 2037WAT     H1 6322   2.311   0.856   1.683  0.4989 -0.1711 -0.7929
 2037WAT     H2 6323   2.300   0.785   1.550 -0.6595 -1.8201  0.1460
 2038WAT      O 6324   3.656   4.413   2.569 -0.0670  0.4900  0.5272
 2038WAT     H1 6325   3.583   4.440   2.626  0.1522  1.9747  0.1440
 2038WAT     H2 6326   3.629   4.329   2.533 -1.5846  0.9996  0.4250
 2039WAT      O 6327   3.185   4.288   1.311 -0.0396  0.2148  0.0955
 2039WAT     H1 6328   3.190   4.270   1.217 -0.7722  1.7213 -0.2502
 2039WAT     H2 6329   3.151   4.206   1.348  0.1089 -0.3485 -0.9571
 2040WAT      O 6330   2.185   4.288   2.445  0.6643  0.5430  0.2844
 2040WAT     H1 6331   2.246   4.310   2.516 -0.5196  4.7404  0.2791
 2040WAT     H2 6332   2.227   4.320   2.366  0.6423 -1.3516 -0.5513
 2041WAT      O 6333   2.664   4.092   4.833 -0.4051  0.3020 -0.3209
 2041WAT     H1 6334   2.632   4.182   4.826  0.3764  0.6610  0.4710
 2041WAT     H2 6335   2.590   4.038   4.806 -0.8134  1.1886 -1.0138
 2042WAT      O 6336   1.231   1.345   4.138  0.0010 -0.5732 -0.1770
 2042WAT     H1 6337   1.135   1.349   4.133  0.0271 -1.1747 -1.4636
 2042WAT     H2 6338   1.249   1.256   4.169  0.1505 -0.7450 -0.7413
 2043WAT      O 6339   0.575   0.833   1.313  0.3844 -0.3649 -0.5606
 2043WAT     H1 6340   0.538   0.920   1.330  1.3685 -0.1644  0.6516
 2043WAT     H2 6341   0.618   0.809   1.394  2.3482 -0.8768 -1.7050
 2044WAT      O 6342   1.847   1.775   0.714  0.0392 -0.1705  0.2916
 2044WAT     H1 6343   1.791   1.810   0.783 -0.6415 -1.2961  0.3454
 2044WAT     H2 6344   1.840   1.680   0.723 -2.0823 -0.4683 -2.8528
 2045WAT      O 6345   0.395   4.931   4.772 -0.5705 -0.1155 -0.0901
 2045WAT     H1 6346   0.384   4.952   4.865 -0.7255  0.7298 -0.2847
 2045WAT     H2 6347   0.307   4.911   4.741 -0.3775 -1.4383  0.1689
 2046WAT      O 6348   1.902   3.118   4.433  0.2488  0.1745 -0.2915
 2046WAT     H1 6349   1.883   3.202   4.391  1.5253  0.6231 -0.0047
 2046WAT     H2 6350   1.823   3.065   4.417 -0.3993  1.2693 -0.8441
 2047WAT      O 6351   0.562   1.457   0.628 -0.2895  0.7260 -0.2586
 2047WAT     H1 6352   0.563   1.547   0.597  1.2049  1.4347  1.6560
 2047WAT     H2 6353   0.489   1.454   0.690 -1.4968  0.0722 -1.6473
 2048WAT      O 6354   4.114   0.639   3.544  0.0608  0.1466  0.2698
 2048WAT     H1 6355   4.063   0.646   3.463  1.5829  0.0760 -0.7362
 2048WAT     H2 6356   4.150   0.726   3.558 -1.9956  0.7825  2.1778
 2049WAT      O 6357   1.604   0.508   3.404 -0.2911 -0.3587 -0.2196
 2049WAT     H1 6358   1.652   0.438   3.448  0.0086  0.6869  1.2196
 2049WAT     H2 6359   1.542   0.540   3.470  0.5185  1.6087 -0.3160
 2050WAT      O 6360   2.897   0.889   4.998  0.1512 -0.0606  0.6311
 2050WAT     H1 6361   2.921   0.981   5.005  0.5849  0.0327 -1.4466
 2050WAT     H2 6362   2.802   0.890   4.982  0.1862  0.0400  0.4277
 2051WAT      O 6363   3.027   0.792   4.284  0.2978 -0.4202 -0.2064
 2051WAT     H1 6364   3.075   0.825   4.208  0.3016 -1.7887 -0.8232
 2051WAT     H2 6365   3.084   0.727   4.323  1.0675  1.4759  2.0785
 2052WAT      O 6366   1.370   1.182   4.683  0.0787  0.3433  1.1611
 2052WAT     H1 6367   1.394   1.195   4.592  0.6475 -0.7516  1.1393
 2052WAT     H2 6368   1.280   1.213   4.689  0.0739  0.5207  0.2559
 2053WAT      O 6369   3.507   2.792   4.811  0.7239  0.3377  0.0028
 2053WAT     H1 6370   3.481   2.855   4.744  1.1672 -0.6363 -1.1288
 2053WAT     H2 6371   3.500   2.840   4.893  2.9592  2.4849 -0.9416
 2054WAT      O 6372   4.175   3.993   2.402  0.3922  0.3655  0.4530
 2054WAT     H1 6373   4.130   4.050   2.465 -0.5448  0.3735 -0.2018
 2054WAT     H2 6374   4.128   3.910   2.407  0.5355  0.2555  0.0264
 2055WAT      O 6375   2.062   2.199   3.298 -0.5354 -0.2031  0.4967
 2055WAT     H1 6376   2.139   2.203   3.354 -0.5291 -2.6538  0.7599
 2055WAT     H2 6377   2.079   2.126   3.239 -2.6606 -0.8644  0.6248
 2056WAT      O 6378   0.360   2.362   2.875 -0.1532 -0.1920  0.1601
 2056WAT     H1 6379   0.295   2.428   2.851  1.6994  1.4360 -0.6532
 2056WAT     H2 6380   0.323   2.318   2.951 -2.1948  0.6633 -0.2917
 2057WAT      O 6381   3.478   2.552   4.368  0.3299 -0.2822  0.3851
 2057WAT     H1 6382   3.525   2.634   4.383  0.7647 -0.3113 -0.6965
 2057WAT     H2 6383   3.392   2.566   4.407  0.6580  0.4082  0.8809
 2058WAT      O 6384   2.182   4.491   4.018  0.1289  0.5767  0.4332
 2058WAT     H1 6385   2.109   4.475   4.078 -1.8393  0.1645 -1.9113
 2058WAT     H2 6386   2.149   4.557   3.957 -0.1442 -2.7590 -3.4189
 2059WAT      O 6387   4.252   4.192   0.921  0.3767  0.1973  0.8009
 2059WAT     H1 6388   4.232   4.179   1.013 -2.4091 -1.0638  0.1458
 2059WAT     H2 6389   4.299   4.113   0.895 -0.0429 -0.0776  0.8660
 2060WAT      O 6390   4.387   3.470   4.197 -0.0449  0.0475 -0.0591
 2060WAT     H1 6391   4.399   3.465   4.102 -1.6923 -2.0074 -0.2217
 2060WAT     H2 6392   4.445   3.402   4.231  0.8002  1.0094  0.4703
 2061WAT      O 6393   4.154   3.274   0.746 -0.4657 -0.2601  0.3417
 2061WAT     H1 6394   4.229   3.215   0.756 -0.2006  0.2678  1.6559
 2061WAT     H2 6395   4.192   3.361   0.744 -1.0894  0.0857  2.1245
 2062WAT      O 6396   1.044   2.282   2.467 -0.5082 -0.2799  0.1773
 2062WAT     H1 6397   1.090   2.207   2.428  0.3598 -0.8352  2.1764
 2062WAT     H2 6398   0.951   2.256   2.466 -0.3747 -0.7672 -0.4319
 2063WAT      O 6399   1.684   3.547   4.606  0.0903 -0.0626  0.3563
 2063WAT     H1 6400   1.671   3.637   4.636 -2.2947 -0.2893  0.1615
 2063WAT     H2 6401   1.704   3.499   4.687 -2.7156 -0.0177  1.2109
 2064WAT      O 6402   0.613   4.000   1.347 -0.1499  0.6037  0.0076
 2064WAT     H1 6403   0.612   4.081   1.398  0.0080 -0.1555  1.2360
 2064WAT     H2 6404   0.606   3.930   1.412  2.5373 -0.5063 -0.7563
 2065WAT      O 6405   4.262   3.887   2.997  0.1210  0.2700 -0.0960
 2065WAT     H1 6406   4.239   3.826   3.067 -0.8236  2.4572  1.6523
 2065WAT     H2 6407   4.343   3.852   2.959  1.1547 -0.5983  2.6786
 2066WAT      O 6408   1.392   1.915   3.948 -0.0607 -0.1310 -0.1460
 2066WAT     H1 6409   1.445   1.865   4.010  0.4162 -0.3987 -0.7651
 2066WAT     H2 6410   1.303   1.910   3.984  0.0532 -1.0494  0.0340
 2067WAT      O 6411   0.478   3.756   2.245  0.5468 -0.2622  0.6063
 2067WAT     H1 6412   0.448   3.754   2.154  0.3759 -3.1022  0.6205
 2067WAT     H2 6413   0.571   3.777   2.240  0.4936 -0.2140 -0.2076
 2068WAT      O 6414   1.636   4.095   2.535  0.1876  0.5213 -0.4740
 2068WAT     H1 6415   1.690   4.171   2.514  0.5638  0.2161 -0.6430
 2068WAT     H2 6416   1.646   4.084   2.629 -1.1031  1.5957 -0.1970
 2069WAT      O 6417   2.969   2.026   4.355  0.0463 -0.1905  0.3050
 2069WAT     H1 6418   2.904   2.094   4.336  0.1970  0.3627  1.6837
 2069WAT     H2 6419   3.032   2.033   4.283 -1.0998 -0.3745 -0.7609
 2070WAT      O 6420   0.038   3.687   3.629 -0.6911  0.2769 -0.2805
 2070WAT     H1 6421  -0.039   3.693   3.573  0.9105  0.9158 -2.5823
 2070WAT     H2 6422   0.050   3.594   3.644 -1.3101  0.1059 -0.8093
 2071WAT      O 6423   4.132   1.683   4.389  0.2131  0.4437 -0.1128
 2071WAT     H1 6424   4.200   1.747   4.410  1.1011 -0.9916  1.7141
 2071WAT     H2 6425   4.051   1.721   4.422  0.4522  1.2880 -0.4723
 2072WAT      O 6426   3.725   4.513   5.189  0.0590  0.1718 -0.2230
 2072WAT     H1 6427   3.673   4.463   5.252 -0.4282  0.6077 -0.2781
 2072WAT     H2 6428   3.806   4.534   5.237  0.1879 -0.4968 -0.1354
 2073WAT      O 6429   0.670   2.009   0.981 -0.2376  0.0315 -0.2569
 2073WAT     H1 6430   0.714   2.093   0.975 -0.3202  0.2629  1.6923
 2073WAT     H2 6431   0.578   2.030   0.991 -0.3473 -0.3201 -0.4848
 2074WAT      O 6432   3.871   0.392   4.695  0.1117 -0.2564 -0.6767
 2074WAT     H1 6433   3.964   0.377   4.710  0.0003 -0.2724  0.0354
 2074WAT     H2 6434   3.846   0.458   4.761 -0.4697 -0.5768 -0.5692
 2075WAT      O 6435   4.150   4.603   2.485  0.6252 -0.5797  0.4118
 2075WAT     H1 6436   4.116   4.538   2.424  0.4404  1.1140 -1.4099
 2075WAT     H2 6437   4.235   4.627   2.449  0.2920  0.8187  0.4746
 2076WAT      O 6438   4.040   2.195   3.428 -0.2152 -0.1294  0.1671
 2076WAT     H1 6439   4.068   2.120   3.481 -0.1792 -0.5609 -0.4472
 2076WAT     H2 6440   4.118   2.219   3.378 -0.6828 -0.7561 -0.8774
 2077WAT      O 6441   1.478   3.748   4.241  0.7914 -0.7603  0.6854
 2077WAT     H1 6442   1.450   3.680   4.302 -1.7660  0.7451  1.3505
 2077WAT     H2 6443   1.444   3.718   4.156 -2.9985  0.8847  1.4318
 2078WAT      O 6444   1.529   1.617   1.272 -0.2269 -0.7433 -0.6230
 2078WAT     H1 6445   1.455   1.607   1.212 -0.2302  0.7126 -0.9108
 2078WAT     H2 6446   1.522   1.708   1.302  0.8394 -0.9097  0.1549
 2079WAT      O 6447   3.993   1.096   2.715  0.3156 -0.0737  0.1926
 2079WAT     H1 6448   4.023   1.061   2.631  0.6522  0.1902  0.2006
 2079WAT     H2 6449   3.909   1.053   2.730  0.9312 -1.2298  0.4350
 2080WAT      O 6450   2.197   0.258   4.968  0.4522  0.0040  0.1447
 2080WAT     H1 6451   2.291   0.275   4.967  0.6799 -1.1214  1.1719
 2080WAT     H2 6452   2.168   0.282   4.880  1.4898  1.4156  0.1499
 2081WAT      O 6453   0.485   0.112   2.953  0.0200 -0.3160  0.0003
 2081WAT     H1 6454   0.525   0.064   3.025  3.5535 -1.1613 -2.2916
 2081WAT     H2 6455   0.432   0.048   2.907  1.0104 -0.8700 -0.3991
 2082WAT      O 6456   1.161   0.768   3.416  0.3340  0.7292 -0.2252
 2082WAT     H1 6457   1.087   0.823   3.440 -0.7122 -0.3522 -0.8235
 2082WAT     H2 6458   1.129   0.717   3.341  0.7116 -1.6849  1.1493
 2083WAT      O 6459   3.845   3.680   4.570  0.0022  0.1016  0.2101
 2083WAT     H1 6460   3.770   3.722   4.613  0.4223 -0.9971  2.1467
 2083WAT     H2 6461   3.921   3.711   4.619  0.4485 -1.6790  0.7523
 2084WAT      O 6462   0.203   4.023   1.191 -0.5015 -0.1180  0.6310
 2084WAT     H1 6463   0.258   3.987   1.121  0.3345 -1.3427  1.8506
 2084WAT     H2 6464   0.150   3.948   1.220 -2.0367  0.7757  0.2378
 2085WAT      O 6465   4.067   4.416   2.662  0.1584 -0.0858  0.3559
 2085WAT     H1 6466   3.983   4.461   2.677  0.5801  0.3962  1.3646
 2085WAT     H2 6467   4.113   4.473   2.601  0.1606  0.1794  0.6025
 2086WAT      O 6468   0.395   2.687   2.614 -0.1442  0.2297  0.1580
 2086WAT     H1 6469   0.338   2.668   2.689 -1.1704 -1.0079 -0.8953
 2086WAT     H2 6470   0.400   2.783   2.611 -1.6435  0.3400  0.6500
 2087WAT      O 6471   0.415   1.633   4.717 -0.2398 -0.4680  0.0696
 2087WAT     H1 6472   0.495   1.603   4.674 -0.4571 -0.1575 -0.5733
 2087WAT     H2 6473   0.363   1.554   4.729 -0.7392 -0.4066 -1.4648
 2088WAT      O 6474   0.701   0.676   0.626 -0.6162  0.9412 -0.7672
 2088WAT     H1 6475   0.650   0.623   0.686 -0.1887  0.5478 -0.7466
 2088WAT     H2 6476   0.661   0.763   0.631 -2.3784  0.2592 -2.0497
 2089WAT      O 6477   3.165   4.239   4.399  0.4156  0.0258  0.1444
 2089WAT     H1 6478   3.259   4.260   4.402  0.4868 -0.0988 -0.9095
 2089WAT     H2 6479   3.123   4.311   4.446  1.0010  0.2972  0.2640
 2090WAT      O 6480   0.742   5.136   0.946  0.0917  0.7813 -0.2806
 2090WAT     H1 6481   0.764   5.092   0.864  0.9666  1.9161 -0.6850
 2090WAT     H2 6482   0.698   5.069   0.998 -1.1175  0.2074 -1.9240
 2091WAT      O 6483   1.310   4.720   4.217 -0.6118  0.0215 -0.7739
 2091WAT     H1 6484   1.309   4.807   4.178  0.1255  0.2780 -0.2344
 2091WAT     H2 6485   1.280   4.662   4.146 -1.9510  0.8005 -0.8740
 2092WAT      O 6486   4.363   2.754   0.279  0.3869  1.0201  0.8331
 2092WAT     H1 6487   4.416   2.689   0.325  2.9073  1.8176 -0.7356
 2092WAT     H2 6488   4.381   2.836   0.325  0.1487  1.2205  0.5751
 2093WAT      O 6489   1.136   3.969   3.266  0.5105  0.7008 -0.0359
 2093WAT     H1 6490   1.193   3.896   3.241 -0.7198 -0.1697 -0.4045
 2093WAT     H2 6491   1.063   3.928   3.313  0.6667  1.8889  1.3438
 2094WAT      O 6492   3.569   1.303   4.486  0.2449 -0.0676  0.5023
 2094WAT     H1 6493   3.508   1.377   4.482  0.4938  0.1932  1.2866
 2094WAT     H2 6494   3.537   1.250   4.559  0.5993 -0.2541  0.5241
 2095WAT      O 6495   0.288   4.900   2.124  0.5063  0.2623  0.7406
 2095WAT     H1 6496   0.356   4.947   2.171 -1.3927  2.9255  1.1058
 2095WAT     H2 6497   0.290   4.937   2.036 -0.7798  0.8386  0.9226
 2096WAT      O 6498   2.587   1.037   3.151 -0.2584 -0.0895  0.2060
 2096WAT     H1 6499   2.504   1.040   3.103 -1.2538  4.0116  1.7353
 2096WAT     H2 6500   2.582   0.958   3.204 -3.1907  0.0099  0.2070
 2097WAT      O 6501   1.327   1.022   0.462  0.3035  0.4509 -0.5822
 2097WAT     H1 6502   1.359   0.982   0.381 -0.6449  1.9348 -1.7538
 2097WAT     H2 6503   1.392   1.089   0.483  0.8754 -0.3513  0.2665
 2098WAT      O 6504   2.221   3.170   0.031 -0.2513 -0.7716  0.2617
 2098WAT     H1 6505   2.183   3.247   0.072 -1.7619 -1.3684  0.0309
 2098WAT     H2 6506   2.276   3.132   0.099  2.3301  1.6494 -0.2702
 2099WAT      O 6507   1.557   0.091   4.807 -0.6316  0.1156  0.2515
 2099WAT     H1 6508   1.593   0.006   4.781 -0.6651 -0.2434  1.3549
 2099WAT     H2 6509   1.463   0.081   4.799 -0.6909 -0.2686  1.2728
 2100WAT      O 6510   2.669   3.564   1.255 -0.2087 -0.3201 -0.6688
 2100WAT     H1 6511   2.684   3.560   1.349 -1.0373 -0.6237 -0.5416
 2100WAT     H2 6512   2.748   3.526   1.216 -0.0710 -0.6461 -0.0815
 2101WAT      O 6513   2.866   2.503   0.171 -0.3580 -0.0949  0.2966
 2101WAT     H1 6514   2.941   2.556   0.143  0.4244 -1.4316 -0.2573
 2101WAT     H2 6515   2.791   2.563   0.164  0.4949  0.9679 -0.1771
 2102WAT      O 6516   1.151   4.587   0.228  0.1651  0.1379 -0.3069
 2102WAT     H1 6517   1.122   4.674   0.199 -3.1369 -0.1983  1.4594
 2102WAT     H2 6518   1.138   4.588   0.323 -1.7536 -2.7472 -0.3958
 2103WAT      O 6519   0.418   4.335   4.755 -0.6819  0.2422 -0.5210
 2103WAT     H1 6520   0.337   4.385   4.766  0.3353  2.2049 -1.3959
 2103WAT     H2 6521   0.488   4.400   4.764  0.8647 -1.4565  0.6796
 2104WAT      O 6522   2.326   3.108   4.250  0.0422 -0.0095  0.4398
 2104WAT     H1 6523   2.410   3.095   4.207  0.2867  0.7901  0.6640
 2104WAT     H2 6524   2.348   3.130   4.340 -0.0653  5.1525 -0.5033
 2105WAT      O 6525   2.921   1.908   1.389  0.5386 -0.1610  0.5558
 2105WAT     H1 6526   2.889   1.936   1.303  2.9905 -1.6612 -0.9900
 2105WAT     H2 6527   2.845   1.872   1.433 -1.0653  1.8225 -0.4374
 2106WAT      O 6528   2.286   0.566   5.065  0.0451  0.0545 -0.3129
 2106WAT     H1 6529   2.361   0.601   5.113 -0.9787  0.8867  0.7386
 2106WAT     H2 6530   2.323   0.499   5.007  1.4666 -0.2675  0.9142
 2107WAT      O 6531   2.292   4.955   0.084  0.2244  0.4632 -0.1519
 2107WAT     H1 6532   2.300   4.861   0.096 -0.6432  0.5186  1.0114
 2107WAT     H2 6533   2.239   4.965   0.005 -0.0300 -0.0291 -0.0471
 2108WAT      O 6534   3.222   0.583   0.777  0.2001  0.6901 -0.1202
 2108WAT     H1 6535   3.246   0.637   0.852 -1.7932  0.1645  0.9761
 2108WAT     H2 6536   3.219   0.494   0.812  1.3649  0.1285 -1.3838
 2109WAT      O 6537   0.065   2.406   1.765 -0.1393  0.1940  0.0770
 2109WAT     H1 6538   0.118   2.341   1.812  1.6782  0.3568 -1.6337
 2109WAT     H2 6539   0.004   2.353   1.714 -0.1498 -0.0782  0.3626
 2110WAT      O 6540   0.851   2.787   2.876 -0.1487  0.2360 -0.1283
 2110WAT     H1 6541   0.892   2.704   2.857  2.1858  1.5264 -1.1048
 2110WAT     H2 6542   0.776   2.792   2.816  1.1610 -0.1299 -1.8698
 2111WAT      O 6543   3.672   1.234   5.209  0.2674 -0.2456 -0.0838
 2111WAT     H1 6544   3.763   1.225   5.238  0.4840  1.9748  0.0549
 2111WAT     H2 6545   3.664   1.325   5.183 -1.9723 -0.3743 -0.0048
 2112WAT      O 6546   3.483   2.368   0.227 -0.2658 -0.0343  0.4782
 2112WAT     H1 6547   3.430   2.412   0.161  0.1926 -0.1881 -0.0016
 2112WAT     H2 6548   3.539   2.308   0.177 -0.5512 -0.8154  1.0788
 2113WAT      O 6549   3.635   4.559   1.801  0.1340  0.6726 -0.2980
 2113WAT     H1 6550   3.623   4.530   1.710  0.4649  0.1905 -0.1902
 2113WAT     H2 6551   3.708   4.621   1.796  1.8232 -1.1905 -0.0243
 2114WAT      O 6552   4.222   2.006   1.592  0.3106 -0.1400 -0.1891
 2114WAT     H1 6553   4.163   1.963   1.530  0.4278 -0.5839  0.0062
 2114WAT     H2 6554   4.195   1.974   1.678 -1.6072  2.4559  0.3130
 2115WAT      O 6555   4.216   2.628   1.570 -0.0818 -0.6759 -0.3157
 2115WAT     H1 6556   4.169   2.664   1.495  0.2577 -2.0139 -1.2015
 2115WAT     H2 6557   4.152   2.571   1.613  0.2144 -1.1827 -0.5418
 2116WAT      O 6558   3.210   0.135   2.555  0.1911  0.0904 -0.0987
 2116WAT     H1 6559   3.165   0.069   2.503  1.8652  0.1434 -1.7210
 2116WAT     H2 6560   3.282   0.166   2.499  2.2913 -0.0321  2.3009
 2117WAT      O 6561   3.905   3.480   2.717  0.2810 -0.1563  0.2714
 2117WAT     H1 6562   3.843   3.543   2.753  0.0904 -0.3461  0.2778
 2117WAT     H2 6563   3.878   3.396   2.754 -0.2052 -0.4280 -0.6653
 2118WAT      O 6564   0.012   4.681   0.424 -0.2159 -1.2021  0.0389
 2118WAT     H1 6565   0.024   4.598   0.469  0.7371 -1.0768  0.0334
 2118WAT     H2 6566   0.005   4.746   0.494 -2.1826 -1.3955  0.0939
 2119WAT      O 6567   1.994   3.883   3.710  0.1509  0.3926 -0.9262
 2119WAT     H1 6568   2.018   3.973   3.733  1.7780 -0.6088  1.7013
 2119WAT     H2 6569   2.054   3.828   3.761  0.2003 -2.2208 -3.5337
 2120WAT      O 6570   3.138   2.607   0.678  0.1402 -0.4058  0.3542
 2120WAT     H1 6571   3.167   2.633   0.766 -0.1594 -0.4250  0.4620
 2120WAT     H2 6572   3.179   2.522   0.663 -0.3902 -0.7463  0.7797
 2121WAT      O 6573   2.120   2.476   3.135  0.0949  0.3183  0.3922
 2121WAT     H1 6574   2.161   2.560   3.113  2.5878 -0.9994 -0.4049
 2121WAT     H2 6575   2.169   2.444   3.211 -0.0858 -0.8812  0.0336
 2122WAT      O 6576   4.092   4.569   2.036  0.1177 -0.6780  0.1820
 2122WAT     H1 6577   4.112   4.656   2.070 -2.0172 -0.8935  2.2929
 2122WAT     H2 6578   4.082   4.515   2.115 -1.3728 -2.1545 -0.9515
 2123WAT      O 6579   2.904   2.277   0.654  0.2332 -0.4672  0.0711
 2123WAT     H1 6580   2.870   2.325   0.578 -1.0628  0.1759  1.0124
 2123WAT     H2 6581   2.915   2.187   0.624 -0.6928 -0.3148 -0.7496
 2124WAT      O 6582   2.202   4.743   3.033  1.0495 -0.3251  0.3942
 2124WAT     H1 6583   2.295   4.729   3.051  1.3352 -0.7489 -1.2443
 2124WAT     H2 6584   2.185   4.833   3.060  1.6278 -0.6277  1.8397
 2125WAT      O 6585   4.280   4.705   0.687  0.3021  0.2574  0.8068
 2125WAT     H1 6586   4.294   4.615   0.715  0.0841 -0.4984 -1.2833
 2125WAT     H2 6587   4.354   4.754   0.723  1.4446 -1.1357  0.4387
 2126WAT      O 6588   2.605   3.098   4.178  0.1285  0.2585 -0.1440
 2126WAT     H1 6589   2.652   3.019   4.150 -0.4871  0.2408 -1.1793
 2126WAT     H2 6590   2.666   3.141   4.238  1.1891 -0.1170 -0.9109
 2127WAT      O 6591   2.895   2.337   3.985  0.3960  0.1795 -0.8664
 2127WAT     H1 6592   2.953   2.275   3.941 -0.1297  0.6589 -2.3004
 2127WAT     H2 6593   2.930   2.423   3.960 -0.4949  0.4636 -1.1686
 2128WAT      O 6594   3.074   2.425   3.533 -0.1637  0.1829  0.3280
 2128WAT     H1 6595   3.158   2.386   3.511 -0.7158 -1.9468  1.7515
 2128WAT     H2 6596   3.092   2.479   3.610 -0.1884 -0.8415  1.0759
 2129WAT      O 6597   2.000   2.619   2.598  0.5603 -0.1459 -0.2312
 2129WAT     H1 6598   2.037   2.676   2.665  0.6285  0.8408 -1.1036
 2129WAT     H2 6599   2.028   2.531   2.624  1.3025  0.3130  0.5608
 2130WAT      O 6600   2.277   2.213   3.564  0.0158  0.8280 -0.0995
 2130WAT     H1 6601   2.356   2.187   3.517  0.1823  0.3049  0.4505
 2130WAT     H2 6602   2.307   2.276   3.629  0.1838 -0.2236  0.8714
 2131WAT      O 6603   2.776   0.146   2.315  0.5558  0.5100 -0.3522
 2131WAT     H1 6604   2.704   0.209   2.307  1.1080  1.0387 -1.4926
 2131WAT     H2 6605   2.831   0.181   2.385  0.4921  0.9334 -0.5079
 2132WAT      O 6606   1.871   2.843   4.068 -0.8965 -0.0822  0.0390
 2132WAT     H1 6607   1.870   2.813   4.159  0.6974 -2.3589 -0.6179
 2132WAT     H2 6608   1.936   2.914   4.066  1.0188 -1.7620  0.2481
 2133WAT      O 6609   3.627   4.159   3.691  0.3548  0.1031  0.1233
 2133WAT     H1 6610   3.626   4.063   3.682 -2.5821 -0.2732  2.5782
 2133WAT     H2 6611   3.537   4.181   3.714  0.4249  3.7932 -2.3288
 2134WAT      O 6612   0.284   4.155   0.422  0.4537 -0.8083  0.1933
 2134WAT     H1 6613   0.340   4.113   0.488  1.0301 -0.1151  0.1576
 2134WAT     H2 6614   0.198   4.117   0.437  0.1537  0.5329  2.5115
 2135WAT      O 6615   2.055   4.837   0.517  0.2398  0.6270 -0.5363
 2135WAT     H1 6616   2.000   4.913   0.538  1.7385  1.4988  0.4053
 2135WAT     H2 6617   2.107   4.823   0.597  1.8015  0.2048 -1.5919
 2136WAT      O 6618   0.779   3.864   2.272  0.2199  0.7401 -0.4242
 2136WAT     H1 6619   0.850   3.872   2.208  0.4931  0.4753 -0.1590
 2136WAT     H2 6620   0.824   3.844   2.355 -0.2345 -0.5770 -0.4860
 2137WAT      O 6621   2.086   1.404   0.293  0.4531 -0.1954  0.4176
 2137WAT     H1 6622   2.013   1.448   0.249 -0.2045  0.3781  2.0163
 2137WAT     H2 6623   2.163   1.452   0.263 -0.0536  0.7134  0.5025
 2138WAT      O 6624   2.193   4.121   3.711  0.0305 -0.4465  0.1061
 2138WAT     H1 6625   2.165   4.135   3.802 -0.4288  0.0191 -0.1021
 2138WAT     H2 6626   2.239   4.037   3.713 -1.2688 -1.1813  0.4907
 2139WAT      O 6627   3.796   5.134   2.167  0.1924  0.5666 -0.2412
 2139WAT     H1 6628   3.744   5.086   2.103  0.5815 -1.1425  0.6759
 2139WAT     H2 6629   3.752   5.118   2.251  1.1647  0.5820  0.2838
 2140WAT      O 6630   0.171   1.236   2.245  0.4636 -0.5095 -0.1339
 2140WAT     H1 6631   0.098   1.240   2.307  0.1793  0.5626 -0.5139
 2140WAT     H2 6632   0.232   1.303   2.277  1.1257 -1.1489 -0.0278
 2141WAT      O 6633   0.885   4.690   0.390 -0.6574 -0.3810 -0.0213
 2141WAT     H1 6634   0.926   4.721   0.310  0.1582  0.8978  0.8452
 2141WAT     H2 6635   0.956   4.648   0.439 -1.1384 -1.1328  0.0380
 2142WAT      O 6636   0.657   4.753   0.563  0.6161 -0.1878  0.0933
 2142WAT     H1 6637   0.707   4.749   0.481  0.1950 -0.3400 -0.1574
 2142WAT     H2 6638   0.639   4.662   0.586 -2.3831 -0.1576 -1.5865
 2143WAT      O 6639   2.780   0.837   4.119 -0.0767  0.3688 -0.4567
 2143WAT     H1 6640   2.856   0.813   4.172 -0.3909  0.0805 -0.1331
 2143WAT     H2 6641   2.753   0.756   4.077 -1.4022  0.0273  0.9743
 2144WAT      O 6642   3.848   4.692   3.419 -0.1750  0.3664 -0.0007
 2144WAT     H1 6643   3.823   4.741   3.341  1.9020  1.1502 -0.2263
 2144WAT     H2 6644   3.915   4.746   3.461 -0.0647 -0.8224  1.4418
 2145WAT      O 6645   0.970   0.809   2.761 -0.3575  0.3998  0.1186
 2145WAT     H1 6646   0.926   0.823   2.677 -1.9425 -1.0097  0.6456
 2145WAT     H2 6647   1.062   0.802   2.739 -0.6753  0.6734 -1.4253
 2146WAT      O 6648   4.330   0.320   2.854  0.4225  0.3995 -0.1618
 2146WAT     H1 6649   4.348   0.414   2.844  2.0591  0.2684  1.0802
 2146WAT     H2 6650   4.392   0.277   2.794  3.0616  0.0138  2.6147
 2147WAT      O 6651   2.165   1.589   1.683  0.2161 -0.2719  0.7737
 2147WAT     H1 6652   2.153   1.634   1.766  0.1697 -0.2028  0.7306
 2147WAT     H2 6653   2.255   1.557   1.685 -0.3073 -1.7364  1.5535
 2148WAT      O 6654   3.270   1.300   3.604 -0.8106 -0.0079  0.2010
 2148WAT     H1 6655   3.289   1.380   3.557  2.1758 -0.2342  0.7968
 2148WAT     H2 6656   3.179   1.308   3.631 -0.7154  2.9710 -0.1178
 2149WAT      O 6657   4.037   3.776   4.723 -0.4996 -0.2902  0.3289
 2149WAT     H1 6658   4.029   3.865   4.689 -1.2923 -0.7049 -0.5967
 2149WAT     H2 6659   4.107   3.736   4.672 -0.9062 -0.5506 -0.0270
 2150WAT      O 6660   0.092   3.985   1.598 -0.4991  0.0534  0.0396
 2150WAT     H1 6661   0.007   4.027   1.610 -0.8429  0.6267 -3.3404
 2150WAT     H2 6662   0.144   4.050   1.551  0.6653 -1.4568 -0.8601
 2151WAT      O 6663   4.170   1.825   1.381 -0.0448 -0.3514  0.7701
 2151WAT     H1 6664   4.148   1.759   1.446  0.0675 -0.2062  0.9572
 2151WAT     H2 6665   4.109   1.810   1.309  1.5245 -2.2072 -0.2489
 2152WAT      O 6666   1.802   1.806   2.452 -0.3547 -0.1386 -0.0539
 2152WAT     H1 6667   1.839   1.869   2.391  2.2460 -0.5484  0.9852
 2152WAT     H2 6668   1.724   1.850   2.487 -0.2011  1.3079 -1.4138
 2153WAT      O 6669   2.613   3.334   0.265  0.4486  0.3838  0.7152
 2153WAT     H1 6670   2.662   3.286   0.332 -0.3837  1.0385  1.8398
 2153WAT     H2 6671   2.615   3.278   0.188  0.1375 -1.1124  1.7573
 2154WAT      O 6672   0.951   2.252   3.447  0.0484  0.1572  0.3110
 2154WAT     H1 6673   1.005   2.181   3.481  0.6308  0.4037 -0.0742
 2154WAT     H2 6674   0.965   2.324   3.509  3.5064  1.6348 -1.9250
 2155WAT      O 6675   2.112   4.287   1.343 -0.5976  0.5131  0.3575
 2155WAT     H1 6676   2.171   4.360   1.363  1.5331 -0.6579 -1.2212
 2155WAT     H2 6677   2.116   4.278   1.248 -1.8634 -0.8426  0.3847
 2156WAT      O 6678   1.898   2.768   0.052  0.3889 -0.1216  0.4128
 2156WAT     H1 6679   1.943   2.828   0.112 -1.6908  1.9925  0.0087
 2156WAT     H2 6680   1.863   2.700   0.109  2.1875 -0.6380  0.9784
 2157WAT      O 6681   1.975   1.278   1.670  0.1139 -0.2953  0.0055
 2157WAT     H1 6682   1.948   1.222   1.743  0.4107 -1.1053 -0.4931
 2157WAT     H2 6683   1.938   1.364   1.691 -1.9829 -1.1067 -0.1301
 2158WAT      O 6684   4.277   3.800   3.816  0.6256 -0.1373  0.7386
 2158WAT     H1 6685   4.301   3.816   3.725 -1.4750  1.2237  0.3513
 2158WAT     H2 6686   4.287   3.706   3.828  0.8442 -0.3524 -0.9351
 2159WAT      O 6687   2.610   1.696   4.625  1.0202 -0.1420 -0.3802
 2159WAT     H1 6688   2.536   1.643   4.597 -0.1805  1.5287 -0.5485
 2159WAT     H2 6689   2.579   1.741   4.704  2.4086 -0.5673  0.4398
 2160WAT      O 6690   1.517   4.719   0.485 -0.4074  0.5243 -0.0639
 2160WAT     H1 6691   1.599   4.709   0.534 -0.1794 -1.3964 -0.7270
 2160WAT     H2 6692   1.544   4.745   0.397 -0.5498  0.5613 -0.0975
 2161WAT      O 6693   0.909   2.820   3.952 -0.0636 -0.2557 -0.2765
 2161WAT     H1 6694   0.991   2.770   3.946  0.3803  0.3359  0.6372
 2161WAT     H2 6695   0.937   2.911   3.959 -0.8439  0.0560 -1.0373
 2162WAT      O 6696   0.347   4.402   5.149  0.3292 -0.1252  0.1044
 2162WAT     H1 6697   0.349   4.485   5.100  0.4827  0.9899  1.9177
 2162WAT     H2 6698   0.405   4.417   5.224 -1.4410 -1.0507  1.7307
 2163WAT      O 6699   3.575   3.123   5.192  0.2229 -0.5499 -0.0420
 2163WAT     H1 6700   3.507   3.167   5.243  0.3640  0.1852 -0.4778
 2163WAT     H2 6701   3.632   3.083   5.258  1.0109  1.2920  0.4571
 2164WAT      O 6702   2.945   5.065   3.469  0.4550  0.0080  0.0882
 2164WAT     H1 6703   2.920   5.034   3.383  1.0048 -1.3577  0.3978
 2164WAT     H2 6704   3.041   5.065   3.468  0.4658  0.3816  0.5677
 2165WAT      O 6705   2.167   1.773   4.011 -0.3616  0.4192 -0.4978
 2165WAT     H1 6706   2.137   1.744   3.925  0.5356 -0.9067 -0.4007
 2165WAT     H2 6707   2.211   1.857   3.994  1.7541 -0.8447 -1.7633
 2166WAT      O 6708   0.309   0.852   0.978  0.0371 -0.4609 -0.1142
 2166WAT     H1 6709   0.362   0.919   1.020 -2.3107  0.5460  1.4538
 2166WAT     H2 6710   0.351   0.769   1.001  0.9331  0.2898  0.9996
 2167WAT      O 6711   0.355   4.621   2.426  0.0211 -0.3971 -0.7959
 2167WAT     H1 6712   0.333   4.600   2.517  0.6316  0.7469 -0.3659
 2167WAT     H2 6713   0.440   4.578   2.411  0.5399  0.4703 -0.4019
 2168WAT      O 6714   3.809   3.851   2.517  0.1056  0.4460 -0.0894
 2168WAT     H1 6715   3.718   3.860   2.488  0.1682 -1.0158 -0.8044
 2168WAT     H2 6716   3.852   3.929   2.482 -0.5218  0.3164 -1.2207
 2169WAT      O 6717   1.489   1.160   0.172  0.5278 -0.4892  0.7504
 2169WAT     H1 6718   1.505   1.093   0.239  2.4115 -2.3078 -1.3077
 2169WAT     H2 6719   1.576   1.196   0.154  0.2124 -0.6398 -1.2310
 2170WAT      O 6720   2.848   4.424   1.997  0.0590  0.1303  0.0694
 2170WAT     H1 6721   2.854   4.363   1.923 -0.6436  1.7303 -1.3724
 2170WAT     H2 6722   2.918   4.487   1.981 -0.8386  1.1617  0.1280
 2171WAT      O 6723   2.498   4.320   0.635  0.1295  0.4076  0.2460
 2171WAT     H1 6724   2.418   4.287   0.675 -0.2155  1.3072  0.3173
 2171WAT     H2 6725   2.472   4.401   0.592  0.9101  0.4714 -0.1251
 2172WAT      O 6726   2.655   0.501   0.122 -0.0855 -0.7415 -0.4149
 2172WAT     H1 6727   2.705   0.472   0.046  0.5026 -1.0982  0.0980
 2172WAT     H2 6728   2.687   0.589   0.140  1.4200 -1.4840  0.7680
 2173WAT      O 6729   1.476   4.538   4.853  0.4219  0.1808  0.1350
 2173WAT     H1 6730   1.405   4.501   4.801 -0.0142  0.7374  0.3221
 2173WAT     H2 6731   1.553   4.486   4.829 -0.1784 -0.8771  0.4350
 2174WAT      O 6732   2.967   3.841   5.065  0.2541  0.4424  0.0173
 2174WAT     H1 6733   3.016   3.849   4.983 -1.1147  1.8392 -0.7218
 2174WAT     H2 6734   2.882   3.806   5.038 -0.9702  2.8418  0.4789
 2175WAT      O 6735   3.082   2.155   3.959 -0.0952 -0.1958  0.8169
 2175WAT     H1 6736   3.098   2.151   3.865 -1.1795  0.7710  0.5579
 2175WAT     H2 6737   3.064   2.064   3.984  0.4933 -0.5036  0.1509
 2176WAT      O 6738   2.280   0.984   2.173  0.0376 -0.1939 -0.0416
 2176WAT     H1 6739   2.254   0.915   2.111  1.6945 -0.5232 -0.4242
 2176WAT     H2 6740   2.199   1.029   2.194 -0.6487 -0.3175 -2.1653
 2177WAT      O 6741   2.581   0.492   4.379 -0.5486  0.0246  0.0921
 2177WAT     H1 6742   2.619   0.439   4.450  2.3567  1.5101 -0.2130
 2177WAT     H2 6743   2.574   0.580   4.416  2.8180  1.3015 -1.8064
 2178WAT      O 6744   1.080   0.081   0.732  0.0512 -0.4487 -0.2973
 2178WAT     H1 6745   1.044   0.135   0.662  1.0852 -0.4415 -0.8271
 2178WAT     H2 6746   1.104  -0.002   0.690  1.1665 -0.2534 -0.0734
 2179WAT      O 6747   4.283   4.958   2.681  0.0307  0.1217 -0.0680
 2179WAT     H1 6748   4.237   4.886   2.638  0.3300 -0.6950  0.9361
 2179WAT     H2 6749   4.370   4.959   2.639  0.8283 -1.6026  1.4335
 2180WAT      O 6750   2.128   0.461   0.789  0.1638  0.3449  0.2803
 2180WAT     H1 6751   2.208   0.413   0.765 -1.7927 -3.1290  0.0865
 2180WAT     H2 6752   2.057   0.410   0.751 -2.2714  2.7563  1.2572
 2181WAT      O 6753   3.504   2.605   3.871  0.7260  0.1366  0.4518
 2181WAT     H1 6754   3.503   2.560   3.955  4.3798 -0.6716  0.2393
 2181WAT     H2 6755   3.535   2.693   3.891  1.4518 -0.0092  0.0131
 2182WAT      O 6756   1.595   1.465   1.975  0.1934  0.2490 -0.7713
 2182WAT     H1 6757   1.543   1.426   1.905 -0.6543 -2.4690  1.2252
 2182WAT     H2 6758   1.686   1.443   1.952 -0.1703 -1.8564 -0.4145
 2183WAT      O 6759   4.424   1.411   4.273 -0.0107  0.3584 -0.2259
 2183WAT     H1 6760   4.433   1.399   4.368  0.1688  1.4837 -0.0945
 2183WAT     H2 6761   4.443   1.503   4.258  0.8161  0.0126 -1.4780
 2184WAT      O 6762   2.366   5.093   4.058 -0.2933 -0.0410  0.2614
 2184WAT     H1 6763   2.295   5.062   4.002  0.8599 -1.2517 -0.5906
 2184WAT     H2 6764   2.432   5.126   3.998  0.7924 -0.9746  0.9078
 2185WAT      O 6765   4.344   2.790   3.774 -0.3547 -0.3998  1.0047
 2185WAT     H1 6766   4.348   2.780   3.869 -3.3431 -2.1614  1.0575
 2185WAT     H2 6767   4.254   2.815   3.756 -0.0102 -0.6905 -1.4430
 2186WAT      O 6768   0.569   0.551   0.024 -0.5551 -0.3209 -0.4699
 2186WAT     H1 6769   0.608   0.615   0.084 -1.6098 -1.4644  1.5300
 2186WAT     H2 6770   0.580   0.590  -0.063  0.1905  1.8507  0.5325
 2187WAT      O 6771   1.085   0.265   2.265 -0.2785  0.0833 -0.1322
 2187WAT     H1 6772   1.005   0.214   2.254  0.3231 -1.0766  0.7425
 2187WAT     H2 6773   1.156   0.203   2.251  0.4814  0.8429  0.2353
 2188WAT      O 6774   4.109   0.369   1.308  0.1696 -0.0093 -0.5037
 2188WAT     H1 6775   4.125   0.447   1.361  0.5106  0.9051 -1.8944
 2188WAT     H2 6776   4.197   0.338   1.285  0.0286  0.1177 -1.2363
 2189WAT      O 6777   2.213   3.080   2.092  0.3625  0.8419  0.6832
 2189WAT     H1 6778   2.291   3.072   2.036  0.4616 -0.0892  0.9483
 2189WAT     H2 6779   2.248   3.088   2.180  0.1975  2.0977  0.6482
 2190WAT      O 6780   0.735   4.237   0.081  0.3624 -0.1843 -0.2791
 2190WAT     H1 6781   0.756   4.288   0.003  1.3303 -0.0565  0.0489
 2190WAT     H2 6782   0.778   4.283   0.153 -2.6223  1.1842  0.8109
 2191WAT      O 6783   0.114   2.722   0.072 -0.4389 -0.1150  0.5423
 2191WAT     H1 6784   0.101   2.636   0.030 -0.4027 -0.3719  1.0554
 2191WAT     H2 6785   0.084   2.785   0.006  1.6430 -0.3801 -0.7652
 2192WAT      O 6786   4.013   1.689   1.570 -0.1180 -0.5477 -0.0471
 2192WAT     H1 6787   3.930   1.658   1.607 -2.2270  3.9450 -0.3519
 2192WAT     H2 6788   4.058   1.731   1.644  0.3787 -0.2198 -0.5242
 2193WAT      O 6789   4.089   2.042   0.654 -0.1887 -0.5169 -0.6556
 2193WAT     H1 6790   4.084   1.987   0.576 -0.6712  0.9614 -1.7067
 2193WAT     H2 6791   4.171   2.015   0.696  0.6658 -0.6082 -2.2661
 2194WAT      O 6792   0.915   1.368   3.131 -0.1317 -0.2406 -0.7188
 2194WAT     H1 6793   0.976   1.294   3.127 -0.0651 -0.1299 -1.7952
 2194WAT     H2 6794   0.964   1.442   3.096  0.1797  0.6140  1.3485
 2195WAT      O 6795   2.411   1.173   0.085 -0.2001  0.5475 -0.9566
 2195WAT     H1 6796   2.476   1.113   0.123 -0.3343 -0.4600 -2.2425
 2195WAT     H2 6797   2.453   1.206   0.006 -1.3370 -0.3226 -1.9468
 2196WAT      O 6798   0.362   4.252   3.947  0.4521  0.0272  0.2721
 2196WAT     H1 6799   0.321   4.166   3.952 -0.0835  0.3386  1.4956
 2196WAT     H2 6800   0.426   4.252   4.017  0.9487  0.3781 -0.1767
 2197WAT      O 6801   4.039   3.210   0.506  0.4993  0.0781  0.4323
 2197WAT     H1 6802   4.120   3.224   0.457 -0.4632  0.6545 -1.0848
 2197WAT     H2 6803   4.059   3.241   0.594  1.8501  0.4627  0.0226
 2198WAT      O 6804   2.425   1.634   2.338 -0.2105  0.1631  0.2975
 2198WAT     H1 6805   2.401   1.713   2.386 -1.5959  0.6935 -1.1569
 2198WAT     H2 6806   2.387   1.562   2.388 -3.5114  0.8568 -0.9833
 2199WAT      O 6807   3.758   4.134   0.077 -0.5111 -0.0573  0.2309
 2199WAT     H1 6808   3.726   4.173  -0.005 -0.6832  0.7630  0.6817
 2199WAT     H2 6809   3.851   4.117   0.060 -0.8265 -1.1408 -0.5888
 2200WAT      O 6810   2.430   1.205   4.406  0.0867 -0.0638  0.0288
 2200WAT     H1 6811   2.415   1.223   4.313 -1.5446  1.8590  0.6121
 2200WAT     H2 6812   2.479   1.280   4.438  2.4786 -1.6491  0.3694
 2201WAT      O 6813   4.059   2.844   3.723 -0.0776 -0.2611 -0.4173
 2201WAT     H1 6814   4.087   2.753   3.732 -1.5744 -0.9074 -1.6600
 2201WAT     H2 6815   4.021   2.866   3.808 -0.0758 -0.9506 -0.2328
 2202WAT      O 6816   3.421   0.031   4.867  0.3190 -0.2472 -0.8314
 2202WAT     H1 6817   3.440   0.121   4.891 -0.1262  0.2248 -2.1568
 2202WAT     H2 6818   3.503  -0.016   4.878  0.1825 -0.0475  1.3920
 2203WAT      O 6819   4.110   1.238   3.023 -0.2308  0.1627  0.1967
 2203WAT     H1 6820   4.061   1.217   3.102 -0.0856  0.0009  0.2441
 2203WAT     H2 6821   4.047   1.284   2.967  0.4748  3.1650  1.6745
 2204WAT      O 6822   1.803   0.871   0.037  0.1951  0.2243  0.4092
 2204WAT     H1 6823   1.719   0.860   0.081  0.4198  0.7139  0.9730
 2204WAT     H2 6824   1.816   0.790  -0.012  0.9671 -1.3392  2.9739
 2205WAT      O 6825   0.113   2.159   5.012  0.7233 -0.1292  0.5806
 2205WAT     H1 6826   0.041   2.193   4.957  0.7817 -1.4934 -0.3833
 2205WAT     H2 6827   0.082   2.074   5.042  1.5036 -0.2546  1.0518
 2206WAT      O 6828   2.543   2.016   5.190  0.2847  0.8145  0.0792
 2206WAT     H1 6829   2.520   2.109   5.187  1.0681  0.9813 -1.4133
 2206WAT     H2 6830   2.592   2.001   5.110 -0.0434 -0.9625  0.1860
 2207WAT      O 6831   0.730   1.850   3.236  0.0774 -0.7251  0.0414
 2207WAT     H1 6832   0.669   1.777   3.225 -0.4463 -0.3840  0.6281
 2207WAT     H2 6833   0.689   1.923   3.191 -0.0104 -0.4653  0.5290
 2208WAT      O 6834   3.800   4.888   1.476 -0.1952 -0.3658 -0.4319
 2208WAT     H1 6835   3.864   4.942   1.430 -1.2270  1.2310 -0.0548
 2208WAT     H2 6836   3.762   4.832   1.408  0.9916 -0.7620 -0.7931
 2209WAT      O 6837   0.046   4.542   3.212 -0.5357 -0.2015 -0.6886
 2209WAT     H1 6838   0.035   4.629   3.250 -2.4818 -1.1958  1.2850
 2209WAT     H2 6839   0.109   4.498   3.269 -0.5840 -0.5099 -0.8693
 2210WAT      O 6840   3.286   3.281   0.340  0.2604 -0.3876 -0.4669
 2210WAT     H1 6841   3.195   3.310   0.331  0.7329  2.3532  1.8373
 2210WAT     H2 6842   3.282   3.212   0.407  0.0052  1.8609  2.0475
 2211WAT      O 6843   0.206   2.302   1.440 -0.0485 -0.0525  0.0314
 2211WAT     H1 6844   0.284   2.249   1.425 -0.0830 -0.5351  1.3903
 2211WAT     H2 6845   0.136   2.254   1.398  0.5098  0.9331 -2.1610
 2212WAT      O 6846   0.326   4.281   2.051  0.1736 -0.4151  0.2193
 2212WAT     H1 6847   0.329   4.366   2.096  0.2764 -0.4561  0.2903
 2212WAT     H2 6848   0.282   4.300   1.968 -0.8257 -0.5132  0.7149
 2213WAT      O 6849   3.832   0.919   1.221 -0.2845  0.1253  0.9842
 2213WAT     H1 6850   3.743   0.883   1.218 -0.0252 -0.4391 -0.4507
 2213WAT     H2 6851   3.852   0.925   1.315 -1.0907 -1.5972  1.2960
 2214WAT      O 6852   3.225   0.343   0.924 -0.1253  0.1975 -0.4460
 2214WAT     H1 6853   3.213   0.388   1.007  1.6594 -0.8625  0.4618
 2214WAT     H2 6854   3.288   0.273   0.944  1.3434  0.6933 -2.9436
 2215WAT      O 6855   3.783   3.150   1.824 -0.3139  0.3116  0.3735
 2215WAT     H1 6856   3.825   3.094   1.758  0.4905 -1.2095  2.0958
 2215WAT     H2 6857   3.763   3.231   1.777  0.0434 -0.7731 -1.7778
 2216WAT      O 6858   0.913   4.790   1.390  0.4491 -0.0859 -0.4361
 2216WAT     H1 6859   0.981   4.857   1.385 -0.8228  1.3497  0.4500
 2216WAT     H2 6860   0.905   4.757   1.301  1.4115  0.6237 -0.8103
 2217WAT      O 6861   2.043   3.836   1.574 -0.1718 -0.1251  1.2680
 2217WAT     H1 6862   2.054   3.785   1.654 -0.1560 -0.6862  0.9110
 2217WAT     H2 6863   2.023   3.772   1.506 -0.0727  0.3323  0.7947
 2218WAT      O 6864   3.788   2.953   3.063 -0.8738 -0.3004 -0.1140
 2218WAT     H1 6865   3.861   2.891   3.058  2.0982  2.9658 -1.5848
 2218WAT     H2 6866   3.725   2.919   2.999  1.1325 -1.2770 -1.7161
 2219WAT      O 6867   2.893   4.431   3.920  0.1816  0.0219  0.1687
 2219WAT     H1 6868   2.937   4.513   3.944 -1.8746  1.0163  0.7906
 2219WAT     H2 6869   2.857   4.448   3.833  1.3514 -0.9491 -0.5394
 2220WAT      O 6870   3.415   4.801   4.345  0.5989 -0.5407 -1.3058
 2220WAT     H1 6871   3.361   4.840   4.276  1.3456 -2.6533 -3.2218
 2220WAT     H2 6872   3.436   4.713   4.312  2.5276 -0.9693  0.8164
 2221WAT      O 6873   4.511   0.702   1.569  0.3181 -0.3304 -0.0911
 2221WAT     H1 6874   4.485   0.615   1.540  0.3610  0.3111 -2.2065
 2221WAT     H2 6875   4.605   0.706   1.551  0.1986  0.3528 -0.6277
 2222WAT      O 6876   0.938   1.267   1.039 -0.1607 -0.6830  0.2340
 2222WAT     H1 6877   0.863   1.290   0.984 -0.0634  0.3342  0.5089
 2222WAT     H2 6878   0.913   1.296   1.127  0.8066  0.2642  0.2129
 2223WAT      O 6879   3.348   0.027   0.285 -0.1573  0.9397 -0.4694
 2223WAT     H1 6880   3.280   0.051   0.348  0.3269  1.6113 -0.1983
 2223WAT     H2 6881   3.397  -0.043   0.329 -0.1107  1.0856 -0.2838
 2224WAT      O 6882   3.625   4.917   4.131 -0.3753  0.1781 -0.0107
 2224WAT     H1 6883   3.585   4.987   4.182 -0.2946 -0.9545  1.6556
 2224WAT     H2 6884   3.714   4.949   4.113 -0.7235  1.0073 -0.3292
 2225WAT      O 6885   4.434   1.539   5.162 -0.3789  0.1402  0.1644
 2225WAT     H1 6886   4.486   1.588   5.098  2.0370  2.0107  3.2664
 2225WAT     H2 6887   4.487   1.461   5.180 -0.6150  0.0488  0.4690
 2226WAT      O 6888   2.710   0.803   0.324 -0.2334 -0.2263 -0.5949
 2226WAT     H1 6889   2.736   0.767   0.409 -2.1638  0.2171  0.2208
 2226WAT     H2 6890   2.618   0.779   0.314 -0.1252 -0.0089 -2.4441
 2227WAT      O 6891   0.745   2.309   0.240  0.1171  0.3318  0.2390
 2227WAT     H1 6892   0.764   2.246   0.310  1.0483  0.0251 -0.2700
 2227WAT     H2 6893   0.740   2.256   0.160  0.1401  0.8008 -0.0782
 2228WAT      O 6894   3.398   3.300   1.657 -0.3046 -0.0719 -0.1227
 2228WAT     H1 6895   3.358   3.346   1.583 -1.1143  1.1103  1.0018
 2228WAT     H2 6896   3.346   3.220   1.666 -0.8591  0.2747 -0.1902
 2229WAT      O 6897   0.762   0.370   0.707 -0.2573  0.3665 -0.3223
 2229WAT     H1 6898   0.818   0.442   0.737 -1.1428  0.9959 -0.1153
 2229WAT     H2 6899   0.700   0.357   0.779 -1.0677  0.4456 -0.9867
 2230WAT      O 6900   3.291   4.792   4.815 -0.1689 -0.1994  0.2512
 2230WAT     H1 6901   3.287   4.880   4.777 -1.7110 -0.6268 -0.6567
 2230WAT     H2 6902   3.313   4.807   4.907  0.6462  1.0600 -0.1209
 2231WAT      O 6903   4.352   2.785   0.021 -0.5536  0.2659 -0.7769
 2231WAT     H1 6904   4.274   2.837   0.037 -0.3968 -0.2747  2.6263
 2231WAT     H2 6905   4.408   2.802   0.097  1.2423 -1.7402 -1.5370
 2232WAT      O 6906   1.612   1.786   4.277 -0.4157 -0.0988  0.2623
 2232WAT     H1 6907   1.577   1.720   4.338 -1.3643  0.9564  0.9126
 2232WAT     H2 6908   1.702   1.758   4.260 -0.5125 -1.0737  1.2262
 2233WAT      O 6909   0.635   4.572   4.911 -0.6338 -0.6644  0.4166
 2233WAT     H1 6910   0.663   4.645   4.855 -0.1912  0.9833  2.6197
 2233WAT     H2 6911   0.695   4.501   4.890 -0.2122  0.0399 -0.8796
 2234WAT      O 6912   0.306   1.277   1.604  0.0713 -0.4440 -0.7677
 2234WAT     H1 6913   0.280   1.234   1.686  0.3191  3.9488  1.9301
 2234WAT     H2 6914   0.233   1.334   1.582  1.7565  1.7876 -0.9438
 2235WAT      O 6915   1.441   3.647   3.194 -0.3363  0.3310  0.3300
 2235WAT     H1 6916   1.482   3.732   3.210  1.4351 -0.3608 -0.2816
 2235WAT     H2 6917   1.457   3.598   3.275  1.2974 -0.3888 -0.3906
 2236WAT      O 6918   3.765   0.091   2.890  0.2769 -0.0193 -0.0148
 2236WAT     H1 6919   3.721   0.087   2.974  0.4623  2.7179  0.3107
 2236WAT     H2 6920   3.859   0.085   2.911  0.3697  1.5077  0.1194
 2237WAT      O 6921   4.072   0.486   3.094 -0.1513 -0.1606 -0.6177
 2237WAT     H1 6922   4.162   0.476   3.126  0.2452 -1.0986 -1.9537
 2237WAT     H2 6923   4.081   0.510   3.002 -1.2270 -2.6385 -1.4508
 2238WAT      O 6924   0.002   0.034   3.273  0.2371  0.1566 -0.1965
 2238WAT     H1 6925  -0.026  -0.007   3.355  1.7004  1.2559  0.9079
 2238WAT     H2 6926  -0.020   0.127   3.284  1.7850  0.5696 -0.4105
 2239WAT      O 6927   0.600   0.685   5.088 -0.3692  0.4545 -0.0014
 2239WAT     H1 6928   0.534   0.709   5.024  1.0940  2.1851 -0.9447
 2239WAT     H2 6929   0.678   0.663   5.037  0.7226  1.5055  1.1291
 2240WAT      O 6930   0.748   3.199   3.262  0.1262 -0.0984 -0.3800
 2240WAT     H1 6931   0.727   3.177   3.172  0.3738 -1.1102 -0.1940
 2240WAT     H2 6932   0.747   3.116   3.309 -0.7219  0.4888  0.7111
 2241WAT      O 6933   1.501   1.532   0.485 -0.1295  0.4077  0.0767
 2241WAT     H1 6934   1.593   1.511   0.501 -0.0822 -0.9979 -1.7703
 2241WAT     H2 6935   1.475   1.584   0.562  1.8936 -0.0462  1.1438
 2242WAT      O 6936   4.231   1.378   0.350  0.0060  0.1570  0.6210
 2242WAT     H1 6937   4.265   1.454   0.398 -1.9081  0.6093  1.3742
 2242WAT     H2 6938   4.139   1.374   0.375 -0.2221 -1.7187 -0.3500
 2243WAT      O 6939   0.609   4.573   2.284 -0.7301 -0.4082  0.0530
 2243WAT     H1 6940   0.677   4.606   2.343 -1.3125  2.2091 -0.5718
 2243WAT     H2 6941   0.646   4.494   2.246  2.4770  1.4123 -1.0200
 2244WAT      O 6942   1.049   1.810   0.958  0.0355  0.3562  0.1012
 2244WAT     H1 6943   1.036   1.871   0.885  3.8115  0.2958 -0.8381
 2244WAT     H2 6944   1.095   1.861   1.024  1.7752 -0.9667 -0.0163
 2245WAT      O 6945   3.205   1.192   4.449 -0.6695 -0.3273 -0.2153
 2245WAT     H1 6946   3.233   1.137   4.375 -0.2079  0.3801 -0.5700
 2245WAT     H2 6947   3.214   1.135   4.525 -1.0073 -1.0213 -0.6777
 2246WAT      O 6948   0.431   0.769   4.896 -0.6287 -0.5684 -0.4803
 2246WAT     H1 6949   0.386   0.688   4.918  0.1328 -0.8774 -0.0358
 2246WAT     H2 6950   0.383   0.837   4.943 -0.3468 -0.9526  0.3881
 2247WAT      O 6951   1.086   0.951   1.678 -0.7095  0.6620 -0.3391
 2247WAT     H1 6952   1.142   0.918   1.748 -0.9609 -0.2360 -0.5494
 2247WAT     H2 6953   1.141   1.015   1.633  1.0120 -1.6909 -1.8737
 2248WAT      O 6954   2.488   2.848   4.689  0.0547  0.3832 -0.0239
 2248WAT     H1 6955   2.549   2.786   4.649 -1.4444 -1.6924  0.7431
 2248WAT     H2 6956   2.408   2.838   4.638 -0.2766  1.6185  0.2274
 2249WAT      O 6957   0.113   5.118   4.118 -0.7762  0.5796  0.3252
 2249WAT     H1 6958   0.020   5.099   4.123 -0.8637  0.9885  0.2918
 2249WAT     H2 6959   0.138   5.141   4.208 -1.5354  4.1987 -0.2558
 2250WAT      O 6960   1.760   1.213   0.569 -0.2296 -0.0646  0.0481
 2250WAT     H1 6961   1.800   1.176   0.647  0.9308  1.3639  0.1628
 2250WAT     H2 6962   1.826   1.201   0.500 -0.7655 -0.2486 -0.4429
 2251WAT      O 6963   0.447   0.673   3.719  0.1815  0.2211 -0.2793
 2251WAT     H1 6964   0.380   0.681   3.787 -0.8872  0.0279 -1.2757
 2251WAT     H2 6965   0.530   0.673   3.767 -0.5868 -1.4144  1.1491
 2252WAT      O 6966   1.592   2.587   4.930  0.2374  0.2190 -0.1443
 2252WAT     H1 6967   1.680   2.621   4.911 -0.8716  2.6481 -1.3554
 2252WAT     H2 6968   1.553   2.652   4.988 -0.2643 -1.6553  1.7379
 2253WAT      O 6969   0.463   2.764   0.561 -0.6591 -0.3149  0.2190
 2253WAT     H1 6970   0.432   2.685   0.518  2.1601 -1.5777  0.3207
 2253WAT     H2 6971   0.477   2.826   0.489  2.3128 -1.8199 -0.6911
 2254WAT      O 6972   4.060   0.222   1.722  0.1448 -0.4317  0.3516
 2254WAT     H1 6973   3.995   0.164   1.683 -0.0192 -0.1398  0.1886
 2254WAT     H2 6974   4.031   0.234   1.813  0.1067 -0.4976  0.3483
 2255WAT      O 6975   2.226   3.630   0.086 -0.5316 -0.1195  0.0690
 2255WAT     H1 6976   2.317   3.608   0.106 -0.6016  0.2791  0.8460
 2255WAT     H2 6977   2.212   3.715   0.127  0.1050  2.1256 -3.8711
 2256WAT      O 6978   1.016   1.302   2.346 -0.4230  0.1767  0.1189
 2256WAT     H1 6979   1.067   1.345   2.277 -0.0150 -1.4639 -0.6342
 2256WAT     H2 6980   0.934   1.276   2.303 -0.2109 -0.7619  0.2731
 2257WAT      O 6981   0.593   3.092   1.373  0.5491  0.2692 -0.6640
 2257WAT     H1 6982   0.656   3.020   1.377  2.0457  1.5696  1.2052
 2257WAT     H2 6983   0.516   3.059   1.418  0.0465 -1.1465 -2.4597
 2258WAT      O 6984   4.059   2.927   4.267 -0.0092 -0.3513 -0.0505
 2258WAT     H1 6985   4.063   2.841   4.311 -0.2862 -0.7356 -0.7684
 2258WAT     H2 6986   4.145   2.965   4.283 -0.3323 -0.1741  1.4411
 2259WAT      O 6987   0.400   2.222   4.137 -0.5125 -0.2034  0.0247
 2259WAT     H1 6988   0.454   2.193   4.210 -0.6714  0.1743  0.2970
 2259WAT     H2 6989   0.451   2.293   4.097  0.0591 -1.0901 -0.8793
 2260WAT      O 6990   4.505   1.930   5.118 -0.4133  0.7749 -0.1489
 2260WAT     H1 6991   4.500   1.843   5.078  0.5399  1.2744 -1.3983
 2260WAT     H2 6992   4.423   1.939   5.166 -1.0068 -0.3715 -0.9143
 2261WAT      O 6993   1.768   1.979   0.514 -0.2693 -0.1879 -0.7624
 2261WAT     H1 6994   1.812   1.917   0.573  0.5015  0.6123 -0.4782
 2261WAT     H2 6995   1.725   2.041   0.573  0.1940  0.4017 -1.0335
 2262WAT      O 6996   1.607   2.657   0.791 -0.6154  0.0603  0.4394
 2262WAT     H1 6997   1.588   2.750   0.780  1.6721  0.5159 -0.1439
 2262WAT     H2 6998   1.566   2.615   0.716  0.6023  0.9689 -0.7716
 2263WAT      O 6999   1.242   0.866   1.865  0.1130 -0.3330  0.1288
 2263WAT     H1 7000   1.195   0.839   1.944 -0.7650 -0.5170 -0.4547
 2263WAT     H2 7001   1.311   0.800   1.855  1.3847  0.6752  1.7379
 2264WAT      O 7002   0.656   2.556   4.814  0.3185 -0.0226 -0.2058
 2264WAT     H1 7003   0.720   2.581   4.881  0.5549 -2.1162  0.4484
 2264WAT     H2 7004   0.687   2.597   4.734  0.7777  1.4587  0.6830
 2265WAT      O 7005   2.193   4.098   2.949  0.4477  0.0013 -0.5885
 2265WAT     H1 7006   2.201   4.043   3.027  2.1482  1.7631  0.5535
 2265WAT     H2 7007   2.230   4.045   2.878  3.0002 -0.0546  0.6694
 2266WAT      O 7008   3.536   4.927   0.764  0.4675  0.3159  0.0677
 2266WAT     H1 7009   3.575   4.979   0.835 -0.7165 -1.1384  1.8559
 2266WAT     H2 7010   3.558   4.837   0.786  0.1275 -0.1664 -1.4853
 2267WAT      O 7011   3.722   3.694   1.828  0.7933  0.0205 -0.4609
 2267WAT     H1 7012   3.761   3.656   1.906  0.5750  1.6315  0.4881
 2267WAT     H2 7013   3.777   3.770   1.808 -1.2629  1.8683  0.4365
 2268WAT      O 7014   1.901   2.489   2.134  0.1119 -0.2185  0.1420
 2268WAT     H1 7015   1.905   2.418   2.070  0.0329 -2.3533  2.3441
 2268WAT     H2 7016   1.849   2.557   2.091  1.1990 -0.9585 -2.5151
 2269WAT      O 7017   0.819   3.714   5.096  0.0335 -0.0649  0.1222
 2269WAT     H1 7018   0.771   3.781   5.144  1.0931 -0.7786  2.2922
 2269WAT     H2 7019   0.907   3.751   5.085  1.0364 -1.4924  2.5162
 2270WAT      O 7020   0.728   2.877   3.140 -0.3430 -0.0566 -0.1604
 2270WAT     H1 7021   0.749   2.960   3.096  0.1754 -1.2365 -2.2511
 2270WAT     H2 7022   0.812   2.832   3.148 -0.7523 -0.7894  0.0765
 2271WAT      O 7023   3.899   2.304   5.291 -0.4643  0.5793  0.1373
 2271WAT     H1 7024   3.958   2.319   5.217 -1.4854  1.1385 -0.5861
 2271WAT     H2 7025   3.881   2.391   5.325  0.5975  0.2790  1.5614
 2272WAT      O 7026   3.685   3.708   2.978  0.3129 -0.2218  0.1257
 2272WAT     H1 7027   3.681   3.617   3.009  2.7724 -0.3616  0.2735
 2272WAT     H2 7028   3.656   3.703   2.887 -2.9755 -0.4898  1.0583
 2273WAT      O 7029   0.059   4.015   0.469  0.0271  0.2964  0.2015
 2273WAT     H1 7030   0.060   4.016   0.565  1.4101  0.4100  0.1989
 2273WAT     H2 7031  -0.020   4.065   0.446 -0.5744 -0.1175  1.2715
 2274WAT      O 7032   3.867   0.272   3.611 -0.2359  0.6927  0.2867
 2274WAT     H1 7033   3.960   0.253   3.622  0.0945  1.0595 -1.5715
 2274WAT     H2 7034   3.823   0.189   3.630  0.7884 -0.6360 -2.6234
 2275WAT      O 7035   3.011   2.612   1.657  0.3497  0.0544  0.4338
 2275WAT     H1 7036   3.026   2.518   1.672  0.2256 -0.1805 -0.7898
 2275WAT     H2 7037   3.091   2.642   1.615 -0.1484  0.1858 -0.4306
 2276WAT      O 7038   3.274   4.259   2.592 -0.1570 -0.2156  0.2876
 2276WAT     H1 7039   3.335   4.327   2.621 -2.8623  1.9196  1.3892
 2276WAT     H2 7040   3.240   4.291   2.508  0.5258 -1.6313 -0.5756
 2277WAT      O 7041   3.989   4.729   0.709 -0.1234  0.1113  0.2108
 2277WAT     H1 7042   4.083   4.732   0.691 -0.2291  3.0154 -0.4165
 2277WAT     H2 7043   3.960   4.820   0.696 -3.0548 -0.7430  0.1727
 2278WAT      O 7044   3.393   3.333   2.701 -0.1482 -0.1261 -0.0281
 2278WAT     H1 7045   3.303   3.302   2.703 -0.2540 -0.0193 -1.6119
 2278WAT     H2 7046   3.444   3.260   2.736 -0.6612 -1.0231 -1.0887
 2279WAT      O 7047   0.269   0.020   0.271 -0.0780 -0.5130  0.0236
 2279WAT     H1 7048   0.226   0.073   0.203  0.7028  0.2666  0.1181
 2279WAT     H2 7049   0.205  -0.048   0.292 -0.6943 -0.2201 -0.8409
 2280WAT      O 7050   2.142   4.105   1.943 -0.0362 -0.6469 -0.5004
 2280WAT     H1 7051   2.069   4.165   1.925  0.1542 -0.1776  0.2410
 2280WAT     H2 7052   2.192   4.103   1.861  0.6218  1.1784 -0.1951
 2281WAT      O 7053   0.498   4.993   4.498  0.0502 -0.4330  0.0617
 2281WAT     H1 7054   0.447   5.000   4.579  0.6241 -0.6058  0.4397
 2281WAT     H2 7055   0.468   4.912   4.457 -2.3385  1.0196 -1.3704
 2282WAT      O 7056   1.533   0.147   3.876 -0.0012 -0.1602 -0.0081
 2282WAT     H1 7057   1.439   0.158   3.887  0.3229  2.5512  1.0545
 2282WAT     H2 7058   1.571   0.224   3.919  2.6915 -0.9820 -0.6902
 2283WAT      O 7059   1.801   3.296   0.194 -0.2934  0.2012  0.1152
 2283WAT     H1 7060   1.876   3.299   0.134 -0.1789 -1.1829  0.1464
 2283WAT     H2 7061   1.798   3.383   0.233  1.7081  0.1099  0.5910
 2284WAT      O 7062   3.384   4.603   1.901 -0.6540 -0.1092 -0.1417
 2284WAT     H1 7063   3.471   4.631   1.872 -0.3806  1.6333  2.0971
 2284WAT     H2 7064   3.344   4.564   1.823  2.5130 -2.0692 -0.9814
 2285WAT      O 7065   1.103   2.967   2.095  0.5815  0.1179 -0.7105
 2285WAT     H1 7066   1.083   2.888   2.145 -0.5922 -0.5785 -2.1902
 2285WAT     H2 7067   1.154   2.934   2.020 -1.6069  0.4025 -2.4202
 2286WAT      O 7068   1.676   2.083   0.789  0.5398 -0.6825  0.4096
 2286WAT     H1 7069   1.767   2.110   0.780  0.1077  1.1769  1.1548
 2286WAT     H2 7070   1.631   2.160   0.824 -1.0773 -1.9823  1.3621
 2287WAT      O 7071   2.990   1.126   1.073 -0.2405 -0.0860  0.1192
 2287WAT     H1 7072   3.003   1.107   1.166 -0.6987  1.2149  0.4708
 2287WAT     H2 7073   2.947   1.211   1.072  0.5461  0.3265 -1.3198
 2288WAT      O 7074   1.511   1.543   3.945 -0.2470 -0.0636  0.2983
 2288WAT     H1 7075   1.514   1.448   3.951  2.4458 -0.0290  0.6611
 2288WAT     H2 7076   1.592   1.567   3.899 -0.1084  2.1054  1.5347
 2289WAT      O 7077   4.352   4.310   1.924 -0.3133  0.3576 -0.2684
 2289WAT     H1 7078   4.298   4.349   1.854  0.1514  0.9471 -0.3045
 2289WAT     H2 7079   4.339   4.368   1.999 -1.6564 -0.8616  0.4862
 2290WAT      O 7080   1.175   0.595   0.132 -0.5355  0.8309 -0.5805
 2290WAT     H1 7081   1.080   0.601   0.146 -0.5391 -1.5186  1.0132
 2290WAT     H2 7082   1.211   0.577   0.219  1.0741 -0.8527 -1.5174
 2291WAT      O 7083   1.724   1.035   2.262  0.0135 -0.1995 -0.0379
 2291WAT     H1 7084   1.730   1.104   2.328  0.5489 -0.3987  0.1238
 2291WAT     H2 7085   1.630   1.020   2.252 -0.0664 -0.2486  0.7549
 2292WAT      O 7086   4.105   0.481   4.232  0.4792  0.1255 -0.1093
 2292WAT     H1 7087   4.066   0.508   4.148  0.3085  0.4534  0.0746
 2292WAT     H2 7088   4.065   0.540   4.296  1.3076  0.4899  0.0791
 2293WAT      O 7089   1.558   4.587   0.921  0.1735  0.1188 -0.3982
 2293WAT     H1 7090   1.513   4.652   0.867  3.2894  1.9569 -1.0311
 2293WAT     H2 7091   1.540   4.615   1.011  0.5559  1.2361 -0.6491
 2294WAT      O 7092   0.509   3.496   2.372  0.3238  0.0456  0.1076
 2294WAT     H1 7093   0.481   3.577   2.329 -0.0488  1.0939  2.2023
 2294WAT     H2 7094   0.603   3.493   2.359  0.3565  0.8907  0.0834
 2295WAT      O 7095   1.530   3.304   0.151  0.0740  0.0386 -0.2620
 2295WAT     H1 7096   1.624   3.301   0.171 -0.0092  2.5601  0.9845
 2295WAT     H2 7097   1.527   3.301   0.055  1.5019  0.6291 -0.3634
 2296WAT      O 7098   1.513   3.393   2.772 -0.1469 -0.0384  0.5550
 2296WAT     H1 7099   1.437   3.448   2.750  0.2733 -0.3182 -1.8888
 2296WAT     H2 7100   1.496   3.310   2.726  1.8297  0.0660 -0.4502
 2297WAT      O 7101   0.286   3.426   2.904  0.3826 -0.2775  0.2159
 2297WAT     H1 7102   0.256   3.457   2.989  0.7097  0.3909  0.0875
 2297WAT     H2 7103   0.375   3.458   2.896  0.1331  0.2342 -0.6658
 2298WAT      O 7104   2.886   3.569   2.005  0.0314  0.2335 -0.6665
 2298WAT     H1 7105   2.847   3.655   2.023 -0.8022 -0.5792  1.7707
 2298WAT     H2 7106   2.964   3.566   2.061 -1.2794 -1.4834  1.1669
 2299WAT      O 7107   1.753   0.540   1.163  0.1505 -0.2297 -0.1618
 2299WAT     H1 7108   1.833   0.510   1.207 -0.9012 -0.9939  1.3294
 2299WAT     H2 7109   1.682   0.505   1.217 -1.1942  1.5064 -0.7246
 2300WAT      O 7110   3.088   0.333   0.441 -0.0064  0.0721 -0.2943
 2300WAT     H1 7111   3.169   0.372   0.474  1.2638 -1.1675 -1.7759
 2300WAT     H2 7112   3.077   0.372   0.354  0.1124 -1.2176 -0.9074
 2301WAT      O 7113   2.785   0.677   0.534 -0.0778  0.4397 -0.6984
 2301WAT     H1 7114   2.711   0.628   0.570  1.4450 -2.8086 -1.5666
 2301WAT     H2 7115   2.846   0.687   0.607  1.7026 -3.5250 -1.3570
 2302WAT      O 7116   0.481   0.241   2.708 -0.0216 -0.4345 -0.2105
 2302WAT     H1 7117   0.523   0.226   2.793  0.0272  2.2214  0.3185
 2302WAT     H2 7118   0.388   0.250   2.728 -0.2758 -1.6221 -0.7403
 2303WAT      O 7119   2.832   4.006   0.263 -0.1197 -0.0519 -0.4472
 2303WAT     H1 7120   2.921   3.990   0.231 -0.4532 -0.9750 -0.9611
 2303WAT     H2 7121   2.836   4.093   0.303  1.1740 -0.3462  0.1281
 2304WAT      O 7122   1.475   4.228   0.826 -0.0294 -0.3693 -0.0618
 2304WAT     H1 7123   1.394   4.207   0.779 -0.1011 -2.2474  0.8233
 2304WAT     H2 7124   1.486   4.156   0.888  2.3766 -0.2030 -0.2128
 2305WAT      O 7125   3.162   2.150   3.692 -0.1652  0.6439  0.4807
 2305WAT     H1 7126   3.129   2.134   3.604 -2.4939 -2.9948  1.8010
 2305WAT     H2 7127   3.247   2.108   3.695 -0.7191 -0.5278  0.3040
 2306WAT      O 7128   4.099   2.775   1.384  0.3018 -0.6330  0.2786
 2306WAT     H1 7129   4.127   2.805   1.298  0.1623  0.3283  0.5555
 2306WAT     H2 7130   4.014   2.816   1.398  0.2723 -0.8630  0.8317
 2307WAT      O 7131   0.172   3.535   1.581  0.8510 -0.2644  0.0949
 2307WAT     H1 7132   0.200   3.449   1.611  2.1161  0.6022  1.5498
 2307WAT     H2 7133   0.092   3.518   1.531  0.4641 -2.1590  1.2649
 2308WAT      O 7134   0.455   0.574   4.030  0.7645  0.3385  0.1587
 2308WAT     H1 7135   0.360   0.567   4.024  0.6344  2.1463 -0.2520
 2308WAT     H2 7136   0.471   0.616   4.115  1.0202  2.4361 -0.8739
 2309WAT      O 7137   2.081   1.266   4.415  0.0051  0.1507  0.7047
 2309WAT     H1 7138   2.114   1.179   4.394 -0.9053 -0.2345  0.8576
 2309WAT     H2 7139   1.986   1.260   4.404  0.0462  1.5269 -0.7383
 2310WAT      O 7140   1.559   0.343   1.794 -0.8886 -0.4450 -0.2084
 2310WAT     H1 7141   1.599   0.282   1.731 -0.0774 -0.2824  0.1293
 2310WAT     H2 7142   1.486   0.382   1.746 -0.9717 -1.1483 -0.6721
 2311WAT      O 7143   3.588   3.448   2.133  0.1269 -0.1739 -0.0052
 2311WAT     H1 7144   3.663   3.499   2.165  0.5079 -0.5893 -0.2249
 2311WAT     H2 7145   3.515   3.509   2.135  0.6202  0.4425 -0.4716
 2312WAT      O 7146   2.006   0.224   1.096 -0.0467 -0.4113  0.4149
 2312WAT     H1 7147   1.984   0.317   1.101 -0.3463 -0.5108  1.0294
 2312WAT     H2 7148   1.958   0.192   1.019 -0.7237 -0.2635  0.7660
 2313WAT      O 7149   0.753   1.356   2.674  0.4017  0.3614  0.2547
 2313WAT     H1 7150   0.710   1.441   2.682 -0.0269  0.2720 -0.9091
 2313WAT     H2 7151   0.723   1.322   2.589  1.6758 -0.3276  0.0632
 2314WAT      O 7152   2.937   0.642   0.775  0.1477  0.0451 -0.2554
 2314WAT     H1 7153   3.028   0.618   0.790 -0.0819 -2.0630 -1.8662
 2314WAT     H2 7154   2.886   0.573   0.817 -0.6455  0.0213 -1.2114
 2315WAT      O 7155   0.516   0.936   3.448  0.2585  0.2013 -0.0877
 2315WAT     H1 7156   0.595   0.899   3.409 -0.7658 -1.1139 -1.0310
 2315WAT     H2 7157   0.511   1.025   3.413  0.2298 -0.4100 -1.7242
 2316WAT      O 7158   2.410   1.463   5.113 -0.7087  0.3027 -0.5043
 2316WAT     H1 7159   2.344   1.527   5.139 -0.4952  0.8774 -1.3161
 2316WAT     H2 7160   2.374   1.379   5.139 -0.5890  0.7978  1.4294
 2317WAT      O 7161   4.088   1.970   4.029  0.1793 -0.7514  0.0021
 2317WAT     H1 7162   4.120   1.880   4.025  0.5769 -0.5855 -0.7480
 2317WAT     H2 7163   3.997   1.965   3.998 -0.1408 -1.0400  0.9593
 2318WAT      O 7164   2.326   0.376   2.039 -0.2210  0.5540 -0.6750
 2318WAT     H1 7165   2.309   0.415   2.125  0.5302  1.0610 -0.7495
 2318WAT     H2 7166   2.255   0.314   2.027  0.0897 -0.1040  0.6651
 2319WAT      O 7167   2.258   3.868   2.753 -0.0855  0.1325 -0.1180
 2319WAT     H1 7168   2.302   3.788   2.781  1.8324  0.3469 -2.1749
 2319WAT     H2 7169   2.203   3.840   2.679 -0.4266  0.5054 -0.0075
 2320WAT      O 7170   0.769   2.736   5.045 -0.4924  0.1171  0.5486
 2320WAT     H1 7171   0.677   2.764   5.046 -1.1202 -1.8002  0.6797
 2320WAT     H2 7172   0.779   2.686   5.125  0.2754 -0.8722 -0.1483
 2321WAT      O 7173   3.972   2.680   4.698  0.7687  0.3204  0.3819
 2321WAT     H1 7174   3.893   2.730   4.719  0.0365 -0.2035 -1.0425
 2321WAT     H2 7175   4.014   2.665   4.783 -0.5505  0.7667  1.1385
 2322WAT      O 7176   4.010   1.704   3.431 -0.2844 -0.0787 -0.6200
 2322WAT     H1 7177   4.068   1.756   3.487 -1.0785 -0.9626  1.0979
 2322WAT     H2 7178   3.927   1.700   3.479 -1.2258 -0.3044 -2.2032
 2323WAT      O 7179   0.439   2.520   0.408 -0.3114  0.5654  0.7336
 2323WAT     H1 7180   0.530   2.508   0.435  0.4798  0.8231 -1.6056
 2323WAT     H2 7181   0.415   2.439   0.364  0.1446  1.8652 -2.0901
 2324WAT      O 7182   3.780   3.544   0.600 -0.4629  0.3034 -0.0086
 2324WAT     H1 7183   3.854   3.593   0.637  0.9259 -2.8889  1.8149
 2324WAT     H2 7184   3.812   3.516   0.514 -0.7363  1.3715 -0.4742
 2325WAT      O 7185   4.455   4.544   3.676 -0.2215  0.4018  0.1621
 2325WAT     H1 7186   4.536   4.578   3.638 -0.4634  0.0929 -0.6400
 2325WAT     H2 7187   4.482   4.467   3.725 -0.1195 -0.1672 -0.7580
 2326WAT      O 7188   3.907   5.090   0.698 -0.4489 -0.2296  0.3675
 2326WAT     H1 7189   3.838   5.094   0.632 -0.2089  0.0243  0.1272
 2326WAT     H2 7190   3.987   5.072   0.647 -0.1784  0.4853  0.5300
 2327WAT      O 7191   0.504   1.223   4.892 -0.4191  0.4156 -0.4455
 2327WAT     H1 7192   0.568   1.223   4.822 -1.6313  0.1276 -1.5857
 2327WAT     H2 7193   0.552   1.256   4.968  1.2367 -0.3738 -1.0929
 2328WAT      O 7194   4.144   0.689   0.718  0.0452 -0.2326 -0.1926
 2328WAT     H1 7195   4.222   0.738   0.691  0.9116 -1.4009  0.1085
 2328WAT     H2 7196   4.080   0.757   0.739  0.9874  0.7620 -0.4061
 2329WAT      O 7197   1.845   1.671   4.752 -0.7747  0.4676 -0.0943
 2329WAT     H1 7198   1.832   1.647   4.844  0.7912 -0.5904 -0.1112
 2329WAT     H2 7199   1.810   1.596   4.703  0.6941 -0.1328 -0.2620
 2330WAT      O 7200   1.329   0.851   2.621 -0.2980  0.2080  0.1063
 2330WAT     H1 7201   1.355   0.852   2.529  1.2649  0.1083  0.5132
 2330WAT     H2 7202   1.287   0.765   2.633  0.3022 -0.1562 -0.3220
 2331WAT      O 7203   3.748   0.680   0.200 -0.4712 -0.1110  0.4732
 2331WAT     H1 7204   3.665   0.704   0.160  0.6144  2.2490 -0.5606
 2331WAT     H2 7205   3.773   0.598   0.158 -1.6399 -0.1535 -0.1595
 2332WAT      O 7206   0.681   1.439   3.853  0.4476 -0.3198  0.0558
 2332WAT     H1 7207   0.596   1.470   3.822 -1.0808 -1.2822  2.9322
 2332WAT     H2 7208   0.701   1.494   3.928  1.6947 -0.9957  0.2443
 2333WAT      O 7209   3.664   0.477   4.404 -0.5566  0.1309  0.8471
 2333WAT     H1 7210   3.715   0.396   4.390 -2.5673 -0.8852 -1.3583
 2333WAT     H2 7211   3.692   0.535   4.333 -2.4868 -0.5380 -0.5609
 2334WAT      O 7212   0.553   0.253   0.072  0.4956 -0.3687 -0.8663
 2334WAT     H1 7213   0.583   0.237   0.162 -0.4059 -2.0554 -0.8273
 2334WAT     H2 7214   0.541   0.348   0.068 -2.7034 -0.4439  1.9318
 2335WAT      O 7215   1.251   0.241   1.028  0.3132  0.2463 -0.5618
 2335WAT     H1 7216   1.158   0.219   1.026  0.7574 -1.7199 -2.0195
 2335WAT     H2 7217   1.264   0.294   0.950  0.9416 -2.1154 -2.1566
 2336WAT      O 7218   1.595   4.824   1.611 -0.4155  0.6729 -0.3960
 2336WAT     H1 7219   1.574   4.903   1.660  0.5564  1.2594 -0.9137
 2336WAT     H2 7220   1.603   4.853   1.521  0.4428  0.0703 -0.5162
 2337WAT      O 7221   1.390   4.097   2.977 -0.5021  0.0882 -0.3394
 2337WAT     H1 7222   1.440   4.075   3.056  0.6543 -2.0482 -1.5923
 2337WAT     H2 7223   1.442   4.165   2.934 -1.7630  2.2010  1.2448
 2338WAT      O 7224   3.107   4.598   3.609  0.1690  0.1496 -0.0612
 2338WAT     H1 7225   3.086   4.567   3.521  1.1048  2.4006 -1.1631
 2338WAT     H2 7226   3.051   4.675   3.621  0.8887  0.5562  0.8327
 2339WAT      O 7227   3.195   4.984   1.459 -0.1548 -0.3501  0.3726
 2339WAT     H1 7228   3.288   4.988   1.437 -0.2454 -0.6426 -0.1004
 2339WAT     H2 7229   3.187   4.905   1.513 -0.3280 -1.0919 -0.6991
 2340WAT      O 7230   1.669   1.902   1.272 -0.1385  0.1383  0.1153
 2340WAT     H1 7231   1.612   1.899   1.195  0.7432 -0.9076 -0.5268
 2340WAT     H2 7232   1.749   1.944   1.241 -0.0792  0.4478  0.6761
 2341WAT      O 7233   1.135   3.185   4.280 -0.1336 -0.2267  0.1392
 2341WAT     H1 7234   1.156   3.139   4.361 -1.0272  0.1535  0.6058
 2341WAT     H2 7235   1.041   3.170   4.268 -0.1557  0.3275 -0.4246
 2342WAT      O 7236   1.735   1.530   1.141 -0.0708  0.2017  0.0032
 2342WAT     H1 7237   1.664   1.575   1.186  0.6817  0.7456  0.6619
 2342WAT     H2 7238   1.733   1.441   1.176  0.4828  0.6078  1.0986
 2343WAT      O 7239   0.892   2.064   3.842  0.4096  0.0801 -0.6450
 2343WAT     H1 7240   0.883   1.976   3.878  1.3435  0.3024  0.1523
 2343WAT     H2 7241   0.909   2.049   3.749  1.1222 -0.6056 -0.4144
 2344WAT      O 7242   4.399   2.939   1.936 -0.2297  0.1182  0.2754
 2344WAT     H1 7243   4.482   2.909   1.898 -0.9509 -2.2269  0.3719
 2344WAT     H2 7244   4.337   2.868   1.916 -1.5382  0.5264  2.5528
 2345WAT      O 7245   2.359   1.855   2.465  0.0257 -0.3257  0.4276
 2345WAT     H1 7246   2.402   1.939   2.480  1.6034 -0.9982 -0.1545
 2345WAT     H2 7247   2.306   1.869   2.386  2.0120 -0.4395 -1.0017
 2346WAT      O 7248   2.469   4.746   3.047  0.1756 -0.1172 -0.0829
 2346WAT     H1 7249   2.454   4.744   2.952  4.0004  1.5199 -0.9035
 2346WAT     H2 7250   2.532   4.676   3.063  1.2559  1.0275  0.8287
 2347WAT      O 7251   1.050   2.236   0.941  0.1164  0.5947 -0.3916
 2347WAT     H1 7252   1.116   2.299   0.913  0.3762 -0.2841 -1.8997
 2347WAT     H2 7253   0.980   2.246   0.877 -0.4093  0.2535  0.1257
 2348WAT      O 7254   2.006   4.300   2.942  0.0850  0.0418 -0.3641
 2348WAT     H1 7255   2.056   4.219   2.928 -0.7296 -0.8183  1.4401
 2348WAT     H2 7256   2.071   4.363   2.972  0.4371 -0.4814  0.0049
 2349WAT      O 7257   0.582   3.125   4.995 -0.6797 -0.1965 -0.0343
 2349WAT     H1 7258   0.661   3.088   5.036 -0.4359 -0.3386 -0.6276
 2349WAT     H2 7259   0.582   3.217   5.022 -0.4763 -0.2696  0.2181
 2350WAT      O 7260   0.745   1.326   3.581  0.2425 -0.0470 -0.2500
 2350WAT     H1 7261   0.813   1.289   3.525  0.4612 -0.7648  0.4739
 2350WAT     H2 7262   0.767   1.295   3.669  0.5699  1.9816  0.4344
 2351WAT      O 7263   3.645   0.636   1.180 -0.2528 -0.1993  0.2671
 2351WAT     H1 7264   3.635   0.582   1.258 -0.7455 -0.1305  0.2569
 2351WAT     H2 7265   3.586   0.710   1.195 -0.3042 -0.1532 -0.1389
 2352WAT      O 7266   3.425   3.089   2.077 -0.5607  0.2288  0.7350
 2352WAT     H1 7267   3.487   3.134   2.020 -0.3357  0.0901  0.8686
 2352WAT     H2 7268   3.370   3.159   2.113 -1.2225  0.2426 -0.2658
 2353WAT      O 7269   0.605   0.969   1.978  0.7968  0.3804  0.0446
 2353WAT     H1 7270   0.654   1.016   1.910  1.7159 -1.6692 -0.7705
 2353WAT     H2 7271   0.524   0.942   1.935  0.2224  1.2503  0.5439
 2354WAT      O 7272   3.496   1.422   4.825 -0.8699 -0.4513  0.0297
 2354WAT     H1 7273   3.492   1.389   4.914  1.8460 -1.4620 -0.1465
 2354WAT     H2 7274   3.460   1.351   4.771 -1.1900 -0.4160  0.1959
 2355WAT      O 7275   1.809   3.436   2.721 -0.0306 -0.3851 -0.0176
 2355WAT     H1 7276   1.776   3.473   2.639 -0.1245 -2.3211 -0.9138
 2355WAT     H2 7277   1.731   3.403   2.766  0.1377 -0.3454  0.3070
 2356WAT      O 7278   0.616   3.793   4.889 -0.1269 -0.1069 -0.4133
 2356WAT     H1 7279   0.671   3.867   4.866 -0.5144  1.2003  2.4048
 2356WAT     H2 7280   0.659   3.754   4.965 -1.5527 -0.8520  0.0455
 2357WAT      O 7281   2.802   0.082   2.024  0.1981  0.1223  0.2252
 2357WAT     H1 7282   2.783   0.085   2.118 -1.6883  1.8072 -0.1294
 2357WAT     H2 7283   2.722   0.046   1.985  1.2031 -1.1724 -0.7119
 2358WAT      O 7284   2.687   3.878   1.747  0.5708  0.2953 -0.5401
 2358WAT     H1 7285   2.625   3.808   1.772  0.0706  1.1551  0.7400
 2358WAT     H2 7286   2.772   3.846   1.776  0.4923 -0.1937 -0.8343
 2359WAT      O 7287   0.327   1.660   3.753  0.5563  0.5164  0.1296
 2359WAT     H1 7288   0.283   1.684   3.671  2.0442  1.2637 -0.4827
 2359WAT     H2 7289   0.368   1.576   3.735 -0.3923 -0.0781  0.6357
 2360WAT      O 7290   4.364   3.281   3.652 -0.3009 -0.0181  0.5965
 2360WAT     H1 7291   4.357   3.244   3.564 -0.5102 -0.3719  0.7600
 2360WAT     H2 7292   4.422   3.356   3.642 -0.6495  0.1854  0.0806
 2361WAT      O 7293   0.161   4.947   0.560 -0.0545 -0.5628  0.3022
 2361WAT     H1 7294   0.251   4.970   0.583  0.3207 -1.3985 -0.2841
 2361WAT     H2 7295   0.126   4.904   0.638  0.2292 -0.7307  0.3344
 2362WAT      O 7296   1.129   0.156   3.611 -0.3922  0.0416  0.1463
 2362WAT     H1 7297   1.152   0.178   3.702  0.9827 -1.9643  0.3368
 2362WAT     H2 7298   1.083   0.072   3.618 -0.1492 -0.1963 -1.0367
 2363WAT      O 7299   4.382   3.453   4.705  0.4770 -0.0308  0.0183
 2363WAT     H1 7300   4.316   3.513   4.671  0.7554 -0.7424 -1.8674
 2363WAT     H2 7301   4.360   3.443   4.798 -0.1325  2.2126  0.1659
 2364WAT      O 7302   2.829   4.901   1.534 -0.5965  0.1156  0.3969
 2364WAT     H1 7303   2.850   4.993   1.520  1.1164 -0.1770  0.7219
 2364WAT     H2 7304   2.902   4.868   1.588 -1.6366 -1.2092  1.0565
 2365WAT      O 7305   2.244   1.242   0.566 -0.1818  0.2794  0.2522
 2365WAT     H1 7306   2.173   1.180   0.549  1.1243 -1.7122  1.6177
 2365WAT     H2 7307   2.324   1.192   0.553  0.9442  1.4372  2.1415
 2366WAT      O 7308   4.331   3.378   0.209 -0.6758 -0.0814 -0.2171
 2366WAT     H1 7309   4.425   3.389   0.225 -0.5795  1.3266 -1.5396
 2366WAT     H2 7310   4.315   3.427   0.128 -2.6323  0.0927  0.2350
 2367WAT      O 7311   0.851   0.102   2.314  0.4229 -0.0270  0.5004
 2367WAT     H1 7312   0.788   0.160   2.356  1.2139  0.6201  0.8151
 2367WAT     H2 7313   0.806   0.017   2.310 -1.3076  0.8937 -1.2881
 2368WAT      O 7314   1.696   4.349   1.024  0.4493 -0.3517  0.0340
 2368WAT     H1 7315   1.616   4.313   0.986  0.0198 -0.8676  1.3476
 2368WAT     H2 7316   1.690   4.443   1.010 -0.7451 -0.3055  0.7301
 2369WAT      O 7317   3.203   1.668   3.715 -0.0698  0.6681 -0.0400
 2369WAT     H1 7318   3.293   1.635   3.717 -0.9501 -1.9553  0.2577
 2369WAT     H2 7319   3.201   1.730   3.642  1.8889  0.5604 -0.2276
 2370WAT      O 7320   2.420   4.769   4.346  0.1440 -0.4374 -0.2452
 2370WAT     H1 7321   2.340   4.744   4.392 -1.1948  0.3429 -2.0176
 2370WAT     H2 7322   2.486   4.773   4.414 -1.3986 -0.7733  1.3515
 2371WAT      O 7323   4.458   1.627   0.648 -0.7477 -0.1327  0.6110
 2371WAT     H1 7324   4.498   1.543   0.625 -1.1505  0.0625 -0.9805
 2371WAT     H2 7325   4.374   1.605   0.688 -1.1586 -0.5157 -0.4182
 2372WAT      O 7326   1.222   2.117   2.283 -0.1659 -0.3443 -0.0861
 2372WAT     H1 7327   1.222   2.026   2.313  1.2849 -0.4586 -0.3822
 2372WAT     H2 7328   1.297   2.157   2.326 -2.5806  1.6587  2.6345
 2373WAT      O 7329   4.046   4.591   3.714  0.1342 -0.5276 -0.7346
 2373WAT     H1 7330   3.958   4.596   3.752  0.4667  0.1155 -0.0206
 2373WAT     H2 7331   4.033   4.551   3.628 -0.9583  0.3340 -0.9838
 2374WAT      O 7332   0.757   3.013   4.796  0.3928 -0.1432 -0.2941
 2374WAT     H1 7333   0.674   3.006   4.843  0.1135 -1.0159 -0.8844
 2374WAT     H2 7334   0.770   2.926   4.758  0.9946  0.3252 -1.1846
 2375WAT      O 7335   0.662   0.432   1.744 -0.1554 -0.6686 -0.3203
 2375WAT     H1 7336   0.607   0.415   1.667  0.0399 -0.3034 -0.5430
 2375WAT     H2 7337   0.687   0.345   1.775 -0.9553 -0.8453 -0.1444
 2376WAT      O 7338   3.448   0.499   1.751  0.2331 -0.0708 -0.1003
 2376WAT     H1 7339   3.361   0.463   1.734  0.6155 -0.6509 -0.8853
 2376WAT     H2 7340   3.498   0.479   1.672  0.8165  1.0958 -0.0444
 2377WAT      O 7341   2.137   1.659   3.042 -0.0130  0.0713 -0.2029
 2377WAT     H1 7342   2.213   1.618   3.000 -0.4997 -0.5006 -0.5483
 2377WAT     H2 7343   2.100   1.717   2.974  0.7708  1.2422  0.3377
 2378WAT      O 7344   1.956   1.283   3.407  0.1842 -0.1307 -0.0618
 2378WAT     H1 7345   1.972   1.231   3.329  0.4540  0.1802 -0.2190
 2378WAT     H2 7346   1.946   1.373   3.374 -1.5527 -0.2412  0.0663
 2379WAT      O 7347   2.445   2.634   5.224 -0.0624 -0.1986  0.4786
 2379WAT     H1 7348   2.440   2.709   5.165  0.3325 -1.9755 -1.9787
 2379WAT     H2 7349   2.525   2.647   5.274 -0.7612  1.6836  1.1993
 2380WAT      O 7350   1.116   2.022   3.082 -0.5553 -0.2638  0.2597
 2380WAT     H1 7351   1.036   1.971   3.068 -0.2041 -1.2173  1.4991
 2380WAT     H2 7352   1.110   2.050   3.173 -0.8484  2.1736 -0.4451
 2381WAT      O 7353   3.739   4.766   1.239 -0.0075  0.4300  0.4434
 2381WAT     H1 7354   3.778   4.682   1.217 -0.8122 -0.4015  2.0182
 2381WAT     H2 7355   3.650   4.762   1.204  0.2736  1.0728 -0.3913
 2382WAT      O 7356   3.287   4.150   0.809 -0.1594 -0.0158  0.1346
 2382WAT     H1 7357   3.375   4.134   0.777 -0.3028  0.4850 -0.5248
 2382WAT     H2 7358   3.278   4.091   0.884 -0.0176 -1.6135 -1.0526
 2383WAT      O 7359   0.660   1.619   5.260 -0.1690 -0.2630  0.1716
 2383WAT     H1 7360   0.739   1.670   5.248  0.3069 -0.9202  0.4351
 2383WAT     H2 7361   0.663   1.591   5.352 -1.0009  0.1876  0.3448
 2384WAT      O 7362   1.717   4.416   4.779  0.1908 -0.1551 -0.2784
 2384WAT     H1 7363   1.759   4.420   4.865 -1.9963 -1.1313  0.9357
 2384WAT     H2 7364   1.749   4.493   4.732  0.6576  0.9823  1.7923
 2385WAT      O 7365   1.938   2.153   0.680 -0.5496  0.1638  0.0437
 2385WAT     H1 7366   2.001   2.220   0.705 -0.3892 -0.4099  1.2559
 2385WAT     H2 7367   1.992   2.075   0.663 -0.7843  0.1666 -0.7948
 2386WAT      O 7368   4.161   1.768   5.282 -0.1058 -0.3322  0.3682
 2386WAT     H1 7369   4.188   1.763   5.190 -1.0922  0.9835 -0.0170
 2386WAT     H2 7370   4.071   1.738   5.282 -0.0611 -0.4854  0.9493
 2387WAT      O 7371   1.942   5.058   2.967  0.0385  0.2124 -0.2082
 2387WAT     H1 7372   1.854   5.040   2.934  0.1283 -1.4366  0.3635
 2387WAT     H2 7373   1.961   5.147   2.937 -1.8744  0.6701 -0.2242
 2388WAT      O 7374   2.271   0.304   4.128 -0.4375  0.4873  0.3706
 2388WAT     H1 7375   2.358   0.280   4.160 -0.2592 -0.5146 -0.7736
 2388WAT     H2 7376   2.285   0.384   4.078 -0.4686  1.2394  1.5494
 2389WAT      O 7377   3.770   0.995   3.341 -0.2304  0.2122 -0.0464
 2389WAT     H1 7378   3.734   0.908   3.358  0.0285 -0.1734 -1.3228
 2389WAT     H2 7379   3.698   1.043   3.300 -0.3518  0.5859  0.5941
 2390WAT      O 7380   4.434   0.051   1.726 -0.0519 -0.2850 -0.1220
 2390WAT     H1 7381   4.391  -0.027   1.760 -1.5888  1.8080  3.2739
 2390WAT     H2 7382   4.362   0.101   1.686  0.2283  0.7904  0.6709
 2391WAT      O 7383   3.486   3.527   3.750 -0.4031  0.0482 -0.4893
 2391WAT     H1 7384   3.450   3.440   3.770 -0.7845  0.0005 -1.3299
 2391WAT     H2 7385   3.523   3.557   3.833 -0.6393 -0.7404 -0.0833
 2392WAT      O 7386   3.665   3.885   3.618 -0.1454 -0.1121 -0.5534
 2392WAT     H1 7387   3.739   3.871   3.558 -0.4373  0.4372 -1.0599
 2392WAT     H2 7388   3.681   3.825   3.690  1.7208  1.1672  0.1945
 2393WAT      O 7389   2.717   1.486   5.135  0.9084  0.7661  0.3179
 2393WAT     H1 7390   2.624   1.511   5.138  0.1842 -1.4708 -1.0301
 2393WAT     H2 7391   2.738   1.462   5.225  0.3744  1.8657  0.7536
 2394WAT      O 7392   4.459   1.750   4.721  0.2879  0.3562 -0.3466
 2394WAT     H1 7393   4.396   1.706   4.664 -1.3561  3.7339 -1.4335
 2394WAT     H2 7394   4.525   1.785   4.662  2.0961 -1.3172  0.5763
 2395WAT      O 7395   1.194   3.025   2.923 -0.5563  0.0342 -0.1028
 2395WAT     H1 7396   1.161   2.951   2.975  0.9110 -0.7360 -0.2278
 2395WAT     H2 7397   1.122   3.045   2.862 -1.2998 -0.7253  0.5083
 2396WAT      O 7398   2.057   5.025   1.493  0.0265  0.3062 -0.0379
 2396WAT     H1 7399   1.980   4.968   1.494  0.6471 -0.6325 -1.6229
 2396WAT     H2 7400   2.043   5.083   1.418  0.2632  1.0084  0.4550
 2397WAT      O 7401   1.102   1.737   1.809 -0.4660 -0.3149 -0.7816
 2397WAT     H1 7402   1.033   1.752   1.744 -0.9133 -2.9635 -1.0276
 2397WAT     H2 7403   1.176   1.704   1.757  0.1791  0.3026 -0.2624
 2398WAT      O 7404   4.359   1.544   3.760 -0.6924 -0.0776 -0.4486
 2398WAT     H1 7405   4.328   1.457   3.784  3.0611 -0.9068  2.3737
 2398WAT     H2 7406   4.408   1.531   3.679  0.2458 -0.7523  0.2058
 2399WAT      O 7407   1.383   1.509   1.072  0.4492 -0.0741  0.1038
 2399WAT     H1 7408   1.425   1.435   1.116 -0.6336 -0.6613  0.1866
 2399WAT     H2 7409   1.307   1.470   1.028 -0.3859  1.0593  0.5050
 2400WAT      O 7410   0.308   2.614   0.726  0.0298  0.7099 -0.2263
 2400WAT     H1 7411   0.392   2.659   0.714  0.2006  0.8585  1.3298
 2400WAT     H2 7412   0.249   2.657   0.664  0.2124  3.1138  1.1126
 2401WAT      O 7413   3.966   4.004   5.139  0.6460 -0.2842  0.6582
 2401WAT     H1 7414   4.011   3.950   5.074  0.6273 -0.4702  0.7995
 2401WAT     H2 7415   4.033   4.065   5.170  0.2574  0.8722 -0.6923
 2402WAT      O 7416   0.926   0.879   0.683 -0.6511 -0.1060  0.2850
 2402WAT     H1 7417   0.913   0.819   0.610 -0.4637  0.1739  0.0220
 2402WAT     H2 7418   1.020   0.896   0.684 -0.5040 -0.8841  1.2086
 2403WAT      O 7419   4.180   3.135   2.135  0.0066  0.3037  0.4722
 2403WAT     H1 7420   4.134   3.201   2.187 -0.2450 -0.2086  0.9110
 2403WAT     H2 7421   4.116   3.065   2.123  0.6366 -0.3896  1.0364
 2404WAT      O 7422   1.772   4.085   4.941 -0.3529 -0.4769 -0.2274
 2404WAT     H1 7423   1.742   4.009   4.992 -0.6058 -0.4757 -0.3698
 2404WAT     H2 7424   1.699   4.104   4.882  0.6133 -1.6356 -1.9144
 2405WAT      O 7425   1.349   4.869   1.296 -0.2690  0.1978  0.4068
 2405WAT     H1 7426   1.355   4.963   1.315  0.0232 -0.1184  1.9889
 2405WAT     H2 7427   1.271   4.840   1.343  0.8257 -0.7497  1.6956
 2406WAT      O 7428   0.680   1.444   1.822  0.2767 -0.4720 -0.3262
 2406WAT     H1 7429   0.603   1.477   1.867 -0.5497  0.3407 -2.2330
 2406WAT     H2 7430   0.750   1.504   1.846  0.0535 -0.5069  0.4453
 2407WAT      O 7431   1.230   5.129   3.275  0.0469 -0.3571 -0.2562
 2407WAT     H1 7432   1.254   5.190   3.344 -1.4508 -0.1380  0.1045
 2407WAT     H2 7433   1.272   5.164   3.196 -0.6203  1.0330 -0.0240
 2408WAT      O 7434   3.162   2.062   3.428 -0.0299 -0.3850  0.2916
 2408WAT     H1 7435   3.185   1.994   3.365  2.0649  0.0716  0.5018
 2408WAT     H2 7436   3.221   2.134   3.408  0.1308  0.0728  2.2573
 2409WAT      O 7437   3.049   3.753   0.017 -0.2185 -0.2273 -0.0303
 2409WAT     H1 7438   3.020   3.776  -0.071 -0.0035 -0.5269 -0.1822
 2409WAT     H2 7439   3.095   3.670   0.006  2.3419  1.1073 -0.1028
 2410WAT      O 7440   1.151   3.657   3.770 -0.7132 -0.9014 -0.4763
 2410WAT     H1 7441   1.242   3.634   3.752  0.1562  0.7829  1.3466
 2410WAT     H2 7442   1.110   3.574   3.795  1.3342 -1.2337  2.3068
 2411WAT      O 7443   2.378   3.393   3.649 -0.5966  0.5993 -0.4972
 2411WAT     H1 7444   2.300   3.401   3.594 -0.1769 -0.2139 -1.2332
 2411WAT     H2 7445   2.449   3.376   3.587  0.0168  0.3975  0.2446
 2412WAT      O 7446   3.139   3.572   3.294  0.7134 -0.0985  0.0362
 2412WAT     H1 7447   3.064   3.624   3.323  0.8764  0.1292  0.0501
 2412WAT     H2 7448   3.196   3.635   3.250  1.4066 -0.0567  0.9608
 2413WAT      O 7449   0.367   2.963   1.531  0.0239 -0.3546 -0.0887
 2413WAT     H1 7450   0.428   3.004   1.592  0.4949  1.4062 -1.6373
 2413WAT     H2 7451   0.359   2.873   1.561  2.1002 -0.1769  1.1451
 2414WAT      O 7452   0.054   2.570   2.450 -0.1096 -0.2151  0.0258
 2414WAT     H1 7453   0.029   2.564   2.358 -0.8110 -0.0059  0.1975
 2414WAT     H2 7454   0.023   2.656   2.478 -1.4389 -0.9397  0.8998
 2415WAT      O 7455   4.490   1.847   1.462  0.1155 -0.2597  0.1229
 2415WAT     H1 7456   4.530   1.927   1.495  1.1809 -0.7053 -0.0444
 2415WAT     H2 7457   4.399   1.871   1.443  0.6395  1.1504 -0.7408
 2416WAT      O 7458   0.489   0.373   1.525 -0.0760 -0.1758  0.1538
 2416WAT     H1 7459   0.426   0.309   1.558  1.2356 -0.9853  1.2011
 2416WAT     H2 7460   0.479   0.370   1.430  1.9592 -4.2881 -0.1928
 2417WAT      O 7461   2.131   1.307   3.899  0.2512  0.1652 -0.0128
 2417WAT     H1 7462   2.132   1.335   3.807  1.0983 -0.2841 -0.1478
 2417WAT     H2 7463   2.192   1.366   3.943  0.6606 -0.3040  0.0527
 2418WAT      O 7464   3.562   3.563   2.768  0.2770 -0.0977 -0.0042
 2418WAT     H1 7465   3.523   3.482   2.734 -0.9319  0.6819 -0.5174
 2418WAT     H2 7466   3.517   3.633   2.722  0.6387  0.9074  1.1226
 2419WAT      O 7467   3.504   2.260   3.181 -0.3785 -0.5915  0.5490
 2419WAT     H1 7468   3.508   2.314   3.101 -1.0950 -0.1203  0.8228
 2419WAT     H2 7469   3.448   2.186   3.157 -0.0344 -0.8081  0.4100
 2420WAT      O 7470   1.890   0.993   2.578  0.4207 -0.7196  0.6354
 2420WAT     H1 7471   1.802   0.989   2.540  0.9589 -0.7913 -0.6745
 2420WAT     H2 7472   1.902   1.086   2.600  0.9694 -0.1777 -1.6648
 2421WAT      O 7473   2.758   3.911   2.723  0.0840  0.0864  0.0327
 2421WAT     H1 7474   2.722   3.869   2.644  3.0808  0.1007 -1.4798
 2421WAT     H2 7475   2.731   4.003   2.715  0.0761  0.0204 -0.8100
 2422WAT      O 7476   2.568   2.897   2.713  0.1903  0.1061  0.0574
 2422WAT     H1 7477   2.582   2.818   2.661 -2.2137  0.3018 -1.0079
 2422WAT     H2 7478   2.579   2.969   2.651 -0.7661  0.4323  0.2515
 2423WAT      O 7479   1.734   2.372   4.682  0.2591 -0.0086  0.2125
 2423WAT     H1 7480   1.760   2.342   4.769  0.0511  0.1420  0.3294
 2423WAT     H2 7481   1.681   2.301   4.647 -0.3448  0.2691  0.5423
 2424WAT      O 7482   0.638   3.379   5.082  0.4944 -0.5704 -0.1124
 2424WAT     H1 7483   0.598   3.416   5.160  0.5000 -1.1030  0.1447
 2424WAT     H2 7484   0.729   3.364   5.107  0.3133 -1.4609  0.0309
 2425WAT      O 7485   0.902   3.908   3.502 -0.3002 -0.7477 -0.2035
 2425WAT     H1 7486   0.831   3.929   3.441 -0.2839  0.7316  0.2557
 2425WAT     H2 7487   0.931   3.821   3.475 -1.3239 -0.7741 -1.3181
 2426WAT      O 7488   0.115   3.024   4.519 -0.2789 -0.1337  0.1135
 2426WAT     H1 7489   0.086   2.944   4.562 -1.6155  0.4809  0.3827
 2426WAT     H2 7490   0.171   3.067   4.584  0.6604 -0.9487 -0.1273
 2427WAT      O 7491   1.724   2.825   2.213 -0.2631 -0.4469  0.8669
 2427WAT     H1 7492   1.745   2.806   2.304 -1.9369 -1.9955  0.9703
 2427WAT     H2 7493   1.634   2.857   2.214 -0.9943 -2.2463 -0.3623
 2428WAT      O 7494   1.176   1.691   2.067 -0.0935 -0.4112 -0.2546
 2428WAT     H1 7495   1.268   1.696   2.041  0.0820  0.7263  0.5167
 2428WAT     H2 7496   1.128   1.705   1.985  0.4308 -0.4020 -0.5654
 2429WAT      O 7497   1.726   5.031   4.738 -0.1002 -0.3843 -0.4366
 2429WAT     H1 7498   1.728   4.958   4.801 -0.3215  0.3881  0.4979
 2429WAT     H2 7499   1.789   5.094   4.774 -1.4267  0.7867 -0.0902
 2430WAT      O 7500   2.264   1.791   4.393 -0.2396 -0.2079 -0.2149
 2430WAT     H1 7501   2.207   1.780   4.317  0.1456 -0.3592 -0.4834
 2430WAT     H2 7502   2.206   1.778   4.469 -0.5789 -0.2602 -0.4810
 2431WAT      O 7503   1.387   1.442   0.263  0.1970  0.1340  0.8254
 2431WAT     H1 7504   1.456   1.387   0.226 -0.1162  0.1597  0.1742
 2431WAT     H2 7505   1.425   1.480   0.342  0.7810 -0.1752  0.6955
 2432WAT      O 7506   0.930   2.472   3.627  0.3043 -0.8493  0.0926
 2432WAT     H1 7507   0.938   2.468   3.722 -1.1115  0.9538  0.3450
 2432WAT     H2 7508   0.937   2.565   3.606  0.1968 -1.1793 -1.5239
 2433WAT      O 7509   2.404   3.969   4.754 -0.5136  0.1570  0.2866
 2433WAT     H1 7510   2.332   3.917   4.720 -0.5901 -0.0647  0.7815
 2433WAT     H2 7511   2.381   4.059   4.731  0.0862 -0.1009 -1.4140
 2434WAT      O 7512   2.174   2.460   4.267  0.0422  0.3459  0.3267
 2434WAT     H1 7513   2.095   2.405   4.270 -0.2024  0.6287 -0.6137
 2434WAT     H2 7514   2.191   2.472   4.174  1.1187  0.4168  0.5213
 2435WAT      O 7515   3.440   1.164   2.836 -0.0427  0.3981  0.0297
 2435WAT     H1 7516   3.491   1.244   2.837  0.1528  0.3305 -2.0399
 2435WAT     H2 7517   3.353   1.191   2.867 -0.4425  1.7841 -2.1105
 2436WAT      O 7518   2.654   1.121   0.835  0.0465 -0.4540 -0.7889
 2436WAT     H1 7519   2.690   1.065   0.903  0.1516  0.2348 -0.2610
 2436WAT     H2 7520   2.652   1.066   0.756  2.6188 -0.4244 -0.9570
 2437WAT      O 7521   3.533   1.523   1.306 -0.0289 -0.4075  0.6230
 2437WAT     H1 7522   3.526   1.451   1.368 -0.8071 -0.4613  0.4848
 2437WAT     H2 7523   3.453   1.573   1.318 -0.1830 -0.4030 -0.3098
 2438WAT      O 7524   3.036   3.296   1.997  0.1967 -0.0860  0.1224
 2438WAT     H1 7525   3.126   3.310   2.029  0.2766  0.4417 -0.3213
 2438WAT     H2 7526   3.028   3.355   1.923 -0.0268 -1.2325 -0.7911
 2439WAT      O 7527   3.921   1.969   5.195  0.1052 -0.0154  0.0455
 2439WAT     H1 7528   4.003   1.982   5.147 -0.3092  0.3312 -0.5925
 2439WAT     H2 7529   3.853   1.999   5.134 -0.4659  0.0599  0.7054
 2440WAT      O 7530   3.327   2.555   2.880  0.4514 -0.2045 -0.3371
 2440WAT     H1 7531   3.304   2.481   2.936  1.2497 -2.1514 -2.4135
 2440WAT     H2 7532   3.297   2.529   2.793  2.5818  1.0047 -1.5235
 2441WAT      O 7533   4.053   2.241   3.097 -0.0185  0.0542  0.2458
 2441WAT     H1 7534   4.026   2.332   3.098  1.0587  0.4228 -1.2257
 2441WAT     H2 7535   4.137   2.240   3.143  1.4963  0.4071 -2.2993
 2442WAT      O 7536   1.729   2.746   0.389 -0.0162  0.3972  0.4305
 2442WAT     H1 7537   1.764   2.666   0.429 -1.4500 -0.5769 -0.1787
 2442WAT     H2 7538   1.708   2.803   0.463  1.6050  0.5092  0.8493
 2443WAT      O 7539   3.384   1.910   1.648  0.5098 -0.7142 -0.4838
 2443WAT     H1 7540   3.461   1.963   1.669  0.5955 -0.3848 -1.5774
 2443WAT     H2 7541   3.311   1.972   1.653  0.3060 -1.0014  0.4357
 2444WAT      O 7542   2.937   5.063   0.117 -0.2321  0.4475  0.0364
 2444WAT     H1 7543   2.938   4.969   0.100  0.0858  0.6993 -1.5801
 2444WAT     H2 7544   2.846   5.084   0.135 -0.9223  0.2567 -2.7125
 2445WAT      O 7545   4.298   3.626   1.121  0.4526  0.0242 -0.6309
 2445WAT     H1 7546   4.313   3.691   1.190  2.3297 -2.8523  1.9480
 2445WAT     H2 7547   4.362   3.648   1.053  0.9451  0.9526  0.1008
 2446WAT      O 7548   4.204   1.093   2.244 -0.5033  0.0724 -0.3504
 2446WAT     H1 7549   4.229   1.136   2.162  2.9153  1.4834  1.2654
 2446WAT     H2 7550   4.245   1.006   2.238 -0.1148  0.2363 -0.0786
 2447WAT      O 7551   1.152   4.208   3.101 -0.1910 -0.1707 -0.2032
 2447WAT     H1 7552   1.234   4.173   3.068 -1.1554 -2.0289 -0.7754
 2447WAT     H2 7553   1.110   4.133   3.144 -0.9537  1.0903  1.3891
 2448WAT      O 7554   0.328   2.893   3.045 -0.9853  0.1811  0.7654
 2448WAT     H1 7555   0.303   2.932   3.129 -0.3828  1.6588  0.2917
 2448WAT     H2 7556   0.292   2.952   2.979 -0.4011 -0.2906  0.0107
 2449WAT      O 7557   3.035   2.594   2.473  0.4167  0.2732 -0.9297
 2449WAT     H1 7558   3.023   2.608   2.379 -0.2731 -1.0796 -1.0740
 2449WAT     H2 7559   3.021   2.500   2.484  0.0853  0.4856  0.5961
 2450WAT      O 7560   0.598   3.460   1.165 -0.0095 -0.2278 -0.2637
 2450WAT     H1 7561   0.564   3.391   1.108  0.6726 -0.7961  0.0030
 2450WAT     H2 7562   0.688   3.474   1.134  0.4379 -0.6849  0.7799
 2451WAT      O 7563   0.956   3.934   1.434  0.1633  0.2468 -0.0749
 2451WAT     H1 7564   0.881   3.949   1.377 -2.0143 -1.9018  1.9555
 2451WAT     H2 7565   0.978   3.842   1.420 -0.5573 -0.4042  2.5095
 2452WAT      O 7566   3.431   1.864   0.790  0.1431 -0.1765  0.0394
 2452WAT     H1 7567   3.370   1.852   0.863 -0.8445  0.5908 -0.6335
 2452WAT     H2 7568   3.464   1.775   0.772 -0.5848 -0.5664  0.5613
 2453WAT      O 7569   0.602   3.491   4.020 -0.0430  0.6076  0.1536
 2453WAT     H1 7570   0.605   3.540   3.937 -0.2663  0.2193 -0.0867
 2453WAT     H2 7571   0.694   3.486   4.047  0.0140  0.8975  0.0274
 2454WAT      O 7572   2.629   1.762   1.958 -0.4388 -0.3357  0.2467
 2454WAT     H1 7573   2.570   1.721   2.021  0.7086 -0.3721  1.3312
 2454WAT     H2 7574   2.716   1.729   1.982  0.2426  1.0591 -0.2323
 2455WAT      O 7575   1.290   0.362   2.595 -0.0580  0.4449 -0.3875
 2455WAT     H1 7576   1.360   0.396   2.650 -1.8436 -0.2923  2.5822
 2455WAT     H2 7577   1.316   0.273   2.575  0.4603  0.6137 -0.4849
 2456WAT      O 7578   2.635   4.938   2.336 -0.2918  0.1301  0.0558
 2456WAT     H1 7579   2.543   4.946   2.362 -0.3983 -0.7340 -0.0367
 2456WAT     H2 7580   2.667   5.029   2.333 -0.8368  0.3711  1.1583
 2457WAT      O 7581   2.734   3.722   0.782  0.5825 -0.2138 -0.2296
 2457WAT     H1 7582   2.773   3.756   0.702  1.1029 -0.6486 -0.1658
 2457WAT     H2 7583   2.675   3.653   0.753  2.4303 -1.9184 -0.1217
 2458WAT      O 7584   1.793   2.555   1.716 -0.1339 -0.3951  0.5072
 2458WAT     H1 7585   1.771   2.618   1.786 -0.6449  0.5611 -0.4861
 2458WAT     H2 7586   1.710   2.514   1.694  0.2947 -1.9051  1.5660
 2459WAT      O 7587   1.553   2.590   2.792 -0.4017 -0.1304  0.6372
 2459WAT     H1 7588   1.624   2.526   2.792  2.5820  2.8861  1.5262
 2459WAT     H2 7589   1.556   2.629   2.880 -0.4723  2.7492 -0.5198
 2460WAT      O 7590   3.106   1.702   4.413 -0.4269 -0.2652 -0.1445
 2460WAT     H1 7591   3.020   1.741   4.431  0.0083 -0.1049  1.8417
 2460WAT     H2 7592   3.090   1.641   4.341 -1.4992  2.2295 -2.1967
 2461WAT      O 7593   4.418   2.009   3.596 -0.0692  0.1840  0.1915
 2461WAT     H1 7594   4.423   2.017   3.692  0.8546 -0.1438  0.1825
 2461WAT     H2 7595   4.474   2.079   3.563 -1.4283  1.1458 -0.1644
 2462WAT      O 7596   0.082   4.807   0.182 -0.2719  0.1721  0.5223
 2462WAT     H1 7597   0.170   4.774   0.162 -0.0396 -0.1071  1.9061
 2462WAT     H2 7598   0.059   4.764   0.264 -1.4275  0.7776  0.5257
 2463WAT      O 7599   2.931   0.269   4.127 -0.0170  0.3166  0.3619
 2463WAT     H1 7600   3.013   0.219   4.135 -0.1770 -0.2032 -0.9212
 2463WAT     H2 7601   2.883   0.224   4.057 -1.1617  0.9515  0.7210
 2464WAT      O 7602   2.119   3.835   1.204  0.3359  0.4435 -0.2727
 2464WAT     H1 7603   2.146   3.911   1.255  0.9431  0.1763 -0.1862
 2464WAT     H2 7604   2.102   3.767   1.269 -0.1139  0.4730 -0.3545
 2465WAT      O 7605   3.787   2.467   3.091  0.4816  0.3486 -0.0668
 2465WAT     H1 7606   3.867   2.515   3.071 -0.0883  1.2800 -0.1716
 2465WAT     H2 7607   3.744   2.456   3.006  0.5449 -0.2353 -0.0257
 2466WAT      O 7608   0.271   0.653   2.011  0.1696  0.1259 -0.6392
 2466WAT     H1 7609   0.311   0.740   2.022 -0.1416  0.3067 -0.9431
 2466WAT     H2 7610   0.335   0.604   1.960 -0.4360  0.7345 -2.0215
 2467WAT      O 7611   1.463   2.913   0.036  0.4809  0.4505 -0.3145
 2467WAT     H1 7612   1.407   2.983   0.069 -0.1693  0.1838 -0.8278
 2467WAT     H2 7613   1.481   2.859   0.113 -0.7818 -0.0063 -0.3058
 2468WAT      O 7614   3.397   4.831   2.026 -0.0217 -0.6235 -0.1357
 2468WAT     H1 7615   3.381   4.742   1.996  0.2821 -0.4606 -0.7918
 2468WAT     H2 7616   3.327   4.883   1.985  0.4847 -0.3756 -0.7107
 2469WAT      O 7617   3.236   0.125   0.721  0.1633  0.1175  0.1255
 2469WAT     H1 7618   3.255   0.216   0.739  0.7316 -0.1473  0.8892
 2469WAT     H2 7619   3.321   0.086   0.700 -0.1838 -0.0597 -1.0194
 2470WAT      O 7620   2.328   4.337   2.929  0.3060  0.3670  0.8772
 2470WAT     H1 7621   2.286   4.255   2.956 -0.0651 -0.1454 -1.0589
 2470WAT     H2 7622   2.300   4.402   2.993  1.6870 -1.2497  3.2486
 2471WAT      O 7623   3.871   0.437   1.730  0.2744  0.5856  0.1582
 2471WAT     H1 7624   3.868   0.381   1.653 -1.6788  1.0557 -0.1635
 2471WAT     H2 7625   3.862   0.377   1.804 -0.5935  0.3364 -0.1336
 2472WAT      O 7626   3.258   2.706   0.187  0.3984 -0.1018 -0.4452
 2472WAT     H1 7627   3.333   2.650   0.166 -0.6504 -2.4083  1.4459
 2472WAT     H2 7628   3.217   2.663   0.262 -2.5981  1.2876 -1.1507
 2473WAT      O 7629   2.229   4.676   0.099 -0.0348  0.9511 -0.2112
 2473WAT     H1 7630   2.288   4.602   0.119 -0.6525  0.4911 -0.0545
 2473WAT     H2 7631   2.226   4.678   0.003 -0.7290  0.1777 -0.2204
 2474WAT      O 7632   1.877   4.961   2.614  0.0593  0.0448  0.0975
 2474WAT     H1 7633   1.834   4.955   2.699 -0.7728 -0.2115 -0.3334
 2474WAT     H2 7634   1.914   5.049   2.613  0.2792 -0.0295  0.8153
 2475WAT      O 7635   1.227   1.290   3.408  0.6799  0.0182 -0.1070
 2475WAT     H1 7636   1.304   1.274   3.463  0.5237 -0.7100 -0.0941
 2475WAT     H2 7637   1.154   1.293   3.469  0.5237 -0.6497 -0.2581
 2476WAT      O 7638   2.333   5.030   0.562  0.5320  0.0816 -0.2046
 2476WAT     H1 7639   2.263   4.965   0.571 -0.2118  0.8666 -0.1494
 2476WAT     H2 7640   2.316   5.094   0.632  0.7794  0.7413 -0.7293
 2477WAT      O 7641   2.774   3.006   4.950  0.0587 -0.6140 -0.0805
 2477WAT     H1 7642   2.794   2.981   4.860 -1.1175  0.4891 -0.6834
 2477WAT     H2 7643   2.704   3.071   4.941  0.5839  0.2113  1.5786
 2478WAT      O 7644   2.607   0.086   4.360 -0.5823  0.5271 -0.5869
 2478WAT     H1 7645   2.615   0.035   4.440 -3.4557  1.7049  0.5854
 2478WAT     H2 7646   2.669   0.158   4.371 -0.6331  0.4263  0.3633
 2479WAT      O 7647   3.365   2.648   1.844 -0.1564  0.6364  0.1747
 2479WAT     H1 7648   3.435   2.617   1.786 -0.9472  0.3082 -0.6135
 2479WAT     H2 7649   3.355   2.741   1.822  0.5290  0.8791  0.8197
 2480WAT      O 7650   1.198   1.065   2.711  0.5289  0.5538 -0.2228
 2480WAT     H1 7651   1.234   0.991   2.661  0.9959  1.0519 -0.6472
 2480WAT     H2 7652   1.159   1.121   2.644 -2.4224 -0.6525  0.3268
 2481WAT      O 7653   1.686   4.363   2.462 -0.1822  0.1241 -0.5922
 2481WAT     H1 7654   1.658   4.442   2.415  0.3701  1.7975  1.7252
 2481WAT     H2 7655   1.768   4.337   2.420 -0.3752  0.7702 -1.3901
 2482WAT      O 7656   2.668   0.943   0.602 -0.1307  0.0826 -0.3601
 2482WAT     H1 7657   2.755   0.917   0.632 -0.1579 -1.8809 -1.7454
 2482WAT     H2 7658   2.614   0.865   0.615 -2.2314  1.8149  2.2039
 2483WAT      O 7659   0.418   0.121   2.147  0.0877  0.0368 -0.1092
 2483WAT     H1 7660   0.432   0.043   2.094 -0.4391 -0.2349  0.1469
 2483WAT     H2 7661   0.454   0.098   2.233  0.1078  0.1489 -0.0865
 2484WAT      O 7662   3.532   4.123   1.154  0.8321 -0.1253 -0.4774
 2484WAT     H1 7663   3.621   4.094   1.176  0.4086 -0.6747  0.5857
 2484WAT     H2 7664   3.486   4.043   1.128  0.2820 -0.0773  0.3008
 2485WAT      O 7665   1.527   4.949   4.560 -0.2096 -0.0004 -0.3602
 2485WAT     H1 7666   1.603   4.961   4.616  0.5742  0.4602 -1.4873
 2485WAT     H2 7667   1.512   5.036   4.521 -1.3491 -0.0656 -0.1107
 2486WAT      O 7668   4.374   3.896   2.166  0.2058  0.0345  0.1441
 2486WAT     H1 7669   4.383   3.953   2.089  0.8257 -0.1090  0.1035
 2486WAT     H2 7670   4.323   3.822   2.134 -0.8693  0.7014  0.2769
 2487WAT      O 7671   3.778   0.345   0.894  0.1496 -0.1548 -0.0762
 2487WAT     H1 7672   3.820   0.398   0.962  1.0052 -0.1246 -0.6098
 2487WAT     H2 7673   3.851   0.309   0.844 -0.4059 -1.9998  0.3737
 2488WAT      O 7674   4.376   1.007   0.292  0.4528  0.6921 -0.6912
 2488WAT     H1 7675   4.470   0.999   0.277  0.7581  3.0156 -0.4944
 2488WAT     H2 7676   4.336   0.958   0.221  1.7722 -1.0691 -0.2895
 2489WAT      O 7677   3.109   3.568   2.361  0.2632  0.1976 -0.2855
 2489WAT     H1 7678   3.113   3.536   2.451  2.6156  2.8363  0.6867
 2489WAT     H2 7679   3.019   3.598   2.349 -0.1822 -0.5642  1.0044
 2490WAT      O 7680   2.002   3.229   2.216  0.2318  0.6220  0.0742
 2490WAT     H1 7681   2.058   3.296   2.253 -0.3984  0.8203  0.7084
 2490WAT     H2 7682   2.054   3.189   2.147  1.0587  0.9522  0.4898
 2491WAT      O 7683   3.922   1.562   3.874 -0.3578 -0.2684  0.2052
 2491WAT     H1 7684   3.966   1.575   3.958  0.1919  0.3091 -0.1695
 2491WAT     H2 7685   3.853   1.498   3.894  0.9610 -1.5945  0.6975
 2492WAT      O 7686   2.030   2.931   4.937  0.3622 -0.4216  0.0186
 2492WAT     H1 7687   2.076   2.869   4.882  0.0606 -1.2921  0.7258
 2492WAT     H2 7688   2.091   2.952   5.007  0.1296 -0.6356  0.2879
 2493WAT      O 7689   1.570   3.954   4.086  0.3859  0.0952 -0.2112
 2493WAT     H1 7690   1.542   3.895   4.157 -0.2744 -1.9778 -2.0511
 2493WAT     H2 7691   1.630   4.015   4.128  0.2579 -1.2044  2.0763
 2494WAT      O 7692   1.492   0.073   4.463 -0.3162 -0.0238  0.2992
 2494WAT     H1 7693   1.483   0.071   4.368 -0.9936  2.1139  0.2664
 2494WAT     H2 7694   1.429   0.140   4.492  1.7192  1.2947  1.9956
 2495WAT      O 7695   2.504   0.857   2.575 -0.1737  0.3244 -0.7170
 2495WAT     H1 7696   2.584   0.896   2.609 -0.1008  0.5225 -1.1046
 2495WAT     H2 7697   2.515   0.859   2.480  0.1300 -1.3081 -0.7381
 2496WAT      O 7698   1.523   4.194   4.841 -0.0132 -0.5089 -0.5519
 2496WAT     H1 7699   1.436   4.155   4.854 -0.3288 -0.0244 -1.1737
 2496WAT     H2 7700   1.521   4.275   4.893 -0.0524 -0.3314 -0.8290
 2497WAT      O 7701   1.056   0.600   4.099 -0.5937  0.4980  0.1467
 2497WAT     H1 7702   1.097   0.620   4.015 -0.7819  0.3720  0.0243
 2497WAT     H2 7703   1.085   0.511   4.120  0.9834  1.1945  1.1319
 2498WAT      O 7704   0.293   4.622   2.129 -0.2469  0.0969 -0.0483
 2498WAT     H1 7705   0.319   4.621   2.222  0.6202 -3.2614 -0.2198
 2498WAT     H2 7706   0.356   4.682   2.089  0.9378 -0.2634  1.1735
 2499WAT      O 7707   1.102   1.368   3.674  0.0574 -0.6917  0.1713
 2499WAT     H1 7708   1.156   1.437   3.713 -0.0685 -0.5991  0.1821
 2499WAT     H2 7709   1.055   1.412   3.603  0.2114 -0.8365 -0.0212
 2500WAT      O 7710   0.136   4.077   4.508  0.1364 -0.0619  0.1959
 2500WAT     H1 7711   0.045   4.052   4.495 -0.0855  1.0040 -0.4654
 2500WAT     H2 7712   0.136   4.126   4.590  0.2171 -0.4759  0.4499
 2501WAT      O 7713   4.293   3.643   5.119  0.0264  0.4738  0.0795
 2501WAT     H1 7714   4.343   3.661   5.040 -0.8709  1.8883 -0.2036
 2501WAT     H2 7715   4.310   3.718   5.176 -0.3344  0.0829  0.7138
 2502WAT      O 7716   0.819   2.473   4.216 -0.2629  0.5205  0.0686
 2502WAT     H1 7717   0.763   2.411   4.263 -0.0678 -0.1759 -0.5929
 2502WAT     H2 7718   0.879   2.418   4.166 -0.1031  1.2455 -0.5610
 2503WAT      O 7719   2.345   5.111   3.151 -0.2350  0.4312 -0.1887
 2503WAT     H1 7720   2.416   5.056   3.183  0.3929  0.9169 -0.7152
 2503WAT     H2 7721   2.267   5.078   3.195  0.1310 -0.8647 -0.4832
 2504WAT      O 7722   0.594   1.130   2.864 -0.3198 -0.3738  0.4129
 2504WAT     H1 7723   0.687   1.114   2.878 -0.0711  0.5538 -0.1185
 2504WAT     H2 7724   0.571   1.198   2.928 -0.0614  1.1162 -1.0281
 2505WAT      O 7725   1.974   0.724   2.564  0.2635 -0.5083 -0.6800
 2505WAT     H1 7726   1.890   0.691   2.596 -0.5816  0.2836 -1.9726
 2505WAT     H2 7727   1.954   0.813   2.534  1.5646 -0.3248 -1.0497
 2506WAT      O 7728   3.732   4.538   1.101  0.4529 -0.1664 -0.4940
 2506WAT     H1 7729   3.713   4.465   1.042  0.7092  0.0410 -0.8429
 2506WAT     H2 7730   3.797   4.590   1.054  1.6643 -0.7017  0.5344
 2507WAT      O 7731   3.243   1.368   0.598  0.1720  0.8603 -0.0014
 2507WAT     H1 7732   3.192   1.366   0.679  0.7338 -0.7227  0.3564
 2507WAT     H2 7733   3.188   1.416   0.536 -1.3110  0.0990  0.6648
 2508WAT      O 7734   1.352   0.458   1.633  0.3986 -0.0346 -0.1415
 2508WAT     H1 7735   1.395   0.461   1.548  0.4119  1.9861 -0.1087
 2508WAT     H2 7736   1.261   0.482   1.615 -0.0792 -1.4910  0.1810
 2509WAT      O 7737   0.230   0.418   2.747 -0.2468 -0.1151 -0.0184
 2509WAT     H1 7738   0.293   0.479   2.710 -2.6293  0.4373 -3.5565
 2509WAT     H2 7739   0.224   0.444   2.839  1.5251  2.5220 -0.5269
 2510WAT      O 7740   4.484   4.119   1.092  0.2339  0.3146 -0.4435
 2510WAT     H1 7741   4.553   4.079   1.145 -0.7823 -0.0092  0.6668
 2510WAT     H2 7742   4.486   4.211   1.115 -0.0214  0.2221 -0.0493
 2511WAT      O 7743   0.850   3.666   0.702  0.1713 -0.2379 -0.3731
 2511WAT     H1 7744   0.922   3.603   0.711  0.6076  0.3901  0.7353
 2511WAT     H2 7745   0.887   3.738   0.652 -0.5956 -1.2006 -2.4757
 2512WAT      O 7746   4.359   4.946   1.844  0.1676  0.5064  0.3024
 2512WAT     H1 7747   4.412   4.892   1.903  1.5292 -0.8131 -1.9394
 2512WAT     H2 7748   4.275   4.900   1.839  0.0476  0.6183  1.1708
 2513WAT      O 7749   0.933   3.348   5.133  0.1159  0.7174  0.0457
 2513WAT     H1 7750   1.002   3.337   5.199  0.4085  1.1275 -0.1889
 2513WAT     H2 7751   0.969   3.413   5.072 -0.0547  0.1517 -0.6577
 2514WAT      O 7752   4.342   2.545   4.553 -0.0796  0.0377  0.3443
 2514WAT     H1 7753   4.301   2.464   4.585  2.1269 -1.2438  0.0959
 2514WAT     H2 7754   4.350   2.532   4.459  2.8166 -0.7741  0.6069
 2515WAT      O 7755   4.295   4.901   0.384  0.0688  1.0476 -0.3108
 2515WAT     H1 7756   4.390   4.896   0.395  0.1066  1.9201 -0.1414
 2515WAT     H2 7757   4.281   4.888   0.290  0.3586  1.0057 -0.3498
 2516WAT      O 7758   3.360   0.411   4.700 -0.2031 -0.0677 -0.1389
 2516WAT     H1 7759   3.449   0.388   4.725  0.7498  0.9144 -2.3450
 2516WAT     H2 7760   3.358   0.400   4.605 -2.1541  0.8664 -0.2689
 2517WAT      O 7761   3.827   4.921   4.575  0.0576 -0.2531  0.0812
 2517WAT     H1 7762   3.861   4.846   4.525  0.9333  0.2357 -0.0864
 2517WAT     H2 7763   3.735   4.900   4.591  0.1072 -1.0284 -0.5927
 2518WAT      O 7764   0.991   4.847   2.296  0.2438  0.2780  0.0891
 2518WAT     H1 7765   0.973   4.829   2.203  0.5293 -0.0978  0.1050
 2518WAT     H2 7766   1.086   4.842   2.304  0.1796 -0.3882  0.5364
 2519WAT      O 7767   1.059   3.340   2.623 -0.1348 -0.5720 -1.3330
 2519WAT     H1 7768   1.146   3.300   2.613  0.6654  0.9707 -0.7858
 2519WAT     H2 7769   1.059   3.412   2.560 -0.1812  0.7777  0.1793
 2520WAT      O 7770   2.852   2.438   3.322  0.0847 -0.1819  0.2432
 2520WAT     H1 7771   2.925   2.427   3.382 -0.5055  0.6539  1.1645
 2520WAT     H2 7772   2.828   2.531   3.331 -1.0023 -0.4080 -0.1148
 2521WAT      O 7773   3.695   1.436   2.121  0.4050  0.3722 -0.1411
 2521WAT     H1 7774   3.658   1.378   2.187  0.5183  0.8534  0.3536
 2521WAT     H2 7775   3.620   1.483   2.084  0.3656  0.2698 -0.1899
 2522WAT      O 7776   3.275   2.598   2.602 -0.4813 -0.5473  0.0465
 2522WAT     H1 7777   3.313   2.529   2.547 -0.2921 -0.9113  0.6223
 2522WAT     H2 7778   3.182   2.598   2.580 -0.6391 -1.5689  0.6414
 2523WAT      O 7779   1.690   0.664   1.541  0.1824  0.1722 -0.3663
 2523WAT     H1 7780   1.640   0.730   1.494  0.1538 -0.9186 -1.9160
 2523WAT     H2 7781   1.656   0.580   1.510  1.7684 -0.5870 -0.1604
 2524WAT      O 7782   1.481   1.477   2.694  0.2570  0.1684  0.9381
 2524WAT     H1 7783   1.463   1.569   2.676  0.1504 -0.3296 -2.1119
 2524WAT     H2 7784   1.505   1.475   2.787 -2.7902  2.7430  1.9546
 2525WAT      O 7785   1.878   0.789   2.902  0.6186  0.5666 -0.2054
 2525WAT     H1 7786   1.891   0.882   2.880 -1.1302  1.2273  1.3075
 2525WAT     H2 7787   1.842   0.751   2.822 -0.2277  1.5964 -0.3471
 2526WAT      O 7788   0.627   1.421   0.179 -0.8911 -0.3090 -0.7592
 2526WAT     H1 7789   0.557   1.379   0.129 -1.0482 -0.9898  0.0141
 2526WAT     H2 7790   0.660   1.353   0.237 -1.2528  0.6469  0.6343
 2527WAT      O 7791   0.304   1.727   2.178  0.6725  0.1246  0.0641
 2527WAT     H1 7792   0.305   1.763   2.090  1.7009  0.6465  0.2820
 2527WAT     H2 7793   0.369   1.778   2.227 -1.2906  1.2488  1.6839
 2528WAT      O 7794   0.072   0.691   1.189  0.1966 -0.2553 -0.5495
 2528WAT     H1 7795  -0.007   0.642   1.214 -0.4773  0.9918 -0.1595
 2528WAT     H2 7796   0.104   0.728   1.271  0.7590 -0.1272 -0.8236
 2529WAT      O 7797   2.606   1.371   0.269  0.0547  0.1187  0.3954
 2529WAT     H1 7798   2.620   1.277   0.260  0.7256  0.2532 -0.0582
 2529WAT     H2 7799   2.514   1.380   0.292 -0.2736 -0.5845 -0.5979
 2530WAT      O 7800   2.148   2.653   1.349  0.1050  0.1260  0.2596
 2530WAT     H1 7801   2.239   2.648   1.380 -0.1580  0.5611  1.0979
 2530WAT     H2 7802   2.099   2.687   1.423 -0.7318  0.0114 -0.2363
 2531WAT      O 7803   1.523   4.694   1.177 -0.2139  0.2009  0.2084
 2531WAT     H1 7804   1.593   4.662   1.234  0.3311  1.6782  0.3939
 2531WAT     H2 7805   1.477   4.759   1.229 -1.2713 -0.2207 -0.1770
 2532WAT      O 7806   1.946   0.817   4.549 -0.8727  0.5550 -0.0957
 2532WAT     H1 7807   1.975   0.771   4.470 -0.8910 -1.4600  0.9902
 2532WAT     H2 7808   2.025   0.861   4.581  0.2369 -1.9223  0.8739
 2533WAT      O 7809   2.044   2.768   0.609 -0.3616 -0.1456 -0.1315
 2533WAT     H1 7810   2.038   2.820   0.689 -0.8569 -1.4508  0.6997
 2533WAT     H2 7811   2.054   2.833   0.539 -1.9921  1.1403  0.7626
 2534WAT      O 7812   1.773   1.607   2.255 -0.6614  0.3535 -0.2895
 2534WAT     H1 7813   1.845   1.581   2.198 -2.0362 -1.1031 -1.4582
 2534WAT     H2 7814   1.813   1.664   2.321  1.7849 -1.4479 -0.0982
 2535WAT      O 7815   1.717   3.392   0.533  0.2819 -0.0969  0.3368
 2535WAT     H1 7816   1.800   3.438   0.521  0.3493  0.0723  1.3799
 2535WAT     H2 7817   1.691   3.411   0.623 -1.2574  0.4502 -0.1861
 2536WAT      O 7818   0.349   2.834   3.585  0.3978  0.2326  0.2230
 2536WAT     H1 7819   0.346   2.749   3.630  1.5828  0.4269  0.7218
 2536WAT     H2 7820   0.427   2.829   3.529  0.4462  0.9640  0.2103
 2537WAT      O 7821   3.681   3.430   1.685 -0.0006  0.8551  0.5721
 2537WAT     H1 7822   3.602   3.431   1.631  0.3647  0.8910  0.0257
 2537WAT     H2 7823   3.696   3.522   1.708  0.0733  0.8916  0.3831
 2538WAT      O 7824   1.538   3.532   3.462  0.2708  0.3303 -0.6776
 2538WAT     H1 7825   1.586   3.478   3.525  0.4954  1.6334  0.3278
 2538WAT     H2 7826   1.585   3.615   3.462 -2.5117  2.0831  1.1906
 2539WAT      O 7827   2.667   0.441   3.108  0.0852 -0.1604  0.0968
 2539WAT     H1 7828   2.640   0.356   3.071  0.1823  0.4909 -1.5922
 2539WAT     H2 7829   2.587   0.493   3.107  0.4555  0.4216 -0.9002
 2540WAT      O 7830   2.063   4.996   1.026  0.2941 -0.3388  0.7862
 2540WAT     H1 7831   2.110   5.037   0.953  2.4090 -2.4025  0.8571
 2540WAT     H2 7832   2.133   4.971   1.088 -1.0095 -2.3620  1.5511
 2541WAT      O 7833   2.919   0.144   1.152 -0.3184 -0.5593  0.1934
 2541WAT     H1 7834   2.825   0.129   1.152 -0.1038 -2.1098  0.2814
 2541WAT     H2 7835   2.947   0.119   1.063 -0.0806  0.5870 -0.0630
 2542WAT      O 7836   1.238   4.552   1.245  0.0308  0.1918 -0.1546
 2542WAT     H1 7837   1.333   4.538   1.254  0.0435 -0.6897 -1.3984
 2542WAT     H2 7838   1.230   4.623   1.181 -0.1431  0.8173  0.5563
 2543WAT      O 7839   0.223   1.722   1.816 -0.4057  0.1481  0.1327
 2543WAT     H1 7840   0.283   1.788   1.850  0.1177 -0.7914  1.1066
 2543WAT     H2 7841   0.144   1.732   1.869 -0.6796  0.5970 -0.3500
 2544WAT      O 7842   2.779   0.012   1.577  0.4478  0.0701 -0.4553
 2544WAT     H1 7843   2.759   0.059   1.496  0.6930  0.8065 -0.0998
 2544WAT     H2 7844   2.703  -0.044   1.592 -0.5132  1.4109 -0.1323
 2545WAT      O 7845   0.681   0.906   2.232  0.4928 -0.5791  0.0230
 2545WAT     H1 7846   0.595   0.925   2.271  1.2339  0.7329  1.1283
 2545WAT     H2 7847   0.674   0.937   2.142  0.1207  0.5714  0.4194
 2546WAT      O 7848   1.071   3.213   3.232  0.1497 -0.2141  0.4211
 2546WAT     H1 7849   1.059   3.129   3.187  1.3003  0.8819 -2.1141
 2546WAT     H2 7850   0.986   3.256   3.224  0.3844  0.0377 -0.9450
 2547WAT      O 7851   1.921   2.119   1.757  0.5758 -0.0843 -0.0776
 2547WAT     H1 7852   2.012   2.128   1.727  0.5727  0.8076  0.1489
 2547WAT     H2 7853   1.869   2.136   1.679  0.5865  1.0964  0.1563
 2548WAT      O 7854   0.817   3.384   2.752  0.1469  0.0394 -0.2602
 2548WAT     H1 7855   0.748   3.369   2.687  0.7951  0.8834 -1.1912
 2548WAT     H2 7856   0.896   3.350   2.711  0.2940 -0.9327  0.8042
 2549WAT      O 7857   2.655   4.785   4.552 -0.9225  0.7429  0.0645
 2549WAT     H1 7858   2.738   4.764   4.510 -0.5578  0.5057  0.8850
 2549WAT     H2 7859   2.650   4.726   4.627 -2.3758 -0.0584 -0.6061
 2550WAT      O 7860   3.367   3.730   0.811 -0.2883  0.1604 -0.0845
 2550WAT     H1 7861   3.424   3.716   0.736 -0.6703  0.7584 -0.4930
 2550WAT     H2 7862   3.285   3.687   0.788  0.7170 -2.8804  1.5109
 2551WAT      O 7863   2.550   0.270   4.186 -0.1518 -0.1804  0.1466
 2551WAT     H1 7864   2.565   0.336   4.253  0.4268  0.2297 -0.3708
 2551WAT     H2 7865   2.548   0.187   4.233 -2.7595  0.3068  1.0832
 2552WAT      O 7866   1.679   1.038   5.056  0.1270  0.4253 -0.3302
 2552WAT     H1 7867   1.702   0.974   5.123  0.7309 -0.5552 -1.4487
 2552WAT     H2 7868   1.722   1.008   4.977  1.3209  2.7988 -0.6803
 2553WAT      O 7869   4.247   2.452   2.801 -0.0569 -0.1729 -0.4959
 2553WAT     H1 7870   4.215   2.376   2.752  0.9979 -0.4015 -0.8554
 2553WAT     H2 7871   4.254   2.521   2.736 -0.8649  0.1934 -0.1992
 2554WAT      O 7872   1.431   2.766   1.632 -0.6579  0.1111  0.3103
 2554WAT     H1 7873   1.430   2.690   1.690 -0.6129  0.8278  1.2759
 2554WAT     H2 7874   1.411   2.730   1.546  1.0433 -1.2575  0.4108
 2555WAT      O 7875   4.238   3.205   1.690 -0.0435  0.0002 -0.2981
 2555WAT     H1 7876   4.246   3.125   1.639  2.4675  1.1568 -1.9208
 2555WAT     H2 7877   4.311   3.201   1.752 -1.3854 -0.0603  1.3554
 2556WAT      O 7878   2.083   4.640   0.321  0.2197 -0.6513  0.2619
 2556WAT     H1 7879   2.116   4.672   0.238 -0.8811 -1.3735 -0.4890
 2556WAT     H2 7880   2.105   4.708   0.384  1.7154 -0.4218 -0.4729
 2557WAT      O 7881   4.017   2.667   4.161  0.1965 -0.7301 -0.2159
 2557WAT     H1 7882   4.045   2.615   4.085 -4.3400 -2.5666 -0.9168
 2557WAT     H2 7883   4.006   2.603   4.231 -0.9745  0.0485  0.3331
 2558WAT      O 7884   2.152   2.881   1.760 -0.1779  0.0588  0.4709
 2558WAT     H1 7885   2.182   2.970   1.745  1.0920 -0.4722 -0.3507
 2558WAT     H2 7886   2.225   2.838   1.804 -0.4722 -0.7697  0.1831
 2559WAT      O 7887   4.330   4.191   4.551 -0.3042  0.2326 -0.2758
 2559WAT     H1 7888   4.258   4.147   4.505  0.0411 -1.2227  0.5110
 2559WAT     H2 7889   4.343   4.139   4.630 -0.1131  1.9887  0.9127
 2560WAT      O 7890   1.897   5.018   5.000 -0.0258  0.4977  0.0979
 2560WAT     H1 7891   1.838   5.065   5.058  0.1824 -0.1025  0.8143
 2560WAT     H2 7892   1.921   5.082   4.933 -0.7993  0.9985  0.2888
 2561WAT      O 7893   3.227   2.326   2.418 -0.2706  0.3678 -0.2522
 2561WAT     H1 7894   3.196   2.258   2.478 -0.3744  2.0291  1.7132
 2561WAT     H2 7895   3.318   2.303   2.400  0.1990  0.5265  1.7091
 2562WAT      O 7896   1.996   1.338   2.297 -0.1938 -0.3802  0.2801
 2562WAT     H1 7897   1.960   1.366   2.213 -1.4011 -0.9739  0.5701
 2562WAT     H2 7898   2.087   1.317   2.279 -0.4958 -0.6973 -0.9376
 2563WAT      O 7899   2.316   2.927   1.440  0.5678 -0.8205 -0.0517
 2563WAT     H1 7900   2.347   2.841   1.409  0.9851 -0.6569 -0.0879
 2563WAT     H2 7901   2.222   2.916   1.449  0.1573 -0.4244 -2.9171
 2564WAT      O 7902   4.119   0.810   0.094 -0.0618  0.3978 -0.1025
 2564WAT     H1 7903   4.093   0.789   0.184  0.2591 -1.6101 -0.4230
 2564WAT     H2 7904   4.211   0.785   0.090  0.3942  2.0381 -0.5630
 2565WAT      O 7905   2.106   1.431   3.639 -0.2853 -1.1148  0.8116
 2565WAT     H1 7906   2.029   1.408   3.587 -0.7608 -1.6838  1.7319
 2565WAT     H2 7907   2.174   1.449   3.575 -1.3905  0.1852 -0.0527
 2566WAT      O 7908   3.294   0.026   3.020  0.1857  0.1226  0.3842
 2566WAT     H1 7909   3.234   0.050   2.949  0.2758 -0.8280 -0.0286
 2566WAT     H2 7910   3.327   0.110   3.052  0.6539  0.5608 -1.1417
 2567WAT      O 7911   0.642   2.194   0.531  0.1687 -0.4911  0.6924
 2567WAT     H1 7912   0.563   2.214   0.581 -0.1633  0.3609 -0.1368
 2567WAT     H2 7913   0.624   2.109   0.490  0.6846 -1.4934  2.4482
 2568WAT      O 7914   4.115   3.783   3.203 -0.1411  0.5837  0.4900
 2568WAT     H1 7915   4.082   3.706   3.248  0.8654  1.1680  2.3305
 2568WAT     H2 7916   4.042   3.844   3.202 -0.6220  0.0170 -0.0506
 2569WAT      O 7917   0.608   2.981   2.187 -0.6496  0.0560  0.1466
 2569WAT     H1 7918   0.692   2.949   2.153 -0.8263  0.3401 -0.5713
 2569WAT     H2 7919   0.554   2.992   2.109 -0.8891  1.2438  0.4668
 2570WAT      O 7920   3.880   2.713   0.320  0.1354  0.5356 -0.1437
 2570WAT     H1 7921   3.932   2.788   0.351 -0.1788 -0.2917  2.6716
 2570WAT     H2 7922   3.819   2.695   0.391 -0.4506 -1.8275 -1.1408
 2571WAT      O 7923   0.932   4.991   1.984 -0.2071  0.7005 -0.4881
 2571WAT     H1 7924   0.842   5.018   1.967 -0.4745 -0.4206 -0.9302
 2571WAT     H2 7925   0.951   4.927   1.916  1.4011  1.9047 -1.2202
 2572WAT      O 7926   0.049   4.888   5.161  0.2287 -0.4712 -0.1192
 2572WAT     H1 7927   0.020   4.845   5.242 -1.6120 -0.9278 -0.9640
 2572WAT     H2 7928  -0.031   4.926   5.125  1.2555  0.8522 -1.0804
 2573WAT      O 7929   2.384   2.642   1.470  0.2543 -0.0973 -0.1816
 2573WAT     H1 7930   2.403   2.661   1.562 -0.3450 -1.9326  0.3760
 2573WAT     H2 7931   2.469   2.618   1.433  0.3822 -0.0947  0.1035
 2574WAT      O 7932   1.075   2.343   4.441 -0.2958  0.3318  0.2467
 2574WAT     H1 7933   1.118   2.428   4.450 -1.4043  1.0017 -0.5361
 2574WAT     H2 7934   1.132   2.282   4.489  1.7277  1.0858 -1.0558
 2575WAT      O 7935   0.188   1.745   3.219 -0.6720  0.1079 -0.5827
 2575WAT     H1 7936   0.135   1.715   3.145 -2.1084 -1.0247  0.8551
 2575WAT     H2 7937   0.179   1.840   3.218 -1.3165  0.0485 -1.3936
 2576WAT      O 7938   4.165   0.831   2.772 -0.9678 -0.0690  0.6213
 2576WAT     H1 7939   4.247   0.879   2.779 -1.2838  0.7160 -0.7090
 2576WAT     H2 7940   4.106   0.874   2.833 -0.8488  0.3703  0.4266
 2577WAT      O 7941   0.978   0.388   2.981  0.1136  0.1766 -0.0808
 2577WAT     H1 7942   0.952   0.480   2.981  0.2377  0.2119 -0.1850
 2577WAT     H2 7943   0.995   0.368   2.889  2.0848  0.6108  0.1437
 2578WAT      O 7944   2.209   2.330   2.917 -0.6009 -0.6204 -0.4571
 2578WAT     H1 7945   2.171   2.244   2.932 -1.0581 -0.5091 -0.9414
 2578WAT     H2 7946   2.171   2.386   2.985 -1.3941 -0.4892 -0.9897
 2579WAT      O 7947   2.851   1.648   3.476 -0.4437  0.0810 -0.2293
 2579WAT     H1 7948   2.923   1.712   3.472  0.4508 -0.9127 -0.4683
 2579WAT     H2 7949   2.793   1.682   3.544 -0.4083  1.5769 -0.9144
 2580WAT      O 7950   0.546   1.115   1.345  0.2325  0.5553  0.5851
 2580WAT     H1 7951   0.552   1.120   1.440 -0.1060 -1.3656  0.7540
 2580WAT     H2 7952   0.540   1.206   1.316  0.6236  1.1830  2.3691
 2581WAT      O 7953   1.408   1.543   4.480  0.1910  0.4009  0.4273
 2581WAT     H1 7954   1.371   1.473   4.427 -0.7787  1.1277  0.1315
 2581WAT     H2 7955   1.478   1.500   4.530  0.4920 -0.4879 -0.7245
 2582WAT      O 7956   3.636   1.012   4.862  0.5704  0.5726  0.3024
 2582WAT     H1 7957   3.684   0.972   4.790 -0.0720 -0.4459  0.4232
 2582WAT     H2 7958   3.699   1.072   4.902  1.5960 -0.3810  0.1684
 2583WAT      O 7959   2.967   1.631   5.116 -0.3762  0.5632  0.0605
 2583WAT     H1 7960   2.882   1.630   5.160 -0.4777 -1.6421 -0.0533
 2583WAT     H2 7961   2.949   1.672   5.031 -1.3925 -0.0456 -0.0400
 2584WAT      O 7962   0.814   1.398   4.938  0.6519 -0.0857  0.9635
 2584WAT     H1 7963   0.734   1.445   4.961  0.1087 -0.4022 -0.2039
 2584WAT     H2 7964   0.884   1.461   4.955  0.0815  0.5130  1.1519
 2585WAT      O 7965   1.855   4.908   0.861 -0.7005 -0.0127 -0.5380
 2585WAT     H1 7966   1.913   4.933   0.932 -0.5858  2.9218 -1.5293
 2585WAT     H2 7967   1.795   4.982   0.851 -0.5640 -0.1773 -3.6083
 2586WAT      O 7968   3.478   2.311   4.465  0.1136  0.0316  0.4709
 2586WAT     H1 7969   3.524   2.307   4.549  0.7290  0.5377  0.1698
 2586WAT     H2 7970   3.469   2.404   4.447 -0.5541 -0.0686  0.2576
 2587WAT      O 7971   0.265   5.107   4.347 -0.8231  0.2196 -0.4993
 2587WAT     H1 7972   0.293   5.198   4.349 -1.8195  0.5380  0.1634
 2587WAT     H2 7973   0.333   5.059   4.393 -0.0890  0.5589 -1.2104
 2588WAT      O 7974   3.211   0.789   1.977 -0.6652 -0.2460 -0.3016
 2588WAT     H1 7975   3.298   0.771   1.943 -0.4550  1.6238 -0.8622
 2588WAT     H2 7976   3.226   0.848   2.052 -1.4226  0.0039 -0.3363
 2589WAT      O 7977   3.880   1.177   0.706 -0.2256 -0.1933 -0.3185
 2589WAT     H1 7978   3.866   1.183   0.800 -2.5255 -1.9760 -0.4623
 2589WAT     H2 7979   3.966   1.136   0.697 -0.2597 -0.6181  1.0196
 2590WAT      O 7980   0.470   3.373   1.881  0.4729 -0.1001  0.1346
 2590WAT     H1 7981   0.466   3.292   1.931  1.4035 -0.0718  0.2740
 2590WAT     H2 7982   0.527   3.352   1.807  2.0925  0.8603  1.0439
 2591WAT      O 7983   0.147   4.777   3.535  0.3138  0.0403  0.3781
 2591WAT     H1 7984   0.129   4.853   3.590  0.2018 -0.6315  1.2909
 2591WAT     H2 7985   0.065   4.759   3.490  0.4919  0.7815 -0.2808
 2592WAT      O 7986   3.056   1.977   4.654 -0.4790  0.3059  0.0735
 2592WAT     H1 7987   3.049   2.043   4.722  0.4088  0.2139  0.2737
 2592WAT     H2 7988   3.042   2.025   4.572 -0.1275  0.6847  0.2345
 2593WAT      O 7989   3.868   2.595   3.612  0.4522 -0.0866 -0.4094
 2593WAT     H1 7990   3.872   2.542   3.533  1.2128  0.6860 -0.9092
 2593WAT     H2 7991   3.923   2.548   3.675  0.1903 -0.4836 -0.4740
 2594WAT      O 7992   2.393   2.973   0.804 -0.4048  0.0989 -1.0092
 2594WAT     H1 7993   2.449   2.901   0.831  1.2795  0.8166 -2.3579
 2594WAT     H2 7994   2.416   3.044   0.864 -2.1240 -0.4505  0.3747
 2595WAT      O 7995   0.056   0.828   2.007  0.2254  0.1719  0.2227
 2595WAT     H1 7996   0.031   0.832   1.915  0.1108  0.7551  0.2781
 2595WAT     H2 7997   0.115   0.753   2.012 -0.0482 -0.0791 -0.2556
 2596WAT      O 7998   3.660   1.572   4.681 -0.0261  0.0340  0.2299
 2596WAT     H1 7999   3.605   1.621   4.619  0.8737  0.3712 -0.3264
 2596WAT     H2 8000   3.598   1.517   4.729 -0.6233 -1.7501 -2.3146
 2597WAT      O 8001   2.921   0.681   4.689  0.0243 -0.3291  0.6033
 2597WAT     H1 8002   2.984   0.655   4.755  0.9856  2.2995  0.8261
 2597WAT     H2 8003   2.836   0.671   4.731  0.3672 -2.0059  0.9733
 2598WAT      O 8004   1.560   5.069   1.703  0.0443  0.0009 -0.5412
 2598WAT     H1 8005   1.564   5.141   1.640 -1.0153  0.9542  0.4383
 2598WAT     H2 8006   1.645   5.071   1.747 -0.0388  0.7690 -0.4074
 2599WAT      O 8007   1.223   3.959   1.449 -0.5762 -0.0998 -0.2198
 2599WAT     H1 8008   1.234   3.916   1.364 -1.0229  1.1827 -0.9608
 2599WAT     H2 8009   1.128   3.967   1.460 -0.5130  0.0258  0.2562
 2600WAT      O 8010   2.327   5.024   4.915 -0.1478 -0.0959  0.4027
 2600WAT     H1 8011   2.327   5.041   4.820  0.2599  2.1415  0.7490
 2600WAT     H2 8012   2.409   5.063   4.946 -0.4181 -0.5406  1.7383
 2601WAT      O 8013   1.843   4.388   4.437  0.4402  0.9068 -0.2637
 2601WAT     H1 8014   1.883   4.387   4.524  0.7976  2.2769 -0.3860
 2601WAT     H2 8015   1.750   4.373   4.454  0.8150 -1.4615  0.0942
 2602WAT      O 8016   1.003   2.728   2.189 -0.0213 -0.2467 -0.6108
 2602WAT     H1 8017   1.019   2.668   2.116 -1.4838 -0.5086 -0.7393
 2602WAT     H2 8018   0.998   2.671   2.265  2.5803  0.1115 -0.0596
 2603WAT      O 8019   1.292   5.115   1.436 -0.0229 -0.4125 -0.4283
 2603WAT     H1 8020   1.350   5.181   1.398 -0.8496 -0.6591 -2.2141
 2603WAT     H2 8021   1.317   5.112   1.529 -0.6775  3.1762  0.0065
 2604WAT      O 8022   3.405   3.492   3.068 -0.5113  0.3245 -0.0524
 2604WAT     H1 8023   3.349   3.567   3.047  1.1433  1.9829  1.1740
 2604WAT     H2 8024   3.346   3.431   3.113 -1.6178  1.4934  0.1634
 2605WAT      O 8025   0.942   0.069   3.287 -0.1331 -0.5557  0.2888
 2605WAT     H1 8026   0.890  -0.011   3.292  1.3190 -1.4801  1.2632
 2605WAT     H2 8027   1.029   0.043   3.318  1.0762  0.8074 -1.7592
 2606WAT      O 8028   3.236   4.231   2.166 -0.0777 -0.2353  0.3942
 2606WAT     H1 8029   3.158   4.188   2.131 -0.1016  0.4859 -0.4813
 2606WAT     H2 8030   3.203   4.282   2.240  0.0604 -2.2011  1.8985
 2607WAT      O 8031   4.066   2.841   0.097 -0.2588 -0.5269 -0.4585
 2607WAT     H1 8032   3.985   2.830   0.147  0.5895  1.9398  1.6671
 2607WAT     H2 8033   4.118   2.763   0.118 -1.1354 -0.9948  0.0465
 2608WAT      O 8034   2.153   2.789   2.784  0.1677  0.4149  0.2589
 2608WAT     H1 8035   2.073   2.839   2.768 -0.4924  0.1212  2.3671
 2608WAT     H2 8036   2.221   2.855   2.796 -0.3945  0.8020  1.4836
 2609WAT      O 8037   3.332   1.772   2.818  0.0942 -0.6773 -0.0021
 2609WAT     H1 8038   3.274   1.704   2.853  1.2540 -0.9855  1.4276
 2609WAT     H2 8039   3.386   1.727   2.753 -0.5811 -0.6224 -0.6024
 2610WAT      O 8040   0.451   1.118   5.180  0.4534  0.7899  0.4383
 2610WAT     H1 8041   0.513   1.182   5.145  3.1293 -1.8626 -0.0873
 2610WAT     H2 8042   0.501   1.067   5.244 -2.0946  0.3912  2.2710
 2611WAT      O 8043   2.551   3.072   1.389  0.2637  0.0189  0.6484
 2611WAT     H1 8044   2.590   3.069   1.476  0.9308  0.3609  0.3674
 2611WAT     H2 8045   2.460   3.048   1.403  0.4950 -0.4870  1.3630
 2612WAT      O 8046   1.654   4.940   1.388  0.2473  0.5267  0.3025
 2612WAT     H1 8047   1.654   4.998   1.312 -0.5578 -1.4417 -1.3082
 2612WAT     H2 8048   1.742   4.903   1.391 -0.2932 -1.0087 -1.0769
 2613WAT      O 8049   1.794   3.339   1.457  0.2809 -0.6997 -0.5172
 2613WAT     H1 8050   1.778   3.396   1.532 -0.1444  0.4900 -1.4797
 2613WAT     H2 8051   1.874   3.292   1.479  1.0511  0.8017  0.0118
 2614WAT      O 8052   4.453   3.587   3.181  0.2914  0.4493  0.2810
 2614WAT     H1 8053   4.516   3.593   3.110 -1.1005 -1.9350 -1.3053
 2614WAT     H2 8054   4.389   3.522   3.151 -1.9414  1.4219  2.5288
 2615WAT      O 8055   1.217   3.867   0.725  0.3005 -0.6168  0.2298
 2615WAT     H1 8056   1.257   3.845   0.641  1.9552 -1.2549  1.1331
 2615WAT     H2 8057   1.257   3.951   0.750 -1.2019  0.2665 -0.2247
 2616WAT      O 8058   0.921   4.765   0.718  0.1547  0.1897  0.0521
 2616WAT     H1 8059   0.979   4.715   0.776 -0.3997 -0.2020  0.2741
 2616WAT     H2 8060   0.849   4.705   0.698 -1.2694  1.3400  1.4793
 2617WAT      O 8061   3.039   3.145   3.429  0.1011 -0.2489 -0.0206
 2617WAT     H1 8062   3.054   3.081   3.360  1.6763  0.7382 -0.6655
 2617WAT     H2 8063   3.010   3.224   3.383  0.2070  0.1252  0.5377
 2618WAT      O 8064   3.365   3.440   0.847 -0.5266 -0.0424  0.8081
 2618WAT     H1 8065   3.278   3.471   0.822  0.1326  1.0533 -0.2668
 2618WAT     H2 8066   3.361   3.428   0.942 -1.1204  2.4695  1.1654
 2619WAT      O 8067   1.471   1.321   4.255  0.0721  0.3314 -0.0980
 2619WAT     H1 8068   1.391   1.362   4.224  0.2525  2.8435  2.2820
 2619WAT     H2 8069   1.524   1.308   4.177 -1.3735  1.6848 -1.3627
 2620WAT      O 8070   0.480   2.583   1.634 -0.3664  0.2241  0.2580
 2620WAT     H1 8071   0.575   2.573   1.643 -0.1185  2.2818  0.4301
 2620WAT     H2 8072   0.446   2.569   1.722  0.0677  1.8650  0.7190
 2621WAT      O 8073   3.056   0.312   1.327 -0.4300 -0.1696  0.1108
 2621WAT     H1 8074   2.991   0.265   1.275  1.8367 -2.1545 -1.0705
 2621WAT     H2 8075   3.089   0.247   1.389  0.5061  0.7698  0.6300
 2622WAT      O 8076   2.297   3.466   1.795  0.2387 -0.1722  0.2527
 2622WAT     H1 8077   2.213   3.426   1.771 -0.6892  0.6528  1.9755
 2622WAT     H2 8078   2.362   3.409   1.755 -1.1149 -1.6406  0.0348
 2623WAT      O 8079   1.288   1.098   1.146  0.4669  0.2728 -0.0891
 2623WAT     H1 8080   1.311   1.119   1.237 -1.7153 -0.9484  0.8274
 2623WAT     H2 8081   1.300   1.181   1.099  2.1718  0.8019  1.1511
 2624WAT      O 8082   2.236   1.197   1.780 -0.4774 -0.2475 -0.4116
 2624WAT     H1 8083   2.181   1.133   1.826 -1.2551  0.0893 -0.8414
 2624WAT     H2 8084   2.173   1.252   1.732  0.0965  1.3979  0.6238
 2625WAT      O 8085   0.096   2.833   2.211 -0.0610  0.0965  0.4961
 2625WAT     H1 8086   0.152   2.905   2.182  0.4165 -0.6517 -0.5053
 2625WAT     H2 8087   0.012   2.874   2.229 -0.2335  0.7038 -1.4872
 2626WAT      O 8088   2.330   4.891   2.004 -0.8423  0.3058 -0.0185
 2626WAT     H1 8089   2.392   4.964   1.998  0.4814 -0.8135 -0.2807
 2626WAT     H2 8090   2.251   4.923   1.960  0.1388  1.1487 -1.2146
 2627WAT      O 8091   2.586   3.993   4.179 -0.5105  0.0054 -0.7612
 2627WAT     H1 8092   2.593   4.089   4.186 -1.0836  0.1152 -1.5238
 2627WAT     H2 8093   2.573   3.963   4.269 -1.3803  0.7387 -0.6300
 2628WAT      O 8094   1.738   0.289   1.013  0.5980  0.2716 -0.1395
 2628WAT     H1 8095   1.716   0.290   0.920 -1.5975  2.2937  0.2951
 2628WAT     H2 8096   1.744   0.381   1.038 -0.6917 -0.1525  2.0595
 2629WAT      O 8097   1.645   1.323   1.420 -0.1252 -0.2327 -0.1833
 2629WAT     H1 8098   1.641   1.301   1.513 -1.1355  0.8593  0.0589
 2629WAT     H2 8099   1.738   1.343   1.404  0.1264 -0.8545  0.4754
 2630WAT      O 8100   1.381   0.787   2.351 -0.7655  0.3905  0.1352
 2630WAT     H1 8101   1.348   0.856   2.293 -0.1253  0.4663 -0.1535
 2630WAT     H2 8102   1.331   0.709   2.327 -0.2103  0.3138 -0.8361
 2631WAT      O 8103   3.827   3.852   0.915  0.2719 -0.1491 -0.3501
 2631WAT     H1 8104   3.893   3.855   0.845  1.7014  0.6199  0.9662
 2631WAT     H2 8105   3.764   3.920   0.891  1.2210  0.7232 -0.4871
 2632WAT      O 8106   1.994   0.101   0.113  0.0631  0.1164  0.1146
 2632WAT     H1 8107   2.038   0.108   0.028  0.6921 -0.8321  0.3364
 2632WAT     H2 8108   1.920   0.043   0.096 -0.4743  0.8453 -0.0289
 2633WAT      O 8109   1.731   4.133   1.769 -0.1033 -0.2296  0.3076
 2633WAT     H1 8110   1.644   4.154   1.734  0.7545  2.0621 -0.6983
 2633WAT     H2 8111   1.779   4.096   1.695 -0.2750 -1.8381  0.9536
 2634WAT      O 8112   1.423   0.579   0.741 -0.0640 -0.1586 -0.3036
 2634WAT     H1 8113   1.373   0.609   0.817 -0.1496 -0.0358 -0.4087
 2634WAT     H2 8114   1.467   0.658   0.708  1.6246 -0.5634  0.8472
 2635WAT      O 8115   1.977   1.512   3.215 -0.0581  0.0265 -0.2043
 2635WAT     H1 8116   2.034   1.568   3.162 -0.0327 -1.0483 -1.3620
 2635WAT     H2 8117   1.933   1.573   3.274  1.7797  0.9706  0.2691
 2636WAT      O 8118   4.368   0.176   2.287  0.3097 -0.2817  0.1468
 2636WAT     H1 8119   4.282   0.216   2.297  0.5286  0.6076 -1.3468
 2636WAT     H2 8120   4.426   0.249   2.267  1.4689 -0.8458  1.2721
 2637WAT      O 8121   1.853   0.713   0.709 -0.2279  0.1736  0.1812
 2637WAT     H1 8122   1.915   0.754   0.769 -1.2164  2.0153  0.0112
 2637WAT     H2 8123   1.803   0.652   0.764  0.3964  0.1556  0.7304
 2638WAT      O 8124   2.508   2.751   4.960  0.4828 -0.4396  0.5735
 2638WAT     H1 8125   2.486   2.777   4.870 -0.6760 -1.6262  0.4942
 2638WAT     H2 8126   2.603   2.760   4.964  0.4528  0.5996 -0.4468
 2639WAT      O 8127   3.650   1.459   4.026  0.0958 -0.1231 -0.3705
 2639WAT     H1 8128   3.592   1.421   4.093 -3.7039  0.6838 -2.9050
 2639WAT     H2 8129   3.713   1.389   4.007 -0.5267 -1.4174  1.9311
 2640WAT      O 8130   1.602   4.230   4.168 -0.3497 -0.3509 -0.1321
 2640WAT     H1 8131   1.602   4.250   4.074 -0.6717 -0.6317 -0.1909
 2640WAT     H2 8132   1.557   4.304   4.208 -0.2423 -0.2476 -0.2005
 2641WAT      O 8133   4.276   1.087   5.171  0.2899  0.3145  0.7206
 2641WAT     H1 8134   4.285   1.156   5.106  0.0847 -0.3982 -0.0867
 2641WAT     H2 8135   4.270   1.133   5.255 -1.6919  1.3716  0.0560
 2642WAT      O 8136   1.865   1.203   3.877  0.2043  0.1605  0.0229
 2642WAT     H1 8137   1.952   1.243   3.874  0.7004 -0.7575  1.2235
 2642WAT     H2 8138   1.846   1.182   3.786  0.7569  1.3480 -0.3932
 2643WAT      O 8139   3.148   3.584   4.640 -0.3100  0.4429 -0.4227
 2643WAT     H1 8140   3.169   3.626   4.557 -2.1895 -0.9401 -1.6699
 2643WAT     H2 8141   3.220   3.524   4.657  1.6599  2.9028  0.6261
 2644WAT      O 8142   2.251   2.694   2.173 -0.2310 -0.8336 -0.0300
 2644WAT     H1 8143   2.267   2.723   2.263  0.5302  1.4408 -0.8410
 2644WAT     H2 8144   2.184   2.753   2.140  0.2411 -0.9690 -1.2815
 2645WAT      O 8145   0.370   4.872   4.219 -0.0281  0.4617 -0.5903
 2645WAT     H1 8146   0.343   4.925   4.145 -0.1095  0.0900 -0.8271
 2645WAT     H2 8147   0.321   4.791   4.210  0.4803  0.1412 -0.5130
 2646WAT      O 8148   3.722   2.702   4.366  0.3269 -0.7854  0.6659
 2646WAT     H1 8149   3.758   2.615   4.352 -2.2688 -1.8410  0.0235
 2646WAT     H2 8150   3.706   2.706   4.460  0.4847 -0.9755  0.7018
 2647WAT      O 8151   1.212   3.319   2.970  0.2502  0.2955  0.0820
 2647WAT     H1 8152   1.211   3.230   2.934  0.8148  0.0616  0.6197
 2647WAT     H2 8153   1.284   3.318   3.033  0.7447  1.3614 -0.4556
 2648WAT      O 8154   1.684   3.493   2.492  0.5944  0.3036  0.1777
 2648WAT     H1 8155   1.652   3.406   2.471 -0.5369  0.9014 -0.6976
 2648WAT     H2 8156   1.676   3.542   2.410  1.0998  1.2694  0.6818
 2649WAT      O 8157   2.252   0.313   1.756  0.0243 -0.0357 -0.5074
 2649WAT     H1 8158   2.317   0.301   1.687 -1.2983  1.4737 -2.0983
 2649WAT     H2 8159   2.234   0.407   1.756 -1.7567 -0.3295  0.2754
 2650WAT      O 8160   2.067   0.389   4.757  0.1683 -0.0097 -0.3570
 2650WAT     H1 8161   1.982   0.432   4.757 -1.3539 -2.7588  0.2800
 2650WAT     H2 8162   2.080   0.362   4.667  1.4730  2.2129 -0.9177
 2651WAT      O 8163   0.801   4.534   1.233 -0.4547 -0.2568 -0.4116
 2651WAT     H1 8164   0.750   4.533   1.314  0.1250 -0.2944 -0.0384
 2651WAT     H2 8165   0.795   4.624   1.202 -2.5151 -0.7125 -1.5341
 2652WAT      O 8166   0.534   1.955   0.446 -0.4214 -0.0897  0.5526
 2652WAT     H1 8167   0.519   1.897   0.521  0.9321 -1.9189 -0.5095
 2652WAT     H2 8168   0.479   1.920   0.377 -1.8692  1.7504  0.7047
 2653WAT      O 8169   2.498   1.418   0.901 -0.1370  0.1052  0.0571
 2653WAT     H1 8170   2.403   1.410   0.887 -0.2474  1.2794  0.0344
 2653WAT     H2 8171   2.520   1.505   0.866  0.7274  0.3744  1.1998
 2654WAT      O 8172   2.954   0.515   1.036 -0.1528 -0.1993 -0.1812
 2654WAT     H1 8173   2.942   0.426   1.003  0.4500 -1.0048  1.6541
 2654WAT     H2 8174   3.011   0.505   1.112 -0.0363  1.7739  0.0413
 2655WAT      O 8175   3.113   1.374   0.836 -0.1044  0.4396 -0.5945
 2655WAT     H1 8176   3.019   1.371   0.854 -0.3206  0.5395 -1.6224
 2655WAT     H2 8177   3.152   1.406   0.917 -0.7467 -1.4207  0.5105
 2656WAT      O 8178   4.189   2.654   0.963  0.2269 -0.1342  0.2575
 2656WAT     H1 8179   4.204   2.667   0.870  1.1271 -0.8591  0.2879
 2656WAT     H2 8180   4.201   2.741   1.002 -3.1383  0.8719 -0.6190
 2657WAT      O 8181   0.429   3.349   4.827 -0.0509  0.0561 -0.2245
 2657WAT     H1 8182   0.388   3.435   4.839  0.7524  0.3466  0.6228
 2657WAT     H2 8183   0.505   3.350   4.886  0.5550 -0.8632 -0.9460
 2658WAT      O 8184   0.716   4.842   4.760 -0.3173  0.2258 -0.2518
 2658WAT     H1 8185   0.792   4.863   4.815 -1.8343 -0.7546  2.4281
 2658WAT     H2 8186   0.653   4.911   4.780 -1.3884 -0.8876  0.3224
 2659WAT      O 8187   3.691   4.250   0.346  0.2982 -0.5949  0.3598
 2659WAT     H1 8188   3.677   4.202   0.265  1.3134  0.4620 -0.4881
 2659WAT     H2 8189   3.781   4.284   0.339  0.2831 -0.1722  1.7588
 2660WAT      O 8190   3.110   2.359   4.335 -0.5132 -0.6914 -0.4179
 2660WAT     H1 8191   3.178   2.374   4.269 -0.7563  0.5974 -0.4045
 2660WAT     H2 8192   3.038   2.320   4.286 -0.3748 -0.5392 -0.7462
 2661WAT      O 8193   1.548   4.629   3.961  0.1727  0.5685 -0.2510
 2661WAT     H1 8194   1.564   4.594   3.873 -0.3235  0.8263 -0.4473
 2661WAT     H2 8195   1.590   4.715   3.960  1.5692 -0.0757  0.2975
 2662WAT      O 8196   2.034   2.955   0.221  1.0181  0.0704  0.2209
 2662WAT     H1 8197   2.107   3.002   0.261  0.3150  0.8587  0.5874
 2662WAT     H2 8198   1.967   2.951   0.289  0.2394  0.4514 -0.5018
 2663WAT      O 8199   2.107   3.630   3.266 -0.2384 -0.6082  0.2451
 2663WAT     H1 8200   2.031   3.597   3.314  0.0415  1.1475  2.0623
 2663WAT     H2 8201   2.174   3.641   3.333  0.9582 -0.2111 -0.9772
 2664WAT      O 8202   0.851   4.421   4.787  1.0918  0.4303 -0.1549
 2664WAT     H1 8203   0.804   4.349   4.744  2.0447 -0.1053 -0.3184
 2664WAT     H2 8204   0.893   4.468   4.715  2.9488 -0.6459  0.1505
 2665WAT      O 8205   0.949   1.692   2.631  0.5163 -0.4358 -0.4547
 2665WAT     H1 8206   1.007   1.617   2.616  0.2463 -0.9401  0.9140
 2665WAT     H2 8207   0.862   1.654   2.644  0.6613 -0.0751  1.9718
 2666WAT      O 8208   1.789   2.906   3.827  0.3317  0.0296  0.8937
 2666WAT     H1 8209   1.816   2.872   3.912 -1.3786 -0.8753  1.1158
 2666WAT     H2 8210   1.775   2.828   3.773  1.5058  0.5884 -0.2974
 2667WAT      O 8211   2.384   3.761   2.016  0.3413  0.5492 -0.0880
 2667WAT     H1 8212   2.421   3.684   2.060 -0.3776  0.6612  0.7207
 2667WAT     H2 8213   2.461   3.811   1.988  0.8043  0.2156  0.5768
 2668WAT      O 8214   3.046   4.015   0.482  0.1242 -0.3387  1.0045
 2668WAT     H1 8215   3.064   4.107   0.502  0.1989 -0.0064 -0.5030
 2668WAT     H2 8216   3.079   4.002   0.393  0.7902 -2.0325  1.4506
 2669WAT      O 8217   4.117   3.882   4.958 -0.2542 -0.0703 -0.1894
 2669WAT     H1 8218   4.102   3.861   4.866  1.0176  1.7201 -0.8745
 2669WAT     H2 8219   4.186   3.822   4.985 -1.7505 -1.7263  0.1339
 2670WAT      O 8220   3.615   2.031   4.545 -0.0767 -0.3099  0.1181
 2670WAT     H1 8221   3.639   1.980   4.467  2.5163 -1.1853  1.3635
 2670WAT     H2 8222   3.525   2.059   4.528  0.6821  0.4294 -3.6254
 2671WAT      O 8223   0.945   0.468   1.804  0.5704 -0.2042  0.1627
 2671WAT     H1 8224   0.946   0.428   1.890  1.4855  0.6507  0.5816
 2671WAT     H2 8225   0.856   0.501   1.793 -0.2131 -2.3430 -0.2217
 2672WAT      O 8226   1.888   1.260   2.542 -0.1203  0.2005  0.1868
 2672WAT     H1 8227   1.799   1.256   2.506  0.1505 -1.4707 -0.3851
 2672WAT     H2 8228   1.940   1.299   2.472 -0.0949 -0.4822 -0.1832
 2673WAT      O 8229   1.933   1.344   1.353  0.3032 -0.2601 -0.1411
 2673WAT     H1 8230   2.011   1.375   1.305 -0.9301  0.6138 -1.7074
 2673WAT     H2 8231   1.960   1.261   1.391  2.0850  0.1375 -0.4225
 2674WAT      O 8232   2.645   4.906   1.854  0.0147 -0.2172  0.2278
 2674WAT     H1 8233   2.586   4.977   1.879 -0.4353 -0.2636 -0.6791
 2674WAT     H2 8234   2.603   4.826   1.888 -1.0528 -0.3822 -1.3868
 2675WAT      O 8235   4.426   5.077   3.489 -0.1909  0.4237 -0.4062
 2675WAT     H1 8236   4.422   5.132   3.567  0.8803 -1.3746  0.9853
 2675WAT     H2 8237   4.436   4.988   3.523 -0.9577 -0.5648 -2.5870
 2676WAT      O 8238   3.936   5.134   1.864 -0.4436 -0.0365  0.1881
 2676WAT     H1 8239   3.924   5.193   1.939  0.1971  1.7031 -0.9941
 2676WAT     H2 8240   3.849   5.122   1.828 -0.7044 -0.5782  0.9825
 2677WAT      O 8241   0.721   3.456   0.538 -0.1624 -0.1015 -0.4709
 2677WAT     H1 8242   0.775   3.520   0.585  0.0807 -1.1228  0.6768
 2677WAT     H2 8243   0.687   3.505   0.463  1.9971  0.7163 -1.0114
 2678WAT      O 8244   0.454   3.917   1.853 -0.0490  0.6952  0.1753
 2678WAT     H1 8245   0.434   3.834   1.897  0.0822  1.8654  2.6435
 2678WAT     H2 8246   0.550   3.915   1.843 -0.1415  0.1548 -0.6602
 2679WAT      O 8247   4.005   5.100   2.735 -0.7324  0.7685  0.8734
 2679WAT     H1 8248   4.004   5.195   2.719  0.6640  0.7332  0.4804
 2679WAT     H2 8249   4.094   5.073   2.714 -1.8811 -1.1730 -2.2075
 2680WAT      O 8250   3.425   4.631   1.533 -0.1525 -0.1904 -0.1022
 2680WAT     H1 8251   3.466   4.614   1.449  1.6816 -1.0052  0.9015
 2680WAT     H2 8252   3.455   4.719   1.557 -1.9711  0.7104 -0.9885
 2681WAT      O 8253   1.893   3.678   0.127 -0.5036  0.1823  0.5623
 2681WAT     H1 8254   1.891   3.773   0.144  0.7164  0.2660  0.3488
 2681WAT     H2 8255   1.908   3.639   0.213 -0.0289  0.2503  0.5130
 2682WAT      O 8256   3.554   0.229   1.036  0.4616  0.5136 -0.1336
 2682WAT     H1 8257   3.624   0.220   1.101  0.1998 -0.6939  0.0088
 2682WAT     H2 8258   3.565   0.317   1.000  1.3299  0.7624  0.7157
 2683WAT      O 8259   3.162   1.094   0.852 -0.4915 -0.4308  0.7614
 2683WAT     H1 8260   3.155   1.184   0.821  1.0335 -0.3764  0.5111
 2683WAT     H2 8261   3.107   1.092   0.931  1.5012  1.4846  2.3493
 2684WAT      O 8262   3.631   3.206   2.242  0.0178  0.0196 -0.1025
 2684WAT     H1 8263   3.554   3.150   2.235  0.7406 -0.8622 -1.1192
 2684WAT     H2 8264   3.599   3.293   2.217 -0.5677 -0.4074 -0.8800
 2685WAT      O 8265   0.771   0.756   1.510 -0.4531 -0.4041  0.7071
 2685WAT     H1 8266   0.829   0.696   1.464 -0.3800  0.4197 -0.3048
 2685WAT     H2 8267   0.817   0.840   1.509 -0.3572 -0.3925  2.4818
 2686WAT      O 8268   0.360   4.670   0.686 -0.1586 -0.1998  0.6847
 2686WAT     H1 8269   0.268   4.651   0.700 -0.4461  1.0608  0.5819
 2686WAT     H2 8270   0.365   4.699   0.595  0.5944 -1.7054  0.2117
 2687WAT      O 8271   3.830   0.407   0.509  0.1893 -0.2600  0.6380
 2687WAT     H1 8272   3.855   0.382   0.598  0.0996  0.9039  1.0033
 2687WAT     H2 8273   3.888   0.480   0.488 -1.3349  0.9805  0.6296
 2688WAT      O 8274   2.773   3.239   4.362  0.2803  0.4748 -0.4910
 2688WAT     H1 8275   2.724   3.304   4.412  0.4563  0.2272  0.0122
 2688WAT     H2 8276   2.825   3.290   4.300 -0.7199  0.7334 -1.1438
 2689WAT      O 8277   0.996   4.096   5.007  0.3800  0.0655  0.1294
 2689WAT     H1 8278   1.061   4.054   4.951  0.9146 -1.3461  1.7304
 2689WAT     H2 8279   1.038   4.102   5.093 -1.3992 -0.4582  1.0934
 2690WAT      O 8280   4.125   3.754   1.377  0.0080  0.4266  0.0878
 2690WAT     H1 8281   4.186   3.681   1.377 -1.1578 -0.6124  1.3336
 2690WAT     H2 8282   4.043   3.717   1.342 -0.6004  1.1072  0.7579
 2691WAT      O 8283   2.785   4.078   5.098 -0.8581  0.0034  0.5154
 2691WAT     H1 8284   2.733   4.051   5.022  0.0909  0.4201 -0.3215
 2691WAT     H2 8285   2.866   4.026   5.090  0.2936  1.8162 -0.1849
 2692WAT      O 8286   3.473   0.938   3.425 -0.2263  0.1966 -0.2780
 2692WAT     H1 8287   3.530   0.862   3.436 -0.3725 -0.0754 -1.3756
 2692WAT     H2 8288   3.492   0.992   3.502  0.1047 -0.7924  0.3594
 2693WAT      O 8289   3.571   1.585   2.897 -1.1559  0.0993  0.1254
 2693WAT     H1 8290   3.563   1.490   2.894  0.3669 -0.0270 -1.9358
 2693WAT     H2 8291   3.641   1.602   2.960  0.0192 -0.3179 -1.0203
 2694WAT      O 8292   0.426   4.657   1.108  0.2294 -0.7453  0.2074
 2694WAT     H1 8293   0.337   4.628   1.091  0.0172 -0.1921  0.3590
 2694WAT     H2 8294   0.463   4.590   1.165 -1.0616  0.4512  2.6139
 2695WAT      O 8295   3.739   4.081   4.705 -0.1165 -0.0126  0.3291
 2695WAT     H1 8296   3.720   3.988   4.716  0.5431 -0.4916 -1.9543
 2695WAT     H2 8297   3.673   4.126   4.758 -1.4770 -1.7545  0.1857
 2696WAT      O 8298   3.251   3.397   4.049 -0.5837 -0.1449 -0.0825
 2696WAT     H1 8299   3.204   3.328   4.002 -1.6961 -1.5001  2.7990
 2696WAT     H2 8300   3.327   3.353   4.087  0.5310  1.0082 -0.9167
 2697WAT      O 8301   0.874   0.324   0.162  0.0434 -0.2530 -0.1563
 2697WAT     H1 8302   0.839   0.281   0.084  0.4234 -2.3029  0.7301
 2697WAT     H2 8303   0.943   0.265   0.193 -0.3701  0.2740  1.9488
 2698WAT      O 8304   1.525   1.460   2.967 -0.1970  0.6260 -0.1955
 2698WAT     H1 8305   1.429   1.461   2.976 -0.0895  0.6299  1.1468
 2698WAT     H2 8306   1.553   1.540   3.010  0.5480 -0.4341  1.3692
 2699WAT      O 8307   1.674   3.395   2.056 -0.0603  0.0666 -0.2478
 2699WAT     H1 8308   1.749   3.441   2.092 -0.2655  1.9657 -2.0279
 2699WAT     H2 8309   1.683   3.305   2.087  2.4074  0.4588  0.3724
 2700WAT      O 8310   4.123   3.569   2.884  0.2077 -0.5399 -0.2005
 2700WAT     H1 8311   4.051   3.542   2.826  0.6353 -1.2594 -0.4113
 2700WAT     H2 8312   4.176   3.627   2.830 -0.8810  1.0297  0.3486
 2701WAT      O 8313   4.177   3.141   4.059 -0.1704 -0.5984 -0.2490
 2701WAT     H1 8314   4.217   3.109   4.140  1.7637 -1.9630 -1.6625
 2701WAT     H2 8315   4.093   3.095   4.054  0.0953 -1.1857  0.5286
 2702WAT      O 8316   4.469   1.267   4.875  0.0064 -0.1162 -0.3901
 2702WAT     H1 8317   4.437   1.268   4.785  0.8715 -1.4366 -0.7372
 2702WAT     H2 8318   4.554   1.222   4.870  0.8554  1.2504  0.8354
 2703WAT      O 8319   1.512   0.576   4.726 -0.0715  0.1455 -0.2585
 2703WAT     H1 8320   1.541   0.493   4.688 -0.4286  0.3628 -1.0275
 2703WAT     H2 8321   1.593   0.627   4.737  0.1539 -0.3226  0.2697
 2704WAT      O 8322   2.055   3.199   1.101  0.7943  0.2772  0.2979
 2704WAT     H1 8323   2.081   3.277   1.150 -0.9393  1.6630 -0.9002
 2704WAT     H2 8324   2.015   3.232   1.021 -1.1384 -1.7963  0.3170
 2705WAT      O 8325   3.929   2.875   3.371  0.2984 -0.1215  0.2225
 2705WAT     H1 8326   3.969   2.792   3.347  1.4385 -0.1745  2.0911
 2705WAT     H2 8327   3.847   2.850   3.415  1.0033 -0.3348  1.4578
 2706WAT      O 8328   3.669   5.131   0.936 -0.1746  0.1243 -0.1498
 2706WAT     H1 8329   3.704   5.158   0.851  1.6574  0.5477  0.6957
 2706WAT     H2 8330   3.637   5.212   0.976  0.9191  0.2921  0.4153
 2707WAT      O 8331   3.921   3.625   3.350  0.1808 -0.3804  0.4128
 2707WAT     H1 8332   3.842   3.595   3.395 -0.5167  0.9695  0.1494
 2707WAT     H2 8333   3.909   3.597   3.259 -0.9291  1.4217 -0.0499
 2708WAT      O 8334   0.736   2.929   3.415  0.5229  0.4969  0.1617
 2708WAT     H1 8335   0.786   2.857   3.455  2.1448  1.7240  0.4489
 2708WAT     H2 8336   0.737   2.908   3.322 -0.5186 -0.7184  0.3882
 2709WAT      O 8337   3.768   0.002   3.717 -0.2854  0.1225  0.0618
 2709WAT     H1 8338   3.821   0.046   3.784 -0.7853 -0.7847  1.0929
 2709WAT     H2 8339   3.811  -0.082   3.704 -0.6728 -0.0461 -0.1437
 2710WAT      O 8340   1.853   3.766   2.766 -0.2859  0.3249 -0.2548
 2710WAT     H1 8341   1.905   3.756   2.845  0.0608 -0.1943 -0.5416
 2710WAT     H2 8342   1.778   3.818   2.793  1.3320  2.8424 -0.2519
 2711WAT      O 8343   1.977   0.551   1.554 -0.2913  0.5951  0.5767
 2711WAT     H1 8344   1.977   0.455   1.558 -0.1900  0.5018 -0.9715
 2711WAT     H2 8345   1.886   0.575   1.565 -1.1207 -0.0083 -3.3147
 2712WAT      O 8346   1.841   2.208   2.577 -0.4747 -0.2271 -0.0362
 2712WAT     H1 8347   1.806   2.296   2.589 -1.8446 -0.6964 -0.2710
 2712WAT     H2 8348   1.915   2.202   2.637 -0.3528  1.0835 -0.0367
 2713WAT      O 8349   0.636   3.773   0.898 -0.2601  0.5443  0.3638
 2713WAT     H1 8350   0.670   3.738   0.816  1.5041  1.3286  0.7170
 2713WAT     H2 8351   0.555   3.724   0.913 -1.4485  1.4186 -2.5743
 2714WAT      O 8352   0.577   2.261   1.169  0.1624 -0.3436  0.4972
 2714WAT     H1 8353   0.657   2.226   1.209  2.7882  1.2651 -2.8092
 2714WAT     H2 8354   0.582   2.355   1.186  0.9146  0.2650 -2.5343
 2715WAT      O 8355   3.981   2.295   0.571 -0.5092 -0.5992  0.1631
 2715WAT     H1 8356   4.014   2.206   0.585  2.9735  0.5491  0.0962
 2715WAT     H2 8357   3.971   2.331   0.659 -0.3299 -0.5109  0.1460
 2716WAT      O 8358   1.679   4.619   2.327  0.0961  0.7561 -0.0638
 2716WAT     H1 8359   1.725   4.698   2.355  0.2478  1.7540 -2.7915
 2716WAT     H2 8360   1.733   4.583   2.257  0.0453 -1.8690  1.1174
 2717WAT      O 8361   1.830   2.384   0.240 -0.0939 -0.3953  0.3213
 2717WAT     H1 8362   1.904   2.408   0.185 -0.0103  0.7002  0.8976
 2717WAT     H2 8363   1.844   2.291   0.259  1.2413 -0.1646  0.5729
 2718WAT      O 8364   2.328   3.508   0.362 -0.0246  0.0522  0.1624
 2718WAT     H1 8365   2.422   3.522   0.348 -0.3383  0.9743 -1.2482
 2718WAT     H2 8366   2.291   3.596   0.368 -0.8424 -0.2990  0.4234
 2719WAT      O 8367   3.469   3.766   1.752 -0.6075  0.1080  0.1150
 2719WAT     H1 8368   3.536   3.726   1.808  1.4267  0.2817 -2.0248
 2719WAT     H2 8369   3.386   3.740   1.792  0.6825 -0.1965  2.8622
 2720WAT      O 8370   0.812   3.936   1.166 -0.3386 -0.0221  0.3180
 2720WAT     H1 8371   0.857   3.981   1.094  0.5563  0.2549  1.0282
 2720WAT     H2 8372   0.733   3.988   1.181 -0.1872  0.3091 -0.0156
 2721WAT      O 8373   0.902   2.913   2.528  0.2853  0.1640 -0.6293
 2721WAT     H1 8374   0.929   2.830   2.490 -2.6134 -0.8674 -0.6513
 2721WAT     H2 8375   0.830   2.891   2.587 -1.3199  2.7463 -1.4503
 2722WAT      O 8376   0.058   0.986   3.139 -0.2291  0.4017 -0.0180
 2722WAT     H1 8377   0.034   1.078   3.151 -1.4242  0.0247  0.5845
 2722WAT     H2 8378   0.152   0.984   3.156  0.2073  1.8202 -1.9205
 2723WAT      O 8379   2.897   3.065   3.647 -0.6007  0.3727  0.1291
 2723WAT     H1 8380   2.935   3.088   3.562 -2.1342 -0.2047 -0.7453
 2723WAT     H2 8381   2.915   2.972   3.656 -0.6511  0.3826  0.3199
 2724WAT      O 8382   1.943   2.914   3.313 -0.3775 -0.6576 -1.0185
 2724WAT     H1 8383   1.948   2.963   3.231 -0.6552  1.6710  0.2677
 2724WAT     H2 8384   1.849   2.903   3.329 -0.3787  0.5211 -0.1335
 2725WAT      O 8385   2.227   0.365   3.184  0.8111  0.1601  0.3588
 2725WAT     H1 8386   2.156   0.391   3.242  0.0760  0.5387 -0.6920
 2725WAT     H2 8387   2.184   0.323   3.110  1.5443  1.8101 -1.0639
 2726WAT      O 8388   2.261   4.456   1.506 -0.9528 -0.0125 -0.4537
 2726WAT     H1 8389   2.356   4.441   1.508 -0.9134  0.2352 -0.4599
 2726WAT     H2 8390   2.251   4.543   1.470 -1.0641  0.8671  1.5498
 2727WAT      O 8391   2.629   1.287   3.239 -0.3590  0.2383 -0.3545
 2727WAT     H1 8392   2.555   1.306   3.297 -0.0548 -0.0308  0.1235
 2727WAT     H2 8393   2.614   1.197   3.210  0.4632 -0.2966  0.7927
 2728WAT      O 8394   0.420   0.069   4.788 -0.1207 -0.2881  0.2128
 2728WAT     H1 8395   0.395  -0.023   4.796 -1.6581  0.1921  1.3571
 2728WAT     H2 8396   0.516   0.067   4.778 -0.1946 -2.0179 -0.4446
 2729WAT      O 8397   2.528   2.630   1.707 -0.3649 -1.2084  0.2414
 2729WAT     H1 8398   2.460   2.598   1.766 -0.1884 -1.5314  0.2758
 2729WAT     H2 8399   2.604   2.644   1.763 -0.8245  0.5731  0.4570
 2730WAT      O 8400   0.249   3.808   3.060 -0.6970  0.0121  0.2438
 2730WAT     H1 8401   0.316   3.738   3.060 -0.3179  0.3409 -1.0619
 2730WAT     H2 8402   0.236   3.828   3.152  1.0917 -0.0065  0.5403
 2731WAT      O 8403   0.006   3.167   1.104 -0.3928  0.2280  0.3029
 2731WAT     H1 8404  -0.061   3.233   1.088  0.0153  0.6457  0.3042
 2731WAT     H2 8405   0.081   3.216   1.138 -0.1042 -0.2410  0.3586
 2732WAT      O 8406   0.275   2.131   4.469 -0.3766 -0.0804  0.0786
 2732WAT     H1 8407   0.198   2.180   4.496 -0.3831 -0.9496  1.8080
 2732WAT     H2 8408   0.334   2.136   4.544  1.6614  1.2808 -1.5037
 2733WAT      O 8409   1.141   3.906   2.394  0.7201  0.0529  0.0575
 2733WAT     H1 8410   1.078   3.976   2.408  0.9711  0.9866 -2.8327
 2733WAT     H2 8411   1.218   3.933   2.444  0.4578  1.3588 -0.2077
 2734WAT      O 8412   0.414   2.288   0.671  0.1534 -0.1762 -0.1551
 2734WAT     H1 8413   0.327   2.266   0.636 -1.2909  1.2575  2.2197
 2734WAT     H2 8414   0.413   2.383   0.679  1.8553 -0.1559  0.2027
 2735WAT      O 8415   0.202   1.759   0.478  0.0441 -0.4705  0.0674
 2735WAT     H1 8416   0.108   1.744   0.483  0.0633 -0.4155  0.7833
 2735WAT     H2 8417   0.223   1.754   0.385 -0.8537  0.7072 -0.2097
 2736WAT      O 8418   2.321   2.041   4.089  0.0368 -0.2768 -0.0478
 2736WAT     H1 8419   2.293   2.110   4.149 -0.7951 -0.8293  0.2193
 2736WAT     H2 8420   2.411   2.022   4.115 -0.1624 -0.1961  0.7260
 2737WAT      O 8421   4.145   2.594   3.706  0.0198 -0.3418 -0.1251
 2737WAT     H1 8422   4.134   2.525   3.771  1.6015 -1.2068 -0.7184
 2737WAT     H2 8423   4.237   2.620   3.714  0.6885 -1.4643 -2.8778
 2738WAT      O 8424   0.458   1.043   1.629  0.1204  0.5632  0.2643
 2738WAT     H1 8425   0.496   0.957   1.645  0.3012  0.5879 -0.0213
 2738WAT     H2 8426   0.375   1.042   1.677  1.2147  1.1017  2.2861
 2739WAT      O 8427   1.819   4.613   0.301 -0.1023  0.0391 -0.0773
 2739WAT     H1 8428   1.912   4.627   0.316 -0.2688  0.4241  0.6383
 2739WAT     H2 8429   1.810   4.518   0.290  0.4536  0.0581 -0.7664
 2740WAT      O 8430   1.523   2.691   0.222  0.1796 -0.2915 -0.1465
 2740WAT     H1 8431   1.599   2.710   0.277  1.3455  2.1761 -2.4428
 2740WAT     H2 8432   1.449   2.694   0.283  1.2494  3.4392  1.2189
 2741WAT      O 8433   2.855   2.987   4.401  0.1351 -0.0930 -0.4484
 2741WAT     H1 8434   2.920   2.976   4.331 -1.9517 -1.0316 -2.3482
 2741WAT     H2 8435   2.834   3.081   4.400  0.5282 -0.0052 -0.6913
 2742WAT      O 8436   3.990   1.120   4.587 -0.8903  0.2792  0.0524
 2742WAT     H1 8437   4.079   1.102   4.618 -0.4336  0.9364 -0.8387
 2742WAT     H2 8438   3.937   1.125   4.667 -0.3166 -1.0570  0.5337
 2743WAT      O 8439   2.338   3.574   0.726  0.0810 -0.5590  0.4756
 2743WAT     H1 8440   2.284   3.632   0.779 -1.1607  0.3820 -1.7133
 2743WAT     H2 8441   2.408   3.630   0.692  1.6518 -1.4423  2.0522
 2744WAT      O 8442   1.222   0.074   4.743  0.1378 -0.4556  0.0868
 2744WAT     H1 8443   1.233   0.126   4.664 -1.6764 -1.2391 -0.7573
 2744WAT     H2 8444   1.231  -0.017   4.713 -1.0239 -0.7803  0.6469
 2745WAT      O 8445   3.194   5.027   1.895  0.0069 -0.6560  0.0332
 2745WAT     H1 8446   3.177   5.067   1.980  0.9072 -0.0825 -0.0418
 2745WAT     H2 8447   3.122   5.058   1.839  1.1387  1.6590 -0.2728
 2746WAT      O 8448   1.550   2.431   1.581  0.3899 -0.0924  0.0685
 2746WAT     H1 8449   1.574   2.375   1.655 -0.3570  0.0544  0.4387
 2746WAT     H2 8450   1.458   2.453   1.597  0.0902 -0.3864 -1.1187
 2747WAT      O 8451   3.929   1.096   5.281 -0.3574  0.1585  0.5400
 2747WAT     H1 8452   3.944   1.091   5.375  1.1492 -1.8011  0.2656
 2747WAT     H2 8453   3.921   1.005   5.253  1.4156  0.5383 -1.5130
 2748WAT      O 8454   2.324   2.262   2.395  0.0820 -0.3306 -0.9653
 2748WAT     H1 8455   2.340   2.246   2.302 -0.2863  1.6430 -1.4103
 2748WAT     H2 8456   2.336   2.356   2.406  1.4842 -0.6750  1.2817
 2749WAT      O 8457   2.556   2.645   0.443  0.2314  0.4528 -0.2770
 2749WAT     H1 8458   2.504   2.587   0.387  1.0450  0.0956 -0.6907
 2749WAT     H2 8459   2.575   2.592   0.521  0.2042  0.4806 -0.2517
 2750WAT      O 8460   0.950   0.632   4.362 -0.0224 -0.4246 -0.2885
 2750WAT     H1 8461   1.044   0.638   4.377 -0.0916  1.5016 -0.3552
 2750WAT     H2 8462   0.940   0.643   4.267 -0.3136 -0.6427 -0.2844
 2751WAT      O 8463   1.819   1.861   1.820  0.3014  0.3249 -0.7376
 2751WAT     H1 8464   1.838   1.932   1.759  1.2754  0.9870  0.2882
 2751WAT     H2 8465   1.819   1.903   1.906 -3.0376 -0.1681 -0.3291
 2752WAT      O 8466   2.380   2.210   2.133 -0.2110  0.1426 -0.2227
 2752WAT     H1 8467   2.463   2.168   2.114 -0.7403 -0.6606 -0.8214
 2752WAT     H2 8468   2.335   2.214   2.049 -0.9266  0.2183  0.1531
 2753WAT      O 8469   1.227   4.328   4.364 -0.0177  0.2984 -0.0536
 2753WAT     H1 8470   1.232   4.272   4.286 -0.0168  0.5429 -0.2311
 2753WAT     H2 8471   1.314   4.367   4.371 -0.0872  0.4574 -0.0663
 2754WAT      O 8472   2.078   0.951   1.808 -0.2057  0.1949  0.1445
 2754WAT     H1 8473   2.133   0.906   1.744  0.5464  0.7141  0.4053
 2754WAT     H2 8474   1.989   0.939   1.776  0.2487  2.2191 -2.1585
 2755WAT      O 8475   3.191   3.178   1.124  0.3548 -0.0904  0.4701
 2755WAT     H1 8476   3.126   3.228   1.074  0.7668  0.7082  0.7115
 2755WAT     H2 8477   3.271   3.230   1.117  0.8529 -0.8399  0.5490
 2756WAT      O 8478   3.674   4.522   3.121  0.3780 -0.5393  0.4271
 2756WAT     H1 8479   3.641   4.541   3.208 -0.3495  0.1675  0.0132
 2756WAT     H2 8480   3.735   4.593   3.102 -1.7395  1.0938 -0.8027
 2757WAT      O 8481   1.719   1.079   1.080 -0.1580  0.1809  0.1826
 2757WAT     H1 8482   1.713   1.006   1.018  1.4706 -0.2383  0.4601
 2757WAT     H2 8483   1.795   1.058   1.134  2.1061  3.3152 -1.4295
 2758WAT      O 8484   1.753   3.374   3.068 -0.6028  0.3683 -0.0274
 2758WAT     H1 8485   1.764   3.291   3.021 -0.3162  1.3185 -1.7534
 2758WAT     H2 8486   1.735   3.349   3.158  0.6618 -1.5526 -0.2491
 2759WAT      O 8487   3.532   5.068   4.340  0.5544 -0.1936  0.4500
 2759WAT     H1 8488   3.495   4.984   4.369 -0.5877  0.3574  0.6329
 2759WAT     H2 8489   3.460   5.130   4.349  1.7089  1.0602  1.4335
 2760WAT      O 8490   3.765   0.212   2.398 -0.2111  0.4639  0.7307
 2760WAT     H1 8491   3.855   0.183   2.385  0.5410  2.3825  1.2421
 2760WAT     H2 8492   3.735   0.166   2.476  0.2520 -0.3119  0.4620
 2761WAT      O 8493   4.375   0.905   3.323  0.1183  0.4103 -0.7234
 2761WAT     H1 8494   4.459   0.919   3.281  0.8305  2.2572  1.1319
 2761WAT     H2 8495   4.396   0.855   3.403 -0.9468 -1.4382 -1.5294
 2762WAT      O 8496   0.369   3.378   0.205 -0.6862 -0.1403  0.0506
 2762WAT     H1 8497   0.454   3.335   0.215 -0.4415  0.5315  0.9763
 2762WAT     H2 8498   0.363   3.397   0.111  1.0390  1.4598  0.1897
 2763WAT      O 8499   1.414   1.699   1.697 -0.2258  0.3699 -0.3469
 2763WAT     H1 8500   1.365   1.709   1.616 -1.0616 -1.4125 -0.1112
 2763WAT     H2 8501   1.499   1.663   1.669  0.0502  1.1540 -0.5415
 2764WAT      O 8502   2.717   0.445   4.863  0.0623  0.0174  0.4485
 2764WAT     H1 8503   2.749   0.363   4.825  1.0690  0.6221 -0.0465
 2764WAT     H2 8504   2.705   0.503   4.788 -2.0385 -0.0948  0.6381
 2765WAT      O 8505   3.385   3.218   0.045  0.1544 -0.3024 -0.2791
 2765WAT     H1 8506   3.398   3.232   0.139  0.1629  1.4229 -0.5051
 2765WAT     H2 8507   3.290   3.227   0.033 -0.0388 -1.9575 -0.2573
 2766WAT      O 8508   1.819   4.652   4.675 -0.0309  0.6251  0.4597
 2766WAT     H1 8509   1.860   4.721   4.622  0.7301  0.7869  1.2214
 2766WAT     H2 8510   1.740   4.692   4.710 -0.9681  0.2652 -1.1505
 2767WAT      O 8511   2.414   0.627   1.937  0.2864 -0.3647  0.0883
 2767WAT     H1 8512   2.373   0.544   1.960 -0.0272 -0.5706 -1.1769
 2767WAT     H2 8513   2.450   0.614   1.849 -1.1825  1.3038 -0.8293
 2768WAT      O 8514   0.405   0.186   3.782  0.2358 -0.1393 -1.1709
 2768WAT     H1 8515   0.454   0.264   3.757 -0.1656  0.3252 -0.5605
 2768WAT     H2 8516   0.470   0.116   3.786  0.8204  0.4227 -0.5631
 2769WAT      O 8517   3.713   3.656   0.284 -0.0782  0.2708 -0.3106
 2769WAT     H1 8518   3.791   3.623   0.239 -0.1422  1.4690 -1.3581
 2769WAT     H2 8519   3.640   3.615   0.237 -0.1842  2.2746 -2.0528
 2770WAT      O 8520   3.504   2.218   2.805 -0.1587 -0.2362 -0.4859
 2770WAT     H1 8521   3.527   2.126   2.822 -0.6253 -0.7236 -2.2645
 2770WAT     H2 8522   3.458   2.216   2.721 -1.9488  1.3838  0.3828
 2771WAT      O 8523   3.787   4.516   0.777  0.3824  0.2279  0.0441
 2771WAT     H1 8524   3.863   4.571   0.763  0.1629  0.0534 -2.1819
 2771WAT     H2 8525   3.816   4.451   0.842  0.8853  2.3637  2.0992
 2772WAT      O 8526   2.418   2.264   5.178  0.2373  0.2301  0.8261
 2772WAT     H1 8527   2.410   2.329   5.108 -0.9430  0.4184  1.1214
 2772WAT     H2 8528   2.401   2.313   5.258  2.4943  0.2206  1.3810
 2773WAT      O 8529   3.084   1.512   0.436 -0.0056 -1.0343 -0.3982
 2773WAT     H1 8530   3.150   1.524   0.369 -0.7930 -0.0172 -1.0270
 2773WAT     H2 8531   3.016   1.460   0.394 -0.4285 -0.5270 -0.3568
 2774WAT      O 8532   3.108   0.361   3.555  0.0198  0.2880 -0.0252
 2774WAT     H1 8533   3.066   0.448   3.550  0.2166  0.4638  1.0967
 2774WAT     H2 8534   3.041   0.305   3.593  0.7686  0.5788  1.8173
 2775WAT      O 8535   2.394   1.386   2.495  0.5954 -0.0804  0.2826
 2775WAT     H1 8536   2.347   1.303   2.494 -0.3003  0.3954  1.4190
 2775WAT     H2 8537   2.459   1.376   2.564  0.5534  0.1323  0.3518
 2776WAT      O 8538   0.626   0.545   4.802  0.3509  0.4467  0.5698
 2776WAT     H1 8539   0.587   0.625   4.766  1.4067  1.2961  1.2475
 2776WAT     H2 8540   0.552   0.485   4.811  0.1664 -0.3250 -4.0434
 2777WAT      O 8541   4.310   2.969   0.440 -0.0345 -0.2917  0.5209
 2777WAT     H1 8542   4.289   2.947   0.531 -0.1796  1.5357  0.9878
 2777WAT     H2 8543   4.364   3.048   0.448  1.4679 -1.1247 -0.9330
 2778WAT      O 8544   1.764   1.687   0.342 -0.0311  0.1500 -0.0056
 2778WAT     H1 8545   1.681   1.723   0.314 -0.5303  0.1489  1.3899
 2778WAT     H2 8546   1.745   1.645   0.426  1.5707  1.0765  0.8739
 2779WAT      O 8547   1.247   1.992   0.048  0.2216  0.4664  0.4355
 2779WAT     H1 8548   1.311   2.011  -0.021 -0.0533  1.1229  0.3535
 2779WAT     H2 8549   1.213   1.906   0.025  0.3455  0.5484 -0.0852
 2780WAT      O 8550   0.917   2.535   1.464  0.1641  0.0839  0.3915
 2780WAT     H1 8551   0.985   2.603   1.471  0.9164 -0.6413  0.3333
 2780WAT     H2 8552   0.868   2.542   1.546  1.7580 -0.8663  1.4918
 2781WAT      O 8553   3.608   4.994   2.020 -0.5300  0.1322 -0.0976
 2781WAT     H1 8554   3.542   4.936   2.057 -0.6559 -0.0206 -0.5501
 2781WAT     H2 8555   3.560   5.050   1.960 -0.3954  0.6615  0.2842
 2782WAT      O 8556   1.428   3.680   1.290 -0.6666 -0.2374 -0.1205
 2782WAT     H1 8557   1.351   3.731   1.266  0.4095  1.6209  0.1393
 2782WAT     H2 8558   1.496   3.746   1.304  1.5618 -1.8629 -2.3695
 2783WAT      O 8559   2.302   0.225   4.541  0.2078  0.1785 -0.0938
 2783WAT     H1 8560   2.331   0.143   4.580  1.9523  0.5626 -0.4912
 2783WAT     H2 8561   2.243   0.200   4.471  0.5080 -0.7273 -0.0326
 2784WAT      O 8562   2.988   2.204   4.766 -0.0712 -0.4097 -0.5639
 2784WAT     H1 8563   3.043   2.226   4.842  0.0413 -1.5114 -0.3195
 2784WAT     H2 8564   3.011   2.269   4.700  1.7654 -1.0367 -0.5868
 2785WAT      O 8565   2.699   2.863   4.082  0.3221 -0.5008  0.1336
 2785WAT     H1 8566   2.693   2.902   3.995 -0.0663  0.1702  0.4463
 2785WAT     H2 8567   2.656   2.778   4.074  0.2291 -0.4152 -0.3138
 2786WAT      O 8568   0.482   2.359   2.558 -0.4678  0.0010 -0.2049
 2786WAT     H1 8569   0.479   2.411   2.479 -1.7704 -0.1246 -0.2609
 2786WAT     H2 8570   0.481   2.423   2.629 -0.7301  0.0806 -0.2806
 2787WAT      O 8571   3.393   0.879   5.241 -0.2154 -0.0057 -0.2553
 2787WAT     H1 8572   3.298   0.876   5.235 -0.2486  0.1164  0.1733
 2787WAT     H2 8573   3.423   0.893   5.151 -0.6709  1.7259 -0.1593
 2788WAT      O 8574   0.879   3.251   4.304 -0.3729 -1.0516 -0.1495
 2788WAT     H1 8575   0.926   3.329   4.333  0.0355 -1.3110 -0.1091
 2788WAT     H2 8576   0.845   3.213   4.385 -1.1651 -0.5420 -0.2338
 2789WAT      O 8577   1.314   0.812   4.928  0.6301  0.4245  0.3312
 2789WAT     H1 8578   1.401   0.848   4.911  1.6500 -0.8601  2.4722
 2789WAT     H2 8579   1.272   0.877   4.983  0.0097  1.2545 -1.0643
 2790WAT      O 8580   3.409   1.609   5.273 -0.1116  0.3100  0.2514
 2790WAT     H1 8581   3.485   1.560   5.241 -0.1323  0.5303 -0.1503
 2790WAT     H2 8582   3.442   1.659   5.347 -0.5487 -1.8467  2.0144
 2791WAT      O 8583   1.890   4.439   4.989 -0.8836 -0.0306  0.1550
 2791WAT     H1 8584   1.948   4.364   5.006 -1.0006 -0.1519  0.0203
 2791WAT     H2 8585   1.907   4.499   5.062 -0.1562  0.2031 -0.1911
 2792WAT      O 8586   3.908   0.039   3.277 -0.1657  0.0107  0.1622
 2792WAT     H1 8587   3.890   0.087   3.196  0.1101  0.5723  0.4308
 2792WAT     H2 8588   3.996   0.068   3.303 -0.7757  0.8451  1.3729
 2793WAT      O 8589   2.765   2.164   2.979 -0.0863  0.0073  0.2412
 2793WAT     H1 8590   2.682   2.202   3.009  0.1265  0.9643 -0.3588
 2793WAT     H2 8591   2.761   2.170   2.884  0.1891 -1.0021  0.1552
 2794WAT      O 8592   3.261   2.005   4.915 -0.3353  0.2495 -0.0212
 2794WAT     H1 8593   3.296   2.006   4.826 -0.4015  1.2766 -0.0513
 2794WAT     H2 8594   3.256   1.913   4.938 -1.0787 -0.0723 -1.3848
 2795WAT      O 8595   2.911   4.783   0.421 -0.0995 -0.1623  0.4396
 2795WAT     H1 8596   2.886   4.858   0.475  0.1472 -1.4042  2.3941
 2795WAT     H2 8597   2.995   4.809   0.383 -0.5853  1.0046  0.1210
 2796WAT      O 8598   2.130   2.144   2.541 -0.3824  0.4092  0.4586
 2796WAT     H1 8599   2.188   2.178   2.473 -0.8433  0.2369 -0.0375
 2796WAT     H2 8600   2.181   2.078   2.586 -0.7593 -1.0499 -1.1566
 2797WAT      O 8601   3.597   1.966   1.114  0.1521 -0.1642 -0.6951
 2797WAT     H1 8602   3.512   1.973   1.157 -0.3579 -0.7610 -1.5609
 2797WAT     H2 8603   3.658   2.013   1.171 -1.0209  1.5275 -0.7802
 2798WAT      O 8604   2.703   5.076   3.660 -0.2875 -0.3136  0.0175
 2798WAT     H1 8605   2.648   5.115   3.593  0.4501  1.2321  0.2678
 2798WAT     H2 8606   2.792   5.104   3.638 -0.2127  2.0559  2.7076
 2799WAT      O 8607   0.689   1.194   1.641  0.5853  0.0150  0.5321
 2799WAT     H1 8608   0.648   1.270   1.683 -0.4715  1.5655 -2.9777
 2799WAT     H2 8609   0.627   1.123   1.654 -0.3109  0.7762  0.4924
 2800WAT      O 8610   1.014   4.385   0.089 -0.1377 -0.2180  0.0127
 2800WAT     H1 8611   1.075   4.412   0.158  0.0116 -0.5394  0.0066
 2800WAT     H2 8612   1.022   4.454   0.023 -0.1621  0.0097  0.2418
 2801WAT      O 8613   2.288   3.656   3.448  0.1741  0.1392 -0.5188
 2801WAT     H1 8614   2.278   3.563   3.425 -1.3575 -0.2771  1.5347
 2801WAT     H2 8615   2.310   3.655   3.541 -0.8406  1.8413 -0.2286
 2802WAT      O 8616   0.904   1.175   4.380  0.4069  0.5561  0.3353
 2802WAT     H1 8617   0.937   1.089   4.354 -2.3171 -0.6493  0.4896
 2802WAT     H2 8618   0.814   1.158   4.409 -0.3282  3.4999  0.0917
 2803WAT      O 8619   0.328   4.652   0.091 -0.2849  0.0748 -0.1492
 2803WAT     H1 8620   0.341   4.714   0.019  1.0284  0.5130  0.4389
 2803WAT     H2 8621   0.411   4.604   0.096 -0.7290 -0.6413  0.4295
 2804WAT      O 8622   3.516   4.920   3.369 -0.7355 -0.1403  0.3426
 2804WAT     H1 8623   3.504   4.883   3.456 -0.7016 -0.4714  0.2074
 2804WAT     H2 8624   3.566   5.001   3.384  1.4021 -1.3874  0.4319
 2805WAT      O 8625   3.751   0.772   2.953  0.1445 -0.0870  0.4787
 2805WAT     H1 8626   3.817   0.839   2.972  0.1241 -0.3233  1.4294
 2805WAT     H2 8627   3.749   0.766   2.858  3.2130 -1.7514  0.3936
 2806WAT      O 8628   2.189   1.305   0.015 -0.2008 -0.1990  0.1528
 2806WAT     H1 8629   2.184   1.379   0.076  1.4867 -0.1839  0.3144
 2806WAT     H2 8630   2.261   1.252   0.049  0.0724 -0.7388 -1.2372
 2807WAT      O 8631   4.493   3.978   0.745  0.1970 -0.5057 -0.1348
 2807WAT     H1 8632   4.516   3.933   0.826 -0.5394  0.7592  0.7970
 2807WAT     H2 8633   4.519   4.069   0.760  1.4933 -0.5194 -1.9196
 2808WAT      O 8634   1.739   3.108   4.042  0.1499 -0.4628 -0.2809
 2808WAT     H1 8635   1.724   3.020   4.009 -1.4259  0.0688 -1.1329
 2808WAT     H2 8636   1.652   3.138   4.070  0.3681  1.3055 -1.3277
 2809WAT      O 8637   1.228   3.867   0.180 -0.1602 -0.4141 -0.1719
 2809WAT     H1 8638   1.313   3.836   0.212  0.0545  1.3613  1.1241
 2809WAT     H2 8639   1.193   3.920   0.251 -2.2873 -0.9211 -0.7657
 2810WAT      O 8640   1.543   3.275   2.402  0.0600  0.5691  0.4258
 2810WAT     H1 8641   1.632   3.246   2.383 -0.7497 -0.5320 -1.9966
 2810WAT     H2 8642   1.505   3.202   2.451 -0.8574 -1.1304 -2.5657
 2811WAT      O 8643   3.460   4.409   1.064  0.2981 -0.1496 -0.1076
 2811WAT     H1 8644   3.396   4.438   0.998 -1.1675 -0.8546  0.9352
 2811WAT     H2 8645   3.454   4.313   1.061  1.7624 -0.2439 -0.3909
 2812WAT      O 8646   2.340   5.021   2.519  0.0268 -0.2529  0.7896
 2812WAT     H1 8647   2.393   5.035   2.597 -0.2853  0.6592  0.8530
 2812WAT     H2 8648   2.369   5.089   2.458 -0.4995 -0.2583  0.5274
 2813WAT      O 8649   3.584   3.059   1.596  0.1479 -0.0427 -0.0290
 2813WAT     H1 8650   3.564   3.135   1.650 -1.0817 -0.9070  0.7876
 2813WAT     H2 8651   3.502   3.042   1.549  1.1600  0.6502 -2.1816
 2814WAT      O 8652   3.687   4.927   0.251 -0.2844  0.4274  0.1197
 2814WAT     H1 8653   3.775   4.960   0.230 -0.1772  1.3783  1.8516
 2814WAT     H2 8654   3.699   4.833   0.262  0.5327  0.5414  0.3072
 2815WAT      O 8655   0.104   4.738   1.364  0.0137  0.3548 -0.7082
 2815WAT     H1 8656   0.040   4.806   1.344 -1.0737 -0.6717 -0.8477
 2815WAT     H2 8657   0.096   4.725   1.459 -2.5043 -2.1104 -1.1378
 2816WAT      O 8658   0.993   2.495   1.788 -0.0661 -0.3160  0.9448
 2816WAT     H1 8659   1.049   2.534   1.855  2.7466 -0.8212 -0.9368
 2816WAT     H2 8660   1.030   2.408   1.773 -0.5214 -0.1953 -1.2520
 2817WAT      O 8661   3.442   0.207   2.415 -0.0619  0.6418 -0.0238
 2817WAT     H1 8662   3.501   0.235   2.484 -0.0451 -0.1831  0.3106
 2817WAT     H2 8663   3.473   0.120   2.391  1.4960  1.8596 -2.8431
 2818WAT      O 8664   0.634   3.613   4.705 -0.3085 -0.1286  0.1144
 2818WAT     H1 8665   0.548   3.611   4.662 -0.1657 -0.2375 -0.1642
 2818WAT     H2 8666   0.621   3.671   4.780 -0.7126 -0.3926  0.2534
 2819WAT      O 8667   0.569   0.094   4.069 -0.2795 -0.5638  0.3000
 2819WAT     H1 8668   0.579   0.085   4.163 -0.7204  0.0127  0.4034
 2819WAT     H2 8669   0.556   0.187   4.054 -1.1440 -0.7499 -0.2345
 2820WAT      O 8670   2.070   1.051   2.381  0.6609 -0.0330  0.1602
 2820WAT     H1 8671   2.015   1.044   2.458  0.2851 -0.1774 -0.1176
 2820WAT     H2 8672   2.022   1.004   2.313  0.9105  0.2253 -0.1997
 2821WAT      O 8673   2.528   4.541   4.061  0.6474 -0.2659  0.0199
 2821WAT     H1 8674   2.530   4.463   4.006 -4.1985 -1.1949  0.6665
 2821WAT     H2 8675   2.440   4.540   4.100  0.8003  4.7823  1.2032
 2822WAT      O 8676   4.294   0.234   1.556 -0.0038 -0.9336  0.2329
 2822WAT     H1 8677   4.214   0.221   1.607 -0.5327  0.3261 -0.2459
 2822WAT     H2 8678   4.287   0.169   1.485 -0.9925 -0.3303 -0.2437
 2823WAT      O 8679   2.166   1.534   4.849  0.7388  0.1504 -0.5100
 2823WAT     H1 8680   2.167   1.462   4.786 -1.3877  0.0571 -0.5231
 2823WAT     H2 8681   2.147   1.492   4.933  1.9817  0.4435 -0.0721
 2824WAT      O 8682   0.119   3.947   3.536  0.2760 -0.2450 -0.3707
 2824WAT     H1 8683   0.048   3.888   3.560  0.0826  0.2910  0.4104
 2824WAT     H2 8684   0.192   3.920   3.592 -0.1981  1.0613  0.9116
 2825WAT      O 8685   3.099   4.480   4.525 -0.4805  0.6397 -0.2726
 2825WAT     H1 8686   3.023   4.498   4.580  0.1357  1.2813  0.3720
 2825WAT     H2 8687   3.132   4.566   4.499  0.3951  0.3897 -0.0379
 2826WAT      O 8688   1.132   1.334   1.921  0.2620 -0.8140 -0.7145
 2826WAT     H1 8689   1.111   1.256   1.972 -0.7819 -0.9301 -1.3046
 2826WAT     H2 8690   1.055   1.349   1.867  0.6498  0.3470 -0.9658
 2827WAT      O 8691   0.835   1.568   2.317  0.0869  0.0286  0.0006
 2827WAT     H1 8692   0.895   1.503   2.353  0.0691  1.2501  2.3826
 2827WAT     H2 8693   0.892   1.627   2.266  0.3939 -0.6523 -0.4616
 2828WAT      O 8694   4.187   0.087   5.055  0.3352  0.4740  0.3378
 2828WAT     H1 8695   4.198   0.139   5.134  1.1350 -0.5666  0.9325
 2828WAT     H2 8696   4.108   0.122   5.014 -0.3742  0.7109  1.8532
 2829WAT      O 8697   1.700   0.575   0.886 -0.1991 -0.1309  0.0371
 2829WAT     H1 8698   1.723   0.580   0.979  0.9870 -0.5419 -0.2093
 2829WAT     H2 8699   1.634   0.643   0.874  0.9923  1.2233  0.8049
 2830WAT      O 8700   4.142   2.740   4.474  0.4160 -0.0513 -0.3495
 2830WAT     H1 8701   4.059   2.700   4.499 -0.1479  0.4050 -1.4238
 2830WAT     H2 8702   4.196   2.734   4.552 -0.3946 -0.9592  0.1634
 2831WAT      O 8703   0.484   4.167   0.721  0.2124 -0.1490  0.8213
 2831WAT     H1 8704   0.416   4.138   0.782 -0.6809  2.0324  0.9802
 2831WAT     H2 8705   0.513   4.252   0.757  0.2322  0.8041 -1.3272
 2832WAT      O 8706   3.882   1.015   4.190 -0.1244  0.3673  0.1329
 2832WAT     H1 8707   3.812   1.048   4.245  1.0544  1.0162  1.2797
 2832WAT     H2 8708   3.891   1.081   4.121  0.7826  1.3931  1.2027
 2833WAT      O 8709   1.399   4.260   1.127 -0.6852  0.2628 -0.5003
 2833WAT     H1 8710   1.446   4.181   1.101 -0.8479 -0.0549  0.1712
 2833WAT     H2 8711   1.308   4.233   1.134 -0.4671 -0.0673  1.8915
 2834WAT      O 8712   3.220   2.904   2.070  0.0307  0.0862  0.4278
 2834WAT     H1 8713   3.208   2.919   1.976 -1.0932  1.0404  0.7054
 2834WAT     H2 8714   3.273   2.978   2.099 -0.9494  0.6623  0.8099
 2835WAT      O 8715   4.231   2.702   2.287  0.0425 -0.4211 -0.3634
 2835WAT     H1 8716   4.151   2.751   2.274  0.0986  0.0513  0.9486
 2835WAT     H2 8717   4.294   2.766   2.321  1.0168 -0.7548 -1.4614
 2836WAT      O 8718   3.642   1.465   3.611  0.8232  0.4629 -0.2721
 2836WAT     H1 8719   3.596   1.490   3.530 -2.1304 -0.2716  1.0300
 2836WAT     H2 8720   3.660   1.372   3.600 -3.0289 -0.6544  1.2152
 2837WAT      O 8721   3.926   1.365   0.340  0.4366  0.7445  0.4202
 2837WAT     H1 8722   3.865   1.393   0.272  0.5865 -1.7401 -0.8442
 2837WAT     H2 8723   3.870   1.321   0.405  0.7089 -0.5408 -0.1864
 2838WAT      O 8724   1.108   0.541   2.256 -0.1315  0.5797 -0.6162
 2838WAT     H1 8725   1.126   0.447   2.258  0.2427  0.6567 -0.2030
 2838WAT     H2 8726   1.013   0.547   2.253 -0.1402  0.1653 -2.4171
 2839WAT      O 8727   4.163   4.736   2.911  0.6534 -0.0997  0.5087
 2839WAT     H1 8728   4.176   4.807   2.974 -0.9220  1.3709 -0.7268
 2839WAT     H2 8729   4.141   4.780   2.829 -1.3571 -2.0335 -0.0802
 2840WAT      O 8730   1.515   0.385   0.213 -0.1922  0.2530 -0.1181
 2840WAT     H1 8731   1.596   0.338   0.232  1.1322  2.5349  0.2711
 2840WAT     H2 8732   1.533   0.435   0.134 -1.2349  0.7584 -0.0648
 2841WAT      O 8733   3.028   2.698   2.203  0.3401 -0.0085  0.1276
 2841WAT     H1 8734   3.096   2.764   2.191  0.1941 -0.4063 -4.3660
 2841WAT     H2 8735   2.947   2.741   2.175 -0.2307 -1.2573 -0.2034
 2842WAT      O 8736   3.986   1.570   3.185  0.1863  0.2285 -0.7257
 2842WAT     H1 8737   3.992   1.639   3.251  1.0931  1.8286 -2.3989
 2842WAT     H2 8738   4.075   1.538   3.175 -0.4000 -2.1554  0.9254
 2843WAT      O 8739   2.251   4.637   5.111 -0.2796 -0.1130 -0.4017
 2843WAT     H1 8740   2.297   4.563   5.150  1.4318  1.4877  0.7458
 2843WAT     H2 8741   2.316   4.679   5.054 -0.8216  1.2010 -0.0937
 2844WAT      O 8742   2.571   3.417   2.392 -0.2796  0.6085  0.0613
 2844WAT     H1 8743   2.523   3.496   2.416 -0.3625  0.2045  1.2486
 2844WAT     H2 8744   2.653   3.422   2.441  1.6129  1.9604 -2.9105
 2845WAT      O 8745   3.253   4.449   1.679 -0.2255 -0.6398  0.0676
 2845WAT     H1 8746   3.167   4.444   1.638  0.4381 -1.8292 -1.2386
 2845WAT     H2 8747   3.302   4.510   1.625  1.0745 -3.2126 -1.8326
 2846WAT      O 8748   0.701   1.865   0.721  0.2868 -0.2097 -0.4785
 2846WAT     H1 8749   0.618   1.887   0.679  0.0335  1.0540  0.6328
 2846WAT     H2 8750   0.683   1.874   0.814  1.0155 -2.3366 -0.0852
 2847WAT      O 8751   3.682   2.348   1.214 -0.3521  0.3587  0.0550
 2847WAT     H1 8752   3.606   2.346   1.156 -0.7075 -1.1704  0.5308
 2847WAT     H2 8753   3.683   2.261   1.254  0.3689  1.1040  1.7129
 2848WAT      O 8754   3.830   0.027   5.228  0.0175 -0.1351 -0.1843
 2848WAT     H1 8755   3.735   0.023   5.226  0.0284 -0.4197 -1.0155
 2848WAT     H2 8756   3.858  -0.063   5.207  0.4299  0.4320 -2.4109
 2849WAT      O 8757   4.132   0.151   3.338  0.5711 -0.0123  0.8606
 2849WAT     H1 8758   4.141   0.242   3.365  0.1161  0.1181  0.5780
 2849WAT     H2 8759   4.215   0.110   3.363  1.3059  0.7828 -0.2208
 2850WAT      O 8760   2.519   2.916   2.304  0.0592 -0.2329 -0.2665
 2850WAT     H1 8761   2.439   2.876   2.337  0.3439  1.6519  3.1719
 2850WAT     H2 8762   2.494   2.955   2.220 -2.8579  0.7877  0.9511
 2851WAT      O 8763   3.155   1.608   1.869 -0.4037 -0.7248 -0.0967
 2851WAT     H1 8764   3.130   1.521   1.839 -1.0416 -0.4648 -0.3571
 2851WAT     H2 8765   3.132   1.666   1.796  1.7967 -0.5518 -0.6972
 2852WAT      O 8766   3.295   3.320   3.653  0.0881  0.0575 -0.0024
 2852WAT     H1 8767   3.209   3.360   3.639  0.3171  0.4244 -0.4016
 2852WAT     H2 8768   3.280   3.227   3.641 -0.2156  0.1412 -0.3096
 2853WAT      O 8769   3.237   1.020   0.343 -1.2709 -0.3551  0.0349
 2853WAT     H1 8770   3.274   0.931   0.343 -1.9528 -0.6548  0.9787
 2853WAT     H2 8771   3.145   1.007   0.323 -1.3790  0.1500  0.2022
 2854WAT      O 8772   4.216   2.244   4.514  0.2609 -0.0485 -0.6170
 2854WAT     H1 8773   4.129   2.259   4.551  0.6281  0.5104  0.0446
 2854WAT     H2 8774   4.199   2.196   4.433 -0.5719 -1.3095  0.2473
 2855WAT      O 8775   3.131   3.246   2.656  0.7162 -0.0637  0.1925
 2855WAT     H1 8776   3.131   3.178   2.724  2.7935 -0.2310  0.0718
 2855WAT     H2 8777   3.107   3.200   2.576 -1.1520  0.0222  0.6478
 2856WAT      O 8778   1.794   0.122   1.848 -0.2938  0.1070 -1.1235
 2856WAT     H1 8779   1.812   0.216   1.854  1.6684 -0.2852  1.1882
 2856WAT     H2 8780   1.772   0.097   1.938  0.4543 -1.8141 -1.4247
 2857WAT      O 8781   3.205   1.605   3.130 -0.1772  0.5492 -0.6382
 2857WAT     H1 8782   3.201   1.577   3.038 -1.8143 -0.3585 -0.3257
 2857WAT     H2 8783   3.151   1.541   3.176 -0.1891  1.5889  0.8195
 2858WAT      O 8784   1.511   3.138   4.520 -0.2189 -0.0439 -0.7479
 2858WAT     H1 8785   1.586   3.178   4.565  0.0703  0.2190 -1.4529
 2858WAT     H2 8786   1.551   3.075   4.460 -0.5366  0.3849 -1.4135
 2859WAT      O 8787   0.520   3.808   0.286 -0.5891 -0.5478  0.6616
 2859WAT     H1 8788   0.427   3.785   0.289 -1.0371  0.9523 -0.7028
 2859WAT     H2 8789   0.535   3.840   0.197  0.9689  0.3163  1.1839
 2860WAT      O 8790   0.479   1.884   1.331 -0.4409  0.0159  0.2265
 2860WAT     H1 8791   0.523   1.838   1.259  1.0976 -1.9354  2.2943
 2860WAT     H2 8792   0.386   1.871   1.315 -0.0926 -1.5831 -0.6849
 2861WAT      O 8793   1.640   1.586   1.549  0.2359  0.6328  0.1473
 2861WAT     H1 8794   1.680   1.658   1.499  3.3612 -1.0616 -0.0066
 2861WAT     H2 8795   1.594   1.534   1.483  0.0330  1.1410 -0.1207
 2862WAT      O 8796   0.329   0.861   3.912  0.0953 -0.1359  0.0013
 2862WAT     H1 8797   0.286   0.813   3.983 -0.2088 -0.1784 -0.2101
 2862WAT     H2 8798   0.419   0.871   3.941  0.8789 -3.1333 -1.0571
 2863WAT      O 8799   2.522   3.479   4.703  0.0388 -0.0750 -0.1559
 2863WAT     H1 8800   2.519   3.557   4.758  0.7382 -1.1131  1.4078
 2863WAT     H2 8801   2.446   3.428   4.729  0.6913 -0.8437  0.2802
 2864WAT      O 8802   1.741   0.698   4.713  0.3207  0.0625  0.0885
 2864WAT     H1 8803   1.815   0.743   4.673  1.1066 -1.7756 -0.6824
 2864WAT     H2 8804   1.774   0.609   4.730 -1.4746 -0.5912  0.4138
 2865WAT      O 8805   2.789   3.581   2.861 -0.0716 -0.1069  0.1392
 2865WAT     H1 8806   2.873   3.571   2.906 -0.0711 -2.1098 -0.2108
 2865WAT     H2 8807   2.745   3.652   2.908  1.6830  0.8257  0.4884
 2866WAT      O 8808   3.830   1.039   0.966 -0.1642  0.3120 -0.1799
 2866WAT     H1 8809   3.842   1.007   1.055  0.7799 -1.0531 -0.7640
 2866WAT     H2 8810   3.764   0.982   0.928  1.8926 -1.4077 -1.3912
 2867WAT      O 8811   1.396   2.375   1.120 -0.4265 -0.1904  0.4975
 2867WAT     H1 8812   1.465   2.379   1.187 -0.2120 -0.3306  0.2856
 2867WAT     H2 8813   1.355   2.461   1.124  0.7546  0.4445 -0.4189
 2868WAT      O 8814   1.822   0.990   4.056 -0.3136 -0.0806  0.0553
 2868WAT     H1 8815   1.899   0.934   4.042 -0.3673 -0.6680  1.9160
 2868WAT     H2 8816   1.832   1.060   3.992  1.4453 -0.4740 -0.1509
 2869WAT      O 8817   0.646   1.818   1.929  0.2932 -0.1399 -0.2434
 2869WAT     H1 8818   0.687   1.881   1.989  0.7488 -1.0495  0.4177
 2869WAT     H2 8819   0.638   1.866   1.847 -1.1312  1.4487  0.7412
 2870WAT      O 8820   1.041   1.484   5.194  0.4839 -0.0210  0.0930
 2870WAT     H1 8821   1.118   1.433   5.220 -1.8282 -3.6158  0.5558
 2870WAT     H2 8822   0.981   1.477   5.269 -1.8419 -0.8219 -1.7162
 2871WAT      O 8823   3.289   0.686   3.150  0.7115 -0.9584 -0.1355
 2871WAT     H1 8824   3.370   0.713   3.107  0.5937 -0.6868 -0.1848
 2871WAT     H2 8825   3.264   0.605   3.105  0.6976 -0.7860 -0.4360
 2872WAT      O 8826   3.317   4.257   3.752 -0.0784 -0.1879  0.5626
 2872WAT     H1 8827   3.245   4.202   3.783 -0.8321 -1.0214 -2.3688
 2872WAT     H2 8828   3.325   4.236   3.659  3.3520  0.5815  0.5424
 2873WAT      O 8829   3.936   1.616   0.540 -0.0533 -0.3598 -0.3842
 2873WAT     H1 8830   3.888   1.567   0.607 -0.9118 -1.9532 -2.0693
 2873WAT     H2 8831   3.927   1.563   0.461  1.0169  1.3886 -1.7488
 2874WAT      O 8832   4.031   3.531   2.470 -0.2723 -0.2892 -0.0601
 2874WAT     H1 8833   3.983   3.526   2.553 -3.1142  0.8768 -1.4736
 2874WAT     H2 8834   4.056   3.623   2.463  1.6267 -0.7442  0.3046
 2875WAT      O 8835   2.953   5.079   1.772 -0.1451  0.2640  0.5198
 2875WAT     H1 8836   2.896   5.111   1.702  0.6678  0.4770 -0.0465
 2875WAT     H2 8837   2.892   5.044   1.837 -0.9667  1.2145  0.2891
 2876WAT      O 8838   2.950   4.937   1.024 -0.2757 -0.6220 -0.1672
 2876WAT     H1 8839   2.919   4.887   1.100 -1.4114  1.6033  0.9294
 2876WAT     H2 8840   3.032   4.976   1.054 -0.6615  0.1546 -0.1010
 2877WAT      O 8841   0.056   3.308   4.283  0.1820 -0.5047 -0.3522
 2877WAT     H1 8842   0.109   3.232   4.257  0.8956 -0.3026  0.4543
 2877WAT     H2 8843   0.009   3.279   4.361  0.0408 -0.2983 -0.3608
 2878WAT      O 8844   4.507   0.893   1.758  0.4251  0.4526  0.0276
 2878WAT     H1 8845   4.414   0.906   1.777  0.4595  0.4217  0.2128
 2878WAT     H2 8846   4.509   0.827   1.689  0.2653  1.0816 -0.5967
 2879WAT      O 8847   2.851   1.055   3.276 -0.1772 -0.2317 -0.0594
 2879WAT     H1 8848   2.847   0.963   3.303  0.4224 -0.5347 -0.9645
 2879WAT     H2 8849   2.781   1.064   3.211  0.8492 -0.5041 -1.2406
 2880WAT      O 8850   3.120   1.077   3.215 -0.4903 -0.1356  0.3572
 2880WAT     H1 8851   3.026   1.068   3.227 -0.3823 -1.2947  0.4832
 2880WAT     H2 8852   3.158   1.009   3.271  0.4242  0.3226  0.3187
 2881WAT      O 8853   4.024   1.158   1.288 -0.1231  0.0388  0.1490
 2881WAT     H1 8854   4.067   1.198   1.213 -1.8516  0.3695 -0.6926
 2881WAT     H2 8855   3.948   1.113   1.252 -1.0224  0.2323  1.6886
 2882WAT      O 8856   0.404   2.491   1.374  0.1599  0.5333  0.5250
 2882WAT     H1 8857   0.328   2.445   1.411 -1.4661  2.2613 -0.4747
 2882WAT     H2 8858   0.437   2.544   1.446 -0.4703  0.8222  0.6101
 2883WAT      O 8859   1.282   2.637   1.093 -1.0562  0.3112  0.4287
 2883WAT     H1 8860   1.323   2.698   1.032  0.0755 -3.1494 -2.6698
 2883WAT     H2 8861   1.192   2.630   1.063 -0.7841 -0.5956 -0.2156
 2884WAT      O 8862   3.646   2.830   3.286  0.0155  0.4538  0.1504
 2884WAT     H1 8863   3.691   2.876   3.215 -0.3121  1.1295  0.3675
 2884WAT     H2 8864   3.627   2.899   3.350 -1.3816  0.2066  0.0382
 2885WAT      O 8865   3.800   2.125   4.744 -1.2287 -0.0836 -0.4873
 2885WAT     H1 8866   3.726   2.091   4.694 -1.5573  0.1921 -0.1948
 2885WAT     H2 8867   3.848   2.048   4.773 -0.8244 -0.2414 -1.5328
 2886WAT      O 8868   0.939   0.229   1.612 -0.1663 -0.4124 -0.5191
 2886WAT     H1 8869   1.002   0.251   1.544  0.4394 -1.8587 -0.4612
 2886WAT     H2 8870   0.956   0.292   1.682  2.8333 -2.1018  0.4533
 2887WAT      O 8871   3.321   0.594   3.734 -0.2515  0.1719  0.0814
 2887WAT     H1 8872   3.342   0.677   3.777 -2.0104  0.4200  0.5651
 2887WAT     H2 8873   3.228   0.580   3.754 -0.8498 -0.3005 -2.6547
 2888WAT      O 8874   2.065   3.397   0.101  0.5551  0.2684 -0.5218
 2888WAT     H1 8875   2.105   3.354   0.177  0.2228 -1.3621 -1.2117
 2888WAT     H2 8876   2.105   3.484   0.098  1.1425  0.0847  1.0525
 2889WAT      O 8877   3.348   4.817   5.081 -0.0256  0.5045 -0.3631
 2889WAT     H1 8878   3.441   4.808   5.105 -0.0707  0.1352 -0.3289
 2889WAT     H2 8879   3.318   4.892   5.132  0.3712  0.9077 -0.7147
 2890WAT      O 8880   2.239   4.587   4.777  0.1301  0.0247 -0.3608
 2890WAT     H1 8881   2.316   4.606   4.831 -0.6147 -0.1149  0.7817
 2890WAT     H2 8882   2.183   4.664   4.786 -1.0302 -0.9274  0.9453
 2891WAT      O 8883   2.717   0.270   4.535  0.4056  0.2480 -0.6218
 2891WAT     H1 8884   2.714   0.213   4.612  0.6343  0.7965 -0.1947
 2891WAT     H2 8885   2.791   0.329   4.552  0.5888  0.2451 -1.3577
 2892WAT      O 8886   2.070   3.416   2.797  0.2319  0.1930 -0.5973
 2892WAT     H1 8887   1.975   3.419   2.786 -0.0541  1.0979  1.6520
 2892WAT     H2 8888   2.084   3.358   2.872  1.5219 -0.4381 -1.2826
 2893WAT      O 8889   1.064   3.808   3.032  0.4239 -0.0979  0.2722
 2893WAT     H1 8890   1.110   3.876   2.983  1.5001 -0.9901  0.0198
 2893WAT     H2 8891   1.006   3.767   2.968  1.2296 -0.7176 -0.0806
 2894WAT      O 8892   1.192   1.718   0.015 -0.5204 -0.0954 -0.7771
 2894WAT     H1 8893   1.116   1.697   0.068 -1.6633  1.0859 -1.8629
 2894WAT     H2 8894   1.221   1.635  -0.022 -0.6344 -0.6983  0.4584
 2895WAT      O 8895   2.696   0.147   0.740  0.3147 -0.0066  0.3354
 2895WAT     H1 8896   2.622   0.097   0.774  0.8150 -1.0449 -0.0749
 2895WAT     H2 8897   2.703   0.120   0.648  0.4012  1.0579  0.0195
 2896WAT      O 8898   2.862   2.951   2.407 -0.6208  0.2493  0.3864
 2896WAT     H1 8899   2.847   2.857   2.397 -1.0162  0.3397  0.1293
 2896WAT     H2 8900   2.810   2.992   2.338 -0.9755  0.6977  0.9073
 2897WAT      O 8901   4.256   2.720   1.856  0.1401 -0.3021 -0.3284
 2897WAT     H1 8902   4.207   2.638   1.849 -1.9048  0.8302 -0.1039
 2897WAT     H2 8903   4.280   2.741   1.766 -1.1504 -0.1403 -0.6626
 2898WAT      O 8904   1.971   0.018   3.361 -0.4369  0.2481  0.6266
 2898WAT     H1 8905   1.989   0.022   3.455 -0.1402  0.6255  0.5586
 2898WAT     H2 8906   1.948   0.108   3.337 -0.1677  0.2263  0.2741
 2899WAT      O 8907   2.893   1.556   4.683  0.0890  0.9278  0.0584
 2899WAT     H1 8908   2.927   1.497   4.616  0.6764 -1.2796  2.1932
 2899WAT     H2 8909   2.801   1.569   4.658 -0.2585 -1.4788 -0.1166
 2900WAT      O 8910   2.463   4.946   1.466  0.0380 -0.5843 -0.0909
 2900WAT     H1 8911   2.519   4.869   1.470  1.3198  0.2812 -0.6120
 2900WAT     H2 8912   2.500   5.006   1.532  1.5320  1.1130 -2.3276
 2901WAT      O 8913   0.116   3.046   2.636 -0.5993  0.1879  0.0859
 2901WAT     H1 8914   0.198   3.070   2.678 -1.0383  1.3650  0.3074
 2901WAT     H2 8915   0.048   3.086   2.690 -1.2179  1.0632 -1.2762
 2902WAT      O 8916   3.913   4.275   3.211  0.5139 -0.2901  0.1738
 2902WAT     H1 8917   3.833   4.236   3.246 -0.3464  1.2240 -0.0244
 2902WAT     H2 8918   3.948   4.327   3.284  0.8650 -0.2684 -0.0080
 2903WAT      O 8919   0.169   1.096   1.763 -0.1242  0.0579 -0.1501
 2903WAT     H1 8920   0.186   1.102   1.857 -1.3217  0.0437  0.0715
 2903WAT     H2 8921   0.089   1.044   1.756  0.1234 -0.2052 -1.1998
 2904WAT      O 8922   3.631   3.895   0.057  0.1608  0.6062 -0.5511
 2904WAT     H1 8923   3.698   3.836   0.022  1.3567  0.2339  2.0604
 2904WAT     H2 8924   3.677   3.979   0.067 -0.1329  0.6973  0.0694
 2905WAT      O 8925   1.759   0.309   3.498 -0.5419  0.0494 -0.2619
 2905WAT     H1 8926   1.734   0.263   3.418 -1.7302  1.1322 -0.5658
 2905WAT     H2 8927   1.840   0.355   3.475 -0.9715  0.5012 -0.9233
 2906WAT      O 8928   1.809   4.778   4.219 -0.0627 -0.2373  0.2404
 2906WAT     H1 8929   1.730   4.788   4.272  0.2242  1.4289  0.3969
 2906WAT     H2 8930   1.777   4.747   4.134 -1.2018  2.4866 -0.4322
 2907WAT      O 8931   3.435   2.393   4.910  0.2312 -0.1464  0.2028
 2907WAT     H1 8932   3.370   2.347   4.962 -0.3144  1.2114  0.7719
 2907WAT     H2 8933   3.480   2.450   4.972  0.3128  0.6967 -0.5937
 2908WAT      O 8934   2.649   0.808   2.882 -0.0424 -0.0363  0.0335
 2908WAT     H1 8935   2.659   0.869   2.809  3.0150 -1.0681 -0.5807
 2908WAT     H2 8936   2.601   0.857   2.949 -0.2866  1.9625 -1.5284
 2909WAT      O 8937   2.628   4.051   1.558  0.2431  0.3499  0.1952
 2909WAT     H1 8938   2.650   4.010   1.642  1.9592  1.4266  0.3212
 2909WAT     H2 8939   2.712   4.084   1.525 -0.7189  1.6979 -1.0053
 2910WAT      O 8940   0.773   0.512   4.521  0.5960  0.2585  0.5275
 2910WAT     H1 8941   0.817   0.523   4.605  0.3937  0.6415  0.5907
 2910WAT     H2 8942   0.831   0.555   4.458  0.4098  0.6018  0.5837
 2911WAT      O 8943   4.429   0.314   0.936 -0.1211  0.0672  0.0266
 2911WAT     H1 8944   4.512   0.362   0.939  0.9550 -1.7520  0.8700
 2911WAT     H2 8945   4.409   0.295   1.027 -0.0381 -1.8157 -0.3081
 2912WAT      O 8946   2.836   2.864   2.073  0.2599 -0.1896  0.1718
 2912WAT     H1 8947   2.781   2.937   2.099 -1.1638 -1.3935  0.6847
 2912WAT     H2 8948   2.802   2.836   1.988  2.7964  1.6375 -1.6099
 2913WAT      O 8949   3.494   2.322   2.402  0.3834  0.1018 -0.6472
 2913WAT     H1 8950   3.532   2.324   2.314  1.2047 -0.9829 -0.3419
 2913WAT     H2 8951   3.560   2.366   2.456  0.1769  0.1864 -0.4666
 2914WAT      O 8952   1.187   2.956   4.985 -0.5868  0.1533 -0.0321
 2914WAT     H1 8953   1.201   3.033   4.930  0.3046  0.3794  0.4927
 2914WAT     H2 8954   1.163   2.886   4.924  1.2821  0.1587 -0.8310
 2915WAT      O 8955   0.827   2.574   0.754 -0.3234  0.2307 -0.2439
 2915WAT     H1 8956   0.787   2.533   0.831 -1.1774  1.2428 -0.1141
 2915WAT     H2 8957   0.835   2.666   0.779 -2.2179  0.9412 -1.9520
 2916WAT      O 8958   2.251   2.011   3.236  0.0190 -0.1576 -0.2125
 2916WAT     H1 8959   2.236   1.921   3.263  0.2567 -0.8426 -2.1896
 2916WAT     H2 8960   2.335   2.034   3.275  1.8168 -2.1250 -2.5865
 2917WAT      O 8961   1.200   2.115   1.295 -0.6294  0.6702 -0.4382
 2917WAT     H1 8962   1.193   2.022   1.316  0.3583  0.8029  0.5698
 2917WAT     H2 8963   1.164   2.159   1.372  2.2946  1.1545  0.7580
 2918WAT      O 8964   4.022   0.989   2.430 -0.8395 -0.3670  0.0966
 2918WAT     H1 8965   4.096   1.028   2.384 -0.6930 -0.1370  0.5209
 2918WAT     H2 8966   3.952   0.987   2.365 -0.8010  0.4552  0.0193
 2919WAT      O 8967   1.423   3.349   3.114  0.1574  0.1323 -0.4835
 2919WAT     H1 8968   1.507   3.329   3.154 -0.2950 -0.6598  0.0983
 2919WAT     H2 8969   1.406   3.441   3.136  0.7865  0.2462 -0.4682
 2920WAT      O 8970   4.146   4.760   1.804 -0.4293 -0.5865  0.3013
 2920WAT     H1 8971   4.207   4.730   1.737 -1.4455 -0.3978 -0.7431
 2920WAT     H2 8972   4.147   4.691   1.871  1.3787 -0.2875  0.6429
 2921WAT      O 8973   2.711   3.218   1.695  0.0112 -0.0405 -0.2656
 2921WAT     H1 8974   2.662   3.137   1.705 -0.0006  0.1565  1.9778
 2921WAT     H2 8975   2.786   3.207   1.754 -0.4870  1.8854  0.8251
 2922WAT      O 8976   2.686   0.227   2.833  0.2808  0.2315  0.1003
 2922WAT     H1 8977   2.623   0.295   2.858  0.3491  0.2007  0.3649
 2922WAT     H2 8978   2.633   0.153   2.805  0.2070  0.6413 -0.8782
 2923WAT      O 8979   3.722   3.554   0.904  0.7139 -0.4416 -0.1165
 2923WAT     H1 8980   3.680   3.543   0.819  0.1285 -0.1609  0.1265
 2923WAT     H2 8981   3.778   3.631   0.893 -0.6449  0.6376  0.2132
 2924WAT      O 8982   1.549   1.479   5.247 -0.4604 -0.1620  0.2106
 2924WAT     H1 8983   1.482   1.539   5.214 -0.5508 -0.2872  0.1670
 2924WAT     H2 8984   1.627   1.533   5.258  0.1008 -0.4730 -1.8966
 2925WAT      O 8985   3.381   1.487   4.476  0.4829  0.2880  0.0363
 2925WAT     H1 8986   3.309   1.487   4.539 -0.0657 -0.0359 -0.5636
 2925WAT     H2 8987   3.419   1.574   4.482  1.0587 -0.0299  1.4839
 2926WAT      O 8988   0.601   3.739   0.540 -0.4281  0.0749 -0.2776
 2926WAT     H1 8989   0.691   3.765   0.557 -0.3224  0.8383 -1.8750
 2926WAT     H2 8990   0.589   3.751   0.446 -1.8598 -1.0972 -0.2871
 2927WAT      O 8991   2.703   0.600   2.264  0.1467  0.0281 -0.6771
 2927WAT     H1 8992   2.610   0.620   2.257  0.3833  0.8486 -1.6612
 2927WAT     H2 8993   2.726   0.626   2.354 -0.5133  0.0540 -0.5134
 2928WAT      O 8994   3.877   0.590   4.891  0.1286  0.4766  0.2728
 2928WAT     H1 8995   3.794   0.612   4.933 -1.5042 -0.8529 -2.0048
 2928WAT     H2 8996   3.906   0.671   4.849 -0.9324  0.5523 -0.3310
 2929WAT      O 8997   1.438   2.887   4.223  0.0642 -0.2611  0.1076
 2929WAT     H1 8998   1.346   2.900   4.246 -0.3932 -1.9920 -0.5463
 2929WAT     H2 8999   1.436   2.865   4.129  1.0769 -0.8799  0.2136
 2930WAT      O 9000   3.029   3.980   4.392 -0.7421  0.2682 -0.1913
 2930WAT     H1 9001   3.106   4.038   4.389 -0.0799 -0.5727  0.0336
 2930WAT     H2 9002   2.958   4.036   4.422 -0.0132  0.8658  0.4843
 2931WAT      O 9003   2.869   0.141   3.882  0.0248  0.2321  0.2970
 2931WAT     H1 9004   2.902   0.052   3.893 -0.0944 -0.0486 -1.4762
 2931WAT     H2 9005   2.894   0.166   3.793 -0.8803  1.5729  0.3894
 2932WAT      O 9006   1.072   3.492   3.140 -0.2992 -0.0731 -0.2124
 2932WAT     H1 9007   1.132   3.565   3.158 -1.0683 -0.0638  3.0556
 2932WAT     H2 9008   1.122   3.433   3.084  2.0195  0.9049  0.7033
 2933WAT      O 9009   1.860   3.157   4.968 -0.2823  0.4970 -0.0491
 2933WAT     H1 9010   1.921   3.091   4.935 -1.1122 -0.4711  0.2923
 2933WAT     H2 9011   1.872   3.154   5.063 -1.0995  0.0419  0.0456
 2934WAT      O 9012   2.754   4.167   2.718 -0.2275 -0.0564 -0.3698
 2934WAT     H1 9013   2.827   4.222   2.691 -0.0615 -0.4735 -0.7907
 2934WAT     H2 9014   2.749   4.178   2.813  1.1249 -0.9134 -0.1769
 2935WAT      O 9015   1.774   3.521   3.694 -0.5838  0.3794  0.2116
 2935WAT     H1 9016   1.734   3.446   3.738 -0.9409 -0.0791 -0.8746
 2935WAT     H2 9017   1.777   3.589   3.761  0.3332 -0.7941  1.4046
 2936WAT      O 9018   0.199   4.428   1.845 -0.1032 -0.3764  0.4879
 2936WAT     H1 9019   0.153   4.501   1.886 -1.0893 -1.5823  1.6116
 2936WAT     H2 9020   0.136   4.392   1.783  0.4054 -0.2689 -0.1138
 2937WAT      O 9021   4.178   4.837   4.460 -0.7351  0.4439  0.3718
 2937WAT     H1 9022   4.226   4.802   4.384  0.2917  1.4614  0.5236
 2937WAT     H2 9023   4.165   4.929   4.440 -0.4367  0.7267  1.4373
 2938WAT      O 9024   0.917   4.908   4.930  0.1037 -0.3743  0.3758
 2938WAT     H1 9025   0.878   4.852   4.997 -0.7416 -0.2022  0.0413
 2938WAT     H2 9026   0.877   4.994   4.946  0.3593 -0.1901  0.0305
 2939WAT      O 9027   3.068   3.964   2.968 -0.0088  0.7318  0.0121
 2939WAT     H1 9028   3.028   3.934   3.049  0.0712 -0.3470 -0.3217
 2939WAT     H2 9029   3.093   4.055   2.984  0.9532  0.2282  1.5473
 2940WAT      O 9030   2.166   3.832   2.207 -0.1998 -0.0418  0.1507
 2940WAT     H1 9031   2.120   3.777   2.143  0.4562  0.1372 -0.4855
 2940WAT     H2 9032   2.257   3.831   2.178 -0.3537  2.3997 -0.6317
 2941WAT      O 9033   4.430   0.578   2.803 -0.1112 -0.2242 -0.3573
 2941WAT     H1 9034   4.437   0.645   2.871 -0.6876 -1.1712  0.6651
 2941WAT     H2 9035   4.475   0.616   2.728  0.3283  0.9531  0.4676
 2942WAT      O 9036   3.972   3.219   0.958  0.4259  0.2818 -0.5110
 2942WAT     H1 9037   4.043   3.215   0.894  1.0570  0.4278  0.1628
 2942WAT     H2 9038   4.016   3.214   1.043 -0.2369  1.9314 -0.0365
 2943WAT      O 9039   0.412   2.588   5.169  0.5940 -0.7449 -0.3665
 2943WAT     H1 9040   0.329   2.573   5.213  0.3619  0.9418 -0.1593
 2943WAT     H2 9041   0.452   2.501   5.163 -1.5446 -1.7356 -1.2646
 2944WAT      O 9042   3.568   3.803   2.390 -0.5449 -0.2917  0.7085
 2944WAT     H1 9043   3.522   3.887   2.389  0.4862  0.2948 -0.8528
 2944WAT     H2 9044   3.499   3.739   2.406 -1.9496  0.5533 -1.4492
 2945WAT      O 9045   0.741   4.029   0.776 -0.3654 -0.6468  0.1663
 2945WAT     H1 9046   0.671   4.079   0.734 -0.4787  0.0121  1.1286
 2945WAT     H2 9047   0.697   3.952   0.812 -0.5808 -0.2917  0.6682
 2946WAT      O 9048   0.454   0.708   0.486  0.3726  0.0515  0.1375
 2946WAT     H1 9049   0.482   0.773   0.551 -0.7687 -0.0795  0.8041
 2946WAT     H2 9050   0.531   0.691   0.433  1.3653  0.1297  1.5109
 2947WAT      O 9051   0.917   2.169   1.670  0.0676 -0.8874 -0.2453
 2947WAT     H1 9052   0.890   2.081   1.641 -2.1892  0.1215 -1.4340
 2947WAT     H2 9053   0.955   2.209   1.592 -0.3793 -0.2540 -0.1425
 2948WAT      O 9054   0.369   4.744   3.353  0.2904 -0.4041  0.3011
 2948WAT     H1 9055   0.416   4.662   3.367 -0.4286 -1.2040 -1.6067
 2948WAT     H2 9056   0.302   4.746   3.421 -0.0308 -1.6849  0.0454
 2949WAT      O 9057   3.880   2.009   1.560  0.1209  0.0763  0.4507
 2949WAT     H1 9058   3.915   2.083   1.509 -0.3709  0.2712  0.3917
 2949WAT     H2 9059   3.893   1.933   1.503 -1.5486  0.4686 -0.5112
 2950WAT      O 9060   4.019   5.034   1.260 -0.0730 -0.1427 -0.0161
 2950WAT     H1 9061   3.957   4.995   1.198 -0.5989 -0.2306  0.5628
 2950WAT     H2 9062   4.096   5.054   1.206 -0.7638  0.3822 -0.8435
 2951WAT      O 9063   1.074   2.278   4.167 -0.5561 -0.3509  0.3207
 2951WAT     H1 9064   1.022   2.198   4.172 -1.9063  0.2577 -2.0141
 2951WAT     H2 9065   1.089   2.304   4.258 -1.7703 -2.1917  1.0926
 2952WAT      O 9066   4.483   0.634   3.344 -0.0559  0.0683  0.2490
 2952WAT     H1 9067   4.421   0.591   3.284  1.3703 -1.7392 -0.0264
 2952WAT     H2 9068   4.556   0.661   3.287  0.2742  0.4522  0.8432
 2953WAT      O 9069   2.060   1.812   3.385 -0.3678  0.3467  0.0841
 2953WAT     H1 9070   2.005   1.854   3.318  1.1568  1.9352 -0.2496
 2953WAT     H2 9071   2.068   1.879   3.453  1.2759  0.2299  0.0344
 2954WAT      O 9072   1.151   4.216   3.806  0.3570  0.6664 -0.2801
 2954WAT     H1 9073   1.213   4.166   3.860 -0.8221  0.6534  1.1010
 2954WAT     H2 9074   1.085   4.153   3.779  1.0828  0.6018 -2.0544
 2955WAT      O 9075   0.984   2.693   1.039 -0.2726 -0.0369 -0.1845
 2955WAT     H1 9076   0.889   2.685   1.025 -0.0408 -1.0830 -1.3108
 2955WAT     H2 9077   0.991   2.744   1.120 -1.7954 -0.1166  0.0440
 2956WAT      O 9078   2.586   3.066   0.591  0.1019  0.1039  1.0108
 2956WAT     H1 9079   2.653   3.131   0.570  2.0579 -1.1169  3.0078
 2956WAT     H2 9080   2.568   3.080   0.684  0.0473 -1.7176  1.3028
 2957WAT      O 9081   4.059   2.150   3.814 -0.1361 -0.3282 -0.2658
 2957WAT     H1 9082   4.114   2.108   3.880  0.1700 -0.2547 -0.4759
 2957WAT     H2 9083   4.082   2.107   3.732  2.2672  2.1341 -1.0307
 2958WAT      O 9084   2.910   1.223   2.456  0.2419  0.2667 -0.1119
 2958WAT     H1 9085   2.984   1.277   2.484  1.0734  0.2831 -2.1502
 2958WAT     H2 9086   2.949   1.141   2.428 -0.5859  0.0292 -0.6024
 2959WAT      O 9087   1.925   1.114   0.770  0.3467  0.5814  0.4905
 2959WAT     H1 9088   1.964   1.132   0.855  1.7683  1.2951 -0.2832
 2959WAT     H2 9089   1.987   1.055   0.727  0.6886  1.8455 -0.8111
 2960WAT      O 9090   3.436   2.248   1.690 -0.0182  0.3923 -0.2078
 2960WAT     H1 9091   3.506   2.301   1.653  1.2917 -2.1275 -1.5721
 2960WAT     H2 9092   3.480   2.187   1.749 -1.1516 -0.5687 -0.3002
 2961WAT      O 9093   3.580   4.835   4.592  0.1572 -0.6682 -0.2581
 2961WAT     H1 9094   3.513   4.895   4.624 -0.8897 -1.3035 -1.1973
 2961WAT     H2 9095   3.540   4.749   4.597  0.5562 -0.9634 -1.6716
 2962WAT      O 9096   2.870   1.845   3.171  0.6603  0.2202 -0.0410
 2962WAT     H1 9097   2.870   1.878   3.081 -0.2831  2.2469  0.6318
 2962WAT     H2 9098   2.787   1.799   3.179 -0.2032  1.7584  0.3101
 2963WAT      O 9099   1.209   2.413   0.796  0.4453  0.4347  0.8342
 2963WAT     H1 9100   1.170   2.418   0.708  0.1037 -1.3278  0.8623
 2963WAT     H2 9101   1.295   2.454   0.786  0.5789 -0.1137 -0.4379
 2964WAT      O 9102   2.673   3.092   2.122 -0.3694  0.9939  0.5297
 2964WAT     H1 9103   2.606   3.121   2.185 -1.1600 -1.1143  0.7454
 2964WAT     H2 9104   2.623   3.061   2.047  0.2357 -1.5317  1.0781
 2965WAT      O 9105   2.445   4.246   5.234  0.2239 -0.5622 -0.1974
 2965WAT     H1 9106   2.424   4.181   5.168  0.4406  0.8543 -1.7218
 2965WAT     H2 9107   2.503   4.201   5.295 -1.8038 -2.5778  0.3754
 2966WAT      O 9108   3.061   3.422   3.585  0.0347 -0.1194 -0.1043
 2966WAT     H1 9109   2.980   3.416   3.635  0.1114 -1.2798 -0.0977
 2966WAT     H2 9110   3.074   3.516   3.572 -2.5902  0.0328 -2.2405
 2967WAT      O 9111   2.643   4.804   1.165 -0.5109  0.2883  0.4889
 2967WAT     H1 9112   2.616   4.713   1.173 -1.5089  0.4789 -0.4836
 2967WAT     H2 9113   2.729   4.808   1.208 -0.2254 -1.2068  0.0898
 2968WAT      O 9114   0.685   3.186   0.493  0.4808  0.1765 -0.0594
 2968WAT     H1 9115   0.700   3.272   0.532 -0.8313 -0.4352  1.9331
 2968WAT     H2 9116   0.684   3.203   0.399 -2.1080  2.8343  0.2907
 2969WAT      O 9117   2.457   2.122   3.387  0.2754  0.0353 -0.2329
 2969WAT     H1 9118   2.510   2.046   3.410 -0.3537 -0.6173 -0.9031
 2969WAT     H2 9119   2.517   2.177   3.335  0.3369 -0.6426 -0.8936
 2970WAT      O 9120   4.282   4.063   0.604 -0.2624  0.2846  0.4221
 2970WAT     H1 9121   4.344   4.031   0.670  2.1701  0.1981 -1.7614
 2970WAT     H2 9122   4.295   4.005   0.529 -1.8788  1.2795 -0.6753
 2971WAT      O 9123   3.253   2.955   0.975  0.4353 -0.1617 -0.1209
 2971WAT     H1 9124   3.347   2.963   0.992  0.2995  1.1173  0.1549
 2971WAT     H2 9125   3.218   3.043   0.991 -1.0866 -0.9821  1.4644
 2972WAT      O 9126   0.019   0.866   4.990  0.2847 -0.0701  0.2516
 2972WAT     H1 9127   0.109   0.880   4.960  0.8578  0.1650  1.9648
 2972WAT     H2 9128   0.012   0.770   4.998  1.1659 -0.0225  2.2126
 2973WAT      O 9129   3.670   0.303   2.088 -0.0537  0.0583 -0.4004
 2973WAT     H1 9130   3.625   0.383   2.115 -0.1166 -0.7293  2.0149
 2973WAT     H2 9131   3.606   0.233   2.102  0.9345 -0.7341  0.2758
 2974WAT      O 9132   4.066   1.431   3.439 -0.4509 -0.1731 -0.0178
 2974WAT     H1 9133   3.979   1.418   3.401 -0.1624  0.6446 -1.0255
 2974WAT     H2 9134   4.081   1.525   3.431  0.4856 -0.2960  0.2299
 2975WAT      O 9135   3.043   2.642   0.031  0.1503  0.8475 -0.5354
 2975WAT     H1 9136   3.088   2.613  -0.049  0.3923 -1.9931  0.4980
 2975WAT     H2 9137   3.106   2.701   0.073  2.4690 -1.7939  0.0895
 2976WAT      O 9138   0.972   3.506   1.812 -0.4830 -0.0443 -0.3525
 2976WAT     H1 9139   1.041   3.532   1.751 -0.7321 -0.0429 -0.6321
 2976WAT     H2 9140   0.974   3.410   1.811 -1.4135 -0.0782 -1.4304
 2977WAT      O 9141   3.586   3.249   4.957  0.2003 -0.5746  0.3156
 2977WAT     H1 9142   3.545   3.198   4.888  2.1436 -1.2836 -0.3883
 2977WAT     H2 9143   3.584   3.191   5.034 -0.7510 -0.3079  0.5038
 2978WAT      O 9144   4.053   1.965   3.199  0.1410  0.2343  0.0996
 2978WAT     H1 9145   4.056   2.050   3.157 -0.1932  0.0416 -0.3225
 2978WAT     H2 9146   3.969   1.964   3.246 -0.7850 -0.5869 -1.4836
 2979WAT      O 9147   1.165   1.772   3.484 -0.4838  0.1650 -0.5165
 2979WAT     H1 9148   1.113   1.692   3.490  2.4227 -1.9445 -1.1140
 2979WAT     H2 9149   1.182   1.783   3.390  1.9198 -0.5626 -0.2340
 2980WAT      O 9150   2.894   0.567   3.215 -0.2460 -0.0053  0.1342
 2980WAT     H1 9151   2.804   0.547   3.189 -0.0077 -0.7143 -0.1582
 2980WAT     H2 9152   2.949   0.516   3.156  0.2963 -2.0588  2.2628
 2981WAT      O 9153   1.242   4.791   1.632  0.3589  0.4680  0.1546
 2981WAT     H1 9154   1.322   4.778   1.581 -0.5560 -0.3955 -1.1278
 2981WAT     H2 9155   1.272   4.797   1.723  1.7574 -1.2148 -0.1413
 2982WAT      O 9156   0.063   0.609   5.138  0.1781  0.0326  0.2653
 2982WAT     H1 9157   0.110   0.594   5.220  1.3577 -2.8435 -0.8283
 2982WAT     H2 9158   0.130   0.604   5.070 -0.9744  1.0780 -1.0169
 2983WAT      O 9159   3.744   1.429   0.126 -0.1312  0.4765  0.0850
 2983WAT     H1 9160   3.719   1.480   0.049 -1.3891  1.2136  0.9549
 2983WAT     H2 9161   3.661   1.404   0.167  0.3401 -3.2209 -0.8477
 2984WAT      O 9162   1.459   2.883   5.049 -0.0449  0.9438  0.2294
 2984WAT     H1 9163   1.372   2.919   5.035 -0.1617  0.4304 -0.3812
 2984WAT     H2 9164   1.464   2.866   5.143 -0.2873  1.7732  0.3974
 2985WAT      O 9165   0.247   4.730   5.048  0.2316 -0.3293 -0.2291
 2985WAT     H1 9166   0.312   4.789   5.008  0.2548 -0.2951 -0.1418
 2985WAT     H2 9167   0.178   4.789   5.079  0.7623 -0.2437  0.8297
 2986WAT      O 9168   1.661   2.368   2.204  0.1584 -0.6927  0.5735
 2986WAT     H1 9169   1.611   2.444   2.173 -1.9348 -1.7778  1.1446
 2986WAT     H2 9170   1.753   2.396   2.196 -0.5203  1.8622  0.6877
 2987WAT      O 9171   2.112   0.737   1.122 -0.0535  0.4532  0.1052
 2987WAT     H1 9172   2.099   0.727   1.216  0.0071  0.9050  0.1683
 2987WAT     H2 9173   2.201   0.705   1.106  0.4385  1.5878  0.4280
 2988WAT      O 9174   3.072   4.717   1.593  0.7678  0.7383 -0.3517
 2988WAT     H1 9175   3.095   4.690   1.504 -1.7885  2.9822 -1.8626
 2988WAT     H2 9176   3.018   4.645   1.626  0.2316  0.6549 -1.3703
 2989WAT      O 9177   2.208   1.141   3.407 -0.1935 -0.2523  0.5963
 2989WAT     H1 9178   2.148   1.213   3.386  1.4137  0.7608 -0.7538
 2989WAT     H2 9179   2.171   1.065   3.362 -0.3232  0.4160 -0.4470
 2990WAT      O 9180   3.422   0.262   2.788  0.1660  0.9663 -0.0863
 2990WAT     H1 9181   3.338   0.218   2.790 -0.6416  2.3606 -1.4200
 2990WAT     H2 9182   3.401   0.355   2.780  1.7068  2.1307  5.0809
 2991WAT      O 9183   3.412   0.270   3.062 -0.4457  0.1803  0.4741
 2991WAT     H1 9184   3.441   0.301   2.976 -1.5082  0.7830  0.3030
 2991WAT     H2 9185   3.362   0.343   3.098 -1.6106 -0.7384  0.7904
 2992WAT      O 9186   2.430   4.372   3.529 -0.3766 -0.4848 -0.0346
 2992WAT     H1 9187   2.494   4.432   3.490  1.5553 -2.8099 -0.6972
 2992WAT     H2 9188   2.412   4.410   3.615 -0.0452  1.5405 -0.7946
 2993WAT      O 9189   4.313   4.916   0.080  0.2305 -0.7967 -0.1736
 2993WAT     H1 9190   4.326   4.971   0.003  0.7755 -1.6578 -0.7174
 2993WAT     H2 9191   4.219   4.920   0.097  0.4713  1.9587  1.0948
 2994WAT      O 9192   2.513   2.230   4.876  0.1676 -0.6759 -0.1582
 2994WAT     H1 9193   2.438   2.173   4.857  0.0460 -0.5090 -0.1789
 2994WAT     H2 9194   2.583   2.195   4.822 -0.0421 -0.5061 -0.5440
 2995WAT      O 9195   3.966   2.337   4.638  0.0103  0.9029  0.3500
 2995WAT     H1 9196   3.906   2.411   4.626 -1.1154 -0.2892 -2.2039
 2995WAT     H2 9197   3.912   2.269   4.678  0.0822  0.3647 -0.4536
 2996WAT      O 9198   1.435   3.702   1.809  0.2118  0.4195  0.4734
 2996WAT     H1 9199   1.450   3.609   1.825 -0.3048  0.1296 -0.6488
 2996WAT     H2 9200   1.479   3.746   1.882 -2.4694 -0.7907  3.0192
 2997WAT      O 9201   1.763   0.894   0.532 -0.6539 -0.1441 -0.5994
 2997WAT     H1 9202   1.812   0.969   0.565 -0.1213 -0.2174 -1.1978
 2997WAT     H2 9203   1.803   0.818   0.574 -0.5445 -0.1696 -0.7497
 2998WAT      O 9204   2.545   4.595   2.305  0.2106 -0.6699  0.6168
 2998WAT     H1 9205   2.503   4.665   2.356  0.2536  0.9087 -1.3689
 2998WAT     H2 9206   2.624   4.574   2.354 -1.0768 -1.1478  2.5670
 2999WAT      O 9207   0.396   3.452   0.474  0.4688  0.0526 -0.0836
 2999WAT     H1 9208   0.391   3.439   0.379  1.2985 -0.5090 -0.0515
 2999WAT     H2 9209   0.487   3.478   0.490  0.8351 -1.6379  0.7660
 3000WAT      O 9210   2.159   3.265   5.070 -0.3201  0.6096  0.0735
 3000WAT     H1 9211   2.073   3.241   5.037 -0.3179 -2.0572  1.7468
 3000WAT     H2 9212   2.172   3.210   5.147  3.8112 -0.9213 -1.4082
 3001WAT      O 9213   2.484   4.143   3.394 -0.1608  0.0521  0.1577
 3001WAT     H1 9214   2.448   4.225   3.428  2.1845  1.7140 -1.0070
 3001WAT     H2 9215   2.511   4.094   3.472 -3.0272 -0.4460  0.9521
 3002WAT      O 9216   2.156   4.059   4.177 -0.1321 -0.3185  0.6092
 3002WAT     H1 9217   2.186   3.971   4.201  2.6602  0.4243  0.1693
 3002WAT     H2 9218   2.115   4.092   4.257 -0.1453 -1.5840  1.1523
 3003WAT      O 9219   2.680   0.244   0.261 -0.0137  0.3504 -0.1407
 3003WAT     H1 9220   2.717   0.263   0.347  0.9596  1.0476 -0.6837
 3003WAT     H2 9221   2.659   0.330   0.225 -0.0641  0.0900 -0.7426
 3004WAT      O 9222   3.779   4.766   2.077 -0.3671 -0.0428 -0.1519
 3004WAT     H1 9223   3.761   4.824   2.003  0.5969 -0.1068 -0.4629
 3004WAT     H2 9224   3.734   4.805   2.151 -2.5286 -0.7211 -1.0468
 3005WAT      O 9225   3.606   3.974   4.993 -0.0439  0.3054 -0.1805
 3005WAT     H1 9226   3.555   3.941   5.067 -1.5094 -1.7577 -2.0050
 3005WAT     H2 9227   3.656   3.898   4.963  2.6862  1.7769  0.3025
 3006WAT      O 9228   3.618   2.834   3.874  0.1880 -0.0834  0.1507
 3006WAT     H1 9229   3.624   2.842   3.778 -1.4909 -3.0915 -0.3143
 3006WAT     H2 9230   3.709   2.833   3.903  0.7327  1.7557 -1.2448
 3007WAT      O 9231   3.143   4.053   3.785  0.0719  0.0877  0.0928
 3007WAT     H1 9232   3.056   4.015   3.790  0.5082 -1.0490 -0.3976
 3007WAT     H2 9233   3.202   3.979   3.800  0.9534  0.7012 -0.2500
 3008WAT      O 9234   0.715   1.406   2.939  0.4322  0.9044  0.4193
 3008WAT     H1 9235   0.781   1.362   2.993 -1.1404  1.1863  2.6960
 3008WAT     H2 9236   0.743   1.389   2.849  2.3835 -0.8328  1.2689
 3009WAT      O 9237   0.226   2.177   2.721 -0.2785  0.2344 -0.2056
 3009WAT     H1 9238   0.291   2.233   2.763 -0.2839  1.6288 -1.9455
 3009WAT     H2 9239   0.158   2.165   2.787  0.5190  0.8898  0.7703
 3010WAT      O 9240   2.469   2.177   3.870  0.2355 -0.4266 -0.5374
 3010WAT     H1 9241   2.544   2.174   3.811  1.6356  3.0667  0.7566
 3010WAT     H2 9242   2.490   2.114   3.938  1.4009 -0.4159 -0.8561
 3011WAT      O 9243   2.189   2.131   4.491 -0.4620 -0.1731 -0.5979
 3011WAT     H1 9244   2.119   2.160   4.432  0.0349 -0.3942 -1.3123
 3011WAT     H2 9245   2.269   2.145   4.441 -0.0678 -0.8245 -0.1615
 3012WAT      O 9246   0.125   3.111   4.940 -0.1369 -0.0879 -0.7388
 3012WAT     H1 9247   0.054   3.048   4.949  0.7628 -0.9519  0.8553
 3012WAT     H2 9248   0.149   3.108   4.848 -0.1762 -2.0421 -0.7095
 3013WAT      O 9249   1.277   2.011   1.870 -0.2517  0.1164  0.2547
 3013WAT     H1 9250   1.221   1.948   1.916  1.4438 -1.4993  0.2121
 3013WAT     H2 9251   1.364   1.995   1.905  0.3917  1.8009 -0.4943
 3014WAT      O 9252   2.555   0.062   3.470  0.1662 -0.4442  0.2846
 3014WAT     H1 9253   2.476   0.029   3.429  0.9547 -0.5835 -1.1779
 3014WAT     H2 9254   2.574   0.144   3.424  1.4382 -0.9474 -0.1373
 3015WAT      O 9255   0.419   0.601   4.543 -0.6667 -0.1808 -0.2554
 3015WAT     H1 9256   0.454   0.674   4.492  0.4413 -1.3598 -1.2403
 3015WAT     H2 9257   0.335   0.633   4.575  1.1204  2.6748  2.0266
 3016WAT      O 9258   1.014   4.187   1.885 -0.2572  0.2934  0.0559
 3016WAT     H1 9259   0.940   4.188   1.823  0.9500 -1.8378 -1.5638
 3016WAT     H2 9260   1.081   4.239   1.841  1.0747 -2.3025 -1.2045
 3017WAT      O 9261   0.057   2.139   2.936  0.4411 -0.2959  0.3816
 3017WAT     H1 9262   0.099   2.134   3.022  0.5957  1.2821  0.4424
 3017WAT     H2 9263   0.023   2.229   2.932 -1.7801 -1.0976 -0.2150
 3018WAT      O 9264   0.779   4.985   2.414 -0.2472  0.5494 -0.2168
 3018WAT     H1 9265   0.850   4.928   2.383 -1.2602 -0.9348  0.1216
 3018WAT     H2 9266   0.805   5.008   2.503  2.1866  4.0431 -1.5556
 3019WAT      O 9267   3.791   3.220   4.029  0.1206 -0.4378 -0.4230
 3019WAT     H1 9268   3.805   3.314   4.024 -1.4145 -0.2284 -1.3437
 3019WAT     H2 9269   3.697   3.208   4.013  0.4666 -2.1849 -1.4564
 3020WAT      O 9270   0.918   5.000   2.659 -0.0517 -0.3029  0.2800
 3020WAT     H1 9271   0.906   5.032   2.748  0.4076 -0.7479  0.5079
 3020WAT     H2 9272   1.002   4.955   2.661 -0.8858 -1.9388  0.0906
 3021WAT      O 9273   1.144   3.291   4.648  0.5777 -0.2833  0.1247
 3021WAT     H1 9274   1.085   3.251   4.713  0.9005 -0.4202  0.3365
 3021WAT     H2 9275   1.226   3.304   4.696  0.7061 -0.0569 -0.1587
 3022WAT      O 9276   3.223   1.623   2.135  0.4963 -0.5685 -0.9896
 3022WAT     H1 9277   3.213   1.719   2.137  1.1400 -0.5022  0.8637
 3022WAT     H2 9278   3.194   1.598   2.047 -3.6832  0.8508 -0.2534
 3023WAT      O 9279   2.541   0.900   1.531  0.0549  0.0844  0.9429
 3023WAT     H1 9280   2.526   0.817   1.486 -0.2939  0.2779  0.7031
 3023WAT     H2 9281   2.624   0.932   1.495 -0.1527  0.1721  0.5346
 3024WAT      O 9282   4.289   1.897   3.052  0.1527  0.2411 -0.1558
 3024WAT     H1 9283   4.208   1.880   3.099 -0.2588 -1.2736 -1.3257
 3024WAT     H2 9284   4.354   1.911   3.120 -0.5719 -1.1643  0.8684
 3025WAT      O 9285   0.872   3.707   3.819  0.0884 -0.5130 -0.5547
 3025WAT     H1 9286   0.852   3.787   3.868 -1.9750 -1.7636  0.7728
 3025WAT     H2 9287   0.967   3.712   3.804  0.0811  1.9826 -0.2133
 3026WAT      O 9288   3.301   5.085   5.146  0.4656  0.3898 -1.0400
 3026WAT     H1 9289   3.332   5.090   5.056  0.3074  3.1256 -1.0179
 3026WAT     H2 9290   3.209   5.111   5.141  0.3055  0.0325 -0.1502
 3027WAT      O 9291   1.041   3.505   2.391  0.0596  0.8884  0.0317
 3027WAT     H1 9292   0.999   3.589   2.409 -0.6393  0.5096  0.1937
 3027WAT     H2 9293   1.105   3.524   2.323  0.7184  1.7847  0.8597
 3028WAT      O 9294   0.458   2.417   3.600  0.6738 -0.1388 -0.2164
 3028WAT     H1 9295   0.551   2.400   3.588  0.6223  0.3579 -1.5603
 3028WAT     H2 9296   0.427   2.443   3.512 -1.1111 -2.1448 -0.2605
 3029WAT      O 9297   2.820   3.634   0.122 -0.3480  0.0577 -0.2011
 3029WAT     H1 9298   2.894   3.679   0.081  2.5192 -2.4282  1.7587
 3029WAT     H2 9299   2.774   3.592   0.050  0.6383  0.9823 -1.4189
 3030WAT      O 9300   2.613   4.720   1.541  0.4248 -0.5239  0.1461
 3030WAT     H1 9301   2.693   4.772   1.549  1.4011 -1.5219 -2.1416
 3030WAT     H2 9302   2.594   4.692   1.630  0.8276  2.2620  1.1979
 3031WAT      O 9303   1.971   0.925   2.161  0.0912  0.3120  0.2623
 3031WAT     H1 9304   1.959   0.846   2.109  0.4562  0.5204 -0.1471
 3031WAT     H2 9305   1.882   0.953   2.184 -0.0146 -1.1606  1.8848
 3032WAT      O 9306   3.731   0.799   2.693 -0.7467 -0.6560 -0.3255
 3032WAT     H1 9307   3.692   0.883   2.668 -3.2550 -1.2453  1.2026
 3032WAT     H2 9308   3.680   0.734   2.645  2.0966 -1.3503 -2.6192
 3033WAT      O 9309   0.848   3.526   1.044  0.1753 -0.2136  0.2345
 3033WAT     H1 9310   0.781   3.577   0.999  0.0855 -0.0981  0.4961
 3033WAT     H2 9311   0.894   3.480   0.974 -0.9969 -1.3099  0.1293
 3034WAT      O 9312   4.234   2.336   5.107  0.1116  0.3048  0.0932
 3034WAT     H1 9313   4.280   2.347   5.024 -0.2548  1.5897  0.0337
 3034WAT     H2 9314   4.218   2.425   5.138  0.8163 -0.1374  1.8834
 3035WAT      O 9315   0.486   2.127   4.674  0.1050  0.2945  0.2649
 3035WAT     H1 9316   0.496   2.222   4.664  0.0697  0.3178  0.4419
 3035WAT     H2 9317   0.574   2.096   4.693 -0.0351  0.4118  1.1380
 3036WAT      O 9318   2.252   3.962   0.193  0.4222 -0.0382  0.4749
 3036WAT     H1 9319   2.306   4.027   0.238  1.8700  0.4682 -1.8191
 3036WAT     H2 9320   2.162   3.992   0.204  0.9728  1.6141  0.6149
 3037WAT      O 9321   1.703   2.931   1.461 -0.7975  0.1528 -0.8974
 3037WAT     H1 9322   1.667   2.845   1.439 -1.1187  0.2543 -0.7852
 3037WAT     H2 9323   1.657   2.991   1.403 -0.9118  0.3011 -0.6563
 3038WAT      O 9324   3.242   1.741   5.018 -0.2374  0.5341 -0.5049
 3038WAT     H1 9325   3.156   1.702   5.012  0.4106 -0.9205 -0.7715
 3038WAT     H2 9326   3.273   1.720   5.106  0.4573 -0.3391 -0.9399
 3039WAT      O 9327   0.181   1.499   4.339  0.5471 -0.2672  0.2869
 3039WAT     H1 9328   0.114   1.562   4.362  2.1125  1.6659 -0.1468
 3039WAT     H2 9329   0.138   1.440   4.277 -0.1473  2.4781 -2.0796
 3040WAT      O 9330   3.025   3.199   3.850 -0.1510  0.0353  0.2380
 3040WAT     H1 9331   3.094   3.142   3.886  0.6318 -0.4506 -1.8354
 3040WAT     H2 9332   2.990   3.149   3.776 -0.9220  1.3691 -0.3319
 3041WAT      O 9333   2.416   0.693   1.102 -0.0865 -0.2965  0.3310
 3041WAT     H1 9334   2.392   0.779   1.138 -0.2261 -0.7998  1.4884
 3041WAT     H2 9335   2.511   0.692   1.102 -0.0838 -0.0882  0.1713
 3042WAT      O 9336   4.115   1.767   3.700  0.0372  0.2670 -0.4093
 3042WAT     H1 9337   4.070   1.718   3.769  0.3509  1.1292  0.4273
 3042WAT     H2 9338   4.199   1.722   3.691 -0.3545 -0.3939 -0.8759
 3043WAT      O 9339   4.321   1.597   0.122 -0.2212 -0.1805 -0.2848
 3043WAT     H1 9340   4.261   1.666   0.093 -0.1707 -0.2150 -0.4750
 3043WAT     H2 9341   4.363   1.567   0.041 -1.5900 -1.7264 -0.4772
 3044WAT      O 9342   3.736   3.088   0.924 -0.1437 -0.2782 -0.2030
 3044WAT     H1 9343   3.823   3.128   0.927  0.9701 -2.5549  1.8487
 3044WAT     H2 9344   3.735   3.040   0.841  0.9652 -0.9250  0.1226
 3045WAT      O 9345   4.120   1.893   1.803  0.2905 -0.2492 -0.2981
 3045WAT     H1 9346   4.158   1.816   1.845  1.0070 -1.3824 -2.7909
 3045WAT     H2 9347   4.118   1.960   1.871  0.4831 -2.1941  1.7196
 3046WAT      O 9348   3.392   3.370   2.428 -0.6367 -0.1868  0.0177
 3046WAT     H1 9349   3.395   3.381   2.523 -0.9989 -0.0800  0.0167
 3046WAT     H2 9350   3.411   3.278   2.414 -2.6398 -0.6905  0.3139
 3047WAT      O 9351   0.210   0.745   4.618  0.1183 -0.2973 -0.0743
 3047WAT     H1 9352   0.174   0.693   4.691  1.1758  0.7645  1.2543
 3047WAT     H2 9353   0.166   0.829   4.625 -1.1630 -0.7635 -1.8734
 3048WAT      O 9354   3.176   2.927   5.087  0.6261  0.7770  0.2697
 3048WAT     H1 9355   3.157   3.004   5.034  1.8941  0.6614 -0.3815
 3048WAT     H2 9356   3.103   2.921   5.149  0.5276  2.5088  0.3481
 3049WAT      O 9357   0.478   0.467   3.351  0.0392  0.1636  0.1646
 3049WAT     H1 9358   0.491   0.513   3.268  0.3589 -0.3033 -0.0504
 3049WAT     H2 9359   0.403   0.410   3.335  0.1190  0.0523  0.1892
 3050WAT      O 9360   2.011   4.602   3.812 -0.4061 -0.1210 -0.2743
 3050WAT     H1 9361   1.984   4.558   3.732 -0.1783  0.5630 -0.7369
 3050WAT     H2 9362   1.965   4.686   3.810  0.9646  0.6353 -0.5713
 3051WAT      O 9363   1.256   4.581   5.038 -0.4141  0.0418  0.7825
 3051WAT     H1 9364   1.317   4.531   4.985 -1.1563  0.6945 -0.7525
 3051WAT     H2 9365   1.218   4.517   5.098  0.2677 -0.7782  0.3608
 3052WAT      O 9366   3.088   3.392   4.868 -0.3180  0.1580  0.0007
 3052WAT     H1 9367   3.023   3.416   4.802 -0.6420 -0.8685 -0.0795
 3052WAT     H2 9368   3.151   3.463   4.867 -1.2255  0.9808 -0.2142
 3053WAT      O 9369   1.302   2.522   1.675 -0.6047 -0.3594  0.2659
 3053WAT     H1 9370   1.249   2.563   1.607 -0.8062 -0.1771  0.5287
 3053WAT     H2 9371   1.240   2.470   1.726 -0.6288  0.2491  0.8782
 3054WAT      O 9372   1.693   3.722   2.245 -0.1225  0.6640  0.1443
 3054WAT     H1 9373   1.761   3.683   2.191 -2.2733  0.4385 -2.5955
 3054WAT     H2 9374   1.741   3.778   2.307  2.6108 -1.0561 -0.2467
 3055WAT      O 9375   2.924   4.457   3.358  0.1473 -0.0350 -0.7584
 3055WAT     H1 9376   2.879   4.387   3.405  1.6237 -2.3564 -2.5579
 3055WAT     H2 9377   3.012   4.422   3.342  0.7478  1.9820 -2.2892
 3056WAT      O 9378   0.324   1.398   2.396 -0.2237 -0.8055  0.0994
 3056WAT     H1 9379   0.275   1.369   2.473  0.3758 -0.9198  0.4365
 3056WAT     H2 9380   0.364   1.481   2.424 -2.0527  0.5061 -0.8928
 3057WAT      O 9381   0.908   4.085   2.104  0.1824  0.1747  0.1651
 3057WAT     H1 9382   0.944   4.124   2.025 -0.7821 -1.9388 -1.4270
 3057WAT     H2 9383   0.964   4.009   2.120  0.5469  0.7391  1.7264
 3058WAT      O 9384   2.738   4.414   2.437  0.4515 -0.4612 -0.2887
 3058WAT     H1 9385   2.750   4.418   2.532  1.3020 -2.5746 -0.2481
 3058WAT     H2 9386   2.676   4.342   2.424  0.1750 -0.0464 -1.3441
 3059WAT      O 9387   1.248   4.877   0.205  0.3875 -0.1563  0.1396
 3059WAT     H1 9388   1.285   4.961   0.178  0.7782 -1.0057 -2.1258
 3059WAT     H2 9389   1.264   4.819   0.131 -0.1211 -2.1725  1.5450
 3060WAT      O 9390   0.256   4.791   3.922  0.2155 -0.0919 -0.0852
 3060WAT     H1 9391   0.245   4.739   4.001  0.8890  0.3039  0.2739
 3060WAT     H2 9392   0.250   4.881   3.952  0.0598  0.0541 -0.5508
 3061WAT      O 9393   0.917   3.245   4.034 -0.7685 -0.0804  0.3354
 3061WAT     H1 9394   0.896   3.240   4.128  0.4572 -0.3285  0.6192
 3061WAT     H2 9395   0.965   3.327   4.026  0.9361 -1.0264  0.3365
 3062WAT      O 9396   3.674   2.612   1.237  0.5392  0.6111 -0.7460
 3062WAT     H1 9397   3.768   2.628   1.237  0.5762  0.4033 -0.7643
 3062WAT     H2 9398   3.666   2.516   1.238  0.3262  0.6354 -0.0380
 3063WAT      O 9399   3.805   5.138   4.405 -0.3794  0.0830 -1.0075
 3063WAT     H1 9400   3.831   5.067   4.464 -0.2199  0.7011 -0.3162
 3063WAT     H2 9401   3.711   5.125   4.392 -0.1966 -0.7459 -1.5700
 3064WAT      O 9402   2.772   3.804   4.392  0.3015  0.1060  0.1848
 3064WAT     H1 9403   2.712   3.789   4.465 -0.7365  1.4921 -0.3494
 3064WAT     H2 9404   2.819   3.884   4.416 -0.0858  0.6033 -0.6740
 3065WAT      O 9405   2.663   3.295   4.007  0.5707 -0.6540  0.5139
 3065WAT     H1 9406   2.642   3.219   4.061 -1.8293 -0.3495  0.1420
 3065WAT     H2 9407   2.614   3.280   3.925 -1.1624  1.8707  0.9484
 3066WAT      O 9408   1.620   4.558   3.708 -0.3365  0.5040  1.1273
 3066WAT     H1 9409   1.625   4.466   3.681 -2.1683  0.1873  1.7554
 3066WAT     H2 9410   1.600   4.605   3.628 -0.3538  0.2421  0.9751
 3067WAT      O 9411   0.582   0.313   0.913  0.0776  0.3482 -0.2439
 3067WAT     H1 9412   0.641   0.332   0.985  0.6221  0.2313 -0.6559
 3067WAT     H2 9413   0.595   0.220   0.894 -0.1776  0.3408 -0.3923
 3068WAT      O 9414   1.633   1.998   2.546 -0.5635  0.7531  0.1079
 3068WAT     H1 9415   1.688   2.075   2.559  1.7905 -1.2523  3.4862
 3068WAT     H2 9416   1.559   2.012   2.605 -2.1496  1.9131 -1.9841
 3069WAT      O 9417   0.177   0.206   5.115  0.2711  0.1365  0.0231
 3069WAT     H1 9418   0.225   0.279   5.154  1.1766 -0.7032  0.5345
 3069WAT     H2 9419   0.244   0.153   5.073 -0.5079  0.1740 -1.3287
 3070WAT      O 9420   4.060   2.527   3.054 -0.2030 -0.0163  0.3420
 3070WAT     H1 9421   4.033   2.617   3.039 -2.0211 -0.6117 -0.2805
 3070WAT     H2 9422   4.119   2.507   2.981 -1.0442  0.2050 -0.4211
 3071WAT      O 9423   0.270   3.087   3.583  0.0310 -0.7197  0.0385
 3071WAT     H1 9424   0.321   3.006   3.595 -0.0444 -0.8454 -0.4959
 3071WAT     H2 9425   0.204   3.083   3.653 -0.0156 -1.1526 -0.0248
 3072WAT      O 9426   0.635   1.759   2.923  0.5350 -0.1182 -0.4051
 3072WAT     H1 9427   0.728   1.735   2.930  1.2134  1.6511 -2.4519
 3072WAT     H2 9428   0.622   1.824   2.992  0.9035 -0.0997 -0.3531
 3073WAT      O 9429   4.328   2.410   0.066  0.0485  0.3078 -0.4539
 3073WAT     H1 9430   4.369   2.360   0.137  0.9513 -0.3027 -1.3556
 3073WAT     H2 9431   4.302   2.342   0.003 -0.5177  0.8513 -0.8054
 3074WAT      O 9432   3.080   0.440   4.774  0.0282  0.4045 -0.1138
 3074WAT     H1 9433   3.173   0.436   4.750  0.0334 -1.4643  0.0347
 3074WAT     H2 9434   3.033   0.420   4.694 -0.2497  1.0610 -0.1220
 3075WAT      O 9435   0.218   2.091   2.130  0.4035 -0.1735  0.3900
 3075WAT     H1 9436   0.252   2.129   2.210 -0.0748 -0.3951  0.7014
 3075WAT     H2 9437   0.162   2.018   2.159  1.8602 -1.5971 -0.2033
 3076WAT      O 9438   3.315   0.561   0.503  0.4760 -0.2279  0.0564
 3076WAT     H1 9439   3.298   0.565   0.597  1.9106 -0.1821  0.3309
 3076WAT     H2 9440   3.337   0.470   0.486  1.3067 -0.0150 -0.0304
 3077WAT      O 9441   0.283   0.281   3.040  0.0342  0.0271  0.2974
 3077WAT     H1 9442   0.356   0.241   2.993  0.8040  1.5527  0.1550
 3077WAT     H2 9443   0.208   0.226   3.018  1.0747 -1.4397  0.2610
 3078WAT      O 9444   4.135   4.119   4.386  0.3104  0.1957 -0.1791
 3078WAT     H1 9445   4.078   4.194   4.372  2.3699  2.5127  2.5668
 3078WAT     H2 9446   4.086   4.063   4.447 -0.0964  0.8541  0.1077
 3079WAT      O 9447   0.203   1.789   2.852  0.0622 -0.3620 -0.5657
 3079WAT     H1 9448   0.112   1.797   2.880  0.1354 -0.3345 -0.3289
 3079WAT     H2 9449   0.204   1.713   2.794 -0.0586 -0.5409 -0.3363
 3080WAT      O 9450   3.923   2.369   0.825 -0.1531  0.0436 -0.1910
 3080WAT     H1 9451   3.904   2.280   0.854  0.0196  1.1268  3.8303
 3080WAT     H2 9452   3.849   2.421   0.856  0.6776  1.5992 -0.6861
 3081WAT      O 9453   2.190   1.052   4.016 -0.1843  0.0859 -0.0722
 3081WAT     H1 9454   2.283   1.072   4.010 -0.0421 -0.3814  0.4863
 3081WAT     H2 9455   2.146   1.133   3.987  0.3842  0.0209 -1.1887
 3082WAT      O 9456   2.768   0.665   2.514  0.4214 -0.2901 -0.2564
 3082WAT     H1 9457   2.845   0.642   2.565  0.1192 -0.7292  0.0070
 3082WAT     H2 9458   2.694   0.642   2.570  0.0943 -0.0663 -0.5873
 3083WAT      O 9459   1.639   4.288   0.600 -0.4055  0.5508  0.5263
 3083WAT     H1 9460   1.579   4.326   0.535  0.5552 -2.3927 -2.3845
 3083WAT     H2 9461   1.583   4.271   0.676 -2.6357  0.4928 -1.0127
 3084WAT      O 9462   1.676   2.987   4.332  0.6207  0.4801 -0.2813
 3084WAT     H1 9463   1.591   2.958   4.300  0.2358 -0.8519  1.7490
 3084WAT     H2 9464   1.734   2.912   4.314  0.0474 -1.0193  3.2862
 3085WAT      O 9465   3.088   4.559   0.043  0.1688 -0.2898 -0.0855
 3085WAT     H1 9466   3.133   4.476   0.059 -0.5242 -0.9357 -1.3431
 3085WAT     H2 9467   3.141   4.624   0.089  2.1379 -1.0862 -1.1271
 3086WAT      O 9468   0.505   4.616   1.887 -0.3084 -0.6475  0.4583
 3086WAT     H1 9469   0.444   4.600   1.815 -0.9425  0.7184  0.6518
 3086WAT     H2 9470   0.545   4.531   1.904 -0.4353 -1.0830 -1.2342
 3087WAT      O 9471   2.648   3.519   4.173 -0.3145  0.0380  0.5192
 3087WAT     H1 9472   2.686   3.473   4.248 -1.2525 -0.6617  0.5795
 3087WAT     H2 9473   2.636   3.452   4.106  1.5880  0.8677 -0.7270
 3088WAT      O 9474   0.102   4.459   4.004  0.0871 -0.3245  0.3899
 3088WAT     H1 9475   0.114   4.392   3.937  0.9366  0.4603 -0.2665
 3088WAT     H2 9476   0.010   4.486   3.995 -0.4900 -1.8671  1.1492
 3089WAT      O 9477   0.814   4.803   1.120 -0.1297  0.3331  0.4482
 3089WAT     H1 9478   0.756   4.872   1.151 -2.7263 -1.1579 -0.7643
 3089WAT     H2 9479   0.877   4.848   1.063 -2.4278  1.6400 -1.2202
 3090WAT      O 9480   3.271   1.826   4.226 -0.3528  0.1346 -0.1863
 3090WAT     H1 9481   3.266   1.761   4.296 -1.2889  0.0422 -0.3281
 3090WAT     H2 9482   3.255   1.776   4.146 -0.0978  0.3768 -0.3878
 3091WAT      O 9483   1.851   1.891   4.582 -0.4071  0.1127  0.0262
 3091WAT     H1 9484   1.846   1.831   4.507  0.4215 -0.5268  0.4533
 3091WAT     H2 9485   1.843   1.834   4.658 -0.2988  0.6329  0.4334
 3092WAT      O 9486   3.713   1.201   3.601 -0.8491  0.3819 -0.4811
 3092WAT     H1 9487   3.793   1.149   3.603 -0.5209  0.8053  2.7316
 3092WAT     H2 9488   3.643   1.138   3.622 -0.7809  0.7210  0.8397
 3093WAT      O 9489   4.307   2.077   4.747  0.4393  0.0089  0.0224
 3093WAT     H1 9490   4.365   2.041   4.679 -1.0972 -1.0113 -0.8028
 3093WAT     H2 9491   4.351   2.157   4.776  1.2088  0.4243 -2.1021
 3094WAT      O 9492   2.383   0.249   0.064  0.1604 -0.4412  0.0871
 3094WAT     H1 9493   2.406   0.173   0.117  3.1824  1.6858  2.2175
 3094WAT     H2 9494   2.452   0.254  -0.003 -0.2481  0.1916 -0.3046
 3095WAT      O 9495   0.753   4.562   1.726  0.1270 -0.7993  0.0395
 3095WAT     H1 9496   0.844   4.578   1.701  0.3836 -1.2107  0.6730
 3095WAT     H2 9497   0.740   4.617   1.803 -0.1821 -0.6768 -0.1037
 3096WAT      O 9498   2.702   0.692   1.112 -0.5696  0.6908  0.3922
 3096WAT     H1 9499   2.732   0.605   1.083 -0.5591  0.2114  1.7588
 3096WAT     H2 9500   2.753   0.753   1.059 -1.3797 -0.1084 -1.3926
 3097WAT      O 9501   1.482   3.542   4.882 -0.7772 -0.3429 -0.0112
 3097WAT     H1 9502   1.427   3.520   4.808 -0.5058 -0.4000 -0.1980
 3097WAT     H2 9503   1.432   3.513   4.959 -0.8477 -0.7205 -0.1983
 3098WAT      O 9504   1.283   2.107   5.065 -0.2186  0.3232 -0.5018
 3098WAT     H1 9505   1.362   2.071   5.105 -0.3200 -0.0432 -0.6298
 3098WAT     H2 9506   1.285   2.075   4.975 -1.4376 -1.1992 -0.0395
 3099WAT      O 9507   1.542   2.893   4.796  0.0649 -0.3668  0.5578
 3099WAT     H1 9508   1.618   2.837   4.785  0.8410  0.5508  1.1050
 3099WAT     H2 9509   1.523   2.891   4.889 -0.3332 -0.2732  0.4805
 3100WAT      O 9510   4.429   1.481   2.310  0.2582 -0.0057 -0.1529
 3100WAT     H1 9511   4.434   1.518   2.398  3.0275 -3.2818  1.2941
 3100WAT     H2 9512   4.478   1.542   2.255  2.8870 -0.2908  1.6952
 3101WAT      O 9513   1.939   0.596   3.390 -0.3671  0.0723 -0.2302
 3101WAT     H1 9514   1.988   0.666   3.432 -1.2011  0.2845  0.4119
 3101WAT     H2 9515   1.863   0.582   3.446  0.0032 -1.6588 -0.1133
 3102WAT      O 9516   2.928   5.035   3.201 -0.4352 -0.1151  0.1336
 3102WAT     H1 9517   2.916   4.984   3.121 -0.1485 -0.9722  0.6188
 3102WAT     H2 9518   3.003   5.092   3.183  0.0765 -0.8128  0.0300
 3103WAT      O 9519   1.645   0.748   4.457 -0.1439  0.2129  0.7679
 3103WAT     H1 9520   1.659   0.668   4.408  0.4348  1.2171 -0.7918
 3103WAT     H2 9521   1.683   0.731   4.543 -0.6516 -1.3932  0.6987
 3104WAT      O 9522   0.548   2.133   2.815  0.2059 -0.6402 -0.1867
 3104WAT     H1 9523   0.568   2.057   2.762 -1.5751 -0.5729 -1.0358
 3104WAT     H2 9524   0.537   2.204   2.752 -1.1866 -0.3883  0.3015
 3105WAT      O 9525   4.189   0.176   4.646 -0.0583 -0.2790 -0.2057
 3105WAT     H1 9526   4.240   0.243   4.599  0.0701 -1.8322 -2.4522
 3105WAT     H2 9527   4.255   0.128   4.696  0.2041 -0.2567 -0.5237
 3106WAT      O 9528   0.117   0.135   0.090 -0.5519 -0.2814  0.1345
 3106WAT     H1 9529   0.049   0.174   0.145 -1.4450 -1.4076 -0.1223
 3106WAT     H2 9530   0.109   0.179   0.006 -1.0185 -0.4561  0.0850
 3107WAT      O 9531   1.439   1.720   0.181 -0.4658 -0.5785 -0.3319
 3107WAT     H1 9532   1.357   1.730   0.131 -1.8167 -0.3802  1.8170
 3107WAT     H2 9533   1.424   1.644   0.237  0.6380 -0.2234  0.4684
 3108WAT      O 9534   3.212   4.507   3.888 -0.1875  0.1396 -0.1433
 3108WAT     H1 9535   3.282   4.445   3.869 -1.2210 -1.4716  1.0789
 3108WAT     H2 9536   3.161   4.512   3.807  0.4877  0.2047 -0.5727
 3109WAT      O 9537   0.897   3.755   2.482 -0.2355  0.2602  0.2797
 3109WAT     H1 9538   0.975   3.810   2.477 -0.9474  1.4050  1.1850
 3109WAT     H2 9539   0.904   3.712   2.567  0.7911 -1.8578 -0.8066
 3110WAT      O 9540   3.273   4.718   0.859  0.5386 -0.3055 -0.1339
 3110WAT     H1 9541   3.342   4.651   0.861 -0.7496 -1.6824 -0.2255
 3110WAT     H2 9542   3.203   4.679   0.807 -0.3194  1.0691 -0.0615
 3111WAT      O 9543   1.643   1.294   4.008 -0.0038  0.3726 -0.6021
 3111WAT     H1 9544   1.679   1.371   4.053 -0.5222 -0.8883  2.2307
 3111WAT     H2 9545   1.719   1.239   3.990  0.0740  0.0983  0.4680
 3112WAT      O 9546   0.783   5.016   4.457  0.2361 -0.0743  0.0466
 3112WAT     H1 9547   0.778   4.922   4.436 -2.5096  0.0956 -0.4146
 3112WAT     H2 9548   0.730   5.025   4.536  1.0835  1.0168  0.5084
 3113WAT      O 9549   1.773   1.582   2.623 -0.1508 -0.9509  0.1181
 3113WAT     H1 9550   1.714   1.524   2.575 -0.3757 -0.0259 -0.7553
 3113WAT     H2 9551   1.772   1.664   2.573  2.0966 -1.0018 -0.0847
 3114WAT      O 9552   3.025   3.972   0.921 -0.2299 -0.4747 -0.6487
 3114WAT     H1 9553   2.962   4.043   0.910 -0.3004 -0.5950 -1.0386
 3114WAT     H2 9554   3.030   3.931   0.834 -3.0310 -3.3418  0.3084
 3115WAT      O 9555   0.908   2.051   4.162  0.0612 -0.2791  0.3925
 3115WAT     H1 9556   0.833   2.007   4.122 -0.3971 -0.4179  1.3503
 3115WAT     H2 9557   0.885   2.055   4.255  1.7321 -1.3533  0.9066
 3116WAT      O 9558   2.173   2.262   0.391  0.4818  0.0868  0.1168
 3116WAT     H1 9559   2.087   2.221   0.396 -0.3998  1.8779  0.3960
 3116WAT     H2 9560   2.193   2.286   0.482  1.9337 -1.5129  0.2747
 3117WAT      O 9561   2.636   4.981   2.911 -0.1645 -0.6938  0.3148
 3117WAT     H1 9562   2.710   4.923   2.929  0.0769 -0.4322  0.1604
 3117WAT     H2 9563   2.569   4.954   2.975 -0.2495 -1.4818 -0.0869
 3118WAT      O 9564   0.448   3.973   3.983 -0.4603 -0.3315 -0.3249
 3118WAT     H1 9565   0.469   3.980   3.890 -2.5173 -1.2468 -0.9089
 3118WAT     H2 9566   0.429   3.880   3.996 -3.0256  0.1927  0.2976
 3119WAT      O 9567   3.366   3.346   3.349 -0.5912 -0.1027  0.2979
 3119WAT     H1 9568   3.452   3.388   3.356 -0.3979 -0.4235 -0.1188
 3119WAT     H2 9569   3.331   3.348   3.438  0.2022 -0.7136  0.6320
 3120WAT      O 9570   3.902   3.309   3.593  0.2122 -0.1074 -0.6104
 3120WAT     H1 9571   3.971   3.284   3.654  0.6637 -0.3176 -1.2061
 3120WAT     H2 9572   3.923   3.399   3.568  0.2699 -0.1661 -0.7796
 3121WAT      O 9573   0.761   0.987   0.345 -0.0225 -0.0384 -0.4113
 3121WAT     H1 9574   0.853   0.964   0.333 -0.2099 -1.1445  0.1695
 3121WAT     H2 9575   0.757   1.026   0.433 -0.2241 -0.7197 -0.1083
 3122WAT      O 9576   0.301   1.038   2.635  0.2427  0.0096 -0.2594
 3122WAT     H1 9577   0.279   1.118   2.587  1.9166  0.0921 -0.9800
 3122WAT     H2 9578   0.382   1.060   2.681 -1.0155 -0.2530  2.2260
 3123WAT      O 9579   2.902   2.643   4.602 -0.0222 -0.0242 -0.0420
 3123WAT     H1 9580   2.831   2.674   4.546 -0.9829  0.1559  1.2351
 3123WAT     H2 9581   2.866   2.647   4.691  1.9960  1.2123  0.7768
 3124WAT      O 9582   1.166   2.534   4.086 -0.5045 -0.2589 -0.3676
 3124WAT     H1 9583   1.173   2.442   4.109 -0.5493 -0.1676  0.0095
 3124WAT     H2 9584   1.230   2.578   4.142 -0.6438 -0.0333 -0.3843
 3125WAT      O 9585   3.993   0.498   3.947  0.4034 -0.7371 -1.0033
 3125WAT     H1 9586   4.072   0.496   3.892 -0.1604  0.5239 -1.9126
 3125WAT     H2 9587   3.939   0.567   3.908 -0.4641 -0.5043  0.5482
 3126WAT      O 9588   3.858   4.706   3.060 -0.6805  0.4625  0.1182
 3126WAT     H1 9589   3.819   4.782   3.103 -0.5999  0.1750  0.7087
 3126WAT     H2 9590   3.901   4.743   2.982 -0.3828  1.0714  0.5540
 3127WAT      O 9591   3.244   4.990   2.460 -0.2341 -0.4886 -0.1664
 3127WAT     H1 9592   3.173   5.027   2.409  0.0583 -1.6148 -1.4748
 3127WAT     H2 9593   3.203   4.960   2.541 -0.9034  0.4308 -0.1555
 3128WAT      O 9594   3.039   0.390   0.048 -0.1533 -0.0778  0.3584
 3128WAT     H1 9595   3.009   0.424   0.132  1.9306 -0.1030  1.1716
 3128WAT     H2 9596   3.047   0.296   0.062 -0.8494 -0.2263 -0.2210
 3129WAT      O 9597   4.491   0.824   2.934  0.1040  0.6497 -0.4192
 3129WAT     H1 9598   4.516   0.858   3.021  0.5947 -0.6532 -0.0307
 3129WAT     H2 9599   4.440   0.895   2.895  0.6271  1.6118  0.5818
 3130WAT      O 9600   3.320   3.894   3.493 -0.0833 -0.5245  0.0565
 3130WAT     H1 9601   3.316   3.801   3.516 -0.4686 -0.2025  1.3638
 3130WAT     H2 9602   3.387   3.931   3.550  0.4821 -0.0904 -0.8546
 3131WAT      O 9603   2.954   4.450   1.596 -0.6838 -0.0283  0.2287
 3131WAT     H1 9604   2.900   4.410   1.664 -2.9078 -0.4742 -1.6824
 3131WAT     H2 9605   2.905   4.436   1.515  1.7269  0.6999 -1.4664
 3132WAT      O 9606   3.351   0.404   2.223 -0.0464 -0.4365 -0.1895
 3132WAT     H1 9607   3.369   0.326   2.275  1.5101 -0.4829 -0.7361
 3132WAT     H2 9608   3.405   0.472   2.263 -1.6900  0.4902  0.5233
 3133WAT      O 9609   0.585   1.357   5.139  0.1232  0.0823  0.1089
 3133WAT     H1 9610   0.498   1.397   5.137  0.1484  0.1166 -0.6795
 3133WAT     H2 9611   0.641   1.424   5.179 -0.0285  0.4447 -0.2757
 3134WAT      O 9612   1.903   4.264   2.329 -0.2786 -0.0231  0.0088
 3134WAT     H1 9613   1.930   4.182   2.288  2.1042  0.5655  0.2743
 3134WAT     H2 9614   1.911   4.330   2.260 -0.9641  0.2044  0.1371
 3135WAT      O 9615   1.746   2.174   1.564  0.1802 -0.2910  0.0191
 3135WAT     H1 9616   1.654   2.191   1.584 -0.0322 -1.3932  0.0428
 3135WAT     H2 9617   1.756   2.199   1.473  0.1825  1.0263  0.3553
 3136WAT      O 9618   2.822   3.081   0.807 -0.0981  0.4037  0.1624
 3136WAT     H1 9619   2.797   3.007   0.863  1.0719 -0.1740 -0.0468
 3136WAT     H2 9620   2.859   3.040   0.729 -4.4790  1.0190 -2.6336
 3137WAT      O 9621   4.384   1.929   0.481 -0.7465 -0.1977  0.5847
 3137WAT     H1 9622   4.328   1.929   0.403 -1.1777  0.3912  0.8844
 3137WAT     H2 9623   4.431   1.846   0.476 -0.4874 -0.0041 -0.4962
 3138WAT      O 9624   1.413   2.618   4.724  0.6088  0.2324  0.3501
 3138WAT     H1 9625   1.480   2.599   4.790  2.4144 -0.3249 -1.5163
 3138WAT     H2 9626   1.450   2.691   4.674  1.1038 -1.7016 -2.3062
 3139WAT      O 9627   2.987   4.146   2.109  0.2321  0.2763 -0.5050
 3139WAT     H1 9628   2.940   4.184   2.183  0.0847  1.3475 -1.1317
 3139WAT     H2 9629   2.953   4.193   2.033  1.2149 -0.0031 -1.1263
 3140WAT      O 9630   4.319   1.278   3.826 -0.0259 -0.4912  0.1673
 3140WAT     H1 9631   4.290   1.239   3.744 -0.0951 -0.6293  0.2581
 3140WAT     H2 9632   4.368   1.208   3.870 -0.2478 -0.5136  0.3816
 3141WAT      O 9633   4.351   2.960   1.267  0.0862  0.2464  0.1325
 3141WAT     H1 9634   4.390   3.047   1.258  1.2969 -0.3168 -0.3282
 3141WAT     H2 9635   4.283   2.971   1.333  0.5163  1.4426  0.4031
 3142WAT      O 9636   0.648   1.710   0.244 -0.1684 -0.4673  0.2054
 3142WAT     H1 9637   0.619   1.620   0.258 -0.7991 -0.3105 -0.0404
 3142WAT     H2 9638   0.682   1.738   0.329  0.8418 -1.2143  0.0718
 3143WAT      O 9639   0.141   0.177   1.794 -0.0795 -0.2775 -0.6299
 3143WAT     H1 9640   0.053   0.145   1.773 -0.4143  0.0972  0.1461
 3143WAT     H2 9641   0.151   0.157   1.887 -0.6080  2.5307  0.1134
 3144WAT      O 9642   0.530   3.048   1.754 -0.5036  0.3647  0.0353
 3144WAT     H1 9643   0.504   3.061   1.845 -2.6978  0.4748 -0.5366
 3144WAT     H2 9644   0.612   3.096   1.745 -0.8573  1.3449  1.6631
 3145WAT      O 9645   0.521   2.977   3.769  0.2069 -0.2416 -0.3228
 3145WAT     H1 9646   0.550   3.032   3.696 -0.9837  0.4149 -0.3274
 3145WAT     H2 9647   0.542   3.028   3.847 -1.7531  0.6978 -0.3582
 3146WAT      O 9648   4.440   5.083   4.366 -0.4716 -0.4866 -0.1681
 3146WAT     H1 9649   4.345   5.081   4.377 -0.3444 -0.7756  1.0202
 3146WAT     H2 9650   4.460   5.001   4.321 -0.7413 -0.6225 -0.0436
 3147WAT      O 9651   1.501   0.962   4.776 -0.0530  0.3612  0.1853
 3147WAT     H1 9652   1.469   0.906   4.705 -1.7836 -2.0965  2.7118
 3147WAT     H2 9653   1.453   1.044   4.766  0.1941  0.3165 -1.7694
 3148WAT      O 9654   4.496   2.317   4.213  0.3766  0.1380 -0.3514
 3148WAT     H1 9655   4.540   2.392   4.254  0.1978 -0.5387  1.1564
 3148WAT     H2 9656   4.561   2.281   4.154  1.3936 -0.0138  0.8107
 3149WAT      O 9657   2.704   3.588   1.801  0.0007  0.1126  0.2006
 3149WAT     H1 9658   2.747   3.582   1.886  0.0531 -0.3672  0.1436
 3149WAT     H2 9659   2.624   3.536   1.810 -1.0437  1.7266  0.5822
 3150WAT      O 9660   1.556   0.932   0.346 -0.2437 -0.6148  0.3362
 3150WAT     H1 9661   1.645   0.904   0.367  0.3222  0.1673 -0.9661
 3150WAT     H2 9662   1.530   0.875   0.274  0.2627  0.9645 -1.1525
 3151WAT      O 9663   2.851   4.704   2.354 -0.0214 -0.1093 -0.2560
 3151WAT     H1 9664   2.879   4.615   2.333  1.2870  0.1784  0.1927
 3151WAT     H2 9665   2.833   4.744   2.268 -0.5971 -0.7904 -0.4598
 3152WAT      O 9666   2.529   5.004   5.185 -0.1791  0.1370  0.1591
 3152WAT     H1 9667   2.452   5.023   5.239  0.3856  1.3097  0.5771
 3152WAT     H2 9668   2.585   4.951   5.242 -1.3167 -2.1004 -0.6723
 3153WAT      O 9669   2.459   0.354   3.364 -0.6785 -0.0143 -0.3707
 3153WAT     H1 9670   2.383   0.357   3.423 -0.2510 -0.2276  0.1968
 3153WAT     H2 9671   2.421   0.366   3.277 -1.4456 -0.8472 -0.1658
 3154WAT      O 9672   0.062   1.643   1.121 -0.1439  0.1811  0.2964
 3154WAT     H1 9673   0.058   1.717   1.060 -1.5983 -2.0661 -2.5317
 3154WAT     H2 9674  -0.027   1.636   1.155  0.2528  0.3252  1.4335
 3155WAT      O 9675   3.867   0.275   4.402  0.2433 -0.0257 -0.3183
 3155WAT     H1 9676   3.856   0.181   4.415  2.8408 -0.4560 -0.7435
 3155WAT     H2 9677   3.884   0.310   4.489  0.3142 -0.1233 -0.2932
 3156WAT      O 9678   4.112   2.629   4.951 -0.1147 -0.3828  0.2486
 3156WAT     H1 9679   4.077   2.697   5.010 -0.4267 -1.2336  1.0725
 3156WAT     H2 9680   4.207   2.639   4.958 -0.1493  0.8657 -0.7213
 3157WAT      O 9681   1.284   2.330   3.351 -0.1507 -0.0120  0.1589
 3157WAT     H1 9682   1.255   2.265   3.415  0.5229 -0.0134  0.4701
 3157WAT     H2 9683   1.214   2.332   3.286  0.1647 -1.6163 -0.2716
 3158WAT      O 9684   0.348   1.930   0.862  0.0767  0.7770 -0.1261
 3158WAT     H1 9685   0.293   2.007   0.847  2.0573  2.2450 -0.2487
 3158WAT     H2 9686   0.325   1.902   0.951 -1.4177  0.8144 -0.4645
 3159WAT      O 9687   0.821   2.459   1.223 -0.1361 -0.4460 -0.2767
 3159WAT     H1 9688   0.807   2.533   1.165  1.5399 -0.5055 -0.8361
 3159WAT     H2 9689   0.853   2.498   1.305 -0.3976 -0.4870 -0.1540
 3160WAT      O 9690   3.342   0.362   0.096 -0.1582 -0.0034 -0.0637
 3160WAT     H1 9691   3.278   0.290   0.095  0.8322 -0.9220 -1.5149
 3160WAT     H2 9692   3.298   0.434   0.050  0.0941 -0.9193 -1.8419
 3161WAT      O 9693   3.439   1.752   3.108  0.1172 -0.3426 -0.5075
 3161WAT     H1 9694   3.462   1.690   3.039 -2.4326 -0.4382 -1.3692
 3161WAT     H2 9695   3.361   1.715   3.149 -0.9598  1.8382 -0.4500
 3162WAT      O 9696   4.519   0.422   1.538 -0.2316 -0.0783  0.4788
 3162WAT     H1 9697   4.558   0.390   1.457 -0.6813  0.9988 -0.1768
 3162WAT     H2 9698   4.433   0.380   1.542  0.0292 -0.6064  0.7257
 3163WAT      O 9699   0.755   1.686   4.688  0.5354 -0.3426 -0.4253
 3163WAT     H1 9700   0.805   1.605   4.694 -1.7318 -1.7508  0.6645
 3163WAT     H2 9701   0.724   1.689   4.598 -1.8902 -2.3740  0.2478
 3164WAT      O 9702   3.262   3.863   5.177  0.6543 -0.0808  0.0093
 3164WAT     H1 9703   3.211   3.796   5.223  0.0441  0.4048  0.0418
 3164WAT     H2 9704   3.206   3.891   5.105  0.9533  0.3299 -0.0670
 3165WAT      O 9705   1.217   0.690   2.887  0.3403 -0.2938 -0.3140
 3165WAT     H1 9706   1.217   0.651   2.799  0.5730  0.0580 -0.4712
 3165WAT     H2 9707   1.220   0.614   2.946  1.8424 -0.5270 -0.6291
 3166WAT      O 9708   2.243   1.307   1.179 -0.2330 -0.1788 -0.2393
 3166WAT     H1 9709   2.214   1.398   1.190 -0.9146 -0.4958  0.6926
 3166WAT     H2 9710   2.250   1.273   1.268  2.3016 -0.3661 -0.4583
 3167WAT      O 9711   4.171   4.264   3.826 -0.3368 -0.4114  0.0803
 3167WAT     H1 9712   4.157   4.246   3.919 -0.7280 -0.8916 -0.0684
 3167WAT     H2 9713   4.130   4.350   3.812  0.0974 -0.1407  0.4381
 3168WAT      O 9714   0.267   3.065   2.416  0.3769 -0.1996  0.1301
 3168WAT     H1 9715   0.209   3.047   2.490 -0.7096 -2.5533 -1.1625
 3168WAT     H2 9716   0.235   3.147   2.380 -0.4773 -0.1429  0.9634
 3169WAT      O 9717   0.064   4.966   3.709 -0.2629  0.0612  0.2245
 3169WAT     H1 9718   0.077   5.012   3.792  0.3396 -0.5021  0.4620
 3169WAT     H2 9719  -0.015   4.914   3.723 -0.7489  0.7552  0.0752
 3170WAT      O 9720   4.017   3.577   1.000 -0.1393  0.2016  0.7789
 3170WAT     H1 9721   3.994   3.504   0.943 -2.2831 -0.2757  2.1353
 3170WAT     H2 9722   4.112   3.585   0.993 -0.0218 -1.8166 -0.4638
 3171WAT      O 9723   2.043   1.559   2.571  0.1291 -0.1619  0.2012
 3171WAT     H1 9724   2.084   1.487   2.618 -0.3373  0.1583  1.1477
 3171WAT     H2 9725   1.952   1.531   2.559  0.7587 -1.2730 -2.7131
 3172WAT      O 9726   3.460   0.768   2.966 -0.2868 -0.5030  0.4862
 3172WAT     H1 9727   3.452   0.814   2.883 -0.6641 -0.2481  0.6559
 3172WAT     H2 9728   3.542   0.799   3.003 -1.8353  2.3005  1.9157
 3173WAT      O 9729   1.885   3.624   3.053 -0.2266  0.3170  0.0564
 3173WAT     H1 9730   1.839   3.541   3.064 -0.8300  0.5246 -0.7547
 3173WAT     H2 9731   1.970   3.611   3.094 -0.6500 -0.4039  0.7313
 3174WAT      O 9732   1.674   3.823   3.102 -0.0323 -0.2461 -0.3434
 3174WAT     H1 9733   1.627   3.773   3.035  1.2968 -0.2672 -1.3036
 3174WAT     H2 9734   1.760   3.781   3.107  0.2041  0.3354  0.7224
 3175WAT      O 9735   1.356   0.005   0.871 -0.0028  0.1757 -0.3539
 3175WAT     H1 9736   1.279  -0.044   0.839  0.4537  0.4467 -1.9609
 3175WAT     H2 9737   1.319   0.071   0.929 -0.7441 -1.2877  0.9312
 3176WAT      O 9738   3.873   4.369   2.962  0.0903 -0.2415 -0.2337
 3176WAT     H1 9739   3.800   4.414   3.004 -0.5915  0.2914 -1.8839
 3176WAT     H2 9740   3.926   4.336   3.034  1.1264  3.9118  1.1939
 3177WAT      O 9741   0.001   4.293   3.824 -0.3019  0.1011 -0.1522
 3177WAT     H1 9742  -0.085   4.319   3.856 -0.2114  1.3730 -0.8716
 3177WAT     H2 9743  -0.003   4.197   3.822 -1.0150  0.0554  1.6062
 3178WAT      O 9744   1.870   2.188   3.705  0.1560  0.0473  0.5522
 3178WAT     H1 9745   1.913   2.115   3.751 -1.0035 -0.1381  1.3908
 3178WAT     H2 9746   1.934   2.260   3.710 -0.0098  0.1291  2.7714
 3179WAT      O 9747   3.303   3.685   2.661  0.0735  0.0161 -0.3981
 3179WAT     H1 9748   3.230   3.737   2.695 -0.2852 -0.4089 -0.5150
 3179WAT     H2 9749   3.263   3.604   2.630  0.7619 -0.8689  0.8963
 3180WAT      O 9750   0.050   3.684   4.252  0.0782 -0.2188 -0.0316
 3180WAT     H1 9751   0.045   3.726   4.166  1.0501 -1.2872 -0.6334
 3180WAT     H2 9752  -0.028   3.628   4.256 -0.7211  0.8836  0.3905
 3181WAT      O 9753   1.575   0.804   2.944 -0.4612  0.2203 -0.0236
 3181WAT     H1 9754   1.659   0.828   2.984  0.9019 -2.2346 -1.1892
 3181WAT     H2 9755   1.509   0.841   3.003  1.4394 -0.1356  2.4891
 3182WAT      O 9756   0.614   3.655   3.813 -0.0824  0.2726  0.4825
 3182WAT     H1 9757   0.613   3.697   3.726  0.5020  1.1573  0.8926
 3182WAT     H2 9758   0.697   3.683   3.852 -0.4363  0.0481  1.4110
 3183WAT      O 9759   0.535   0.896   0.698  0.2757  0.2398  0.5797
 3183WAT     H1 9760   0.493   0.836   0.760  0.5641  0.2203  0.7597
 3183WAT     H2 9761   0.498   0.982   0.720  0.0934  0.1764  0.5259
 3184WAT      O 9762   2.578   0.308   1.959  0.2101  0.5675  0.3983
 3184WAT     H1 9763   2.489   0.345   1.960  0.4185  1.4441 -2.9455
 3184WAT     H2 9764   2.564   0.214   1.967 -0.8806  0.7900  1.4344
 3185WAT      O 9765   1.711   3.303   0.986 -0.1711  0.5533  0.0532
 3185WAT     H1 9766   1.664   3.282   1.066 -1.6383 -0.2063 -0.9602
 3185WAT     H2 9767   1.724   3.218   0.943  0.3579  0.9768 -0.6444
 3186WAT      O 9768   2.694   2.443   4.422  0.0110 -0.5607  0.1331
 3186WAT     H1 9769   2.615   2.451   4.475  0.3192 -1.5093  0.7594
 3186WAT     H2 9770   2.761   2.413   4.484  0.5577 -0.9599 -0.6401
 3187WAT      O 9771   0.932   4.743   0.138 -0.3466 -0.4961 -0.4442
 3187WAT     H1 9772   0.972   4.682   0.075  3.4548  1.8601 -0.6043
 3187WAT     H2 9773   0.847   4.764   0.099  0.3876 -1.7901 -2.9988
 3188WAT      O 9774   2.481   2.852   3.132  0.1579 -0.3966  0.0935
 3188WAT     H1 9775   2.467   2.758   3.142  0.0694 -0.4877 -0.8056
 3188WAT     H2 9776   2.539   2.860   3.057  0.4384  0.2568  0.3684
 3189WAT      O 9777   3.607   1.011   0.124 -0.5134 -0.3975  0.0414
 3189WAT     H1 9778   3.652   1.042   0.045 -1.5160  0.1515 -0.3287
 3189WAT     H2 9779   3.533   0.961   0.091 -0.1793 -1.3111  0.6466
 3190WAT      O 9780   0.735   1.737   4.403  0.2180  0.8102  0.3352
 3190WAT     H1 9781   0.781   1.723   4.320  0.8812  1.2788  0.6133
 3190WAT     H2 9782   0.649   1.697   4.390  0.9827 -0.8475  0.0942
 3191WAT      O 9783   1.312   4.966   4.032  0.2074  0.2175  0.0624
 3191WAT     H1 9784   1.290   5.052   4.068 -1.1313  0.0359 -0.2564
 3191WAT     H2 9785   1.407   4.965   4.029  0.2606  1.4677  0.6009
 3192WAT      O 9786   2.531   2.410   2.632  0.1097 -0.0199  0.0156
 3192WAT     H1 9787   2.512   2.390   2.724 -3.2597  1.6386 -0.1838
 3192WAT     H2 9788   2.567   2.499   2.634 -1.7839  0.7874 -0.3505
 3193WAT      O 9789   0.624   1.542   1.294  0.2240  0.6890 -0.2559
 3193WAT     H1 9790   0.612   1.564   1.202 -1.2165  0.7064 -0.0852
 3193WAT     H2 9791   0.572   1.463   1.307  0.9575  0.2978  0.4039
 3194WAT      O 9792   1.550   1.421   4.684  0.5822 -0.5552 -0.5533
 3194WAT     H1 9793   1.509   1.340   4.712 -0.8285 -0.5410 -2.3843
 3194WAT     H2 9794   1.640   1.396   4.660 -0.0087 -1.7331 -1.6703
 3195WAT      O 9795   2.520   1.647   0.208 -0.3628  0.0479 -0.0194
 3195WAT     H1 9796   2.592   1.681   0.154 -0.3932 -0.0988 -0.1556
 3195WAT     H2 9797   2.554   1.564   0.242  0.7311  1.4282  2.4836
 3196WAT      O 9798   2.741   4.086   3.732 -0.2646  0.5648  0.5462
 3196WAT     H1 9799   2.735   4.105   3.826  0.5455  0.2980  0.6614
 3196WAT     H2 9800   2.802   4.012   3.726 -0.1742  0.6893 -0.1998
 3197WAT      O 9801   0.262   4.152   1.498  0.9693  0.3867  0.5283
 3197WAT     H1 9802   0.332   4.131   1.436  1.5047 -0.2466  1.3323
 3197WAT     H2 9803   0.287   4.236   1.535  0.3112  1.0913 -0.5733
 3198WAT      O 9804   0.262   0.530   1.001 -0.5401 -0.1317  0.3304
 3198WAT     H1 9805   0.205   0.563   1.070 -1.7056  0.5970 -0.9357
 3198WAT     H2 9806   0.351   0.541   1.036 -1.0991 -2.3272  2.8024
 3199WAT      O 9807   3.134   3.144   1.651 -0.5127 -0.1188 -0.3535
 3199WAT     H1 9808   3.106   3.220   1.702  0.6320  0.5491 -0.6865
 3199WAT     H2 9809   3.086   3.150   1.569 -1.0020 -0.1907 -0.0747
 3200WAT      O 9810   0.684   2.271   3.806  0.4149 -0.0941 -0.2513
 3200WAT     H1 9811   0.752   2.220   3.850  0.9681  1.3011  0.5669
 3200WAT     H2 9812   0.705   2.264   3.713  0.7182 -0.9997 -0.1193
 3201WAT      O 9813   0.700   0.694   1.775 -0.1858 -0.0337  0.0168
 3201WAT     H1 9814   0.739   0.727   1.695  1.4437 -0.6185  0.5257
 3201WAT     H2 9815   0.692   0.600   1.761 -1.3084  0.0561 -0.0165
 3202WAT      O 9816   3.145   4.105   4.889  0.0318  0.0721 -0.0746
 3202WAT     H1 9817   3.197   4.080   4.813  1.3779  2.2674  0.0274
 3202WAT     H2 9818   3.054   4.098   4.859  0.4880  3.0413 -2.8189
 3203WAT      O 9819   4.463   4.877   2.113  0.2090  0.0520 -0.5269
 3203WAT     H1 9820   4.370   4.867   2.134  0.3507 -0.5722 -0.1531
 3203WAT     H2 9821   4.478   4.971   2.115 -0.3755  0.1466 -0.4025
 3204WAT      O 9822   2.290   3.520   3.092  0.0719 -0.5048 -0.6753
 3204WAT     H1 9823   2.227   3.550   3.157  0.7650  0.7402 -0.5584
 3204WAT     H2 9824   2.271   3.572   3.014  1.2082  0.2127 -0.5052
 3205WAT      O 9825   2.182   2.281   0.681  0.1021 -0.0538  0.0969
 3205WAT     H1 9826   2.168   2.363   0.729  1.8855  0.8544 -0.8439
 3205WAT     H2 9827   2.277   2.269   0.681  0.0185 -1.0267 -1.5685
 3206WAT      O 9828   4.453   1.000   1.273 -0.2746  0.1704  0.0169
 3206WAT     H1 9829   4.370   1.005   1.320 -0.0779  1.8296  0.2565
 3206WAT     H2 9830   4.428   0.982   1.183 -1.1810  3.3749 -0.4992
 3207WAT      O 9831   0.376   4.665   0.412 -0.1655  0.8140  0.3738
 3207WAT     H1 9832   0.366   4.758   0.394  0.7328  0.9788  0.6433
 3207WAT     H2 9833   0.441   4.635   0.348  0.3591  0.6184  0.9881
 3208WAT      O 9834   2.956   2.361   2.939 -0.0247  0.3328  0.2799
 3208WAT     H1 9835   2.918   2.275   2.921  0.3615  0.2133  0.0225
 3208WAT     H2 9836   2.882   2.414   2.968 -0.4935  0.2571 -0.7301
 3209WAT      O 9837   1.686   3.828   4.695 -0.0024 -0.6245 -0.3137
 3209WAT     H1 9838   1.755   3.863   4.752  0.2296 -1.2233 -0.2123
 3209WAT     H2 9839   1.689   3.882   4.617  1.0233 -1.0391 -0.5765
 3210WAT      O 9840   0.161   2.635   1.422 -0.7214  0.1232 -0.0556
 3210WAT     H1 9841   0.176   2.595   1.337  2.6482  0.9000  0.0345
 3210WAT     H2 9842   0.213   2.582   1.483 -1.9719  0.4052  1.3280
 3211WAT      O 9843   0.288   1.824   4.581 -0.4930 -0.2937 -0.2061
 3211WAT     H1 9844   0.331   1.765   4.643  0.6123  1.0915  0.3740
 3211WAT     H2 9845   0.353   1.892   4.562 -1.5601  0.4826 -1.2491
 3212WAT      O 9846   2.372   1.897   0.896 -0.1401  0.0364 -0.3349
 3212WAT     H1 9847   2.370   1.925   0.805 -1.1779  1.2351  0.0267
 3212WAT     H2 9848   2.283   1.866   0.914  0.2796 -1.0145  0.0447
 3213WAT      O 9849   3.643   2.115   1.359 -0.3538 -0.4762  0.1443
 3213WAT     H1 9850   3.669   2.032   1.400  0.1178 -1.0187 -1.1701
 3213WAT     H2 9851   3.578   2.153   1.418  0.0075 -1.4066  1.1595
 3214WAT      O 9852   0.206   0.598   0.070 -0.0588  0.6920 -0.0904
 3214WAT     H1 9853   0.274   0.666   0.077  0.6546  0.0455 -0.5411
 3214WAT     H2 9854   0.156   0.606   0.151  1.9259 -0.2439  1.3180
 3215WAT      O 9855   3.986   3.134   0.109 -0.6391 -0.0961 -0.0258
 3215WAT     H1 9856   4.069   3.089   0.089 -0.1167  0.4081  0.9489
 3215WAT     H2 9857   3.920   3.065   0.103  0.2002 -1.1403  1.9141
 3216WAT      O 9858   2.834   1.316   0.881  0.2392 -0.2997 -0.7176
 3216WAT     H1 9859   2.775   1.241   0.875 -0.2347  0.0260 -0.1739
 3216WAT     H2 9860   2.780   1.391   0.856  0.8305 -0.1839 -1.7268
 3217WAT      O 9861   0.017   0.060   2.904 -1.2729 -0.5390  0.2636
 3217WAT     H1 9862  -0.064   0.106   2.930 -0.3501  1.0992  0.3762
 3217WAT     H2 9863   0.038   0.096   2.818 -1.4399 -2.0479 -0.4278
 3218WAT      O 9864   4.498   4.778   3.982  0.1439 -0.6886 -0.1303
 3218WAT     H1 9865   4.428   4.734   3.934 -1.1506  2.4394 -1.3811
 3218WAT     H2 9866   4.571   4.780   3.921  0.1254 -0.8700 -0.1596
 3219WAT      O 9867   2.362   0.586   2.246 -0.3308  0.4996 -0.5098
 3219WAT     H1 9868   2.339   0.668   2.203  2.1687  2.0857  0.9027
 3219WAT     H2 9869   2.318   0.589   2.331  2.3237  2.1540  0.9708
 3220WAT      O 9870   2.547   1.843   4.365 -0.2096 -0.4807 -0.2355
 3220WAT     H1 9871   2.578   1.797   4.443 -1.8957 -1.2246  0.0421
 3220WAT     H2 9872   2.453   1.854   4.380  0.0887  3.3553 -0.1379
 3221WAT      O 9873   4.448   1.988   3.261  0.2902  0.2989 -0.2187
 3221WAT     H1 9874   4.428   2.037   3.342 -0.8699 -1.8536  0.8843
 3221WAT     H2 9875   4.538   2.013   3.241  0.2035  1.8583  1.0126
 3222WAT      O 9876   0.166   1.839   4.114  0.0325 -0.2211  0.0810
 3222WAT     H1 9877   0.251   1.871   4.084  1.2660 -0.3243  3.0854
 3222WAT     H2 9878   0.131   1.910   4.169 -1.4471 -0.5306 -0.4080
 3223WAT      O 9879   2.299   2.778   2.434 -0.2057  0.5456  0.7097
 3223WAT     H1 9880   2.344   2.743   2.510  2.2226  2.0358  0.0607
 3223WAT     H2 9881   2.206   2.781   2.459  0.2564 -0.9238  2.7823
 3224WAT      O 9882   3.938   2.976   1.999  0.2037 -0.1818 -0.7151
 3224WAT     H1 9883   3.906   3.052   1.950 -2.0906 -0.5825  0.0522
 3224WAT     H2 9884   3.921   2.902   1.940 -1.5390 -0.5350  0.1651
 3225WAT      O 9885   0.477   2.820   1.074 -0.7624  0.2169 -0.2477
 3225WAT     H1 9886   0.569   2.844   1.066 -0.4364 -0.2164  1.6744
 3225WAT     H2 9887   0.479   2.725   1.087 -1.4442  0.2768  0.3159
 3226WAT      O 9888   0.945   0.207   4.644 -0.3017  0.0534 -0.0874
 3226WAT     H1 9889   1.015   0.142   4.646  0.9991  1.3661  2.2843
 3226WAT     H2 9890   0.963   0.258   4.565  1.7564  0.6193  0.6696
 3227WAT      O 9891   1.158   2.614   2.000 -0.0685  0.4776 -0.6601
 3227WAT     H1 9892   1.207   2.696   1.991  0.5316  0.0253 -1.6113
 3227WAT     H2 9893   1.223   2.550   2.029 -0.3814  0.1762 -0.6182
 3228WAT      O 9894   2.425   0.937   1.793 -0.5868  0.6830 -0.1301
 3228WAT     H1 9895   2.474   0.977   1.865 -2.2163  0.4075  1.1735
 3228WAT     H2 9896   2.491   0.924   1.724  1.4775 -0.8350  1.9871
 3229WAT      O 9897   4.251   1.332   5.043 -0.0520 -0.0807 -0.2040
 3229WAT     H1 9898   4.276   1.406   5.099  0.0830 -1.0147  0.9977
 3229WAT     H2 9899   4.321   1.328   4.977  0.5842  0.1066  0.4514
 3230WAT      O 9900   1.900   1.875   3.820  0.3587 -0.1650  0.2194
 3230WAT     H1 9901   1.962   1.814   3.782  0.9474  0.8404 -0.4915
 3230WAT     H2 9902   1.814   1.842   3.794  0.6700 -0.6641 -0.1745
 3231WAT      O 9903   3.839   3.380   0.090  0.4942 -0.5097 -0.5005
 3231WAT     H1 9904   3.913   3.416   0.041  0.2663 -1.0564 -1.2526
 3231WAT     H2 9905   3.868   3.294   0.119  0.3661 -0.4829 -0.2864
 3232WAT      O 9906   4.133   3.238   5.125  0.6241 -0.0406 -0.5612
 3232WAT     H1 9907   4.068   3.190   5.073 -0.9330  0.7011  0.6346
 3232WAT     H2 9908   4.095   3.243   5.213  1.1918  2.4753 -0.3906
 3233WAT      O 9909   4.387   0.756   0.121 -0.1860  0.3531 -0.7717
 3233WAT     H1 9910   4.435   0.817   0.064 -0.6530  1.1436 -0.3268
 3233WAT     H2 9911   4.452   0.728   0.185 -0.5844  2.4277  0.6328
 3234WAT      O 9912   0.321   1.404   0.755 -0.0130 -0.1272  0.6639
 3234WAT     H1 9913   0.288   1.488   0.783 -1.9002 -0.1670 -1.1998
 3234WAT     H2 9914   0.248   1.343   0.765  0.6574 -1.0839  0.0534
 3235WAT      O 9915   4.106   1.542   1.360  0.2159  0.3646  0.1128
 3235WAT     H1 9916   4.024   1.539   1.311  0.5977  2.1805 -0.7223
 3235WAT     H2 9917   4.085   1.592   1.440  0.3688  0.3090  0.1888
 3236WAT      O 9918   1.036   2.268   2.124  0.4968  0.2377  0.3542
 3236WAT     H1 9919   1.099   2.295   2.058 -0.8483 -3.0064 -2.5474
 3236WAT     H2 9920   1.089   2.233   2.195  1.9848 -0.0681 -0.8677
 3237WAT      O 9921   1.642   2.680   1.292  0.1307 -0.2109 -0.4988
 3237WAT     H1 9922   1.722   2.711   1.249  0.6715  0.6261  1.0405
 3237WAT     H2 9923   1.645   2.585   1.283 -0.1705 -0.0609 -2.9232
 3238WAT      O 9924   3.201   3.454   1.767  0.0069 -0.1905 -0.6861
 3238WAT     H1 9925   3.257   3.423   1.696 -1.0736  0.7863 -2.0114
 3238WAT     H2 9926   3.144   3.520   1.726  0.0029  1.1259  1.2934
 3239WAT      O 9927   3.667   1.324   2.937 -0.3060  0.1071 -0.4040
 3239WAT     H1 9928   3.758   1.310   2.910 -0.6340 -0.9886 -1.0135
 3239WAT     H2 9929   3.672   1.342   3.031  0.5046 -0.5050 -0.3141
 3240WAT      O 9930   2.922   1.672   2.564  0.0487  0.1943 -0.2934
 3240WAT     H1 9931   2.993   1.621   2.526  1.0901  2.4350 -1.5911
 3240WAT     H2 9932   2.865   1.608   2.605  2.6483 -1.7369  0.5567
 3241WAT      O 9933   2.446   0.824   0.284  0.0295  0.3308  0.0928
 3241WAT     H1 9934   2.466   0.801   0.194  2.1291  0.1947  0.5230
 3241WAT     H2 9935   2.351   0.820   0.290 -0.0987 -0.6635 -1.8368
 3242WAT      O 9936   0.411   3.680   1.982  0.1995  0.2452  0.2277
 3242WAT     H1 9937   0.336   3.642   2.028  0.7490 -0.3433  0.6608
 3242WAT     H2 9938   0.470   3.606   1.967  1.1466  0.8574  0.7793
 3243WAT      O 9939   1.190   2.259   3.639  0.3710 -0.6077 -0.8848
 3243WAT     H1 9940   1.243   2.339   3.632  1.5581 -1.4462 -1.9327
 3243WAT     H2 9941   1.161   2.258   3.730 -0.5726  1.5463 -1.0884
 3244WAT      O 9942   2.812   1.995   1.171 -0.2137  0.0402  0.0474
 3244WAT     H1 9943   2.732   2.035   1.136 -0.8907 -0.1415  1.3091
 3244WAT     H2 9944   2.818   1.911   1.127 -0.2250  0.4342 -0.7122
 3245WAT      O 9945   3.982   4.966   4.779 -0.5530  0.2750  0.6422
 3245WAT     H1 9946   3.930   4.949   4.700  0.0660 -0.0857  0.3122
 3245WAT     H2 9947   3.993   5.061   4.779  0.2380  0.1984 -0.2240
 3246WAT      O 9948   2.508   1.542   2.872  0.4806  0.6580 -0.6793
 3246WAT     H1 9949   2.453   1.597   2.816 -1.1238 -0.2000  0.0118
 3246WAT     H2 9950   2.537   1.471   2.815 -2.3510 -1.0391 -0.1933
 3247WAT      O 9951   1.235   0.869   0.061  0.2848 -0.1488  0.0076
 3247WAT     H1 9952   1.213   0.776   0.070 -0.7346  0.2244  2.1139
 3247WAT     H2 9953   1.155   0.914   0.091  0.2209  1.4421 -2.3697
 3248WAT      O 9954   1.265   2.029   3.395  0.6617 -0.3515 -0.5381
 3248WAT     H1 9955   1.294   1.949   3.349 -1.4586 -0.3059 -2.1230
 3248WAT     H2 9956   1.229   1.997   3.478  2.7321 -0.6493  0.3084
 3249WAT      O 9957   4.342   3.899   3.562 -0.3417  0.0453 -0.0048
 3249WAT     H1 9958   4.311   3.987   3.584 -1.7520 -0.3793 -0.1740
 3249WAT     H2 9959   4.340   3.896   3.466 -0.8425 -0.3400  0.0125
 3250WAT      O 9960   1.765   2.733   1.955  0.6237 -0.5870  0.2001
 3250WAT     H1 9961   1.753   2.789   2.032 -0.0333 -1.0576  0.4505
 3250WAT     H2 9962   1.780   2.794   1.883  0.0059 -0.0945  0.4842
 3251WAT      O 9963   2.419   1.320   3.424 -0.4298 -0.5055 -0.0910
 3251WAT     H1 9964   2.361   1.244   3.430 -0.6011 -0.4260 -0.7038
 3251WAT     H2 9965   2.362   1.393   3.399 -0.2209 -0.2275  0.2268
 3252WAT      O 9966   0.196   4.002   2.150  0.0419 -0.1547  0.0954
 3252WAT     H1 9967   0.286   4.034   2.157 -0.2009  0.8289 -0.9954
 3252WAT     H2 9968   0.180   3.994   2.056 -0.5373 -1.7687  0.2938
 3253WAT      O 9969   2.443   3.265   1.943 -0.5982  0.6020  0.4800
 3253WAT     H1 9970   2.531   3.301   1.951  0.6461 -1.6524 -1.7845
 3253WAT     H2 9971   2.441   3.192   2.005  0.0299 -0.8132 -1.0963
 3254WAT      O 9972   2.666   4.760   5.265 -0.2808 -0.3933  0.1527
 3254WAT     H1 9973   2.683   4.674   5.303  0.1812 -0.4415 -0.1564
 3254WAT     H2 9974   2.600   4.744   5.198  0.0132 -0.5512 -0.0977
 3255WAT      O 9975   4.462   4.734   4.554  0.2822 -0.4515 -0.0499
 3255WAT     H1 9976   4.553   4.746   4.582  0.5218 -1.8770 -0.1000
 3255WAT     H2 9977   4.410   4.763   4.629  0.8341 -1.0016  0.5681
 3256WAT      O 9978   3.545   4.405   0.091 -0.0589 -0.8138  0.4045
 3256WAT     H1 9979   3.468   4.450   0.127  0.0983 -1.2567  1.3338
 3256WAT     H2 9980   3.521   4.312   0.095 -0.7456 -0.8507 -2.3120
 3257WAT      O 9981   0.131   4.797   2.733  0.1771  0.0104  0.2264
 3257WAT     H1 9982   0.073   4.780   2.808  3.2964  0.4309  2.9423
 3257WAT     H2 9983   0.183   4.717   2.725  1.9886  1.1074  0.6019
 3258WAT      O 9984   1.007   1.145   2.094 -0.0984  0.9456  0.3749
 3258WAT     H1 9985   0.978   1.101   2.014  1.7169 -0.7403  0.5712
 3258WAT     H2 9986   0.927   1.158   2.145 -0.7943 -1.8299  0.1227
 3259WAT      O 9987   1.712   0.006   2.087  0.0807 -0.0761  0.2000
 3259WAT     H1 9988   1.748   0.059   2.158  0.7909  0.7769 -0.7521
 3259WAT     H2 9989   1.620   0.030   2.084  0.5817  1.9985 -0.8848
 3260WAT      O 9990   3.932   2.095   2.201 -0.6270 -0.2615  0.1275
 3260WAT     H1 9991   4.013   2.137   2.232 -1.5455  0.4498  1.7115
 3260WAT     H2 9992   3.926   2.016   2.254 -0.4775 -0.8465 -0.7070
 3261WAT      O 9993   0.653   3.102   2.424  0.5205  0.3001  0.3714
 3261WAT     H1 9994   0.748   3.098   2.421  0.5049  0.5249 -1.7792
 3261WAT     H2 9995   0.625   3.078   2.336 -1.4184  0.2091  0.9702
 3262WAT      O 9996   0.407   2.269   0.287  0.3786  0.0382  0.6231
 3262WAT     H1 9997   0.341   2.200   0.298  1.3958 -0.9962  0.3698
 3262WAT     H2 9998   0.487   2.232   0.324  1.0868  0.8673 -0.0364
 3263WAT      O 9999   3.594   3.893   0.351  0.1163 -0.0344  0.9948
 3263WAT     H110000   3.640   3.810   0.338  1.2109  0.8730 -1.5217
 3263WAT     H210001   3.600   3.937   0.267  0.0231  2.8678  2.3913
 3264WAT      O10002   0.753   4.970   0.743  0.7653  0.3762 -0.0196
 3264WAT     H110003   0.795   4.887   0.719 -3.3890 -1.7800 -0.6399
 3264WAT     H210004   0.738   5.014   0.659 -3.3688 -1.7761 -0.6502
 3265WAT      O10005   1.944   0.390   1.906 -0.9195 -0.4607 -0.3547
 3265WAT     H110006   1.971   0.338   1.982 -2.1818  0.9292  1.1259
 3265WAT     H210007   1.989   0.350   1.832  0.9674 -1.4246  1.2171
 3266WAT      O10008   3.779   3.205   1.472 -0.1405  0.5034 -0.1750
 3266WAT     H110009   3.766   3.182   1.380 -0.3912  1.5867 -0.4223
 3266WAT     H210010   3.759   3.124   1.520  0.0559 -0.0846 -1.0710
 3267WAT      O10011   4.334   4.595   4.363  0.6540 -0.0278  0.1353
 3267WAT     H110012   4.369   4.507   4.375  0.5360 -0.1722 -0.5285
 3267WAT     H210013   4.377   4.647   4.431 -0.7011 -0.9762  1.7881
 3268WAT      O10014   2.010   3.176   3.401  0.3712 -0.0341  0.1770
 3268WAT     H110015   1.928   3.170   3.451 -0.0245  0.5616 -0.3860
 3268WAT     H210016   2.035   3.086   3.385  0.2713 -0.2331  1.0723
 3269WAT      O10017   0.487   3.600   1.704 -0.0772 -0.2681 -0.3199
 3269WAT     H110018   0.416   3.648   1.745  0.8945  1.6681 -0.7647
 3269WAT     H210019   0.476   3.509   1.733 -0.9247  0.5442  2.0703
 3270WAT      O10020   3.650   2.217   0.040 -0.8705  0.0487  0.1701
 3270WAT     H110021   3.741   2.242   0.054 -0.9889 -0.7031  2.7781
 3270WAT     H210022   3.654   2.141  -0.018  0.4532 -1.6267  2.2897
 3271WAT      O10023   3.643   3.378   1.085 -0.5213  0.3408 -0.7429
 3271WAT     H110024   3.674   3.454   1.034 -1.2899  1.5860  0.5566
 3271WAT     H210025   3.716   3.317   1.083  0.3341  1.3443 -1.3869
 3272WAT      O10026   2.941   1.749   4.862 -1.0286 -0.1060  0.2117
 3272WAT     H110027   2.961   1.828   4.811  0.3470  0.0310  0.8993
 3272WAT     H210028   2.938   1.679   4.797  0.8345  0.0394 -0.0866
 3273WAT      O10029   0.890   2.651   4.426  0.6031  0.2564  0.0387
 3273WAT     H110030   0.874   2.579   4.364  1.0063 -0.5820  0.8826
 3273WAT     H210031   0.871   2.730   4.376 -0.2545 -0.4503 -0.7922
 3274WAT      O10032   1.872   2.284   1.960  0.3939 -0.5355 -0.4602
 3274WAT     H110033   1.875   2.217   1.893 -1.4357 -0.5040 -0.6227
 3274WAT     H210034   1.783   2.319   1.956  0.2595 -0.4194  1.8557
 3275WAT      O10035   1.193   5.099   5.213  0.6703  0.1533 -0.0000
 3275WAT     H110036   1.278   5.075   5.249  0.9007  1.9986  0.8061
 3275WAT     H210037   1.212   5.166   5.148 -0.1046 -0.1489 -0.5682
 3276WAT      O10038   4.400   3.203   1.946  0.1498 -0.3650  0.5367
 3276WAT     H110039   4.319   3.207   1.998 -0.8121 -1.1638 -0.8298
 3276WAT     H210040   4.420   3.110   1.939 -1.1693 -0.5529 -2.5073
 3277WAT      O10041   4.193   4.190   1.184  0.2367  0.2359 -0.0055
 3277WAT     H110042   4.110   4.233   1.204  0.1027  0.7497 -1.5932
 3277WAT     H210043   4.210   4.135   1.261 -1.7034 -0.0977  0.2217
 3278WAT      O10044   4.509   2.213   4.477  0.6378 -0.2233 -0.4275
 3278WAT     H110045   4.424   2.242   4.512  1.8150  3.6340 -0.2889
 3278WAT     H210046   4.507   2.241   4.385  1.1605 -1.7154 -0.9198
 3279WAT      O10047   2.410   0.746   0.763 -0.5852 -0.4522  0.1221
 3279WAT     H110048   2.320   0.737   0.731 -0.2196 -0.8734 -0.8086
 3279WAT     H210049   2.400   0.785   0.850 -1.7200 -1.3658  0.4298
 3280WAT      O10050   3.922   0.300   1.971 -0.4932  0.2167 -0.0812
 3280WAT     H110051   3.980   0.366   2.009 -0.3665  0.4324 -0.6382
 3280WAT     H210052   3.846   0.297   2.029 -0.3073  0.5445  0.1779
 3281WAT      O10053   2.773   2.893   1.046  0.3521 -0.0898 -0.5215
 3281WAT     H110054   2.826   2.908   1.124  0.4516  0.7405 -0.7344
 3281WAT     H210055   2.807   2.811   1.010  0.4591 -0.3604  0.1755
 3282WAT      O10056   3.678   4.174   2.857 -0.3738  0.3348  0.9417
 3282WAT     H110057   3.743   4.242   2.873 -1.4507  1.8558 -0.7643
 3282WAT     H210058   3.599   4.205   2.901 -0.4141 -0.7240  1.6599
 3283WAT      O10059   1.230   4.090   3.507 -0.1334 -0.1225  0.0849
 3283WAT     H110060   1.227   4.182   3.483  1.8105  0.2190  0.9876
 3283WAT     H210061   1.192   4.045   3.431  1.9130  1.1964 -1.8608
 3284WAT      O10062   0.594   1.322   2.407 -0.0350  0.6304  0.2208
 3284WAT     H110063   0.509   1.327   2.450 -1.1989  0.7006 -1.9321
 3284WAT     H210064   0.596   1.400   2.351  2.4246  1.8337  1.8076
 3285WAT      O10065   2.776   3.107   0.227  0.1782 -0.1593  0.4002
 3285WAT     H110066   2.712   3.041   0.254 -0.2310 -0.2026 -0.6269
 3285WAT     H210067   2.769   3.109   0.132  0.6792  0.8764  0.3753
 3286WAT      O10068   3.622   4.896   2.910 -0.5430  0.3796  0.3516
 3286WAT     H110069   3.627   4.945   2.992  0.3700 -0.0081  0.5454
 3286WAT     H210070   3.714   4.889   2.881 -0.6681 -1.0260  0.2294
 3287WAT      O10071   4.506   4.394   4.826 -0.0846  0.1072  0.3973
 3287WAT     H110072   4.596   4.394   4.794  0.3440  0.2497  1.5570
 3287WAT     H210073   4.503   4.324   4.891 -1.2480 -0.9500 -0.7437
 3288WAT      O10074   1.598   3.241   3.295 -0.7341 -0.1580 -0.8269
 3288WAT     H110075   1.513   3.226   3.336 -0.3209  0.3241  0.2442
 3288WAT     H210076   1.628   3.154   3.269 -0.4310 -0.6734  1.0835
 3289WAT      O10077   2.031   4.155   5.016 -0.1702  0.2623 -0.1339
 3289WAT     H110078   1.964   4.135   4.951 -0.2922  0.8498 -0.1934
 3289WAT     H210079   2.033   4.077   5.072  0.3437 -0.4846 -1.1631
 3290WAT      O10080   4.221   1.267   0.092 -0.4331  0.1333  0.0958
 3290WAT     H110081   4.146   1.318   0.062 -0.3071  0.0485 -0.3628
 3290WAT     H210082   4.245   1.307   0.176 -1.5577 -0.4100  0.7046
 3291WAT      O10083   3.595   0.296   4.791 -0.1258 -0.5698 -0.3564
 3291WAT     H110084   3.687   0.300   4.765  0.0584  1.9254  0.4147
 3291WAT     H210085   3.593   0.340   4.876 -2.1304 -0.0790 -0.6243
 3292WAT      O10086   1.623   4.769   4.843  0.0223  0.0871 -0.1204
 3292WAT     H110087   1.671   4.779   4.925  0.4354  1.6305 -0.5197
 3292WAT     H210088   1.568   4.692   4.857  1.1910 -0.5738  1.0434
 3293WAT      O10089   0.206   0.322   0.548  0.0310  0.4054 -0.4075
 3293WAT     H110090   0.146   0.381   0.502  1.2848  1.7160 -0.4385
 3293WAT     H210091   0.239   0.375   0.621  1.7103 -0.0312 -0.8301
 3294WAT      O10092   4.462   1.742   3.952  0.0233  0.7150 -0.2477
 3294WAT     H110093   4.441   1.654   3.920 -1.8513  1.9731 -2.9572
 3294WAT     H210094   4.555   1.739   3.974  0.1624 -1.7733 -0.9479
 3295WAT      O10095   1.729   2.221   5.192  0.3484  0.2638  0.0174
 3295WAT     H110096   1.652   2.250   5.144  0.3075  1.9666  1.0464
 3295WAT     H210097   1.755   2.296   5.245  1.1065 -1.1287  1.7509
 3296WAT      O10098   0.022   5.126   2.165  0.0253 -0.3915  0.0744
 3296WAT     H110099  -0.039   5.193   2.198  0.9421 -0.2851  1.6152
 3296WAT     H210100   0.078   5.174   2.104  0.8309  0.3315  1.3467
 3297WAT      O10101   2.281   5.058   4.350 -0.3457  0.2606 -0.2708
 3297WAT     H110102   2.285   4.964   4.334  2.3843  0.5040 -1.5675
 3297WAT     H210103   2.327   5.097   4.276  1.2538  2.3904  1.7039
 3298WAT      O10104   0.984   3.338   0.883  0.3008  0.1131  0.1978
 3298WAT     H110105   1.061   3.283   0.871  0.3450 -0.0154  1.0265
 3298WAT     H210106   0.910   3.277   0.885 -0.1087  0.3647 -2.6929
 3299WAT      O10107   2.218   4.448   0.879 -0.2214 -0.3598 -0.4508
 3299WAT     H110108   2.207   4.541   0.899 -1.1566 -0.5755  0.0904
 3299WAT     H210109   2.197   4.441   0.786 -1.8360 -0.2813 -0.1125
 3300WAT      O10110   3.381   2.204   0.422  0.3419 -1.2475 -0.2928
 3300WAT     H110111   3.447   2.246   0.367 -0.8735  2.1655  0.6077
 3300WAT     H210112   3.411   2.220   0.512 -1.7952  0.8343  0.1573
 3301WAT      O10113   2.797   0.495   5.126 -0.4228  0.1521  0.1269
 3301WAT     H110114   2.793   0.482   5.031  1.3718 -0.8180  0.1497
 3301WAT     H210115   2.852   0.424   5.158 -1.4693  0.1224  1.9913
 3302WAT      O10116   3.303   2.017   0.240  0.7787 -0.2201 -0.2467
 3302WAT     H110117   3.307   2.089   0.304  1.0839  0.3851 -0.9399
 3302WAT     H210118   3.306   1.938   0.294 -0.0927  0.2769  0.5640
 3303WAT      O10119   2.941   0.436   4.533 -0.6181 -0.4831 -0.2728
 3303WAT     H110120   2.932   0.531   4.540  0.6056 -0.4171  0.9877
 3303WAT     H210121   2.991   0.422   4.453 -2.0968 -0.2005 -1.2964
 3304WAT      O10122   2.285   2.289   1.848  0.6628  0.0701  0.0713
 3304WAT     H110123   2.236   2.210   1.824  0.3943 -0.1469  1.3001
 3304WAT     H210124   2.233   2.361   1.810 -1.1249 -0.0889  2.0394
 3305WAT      O10125   3.938   4.579   0.055  0.3891  0.1147 -0.3240
 3305WAT     H110126   3.934   4.528   0.136 -1.3493 -0.5789 -0.7817
 3305WAT     H210127   4.026   4.564   0.021 -0.5022 -4.1831 -1.3539
 3306WAT      O10128   0.057   2.171   1.235 -0.2692 -0.2147 -0.0367
 3306WAT     H110129   0.037   2.234   1.166 -0.1139 -0.4209 -0.2702
 3306WAT     H210130  -0.026   2.125   1.250 -0.0460 -0.8972 -0.8303
 3307WAT      O10131   3.148   2.645   1.314  0.3649 -0.0871 -0.1862
 3307WAT     H110132   3.225   2.636   1.258  1.1932 -0.4091  0.9621
 3307WAT     H210133   3.181   2.685   1.394 -0.5931 -0.5647  0.4676
 3308WAT      O10134   3.686   1.181   4.288  0.0400  0.4874  0.2371
 3308WAT     H110135   3.648   1.231   4.360 -1.8422  1.6591 -1.4495
 3308WAT     H210136   3.656   1.226   4.209  1.5413 -1.0616 -1.3258
 3309WAT      O10137   4.314   0.692   0.978  0.2519 -0.1001  0.2141
 3309WAT     H110138   4.279   0.641   0.904 -0.7257 -1.0126  1.2641
 3309WAT     H210139   4.242   0.750   1.002  1.2818  1.7120 -0.8327
 3310WAT      O10140   1.217   1.437   1.571  0.2265 -0.0278 -0.1825
 3310WAT     H110141   1.134   1.438   1.618 -0.6951  0.3903 -1.7481
 3310WAT     H210142   1.239   1.530   1.559  0.8833 -0.1359  0.1579
 3311WAT      O10143   1.976   2.236   4.299 -0.2073 -0.3188 -0.2052
 3311WAT     H110144   2.006   2.186   4.223  0.1383  0.5462 -0.6446
 3311WAT     H210145   1.888   2.203   4.316 -1.3811  1.2953 -2.6187
 3312WAT      O10146   1.245   3.687   5.241 -0.7177  0.1346 -0.1116
 3312WAT     H110147   1.243   3.754   5.309 -1.6352 -0.1191  0.1272
 3312WAT     H210148   1.335   3.655   5.241 -0.8649 -0.3494  1.4606
 3313WAT      O10149   3.757   2.183   3.757 -0.3339 -0.0677 -0.2860
 3313WAT     H110150   3.851   2.193   3.770 -0.3836  1.5543 -1.0102
 3313WAT     H210151   3.722   2.166   3.845  0.4207  1.1860  0.2742
 3314WAT      O10152   4.091   4.292   0.527  0.3906 -0.2225  0.0148
 3314WAT     H110153   4.165   4.254   0.573  0.8720  2.3228  1.5367
 3314WAT     H210154   4.018   4.285   0.588  0.4080  0.9419  0.1844
 3315WAT      O10155   3.421   0.362   4.408  0.1627  0.8003 -0.0308
 3315WAT     H110156   3.506   0.399   4.432  0.6579 -0.4210  0.1404
 3315WAT     H210157   3.437   0.317   4.325 -0.0596 -0.3315  0.5310
 3316WAT      O10158   0.873   1.417   1.289 -0.8780  0.3302  0.8167
 3316WAT     H110159   0.800   1.477   1.280 -1.6036 -0.8581 -2.1470
 3316WAT     H210160   0.855   1.369   1.370 -3.0220  0.5491  0.5134
 3317WAT      O10161   4.081   2.252   1.716  0.3666  0.0167  0.0870
 3317WAT     H110162   4.112   2.190   1.782  1.8171  1.0663  0.4568
 3317WAT     H210163   4.088   2.205   1.633  0.9284 -0.5036  0.4209
 3318WAT      O10164   1.177   4.786   4.843 -0.2392 -0.4748 -0.0383
 3318WAT     H110165   1.202   4.719   4.907 -0.9332 -1.4943 -0.7898
 3318WAT     H210166   1.110   4.838   4.887 -0.2604 -0.7667  0.2830
 3319WAT      O10167   0.089   2.864   1.760 -0.0125 -0.1290  0.0745
 3319WAT     H110168   0.030   2.798   1.722 -0.6019 -0.4453  1.4766
 3319WAT     H210169   0.175   2.822   1.762  0.5315  0.6447 -2.8046
 3320WAT      O10170   1.347   2.511   3.664 -0.2280  0.2479  0.2221
 3320WAT     H110171   1.316   2.601   3.661  1.8311  0.9872 -1.0097
 3320WAT     H210172   1.371   2.496   3.756 -1.8703  0.4378  0.7111
 3321WAT      O10173   2.235   0.359   3.521  0.2033 -0.4271 -0.7578
 3321WAT     H110174   2.231   0.269   3.553  0.8267 -0.3444 -0.4302
 3321WAT     H210175   2.206   0.412   3.596  1.3225 -0.2557 -0.4327
 3322WAT      O10176   4.505   2.482   3.507  0.4678 -0.3075 -0.3308
 3322WAT     H110177   4.500   2.572   3.538 -0.2419 -1.1260  2.2432
 3322WAT     H210178   4.416   2.461   3.480  0.0696 -0.8702  1.2792
 3323WAT      O10179   1.444   3.071   3.031 -0.3076 -0.4182  0.4903
 3323WAT     H110180   1.429   3.163   3.054 -0.4246 -0.2716 -0.1350
 3323WAT     H210181   1.364   3.045   2.987 -0.9075 -1.2981  2.0325
 3324WAT      O10182   1.709   0.189   1.265 -0.0962  0.4132  0.6915
 3324WAT     H110183   1.734   0.233   1.184  1.8784  0.6329  1.3667
 3324WAT     H210184   1.656   0.254   1.312  0.5567  1.0903  0.5067
 3325WAT      O10185   2.506   0.781   3.265 -0.5921 -0.6431  0.3867
 3325WAT     H110186   2.486   0.713   3.201 -1.9681 -1.3904  1.5531
 3325WAT     H210187   2.423   0.826   3.281 -0.4191 -0.8198  2.0104
 3326WAT      O10188   3.923   1.433   1.969  0.1820  0.6749 -0.4066
 3326WAT     H110189   3.929   1.350   1.922 -4.2079  0.6466 -1.2755
 3326WAT     H210190   3.850   1.422   2.029 -0.2121  3.7114 -0.1661
 3327WAT      O10191   3.267   2.957   1.809  0.0990  0.1230  0.3558
 3327WAT     H110192   3.226   3.009   1.741 -0.5459 -1.4008 -0.4639
 3327WAT     H210193   3.332   3.016   1.849 -0.7680  1.5971 -0.3450
 3328WAT      O10194   0.835   1.949   1.204 -0.6378 -0.6806  0.3940
 3328WAT     H110195   0.775   1.956   1.129 -2.6107 -3.1649  1.5666
 3328WAT     H210196   0.879   2.034   1.207 -3.1237  0.8425 -1.4041
 3329WAT      O10197   0.628   5.076   0.374  0.4987  0.1603 -0.1240
 3329WAT     H110198   0.626   5.170   0.360 -1.0659  0.4780  1.7879
 3329WAT     H210199   0.710   5.060   0.421  0.7309  0.5687 -0.3824
 3330WAT      O10200   1.988   1.120   3.206 -0.4891  0.4445 -0.0008
 3330WAT     H110201   1.926   1.064   3.253 -1.2872  2.1189  1.0402
 3330WAT     H210202   1.982   1.090   3.115 -1.5206 -0.5754  0.3697
 3331WAT      O10203   4.343   0.532   2.412  0.0915  0.0850  0.4607
 3331WAT     H110204   4.253   0.504   2.395  0.4909 -1.7436  1.1740
 3331WAT     H210205   4.394   0.489   2.344  0.7164 -1.0185  1.5826
 3332WAT      O10206   0.365   1.922   1.969  0.3312  0.5485  0.4516
 3332WAT     H110207   0.440   1.977   1.945 -1.1341  2.2723 -0.3759
 3332WAT     H210208   0.324   1.967   2.043  0.4491 -0.7405  1.3539
 3333WAT      O10209   2.365   2.648   4.089 -0.1436  0.2506 -0.0679
 3333WAT     H110210   2.330   2.563   4.064 -1.4298  1.0579 -1.1588
 3333WAT     H210211   2.455   2.630   4.116  0.2388 -1.1781 -2.0790
 3334WAT      O10212   1.411   4.216   5.205 -0.5329  0.1620 -0.3175
 3334WAT     H110213   1.418   4.309   5.227  0.9680  0.2377 -1.0557
 3334WAT     H210214   1.383   4.215   5.114 -1.3724 -0.1366 -0.0700
 3335WAT      O10215   3.664   3.105   3.383 -0.0984  0.2524  0.0054
 3335WAT     H110216   3.618   3.176   3.427  1.0637  0.7625  0.4518
 3335WAT     H210217   3.756   3.131   3.386  0.3320 -1.1645 -0.0137
 3336WAT      O10218   0.692   4.233   4.701  0.6160  0.0945 -0.0735
 3336WAT     H110219   0.737   4.173   4.641  1.2543 -1.5282  1.9283
 3336WAT     H210220   0.603   4.239   4.666  1.3204  0.3658 -1.9729
 3337WAT      O10221   1.130   4.168   5.251  0.7496 -0.3528 -0.5575
 3337WAT     H110222   1.089   4.240   5.299 -0.5742  0.0963 -2.2828
 3337WAT     H210223   1.222   4.193   5.243  0.8852 -0.1580  1.1457
 3338WAT      O10224   3.215   0.837   1.401 -0.1711 -0.5820  0.3977
 3338WAT     H110225   3.219   0.741   1.405 -1.6739 -0.6511  0.9024
 3338WAT     H210226   3.193   0.864   1.491 -1.4787  0.1091 -0.1071
 3339WAT      O10227   2.643   1.174   2.491 -0.1519 -0.1529  0.6976
 3339WAT     H110228   2.615   1.150   2.402 -0.5472  0.9840  0.4885
 3339WAT     H210229   2.735   1.201   2.480 -0.3355  0.4291  0.5335
 3340WAT      O10230   3.593   2.411   3.513 -0.0868 -0.3249  0.6621
 3340WAT     H110231   3.639   2.327   3.515 -0.9436 -0.8131  0.3549
 3340WAT     H210232   3.651   2.469   3.462  0.2742 -0.8746  0.4419
 3341WAT      O10233   3.317   1.018   2.108 -0.3966  0.3855  0.0258
 3341WAT     H110234   3.266   1.046   2.033  1.1861 -0.6360 -1.5166
 3341WAT     H210235   3.357   1.098   2.141 -1.2231  0.8643 -0.1242
 3342WAT      O10236   4.037   2.937   0.397 -0.0133 -0.1361 -0.3937
 3342WAT     H110237   4.126   2.965   0.376 -0.4758  1.5441 -0.2309
 3342WAT     H210238   3.996   3.013   0.438 -1.0466 -1.3732  1.0311
 3343WAT      O10239   1.959   1.859   4.161 -0.2980 -0.0959  0.0541
 3343WAT     H110240   1.905   1.902   4.095 -1.3312  0.0941  1.0008
 3343WAT     H210241   2.041   1.840   4.115 -1.2614 -0.7069 -1.5362
 3344WAT      O10242   0.392   4.332   0.954  0.1520  0.3078  0.5542
 3344WAT     H110243   0.332   4.334   1.029  1.4619  0.9818  1.6193
 3344WAT     H210244   0.472   4.373   0.986  1.0584 -0.1997 -0.9613
 3345WAT      O10245   2.484   1.870   1.738 -0.1266 -0.2880 -0.2392
 3345WAT     H110246   2.410   1.930   1.748  0.5969  0.5891  0.0259
 3345WAT     H210247   2.506   1.845   1.828 -0.2979 -0.7996 -0.3374
 3346WAT      O10248   2.177   4.277   3.489  0.1191 -0.0028  0.3827
 3346WAT     H110249   2.254   4.332   3.474  0.4402 -0.3270  0.8223
 3346WAT     H210250   2.204   4.215   3.556  0.0350 -1.2111 -0.6535
 3347WAT      O10251   3.775   2.236   4.217  0.2624 -0.0419 -0.2885
 3347WAT     H110252   3.694   2.202   4.180 -0.0052  1.2993 -1.0123
 3347WAT     H210253   3.822   2.159   4.247 -0.1174 -1.0918 -2.2171
 3348WAT      O10254   3.667   5.052   4.880 -0.2655 -0.0011  0.0684
 3348WAT     H110255   3.759   5.076   4.891 -0.1069 -0.2364 -0.7201
 3348WAT     H210256   3.669   4.962   4.847 -0.8361 -0.8013  2.0691
 3349WAT      O10257   4.314   3.079   4.291  0.0464  0.6971  0.1340
 3349WAT     H110258   4.406   3.073   4.263 -0.0825  0.1373 -0.1887
 3349WAT     H210259   4.316   3.139   4.365  1.2584 -1.9959  2.5019
 3350WAT      O10260   1.595   5.073   4.048 -0.1788 -0.0019  0.1193
 3350WAT     H110261   1.626   5.130   4.117 -0.7317  0.8130 -0.2941
 3350WAT     H210262   1.570   5.132   3.977 -0.2404 -0.7853 -0.5259
 3351WAT      O10263   1.635   3.844   5.012 -0.1077 -0.8186  1.2108
 3351WAT     H110264   1.643   3.754   4.980  0.0659 -1.5832  3.2573
 3351WAT     H210265   1.616   3.834   5.105 -1.5438  1.2754  1.1871
 3352WAT      O10266   2.588   3.091   2.544 -0.2175 -0.7942  1.0983
 3352WAT     H110267   2.564   3.106   2.452 -0.6838 -1.1132  1.1611
 3352WAT     H210268   2.665   3.146   2.558  0.1093 -1.0618  0.4006
 3353WAT      O10269   0.970   1.442   1.727  0.5888 -0.3353  0.1051
 3353WAT     H110270   0.914   1.515   1.701 -0.6614 -1.3515 -0.1209
 3353WAT     H210271   0.955   1.375   1.660  1.9085 -0.7205  0.1672
 3354WAT      O10272   2.509   0.043   2.769  0.5013 -0.4284  0.8722
 3354WAT     H110273   2.419   0.024   2.797  0.8931 -2.6095  0.8213
 3354WAT     H210274   2.558  -0.035   2.792  1.6369 -0.8565 -2.4428
 3355WAT      O10275   2.532   1.304   2.712  0.0517  0.5885  0.3477
 3355WAT     H110276   2.575   1.239   2.657  0.8156  0.5280  1.0016
 3355WAT     H210277   2.441   1.274   2.719  0.2207 -0.0037  0.0441
 3356WAT      O10278   1.949   1.413   2.028  0.2483 -0.8754  0.1445
 3356WAT     H110279   2.019   1.463   2.068 -2.1933  2.1421  0.9866
 3356WAT     H210280   1.936   1.454   1.942 -0.8794 -1.0097  0.2385
 3357WAT      O10281   1.831   1.408   2.923  0.2831  0.1269 -0.2870
 3357WAT     H110282   1.839   1.407   3.018 -0.1350 -0.5842 -0.2485
 3357WAT     H210283   1.744   1.445   2.907  0.5861  0.7996 -0.4219
 3358WAT      O10284   1.534   1.997   1.680  0.6432 -0.6611 -0.4835
 3358WAT     H110285   1.453   1.947   1.675  0.8094 -1.0775  0.6177
 3358WAT     H210286   1.570   1.975   1.766  0.8661  1.1545 -0.0864
 3359WAT      O10287   0.457   2.986   0.344  0.6259 -0.1930  0.3184
 3359WAT     H110288   0.436   3.004   0.253  0.4200 -0.6247  0.2785
 3359WAT     H210289   0.506   3.063   0.373  0.6775 -0.0480 -0.1482
 3360WAT      O10290   1.307   2.002   3.701 -0.4036 -0.6313 -0.1621
 3360WAT     H110291   1.339   1.967   3.784 -0.3516 -2.7539 -1.0168
 3360WAT     H210292   1.218   2.033   3.720 -0.2646 -0.7666  0.7448
 3361WAT      O10293   3.790   2.149   5.014  0.4685  0.0002  0.2712
 3361WAT     H110294   3.794   2.165   4.920  1.5269  1.1787  0.4812
 3361WAT     H210295   3.739   2.068   5.023  2.2142 -1.3627 -1.4198
 3362WAT      O10296   3.132   4.925   0.390  0.0265 -0.5095 -0.4023
 3362WAT     H110297   3.175   4.923   0.475  0.2410 -0.7561 -0.5155
 3362WAT     H210298   3.134   5.017   0.365 -0.4745 -0.3647  0.0793
 3363WAT      O10299   2.252   3.759   4.665 -0.2484  0.3429 -0.1275
 3363WAT     H110300   2.260   3.679   4.717  0.6177  0.6487  0.2187
 3363WAT     H210301   2.159   3.762   4.640 -0.5304 -0.1596  0.8231
 3364WAT      O10302   2.985   0.556   0.259  0.3515  0.6278  0.4298
 3364WAT     H110303   2.980   0.624   0.191 -0.5119  1.1513  0.9989
 3364WAT     H210304   2.925   0.586   0.327  1.8247  0.5337  1.8280
 3365WAT      O10305   3.469   0.534   2.467  0.2097  0.2140 -0.2832
 3365WAT     H110306   3.374   0.524   2.464  0.0424  1.3875  0.2198
 3365WAT     H210307   3.488   0.557   2.558  0.8462  1.0262 -0.6040
 3366WAT      O10308   1.886   1.164   1.941 -0.5276  0.0231 -0.4314
 3366WAT     H110309   1.952   1.124   1.997  0.7597  1.3462 -0.9341
 3366WAT     H210310   1.889   1.257   1.964 -0.1886  0.5610 -2.4358
 3367WAT      O10311   0.728   0.785   3.310 -0.3611 -0.2942 -0.4191
 3367WAT     H110312   0.799   0.842   3.281  1.0607 -2.8023 -2.2244
 3367WAT     H210313   0.668   0.781   3.235 -2.0527  1.0571  0.7566
 3368WAT      O10314   0.405   3.637   0.911  0.3487  0.2678 -0.6088
 3368WAT     H110315   0.330   3.625   0.852 -0.9436  2.4453  0.4843
 3368WAT     H210316   0.367   3.657   0.996  2.1964 -0.3155  0.4271
 3369WAT      O10317   2.747   3.156   1.241  0.6168  0.7063 -0.5801
 3369WAT     H110318   2.674   3.144   1.301  1.5190  1.9731  0.8821
 3369WAT     H210319   2.708   3.156   1.154 -0.8739 -0.2487  0.0540
 3370WAT      O10320   3.138   4.575   0.642 -0.1524 -0.8349 -0.1342
 3370WAT     H110321   3.140   4.530   0.558  0.6309  0.1226 -0.6483
 3370WAT     H210322   3.052   4.618   0.644  0.1543 -0.1454 -0.8559
 3371WAT      O10323   1.867   0.106   4.834  0.2828 -0.1574  0.3768
 3371WAT     H110324   1.896   0.151   4.755  0.2739  0.2789  0.6190
 3371WAT     H210325   1.848   0.176   4.896 -0.5339 -0.4676  0.4845
 3372WAT      O10326   0.465   1.657   2.441 -0.4154  0.6031 -0.1812
 3372WAT     H110327   0.464   1.749   2.414 -1.8376  0.3143 -1.2951
 3372WAT     H210328   0.483   1.609   2.360  0.1032 -0.1199  0.3501
 3373WAT      O10329   1.701   3.812   5.282 -0.7383  0.4001 -0.4781
 3373WAT     H110330   1.772   3.768   5.328 -1.8575  0.4549  1.4456
 3373WAT     H210331   1.736   3.898   5.259 -0.2365  0.5225  0.6675
 3374WAT      O10332   2.320   0.481   0.456 -0.2069  0.4839 -0.0994
 3374WAT     H110333   2.231   0.449   0.446 -1.5366  3.1714  1.9553
 3374WAT     H210334   2.337   0.531   0.376 -0.8450  0.6439 -0.1368
 3375WAT      O10335   4.063   3.799   2.564 -0.1461  0.2731 -0.2478
 3375WAT     H110336   3.968   3.809   2.567 -0.1272  0.4108 -0.0863
 3375WAT     H210337   4.094   3.847   2.640 -0.0448 -0.9199  0.4959
 3376WAT      O10338   4.128   3.092   3.617 -0.6895  0.1267  0.2285
 3376WAT     H110339   4.219   3.068   3.597 -1.2323 -1.5262 -0.3783
 3376WAT     H210340   4.092   3.015   3.661 -1.7596  0.8501  0.6562
 3377WAT      O10341   1.324   1.628   5.061 -0.5726  0.6295  0.0576
 3377WAT     H110342   1.379   1.609   4.985  1.2755  2.8991  0.6939
 3377WAT     H210343   1.266   1.698   5.031 -0.5177  0.8420  0.4420
 3378WAT      O10344   2.899   4.181   1.840 -0.0997  0.4316  0.2453
 3378WAT     H110345   2.965   4.119   1.808 -0.6489  0.4132 -0.9369
 3378WAT     H210346   2.830   4.125   1.877  0.7399  0.4657  1.9659
 3379WAT      O10347   3.136   5.084   1.185 -0.7163 -0.1445  0.2332
 3379WAT     H110348   3.158   5.044   1.269  3.9765  2.3913  0.5570
 3379WAT     H210349   3.084   5.162   1.208  0.0255  0.2024  0.7620
 3380WAT      O10350   0.751   4.754   5.096 -0.2939 -0.6387  0.2668
 3380WAT     H110351   0.670   4.729   5.052 -0.0051 -1.2132  0.0434
 3380WAT     H210352   0.725   4.774   5.186 -0.5316 -1.9160  0.5034
 3381WAT      O10353   1.225   4.853   2.991  0.1163  0.9559 -0.1946
 3381WAT     H110354   1.273   4.771   2.997 -1.4281 -0.2260 -2.2563
 3381WAT     H210355   1.177   4.859   3.074  0.5259 -0.0542  0.1296
 3382WAT      O10356   0.498   0.557   3.102  0.4019 -0.0454 -0.3491
 3382WAT     H110357   0.539   0.523   3.022  1.0970  0.5536 -0.2622
 3382WAT     H210358   0.415   0.594   3.072 -0.0948 -1.2751 -0.5298
 3383WAT      O10359   2.439   3.368   1.289  0.2277  0.3272  0.0489
 3383WAT     H110360   2.508   3.434   1.292  0.4458  0.1337 -0.4628
 3383WAT     H210361   2.453   3.323   1.206  0.2084 -0.4948  0.4751
 3384WAT      O10362   3.095   3.467   0.793  0.2204 -0.0312  0.3788
 3384WAT     H110363   3.123   3.502   0.709 -0.5139 -0.8313 -0.2151
 3384WAT     H210364   3.049   3.540   0.835 -1.5462 -0.3102 -0.9575
 3385WAT      O10365   2.012   3.639   1.362  0.0249  0.1804  0.0124
 3385WAT     H110366   1.944   3.585   1.320 -0.4140 -0.4150  1.4314
 3385WAT     H210367   2.092   3.586   1.355 -0.5108 -0.9840  1.8779
 3386WAT      O10368   3.026   4.561   1.841 -0.0630 -0.9592 -0.1154
 3386WAT     H110369   3.116   4.537   1.819  0.9693  1.4491  1.0495
 3386WAT     H210370   3.034   4.643   1.891 -2.9055 -0.6649  0.0722
 3387WAT      O10371   1.471   2.934   2.228  0.1966  0.0628 -0.0045
 3387WAT     H110372   1.413   2.940   2.304 -0.7495 -1.7615 -0.5302
 3387WAT     H210373   1.417   2.966   2.155  0.4296 -0.0430 -0.2232
 3388WAT      O10374   4.379   2.982   2.249  0.9766 -0.2687 -0.2708
 3388WAT     H110375   4.359   2.980   2.156  1.3545  0.9234 -0.4004
 3388WAT     H210376   4.321   3.049   2.285 -1.3814 -2.7484  0.9657
 3389WAT      O10377   2.482   3.328   1.608  0.1368  0.6401  0.1722
 3389WAT     H110378   2.471   3.303   1.516 -0.7336 -2.9403  1.0910
 3389WAT     H210379   2.564   3.286   1.635 -0.6577 -0.1580  1.4850
 3390WAT      O10380   3.069   1.736   1.586 -0.0802  0.1464  0.1845
 3390WAT     H110381   3.045   1.657   1.536  0.9328  0.2672 -0.5120
 3390WAT     H210382   3.068   1.806   1.522  3.4542 -0.0468 -0.2637
 3391WAT      O10383   2.971   1.231   4.742 -0.2731  0.1518  0.3749
 3391WAT     H110384   2.900   1.249   4.804 -2.3422 -2.5829 -1.0147
 3391WAT     H210385   2.927   1.198   4.664  2.4771  0.0199 -1.2486
 3392WAT      O10386   1.127   4.622   0.498  0.4293  0.1925 -0.3020
 3392WAT     H110387   1.137   4.586   0.586 -2.3243  0.4743  0.2082
 3392WAT     H210388   1.193   4.692   0.493  1.7515 -0.9098  0.8669
 3393WAT      O10389   2.580   4.510   2.689 -0.2069  0.0274 -0.0158
 3393WAT     H110390   2.669   4.528   2.718 -0.0510 -0.7939  0.0437
 3393WAT     H210391   2.530   4.587   2.715  0.2146 -0.0940  1.1860
 3394WAT      O10392   1.484   3.271   0.425 -0.4160  0.4907  0.0803
 3394WAT     H110393   1.560   3.300   0.475 -0.2902  1.1512 -0.4639
 3394WAT     H210394   1.509   3.287   0.334  0.1032 -2.4403 -0.3736
 3395WAT      O10395   1.644   3.644   0.405  0.1148  0.1053  0.2194
 3395WAT     H110396   1.636   3.548   0.410 -0.0258  0.1737  1.5480
 3395WAT     H210397   1.699   3.667   0.480  1.3808  0.9456 -0.9331
 3396WAT      O10398   1.768   2.810   2.494 -0.0711  0.0117 -0.2169
 3396WAT     H110399   1.795   2.728   2.537  0.6735  0.9467  1.2111
 3396WAT     H210400   1.756   2.872   2.567  1.3663  1.7243 -1.3394
 3397WAT      O10401   2.902   0.959   2.411 -0.3051 -0.4505 -0.1284
 3397WAT     H110402   2.966   0.888   2.417 -1.6951 -1.7697 -0.2032
 3397WAT     H210403   2.847   0.935   2.336 -2.2525 -0.5925  1.2523
 3398WAT      O10404   2.514   3.581   0.109  0.4025  0.4160  0.2469
 3398WAT     H110405   2.538   3.540   0.026  1.6251  1.5553  0.0132
 3398WAT     H210406   2.537   3.515   0.175 -0.7417 -0.5636 -0.3065
 3399WAT      O10407   1.248   3.312   1.907  0.5673  0.0242  0.2168
 3399WAT     H110408   1.214   3.274   1.989 -0.3240 -0.6142 -0.4253
 3399WAT     H210409   1.184   3.286   1.841 -0.7386  3.5319 -0.1462
 3400WAT      O10410   3.774   0.869   4.644 -0.0138  0.1743  0.4002
 3400WAT     H110411   3.863   0.855   4.678 -0.1886  1.4764  1.4840
 3400WAT     H210412   3.737   0.781   4.639  0.9173 -0.2849  1.1491
 3401WAT      O10413   0.095   1.368   0.237  0.4955  0.1069  0.4120
 3401WAT     H110414   0.126   1.289   0.194  1.8091  1.1670 -0.7028
 3401WAT     H210415   0.006   1.347   0.266 -0.9386 -0.4674 -3.6756
 3402WAT      O10416   3.905   2.833   3.967 -0.6626  0.5512  0.1389
 3402WAT     H110417   3.938   2.769   4.030  2.3377  2.1081  0.3311
 3402WAT     H210418   3.842   2.885   4.018  2.3317  2.3418  2.3430
 3403WAT      O10419   1.738   2.988   5.273  0.4627 -0.5695  0.0653
 3403WAT     H110420   1.651   2.947   5.280  0.7284 -1.9461 -2.9342
 3403WAT     H210421   1.799   2.915   5.282  1.2624  0.1875  0.8909
 3404WAT      O10422   2.581   3.939   3.553 -0.0098  0.1758 -0.0521
 3404WAT     H110423   2.639   3.980   3.618 -1.0436  0.1585  0.9168
 3404WAT     H210424   2.494   3.946   3.592 -0.2113 -3.4157  0.4512
 3405WAT      O10425   2.212   3.760   0.941  0.2321  0.5488 -0.1265
 3405WAT     H110426   2.303   3.792   0.936  1.0686 -1.2036  2.1129
 3405WAT     H210427   2.178   3.801   1.020  0.0484 -0.9983  0.6206
 3406WAT      O10428   0.522   0.984   1.046  0.0280 -0.2512  0.3067
 3406WAT     H110429   0.544   0.974   1.138 -0.2532 -0.1829  0.3813
 3406WAT     H210430   0.606   0.987   1.001  0.2025  1.1681  0.7064
 3407WAT      O10431   2.013   2.841   2.128  0.0869  0.2695  0.8317
 3407WAT     H110432   2.029   2.934   2.114 -1.5925  0.6921  1.4898
 3407WAT     H210433   1.920   2.829   2.108  0.7868 -1.7890 -1.7519
 3408WAT      O10434   0.096   2.294   2.489 -0.2822  0.0402  0.0163
 3408WAT     H110435   0.128   2.384   2.484 -2.6977  1.0900  1.3207
 3408WAT     H210436   0.135   2.259   2.569 -0.9719  0.7089  0.6673
 3409WAT      O10437   3.473   1.345   1.895 -0.0739  0.0280 -0.3167
 3409WAT     H110438   3.515   1.411   1.839  0.0496  0.3407  0.1394
 3409WAT     H210439   3.523   1.265   1.880 -0.2413  0.0257 -0.8954
 3410WAT      O10440   0.144   1.149   4.312 -0.2067  0.1197  0.0894
 3410WAT     H110441   0.094   1.211   4.365  1.1379  0.9130  0.4867
 3410WAT     H210442   0.093   1.069   4.314 -0.1042  0.0268  2.8376
 3411WAT      O10443   4.040   2.211   1.364 -0.1065  0.5727 -0.0183
 3411WAT     H110444   4.117   2.155   1.351 -0.3460 -0.3548  2.1241
 3411WAT     H210445   3.974   2.176   1.304  0.1357 -0.7213  0.4339
 3412WAT      O10446   1.250   0.910   4.343  0.3806  0.5625  0.2819
 3412WAT     H110447   1.339   0.946   4.337  0.1270  1.0751 -0.4519
 3412WAT     H210448   1.216   0.946   4.425  0.2865  1.6641 -0.2240
 3413WAT      O10449   4.035   3.782   4.278  0.3078 -0.4807 -0.1398
 3413WAT     H110450   4.040   3.794   4.183  1.3106 -0.9194 -0.1584
 3413WAT     H210451   4.063   3.691   4.291  1.2765 -0.0827  0.6572
 3414WAT      O10452   2.203   3.273   0.285  0.0890 -0.5687 -0.8303
 3414WAT     H110453   2.244   3.204   0.337 -1.1265  0.7729  2.1853
 3414WAT     H210454   2.248   3.353   0.311 -1.1934  0.2793 -1.1028
 3415WAT      O10455   3.157   1.863   3.221 -0.3224 -0.0550  0.0110
 3415WAT     H110456   3.174   1.775   3.188 -0.9400  0.2948 -1.2941
 3415WAT     H210457   3.079   1.891   3.174  1.2080  2.1133 -1.4287
 3416WAT      O10458   3.182   4.398   3.381  0.4209  0.3122 -0.2746
 3416WAT     H110459   3.228   4.315   3.390  0.2657 -0.0279 -2.1521
 3416WAT     H210460   3.226   4.442   3.309 -1.0093  0.7668 -0.9233
 3417WAT      O10461   0.507   0.564   0.784  0.3993  0.3463  0.3103
 3417WAT     H110462   0.514   0.480   0.829  0.7475  0.9243  1.3745
 3417WAT     H210463   0.413   0.581   0.780  0.3478  0.1237  0.5190
 3418WAT      O10464   0.594   3.076   0.017  0.1886 -0.1267  0.1967
 3418WAT     H110465   0.665   3.062  -0.046 -0.4429 -1.6170 -0.2443
 3418WAT     H210466   0.537   3.000   0.005 -2.4685  1.8662 -0.7467
 3419WAT      O10467   1.448   3.992   0.974  0.2312  0.0133  0.0497
 3419WAT     H110468   1.540   3.965   0.975  0.4430  0.6520 -0.7837
 3419WAT     H210469   1.409   3.947   1.049  0.9661 -1.1324 -0.2293
 3420WAT      O10470   0.387   3.246   3.399  0.4213  0.0798  0.1250
 3420WAT     H110471   0.304   3.266   3.356  0.7296  1.0176 -0.0714
 3420WAT     H210472   0.365   3.184   3.468 -1.0282  2.6724  2.1905
 3421WAT      O10473   0.515   2.780   5.011 -0.5787 -0.0106 -0.0008
 3421WAT     H110474   0.502   2.689   5.039  0.3519  0.0522  0.6704
 3421WAT     H210475   0.461   2.831   5.071 -1.2793 -0.1211 -0.5195
 3422WAT      O10476   2.133   3.838   0.645  0.6687  0.0595  0.0384
 3422WAT     H110477   2.191   3.910   0.621  1.4858 -1.0780 -1.5599
 3422WAT     H210478   2.165   3.809   0.731  2.4791 -0.4731 -0.7549
 3423WAT      O10479   0.573   3.134   2.824  0.2945 -0.1965 -0.1213
 3423WAT     H110480   0.479   3.151   2.811  0.3659  0.4874  0.2490
 3423WAT     H210481   0.616   3.214   2.794  0.7292 -0.2895  0.2549
 3424WAT      O10482   0.588   1.416   1.060  0.4317  0.0138  0.7313
 3424WAT     H110483   0.550   1.336   1.024 -0.5789  1.0364 -0.5307
 3424WAT     H210484   0.617   1.466   0.984 -0.7705  1.7353  1.3347
 3425WAT      O10485   2.261   1.269   2.930 -0.0625 -0.2247  0.0630
 3425WAT     H110486   2.193   1.260   2.864 -0.0102 -0.3342  0.0248
 3425WAT     H210487   2.261   1.363   2.952 -0.4541 -0.2803  0.3093
 3426WAT      O10488   3.710   3.042   2.648  0.3492  0.3373 -0.0540
 3426WAT     H110489   3.645   3.031   2.578 -0.2380 -0.9357  0.6519
 3426WAT     H210490   3.659   3.037   2.729  1.1966  0.3853  0.4929
 3427WAT      O10491   1.644   1.471   3.518  0.1867  0.1880 -0.2447
 3427WAT     H110492   1.591   1.416   3.575  1.5438 -0.2887  0.5967
 3427WAT     H210493   1.636   1.430   3.431 -1.6631  0.7618 -0.3835
 3428WAT      O10494   1.745   3.434   4.891  0.2287  0.0781  0.4774
 3428WAT     H110495   1.790   3.411   4.972  0.3272  0.5746  0.5665
 3428WAT     H210496   1.656   3.457   4.919  0.2709  0.2775  0.4466
 3429WAT      O10497   2.960   5.078   5.090 -0.1601 -0.0790 -0.0727
 3429WAT     H110498   2.909   5.013   5.040 -0.9162  0.3611  0.1112
 3429WAT     H210499   2.979   5.035   5.173 -0.3469 -0.2004 -0.0919
 3430WAT      O10500   2.104   2.477   0.844  0.3953  0.2276 -0.0453
 3430WAT     H110501   2.017   2.491   0.806  0.6694  2.5735  0.0618
 3430WAT     H210502   2.094   2.505   0.935  1.3800  1.1218 -0.1912
 3431WAT      O10503   3.987   2.125   0.213  0.3539 -0.6419  0.4908
 3431WAT     H110504   3.941   2.154   0.134 -1.9866 -0.9637  1.6624
 3431WAT     H210505   4.028   2.205   0.247 -1.8892  0.3376  1.0215
 3432WAT      O10506   1.372   1.995   2.964  0.1962 -0.2689  0.1618
 3432WAT     H110507   1.295   2.021   3.016 -1.1987  0.1486 -1.9642
 3432WAT     H210508   1.441   1.980   3.029 -1.5450 -0.2325  2.1353
 3433WAT      O10509   2.209   0.728   0.092  0.1246 -0.3372  0.1994
 3433WAT     H110510   2.255   0.649   0.122  0.5460 -0.6985 -1.3023
 3433WAT     H210511   2.185   0.774   0.173  0.4985 -1.6401  1.0875
 3434WAT      O10512   3.348   2.770   0.588  0.3924  0.4379  0.2766
 3434WAT     H110513   3.258   2.746   0.610  1.0332 -1.2266  1.2492
 3434WAT     H210514   3.382   2.695   0.538  1.7484  0.2645  1.3839
 3435WAT      O10515   3.231   0.940   1.135  0.6446 -0.1211 -0.7629
 3435WAT     H110516   3.192   1.022   1.107  0.7750 -0.3694 -1.7103
 3435WAT     H210517   3.196   0.925   1.223  0.6675  0.9662 -0.5607
 3436WAT      O10518   1.577   0.955   3.926  0.0526 -0.3329  0.4564
 3436WAT     H110519   1.526   0.889   3.974  0.7088 -0.9243  0.3588
 3436WAT     H210520   1.651   0.974   3.983 -0.4344  0.7538  0.7350
 3437WAT      O10521   0.959   1.503   3.496  0.0496  0.1431 -0.4858
 3437WAT     H110522   0.874   1.507   3.540  0.7855 -0.9675  1.1418
 3437WAT     H210523   0.946   1.550   3.414 -2.4433 -0.9816 -0.8092
 3438WAT      O10524   3.952   0.636   3.298  0.0875  0.6666 -0.2563
 3438WAT     H110525   3.974   0.562   3.242 -0.4198  0.0883  0.2878
 3438WAT     H210526   3.856   0.638   3.299  0.0932  1.5333 -0.5162
 3439WAT      O10527   1.388   4.130   4.582  0.1762  0.5628  0.2803
 3439WAT     H110528   1.295   4.125   4.559  0.5280 -1.3464 -0.8805
 3439WAT     H210529   1.392   4.098   4.672 -0.2051 -0.0983  0.0662
 3440WAT      O10530   1.395   0.712   1.344  0.1682  0.6167  0.4167
 3440WAT     H110531   1.442   0.629   1.338 -0.9176  0.0858 -1.7780
 3440WAT     H210532   1.460   0.778   1.320  1.0415  0.4434  2.1788
 3441WAT      O10533   1.495   0.515   2.933 -0.4975 -0.1846  0.5669
 3441WAT     H110534   1.518   0.604   2.961 -2.2930  0.4898 -0.0158
 3441WAT     H210535   1.425   0.488   2.992 -0.3866 -0.9925  0.3459
 3442WAT      O10536   1.125   3.520   1.595 -0.1058  0.1033  0.0238
 3442WAT     H110537   1.209   3.497   1.554 -0.6994 -0.5997 -0.8526
 3442WAT     H210538   1.074   3.560   1.524  0.2368  2.5997  1.0740
 3443WAT      O10539   0.676   2.080   0.079 -0.5782  0.1832 -0.1784
 3443WAT     H110540   0.630   2.005   0.041  2.0569 -1.1665 -0.9282
 3443WAT     H210541   0.742   2.042   0.136 -0.6142  2.0473  1.2050
 3444WAT      O10542   0.019   3.299   3.303  0.3644  0.4799 -0.4987
 3444WAT     H110543  -0.068   3.299   3.343  1.4410  0.3333  2.0618
 3444WAT     H210544   0.018   3.226   3.242 -0.5188 -1.2927  1.5142
 3445WAT      O10545   1.278   4.293   1.479  0.3614  0.1316 -0.3395
 3445WAT     H110546   1.246   4.327   1.562 -1.5203  1.1195 -1.3879
 3445WAT     H210547   1.211   4.319   1.415  0.5084 -2.6304 -1.7988
 3446WAT      O10548   1.103   1.306   4.712 -0.3004  0.0585 -0.1693
 3446WAT     H110549   1.056   1.382   4.748  1.7302  0.7554  1.1743
 3446WAT     H210550   1.046   1.232   4.733 -0.3941  0.7428  2.3380
 3447WAT      O10551   2.171   2.095   5.169 -0.3999 -0.3245  0.2636
 3447WAT     H110552   2.183   2.189   5.156  1.9489 -0.6467 -0.4042
 3447WAT     H210553   2.203   2.079   5.258 -0.3359 -0.5696  0.1962
 3448WAT      O10554   3.908   3.073   4.741 -0.2278  0.3366  0.2106
 3448WAT     H110555   3.880   3.067   4.649 -0.3024  1.2827  0.1581
 3448WAT     H210556   4.002   3.090   4.737 -0.6094  2.7021  0.2199
 3449WAT      O10557   2.606   2.902   0.327 -0.1251  0.0047 -0.3505
 3449WAT     H110558   2.570   2.968   0.387  0.9409  0.1474  0.1588
 3449WAT     H210559   2.626   2.827   0.383  1.1328  0.2342 -0.4528
 3450WAT      O10560   3.102   1.170   5.256 -0.1197  0.2094  0.0429
 3450WAT     H110561   3.175   1.195   5.313 -0.2845  1.0945 -0.1163
 3450WAT     H210562   3.100   1.239   5.189 -0.4992 -0.3264 -0.5025
 3451WAT      O10563   2.954   4.789   0.012  0.4224  0.4085  0.1957
 3451WAT     H110564   2.975   4.699   0.034  0.1303  0.6948  1.7167
 3451WAT     H210565   2.858   4.789   0.001  0.4608  0.4721 -0.1754
 3452WAT      O10566   3.228   1.059   2.399  1.0289  0.1423  0.3303
 3452WAT     H110567   3.203   0.972   2.429 -0.8647 -0.3634 -2.3091
 3452WAT     H210568   3.203   1.061   2.306 -0.2879  3.8997  0.5622
 3453WAT      O10569   2.662   0.625   1.378  0.5238 -0.3301 -0.5833
 3453WAT     H110570   2.688   0.644   1.288  1.7849  2.2032  0.2248
 3453WAT     H210571   2.745   0.606   1.422  0.3758  1.8131  0.7315
 3454WAT      O10572   1.528   0.911   4.275  0.0465  0.2737  0.2653
 3454WAT     H110573   1.495   0.861   4.200  0.6175  1.8211 -1.0771
 3454WAT     H210574   1.576   0.847   4.327 -1.5174 -1.1373  0.0629
 3455WAT      O10575   3.766   1.767   1.048 -0.5932  0.3220  0.4974
 3455WAT     H110576   3.768   1.792   0.955 -1.5584 -0.9236  0.1097
 3455WAT     H210577   3.689   1.810   1.083 -0.6159  0.2436  0.5444
 3456WAT      O10578   2.283   1.365   2.254  0.1370  0.3980  0.0168
 3456WAT     H110579   2.340   1.367   2.331 -0.4261  0.3812  0.4418
 3456WAT     H210580   2.342   1.347   2.181  0.4427 -1.4315  0.6590
 3457WAT      O10581   0.805   3.118   1.933  0.0290 -0.2323  0.2419
 3457WAT     H110582   0.809   3.030   1.971 -0.6817 -0.8092 -0.9513
 3457WAT     H210583   0.777   3.174   2.005  1.2517 -0.8309  1.2237
 3458WAT      O10584   0.870   4.617   2.023  0.4151 -0.3519  0.2422
 3458WAT     H110585   0.854   4.525   2.046  0.0578 -0.4712 -0.4351
 3458WAT     H210586   0.940   4.613   1.958 -1.0518 -0.3444 -1.4044
 3459WAT      O10587   1.779   5.094   1.108 -0.3131 -0.7118 -0.4784
 3459WAT     H110588   1.759   5.123   1.018 -0.9799 -0.5528 -0.2910
 3459WAT     H210589   1.757   5.170   1.162 -0.4222 -0.9883 -0.1317
 3460WAT      O10590   0.933   0.054   5.277 -0.0790 -0.4833 -0.3133
 3460WAT     H110591   0.904   0.109   5.204  0.9991 -0.0626 -0.4367
 3460WAT     H210592   1.020   0.024   5.251  0.2589 -0.4480  0.7408
 3461WAT      O10593   3.430   4.442   2.699  0.0421  0.0509 -0.2652
 3461WAT     H110594   3.423   4.533   2.728 -3.2971 -0.4405  0.9875
 3461WAT     H210595   3.434   4.392   2.781  0.2355 -0.9961 -0.9036
 3462WAT      O10596   2.019   4.130   4.410  0.2183 -0.5359 -0.4458
 3462WAT     H110597   1.982   4.074   4.478 -0.4535 -0.3200 -0.6329
 3462WAT     H210598   1.959   4.204   4.404  0.0080 -0.7855 -1.6253
 3463WAT      O10599   4.165   2.119   1.956  0.0078 -0.1585  0.8558
 3463WAT     H110600   4.122   2.141   2.039  0.8085  0.8606  1.0170
 3463WAT     H210601   4.254   2.096   1.981 -0.1979 -1.4944  0.4340
 3464WAT      O10602   3.864   1.163   1.851  0.0195 -0.3870  0.3784
 3464WAT     H110603   3.907   1.139   1.769  1.1631  1.5457  0.3320
 3464WAT     H210604   3.907   1.109   1.917 -0.3892 -1.4220 -0.1756
 3465WAT      O10605   2.261   0.894   5.149 -0.7159 -0.1815 -0.1861
 3465WAT     H110606   2.253   0.832   5.221 -1.2636 -0.3909 -0.4179
 3465WAT     H210607   2.257   0.840   5.070 -2.7560  0.2614 -0.4314
 3466WAT      O10608   1.350   2.267   4.013 -0.6080  0.1703 -0.1834
 3466WAT     H110609   1.403   2.199   3.971 -0.5430  0.4278 -0.5175
 3466WAT     H210610   1.265   2.262   3.969 -0.2443  1.0756 -1.0054
 3467WAT      O10611   3.915   1.573   2.203 -0.2885  0.0614  0.2608
 3467WAT     H110612   3.830   1.531   2.213  0.0643 -0.4348  1.4434
 3467WAT     H210613   3.946   1.545   2.117 -1.1001 -0.1508  0.0275
 3468WAT      O10614   0.791   1.811   3.922  1.0160  0.5063 -0.2084
 3468WAT     H110615   0.786   1.797   3.828  2.0120  0.8052 -0.3162
 3468WAT     H210616   0.709   1.857   3.943  0.0349 -0.9566 -0.6385
 3469WAT      O10617   1.845   0.865   1.683  0.1763  0.2274  0.7394
 3469WAT     H110618   1.803   0.786   1.649 -0.6021  0.0379  2.0729
 3469WAT     H210619   1.774   0.917   1.721  0.8238  1.0404  0.8794
 3470WAT      O10620   0.697   4.810   2.103 -0.2268 -0.5013 -0.2459
 3470WAT     H110621   0.769   4.757   2.069  1.0378 -0.4289  2.0949
 3470WAT     H210622   0.644   4.749   2.154 -0.4804 -0.0824  0.0005
 3471WAT      O10623   1.143   1.449   2.165  0.1945 -0.1248  0.5078
 3471WAT     H110624   1.146   1.414   2.076  1.7765  1.1127  0.0431
 3471WAT     H210625   1.152   1.544   2.154  0.6788  0.0271  1.9991
 3472WAT      O10626   1.451   3.713   2.440 -0.3590 -0.1122 -0.2870
 3472WAT     H110627   1.438   3.649   2.370 -1.4164 -1.5597  1.1537
 3472WAT     H210628   1.544   3.737   2.435  0.1704 -2.1101 -0.5914
 3473WAT      O10629   1.743   5.112   5.246  0.1599 -0.1784 -0.4548
 3473WAT     H110630   1.713   5.068   5.325 -0.4103  0.2877 -0.4036
 3473WAT     H210631   1.670   5.168   5.221  1.5270  2.2111  0.5519
 3474WAT      O10632   4.296   1.252   1.081 -0.0941 -0.3137  0.0544
 3474WAT     H110633   4.380   1.293   1.100 -0.8356  1.0424  0.5291
 3474WAT     H210634   4.317   1.160   1.066  1.5117  0.0625 -0.1790
 3475WAT      O10635   3.941   2.919   2.701  0.0145 -0.4292  0.1756
 3475WAT     H110636   3.978   2.947   2.618 -1.7061 -1.6126 -1.0574
 3475WAT     H210637   3.847   2.937   2.693  0.0188  1.3012  2.6750
 3476WAT      O10638   0.623   2.932   4.062  0.3263 -0.0819  0.2894
 3476WAT     H110639   0.687   2.870   4.026 -1.5333 -0.8720 -1.9785
 3476WAT     H210640   0.654   3.018   4.033  1.2202 -0.2708  0.6606
 3477WAT      O10641   1.886   2.038   1.148 -0.0313  0.6386  0.5698
 3477WAT     H110642   1.919   2.102   1.085 -0.0536  0.7700  0.6926
 3477WAT     H210643   1.965   1.995   1.183  0.0120  0.9971  0.9114
 3478WAT      O10644   0.390   0.114   1.130  0.0924  0.2466  0.0052
 3478WAT     H110645   0.320   0.066   1.175  0.8914 -0.8625  0.0979
 3478WAT     H210646   0.410   0.061   1.053  0.5379  0.7798 -0.2529
 3479WAT      O10647   2.103   2.355   1.468  0.2082 -0.2838  0.1662
 3479WAT     H110648   2.108   2.450   1.457 -0.7138 -0.2160  0.1964
 3479WAT     H210649   2.122   2.319   1.382  1.5703 -0.1206  0.3853
 3480WAT      O10650   4.196   2.177   2.223  0.0584 -0.0671  0.0460
 3480WAT     H110651   4.266   2.243   2.221 -0.2085  0.2146 -0.5965
 3480WAT     H210652   4.239   2.097   2.253  0.0497  0.7631  2.4416
 3481WAT      O10653   2.120   5.031   3.921  0.2141 -0.4647 -0.6700
 3481WAT     H110654   2.079   4.980   3.852 -0.6153 -2.7626  1.3535
 3481WAT     H210655   2.069   5.010   4.000  1.6064  1.3354  0.8195
 3482WAT      O10656   4.151   0.429   0.283  0.1811 -0.5113  0.5883
 3482WAT     H110657   4.091   0.492   0.323 -1.0170 -1.9157  1.1200
 3482WAT     H210658   4.110   0.344   0.300  1.5701 -1.4122 -0.3890
 3483WAT      O10659   4.310   3.400   4.984  0.2905 -0.2785  0.5062
 3483WAT     H110660   4.237   3.363   5.034 -1.2231  0.0798 -1.3286
 3483WAT     H210661   4.336   3.477   5.034  0.3482 -1.1615  1.8954
 3484WAT      O10662   4.519   2.589   1.948  0.4614 -0.3542 -0.1118
 3484WAT     H110663   4.530   2.515   1.889  1.2637 -0.3916  0.0699
 3484WAT     H210664   4.446   2.639   1.912 -0.1405 -1.2756 -0.1894
 3485WAT      O10665   4.137   4.456   1.772 -0.1894  0.3083 -0.0080
 3485WAT     H110666   4.075   4.396   1.730  1.3869 -1.8533  0.6093
 3485WAT     H210667   4.096   4.478   1.856 -0.7343  0.0048 -0.1898
 3486WAT      O10668   0.377   4.871   0.910  0.2200  0.2572  0.0894
 3486WAT     H110669   0.384   4.812   0.836  0.6627 -0.4877  0.7034
 3486WAT     H210670   0.392   4.815   0.987  2.9112  1.5104  0.5985
 3487WAT      O10671   3.432   1.251   2.153  0.4624 -0.1798 -0.3995
 3487WAT     H110672   3.445   1.319   2.087  1.8902  0.6067  0.6380
 3487WAT     H210673   3.469   1.288   2.233  1.8036 -2.3918  0.0905
 3488WAT      O10674   0.268   5.116   2.432  0.0125  0.3094 -0.7420
 3488WAT     H110675   0.256   5.022   2.423  1.0037  0.0176  0.6761
 3488WAT     H210676   0.178   5.151   2.439 -0.3649 -0.9676  2.2558
 3489WAT      O10677   1.736   3.569   1.184  0.3938 -0.0737 -0.4372
 3489WAT     H110678   1.785   3.553   1.103 -1.0817  0.8757 -1.5592
 3489WAT     H210679   1.709   3.660   1.178 -2.1827 -0.7584 -0.2515
 3490WAT      O10680   3.451   4.612   4.678  0.1767  0.0654  0.2312
 3490WAT     H110681   3.420   4.681   4.737  1.4801  0.0971  0.9144
 3490WAT     H210682   3.396   4.537   4.698 -0.5817  0.5993  0.1985
 3491WAT      O10683   2.676   3.510   0.608 -0.1543 -1.0080 -0.4339
 3491WAT     H110684   2.606   3.447   0.588 -0.9379 -0.0073 -0.8971
 3491WAT     H210685   2.684   3.563   0.529 -1.6528  1.4940  1.0029
 3492WAT      O10686   4.017   0.826   4.757 -0.6490  0.4353 -0.2195
 3492WAT     H110687   4.079   0.832   4.684 -0.1358  3.3959  0.3110
 3492WAT     H210688   4.056   0.881   4.826 -2.3166 -0.2473  1.3623
 3493WAT      O10689   3.277   4.669   2.303 -0.3825  0.7068 -0.3623
 3493WAT     H110690   3.280   4.748   2.248 -0.5844  0.4269 -0.7828
 3493WAT     H210691   3.347   4.682   2.367  0.2879  0.7476 -1.0900
 3494WAT      O10692   0.886   1.873   2.916 -0.5493 -0.1849 -0.2950
 3494WAT     H110693   0.931   1.904   2.837 -0.2361  0.1103 -0.0006
 3494WAT     H210694   0.835   1.948   2.946 -2.0332 -0.7822 -1.1651
 3495WAT      O10695   4.311   4.969   5.081  0.2723 -0.3167  0.4221
 3495WAT     H110696   4.239   4.909   5.059 -1.3054  1.6023  0.1057
 3495WAT     H210697   4.279   5.055   5.055  2.6473  0.6447  0.4549
 3496WAT      O10698   4.444   0.421   0.397 -0.7085  0.1999 -0.3050
 3496WAT     H110699   4.351   0.433   0.417 -1.4758 -1.7944 -2.3388
 3496WAT     H210700   4.446   0.352   0.331  2.0833  1.5361 -1.8000
 3497WAT      O10701   1.234   0.946   0.703 -0.5242  0.2199 -0.7549
 3497WAT     H110702   1.289   1.017   0.736  4.0054 -3.3031  0.3483
 3497WAT     H210703   1.249   0.946   0.608  1.6834 -0.7155 -0.4667
 3498WAT      O10704   1.260   0.501   3.099 -0.9330 -0.0769  0.1608
 3498WAT     H110705   1.210   0.525   3.177  0.4358 -0.4250  1.1892
 3498WAT     H210706   1.250   0.405   3.093  0.6842 -0.3503  1.2011
 3499WAT      O10707   1.747   4.859   2.407  0.2734  0.3458  0.5624
 3499WAT     H110708   1.799   4.889   2.482  0.2933  1.1563  0.2397
 3499WAT     H210709   1.730   4.939   2.357 -0.5839 -0.0419  0.2250
 3500WAT      O10710   1.907   0.854   3.205  0.6078 -0.0320  0.3741
 3500WAT     H110711   1.898   0.849   3.109  1.1627 -0.1545  0.3203
 3500WAT     H210712   1.863   0.775   3.237  0.5708 -0.0814  0.2039
 3501WAT      O10713   3.147   4.920   3.683 -0.2340  0.3791 -0.2717
 3501WAT     H110714   3.192   4.974   3.618 -0.2816 -0.8579 -1.3697
 3501WAT     H210715   3.215   4.863   3.719 -0.3954  0.3989  0.0682
 3502WAT      O10716   2.730   0.913   1.834  0.5121  0.1685  0.2492
 3502WAT     H110717   2.738   0.993   1.782  0.8834 -0.3021 -0.4324
 3502WAT     H210718   2.763   0.844   1.777  0.5809 -0.4154  0.9813
 3503WAT      O10719   1.809   1.479   4.183 -1.0984  0.1419  0.0541
 3503WAT     H110720   1.892   1.520   4.205 -0.0167 -1.3261 -1.0539
 3503WAT     H210721   1.791   1.420   4.256 -0.7048 -0.1926 -0.1175
 3504WAT      O10722   0.646   1.993   3.471 -0.1346 -0.3644  0.0448
 3504WAT     H110723   0.558   1.955   3.477 -0.0600 -0.3846  1.1923
 3504WAT     H210724   0.677   1.965   3.385 -0.9930 -0.9225 -0.1037
 3505WAT      O10725   2.536   2.568   3.215 -0.4248  0.7056 -0.6364
 3505WAT     H110726   2.580   2.603   3.292  1.0577 -0.2013 -1.0269
 3505WAT     H210727   2.454   2.532   3.249  0.7627 -0.8519  0.7982
 3506WAT      O10728   1.434   1.746   2.775  0.3889 -0.2674 -0.0693
 3506WAT     H110729   1.390   1.761   2.859  0.5777 -0.7277  0.1133
 3506WAT     H210730   1.400   1.814   2.717  1.4944  1.1080  0.8385
 3507WAT      O10731   3.117   3.915   0.210 -0.2548  0.5481 -0.2249
 3507WAT     H110732   3.155   3.983   0.154  2.0772 -0.5090 -0.0379
 3507WAT     H210733   3.085   3.849   0.148  1.8149 -0.3575 -0.4082
 3508WAT      O10734   0.021   4.838   0.760 -0.0587 -0.6457 -0.0353
 3508WAT     H110735   0.035   4.779   0.834  0.5091 -1.2252 -0.5933
 3508WAT     H210736  -0.011   4.919   0.800 -2.6336 -1.8703  0.6188
 3509WAT      O10737   2.451   0.015   0.832  0.3499  0.2081  0.1967
 3509WAT     H110738   2.380   0.028   0.895  0.5149  0.6490  0.2898
 3509WAT     H210739   2.513  -0.041   0.878  0.1152 -0.0964  0.1516
 3510WAT      O10740   3.122   0.885   1.659 -0.3877  0.1048  0.2577
 3510WAT     H110741   3.082   0.842   1.734  0.3779 -0.0323  0.5976
 3510WAT     H210742   3.195   0.935   1.696  0.8262 -1.0082 -0.5237
 3511WAT      O10743   2.784   3.685   0.405  0.4794  0.2741  0.0960
 3511WAT     H110744   2.792   3.779   0.422 -0.2004  0.8226 -2.2506
 3511WAT     H210745   2.827   3.672   0.321 -2.4957 -0.8328 -1.3947
 3512WAT      O10746   0.414   4.918   0.296 -0.2488 -0.5016  0.5541
 3512WAT     H110747   0.497   4.926   0.344 -0.3374 -0.4367  0.6971
 3512WAT     H210748   0.377   5.006   0.295  0.0037 -0.3970 -0.0961
 3513WAT      O10749   2.191   0.932   4.584 -0.2279  0.2407  0.2364
 3513WAT     H110750   2.271   0.890   4.613 -0.9202 -0.4348  1.2509
 3513WAT     H210751   2.215   0.979   4.504  0.7460 -1.4693 -0.5238
 3514WAT      O10752   2.561   2.228   1.766 -0.0275  0.2652 -0.7625
 3514WAT     H110753   2.590   2.141   1.794  1.6465  1.0179 -0.0510
 3514WAT     H210754   2.472   2.236   1.801  0.2446 -0.6935  0.1926
 3515WAT      O10755   0.656   1.173   4.493  0.3156  0.1389 -0.1095
 3515WAT     H110756   0.709   1.170   4.573  0.7057 -3.8075 -0.3183
 3515WAT     H210757   0.595   1.100   4.502 -0.5557  0.4240 -2.8377
 3516WAT      O10758   2.624   3.779   2.978 -0.1572 -0.4645  0.6283
 3516WAT     H110759   2.642   3.873   2.973 -1.0787 -0.3084  0.0365
 3516WAT     H210760   2.562   3.769   3.049 -0.1646 -0.6111  0.6030
 3517WAT      O10761   1.824   3.430   5.159 -0.0006 -0.1864 -0.0695
 3517WAT     H110762   1.887   3.384   5.214 -0.0806  1.7284  1.7609
 3517WAT     H210763   1.848   3.523   5.167 -2.3642  0.5119 -0.1544
 3518WAT      O10764   0.703   1.965   4.996  0.4073 -0.2603 -0.0690
 3518WAT     H110765   0.689   1.950   4.902 -1.3258 -0.3880  0.1630
 3518WAT     H210766   0.767   1.899   5.021  2.3095  0.9411 -1.4794
 3519WAT      O10767   0.381   1.216   0.993  0.2373  0.5120  0.0738
 3519WAT     H110768   0.402   1.137   1.044 -1.0038  0.5634  0.6865
 3519WAT     H210769   0.312   1.259   1.043 -1.1219  0.4944 -1.7331
 3520WAT      O10770   1.647   2.466   3.555  0.9856  0.0076  0.4598
 3520WAT     H110771   1.560   2.450   3.591  0.8437 -0.2937  0.0017
 3520WAT     H210772   1.707   2.440   3.625  0.7113  1.2078  1.1711
 3521WAT      O10773   3.120   3.293   0.041 -0.2229  0.1286  0.5104
 3521WAT     H110774   3.065   3.236  -0.012 -0.0751  0.7439 -0.3322
 3521WAT     H210775   3.083   3.288   0.129  1.0530 -2.9115  0.9817
 3522WAT      O10776   2.918   3.755   3.334 -0.3690 -0.3004 -0.6112
 3522WAT     H110777   2.975   3.825   3.366 -1.5939 -0.0245  1.0846
 3522WAT     H210778   2.846   3.800   3.291 -1.1539 -0.4958  0.4734
 3523WAT      O10779   2.651   2.649   1.358  0.2903  0.0453  0.2226
 3523WAT     H110780   2.696   2.704   1.422  0.6318  0.7946 -0.6379
 3523WAT     H210781   2.710   2.646   1.283 -1.0436  0.9909 -0.9010
 3524WAT      O10782   2.804   3.844   2.027 -0.0095 -0.4765  0.0923
 3524WAT     H110783   2.866   3.874   2.094 -1.2308 -0.9259  1.4643
 3524WAT     H210784   2.735   3.910   2.027 -0.4536 -0.9352 -0.1035
 3525WAT      O10785   4.208   5.046   2.947 -0.0889 -0.1374  0.4561
 3525WAT     H110786   4.265   5.061   2.872  1.3220 -2.9701  0.8201
 3525WAT     H210787   4.166   5.130   2.963  0.3673  0.8214 -2.8154
 3526WAT      O10788   0.563   2.402   4.018 -0.3528 -0.5351  0.3187
 3526WAT     H110789   0.621   2.478   4.022  0.4574 -1.1907  1.4392
 3526WAT     H210790   0.592   2.353   3.941 -0.0427 -0.3623  0.3250
 3527WAT      O10791   2.846   1.790   4.460 -0.0285 -0.7402 -0.3390
 3527WAT     H110792   2.798   1.785   4.543 -0.6340  0.2070 -0.6055
 3527WAT     H210793   2.860   1.884   4.447  0.2767 -0.8968 -1.1887
 3528WAT      O10794   3.880   2.102   2.606 -0.7423  0.6494 -0.6943
 3528WAT     H110795   3.911   2.178   2.557  0.6192  0.7241  0.2205
 3528WAT     H210796   3.904   2.121   2.697 -2.1703  0.0057 -0.1634
 3529WAT      O10797   1.579   0.178   1.563 -0.4108  0.3554 -0.0739
 3529WAT     H110798   1.671   0.180   1.537  0.0305 -0.0710  1.3460
 3529WAT     H210799   1.540   0.253   1.519  0.6541  0.6466 -0.5539
 3530WAT      O10800   3.843   1.826   2.714 -0.2076 -0.0093 -0.4038
 3530WAT     H110801   3.828   1.830   2.808  0.5154 -0.9295 -0.2447
 3530WAT     H210802   3.842   1.918   2.686 -1.5843  0.2054  0.3000
 3531WAT      O10803   4.246   1.478   3.147 -0.2735 -0.2254 -0.1940
 3531WAT     H110804   4.276   1.443   3.231  0.6205  0.4712 -0.2076
 3531WAT     H210805   4.214   1.401   3.099  0.5364 -0.8441  0.2333
 3532WAT      O10806   0.335   3.434   5.236 -0.4773  0.8182  0.0148
 3532WAT     H110807   0.262   3.378   5.211  0.2379 -0.1025 -0.0836
 3532WAT     H210808   0.352   3.489   5.160 -1.0606  1.0333  0.0395
 3533WAT      O10809   3.667   1.824   3.320  0.6210  0.1004 -0.3649
 3533WAT     H110810   3.596   1.815   3.257  0.6385 -1.6914 -0.1630
 3533WAT     H210811   3.639   1.895   3.378 -1.9652 -1.8384  0.9419
 3534WAT      O10812   3.834   2.767   1.022  0.2541 -0.0431 -0.2191
 3534WAT     H110813   3.867   2.755   0.933  0.3901  0.4500 -0.2372
 3534WAT     H210814   3.761   2.706   1.028 -1.5066  1.7690 -1.5918
 3535WAT      O10815   2.117   4.648   2.048 -0.6495  0.0593 -0.1482
 3535WAT     H110816   2.192   4.694   2.010  0.7828 -1.3176  0.8900
 3535WAT     H210817   2.066   4.619   1.972  0.9844 -0.7727 -0.9751
 3536WAT      O10818   0.772   4.383   2.122  0.2668 -0.3644 -0.4019
 3536WAT     H110819   0.824   4.307   2.148 -0.5373 -0.2232  1.8186
 3536WAT     H210820   0.698   4.347   2.074  0.6043 -0.8546 -0.5624
 3537WAT      O10821   1.415   2.874   3.343 -0.8219  0.6166 -0.0741
 3537WAT     H110822   1.390   2.787   3.373 -0.3922 -0.4247 -2.4622
 3537WAT     H210823   1.333   2.916   3.318 -0.9287  0.3829 -0.1190
 3538WAT      O10824   1.484   1.654   0.720  0.0736  0.5709  0.5027
 3538WAT     H110825   1.561   1.626   0.772  1.7521  2.1023 -1.0213
 3538WAT     H210826   1.477   1.748   0.737 -1.3252  0.5118  0.3622
 3539WAT      O10827   0.944   4.226   4.433 -0.1294 -0.1744  0.0560
 3539WAT     H110828   1.016   4.276   4.395  0.1433 -0.4400  0.2252
 3539WAT     H210829   0.895   4.291   4.484 -0.2867  0.1057 -0.4390
 3540WAT      O10830   2.534   1.634   3.370 -0.4913 -0.3037 -0.2050
 3540WAT     H110831   2.570   1.614   3.283 -0.3844  0.1682 -0.2773
 3540WAT     H210832   2.536   1.730   3.374 -0.1922 -0.3295  0.4427
 3541WAT      O10833   3.293   4.944   3.183 -0.7103 -0.2611 -0.0392
 3541WAT     H110834   3.308   5.025   3.133  1.1233 -0.0719  0.7487
 3541WAT     H210835   3.375   4.930   3.230 -1.9090 -1.1890  1.8570
 3542WAT      O10836   3.182   2.692   3.681  0.0661  0.2431  0.9086
 3542WAT     H110837   3.261   2.650   3.647 -1.9241 -1.1938 -2.5316
 3542WAT     H210838   3.210   2.780   3.705  2.7663 -0.3248  0.2087
 3543WAT      O10839   1.970   3.712   4.580 -0.1876  0.4020 -0.2082
 3543WAT     H110840   1.892   3.739   4.532 -1.7904 -0.2402  1.8747
 3543WAT     H210841   1.989   3.624   4.547 -2.7152 -1.0425  1.8168
 3544WAT      O10842   1.060   2.298   0.186 -0.4960 -0.4322  0.0406
 3544WAT     H110843   1.146   2.321   0.152 -0.1956 -1.0290  0.3856
 3544WAT     H210844   1.078   2.238   0.258 -1.1770 -0.1544  0.4508
 3545WAT      O10845   1.103   2.205   3.891 -0.5204 -0.0492 -0.2350
 3545WAT     H110846   1.035   2.147   3.855 -0.4252  0.7987 -1.8807
 3545WAT     H210847   1.093   2.197   3.985  0.1632 -3.5176 -0.3109
 3546WAT      O10848   1.177   2.808   0.842  0.0012  0.1565 -0.3086
 3546WAT     H110849   1.150   2.898   0.860  0.7533  0.7207 -1.8573
 3546WAT     H210850   1.108   2.754   0.881 -0.2591  1.3762  0.9920
 3547WAT      O10851   2.431   3.791   3.174  0.0823 -0.3603 -0.1785
 3547WAT     H110852   2.338   3.806   3.193  0.3158 -0.5365  1.1889
 3547WAT     H210853   2.451   3.708   3.217  1.1265  0.1927  0.4280
 3548WAT      O10854   0.230   1.622   2.641  0.2874  0.4673 -0.2138
 3548WAT     H110855   0.151   1.626   2.587  0.1216  2.7490  0.0831
 3548WAT     H210856   0.302   1.623   2.578  0.0723  0.9771 -0.4605
 3549WAT      O10857   3.801   0.585   1.983 -0.7195 -0.2107  0.5076
 3549WAT     H110858   3.710   0.562   1.999 -0.2800 -2.0813  0.5807
 3549WAT     H210859   3.819   0.551   1.895 -0.2198  0.5695  0.3018
 3550WAT      O10860   3.473   1.108   3.653  0.3763 -0.1674  0.3067
 3550WAT     H110861   3.430   1.082   3.734 -1.5222  0.8607 -0.3256
 3550WAT     H210862   3.419   1.179   3.618  2.4055  0.9738 -0.7226
 3551WAT      O10863   4.371   2.841   3.328  0.2735 -0.4924 -0.3430
 3551WAT     H110864   4.328   2.757   3.343  1.2816 -0.9295  0.2077
 3551WAT     H210865   4.352   2.862   3.236  1.7580 -2.3912 -1.1697
 3552WAT      O10866   3.137   3.796   4.835  0.8043  0.4063  0.7818
 3552WAT     H110867   3.121   3.868   4.775 -0.9918  2.2695  3.3079
 3552WAT     H210868   3.133   3.717   4.780 -0.4983  1.9878 -1.5396
 3553WAT      O10869   4.153   0.826   3.140  0.3423  0.1114 -0.3560
 3553WAT     H110870   4.084   0.773   3.182 -0.2337  0.4038 -0.9087
 3553WAT     H210871   4.227   0.820   3.199  0.4639 -1.7337 -0.6385
 3554WAT      O10872   4.274   1.647   1.976 -0.0727 -0.1669  0.4310
 3554WAT     H110873   4.258   1.554   1.959  0.5223 -0.0370 -0.9797
 3554WAT     H210874   4.363   1.650   2.012  0.4971 -0.0383 -0.9276
 3555WAT      O10875   3.042   0.658   5.026 -0.0110 -0.8849 -0.0859
 3555WAT     H110876   2.995   0.731   4.987 -0.6005 -2.3886 -2.3524
 3555WAT     H210877   3.134   0.677   5.007 -0.1799 -0.8471 -0.9122
 3556WAT      O10878   2.758   3.846   4.018 -0.3798  0.2231 -0.7209
 3556WAT     H110879   2.691   3.904   4.053 -0.1544  0.3028 -0.4160
 3556WAT     H210880   2.756   3.769   4.075  0.1976  0.4854 -0.3332
 3557WAT      O10881   4.064   4.860   3.464  0.2598 -0.0045  0.0559
 3557WAT     H110882   4.137   4.799   3.455  1.3367  1.2379  0.0609
 3557WAT     H210883   4.105   4.945   3.478 -1.2028  0.6189  0.8168
 3558WAT      O10884   2.052   0.823   0.878 -0.6750  0.3617  0.2976
 3558WAT     H110885   2.125   0.882   0.862 -1.3228  1.5034  1.4195
 3558WAT     H210886   2.067   0.789   0.967 -0.9249 -0.2645  0.1081
 3559WAT      O10887   1.015   1.288   2.615 -0.0744  0.1391  0.0155
 3559WAT     H110888   0.921   1.293   2.632 -0.2493  1.3610 -1.1195
 3559WAT     H210889   1.022   1.279   2.520  0.9535 -0.9823  0.1634
 3560WAT      O10890   2.670   2.385   2.384  0.1339  0.9121 -0.0211
 3560WAT     H110891   2.596   2.430   2.343 -0.5414 -0.8573 -0.8582
 3560WAT     H210892   2.644   2.375   2.475 -0.2605  1.0852 -0.1085
 3561WAT      O10893   1.634   1.997   4.690  0.0419  0.0844 -1.0955
 3561WAT     H110894   1.581   1.921   4.666  1.1172 -1.3535  0.8207
 3561WAT     H210895   1.708   1.995   4.629  0.0076 -0.3662 -1.1271
 3562WAT      O10896   2.426   1.143   3.927  0.1314 -0.4406 -0.2775
 3562WAT     H110897   2.490   1.090   3.881 -0.5052 -2.3127  0.8769
 3562WAT     H210898   2.363   1.168   3.859  0.6916 -0.7702 -0.9334
 3563WAT      O10899   1.852   2.734   4.331 -0.0396 -0.4399  0.3408
 3563WAT     H110900   1.944   2.757   4.349 -0.3860  1.5072 -0.1040
 3563WAT     H210901   1.837   2.654   4.381  0.4352  1.9503  4.8695
 3564WAT      O10902   4.144   2.488   2.091 -0.0223  0.5034  0.1347
 3564WAT     H110903   4.173   2.572   2.127 -0.2308  0.5029  0.3078
 3564WAT     H210904   4.085   2.453   2.158  0.6424 -0.1306  0.3888
 3565WAT      O10905   1.783   0.883   3.727  0.3614  0.1470  0.0044
 3565WAT     H110906   1.702   0.881   3.778  0.5789 -0.4755  0.3286
 3565WAT     H210907   1.775   0.963   3.674  0.1749  0.8623  1.0717
 3566WAT      O10908   3.516   4.721   1.081  0.0147 -0.2685 -0.4781
 3566WAT     H110909   3.495   4.631   1.106 -0.2709  0.1846  0.9763
 3566WAT     H210910   3.444   4.773   1.116  0.3307  0.5738 -1.0394
 3567WAT      O10911   3.601   1.082   1.855  0.5047 -0.0744 -0.3298
 3567WAT     H110912   3.694   1.105   1.845  0.1164  1.9729  0.3493
 3567WAT     H210913   3.591   1.065   1.949 -0.0209  0.7922 -0.2225
 3568WAT      O10914   1.797   3.173   2.369  0.5501  0.3466 -0.1437
 3568WAT     H110915   1.877   3.210   2.331  1.0304 -0.7481 -0.2232
 3568WAT     H210916   1.823   3.148   2.458 -0.1254  1.3818  0.3601
 3569WAT      O10917   3.247   4.728   0.149 -0.4083 -0.1041  0.1058
 3569WAT     H110918   3.222   4.769   0.232 -0.6603 -0.6050  0.2847
 3569WAT     H210919   3.322   4.778   0.118 -1.3976  1.2261 -0.2566
 3570WAT      O10920   3.221   0.839   3.373  0.1679  0.1036 -0.1456
 3570WAT     H110921   3.306   0.877   3.395 -0.0316  1.2469 -1.1905
 3570WAT     H210922   3.236   0.791   3.292 -0.4721  1.6950 -1.2702
 3571WAT      O10923   1.438   0.987   2.159  0.4491  0.1846 -0.1808
 3571WAT     H110924   1.446   0.953   2.069 -0.0680  1.3784 -0.7006
 3571WAT     H210925   1.425   1.081   2.147 -0.0356  0.2934  1.1483
 3572WAT      O10926   1.804   1.545   1.780  0.6532 -0.0367 -0.4247
 3572WAT     H110927   1.755   1.566   1.700  0.0070 -1.5060 -0.4308
 3572WAT     H210928   1.839   1.630   1.808 -2.7477  1.3490  0.1844
 3573WAT      O10929   3.317   2.066   3.111 -0.4747  0.4226 -0.2675
 3573WAT     H110930   3.350   2.005   3.045 -2.0833 -0.1033 -0.6384
 3573WAT     H210931   3.229   2.034   3.131 -0.2116  0.8899  1.7750
 3574WAT      O10932   2.214   4.615   1.234 -0.1326 -0.2267  0.4280
 3574WAT     H110933   2.187   4.698   1.274 -0.4407 -0.4034  0.5975
 3574WAT     H210934   2.277   4.639   1.167  0.4263  0.0716  1.0561
 3575WAT      O10935   1.270   3.931   3.759 -0.3113  0.0522  0.2573
 3575WAT     H110936   1.249   3.996   3.693  2.7830  0.8615 -0.0786
 3575WAT     H210937   1.193   3.873   3.761 -1.8787  1.9075 -1.5981
 3576WAT      O10938   0.630   1.253   0.402  0.2062  0.1142  0.0120
 3576WAT     H110939   0.557   1.292   0.450  0.2634 -0.3467  0.4950
 3576WAT     H210940   0.689   1.221   0.471  0.1803 -0.7627 -0.3538
 3577WAT      O10941   0.476   1.252   3.604 -0.0726 -0.2274 -0.0092
 3577WAT     H110942   0.571   1.254   3.620  0.1242 -0.7963 -1.0291
 3577WAT     H210943   0.448   1.165   3.632 -0.4700  0.2625  1.1577
 3578WAT      O10944   3.263   3.907   1.277  0.1718 -0.4666  0.1404
 3578WAT     H110945   3.254   3.820   1.239  2.7775 -0.8157  0.1843
 3578WAT     H210946   3.327   3.897   1.347  0.7824  1.5228 -0.0522
 3579WAT      O10947   0.885   2.987   0.312  0.2365  0.2349  0.1636
 3579WAT     H110948   0.960   2.960   0.258  1.0312 -1.8546  2.1514
 3579WAT     H210949   0.823   2.915   0.305 -0.9812  1.3010 -0.2980
 3580WAT      O10950   1.973   4.269   1.836  0.4039  0.3116  0.6197
 3580WAT     H110951   1.881   4.246   1.826  0.9262 -2.0905  0.6071
 3580WAT     H210952   2.015   4.232   1.758  1.3901  1.4564  0.5793
 3581WAT      O10953   0.145   4.895   4.726  0.3588 -0.3148 -0.4133
 3581WAT     H110954   0.077   4.851   4.777  0.9268  0.1024  0.7611
 3581WAT     H210955   0.112   4.984   4.714  0.8701  0.0140  0.5381
 3582WAT      O10956   3.671   4.609   2.382  0.3491  0.2139 -0.5938
 3582WAT     H110957   3.702   4.561   2.304  0.2232 -0.3990 -0.2728
 3582WAT     H210958   3.667   4.542   2.450 -0.5684  0.5354 -0.3325
 3583WAT      O10959   0.580   5.009   3.176  0.4166  0.1396  0.5867
 3583WAT     H110960   0.609   5.088   3.222 -0.7870 -0.8311  3.2755
 3583WAT     H210961   0.517   4.969   3.236  1.0576 -2.9303 -0.5960
 3584WAT      O10962   1.561   2.576   2.035  0.0937 -0.4236 -0.3337
 3584WAT     H110963   1.474   2.615   2.022  0.2119  0.2877  0.8416
 3584WAT     H210964   1.619   2.629   1.980  0.2282  1.0345  1.1346
 3585WAT      O10965   3.910   3.802   0.012 -0.1351 -0.5284  0.7382
 3585WAT     H110966   3.942   3.870  -0.047  0.3546  0.1126  1.7244
 3585WAT     H210967   3.942   3.720  -0.026 -0.9631 -0.2544 -0.6135
 3586WAT      O10968   0.621   4.084   2.338  0.3972  0.4387 -0.1002
 3586WAT     H110969   0.687   4.015   2.342 -1.3533 -1.3605 -0.8209
 3586WAT     H210970   0.585   4.078   2.250 -3.1780 -1.1420  1.2545
 3587WAT      O10971   3.035   1.948   1.825  0.2959 -0.2045  0.3538
 3587WAT     H110972   3.036   2.038   1.791 -1.6810 -0.1679  0.2469
 3587WAT     H210973   3.064   1.894   1.751  0.9057  0.3029  0.2235
 3588WAT      O10974   1.957   3.890   5.170  0.1147 -0.6013 -0.9038
 3588WAT     H110975   2.051   3.907   5.174 -0.1280  0.9836 -1.4268
 3588WAT     H210976   1.950   3.806   5.124  1.1964  0.1396 -2.4917
 3589WAT      O10977   1.491   4.900   2.770 -0.1076  0.3580 -0.2483
 3589WAT     H110978   1.484   4.867   2.681 -0.1807  1.7050 -0.7621
 3589WAT     H210979   1.401   4.900   2.803  0.2036 -3.0404  0.9779
 3590WAT      O10980   2.751   2.506   3.014 -0.0090 -0.3206 -0.0659
 3590WAT     H110981   2.768   2.540   3.102  0.1702  0.5447 -0.4256
 3590WAT     H210982   2.658   2.522   3.000  0.6038  2.8751 -1.3716
 3591WAT      O10983   2.037   2.684   1.593  0.1713 -0.5986  0.0211
 3591WAT     H110984   1.955   2.644   1.624 -0.6620 -0.1886 -1.5143
 3591WAT     H210985   2.067   2.737   1.666 -1.9743  0.7505  0.0236
 3592WAT      O10986   0.168   4.665   4.161  0.2619  0.1906 -0.1723
 3592WAT     H110987   0.152   4.664   4.255  1.0466 -0.2754 -0.0343
 3592WAT     H210988   0.126   4.586   4.128  2.5925 -1.3112  0.2651
 3593WAT      O10989   0.022   1.353   1.152  0.1025 -0.1390 -0.0176
 3593WAT     H110990   0.063   1.350   1.065 -0.0508 -2.1304 -0.0662
 3593WAT     H210991   0.039   1.442   1.184 -2.3039  1.7285 -3.2547
 3594WAT      O10992   4.205   1.626   0.485  0.6091 -0.2303 -0.4657
 3594WAT     H110993   4.131   1.669   0.443  0.7879 -0.0665 -0.6122
 3594WAT     H210994   4.180   1.620   0.578 -0.3666 -1.7696 -0.7728
 3595WAT      O10995   2.739   1.316   3.687 -0.0558  0.3202 -0.0336
 3595WAT     H110996   2.657   1.365   3.673 -0.3496 -0.5020 -1.4033
 3595WAT     H210997   2.800   1.355   3.625  0.7826  1.2721  1.3386
 3596WAT      O10998   2.927   3.585   4.382 -0.2928  0.3049  0.5709
 3596WAT     H110999   3.013   3.618   4.407  0.1680  1.7516 -2.4741
 3596WAT     H211000   2.876   3.664   4.362 -1.9093 -0.5747  1.0139
 3597WAT      O11001   3.498   4.339   2.965 -0.0672  0.4112  0.2805
 3597WAT     H111002   3.468   4.278   3.032  1.4342 -1.4948 -0.6704
 3597WAT     H211003   3.546   4.406   3.014  0.1817 -0.4183  1.2163
 3598WAT      O11004   3.798   3.347   4.835 -0.3720 -0.4221  0.0022
 3598WAT     H111005   3.736   3.321   4.904  1.8125  0.5274  2.5080
 3598WAT     H211006   3.826   3.265   4.796 -0.9096 -1.0855  0.9608
 3599WAT      O11007   3.486   1.233   4.111 -0.1224 -0.1336  0.4265
 3599WAT     H111008   3.440   1.166   4.161 -1.1335  2.0642  2.6790
 3599WAT     H211009   3.428   1.251   4.037 -1.2212  0.1366  1.3233
 3600WAT      O11010   2.909   4.522   0.318  0.5659 -0.1286 -0.1620
 3600WAT     H111011   3.002   4.501   0.332  0.4849  0.2044  0.9618
 3600WAT     H211012   2.898   4.610   0.354 -0.4576 -0.6679  0.9131
 3601WAT      O11013   4.172   5.117   4.444  0.4081  0.2039  0.2238
 3601WAT     H111014   4.165   5.182   4.514 -0.2730 -0.4351  0.7681
 3601WAT     H211015   4.136   5.161   4.367  1.0359  0.8656  0.2987
 3602WAT      O11016   1.296   4.867   0.461  0.2701 -0.0247  0.1071
 3602WAT     H111017   1.288   4.858   0.366  1.5485 -0.6560  0.0368
 3602WAT     H211018   1.382   4.830   0.481  0.8755  1.8713  1.2728
 3603WAT      O11019   4.125   3.125   2.866 -0.4518 -0.1867 -0.1794
 3603WAT     H111020   4.172   3.047   2.897  0.1540  0.2701  0.0769
 3603WAT     H211021   4.069   3.093   2.796  1.2470 -0.5536 -1.4424
 3604WAT      O11022   1.284   1.326   1.332  0.4019  0.2519  0.1073
 3604WAT     H111023   1.271   1.383   1.256 -2.0696 -0.1580  0.1509
 3604WAT     H211024   1.243   1.373   1.405  1.2243 -0.1418  0.8564
 3605WAT      O11025   1.339   1.196   0.750 -0.2116  0.3519 -0.4783
 3605WAT     H111026   1.388   1.222   0.672  0.9633  0.5822  0.3038
 3605WAT     H211027   1.397   1.219   0.823 -0.2812 -1.9598  0.3727
 3606WAT      O11028   3.069   1.087   1.372  0.0737 -0.0332 -0.3722
 3606WAT     H111029   3.133   1.029   1.413  0.2368  0.3634 -0.0503
 3606WAT     H211030   3.119   1.167   1.352 -0.5445  0.6888  0.8387
 3607WAT      O11031   2.255   5.138   2.871  0.2801  0.1466 -0.7172
 3607WAT     H111032   2.258   5.140   2.967 -2.1053  3.4755 -0.5182
 3607WAT     H211033   2.185   5.077   2.850 -0.2263  0.5420 -0.2103
 3608WAT      O11034   2.405   0.661   1.434 -0.0250  0.1221 -0.0776
 3608WAT     H111035   2.482   0.628   1.388  0.4379  3.0366 -1.6432
 3608WAT     H211036   2.331   0.622   1.387  0.4938  0.1045 -0.8914
 3609WAT      O11037   3.719   1.250   0.485  0.2278 -0.4483 -0.6988
 3609WAT     H111038   3.678   1.186   0.428 -1.5706  0.9641 -1.0690
 3609WAT     H211039   3.749   1.199   0.561  0.8087 -2.0161 -1.9321
 3610WAT      O11040   1.080   0.331   4.884 -0.4685 -0.0308  0.6534
 3610WAT     H111041   1.143   0.403   4.890  1.5579 -1.7275  0.7462
 3610WAT     H211042   1.045   0.338   4.795 -0.3187  1.0467  0.6577
 3611WAT      O11043   1.844   4.399   0.729  0.0665 -0.1228 -0.6593
 3611WAT     H111044   1.822   4.491   0.745  0.2268 -0.1299 -0.3976
 3611WAT     H211045   1.766   4.362   0.688 -0.3378 -0.0993  0.0799
 3612WAT      O11046   1.778   2.954   2.739  0.4559 -0.3200  0.2261
 3612WAT     H111047   1.787   2.879   2.798  1.9134 -2.7352 -2.7683
 3612WAT     H211048   1.860   3.002   2.749 -1.0297  1.9275  3.1936
 3613WAT      O11049   0.852   3.162   1.218 -0.6909  0.4451  0.1731
 3613WAT     H111050   0.834   3.256   1.229 -0.9958  0.1751  2.4288
 3613WAT     H211051   0.807   3.121   1.292  0.5939 -1.3474  0.0018
 3614WAT      O11052   2.553   3.248   3.462 -0.4248 -0.2885 -0.3338
 3614WAT     H111053   2.493   3.185   3.422 -0.1097 -1.2690  0.6993
 3614WAT     H211054   2.604   3.282   3.388 -0.9229 -0.8831 -0.9651
 3615WAT      O11055   4.389   3.237   4.525  0.0088 -0.7009 -0.4989
 3615WAT     H111056   4.379   3.306   4.591  3.1541  1.3684 -1.9105
 3615WAT     H211057   4.427   3.163   4.572 -0.1764 -0.1986  0.4630
 3616WAT      O11058   2.255   0.811   4.202  0.1721  0.0901 -0.1408
 3616WAT     H111059   2.213   0.894   4.222  0.6732  0.5755 -1.0307
 3616WAT     H211060   2.348   0.827   4.215  0.4613  0.2340 -2.0164
 3617WAT      O11061   4.250   4.699   3.874  0.3694 -0.6015 -0.3328
 3617WAT     H111062   4.174   4.658   3.834 -0.2539  1.0097 -0.8828
 3617WAT     H211063   4.214   4.767   3.931  1.3757  0.8275 -1.3260
 3618WAT      O11064   3.454   5.113   1.841  0.1667 -0.1815  0.2792
 3618WAT     H111065   3.439   5.193   1.791 -0.0307 -0.1841  0.3343
 3618WAT     H211066   3.371   5.066   1.837  0.0782 -0.0732  0.8078
 3619WAT      O11067   0.927   0.080   1.218 -0.1273 -0.4088  0.1841
 3619WAT     H111068   0.952   0.128   1.139  0.4475 -0.1614  0.5076
 3619WAT     H211069   0.943   0.141   1.290  0.4849 -1.0221  0.5895
 3620WAT      O11070   1.925   0.359   0.161 -0.1673 -0.8166  0.2181
 3620WAT     H111071   1.945   0.266   0.146  0.6554 -0.5744 -0.2658
 3620WAT     H211072   1.878   0.386   0.082  1.0791 -0.4134 -0.4097
 3621WAT      O11073   1.647   2.474   0.020 -0.4008  0.0447  0.1970
 3621WAT     H111074   1.615   2.557   0.055 -0.3610  0.0528  0.2146
 3621WAT     H211075   1.713   2.446   0.083 -2.8882 -1.8149  2.1984
 3622WAT      O11076   0.868   0.372   2.035  0.3119 -0.0359  0.1121
 3622WAT     H111077   0.778   0.339   2.028  0.3202  0.0122 -0.2352
 3622WAT     H211078   0.860   0.453   2.085 -0.1753  1.3122 -2.0580
 3623WAT      O11079   3.484   3.023   4.019 -0.1009  0.5057  0.1769
 3623WAT     H111080   3.560   2.964   4.015 -0.4589 -0.0022  0.6321
 3623WAT     H211081   3.468   3.047   3.929  0.1173 -0.0217 -0.0119
 3624WAT      O11082   4.158   1.857   4.780  0.9386  0.4223  0.1561
 3624WAT     H111083   4.216   1.783   4.761  2.9871  1.7718  0.8437
 3624WAT     H211084   4.209   1.935   4.756 -0.4940  1.6838  1.0244
 3625WAT      O11085   0.969   2.045   4.686 -0.7487 -0.3915 -0.1598
 3625WAT     H111086   1.038   1.979   4.689 -0.2733  0.0159 -1.5727
 3625WAT     H211087   0.987   2.102   4.761  0.7395 -0.0126 -0.7785
 3626WAT      O11088   4.472   3.476   1.429  0.3336  0.0336  0.6108
 3626WAT     H111089   4.446   3.437   1.345 -0.2800  0.1720  0.7398
 3626WAT     H211090   4.391   3.486   1.478  0.4829  1.4388  0.5971
 3627WAT      O11091   1.708   3.072   2.969  0.2522 -0.3730 -0.0881
 3627WAT     H111092   1.715   3.075   2.874  1.2518 -2.7307 -0.1579
 3627WAT     H211093   1.614   3.077   2.987  0.0990  1.1555 -1.0784
 3628WAT      O11094   0.166   4.426   0.666 -0.2838  0.4476  0.2205
 3628WAT     H111095   0.187   4.395   0.754  0.8524 -0.5139 -0.3600
 3628WAT     H211096   0.249   4.454   0.629 -1.0470  2.8643  0.1582
 3629WAT      O11097   0.714   3.596   2.163 -0.0088 -0.3295  0.1548
 3629WAT     H111098   0.744   3.604   2.072 -1.8493 -0.2504 -0.5029
 3629WAT     H211099   0.758   3.667   2.209 -1.0115  1.3171 -1.2875
 3630WAT      O11100   1.924   1.723   1.289  0.1165  0.0737 -0.6105
 3630WAT     H111101   1.891   1.744   1.376  0.6336 -0.7329 -0.2014
 3630WAT     H211102   1.878   1.643   1.264 -0.2510  0.4634 -1.2181
 3631WAT      O11103   2.552   1.469   4.344  0.1274  0.1843  0.8450
 3631WAT     H111104   2.542   1.523   4.265 -1.1244 -1.0122  0.1357
 3631WAT     H211105   2.495   1.510   4.408 -2.9126 -1.6248 -0.4820
 3632WAT      O11106   2.367   2.451   4.971 -0.2713 -0.5934 -0.3194
 3632WAT     H111107   2.422   2.379   4.940  0.7582 -0.9814  2.1918
 3632WAT     H211108   2.424   2.527   4.969  0.1138 -0.8072  1.3956
 3633WAT      O11109   3.674   4.096   0.837 -0.1823 -0.3248  0.6651
 3633WAT     H111110   3.624   4.112   0.918 -1.5914 -0.6542 -0.0998
 3633WAT     H211111   3.610   4.111   0.767  1.1406  0.4307 -0.4241
 3634WAT      O11112   3.283   3.130   4.661  0.8547 -0.0888 -0.2153
 3634WAT     H111113   3.343   3.065   4.623 -0.6304 -1.0552 -0.9848
 3634WAT     H211114   3.220   3.148   4.591 -2.1196 -2.0962  1.7287
 3635WAT      O11115   0.092   1.066   0.185 -0.1973 -0.3942  0.1244
 3635WAT     H111116   0.062   1.029   0.102  2.0940 -0.1557 -0.9010
 3635WAT     H211117   0.179   1.027   0.198  0.2486  0.9523  1.4774
 3636WAT      O11118   0.073   0.076   0.758 -0.4441 -0.6813 -0.6430
 3636WAT     H111119   0.113   0.145   0.810 -0.4494 -0.5303 -0.8383
 3636WAT     H211120   0.102   0.094   0.668  0.5959 -1.6583 -0.5312
 3637WAT      O11121   3.274   4.906   0.643  0.3337  0.2298 -0.3198
 3637WAT     H111122   3.363   4.933   0.620  1.0459 -1.5512  0.1130
 3637WAT     H211123   3.284   4.860   0.727 -0.8088 -0.9250 -0.7792
 3638WAT      O11124   2.374   0.943   1.182 -0.0091  0.5414  0.0243
 3638WAT     H111125   2.405   1.029   1.156 -1.5698  0.8859 -0.8447
 3638WAT     H211126   2.336   0.956   1.269  0.3526  0.5907  0.1726
 3639WAT      O11127   0.034   2.715   0.950 -0.4329  0.0664 -0.4338
 3639WAT     H111128  -0.047   2.757   0.923  0.0046  1.1006 -0.1713
 3639WAT     H211129   0.082   2.783   0.996 -0.2933 -1.0820  1.2090
 3640WAT      O11130   1.127   4.958   0.654  0.2889 -0.0372 -0.7433
 3640WAT     H111131   1.059   4.891   0.659 -0.4579  0.7930  0.9115
 3640WAT     H211132   1.184   4.929   0.583 -0.7261 -1.7470 -0.9080
 3641WAT      O11133   3.799   4.105   2.080  0.3253 -0.6532 -0.0175
 3641WAT     H111134   3.766   4.191   2.054  1.7545  0.2626  1.0422
 3641WAT     H211135   3.815   4.114   2.174  1.5502 -1.7064 -0.1048
 3642WAT      O11136   0.739   0.298   1.445  0.6117  0.3470 -0.3899
 3642WAT     H111137   0.656   0.302   1.493  0.7367 -1.5976  0.0747
 3642WAT     H211138   0.803   0.271   1.511  1.2183 -0.1626 -1.1717
 3643WAT      O11139   0.632   4.511   0.674  0.1275 -0.0004 -0.3962
 3643WAT     H111140   0.634   4.530   0.768  0.7950  0.1961 -0.4450
 3643WAT     H211141   0.542   4.483   0.657 -0.0725  0.2358  0.2479
 3644WAT      O11142   2.445   4.751   2.723 -0.0873  0.6213  0.4008
 3644WAT     H111143   2.366   4.754   2.669 -0.0459 -1.3491  0.1262
 3644WAT     H211144   2.503   4.817   2.685 -0.3932 -0.1097 -1.4636
 3645WAT      O11145   3.588   1.790   0.182 -0.2037 -0.0391 -0.4011
 3645WAT     H111146   3.667   1.839   0.159 -0.1665 -0.3014 -0.8523
 3645WAT     H211147   3.607   1.753   0.268 -0.6745  1.6691  0.4897
 3646WAT      O11148   1.729   2.185   2.895 -0.3030 -0.5027 -0.1802
 3646WAT     H111149   1.777   2.106   2.869  0.7373  0.1278 -0.2373
 3646WAT     H211150   1.762   2.204   2.983 -0.7960 -0.3204 -0.0340
 3647WAT      O11151   2.422   4.575   0.532 -0.0622 -0.1854 -0.6034
 3647WAT     H111152   2.455   4.592   0.444  2.0500 -0.5612  0.0624
 3647WAT     H211153   2.438   4.657   0.579  0.0080 -0.4082 -0.2388
 3648WAT      O11154   1.322   2.717   0.408  0.5232 -0.2080  0.3336
 3648WAT     H111155   1.376   2.770   0.466 -0.6287  2.2216 -0.6882
 3648WAT     H211156   1.257   2.676   0.466 -0.1416  1.5709  0.9042
 3649WAT      O11157   1.671   0.838   2.441 -0.0523  0.0396 -0.4562
 3649WAT     H111158   1.715   0.775   2.384 -0.3518 -0.1106 -0.5230
 3649WAT     H211159   1.582   0.845   2.406 -0.2431 -0.0567 -0.0078
 3650WAT      O11160   2.828   3.728   4.775  0.3209  0.6276 -0.3478
 3650WAT     H111161   2.875   3.645   4.771 -0.9086 -0.3258  2.6044
 3650WAT     H211162   2.735   3.703   4.781  0.0443  1.9748  3.0767
 3651WAT      O11163   2.285   1.529   0.136  0.0831 -0.0859 -0.3328
 3651WAT     H111164   2.256   1.581   0.061 -0.3324 -0.0193 -0.1300
 3651WAT     H211165   2.367   1.568   0.163 -0.4547  0.7676  0.1060
 3652WAT      O11166   1.160   3.563   0.229 -0.0586  0.0501 -0.1082
 3652WAT     H111167   1.225   3.631   0.211  0.9447 -1.1578 -1.2716
 3652WAT     H211168   1.077   3.603   0.205  0.3576  1.2314  0.2977
 3653WAT      O11169   3.934   3.862   3.998 -0.0078  0.4996 -0.1636
 3653WAT     H111170   3.856   3.910   4.026 -1.2204 -1.3483 -0.1571
 3653WAT     H211171   3.900   3.791   3.944  1.6959 -0.2700 -0.2960
 3654WAT      O11172   4.359   3.549   3.435 -0.5425  0.2621  0.2035
 3654WAT     H111173   4.394   3.570   3.349 -0.5742  2.4517  0.6789
 3654WAT     H211174   4.290   3.484   3.417  0.9957 -1.1136 -1.1247
 3655WAT      O11175   3.135   3.139   4.926 -0.3819 -0.3213  0.2970
 3655WAT     H111176   3.104   3.226   4.902  0.5083  0.2033  0.9984
 3655WAT     H211177   3.187   3.111   4.850  2.4351  1.3356  1.4624
 3656WAT      O11178   3.344   2.587   2.125 -0.2231 -0.3477 -0.4874
 3656WAT     H111179   3.310   2.497   2.127 -1.1740  0.0021 -0.3529
 3656WAT     H211180   3.352   2.607   2.032  2.9213 -1.6106 -0.5956
 3657WAT      O11181   0.927   0.951   4.101  0.2102 -0.2615  0.2925
 3657WAT     H111182   0.899   0.865   4.132  0.8122 -0.4696  0.2664
 3657WAT     H211183   0.846   1.003   4.100 -0.2891 -1.0197 -0.3655
 3658WAT      O11184   3.775   3.077   4.512  0.0113  0.7303  0.7154
 3658WAT     H111185   3.689   3.036   4.523  0.0425  0.8711  1.5667
 3658WAT     H211186   3.786   3.083   4.418 -2.0818  3.1339  0.5183
 3659WAT      O11187   2.327   3.022   0.254 -0.2154 -0.2212  0.3964
 3659WAT     H111188   2.410   2.999   0.212 -0.8421  1.0167 -1.7141
 3659WAT     H211189   2.324   2.968   0.333  0.1053 -4.4965 -2.1713
 3660WAT      O11190   3.028   3.849   0.691 -0.6029  0.4493 -0.4112
 3660WAT     H111191   3.067   3.767   0.660  0.6695  1.5731 -1.9227
 3660WAT     H211192   3.035   3.909   0.616  1.3389  2.8802  1.5487
 3661WAT      O11193   2.553   0.588   0.601 -0.3659 -0.5814  0.1762
 3661WAT     H111194   2.485   0.537   0.557 -0.4663 -1.3761  1.2106
 3661WAT     H211195   2.507   0.637   0.669 -0.1851  0.4700 -0.4437
 3662WAT      O11196   3.976   2.864   5.095 -0.0225  0.4530  0.2746
 3662WAT     H111197   4.020   2.891   5.176  0.1350 -1.3414  0.8267
 3662WAT     H211198   3.891   2.831   5.125 -0.4670  0.9188 -0.4484
 3663WAT      O11199   2.059   0.759   4.837 -0.1935  0.0292  0.0908
 3663WAT     H111200   2.150   0.730   4.840 -0.6623 -1.6100 -0.3891
 3663WAT     H211201   2.031   0.741   4.748 -1.3129 -0.5705  0.5455
 3664WAT      O11202   3.448   4.273   1.376  0.2542  0.4218  0.6942
 3664WAT     H111203   3.477   4.220   1.301  1.4023  1.4742  0.3757
 3664WAT     H211204   3.354   4.284   1.361  0.0164 -1.2783  0.6315
 3665WAT      O11205   4.251   3.382   3.062  0.8219  0.0212 -0.7414
 3665WAT     H111206   4.214   3.306   3.018 -0.3102  0.6277 -0.8866
 3665WAT     H211207   4.204   3.456   3.025 -0.7634  0.5335  1.9717
 3666WAT      O11208   0.303   0.921   5.066 -0.3112 -0.4796 -0.3523
 3666WAT     H111209   0.275   0.882   5.149 -2.0372 -0.4412 -0.8708
 3666WAT     H211210   0.349   1.001   5.091 -2.0909  0.3242  0.5739
 3667WAT      O11211   2.144   1.560   1.246  0.1023 -0.3879 -0.2829
 3667WAT     H111212   2.201   1.599   1.311  1.2865  0.3115 -1.6798
 3667WAT     H211213   2.070   1.620   1.239 -1.0287 -1.4536  1.7522
 3668WAT      O11214   2.673   5.066   4.599  0.4876 -0.2659 -0.1085
 3668WAT     H111215   2.676   4.985   4.548 -0.6207 -0.5344  0.2369
 3668WAT     H211216   2.723   5.045   4.679  1.1052 -0.2594 -0.4836
 3669WAT      O11217   4.266   1.073   4.601  0.3962 -0.7686  0.6386
 3669WAT     H111218   4.345   1.122   4.580  0.2289 -1.0779 -0.8002
 3669WAT     H211219   4.287   1.028   4.683  1.1838  0.2636  1.0248
 3670WAT      O11220   0.588   3.126   3.574 -1.0454  0.1402 -0.0401
 3670WAT     H111221   0.525   3.178   3.523 -2.8628 -2.6863 -0.9301
 3670WAT     H211222   0.643   3.084   3.508  0.4794  0.9400  0.6652
 3671WAT      O11223   4.219   1.418   4.038 -0.0050  0.2716 -0.3506
 3671WAT     H111224   4.294   1.415   4.098 -0.4051 -1.0301  0.1213
 3671WAT     H211225   4.245   1.363   3.965  1.0516  2.9538 -2.1479
 3672WAT      O11226   4.015   4.122   2.593  0.2892  0.7951 -0.5753
 3672WAT     H111227   4.015   4.217   2.602 -1.7229  0.7128  1.0162
 3672WAT     H211228   4.042   4.090   2.679 -1.2852 -0.0626 -0.3780
 3673WAT      O11229   3.577   2.492   5.128  0.9814  0.1801 -0.5446
 3673WAT     H111230   3.644   2.427   5.145  1.6316  1.1220  0.6566
 3673WAT     H211231   3.625   2.574   5.116  0.0917  0.7819 -0.1233
 3674WAT      O11232   1.141   2.243   1.813 -0.1729  0.5382 -0.4883
 3674WAT     H111233   1.080   2.205   1.750  0.2096  1.4887 -1.4551
 3674WAT     H211234   1.199   2.170   1.837 -2.6827 -0.8668  1.8065
 3675WAT      O11235   1.689   4.135   5.246  0.0604  1.1008  0.7763
 3675WAT     H111236   1.741   4.150   5.167 -0.6411 -0.7858 -0.1161
 3675WAT     H211237   1.623   4.204   5.244 -0.9838  0.1351 -1.2461
 3676WAT      O11238   2.812   4.160   4.435  0.3413  0.1094 -0.3565
 3676WAT     H111239   2.733   4.129   4.479  0.1264  0.1868 -0.6804
 3676WAT     H211240   2.779   4.212   4.362  0.6660 -1.4067 -1.6374
 3677WAT      O11241   4.077   4.438   2.282 -0.1201  0.0767 -0.1914
 3677WAT     H111242   3.988   4.419   2.252 -0.6473  1.2021  0.5568
 3677WAT     H211243   4.126   4.357   2.269 -0.7835 -0.0359 -2.2903
 3678WAT      O11244   3.365   2.911   3.211  0.7008  0.4798 -0.1445
 3678WAT     H111245   3.377   2.875   3.123  2.1617 -0.9860  0.5844
 3678WAT     H211246   3.439   2.875   3.261 -0.7698  0.2519  1.9923
 3679WAT      O11247   3.328   1.253   0.117 -0.2742  0.3173 -0.3188
 3679WAT     H111248   3.319   1.196   0.193 -1.3547  1.0617  0.1345
 3679WAT     H211249   3.414   1.294   0.128 -0.8609  1.2227  1.0862
 3680WAT      O11250   1.758   0.164   4.426  0.2612  0.2833 -0.0280
 3680WAT     H111251   1.677   0.117   4.408  0.6644 -0.0599 -1.0856
 3680WAT     H211252   1.806   0.159   4.343 -0.2606  3.7553 -0.6903
 3681WAT      O11253   3.286   4.103   4.037  0.6116 -0.2332 -1.0199
 3681WAT     H111254   3.224   4.103   3.963  0.9204 -0.1209 -1.2818
 3681WAT     H211255   3.257   4.176   4.092 -0.2088 -0.9188 -0.5257
 3682WAT      O11256   2.716   3.110   5.245  0.2915  0.1420  0.6907
 3682WAT     H111257   2.783   3.148   5.188  0.7191  0.0557  1.1301
 3682WAT     H211258   2.644   3.173   5.243 -0.1329 -0.3531 -0.7707
 3683WAT      O11259   3.122   0.871   5.240  0.6134 -0.4790  0.3677
 3683WAT     H111260   3.035   0.833   5.254  0.1099 -0.0531 -1.3209
 3683WAT     H211261   3.104   0.962   5.215  1.6178 -0.0807  1.0393
 3684WAT      O11262   1.653   0.262   2.506 -0.7553  0.3336  0.3261
 3684WAT     H111263   1.597   0.184   2.516 -0.9587  0.6406  1.8926
 3684WAT     H211264   1.613   0.327   2.564  0.7994  0.7988  0.9136
 3685WAT      O11265   1.898   4.820   1.427 -0.1466 -0.0583  0.1345
 3685WAT     H111266   1.875   4.759   1.358  2.6556 -0.1993 -0.8006
 3685WAT     H211267   1.893   4.769   1.508 -1.9158 -0.3183 -0.1196
 3686WAT      O11268   3.171   4.658   2.743 -0.5945 -0.6531 -0.0046
 3686WAT     H111269   3.129   4.573   2.728  0.7087 -1.2434 -0.4546
 3686WAT     H211270   3.117   4.720   2.694 -1.5025 -1.2311  0.2386
 3687WAT      O11271   3.221   2.348   3.052 -0.3094 -0.4305 -0.4664
 3687WAT     H111272   3.234   2.254   3.061 -1.3099 -0.7499 -2.0438
 3687WAT     H211273   3.128   2.358   3.033 -0.3396  0.9444  0.2171
 3688WAT      O11274   1.986   3.551   0.366 -0.9391  0.3305  0.6262
 3688WAT     H111275   2.056   3.617   0.364  0.6007 -1.2362  0.1584
 3688WAT     H211276   2.016   3.486   0.429  0.5002 -2.8362 -2.9300
 3689WAT      O11277   4.275   2.717   0.702 -0.1424 -0.8687 -0.5562
 3689WAT     H111278   4.330   2.731   0.624 -1.0958  1.0618 -0.9477
 3689WAT     H211279   4.189   2.695   0.667 -0.5063 -0.2784 -0.0534
 3690WAT      O11280   2.754   1.299   4.441  0.2993 -0.0831 -0.0943
 3690WAT     H111281   2.836   1.343   4.464  0.0155 -0.3367  1.5851
 3690WAT     H211282   2.695   1.371   4.415  0.3544  0.3724  0.9866
 3691WAT      O11283   0.659   2.654   1.883 -0.1319  0.1297 -0.1157
 3691WAT     H111284   0.599   2.635   1.954 -3.0496  0.5882 -2.2744
 3691WAT     H211285   0.689   2.569   1.852 -0.3964 -0.1502  0.3988
 3692WAT      O11286   2.534   2.117   4.528  0.8009  0.0276  0.3650
 3692WAT     H111287   2.537   2.032   4.485 -0.5354  0.9202 -1.6518
 3692WAT     H211288   2.581   2.104   4.610  2.0971 -2.1916 -0.6357
 3693WAT      O11289   3.802   4.916   3.237  0.1118 -0.0109 -0.2600
 3693WAT     H111290   3.711   4.923   3.266  0.6778  0.3544  1.5385
 3693WAT     H211291   3.837   5.005   3.245  1.4303 -0.6484  2.0338
 3694WAT      O11292   1.166   0.122   4.156  0.1546  0.1168 -0.2168
 3694WAT     H111293   1.087   0.167   4.126  0.3013 -0.8500 -2.2370
 3694WAT     H211294   1.137   0.034   4.177  0.6471 -0.2124 -0.8602
 3695WAT      O11295   4.245   4.641   3.429  0.5539  0.0501  0.0065
 3695WAT     H111296   4.206   4.634   3.342  1.8462 -1.1017 -0.5209
 3695WAT     H211297   4.266   4.550   3.453  0.3465  0.3567  1.4731
 3696WAT      O11298   0.482   4.072   2.100  0.1736  0.0996  0.0737
 3696WAT     H111299   0.477   4.031   2.013 -1.8363 -0.4188  0.3707
 3696WAT     H211300   0.434   4.154   2.091  4.2311  2.6681 -0.5270
 3697WAT      O11301   4.143   2.001   3.574  0.4187  0.4083  0.0589
 3697WAT     H111302   4.235   2.022   3.585  0.5987 -0.3228  0.0055
 3697WAT     H211303   4.134   1.914   3.613  0.3909 -0.8662 -2.5760
 3698WAT      O11304   4.006   0.780   1.890 -0.1049 -0.2574 -0.1179
 3698WAT     H111305   3.930   0.737   1.929 -1.8382  1.2952 -1.6371
 3698WAT     H211306   4.016   0.861   1.940  1.0762 -0.8034  0.5721
 3699WAT      O11307   3.974   4.001   4.564 -0.1634  0.0763  0.4829
 3699WAT     H111308   3.904   4.050   4.608 -1.1247 -1.2618  0.5029
 3699WAT     H211309   3.930   3.955   4.492  0.1247 -2.7963  1.9888
 3700WAT      O11310   4.311   3.306   2.397 -0.5048  0.1018 -0.5578
 3700WAT     H111311   4.216   3.296   2.401 -0.6933  1.5710 -0.8870
 3700WAT     H211312   4.325   3.391   2.354  0.9642 -0.2830 -0.9101
 3701WAT      O11313   3.166   4.406   2.359 -0.2973 -0.0736 -0.0474
 3701WAT     H111314   3.216   4.489   2.358 -0.2086 -0.0569  1.7572
 3701WAT     H211315   3.079   4.431   2.330 -0.0342  0.4844 -0.3926
 3702WAT      O11316   0.356   5.008   1.547 -0.4280 -0.1515 -0.8722
 3702WAT     H111317   0.341   4.960   1.466  1.0161  0.2195 -1.3844
 3702WAT     H211318   0.281   4.986   1.602 -0.0469 -2.6638 -1.2400
 3703WAT      O11319   4.071   2.416   3.885 -1.1877 -0.2273 -0.1925
 3703WAT     H111320   3.975   2.423   3.888 -1.3207 -1.0151 -1.5962
 3703WAT     H211321   4.087   2.323   3.868 -0.0258 -0.8726  3.6326
 3704WAT      O11322   3.985   1.022   2.039  0.0164  0.3784  0.0270
 3704WAT     H111323   3.923   1.021   2.112 -0.2230 -1.6124 -0.1447
 3704WAT     H211324   4.071   1.025   2.080 -0.1116 -0.8796  0.4246
 3705WAT      O11325   2.888   0.589   3.628 -0.6521  0.0843  1.0828
 3705WAT     H111326   2.810   0.556   3.583  1.1028 -1.8318 -0.8049
 3705WAT     H211327   2.891   0.681   3.605 -0.9519 -0.3959 -1.1283
 3706WAT      O11328   3.006   3.214   4.571 -0.0521 -0.1109  0.7985
 3706WAT     H111329   2.976   3.146   4.632  0.2296 -0.6803  0.3065
 3706WAT     H211330   2.942   3.284   4.581  0.0595 -0.1398  1.8460
 3707WAT      O11331   1.865   3.671   0.626 -0.2329 -0.1928  0.3977
 3707WAT     H111332   1.920   3.749   0.632 -0.7370  0.5286 -2.6670
 3707WAT     H211333   1.926   3.598   0.634  1.0616  0.5864 -1.6686
 3708WAT      O11334   2.964   3.465   0.500 -0.7702 -0.0355 -0.3572
 3708WAT     H111335   3.028   3.514   0.551 -0.3110 -0.4858 -0.4943
 3708WAT     H211336   2.896   3.529   0.480 -1.0159  0.1306  0.8979
 3709WAT      O11337   3.132   4.622   1.347  0.6748  0.5194  0.1723
 3709WAT     H111338   3.106   4.535   1.318 -0.9465  0.6084  1.1860
 3709WAT     H211339   3.214   4.640   1.302  0.8884 -1.4068 -0.2712
 3710WAT      O11340   0.495   2.343   2.019  0.2484  0.4326  0.0182
 3710WAT     H111341   0.447   2.401   1.960 -0.1723 -0.5057 -0.5849
 3710WAT     H211342   0.444   2.344   2.100  0.1335  0.7422 -0.0580
 3711WAT      O11343   0.961   1.990   0.765  0.0785 -0.2876 -0.3691
 3711WAT     H111344   0.935   2.081   0.781  0.3056 -0.6395  2.3962
 3711WAT     H211345   0.884   1.950   0.724 -0.9772  0.5322  0.7567
 3712WAT      O11346   0.980   1.637   2.996 -0.1461 -0.2056  0.4771
 3712WAT     H111347   1.062   1.633   2.947  0.4194 -0.4976  1.4295
 3712WAT     H211348   0.942   1.722   2.973 -0.4954 -0.8296 -1.3955
 3713WAT      O11349   2.918   1.010   2.028 -0.0407 -0.1876  0.6788
 3713WAT     H111350   2.915   0.931   2.081  1.6233 -0.7348  0.0274
 3713WAT     H211351   2.855   0.996   1.958  1.3482 -1.6791 -0.3514
 3714WAT      O11352   2.625   2.283   3.243 -0.4262 -0.6841 -0.2400
 3714WAT     H111353   2.715   2.311   3.258 -0.5342  0.3723 -1.3640
 3714WAT     H211354   2.573   2.364   3.251 -1.3884 -1.4058  1.1496
 3715WAT      O11355   4.313   4.622   1.626  0.5023  0.0218  0.1631
 3715WAT     H111356   4.286   4.643   1.536 -0.8407  2.4781  1.0550
 3715WAT     H211357   4.254   4.551   1.652  1.0915 -0.9143 -0.9491
 3716WAT      O11358   3.163   4.993   2.782  0.6329  0.2112  0.2042
 3716WAT     H111359   3.159   4.924   2.848  0.4076  0.4941  0.4911
 3716WAT     H211360   3.256   4.999   2.759  0.7055  0.0729  0.4569
 3717WAT      O11361   4.253   1.274   2.696 -0.1644 -0.3343  0.0472
 3717WAT     H111362   4.240   1.273   2.602  0.7303 -0.1106 -0.0903
 3717WAT     H211363   4.173   1.235   2.732 -1.2822  1.1662 -0.6850
 3718WAT      O11364   0.436   3.123   2.004 -0.2166 -0.3128 -0.0384
 3718WAT     H111365   0.345   3.103   1.983 -0.3612  0.2008  0.0735
 3718WAT     H211366   0.432   3.164   2.091  0.1431 -0.4899  0.0628
 3719WAT      O11367   0.673   1.630   0.880  0.6585 -0.2623  0.0758
 3719WAT     H111368   0.761   1.612   0.914  0.6471 -1.5448 -0.5215
 3719WAT     H211369   0.687   1.698   0.815  1.1466 -0.1507  0.2861
 3720WAT      O11370   3.654   2.443   2.841  0.2789 -0.2137 -0.1813
 3720WAT     H111371   3.588   2.505   2.811  0.7170 -0.5181 -1.8748
 3720WAT     H211372   3.608   2.359   2.847  0.3552 -0.3043 -0.7798
 3721WAT      O11373   1.359   0.339   0.584  0.0441 -0.3908  0.2981
 3721WAT     H111374   1.273   0.370   0.614 -0.6636 -1.3346 -0.6646
 3721WAT     H211375   1.414   0.417   0.586 -1.3908  0.7355 -1.0413
 3722WAT      O11376   4.408   1.959   2.811  0.2664  0.3642 -0.4153
 3722WAT     H111377   4.354   1.941   2.889 -1.4621  1.5225 -1.2808
 3722WAT     H211378   4.469   2.027   2.840 -0.4453  0.8766 -0.0818
 3723WAT      O11379   4.075   0.751   2.533  0.0542 -0.2256 -0.0456
 3723WAT     H111380   4.060   0.837   2.495  0.6036 -0.5057 -0.9296
 3723WAT     H211381   4.109   0.768   2.621 -1.6740  0.4306  0.5325
 3724WAT      O11382   3.689   4.461   4.437 -0.2816  0.6112 -0.2715
 3724WAT     H111383   3.711   4.456   4.530  0.0183 -0.1036 -0.3778
 3724WAT     H211384   3.711   4.551   4.412 -2.0229  1.3874  0.7527
 3725WAT      O11385   1.105   1.548   1.245  0.1362  0.1250  0.8745
 3725WAT     H111386   1.067   1.568   1.159  1.5379  0.5701  0.3231
 3725WAT     H211387   1.035   1.503   1.292 -0.6843 -0.0978 -0.4850
 3726WAT      O11388   3.583   2.846   0.333 -0.0012  0.3267  0.1011
 3726WAT     H111389   3.583   2.918   0.396 -1.3755  1.4273 -1.1072
 3726WAT     H211390   3.543   2.882   0.254  1.6553 -1.0087 -1.4489
 3727WAT      O11391   3.343   5.004   4.632  0.3623  0.0729  0.4710
 3727WAT     H111392   3.364   5.087   4.676 -0.2733 -0.4235  1.7712
 3727WAT     H211393   3.295   5.029   4.554 -0.7319  0.9182  1.3809
 3728WAT      O11394   2.177   3.746   0.376 -0.0336 -0.1138  0.2752
 3728WAT     H111395   2.192   3.822   0.320  2.5352 -0.4452  0.3809
 3728WAT     H211396   2.151   3.783   0.461  1.2795  0.6770  0.3525
 3729WAT      O11397   1.910   0.314   3.224  0.5643 -0.0449 -0.1213
 3729WAT     H111398   1.897   0.401   3.185 -0.9290  0.0377  0.5011
 3729WAT     H211399   1.856   0.256   3.171 -0.0139 -0.2462  0.6743
 3730WAT      O11400   3.645   0.107   1.476  0.0539  0.4301  0.3398
 3730WAT     H111401   3.566   0.140   1.519  0.5653  0.7719  1.0310
 3730WAT     H211402   3.689   0.054   1.542  1.7130  2.3233  0.8707
 3731WAT      O11403   1.263   4.956   4.646 -0.5155  0.9658  0.0152
 3731WAT     H111404   1.243   4.874   4.691 -0.0360  0.7538 -0.1570
 3731WAT     H211405   1.355   4.949   4.620 -0.0910  2.0955  1.1249
 3732WAT      O11406   0.855   2.149   5.119 -0.1202 -0.2255 -0.4825
 3732WAT     H111407   0.904   2.089   5.175  1.6558  0.2337 -1.4821
 3732WAT     H211408   0.790   2.093   5.076 -0.4490 -0.8657  0.7831
 3733WAT      O11409   0.194   5.085   3.084  0.3264  0.4568  0.0404
 3733WAT     H111410   0.148   5.093   3.168 -0.1024 -2.6002  0.2223
 3733WAT     H211411   0.140   5.134   3.023 -1.3618 -0.2048  0.9239
 3734WAT      O11412   2.998   2.578   3.871  0.0295 -0.0504 -0.0884
 3734WAT     H111413   2.984   2.627   3.952  1.2407  2.4295 -1.2546
 3734WAT     H211414   3.074   2.620   3.830  0.1822 -1.9608 -1.9784
 3735WAT      O11415   3.711   2.420   2.581  0.0734 -0.0996  0.1582
 3735WAT     H111416   3.804   2.438   2.569 -0.0885  0.3921 -0.3958
 3735WAT     H211417   3.702   2.403   2.675  0.8527 -0.9726  0.0872
 3736WAT      O11418   0.092   2.417   3.871 -0.6672  0.5066 -0.0852
 3736WAT     H111419   0.042   2.477   3.816 -0.4318  1.2287  0.4740
 3736WAT     H211420   0.136   2.474   3.935  1.4970  0.0007 -1.0322
 3737WAT      O11421   4.367   3.119   0.827  0.2654 -0.4174  0.3045
 3737WAT     H111422   4.437   3.056   0.811  2.7302  2.0941  0.4620
 3737WAT     H211423   4.411   3.204   0.830 -2.4431  1.0943  2.8808
 3738WAT      O11424   0.060   0.836   3.809 -0.2478 -0.6216  0.1102
 3738WAT     H111425   0.024   0.918   3.841 -1.1863 -0.4491 -1.3289
 3738WAT     H211426   0.154   0.843   3.825 -0.0879  1.3984 -1.3843
 3739WAT      O11427   3.706   2.160   3.497 -0.2952 -0.3845  0.1454
 3739WAT     H111428   3.793   2.134   3.466 -0.1842  0.8138 -0.6078
 3739WAT     H211429   3.716   2.169   3.592  0.4334 -0.1667  0.0531
 3740WAT      O11430   0.954   1.000   1.405  0.3172  0.3827 -0.2920
 3740WAT     H111431   1.032   0.944   1.405  0.2536  0.2835 -0.9790
 3740WAT     H211432   0.940   1.021   1.312 -0.4626  0.4188 -0.1682
 3741WAT      O11433   1.072   2.837   3.050  0.3734  0.2853 -0.2288
 3741WAT     H111434   1.105   2.755   3.087 -0.9518  0.0808  0.5790
 3741WAT     H211435   1.006   2.810   2.986  0.5304  0.6994 -0.5672
 3742WAT      O11436   0.584   4.459   4.159  1.1491 -0.1673 -0.5448
 3742WAT     H111437   0.562   4.549   4.134  0.5506 -0.7765 -2.3399
 3742WAT     H211438   0.501   4.412   4.158  1.2532 -0.5274  1.6005
 3743WAT      O11439   2.700   1.877   4.945 -0.5968  0.0026  0.2811
 3743WAT     H111440   2.789   1.853   4.972 -1.5106 -1.2371  2.4530
 3743WAT     H211441   2.664   1.797   4.906 -1.2108  0.0846  0.6681
 3744WAT      O11442   3.509   0.576   4.104  0.2430 -0.0033  0.2241
 3744WAT     H111443   3.557   0.493   4.105 -1.1039 -0.9150 -2.2803
 3744WAT     H211444   3.566   0.636   4.055 -0.3826 -0.6006 -1.2862
 3745WAT      O11445   3.033   4.097   3.504 -0.0143 -0.1869  0.1018
 3745WAT     H111446   3.079   4.097   3.588  0.2644 -0.1306 -0.0495
 3745WAT     H211447   2.960   4.157   3.517 -0.3185 -0.6344  0.4888
 3746WAT      O11448   2.988   3.685   0.931 -0.4413  0.1631  1.0321
 3746WAT     H111449   3.013   3.773   0.903 -1.2282  0.4988  1.3629
 3746WAT     H211450   2.892   3.684   0.924 -0.5183 -0.3025  2.0886
 3747WAT      O11451   3.775   0.407   4.093 -0.0153  0.0295 -0.5651
 3747WAT     H111452   3.837   0.350   4.047  1.8393  1.6941 -0.2501
 3747WAT     H211453   3.815   0.494   4.090 -2.3745  1.2104 -0.3538
 3748WAT      O11454   3.550   1.088   3.201  0.3301  0.3226  0.0692
 3748WAT     H111455   3.475   1.147   3.193 -1.4721 -2.0846 -3.1001
 3748WAT     H211456   3.524   1.025   3.269  1.4725  1.9216  2.1074
 3749WAT      O11457   1.977   3.009   3.075  0.4799 -0.1561 -0.0046
 3749WAT     H111458   2.044   3.077   3.075 -0.2330  0.6549 -2.4994
 3749WAT     H211459   1.898   3.053   3.042 -0.0535 -2.0908 -1.5124
 3750WAT      O11460   0.250   2.663   2.856 -0.2050 -0.6773  0.0645
 3750WAT     H111461   0.157   2.652   2.835 -0.2066 -0.7938  0.1315
 3750WAT     H211462   0.251   2.722   2.931 -0.1757  0.1615 -0.5860
 3751WAT      O11463   2.946   4.638   0.946  0.0940  0.3513  0.1138
 3751WAT     H111464   2.905   4.715   0.986  0.7368 -0.0241  1.5606
 3751WAT     H211465   2.930   4.567   1.008  2.2724  0.0336  0.3972
 3752WAT      O11466   2.784   2.258   0.077 -0.1430 -0.3095 -0.3155
 3752WAT     H111467   2.876   2.249   0.052  0.0315 -0.9819  0.5404
 3752WAT     H211468   2.779   2.342   0.123  0.4812 -1.2362  1.4958
 3753WAT      O11469   2.132   3.079   4.554 -0.0405  0.0217 -0.3294
 3753WAT     H111470   2.146   2.984   4.562 -2.5591 -0.2726  1.9193
 3753WAT     H211471   2.045   3.086   4.514  0.7134  1.4777 -1.8456
 3754WAT      O11472   4.262   1.963   0.158 -0.0671  0.0375 -0.0350
 3754WAT     H111473   4.258   1.895   0.091  0.8404 -0.3194  0.2608
 3754WAT     H211474   4.170   1.989   0.171 -0.4380 -1.1687 -0.1039
 3755WAT      O11475   1.200   0.629   4.416  0.6760  0.3562 -0.0473
 3755WAT     H111476   1.249   0.671   4.487  1.4408  0.8685 -0.8542
 3755WAT     H211477   1.267   0.604   4.352  0.0160 -0.2236 -0.5308
 3756WAT      O11478   3.285   2.522   3.233 -0.4512  0.1903  0.0744
 3756WAT     H111479   3.258   2.454   3.172 -1.0612 -0.0707  0.6249
 3756WAT     H211480   3.380   2.526   3.223 -0.4755 -0.3091 -0.4119
 3757WAT      O11481   2.900   1.548   3.046 -0.0537  0.0584 -0.7347
 3757WAT     H111482   2.870   1.461   3.022 -0.2591 -0.0246 -0.1855
 3757WAT     H211483   2.958   1.534   3.121  0.7506  0.2913 -1.3006
 3758WAT      O11484   0.042   3.093   3.735 -0.1844  0.2048 -0.3832
 3758WAT     H111485   0.001   3.068   3.817 -1.2120  1.9070 -0.3299
 3758WAT     H211486  -0.018   3.157   3.696  0.9393  0.4667 -1.7905
 3759WAT      O11487   1.611   2.407   1.301 -0.0012  0.2776  0.0233
 3759WAT     H111488   1.602   2.425   1.395 -1.0959  2.2767 -0.4020
 3759WAT     H211489   1.675   2.337   1.296 -0.4397 -0.3744  2.3017
 3760WAT      O11490   0.844   2.038   4.428  0.1788 -0.4712 -0.2839
 3760WAT     H111491   0.802   1.952   4.424 -0.1332 -0.2960 -0.8932
 3760WAT     H211492   0.865   2.050   4.520 -0.0016 -1.0954 -0.1566
 3761WAT      O11493   4.283   2.210   3.245  0.5689 -0.2857  0.0378
 3761WAT     H111494   4.348   2.148   3.213  2.0583  0.6355  1.1450
 3761WAT     H211495   4.326   2.296   3.239 -0.3680  0.2978  1.2076
 3762WAT      O11496   2.733   2.469   2.018 -0.2049  0.9283 -0.5090
 3762WAT     H111497   2.791   2.469   2.095 -0.3112  3.2047 -0.3683
 3762WAT     H211498   2.698   2.380   2.015 -1.5213  1.1590  3.1296
 3763WAT      O11499   4.320   2.372   2.496 -0.1142 -0.2044  0.8915
 3763WAT     H111500   4.403   2.337   2.463 -0.9016 -0.0048 -1.5358
 3763WAT     H211501   4.334   2.466   2.501 -0.1911 -0.1617  0.4012
 3764WAT      O11502   4.014   0.678   4.403 -0.4528 -0.6204 -0.0023
 3764WAT     H111503   4.057   0.763   4.395  0.1950 -0.7861  1.5332
 3764WAT     H211504   3.938   0.684   4.344  0.4322  0.4486 -1.0793
 3765WAT      O11505   2.570   1.732   1.313 -0.3745 -0.7390 -0.9711
 3765WAT     H111506   2.500   1.694   1.367 -0.2584 -1.0286 -1.0201
 3765WAT     H211507   2.622   1.783   1.374 -1.5537  0.8117 -1.2182
 3766WAT      O11508   1.360   1.233   2.174 -0.2516  0.1308  0.1893
 3766WAT     H111509   1.430   1.297   2.183 -0.5263  1.3120 -4.0334
 3766WAT     H211510   1.279   1.284   2.181 -0.4812  0.1840 -1.9777
 3767WAT      O11511   3.276   2.650   4.814  0.2485 -0.3505 -0.4161
 3767WAT     H111512   3.364   2.686   4.824  0.4463 -0.9963  0.2856
 3767WAT     H211513   3.282   2.591   4.739 -0.0241  0.8785 -1.4347
 3768WAT      O11514   1.575   4.690   5.233 -0.2009  0.4401 -0.8154
 3768WAT     H111515   1.487   4.696   5.196  0.0219  2.7007 -1.1322
 3768WAT     H211516   1.630   4.742   5.174  1.4269 -1.1602 -0.7949
 3769WAT      O11517   0.750   2.860   1.635  0.3594 -0.4840 -0.0998
 3769WAT     H111518   0.755   2.893   1.725  1.1208 -1.5324  0.2614
 3769WAT     H211519   0.721   2.769   1.644 -0.5019 -0.3176 -0.9930
 3770WAT      O11520   0.249   3.770   4.864  0.0696 -0.3677  0.0754
 3770WAT     H111521   0.235   3.861   4.889  0.5903 -0.7612  1.9286
 3770WAT     H211522   0.284   3.775   4.775  0.5372  1.2714  0.3201
 3771WAT      O11523   1.709   0.555   1.863  0.0452  0.2977  0.4435
 3771WAT     H111524   1.800   0.536   1.839 -0.0658  1.8473 -1.4380
 3771WAT     H211525   1.659   0.484   1.823  0.1124  1.5189 -1.9762
 3772WAT      O11526   4.490   3.834   3.985 -0.0454 -0.2803 -0.2134
 3772WAT     H111527   4.497   3.760   3.925 -2.2482 -0.3484 -0.4451
 3772WAT     H211528   4.398   3.836   4.011  0.3524  1.2316  1.2789
 3773WAT      O11529   4.056   0.544   2.793  0.1855  0.5399 -0.3261
 3773WAT     H111530   4.019   0.538   2.704  1.2384  0.2312 -0.7619
 3773WAT     H211531   4.119   0.616   2.788  0.1060  0.6511  0.2315
 3774WAT      O11532   3.165   1.220   2.953 -0.6797 -0.4535 -0.2879
 3774WAT     H111533   3.177   1.202   3.046 -0.8245 -3.0211 -0.6941
 3774WAT     H211534   3.100   1.157   2.924 -1.6514  1.1771 -1.9023
 3775WAT      O11535   2.841   1.031   3.931 -0.0901 -0.3520 -0.4158
 3775WAT     H111536   2.824   0.946   3.972  0.0521 -0.6290 -0.9166
 3775WAT     H211537   2.862   1.089   4.004 -4.5467  0.4566  0.5442
 3776WAT      O11538   0.853   5.002   0.493  0.4420 -0.8126 -0.4389
 3776WAT     H111539   0.936   5.047   0.479  0.0520  0.4763  1.0504
 3776WAT     H211540   0.874   4.909   0.484  2.3917 -0.6149  1.2571
 3777WAT      O11541   4.466   1.723   1.706 -0.0621  0.1427  0.0789
 3777WAT     H111542   4.552   1.687   1.730  1.0595  1.6278 -1.4623
 3777WAT     H211543   4.474   1.744   1.613 -2.2471 -0.0157 -0.1977
 3778WAT      O11544   1.991   4.832   4.599  0.2149  0.2584 -0.3899
 3778WAT     H111545   2.023   4.835   4.689 -0.9778  1.4867  0.0363
 3778WAT     H211546   2.000   4.921   4.567  0.9039 -0.2283 -1.6122
 3779WAT      O11547   0.687   2.596   1.019 -0.5873 -0.1484  0.2853
 3779WAT     H111548   0.652   2.662   0.958 -1.6276 -0.2492  0.7599
 3779WAT     H211549   0.611   2.544   1.044 -0.0428 -0.5418  1.1464
 3780WAT      O11550   1.365   0.190   1.281  0.2640  0.6518  0.2208
 3780WAT     H111551   1.348   0.211   1.189 -2.0222  1.0824  0.6881
 3780WAT     H211552   1.422   0.261   1.311  1.5976  0.1439 -1.0030
 3781WAT      O11553   2.238   1.329   1.464 -0.1213  0.1244 -0.4989
 3781WAT     H111554   2.154   1.371   1.482 -0.9742 -0.4263 -2.8273
 3781WAT     H211555   2.296   1.361   1.533 -2.2399  0.4246  1.2717
 3782WAT      O11556   2.813   1.298   2.999 -0.1356 -0.4580 -0.3388
 3782WAT     H111557   2.807   1.205   2.976 -1.0170 -1.2527  2.5831
 3782WAT     H211558   2.772   1.303   3.086  3.5491  1.8839  1.5419
 3783WAT      O11559   0.293   3.810   3.739  0.3251 -0.5727 -0.3323
 3783WAT     H111560   0.351   3.761   3.798 -1.5945 -1.7036  0.7570
 3783WAT     H211561   0.229   3.744   3.710 -0.2955  0.5644 -1.6352
 3784WAT      O11562   3.317   1.485   3.422  0.0760 -0.7420  0.0447
 3784WAT     H111563   3.397   1.521   3.384 -0.0008  1.6118  1.9074
 3784WAT     H211564   3.257   1.559   3.427 -0.6666 -1.4196  2.6581
 3785WAT      O11565   0.244   1.864   5.247 -0.3238 -1.0076  0.4274
 3785WAT     H111566   0.336   1.890   5.239 -0.9330  1.1471 -0.4069
 3785WAT     H211567   0.218   1.839   5.158 -1.1641  0.8817  0.0906
 3786WAT      O11568   3.103   4.584   5.065 -0.5118 -0.4419  0.6582
 3786WAT     H111569   3.097   4.558   5.157 -0.4245 -0.2820  0.7093
 3786WAT     H211570   3.171   4.651   5.064 -0.4454 -0.5135  0.4609
 3787WAT      O11571   1.994   2.200   0.988  0.7678 -0.2076 -0.4002
 3787WAT     H111572   1.963   2.290   0.981 -0.0452 -0.2634  1.9055
 3787WAT     H211573   2.089   2.207   0.979  0.5862  0.6138 -2.1377
 3788WAT      O11574   2.382   2.261   4.334  0.4782  0.7476  0.5142
 3788WAT     H111575   2.447   2.238   4.400  0.9516  1.1694  0.2096
 3788WAT     H211576   2.353   2.349   4.359  2.2027  1.8157 -0.9745
 3789WAT      O11577   1.193   0.648   0.581  0.5786 -0.0594 -0.3080
 3789WAT     H111578   1.168   0.574   0.637 -1.2553  0.0153 -0.9519
 3789WAT     H211579   1.110   0.680   0.546  1.3193  2.2510 -0.1307
 3790WAT      O11580   0.993   1.927   3.639  0.4681  0.0367  0.0318
 3790WAT     H111581   1.065   1.883   3.594  0.0325  0.7787 -1.4553
 3790WAT     H211582   0.922   1.863   3.639  1.0560 -0.6628  1.4193
 3791WAT      O11583   3.315   1.482   4.197 -0.1644  0.2058 -0.0251
 3791WAT     H111584   3.368   1.415   4.155 -1.7352 -0.7472 -0.5338
 3791WAT     H211585   3.324   1.465   4.291  0.5644  0.1758 -0.0964
 3792WAT      O11586   3.502   3.586   4.463 -0.3066  0.2989  0.3420
 3792WAT     H111587   3.464   3.655   4.518 -0.0498  0.0424  0.8477
 3792WAT     H211588   3.520   3.514   4.524  0.5053  0.2244  0.0242
 3793WAT      O11589   1.987   2.944   1.503  0.3458  0.4666 -0.4127
 3793WAT     H111590   1.893   2.945   1.486  0.5678  0.7968 -1.6991
 3793WAT     H211591   2.007   2.854   1.528  0.0536 -0.1577 -2.3338
 3794WAT      O11592   0.060   3.232   2.266  0.1284  0.0908 -0.4536
 3794WAT     H111593  -0.030   3.223   2.296  0.3228 -1.9723 -0.3039
 3794WAT     H211594   0.101   3.290   2.330 -0.9037  0.4467 -0.0947
 3795WAT      O11595   0.509   4.408   1.223 -0.1558 -0.3858  0.6095
 3795WAT     H111596   0.537   4.425   1.313 -0.9340 -0.2755  0.8325
 3795WAT     H211597   0.564   4.335   1.195  0.0893 -0.4235  1.1757
 3796WAT      O11598   0.231   3.792   0.390 -0.3607 -0.5435 -0.1540
 3796WAT     H111599   0.221   3.760   0.301 -1.1128 -0.2211 -0.1894
 3796WAT     H211600   0.152   3.843   0.407  0.4671  0.6569  0.1753
 3797WAT      O11601   3.540   4.457   3.734 -0.5810 -0.4024  0.2789
 3797WAT     H111602   3.457   4.410   3.744 -2.4383  2.8089  1.4585
 3797WAT     H211603   3.517   4.537   3.687  2.4283 -0.5897 -1.7570
 3798WAT      O11604   1.717   1.541   0.825 -0.2004  0.2294 -0.1530
 3798WAT     H111605   1.695   1.450   0.843 -1.4878  0.5926  0.1489
 3798WAT     H211606   1.745   1.577   0.909 -0.6287  0.3718 -0.0707
 3799WAT      O11607   2.807   2.480   0.830 -0.2485 -0.0374 -0.1123
 3799WAT     H111608   2.870   2.434   0.775  0.4313  0.4458  0.2331
 3799WAT     H211609   2.730   2.491   0.776 -0.0838 -0.7737 -0.4993
 3800WAT      O11610   0.625   2.026   3.046  0.3809  0.0857 -0.5303
 3800WAT     H111611   0.588   2.098   3.096  0.6480 -0.0608 -0.1134
 3800WAT     H211612   0.655   2.066   2.964 -0.2480  0.2899 -0.6681
 3801WAT      O11613   1.113   1.657   4.138  0.3622  0.0374  0.1614
 3801WAT     H111614   1.193   1.604   4.138  1.4527  1.6140 -0.0839
 3801WAT     H211615   1.139   1.739   4.097 -1.0159  1.1346  1.3960
 3802WAT      O11616   2.561   1.853   2.931  0.0357 -0.1446  0.9197
 3802WAT     H111617   2.562   1.760   2.954 -1.0975 -1.1547 -2.4578
 3802WAT     H211618   2.637   1.864   2.874 -2.2955 -0.3565 -2.5812
 3803WAT      O11619   4.166   4.687   4.165  0.4889  0.1250  0.0811
 3803WAT     H111620   4.099   4.619   4.157  0.1215  0.4828  0.0774
 3803WAT     H211621   4.225   4.656   4.234  1.0674 -0.8120 -0.8038
 3804WAT      O11622   0.600   2.530   0.157  0.3525 -0.1621 -0.4418
 3804WAT     H111623   0.637   2.454   0.201  1.1872 -0.4610 -1.6368
 3804WAT     H211624   0.510   2.536   0.191  0.3171 -1.5905 -0.2359
 3805WAT      O11625   0.803   0.186   3.073 -0.0566 -0.3271 -0.6686
 3805WAT     H111626   0.832   0.170   3.163 -0.7456 -1.2360 -0.5867
 3805WAT     H211627   0.852   0.263   3.045 -0.4892  0.5292  0.8000
 3806WAT      O11628   3.098   0.963   3.642  0.5447 -0.1171 -0.0226
 3806WAT     H111629   3.011   0.932   3.617  0.2058 -0.2349  1.2385
 3806WAT     H211630   3.157   0.924   3.577 -0.2441 -0.6916 -0.4108
 3807WAT      O11631   2.653   2.725   0.099  0.0573 -0.0411 -0.4380
 3807WAT     H111632   2.690   2.768   0.023  2.9344 -1.6155 -0.0596
 3807WAT     H211633   2.626   2.797   0.156  0.0246  1.1682 -1.9178
 3808WAT      O11634   1.475   2.819   3.953 -0.1279  0.2530 -0.7400
 3808WAT     H111635   1.449   2.822   3.861 -3.1369 -1.2622 -0.0662
 3808WAT     H211636   1.505   2.729   3.966  1.4136  0.7794 -0.4525
 3809WAT      O11637   4.346   0.337   4.510 -0.0293  0.2992  0.1918
 3809WAT     H111638   4.402   0.310   4.437 -0.7573 -0.3719 -0.1343
 3809WAT     H211639   4.350   0.432   4.510 -0.6018  0.3476 -1.1985
 3810WAT      O11640   2.809   4.873   0.762  0.1605  0.7184  0.3954
 3810WAT     H111641   2.867   4.892   0.835 -1.4410  3.1037  1.1724
 3810WAT     H211642   2.815   4.950   0.705 -0.2571 -0.1475 -0.8849
 3811WAT      O11643   2.410   3.635   4.327  0.1822 -0.0543  0.0673
 3811WAT     H111644   2.369   3.549   4.319  0.6660 -0.2596 -0.2770
 3811WAT     H211645   2.469   3.640   4.252  1.8549 -0.3362  1.3177
 3812WAT      O11646   2.945   4.065   3.256  0.3144  0.1915  0.0159
 3812WAT     H111647   2.994   4.073   3.338 -2.0385  2.9937  1.3633
 3812WAT     H211648   2.864   4.019   3.281  0.9114 -1.8765 -1.5432
 3813WAT      O11649   4.483   0.462   3.571 -0.2375 -0.1177  0.3073
 3813WAT     H111650   4.490   0.545   3.525  0.6029  0.2754  1.1150
 3813WAT     H211651   4.573   0.435   3.588 -0.4639  0.4598  2.9115
 3814WAT      O11652   3.377   2.637   1.130 -0.5865 -0.7200 -0.1769
 3814WAT     H111653   3.354   2.557   1.082 -2.0061 -1.1679  1.1733
 3814WAT     H211654   3.451   2.611   1.186 -1.3782 -1.2622  0.6448
 3815WAT      O11655   4.131   0.147   2.983 -0.1015 -0.0534 -0.0425
 3815WAT     H111656   4.164   0.232   2.953  0.9751 -0.2617  0.4813
 3815WAT     H211657   4.053   0.168   3.033 -0.1457  0.5847 -0.3672
 3816WAT      O11658   2.097   2.400   5.029 -0.0256  0.0520 -0.3113
 3816WAT     H111659   2.076   2.488   5.059  0.3066  0.5817 -1.5756
 3816WAT     H211660   2.181   2.409   4.985  0.7340 -1.1860  0.7944
 3817WAT      O11661   2.308   4.285   4.155 -0.3453  0.1877  0.4163
 3817WAT     H111662   2.260   4.334   4.088 -0.9871  0.4997  1.0854
 3817WAT     H211663   2.257   4.205   4.166 -0.8712  0.6229  1.2953
 3818WAT      O11664   2.840   1.482   4.032  0.3550  0.2761  0.1511
 3818WAT     H111665   2.769   1.437   4.077 -0.3057  0.4864 -0.6459
 3818WAT     H211666   2.796   1.533   3.963  1.4128 -1.3032 -1.8233
 3819WAT      O11667   0.879   0.706   1.063 -0.1775 -0.4474  0.8924
 3819WAT     H111668   0.908   0.735   1.150 -0.8936 -1.3237  1.4403
 3819WAT     H211669   0.847   0.786   1.021  0.1832 -0.0140  1.4219
 3820WAT      O11670   1.234   2.746   3.650  0.4102  0.8009  0.0953
 3820WAT     H111671   1.223   2.762   3.744 -1.9167 -0.0846  0.0495
 3820WAT     H211672   1.153   2.779   3.611  0.1903 -1.1463 -1.2621
 3821WAT      O11673   2.798   0.563   2.879 -0.0232  0.1406 -0.0508
 3821WAT     H111674   2.772   0.655   2.881 -1.4627 -0.2405 -0.1751
 3821WAT     H211675   2.757   0.524   2.957  2.7851  0.1160  1.5482
 3822WAT      O11676   0.123   2.187   0.598  0.3137  0.1164 -0.0973
 3822WAT     H111677   0.162   2.116   0.547 -0.4684 -0.0697 -0.4605
 3822WAT     H211678   0.031   2.188   0.570  0.0679  0.5626  0.6965
 3823WAT      O11679   0.692   0.559   3.464 -0.0270  0.1446  0.2044
 3823WAT     H111680   0.613   0.533   3.415  0.2307  0.4931 -0.4176
 3823WAT     H211681   0.719   0.641   3.423  0.5141  0.1631  0.5850
 3824WAT      O11682   1.919   0.223   3.820  0.5015  0.3823  0.3493
 3824WAT     H111683   1.962   0.198   3.902 -1.7531 -0.4667  1.3346
 3824WAT     H211684   1.831   0.248   3.845 -0.2185  0.2156 -1.8008
 3825WAT      O11685   3.992   1.254   5.046 -0.5144 -0.6149  0.6190
 3825WAT     H111686   3.965   1.212   5.128 -0.1393 -0.3605  0.8758
 3825WAT     H211687   4.083   1.278   5.061 -1.2837  2.2554  1.2839
 3826WAT      O11688   2.397   4.169   2.168  0.2119  0.0174 -0.1009
 3826WAT     H111689   2.421   4.261   2.159 -0.0971  0.1131  0.0114
 3826WAT     H211690   2.310   4.163   2.127  1.1913 -0.7110 -2.2014
 3827WAT      O11691   0.898   0.950   3.155  0.1278  0.1297 -0.6167
 3827WAT     H111692   0.953   0.872   3.146  0.8575  0.6817 -1.0835
 3827WAT     H211693   0.890   0.984   3.066 -0.4653  0.3959 -0.4629
 3828WAT      O11694   3.548   2.177   4.082 -0.1203 -0.5050 -0.6864
 3828WAT     H111695   3.492   2.165   4.159  2.0273  0.5790  1.1644
 3828WAT     H211696   3.487   2.205   4.013 -1.7648  2.7051  1.7478
 3829WAT      O11697   0.961   4.597   5.176 -0.1028 -0.0184 -0.5716
 3829WAT     H111698   0.890   4.638   5.126 -0.6674  0.5925  0.6611
 3829WAT     H211699   0.997   4.530   5.118 -0.0388  1.3351 -2.1580
 3830WAT      O11700   4.238   4.202   2.242  0.1267 -0.0634 -0.0976
 3830WAT     H111701   4.208   4.121   2.285  0.6689 -0.8607 -1.1632
 3830WAT     H211702   4.331   4.188   2.226 -0.0085  0.2658 -1.3378
 3831WAT      O11703   0.752   3.634   1.878 -0.5430 -0.0661  0.6960
 3831WAT     H111704   0.680   3.591   1.831 -0.9461 -1.7723  2.7344
 3831WAT     H211705   0.829   3.582   1.857 -0.0640  1.0781 -0.5525
 3832WAT      O11706   0.602   0.371   3.973  0.2091  0.6222 -0.4076
 3832WAT     H111707   0.684   0.393   3.928 -0.3106  1.4491 -0.9826
 3832WAT     H211708   0.555   0.454   3.978 -0.7963  0.0699 -0.4939
 3833WAT      O11709   0.434   2.950   2.602  0.0239  0.4866 -0.2138
 3833WAT     H111710   0.381   2.967   2.525  1.4307 -0.9682 -1.5697
 3833WAT     H211711   0.519   2.990   2.583  0.0484  1.1097  1.0882
 3834WAT      O11712   4.066   4.835   5.021  0.2797  0.6339  0.1125
 3834WAT     H111713   4.053   4.905   4.957  1.2569  0.7380  0.0115
 3834WAT     H211714   4.038   4.755   4.976 -0.5777  0.9221  0.1323
 3835WAT      O11715   2.284   2.490   3.398 -0.1720 -0.6755  0.4259
 3835WAT     H111716   2.277   2.435   3.476  0.9165 -0.6738  0.5353
 3835WAT     H211717   2.215   2.555   3.408 -0.4855 -1.0987  1.0433
 3836WAT      O11718   1.792   3.199   3.559  0.0632 -0.4058 -0.3089
 3836WAT     H111719   1.765   3.260   3.490 -0.7080  0.2331  0.5394
 3836WAT     H211720   1.710   3.165   3.595  0.4729 -1.3339 -0.2262
 3837WAT      O11721   2.852   0.698   1.660  0.3107 -0.1979  0.7676
 3837WAT     H111722   2.870   0.687   1.567 -1.9317 -0.2407  0.2627
 3837WAT     H211723   2.920   0.648   1.704  0.9950 -0.7766 -0.8776
 3838WAT      O11724   2.888   4.306   5.242  0.5599  0.3869  0.6574
 3838WAT     H111725   2.975   4.277   5.271  0.8051  0.0628 -0.3565
 3838WAT     H211726   2.855   4.233   5.190 -0.9540 -0.1146  2.2103
 3839WAT      O11727   3.738   2.834   3.610 -0.2450 -0.2792 -0.2296
 3839WAT     H111728   3.772   2.746   3.627  0.3268 -0.3679 -1.6797
 3839WAT     H211729   3.813   2.891   3.627 -0.4264 -0.1225  0.0561
 3840WAT      O11730   1.404   1.711   4.144  0.2897 -0.7017 -0.0263
 3840WAT     H111731   1.482   1.744   4.189  1.3569 -1.6549 -1.1143
 3840WAT     H211732   1.435   1.634   4.096 -0.5661  0.7829 -3.1620
 3841WAT      O11733   2.596   1.372   2.078  0.4647 -0.3409 -0.4276
 3841WAT     H111734   2.649   1.302   2.118  0.2634  0.7803  1.9510
 3841WAT     H211735   2.618   1.450   2.128  0.8582  1.4322 -3.1768
 3842WAT      O11736   2.533   2.727   0.948 -0.0670 -0.7973  0.1687
 3842WAT     H111737   2.508   2.643   0.911 -1.1712  0.3945 -2.0283
 3842WAT     H211738   2.615   2.750   0.905 -0.1681 -0.4282  0.1602
 3843WAT      O11739   2.886   2.143   3.653  1.0140  0.1181  0.5218
 3843WAT     H111740   2.889   2.085   3.576  1.4508  1.4494 -0.5008
 3843WAT     H211741   2.978   2.161   3.672  0.8996 -0.0646  1.2705
 3844WAT      O11742   3.576   0.768   3.683 -0.4480 -0.0659  0.0855
 3844WAT     H111743   3.509   0.795   3.746  0.4208  0.9725  0.6064
 3844WAT     H211744   3.616   0.690   3.721  0.8659  1.2204  1.4535
 3845WAT      O11745   0.196   1.281   2.593  0.4211  0.0224 -0.1516
 3845WAT     H111746   0.152   1.314   2.670  1.4053  2.9297 -0.7238
 3845WAT     H211747   0.126   1.244   2.539 -0.2510 -2.3378  2.1383
 3846WAT      O11748   3.327   1.331   3.907  0.5852 -0.0608 -0.0661
 3846WAT     H111749   3.354   1.380   3.829  0.5713  1.1919  0.6841
 3846WAT     H211750   3.239   1.364   3.926  0.4763 -0.5654  0.3219
 3847WAT      O11751   3.405   3.891   3.225 -0.2077 -0.2525 -0.1850
 3847WAT     H111752   3.498   3.871   3.223 -0.1764 -0.1970  0.5634
 3847WAT     H211753   3.380   3.881   3.317 -0.3836  2.2417  0.1211
 3848WAT      O11754   4.322   0.975   1.021  0.1362  0.5374  0.4454
 3848WAT     H111755   4.241   0.927   1.037 -0.1315 -0.2937 -2.8296
 3848WAT     H211756   4.360   0.934   0.943  2.1083  2.9095  0.0322
 3849WAT      O11757   0.239   0.602   2.965 -0.3303 -0.5370  0.2005
 3849WAT     H111758   0.219   0.684   2.919  0.2823 -0.4990 -0.0078
 3849WAT     H211759   0.182   0.603   3.042  0.7221  0.7989  1.0097
 3850WAT      O11760   2.024   0.015   1.248  0.0466  0.0526 -0.1560
 3850WAT     H111761   1.953  -0.046   1.228  0.4314  0.1885 -2.1469
 3850WAT     H211762   2.009   0.089   1.190 -0.3141  1.8422  2.1034
 3851WAT      O11763   0.097   3.492   0.466 -0.2375  0.0857  0.4911
 3851WAT     H111764   0.133   3.461   0.383 -1.0096  1.3728 -0.3631
 3851WAT     H211765   0.170   3.485   0.528  1.4597  2.2805 -1.0949
 3852WAT      O11766   2.227   3.453   2.078  0.3886 -0.3616  0.4196
 3852WAT     H111767   2.321   3.442   2.088  1.2423  4.0834 -0.5528
 3852WAT     H211768   2.216   3.486   1.989 -1.3315  3.7755  1.9446
 3853WAT      O11769   1.501   4.392   1.348  0.7855 -0.0736 -0.0565
 3853WAT     H111770   1.487   4.342   1.268  0.5657  1.5598 -1.0953
 3853WAT     H211771   1.428   4.369   1.405  0.3746 -0.4652 -0.7417
 3854WAT      O11772   4.415   3.036   3.954 -0.0286 -0.3402  0.4919
 3854WAT     H111773   4.325   3.045   3.985  0.0804  0.4261  0.6272
 3854WAT     H211774   4.453   2.968   4.010 -1.0505 -2.0642 -0.8393
 3855WAT      O11775   0.143   4.546   1.166 -0.7382  0.2173  0.3082
 3855WAT     H111776   0.097   4.612   1.219 -0.6971 -0.4273  1.1703
 3855WAT     H211777   0.103   4.463   1.192 -0.4124 -0.1594 -0.3692
 3856WAT      O11778   0.783   3.118   3.007  0.2905  0.1186  0.9793
 3856WAT     H111779   0.849   3.103   2.939 -0.0613  0.6919  0.5014
 3856WAT     H211780   0.700   3.099   2.964  0.0953  0.1161  1.3625
 3857WAT      O11781   0.018   0.620   4.791  0.1130  0.3499 -0.0475
 3857WAT     H111782   0.011   0.527   4.769  0.7957  0.3432 -0.2642
 3857WAT     H211783  -0.073   0.650   4.797 -0.1268 -0.4305  0.4670
 3858WAT      O11784   2.150   2.289   1.216 -0.1585 -0.0458 -0.1722
 3858WAT     H111785   2.227   2.232   1.218  0.5328  0.8520  2.0702
 3858WAT     H211786   2.186   2.376   1.199 -0.9488  0.0941 -1.2193
 3859WAT      O11787   4.288   4.448   0.814 -0.1976  0.2965  0.0123
 3859WAT     H111788   4.268   4.357   0.837 -0.7681  0.5416  0.5418
 3859WAT     H211789   4.300   4.491   0.899  3.6270  0.0056 -0.2147
 3860WAT      O11790   4.363   0.075   0.216  0.0243  0.2797 -0.4073
 3860WAT     H111791   4.404  -0.011   0.223 -0.4385  0.0431 -0.5419
 3860WAT     H211792   4.314   0.084   0.298  0.7299  0.7714 -0.0268
 3861WAT      O11793   2.702   3.975   3.313  0.7266  0.3063  0.3548
 3861WAT     H111794   2.666   3.948   3.398  1.5933 -1.0293  0.3304
 3861WAT     H211795   2.632   4.026   3.272 -0.2791 -0.3296  1.2405
 3862WAT      O11796   2.941   4.420   1.101  0.4943  0.5384 -0.2244
 3862WAT     H111797   2.906   4.332   1.112  1.7994  0.2076  1.9552
 3862WAT     H211798   3.020   4.408   1.047  1.3592  0.1216  1.0703
 3863WAT      O11799   0.068   2.138   0.885 -0.1025  0.7048 -0.0094
 3863WAT     H111800   0.034   2.216   0.928  1.6532  1.5603 -0.0861
 3863WAT     H211801   0.104   2.170   0.802  1.8838  0.1185  0.5549
 3864WAT      O11802   3.534   1.621   1.701 -0.2487 -0.0596 -0.0059
 3864WAT     H111803   3.505   1.709   1.676 -0.8664 -0.4211 -0.5895
 3864WAT     H211804   3.626   1.631   1.723 -0.1016  0.5754 -0.8831
 3865WAT      O11805   3.040   1.880   3.994  0.3545 -0.2492  0.2047
 3865WAT     H111806   2.975   1.833   4.046  0.2672  0.4651  0.7481
 3865WAT     H211807   3.113   1.818   3.986 -0.9028 -1.6390 -1.6283
 3866WAT      O11808   0.170   1.108   2.030  0.1267 -0.6449  0.3831
 3866WAT     H111809   0.127   1.027   2.056 -1.0483 -0.0016  0.5042
 3866WAT     H211810   0.178   1.159   2.111 -0.0773 -0.2159  0.1387
 3867WAT      O11811   1.509   2.910   0.795  0.0784  0.4287  0.1853
 3867WAT     H111812   1.456   2.960   0.734 -2.7659 -1.4429  0.9630
 3867WAT     H211813   1.473   2.931   0.881  1.7977  0.4436  0.9432
 3868WAT      O11814   3.063   1.365   3.910 -0.7636  0.1886  0.2671
 3868WAT     H111815   2.983   1.411   3.935 -1.0541  0.4355 -1.0152
 3868WAT     H211816   3.048   1.341   3.818 -0.2638 -1.6969  0.6411
 3869WAT      O11817   3.380   0.890   2.733  0.8090 -0.3306  0.0197
 3869WAT     H111818   3.365   0.981   2.758  0.3538  0.0504 -1.5342
 3869WAT     H211819   3.418   0.895   2.645  0.7936 -1.6380 -0.0839
 3870WAT      O11820   1.950   3.170   5.248  0.2264  0.0918  0.0688
 3870WAT     H111821   2.014   3.141   5.314  0.9098 -0.7630 -0.9303
 3870WAT     H211822   1.875   3.113   5.261  0.4614 -0.2498 -0.0411
 3871WAT      O11823   3.465   0.327   3.693  0.0108  0.2265 -0.2595
 3871WAT     H111824   3.500   0.414   3.713 -0.6107  0.5698 -0.6215
 3871WAT     H211825   3.409   0.342   3.617 -0.7732 -0.3431  0.2013
 3872WAT      O11826   0.681   2.825   2.676 -0.3536 -0.4787  0.0860
 3872WAT     H111827   0.610   2.850   2.735  0.6561  2.9754  0.0750
 3872WAT     H211828   0.638   2.816   2.591 -1.0018  0.2952  0.3144
 3873WAT      O11829   3.431   0.241   5.070 -0.3204 -0.1728  0.1436
 3873WAT     H111830   3.498   0.308   5.084  0.0421 -0.7257  1.1072
 3873WAT     H211831   3.348   0.288   5.081 -0.0619 -0.0762  1.8618
 3874WAT      O11832   0.232   1.022   1.429  0.1294 -0.5368  0.0007
 3874WAT     H111833   0.232   1.082   1.354  1.4588  0.8867  1.0587
 3874WAT     H211834   0.299   1.058   1.488 -1.8056 -0.7611  2.5186
 3875WAT      O11835   3.351   2.788   2.282  0.2669 -0.4347 -0.1742
 3875WAT     H111836   3.367   2.701   2.246  0.2928  0.0075 -1.2939
 3875WAT     H211837   3.302   2.833   2.213  1.5839  0.9307 -0.2686
 3876WAT      O11838   1.795   0.457   4.798  0.1283 -0.2249 -0.3738
 3876WAT     H111839   1.810   0.417   4.883 -1.1107  0.9242  0.4252
 3876WAT     H211840   1.743   0.392   4.749 -0.3367 -0.3389  0.2583
 3877WAT      O11841   2.596   4.460   0.296 -0.5304  0.7105 -0.0532
 3877WAT     H111842   2.633   4.522   0.360 -0.8973  0.8813 -0.0035
 3877WAT     H211843   2.650   4.472   0.218 -0.9967  1.5695 -0.2616
 3878WAT      O11844   2.177   2.898   5.197 -0.1424  0.1231  0.4550
 3878WAT     H111845   2.263   2.907   5.157 -1.5236 -0.3503 -2.9267
 3878WAT     H211846   2.181   2.955   5.274  2.1576  2.7262 -1.3981
 3879WAT      O11847   3.657   2.337   1.897 -0.0105 -0.2921  0.0296
 3879WAT     H111848   3.653   2.429   1.922 -1.3445  0.1208 -1.5109
 3879WAT     H211849   3.605   2.292   1.963 -0.0482  0.1815  0.3239
 3880WAT      O11850   1.152   4.863   2.726 -0.8438 -0.2652 -0.4127
 3880WAT     H111851   1.188   4.850   2.814 -1.2196  2.3297  0.1830
 3880WAT     H211852   1.098   4.785   2.712 -0.4667 -0.9321  1.4786
 3881WAT      O11853   0.342   0.932   4.293  0.0822 -0.4268 -0.3422
 3881WAT     H111854   0.315   1.024   4.296  0.5186 -0.3229  1.5364
 3881WAT     H211855   0.271   0.885   4.336 -0.1116 -0.9874 -1.2450
 3882WAT      O11856   2.564   4.335   1.935 -0.0439  0.5685 -0.8233
 3882WAT     H111857   2.640   4.373   1.979  0.3251 -2.0516  1.0161
 3882WAT     H211858   2.544   4.397   1.864  0.7031  3.8929  1.6254
 3883WAT      O11859   3.036   1.411   3.228 -0.0845 -0.0350  0.0664
 3883WAT     H111860   2.996   1.402   3.315  1.6965  0.4665  1.0054
 3883WAT     H211861   3.057   1.321   3.202 -0.2937 -0.1624  0.3333
 3884WAT      O11862   1.908   4.376   3.971 -0.4509  0.1350  0.2790
 3884WAT     H111863   1.929   4.447   3.910 -1.7561  1.3125  1.1445
 3884WAT     H211864   1.911   4.417   4.058  1.0313 -1.4207  1.0225
 3885WAT      O11865   0.723   4.377   5.123  0.2308 -0.0439  0.4963
 3885WAT     H111866   0.648   4.343   5.074 -0.1869  0.9070  0.4716
 3885WAT     H211867   0.797   4.366   5.063 -0.0885  0.1119  0.0660
 3886WAT      O11868   2.165   0.772   0.362 -0.3677 -0.2828 -0.6617
 3886WAT     H111869   2.071   0.760   0.352 -0.8757  0.3785  2.2587
 3886WAT     H211870   2.187   0.722   0.441  1.0347  2.2267  0.6789
 3887WAT      O11871   0.975   2.598   2.748 -0.1915  0.1689  0.0821
 3887WAT     H111872   0.917   2.553   2.686 -1.2293  0.6118  0.7066
 3887WAT     H211873   1.048   2.627   2.694 -1.5995  1.5556 -1.2128
 3888WAT      O11874   3.551   0.252   4.194 -0.5896 -0.1756  0.3331
 3888WAT     H111875   3.577   0.160   4.194  0.5222  0.1175  1.4100
 3888WAT     H211876   3.624   0.298   4.152 -0.3267  0.4127  1.4087
 3889WAT      O11877   3.213   5.133   3.487 -0.6807  0.5961  0.2286
 3889WAT     H111878   3.203   5.204   3.550  0.2796  0.6845  0.2994
 3889WAT     H211879   3.291   5.156   3.436 -0.9681  0.1190 -0.4565
 3890WAT      O11880   3.642   3.170   3.117 -0.2806 -0.6705 -0.0929
 3890WAT     H111881   3.706   3.105   3.086 -0.0567 -1.1511  1.3357
 3890WAT     H211882   3.611   3.136   3.200  0.2132  1.2858  0.9548
 3891WAT      O11883   1.582   3.789   2.005 -0.6634  0.1470 -0.5938
 3891WAT     H111884   1.653   3.848   2.031 -0.5064 -0.1960 -0.2333
 3891WAT     H211885   1.580   3.722   2.074 -0.7212 -0.3666 -1.0879
 3892WAT      O11886   1.211   3.215   1.085 -0.6428  0.7000  0.1899
 3892WAT     H111887   1.207   3.187   0.994 -0.4824 -1.3178  0.7582
 3892WAT     H211888   1.268   3.292   1.084  1.2253 -0.6192 -1.1139
 3893WAT      O11889   4.122   0.176   3.720 -0.3367  0.1590  1.0779
 3893WAT     H111890   4.205   0.133   3.700 -0.4557  0.5102 -0.2872
 3893WAT     H211891   4.147   0.264   3.748 -0.2413  0.6341 -0.3660
 3894WAT      O11892   4.482   3.484   2.875 -0.5393 -0.4645 -0.2394
 3894WAT     H111893   4.541   3.412   2.896 -0.3808 -0.5593 -0.9717
 3894WAT     H211894   4.399   3.442   2.855 -1.2825 -0.2408  2.1582
 3895WAT      O11895   2.139   2.734   4.325 -0.1494 -0.4864 -0.2775
 3895WAT     H111896   2.190   2.811   4.301  0.0507 -0.0476  1.4213
 3895WAT     H211897   2.180   2.661   4.278  0.7754  0.1706 -0.5063
 3896WAT      O11898   1.944   4.414   3.633  1.0923 -0.4081 -0.1854
 3896WAT     H111899   1.866   4.361   3.648 -0.1387  1.2069 -0.6566
 3896WAT     H211900   2.008   4.352   3.596  0.0473 -1.7485  0.1856
 3897WAT      O11901   1.863   2.456   1.054  0.9071  0.1005 -0.4992
 3897WAT     H111902   1.791   2.436   0.995 -0.1473 -1.0443  1.1134
 3897WAT     H211903   1.825   2.451   1.142  3.4428 -3.2827  0.6317
 3898WAT      O11904   1.585   3.656   2.882  0.2153  0.5817  0.1785
 3898WAT     H111905   1.583   3.579   2.939  2.2965  0.2565 -0.1270
 3898WAT     H211906   1.612   3.622   2.797 -1.0994  1.3485 -0.5852
 3899WAT      O11907   3.335   3.403   4.674 -0.2944 -0.1110 -0.1016
 3899WAT     H111908   3.317   3.309   4.668 -1.9117  0.2245 -0.8780
 3899WAT     H211909   3.429   3.407   4.691 -0.2203 -1.8737  0.1653
 3900WAT      O11910   2.034   2.666   5.096  0.5628  0.3369  0.0133
 3900WAT     H111911   1.942   2.673   5.120  0.7055  0.4721  0.5363
 3900WAT     H211912   2.074   2.746   5.129  0.8560  0.3112 -0.2706
 3901WAT      O11913   2.400   3.975   0.974 -0.5301 -0.1398  0.2598
 3901WAT     H111914   2.494   3.987   0.960 -0.2226 -1.2694  1.2574
 3901WAT     H211915   2.381   4.029   1.051 -0.3629 -1.1297  1.0170
 3902WAT      O11916   3.749   0.697   4.269 -0.1584 -0.2962 -0.7433
 3902WAT     H111917   3.719   0.755   4.339  0.3157 -0.2855 -0.5457
 3902WAT     H211918   3.736   0.747   4.189  0.8465  0.3314 -0.5216
 3903WAT      O11919   3.454   1.555   3.780  0.5237 -0.1499 -0.5382
 3903WAT     H111920   3.518   1.535   3.712 -0.1312 -1.1578 -0.8950
 3903WAT     H211921   3.497   1.528   3.862  0.9968  0.2899 -0.6376
 3904WAT      O11922   1.512   0.489   3.711 -0.3825  0.0938  0.5783
 3904WAT     H111923   1.491   0.415   3.655  1.6071  0.1625 -0.3373
 3904WAT     H211924   1.484   0.462   3.798  0.0135 -1.6076  0.2131
 3905WAT      O11925   4.010   2.165   2.844 -0.1337 -1.2254 -0.4272
 3905WAT     H111926   4.013   2.207   2.930 -0.2623 -1.3972 -0.3370
 3905WAT     H211927   4.092   2.190   2.802 -1.0171  0.7195 -1.1400
 3906WAT      O11928   1.004   0.684   3.183 -0.9185 -0.1645  0.2250
 3906WAT     H111929   0.972   0.678   3.093  2.4008  0.7596 -1.1754
 3906WAT     H211930   0.996   0.595   3.217 -1.6282 -0.6870 -1.2170
 3907WAT      O11931   3.608   1.876   3.767  0.2568  0.3525  0.2480
 3907WAT     H111932   3.546   1.820   3.721 -0.6031 -0.9151  2.7908
 3907WAT     H211933   3.694   1.845   3.739 -0.2344 -0.9133  0.1016
 3908WAT      O11934   4.364   0.466   0.106 -0.3542  0.1809  0.0045
 3908WAT     H111935   4.376   0.551   0.062  0.4865 -0.4739 -1.1009
 3908WAT     H211936   4.288   0.479   0.163  0.0592  1.8248  0.2465
 3909WAT      O11937   1.952   3.250   3.954  0.1593 -0.2446 -0.3070
 3909WAT     H111938   1.876   3.209   3.997 -0.0467 -0.5545 -0.9596
 3909WAT     H211939   1.945   3.223   3.863  0.8717  0.0074 -0.4383
 3910WAT      O11940   1.163   4.377   1.750 -0.3157 -0.4914  0.1868
 3910WAT     H111941   1.125   4.461   1.774 -1.0108 -0.9112  0.5839
 3910WAT     H211942   1.252   4.380   1.786 -0.7728 -0.4413  1.3354
 3911WAT      O11943   1.314   4.997   2.552 -0.2030  0.4974  0.3590
 3911WAT     H111944   1.304   4.926   2.488  1.4298 -0.1094  0.7333
 3911WAT     H211945   1.246   4.980   2.617 -0.3247 -0.2799  0.0390
 3912WAT      O11946   3.191   2.524   5.091 -0.4240  0.0358 -0.3192
 3912WAT     H111947   3.229   2.570   5.016 -1.6511 -0.9465 -1.5913
 3912WAT     H211948   3.126   2.464   5.053 -0.7327 -0.8605  1.4876
 3913WAT      O11949   3.361   1.901   2.281 -0.4475 -0.1938  0.2106
 3913WAT     H111950   3.305   1.907   2.203 -0.4232 -0.5199  0.1678
 3913WAT     H211951   3.450   1.902   2.245 -0.4220  0.3535  0.2803
 3914WAT      O11952   4.396   0.870   2.499  0.1076  0.0794  0.0982
 3914WAT     H111953   4.313   0.847   2.540  0.2856 -0.6310  0.0880
 3914WAT     H211954   4.459   0.807   2.536  0.1841 -0.9328 -1.6001
 3915WAT      O11955   1.488   3.417   1.859 -0.5033  0.1855  0.6235
 3915WAT     H111956   1.410   3.365   1.877 -0.8801  0.1846 -0.9237
 3915WAT     H211957   1.550   3.392   1.928 -1.9149  0.3491  2.0199
 3916WAT      O11958   2.535   1.687   0.825  0.0136  0.1121 -0.1857
 3916WAT     H111959   2.618   1.731   0.840 -0.0206  0.3087 -0.5567
 3916WAT     H211960   2.470   1.745   0.864  0.1040 -0.3606  0.6906
 3917WAT      O11961   0.990   4.118   2.460 -0.3237 -0.0726  0.3294
 3917WAT     H111962   0.971   4.170   2.382  0.4043 -0.7729 -0.3355
 3917WAT     H211963   0.955   4.170   2.533 -1.7522  0.2197 -0.5232
 3918WAT      O11964   0.482   2.555   2.382  0.0452  0.1505  0.4564
 3918WAT     H111965   0.452   2.614   2.451  1.6923  0.3142  1.0882
 3918WAT     H211966   0.566   2.593   2.354 -0.4923 -0.0104 -1.5258
 3919WAT      O11967   2.643   1.076   3.741  0.1155  0.1722  0.3601
 3919WAT     H111968   2.660   1.161   3.700  0.8240 -0.6197 -1.0591
 3919WAT     H211969   2.713   1.067   3.806 -0.8606  1.3167  1.6453
 3920WAT      O11970   2.172   2.948   1.084 -0.2446  0.1127  0.2723
 3920WAT     H111971   2.252   2.938   1.135  1.1261 -0.7542 -1.9113
 3920WAT     H211972   2.132   3.029   1.117  1.2876  0.3207  1.7144
 3921WAT      O11973   0.232   2.744   0.332  0.1679 -0.2358 -0.1098
 3921WAT     H111974   0.208   2.765   0.242  1.2756 -0.2837 -0.4270
 3921WAT     H211975   0.276   2.659   0.327 -0.7788 -0.7977  0.6436
 3922WAT      O11976   2.683   2.842   0.743  0.2444 -0.2797  0.1598
 3922WAT     H111977   2.730   2.774   0.693 -0.4374 -1.5760  1.2267
 3922WAT     H211978   2.653   2.903   0.676  2.1763 -0.1773 -0.6961
 3923WAT      O11979   3.199   1.619   4.645  0.2728 -0.3281 -0.6835
 3923WAT     H111980   3.158   1.641   4.562 -0.8307  0.8609  0.1361
 3923WAT     H211981   3.240   1.701   4.674 -0.2908 -0.4241  0.4387
 3924WAT      O11982   2.025   0.508   2.756 -0.0903 -0.3730  0.1825
 3924WAT     H111983   1.966   0.434   2.748 -0.1245 -0.2785 -0.4416
 3924WAT     H211984   2.008   0.562   2.679  0.3401 -0.0064  0.3349
 3925WAT      O11985   3.913   0.252   3.100 -0.5776  0.5120  0.1758
 3925WAT     H111986   3.826   0.275   3.133 -0.3318  2.9167 -0.6200
 3925WAT     H211987   3.967   0.329   3.119  1.0638 -0.4290 -0.4630
 3926WAT      O11988   2.910   4.202   0.847  0.0570 -0.4529 -0.7118
 3926WAT     H111989   2.983   4.264   0.851 -1.3031  1.1827  1.5047
 3926WAT     H211990   2.855   4.235   0.775  0.6318 -0.6811 -1.2651
 3927WAT      O11991   3.709   4.871   2.333 -0.0602  0.6533  0.1253
 3927WAT     H111992   3.697   4.777   2.348  1.5976  0.5335  0.8983
 3927WAT     H211993   3.733   4.905   2.419  2.2473  1.2709 -0.7043
 3928WAT      O11994   3.626   1.074   2.429  0.2646 -0.1002  0.0778
 3928WAT     H111995   3.666   1.097   2.513 -1.4961  0.0153  0.9344
 3928WAT     H211996   3.538   1.110   2.435  0.0874 -0.1528 -1.8173
 3929WAT      O11997   3.261   3.457   1.488 -0.2874  0.3628  0.4162
 3929WAT     H111998   3.325   3.499   1.431  0.1607 -0.5419  0.2234
 3929WAT     H211999   3.178   3.498   1.466  0.4095  2.6021  1.7037
 3930WAT      O12000   0.239   0.362   3.555  0.3877 -0.1281 -0.3883
 3930WAT     H112001   0.327   0.361   3.591  0.3278  0.4934 -0.2243
 3930WAT     H212002   0.249   0.329   3.465  0.4145 -2.5947  0.4285
 3931WAT      O12003   3.450   0.131   2.117 -0.1389  0.1422  0.0080
 3931WAT     H112004   3.451   0.055   2.176  0.3020  1.6934  2.1214
 3931WAT     H212005   3.357   0.149   2.102 -0.3129  0.5090  1.3650
 3932WAT      O12006   1.704   4.848   3.939  0.0301 -0.4872 -0.3210
 3932WAT     H112007   1.671   4.915   3.998 -2.0028 -1.0765 -0.7036
 3932WAT     H212008   1.748   4.897   3.869  0.5366  0.3131  0.5392
 3933WAT      O12009   2.357   3.025   2.817  0.7361  0.5653 -0.0539
 3933WAT     H112010   2.427   2.983   2.766 -0.7127  1.4941 -3.0653
 3933WAT     H212011   2.403   3.079   2.881  2.7465 -0.0959 -0.8473
 3934WAT      O12012   3.630   0.155   2.664 -0.0954 -0.5197 -0.3463
 3934WAT     H112013   3.554   0.186   2.714  0.2744  0.2122 -0.2241
 3934WAT     H212014   3.701   0.151   2.727  0.1292 -0.5634 -0.5988
 3935WAT      O12015   4.372   0.877   2.193  0.3268  0.6992  0.2509
 3935WAT     H112016   4.424   0.833   2.126  0.3871 -1.5336  1.6455
 3935WAT     H212017   4.430   0.880   2.270 -1.1300 -0.8462  1.5036
 3936WAT      O12018   1.602   3.077   3.686  0.1853  0.4129  0.0299
 3936WAT     H112019   1.652   3.000   3.714  1.3639  0.7432 -1.0469
 3936WAT     H212020   1.516   3.043   3.664  0.0836 -0.2775  1.3650
 3937WAT      O12021   2.159   3.891   3.150 -0.1401  0.0302  0.4940
 3937WAT     H112022   2.118   3.805   3.162  1.1557 -0.3986  2.4212
 3937WAT     H212023   2.116   3.947   3.215  0.5668  0.2378  0.7910
 3938WAT      O12024   0.526   3.916   4.485  0.1321  0.0038  0.0304
 3938WAT     H112025   0.471   3.935   4.409 -0.6884 -0.3467  0.5281
 3938WAT     H212026   0.611   3.956   4.464 -0.9436  2.6066  0.2223
 3939WAT      O12027   0.971   0.932   3.540  0.1087 -0.0144  0.1611
 3939WAT     H112028   1.026   0.970   3.607  0.1664 -1.0262  0.7073
 3939WAT     H212029   0.951   1.004   3.480  0.6855  0.7138  0.8441
 3940WAT      O12030   0.004   3.802   2.956  0.1006  0.1512 -0.3659
 3940WAT     H112031   0.094   3.813   2.986 -0.3449  0.5610  0.8634
 3940WAT     H212032   0.013   3.781   2.863  1.4962 -0.7568 -0.0592
 3941WAT      O12033   0.576   4.890   1.865 -0.6636 -0.5353  0.0353
 3941WAT     H112034   0.565   4.797   1.848  1.6871 -0.6555 -1.2939
 3941WAT     H212035   0.626   4.894   1.947 -3.0140 -0.2845  1.5459
 3942WAT      O12036   2.010   1.053   5.126 -0.2383 -0.5313 -0.3246
 3942WAT     H112037   2.068   1.128   5.112 -0.6009  0.0939  1.2525
 3942WAT     H212038   2.064   0.976   5.107  0.8628  0.0612  0.2797
 3943WAT      O12039   4.009   0.172   4.164 -0.8413  0.3417  0.6844
 3943WAT     H112040   3.967   0.244   4.211  0.8285  1.2812  0.8260
 3943WAT     H212041   4.102   0.193   4.166 -0.5368 -0.4486 -1.6036
 3944WAT      O12042   2.558   4.060   4.515 -1.1588  0.1648  0.0925
 3944WAT     H112043   2.489   4.126   4.521 -1.0459  0.2197  0.9086
 3944WAT     H212044   2.511   3.978   4.497 -1.2934  0.4610 -0.9735
 3945WAT      O12045   2.294   2.669   3.014 -0.6942 -0.0744  0.5705
 3945WAT     H112046   2.329   2.753   3.044 -1.6012  0.0392  1.3369
 3945WAT     H212047   2.236   2.691   2.941  1.1395 -0.3086 -1.0494
 3946WAT      O12048   0.536   4.481   0.038 -0.2333  0.3971  0.0421
 3946WAT     H112049   0.588   4.434  -0.028 -0.3484  0.4989 -0.1221
 3946WAT     H212050   0.601   4.512   0.101 -0.2070 -0.4059  0.4130
 3947WAT      O12051   2.940   0.998   2.896  0.0858  0.7693  0.0536
 3947WAT     H112052   2.864   0.965   2.849  0.9447  0.7275 -1.3503
 3947WAT     H212053   2.974   0.922   2.943  0.7634  0.1265 -1.4066
 3948WAT      O12054   2.190   4.371   0.279 -0.2208  0.4242  0.1435
 3948WAT     H112055   2.241   4.423   0.217 -0.5853 -0.5888 -1.0256
 3948WAT     H212056   2.137   4.436   0.326  1.4411  1.4002  0.7604
 3949WAT      O12057   4.279   1.141   1.988  0.1725  0.0945  0.2980
 3949WAT     H112058   4.265   1.065   1.932 -0.1940  1.1823 -1.1694
 3949WAT     H212059   4.335   1.199   1.936  1.4038  0.3582  1.8416
 3950WAT      O12060   2.080   5.031   2.115  0.1922  0.0080  0.3774
 3950WAT     H112061   2.145   5.090   2.077 -1.2707  1.0600 -0.5661
 3950WAT     H212062   2.087   5.046   2.209  0.8170  0.6215  0.2451
 3951WAT      O12063   3.614   2.367   1.505  0.0481  0.0939  0.4821
 3951WAT     H112064   3.676   2.343   1.573  0.0062 -2.3236 -0.2419
 3951WAT     H212065   3.668   2.381   1.427 -0.2180 -1.2877  0.0287
 3952WAT      O12066   3.559   3.751   0.599 -0.2248  0.0096 -0.4171
 3952WAT     H112067   3.576   3.821   0.536  0.7868 -0.0867 -0.2718
 3952WAT     H212068   3.615   3.679   0.570  0.3372 -0.0033  0.6485
 3953WAT      O12069   1.512   1.974   1.980 -0.1724  0.0675  0.1309
 3953WAT     H112070   1.496   1.880   1.972 -1.9204  0.1826  1.6343
 3953WAT     H212071   1.599   1.980   2.021  0.9031 -0.7971 -1.9004
 3954WAT      O12072   2.900   2.972   4.682  0.3740  0.2892 -0.0949
 3954WAT     H112073   2.869   2.963   4.592  0.4218 -2.1773  0.0617
 3954WAT     H212074   2.963   2.902   4.693  0.4776  0.6140  1.8365
 3955WAT      O12075   2.746   3.817   1.075  0.1335 -0.0435 -0.2851
 3955WAT     H112076   2.728   3.737   1.125 -3.1919  0.4439 -0.4264
 3955WAT     H212077   2.708   3.800   0.989 -0.1084  1.4557 -0.5014
 3956WAT      O12078   3.604   2.084   2.509  0.1286  0.1736  0.5757
 3956WAT     H112079   3.571   2.166   2.473  1.1183 -0.8963 -3.1924
 3956WAT     H212080   3.695   2.103   2.532  0.0250  0.4008  0.8077
 3957WAT      O12081   0.177   2.727   4.839  0.0111 -0.5627  0.1447
 3957WAT     H112082   0.213   2.639   4.851 -0.7761 -0.8425  0.5234
 3957WAT     H212083   0.251   2.779   4.808  0.8180 -1.0542  1.1849
 3958WAT      O12084   2.008   0.245   2.113  0.0345 -0.3836  0.4336
 3958WAT     H112085   2.054   0.173   2.071 -0.6318 -1.2120  1.0847
 3958WAT     H212086   1.942   0.202   2.168 -0.9408  0.7467  0.1784
 3959WAT      O12087   1.686   2.763   3.564 -0.2459 -0.1330 -0.4051
 3959WAT     H112088   1.629   2.789   3.492 -2.1198 -0.7978  0.7550
 3959WAT     H212089   1.687   2.667   3.560 -0.8886 -0.2168  0.7680
 3960WAT      O12090   2.722   3.495   1.503  0.1090 -0.4362 -0.2119
 3960WAT     H112091   2.773   3.449   1.570  0.5218 -0.5808 -0.6107
 3960WAT     H212092   2.661   3.550   1.552  0.4298 -0.5079  0.2783
 3961WAT      O12093   4.188   1.714   4.001 -0.3135  0.7274  0.1305
 3961WAT     H112094   4.281   1.732   4.013 -0.3065  0.8344 -0.0757
 3961WAT     H212095   4.186   1.629   3.955 -0.2553  1.5505 -1.4750
 3962WAT      O12096   1.756   1.265   0.156  0.0864  0.1581  0.9187
 3962WAT     H112097   1.791   1.354   0.145  0.8309 -0.1167  1.0292
 3962WAT     H212098   1.831   1.208   0.139 -0.6408 -0.4890 -0.1950
 3963WAT      O12099   2.896   3.425   3.890 -0.6667 -0.5289  0.3587
 3963WAT     H112100   2.951   3.348   3.878 -0.0340 -0.4892  2.5839
 3963WAT     H212101   2.809   3.389   3.909 -1.1485 -0.6053 -1.7776
 3964WAT      O12102   3.438   1.759   3.499  0.5437 -0.0934  0.6228
 3964WAT     H112103   3.496   1.713   3.438 -1.4160 -0.4655 -1.0697
 3964WAT     H212104   3.452   1.852   3.479  0.3231 -0.1923 -0.0112
 3965WAT      O12105   4.368   3.884   3.287  0.0146  0.7549 -0.4593
 3965WAT     H112106   4.425   3.816   3.250 -0.2124 -0.4866  1.3645
 3965WAT     H212107   4.282   3.867   3.249 -0.0507 -0.0360  0.0201
 3966WAT      O12108   4.459   2.547   2.209  0.4175  0.6079  0.1199
 3966WAT     H112109   4.488   2.568   2.120 -1.5101  1.0637 -0.4470
 3966WAT     H212110   4.379   2.598   2.220  0.9440  1.0443  2.3665
 3967WAT      O12111   3.827   1.519   0.766  0.0579 -0.3050 -0.0728
 3967WAT     H112112   3.734   1.499   0.752 -0.6438  1.1015  2.1532
 3967WAT     H212113   3.841   1.501   0.859  1.4468  1.5671  0.1291
 3968WAT      O12114   2.033   4.100   2.556  0.7902  0.6253  0.0003
 3968WAT     H112115   2.042   4.167   2.489 -1.3753  0.9670 -0.0401
 3968WAT     H212116   2.058   4.018   2.512  1.2075  1.0981 -0.6537
 3969WAT      O12117   2.463   0.341   4.961  0.4011  0.6065  0.4719
 3969WAT     H112118   2.490   0.277   5.027  1.0883  0.1604 -0.2302
 3969WAT     H212119   2.531   0.408   4.964  0.1479  0.8607  0.5848
 3970WAT      O12120   4.139   1.707   5.032 -0.6123 -0.0780 -0.1616
 3970WAT     H112121   4.161   1.775   4.968  0.3756  0.0401  0.2884
 3970WAT     H212122   4.137   1.626   4.981 -3.9031  0.4839 -1.1381
 3971WAT      O12123   3.690   3.576   3.525  0.1046  0.3836  0.5694
 3971WAT     H112124   3.649   3.607   3.605  0.1589  0.3596  0.6065
 3971WAT     H212125   3.617   3.561   3.465  0.0105 -0.3048  0.8558
 3972WAT      O12126   0.130   0.136   3.758 -0.5071  0.0425 -0.0721
 3972WAT     H112127   0.132   0.206   3.694 -0.3347  0.6568  0.5933
 3972WAT     H212128   0.222   0.107   3.765 -0.2761  0.9497  0.9311
 3973WAT      O12129   0.255   0.556   4.910 -0.3018  0.2549 -0.4152
 3973WAT     H112130   0.177   0.541   4.856 -0.5947  0.1025  0.0513
 3973WAT     H212131   0.279   0.469   4.941 -0.7841  0.4789  0.6082
 3974WAT      O12132   2.361   1.027   2.994  0.1524  0.0548  0.0675
 3974WAT     H112133   2.328   1.117   2.988 -0.5885 -0.2411 -0.3507
 3974WAT     H212134   2.301   0.975   2.940  0.2915 -0.7684  0.6831
 3975WAT      O12135   2.944   2.704   4.114  0.5115  0.2788 -0.4213
 3975WAT     H112136   2.853   2.730   4.096  0.8527  1.3313 -0.6624
 3975WAT     H212137   2.988   2.785   4.140  1.8597  0.1758 -2.1958
 3976WAT      O12138   2.784   1.195   2.200  0.6989  0.7904  0.2874
 3976WAT     H112139   2.850   1.225   2.262  2.2883  0.2572 -1.0768
 3976WAT     H212140   2.830   1.134   2.143 -1.7330 -2.1415  1.2003
 3977WAT      O12141   4.100   1.419   1.008 -0.3737 -0.6390 -0.2725
 3977WAT     H112142   4.160   1.347   1.026  0.2539 -0.0326  0.1231
 3977WAT     H212143   4.013   1.383   1.024 -0.0226 -1.0718  0.7557
 3978WAT      O12144   3.439   3.928   0.996  0.0528 -0.2365 -0.0136
 3978WAT     H112145   3.391   3.872   0.935 -0.4580 -0.0139  0.1815
 3978WAT     H212146   3.517   3.877   1.018  0.8601  0.1476 -1.7480
 3979WAT      O12147   0.187   4.510   4.464 -0.1238  0.0123 -0.2711
 3979WAT     H112148   0.092   4.509   4.466 -0.1157 -0.0737  0.0934
 3979WAT     H212149   0.214   4.429   4.507  0.1165  0.1289 -0.1963
 3980WAT      O12150   1.315   2.336   5.192 -0.0075 -0.4800  0.1494
 3980WAT     H112151   1.402   2.346   5.153 -0.8087  0.8031 -1.4396
 3980WAT     H212152   1.282   2.254   5.157 -0.1646 -0.0301 -0.7786
 3981WAT      O12153   1.651   0.585   0.437  0.4319 -0.4540 -0.0687
 3981WAT     H112154   1.582   0.580   0.372  2.3958  2.8792 -2.7640
 3981WAT     H212155   1.607   0.617   0.516 -1.3315  0.2784 -1.2871
 3982WAT      O12156   1.515   0.809   0.632 -0.1352  0.2829  0.2540
 3982WAT     H112157   1.580   0.860   0.583 -0.7124  0.8032  0.0252
 3982WAT     H212158   1.431   0.838   0.598 -0.4930 -0.4604  0.4837
 3983WAT      O12159   0.056   4.620   0.898 -0.1545  0.5009  0.1306
 3983WAT     H112160   0.045   4.541   0.845  1.4294  0.5840 -0.4010
 3983WAT     H212161   0.077   4.587   0.986  1.1936  0.2721 -0.2426
 3984WAT      O12162   1.328   0.511   2.060 -0.2505 -0.2378  0.1466
 3984WAT     H112163   1.331   0.574   1.989 -0.8836 -0.5461 -0.1653
 3984WAT     H212164   1.275   0.553   2.128 -2.5122 -1.2387 -0.9099
 3985WAT      O12165   2.695   2.974   3.842  0.0415 -0.4722 -0.0116
 3985WAT     H112166   2.772   3.019   3.807  0.7956 -0.8186  1.1385
 3985WAT     H212167   2.630   2.980   3.773  0.8967  0.3790 -0.7669
 3986WAT      O12168   3.866   4.313   3.989 -0.1239  0.2358  0.1672
 3986WAT     H112169   3.806   4.298   4.061  0.6192  0.2311  0.8042
 3986WAT     H212170   3.949   4.337   4.031  0.5876 -0.6604 -0.6499
 3987WAT      O12171   3.951   3.535   3.821 -0.6209  0.6140  0.0658
 3987WAT     H112172   4.023   3.494   3.774  0.0877  0.6011  1.1406
 3987WAT     H212173   3.963   3.508   3.912 -2.4125 -0.0012  0.1580
 3988WAT      O12174   4.056   1.689   0.267  0.1611 -0.6951 -0.2634
 3988WAT     H112175   3.979   1.648   0.228  1.0806 -2.5854 -0.2206
 3988WAT     H212176   4.130   1.645   0.224  1.3991  3.3368 -2.8483
 3989WAT      O12177   4.333   1.466   1.712 -0.0744  0.2090  0.1501
 3989WAT     H112178   4.354   1.556   1.687 -0.1691  0.1086 -0.3089
 3989WAT     H212179   4.407   1.415   1.678 -0.3999  0.0196 -0.2926
 3990WAT      O12180   1.939   5.012   4.129 -0.1351 -0.5085  0.9426
 3990WAT     H112181   1.876   5.079   4.154 -0.6387 -0.3929 -0.5545
 3990WAT     H212182   1.906   4.931   4.168 -0.6703 -0.2614  1.0045
 3991WAT      O12183   4.469   4.755   3.369  0.2458  0.2234  0.1461
 3991WAT     H112184   4.439   4.818   3.303 -0.7870  0.5994  0.9580
 3991WAT     H212185   4.389   4.708   3.395  0.3129  1.2443  2.3633
 3992WAT      O12186   4.276   2.119   4.242 -0.2049 -0.8060 -0.2547
 3992WAT     H112187   4.335   2.177   4.194 -0.3335 -0.2029  0.2998
 3992WAT     H212188   4.215   2.087   4.176 -0.9164  0.6889 -0.3721
 3993WAT      O12189   0.512   1.725   1.084  0.4633 -0.1703 -0.0667
 3993WAT     H112190   0.558   1.693   1.006 -1.7664 -1.5815 -0.9174
 3993WAT     H212191   0.468   1.805   1.055 -3.3081 -2.5147 -1.5612
 3994WAT      O12192   3.696   2.605   1.985  0.2714  0.0777 -0.0098
 3994WAT     H112193   3.752   2.671   1.944 -0.4235 -0.5139 -2.0694
 3994WAT     H212194   3.619   2.653   2.015  0.7676  0.5240  0.5482
 3995WAT      O12195   3.227   1.483   2.873  0.0820  0.1480 -0.0072
 3995WAT     H112196   3.228   1.493   2.778 -1.7056  1.7620  0.0799
 3995WAT     H212197   3.191   1.396   2.888 -1.2558  0.5495 -0.8088
 3996WAT      O12198   3.357   2.316   3.454 -0.2980  0.4210  0.5527
 3996WAT     H112199   3.442   2.347   3.486  1.0463 -1.6899 -0.6663
 3996WAT     H212200   3.352   2.347   3.364 -0.8013  0.5037  0.6087
 3997WAT      O12201   1.979   1.098   1.477 -0.5121  0.2853 -0.2996
 3997WAT     H112202   1.972   1.159   1.551 -2.6409  1.1964 -1.1616
 3997WAT     H212203   1.941   1.017   1.510  1.0414 -0.1900  0.4121
 3998WAT      O12204   0.406   1.655   1.611  0.0958  0.6229 -0.6527
 3998WAT     H112205   0.368   1.643   1.524  1.3416 -1.4090 -0.9916
 3998WAT     H212206   0.335   1.691   1.664 -0.5539  2.3968 -2.5934
 3999WAT      O12207   2.169   0.158   5.213 -0.0219  0.5903  0.4056
 3999WAT     H112208   2.226   0.197   5.279  1.1067 -0.7636  0.2800
 3999WAT     H212209   2.181   0.213   5.135  1.4354  0.1289  0.2677
 4000WAT      O12210   3.559   1.134   1.093  0.9848  0.0269 -0.4665
 4000WAT     H112211   3.578   1.092   1.009  0.6776 -3.8232  1.1962
 4000WAT     H212212   3.466   1.156   1.088  0.3550 -2.3315 -0.4201
 4001WAT      O12213   0.650   3.984   3.395  0.6876  0.9031  0.3581
 4001WAT     H112214   0.584   4.035   3.442  0.1896  0.2800  0.3461
 4001WAT     H212215   0.637   4.007   3.303 -0.7535 -0.5777  0.1451
 4002WAT      O12216   2.222   3.990   5.178  0.5872 -0.1667  0.0912
 4002WAT     H112217   2.242   4.047   5.252  1.1987 -1.4913  0.9858
 4002WAT     H212218   2.280   4.020   5.108  1.0384  0.1702  0.6081
 4003WAT      O12219   0.897   2.931   4.412 -0.4302 -0.0659  0.4057
 4003WAT     H112220   0.881   3.016   4.451  3.1054  1.0094 -0.0710
 4003WAT     H212221   0.983   2.905   4.446  0.3443 -1.6103 -2.3810
 4004WAT      O12222   1.042   2.559   2.428  0.3178  0.0833 -0.2851
 4004WAT     H112223   1.017   2.473   2.460 -1.5436  0.5592 -0.3173
 4004WAT     H212224   1.131   2.572   2.461  0.4832 -1.6668  0.0560
 4005WAT      O12225   0.663   4.425   4.439  0.2700 -0.0709  0.7525
 4005WAT     H112226   0.692   4.511   4.469  2.6851 -0.8302  0.7513
 4005WAT     H212227   0.622   4.442   4.354  0.2863  1.1180  0.9648
   4.51943   5.13906   5.29634
