Generic title t= 10000.00000 step= 5000000
12227
    1ILE      N    1   1.699   1.936   1.749
    1ILE     H1    2   1.750   1.942   1.662
    1ILE     H2    3   1.617   1.994   1.749
    1ILE     H3    4   1.661   1.844   1.767
    1ILE     CA    5   1.789   1.980   1.859
    1ILE     HA    6   1.729   1.987   1.950
    1ILE     CB    7   1.900   1.882   1.896
    1ILE     HB    8   1.953   1.933   1.977
    1ILE    CG2    9   1.828   1.761   1.956
    1ILE   HG21   10   1.778   1.690   1.890
    1ILE   HG22   11   1.898   1.693   2.004
    1ILE   HG23   12   1.767   1.792   2.041
    1ILE    CG1   13   1.986   1.844   1.776
    1ILE   HG12   14   2.007   1.931   1.715
    1ILE   HG13   15   1.944   1.761   1.718
    1ILE    CD1   16   2.122   1.810   1.837
    1ILE   HD11   17   2.199   1.793   1.761
    1ILE   HD12   18   2.151   1.894   1.900
    1ILE   HD13   19   2.120   1.719   1.895
    1ILE      C   20   1.835   2.122   1.835
    1ILE      O   21   1.855   2.156   1.715
    2LEU      N   22   1.859   2.196   1.944
    2LEU      H   23   1.851   2.147   2.031
    2LEU     CA   24   1.909   2.334   1.937
    2LEU     HA   25   1.855   2.384   1.856
    2LEU     CB   26   1.883   2.407   2.072
    2LEU    HB2   27   1.935   2.354   2.152
    2LEU    HB3   28   1.915   2.511   2.071
    2LEU     CG   29   1.740   2.403   2.123
    2LEU     HG   30   1.691   2.308   2.140
    2LEU    CD1   31   1.729   2.485   2.251
    2LEU   HD11   32   1.777   2.583   2.249
    2LEU   HD12   33   1.621   2.492   2.270
    2LEU   HD13   34   1.761   2.434   2.342
    2LEU    CD2   35   1.656   2.468   2.012
    2LEU   HD21   36   1.646   2.394   1.932
    2LEU   HD22   37   1.559   2.492   2.057
    2LEU   HD23   38   1.698   2.563   1.979
    2LEU      C   39   2.061   2.332   1.901
    2LEU      O   40   2.132   2.241   1.938
    3ARG      N   41   2.114   2.430   1.825
    3ARG      H   42   2.050   2.497   1.785
    3ARG     CA   43   2.257   2.443   1.793
    3ARG     HA   44   2.291   2.340   1.798
    3ARG     CB   45   2.263   2.487   1.647
    3ARG    HB2   46   2.224   2.588   1.640
    3ARG    HB3   47   2.367   2.484   1.614
    3ARG     CG   48   2.194   2.398   1.542
    3ARG    HG2   49   2.086   2.406   1.553
    3ARG    HG3   50   2.208   2.445   1.444
    3ARG     CD   51   2.237   2.250   1.536
    3ARG    HD2   52   2.340   2.240   1.500
    3ARG    HD3   53   2.246   2.196   1.630
    3ARG     NE   54   2.158   2.165   1.436
    3ARG     HE   55   2.106   2.215   1.366
    3ARG     CZ   56   2.160   2.033   1.431
    3ARG    NH1   57   2.217   1.961   1.522
    3ARG   HH11   58   2.289   2.005   1.576
    3ARG   HH12   59   2.205   1.861   1.508
    3ARG    NH2   60   2.103   1.978   1.328
    3ARG   HH21   61   2.048   2.033   1.263
    3ARG   HH22   62   2.077   1.882   1.344
    3ARG      C   63   2.345   2.510   1.900
    3ARG      O   64   2.467   2.521   1.879
    4TRP      N   65   2.287   2.537   2.018
    4TRP      H   66   2.196   2.496   2.032
    4TRP     CA   67   2.367   2.572   2.139
    4TRP     HA   68   2.473   2.566   2.112
    4TRP     CB   69   2.333   2.719   2.173
    4TRP    HB2   70   2.361   2.743   2.275
    4TRP    HB3   71   2.397   2.784   2.113
    4TRP     CG   72   2.176   2.756   2.164
    4TRP    CD1   73   2.089   2.712   2.261
    4TRP    HD1   74   2.107   2.635   2.335
    4TRP    NE1   75   1.968   2.771   2.239
    4TRP    HE1   76   1.887   2.775   2.300
    4TRP    CE2   77   1.965   2.849   2.122
    4TRP    CZ2   78   1.872   2.920   2.047
    4TRP    HZ2   79   1.769   2.924   2.077
    4TRP    CH2   80   1.903   2.990   1.930
    4TRP    HH2   81   1.831   3.051   1.877
    4TRP    CZ3   82   2.036   2.981   1.879
    4TRP    HZ3   83   2.070   3.021   1.784
    4TRP    CE3   84   2.128   2.905   1.952
    4TRP    HE3   85   2.233   2.904   1.927
    4TRP    CD2   86   2.099   2.841   2.075
    4TRP      C   87   2.348   2.465   2.255
    4TRP      O   88   2.250   2.393   2.251
    5PRO      N   89   2.443   2.455   2.354
    5PRO     CD   90   2.566   2.524   2.367
    5PRO    HD2   91   2.557   2.632   2.352
    5PRO    HD3   92   2.638   2.488   2.294
    5PRO     CG   93   2.620   2.494   2.507
    5PRO    HG2   94   2.573   2.563   2.577
    5PRO    HG3   95   2.729   2.494   2.514
    5PRO     CB   96   2.551   2.353   2.544
    5PRO    HB2   97   2.536   2.341   2.651
    5PRO    HB3   98   2.610   2.275   2.496
    5PRO     CA   99   2.414   2.361   2.466
    5PRO     HA  100   2.397   2.265   2.418
    5PRO      C  101   2.293   2.404   2.548
    5PRO      O  102   2.283   2.517   2.597
    6TRP      N  103   2.208   2.305   2.564
    6TRP      H  104   2.231   2.215   2.525
    6TRP     CA  105   2.074   2.316   2.631
    6TRP     HA  106   2.050   2.422   2.629
    6TRP     CB  107   1.957   2.261   2.549
    6TRP    HB2  108   1.946   2.318   2.456
    6TRP    HB3  109   1.974   2.156   2.528
    6TRP     CG  110   1.832   2.269   2.632
    6TRP    CD1  111   1.763   2.159   2.675
    6TRP    HD1  112   1.795   2.056   2.663
    6TRP    NE1  113   1.661   2.194   2.749
    6TRP    HE1  114   1.587   2.134   2.781
    6TRP    CE2  115   1.650   2.332   2.749
    6TRP    CZ2  116   1.555   2.420   2.814
    6TRP    HZ2  117   1.463   2.393   2.865
    6TRP    CH2  118   1.571   2.559   2.805
    6TRP    HH2  119   1.502   2.628   2.851
    6TRP    CZ3  120   1.676   2.609   2.731
    6TRP    HZ3  121   1.684   2.714   2.707
    6TRP    CE3  122   1.772   2.525   2.680
    6TRP    HE3  123   1.838   2.572   2.609
    6TRP    CD2  124   1.764   2.384   2.683
    6TRP      C  125   2.071   2.257   2.773
    6TRP      O  126   2.097   2.140   2.793
    7TRP      N  127   2.041   2.339   2.876
    7TRP      H  128   2.039   2.438   2.854
    7TRP     CA  129   1.999   2.282   3.002
    7TRP     HA  130   1.993   2.173   3.001
    7TRP     CB  131   2.114   2.309   3.099
    7TRP    HB2  132   2.212   2.280   3.061
    7TRP    HB3  133   2.119   2.416   3.120
    7TRP     CG  134   2.099   2.245   3.228
    7TRP    CD1  135   2.119   2.299   3.346
    7TRP    HD1  136   2.144   2.404   3.359
    7TRP    NE1  137   2.096   2.205   3.443
    7TRP    HE1  138   2.099   2.222   3.542
    7TRP    CE2  139   2.077   2.075   3.393
    7TRP    CZ2  140   2.063   1.948   3.456
    7TRP    HZ2  141   2.064   1.940   3.564
    7TRP    CH2  142   2.062   1.834   3.371
    7TRP    HH2  143   2.073   1.737   3.417
    7TRP    CZ3  144   2.089   1.853   3.232
    7TRP    HZ3  145   2.110   1.766   3.171
    7TRP    CE3  146   2.091   1.981   3.174
    7TRP    HE3  147   2.115   1.991   3.069
    7TRP    CD2  148   2.088   2.098   3.253
    7TRP      C  149   1.865   2.341   3.041
    7TRP      O  150   1.849   2.460   3.040
    8PRO      N  151   1.771   2.258   3.092
    8PRO     CD  152   1.756   2.112   3.073
    8PRO    HD2  153   1.800   2.064   3.160
    8PRO    HD3  154   1.803   2.085   2.978
    8PRO     CG  155   1.606   2.084   3.085
    8PRO    HG2  156   1.604   1.977   3.108
    8PRO    HG3  157   1.554   2.108   2.992
    8PRO     CB  158   1.562   2.184   3.191
    8PRO    HB2  159   1.589   2.150   3.290
    8PRO    HB3  160   1.456   2.200   3.175
    8PRO     CA  161   1.646   2.304   3.151
    8PRO     HA  162   1.595   2.364   3.075
    8PRO      C  163   1.658   2.397   3.277
    8PRO      O  164   1.558   2.440   3.335
    9TRP      N  165   1.777   2.447   3.310
    9TRP      H  166   1.857   2.418   3.256
    9TRP     CA  167   1.808   2.547   3.413
    9TRP     HA  168   1.726   2.612   3.443
    9TRP     CB  169   1.837   2.466   3.541
    9TRP    HB2  170   1.754   2.403   3.572
    9TRP    HB3  171   1.924   2.403   3.522
    9TRP     CG  172   1.870   2.543   3.665
    9TRP    CD1  173   1.988   2.543   3.733
    9TRP    HD1  174   2.071   2.477   3.712
    9TRP    NE1  175   1.975   2.617   3.851
    9TRP    HE1  176   2.038   2.612   3.930
    9TRP    CE2  177   1.853   2.686   3.852
    9TRP    CZ2  178   1.799   2.784   3.936
    9TRP    HZ2  179   1.851   2.818   4.024
    9TRP    CH2  180   1.678   2.838   3.902
    9TRP    HH2  181   1.637   2.912   3.970
    9TRP    CZ3  182   1.604   2.786   3.800
    9TRP    HZ3  183   1.515   2.840   3.773
    9TRP    CE3  184   1.652   2.687   3.716
    9TRP    HE3  185   1.590   2.656   3.634
    9TRP    CD2  186   1.783   2.636   3.739
    9TRP      C  187   1.919   2.641   3.368
    9TRP      O  188   1.998   2.601   3.291
   10ARG      N  189   1.931   2.753   3.438
   10ARG      H  190   1.890   2.747   3.530
   10ARG     CA  191   2.041   2.851   3.426
   10ARG     HA  192   2.054   2.875   3.321
   10ARG     CB  193   2.020   2.985   3.502
   10ARG    HB2  194   2.051   2.979   3.607
   10ARG    HB3  195   2.079   3.060   3.449
   10ARG     CG  196   1.875   3.030   3.510
   10ARG    HG2  197   1.824   3.034   3.414
   10ARG    HG3  198   1.823   2.959   3.572
   10ARG     CD  199   1.857   3.166   3.574
   10ARG    HD2  200   1.920   3.165   3.662
   10ARG    HD3  201   1.912   3.242   3.518
   10ARG     NE  202   1.708   3.191   3.593
   10ARG     HE  203   1.646   3.181   3.515
   10ARG     CZ  204   1.648   3.212   3.703
   10ARG    NH1  205   1.708   3.209   3.821
   10ARG   HH11  206   1.807   3.190   3.827
   10ARG   HH12  207   1.654   3.242   3.899
   10ARG    NH2  208   1.521   3.239   3.708
   10ARG   HH21  209   1.469   3.179   3.646
   10ARG   HH22  210   1.490   3.249   3.803
   10ARG      C  211   2.179   2.790   3.457
   10ARG      O  212   2.194   2.693   3.529
   11ARG      N  213   2.283   2.848   3.396
   11ARG      H  214   2.260   2.938   3.356
   11ARG     CA  215   2.426   2.811   3.402
   11ARG     HA  216   2.461   2.781   3.501
   11ARG     CB  217   2.467   2.697   3.302
   11ARG    HB2  218   2.419   2.702   3.204
   11ARG    HB3  219   2.573   2.686   3.279
   11ARG     CG  220   2.420   2.560   3.351
   11ARG    HG2  221   2.476   2.532   3.440
   11ARG    HG3  222   2.314   2.555   3.375
   11ARG     CD  223   2.444   2.458   3.241
   11ARG    HD2  224   2.395   2.366   3.272
   11ARG    HD3  225   2.390   2.484   3.150
   11ARG     NE  226   2.591   2.439   3.215
   11ARG     HE  227   2.621   2.511   3.150
   11ARG     CZ  228   2.677   2.385   3.301
   11ARG    NH1  229   2.631   2.309   3.397
   11ARG   HH11  230   2.531   2.296   3.397
   11ARG   HH12  231   2.698   2.261   3.455
   11ARG    NH2  232   2.802   2.400   3.290
   11ARG   HH21  233   2.845   2.449   3.213
   11ARG   HH22  234   2.855   2.376   3.373
   11ARG      C  235   2.506   2.931   3.357
   11ARG      O  236   2.459   3.023   3.294
   12LYS      N  237   2.633   2.929   3.400
   12LYS      H  238   2.665   2.839   3.433
   12LYS     CA  239   2.737   3.028   3.367
   12LYS     HA  240   2.708   3.080   3.276
   12LYS     CB  241   2.751   3.132   3.482
   12LYS    HB2  242   2.788   3.071   3.564
   12LYS    HB3  243   2.830   3.201   3.453
   12LYS     CG  244   2.626   3.212   3.525
   12LYS    HG2  245   2.581   3.251   3.434
   12LYS    HG3  246   2.545   3.147   3.557
   12LYS     CD  247   2.648   3.320   3.633
   12LYS    HD2  248   2.734   3.370   3.588
   12LYS    HD3  249   2.562   3.386   3.643
   12LYS     CE  250   2.705   3.267   3.764
   12LYS    HE2  251   2.638   3.201   3.818
   12LYS    HE3  252   2.792   3.204   3.749
   12LYS     NZ  253   2.756   3.385   3.837
   12LYS    HZ1  254   2.679   3.434   3.881
   12LYS    HZ2  255   2.810   3.352   3.916
   12LYS    HZ3  256   2.820   3.440   3.782
   12LYS      C  257   2.878   2.966   3.334
   12LYS      O  258   2.906   2.857   3.380
   13NHE      N  259   2.964   3.042   3.273
   13NHE    HN1  260   2.927   3.130   3.238
   13NHE    HN2  261   3.056   3.006   3.258
   14Cl-    Cl-  262   1.765   0.387   3.602
   15Cl-    Cl-  263   1.345   2.087   0.051
   16Cl-    Cl-  264   2.219   3.598   3.220
   17Cl-    Cl-  265   3.180   1.509   4.877
   18Cl-    Cl-  266   2.277   2.537   0.918
   19WAT      O  267   1.524   1.356   2.529
   19WAT     H1  268   1.499   1.265   2.549
   19WAT     H2  269   1.560   1.389   2.611
   20WAT      O  270   0.091   4.340   4.312
   20WAT     H1  271   0.157   4.369   4.376
   20WAT     H2  272   0.100   4.401   4.239
   21WAT      O  273   2.586   2.187   0.381
   21WAT     H1  274   2.558   2.102   0.347
   21WAT     H2  275   2.681   2.185   0.373
   22WAT      O  276   0.252   4.460   4.541
   22WAT     H1  277   0.184   4.420   4.596
   22WAT     H2  278   0.302   4.516   4.601
   23WAT      O  279   0.416   3.514   4.533
   23WAT     H1  280   0.467   3.436   4.554
   23WAT     H2  281   0.330   3.480   4.508
   24WAT      O  282   1.397   2.910   2.622
   24WAT     H1  283   1.414   3.004   2.624
   24WAT     H2  284   1.483   2.869   2.618
   25WAT      O  285   4.376   0.038   0.545
   25WAT     H1  286   4.389   0.045   0.639
   25WAT     H2  287   4.405  -0.050   0.523
   26WAT      O  288   4.346   4.551   1.300
   26WAT     H1  289   4.360   4.609   1.374
   26WAT     H2  290   4.299   4.604   1.236
   27WAT      O  291   3.740   3.091   3.802
   27WAT     H1  292   3.695   3.168   3.767
   27WAT     H2  293   3.815   3.078   3.745
   28WAT      O  294   3.407   3.074   1.513
   28WAT     H1  295   3.325   3.067   1.562
   28WAT     H2  296   3.379   3.082   1.422
   29WAT      O  297   4.444   1.158   0.165
   29WAT     H1  298   4.405   1.072   0.185
   29WAT     H2  299   4.487   1.144   0.081
   30WAT      O  300   3.037   4.050   0.697
   30WAT     H1  301   3.131   4.055   0.678
   30WAT     H2  302   3.019   3.956   0.698
   31WAT      O  303   4.430   4.267   1.534
   31WAT     H1  304   4.456   4.180   1.563
   31WAT     H2  305   4.357   4.252   1.475
   32WAT      O  306   2.055   4.514   3.451
   32WAT     H1  307   2.034   4.443   3.513
   32WAT     H2  308   2.151   4.514   3.449
   33WAT      O  309   1.485   3.405   2.399
   33WAT     H1  310   1.535   3.327   2.424
   33WAT     H2  311   1.448   3.437   2.481
   34WAT      O  312   3.552   0.001   1.925
   34WAT     H1  313   3.503   0.084   1.926
   34WAT     H2  314   3.569  -0.016   1.833
   35WAT      O  315   3.299   1.047   3.843
   35WAT     H1  316   3.355   0.980   3.806
   35WAT     H2  317   3.345   1.129   3.826
   36WAT      O  318   0.439   0.694   3.538
   36WAT     H1  319   0.403   0.631   3.600
   36WAT     H2  320   0.532   0.674   3.534
   37WAT      O  321   4.204   1.822   0.577
   37WAT     H1  322   4.294   1.829   0.544
   37WAT     H2  323   4.182   1.730   0.567
   38WAT      O  324   2.190   0.837   0.402
   38WAT     H1  325   2.285   0.834   0.393
   38WAT     H2  326   2.175   0.846   0.496
   39WAT      O  327   0.774   3.003   2.307
   39WAT     H1  328   0.826   2.930   2.275
   39WAT     H2  329   0.786   3.072   2.241
   40WAT      O  330   1.981   4.208   3.917
   40WAT     H1  331   1.936   4.292   3.908
   40WAT     H2  332   1.958   4.178   4.005
   41WAT      O  333   3.305   3.774   4.472
   41WAT     H1  334   3.389   3.729   4.466
   41WAT     H2  335   3.312   3.829   4.550
   42WAT      O  336   1.448   4.006   1.622
   42WAT     H1  337   1.375   4.053   1.662
   42WAT     H2  338   1.524   4.033   1.673
   43WAT      O  339   2.359   4.803   3.973
   43WAT     H1  340   2.422   4.866   3.939
   43WAT     H2  341   2.281   4.855   3.991
   44WAT      O  342   4.185   4.736   0.241
   44WAT     H1  343   4.172   4.763   0.332
   44WAT     H2  344   4.237   4.807   0.202
   45WAT      O  345   0.257   1.462   3.748
   45WAT     H1  346   0.335   1.469   3.692
   45WAT     H2  347   0.185   1.451   3.687
   46WAT      O  348   2.318   2.915   0.728
   46WAT     H1  349   2.234   2.898   0.771
   46WAT     H2  350   2.330   2.841   0.669
   47WAT      O  351   1.035   0.302   4.759
   47WAT     H1  352   0.984   0.381   4.778
   47WAT     H2  353   0.979   0.252   4.700
   48WAT      O  354   4.220   2.111   3.102
   48WAT     H1  355   4.231   2.174   3.174
   48WAT     H2  356   4.303   2.115   3.054
   49WAT      O  357   2.193   4.862   2.253
   49WAT     H1  358   2.174   4.818   2.336
   49WAT     H2  359   2.112   4.854   2.203
   50WAT      O  360   3.526   0.727   5.157
   50WAT     H1  361   3.541   0.820   5.139
   50WAT     H2  362   3.489   0.692   5.076
   51WAT      O  363   3.570   3.668   4.433
   51WAT     H1  364   3.633   3.678   4.505
   51WAT     H2  365   3.613   3.711   4.359
   52WAT      O  366   1.637   3.515   0.849
   52WAT     H1  367   1.701   3.559   0.906
   52WAT     H2  368   1.690   3.461   0.791
   53WAT      O  369   1.344   4.196   3.288
   53WAT     H1  370   1.292   4.131   3.241
   53WAT     H2  371   1.308   4.280   3.261
   54WAT      O  372   1.993   3.805   1.453
   54WAT     H1  373   1.963   3.896   1.447
   54WAT     H2  374   2.006   3.791   1.547
   55WAT      O  375   4.394   4.306   2.248
   55WAT     H1  376   4.435   4.388   2.219
   55WAT     H2  377   4.394   4.312   2.344
   56WAT      O  378   2.964   4.801   2.431
   56WAT     H1  379   2.873   4.776   2.416
   56WAT     H2  380   2.985   4.862   2.360
   57WAT      O  381   0.961   3.991   3.569
   57WAT     H1  382   0.986   4.008   3.660
   57WAT     H2  383   1.044   3.988   3.521
   58WAT      O  384   0.377   2.251   2.912
   58WAT     H1  385   0.450   2.263   2.851
   58WAT     H2  386   0.404   2.301   2.990
   59WAT      O  387   1.290   4.989   2.221
   59WAT     H1  388   1.279   4.946   2.136
   59WAT     H2  389   1.360   5.053   2.207
   60WAT      O  390   2.507   4.620   0.932
   60WAT     H1  391   2.523   4.560   1.005
   60WAT     H2  392   2.584   4.678   0.931
   61WAT      O  393   1.275   2.897   0.725
   61WAT     H1  394   1.214   2.946   0.780
   61WAT     H2  395   1.221   2.832   0.680
   62WAT      O  396   1.547   0.757   5.142
   62WAT     H1  397   1.566   0.702   5.219
   62WAT     H2  398   1.566   0.846   5.172
   63WAT      O  399   0.785   3.604   1.536
   63WAT     H1  400   0.872   3.593   1.572
   63WAT     H2  401   0.729   3.621   1.612
   64WAT      O  402   0.446   4.613   0.306
   64WAT     H1  403   0.509   4.668   0.353
   64WAT     H2  404   0.411   4.554   0.372
   65WAT      O  405   3.612   1.041   3.457
   65WAT     H1  406   3.603   1.113   3.518
   65WAT     H2  407   3.563   0.969   3.497
   66WAT      O  408   0.497   3.261   1.813
   66WAT     H1  409   0.474   3.183   1.761
   66WAT     H2  410   0.583   3.286   1.782
   67WAT      O  411   1.044   0.333   1.004
   67WAT     H1  412   1.135   0.354   0.983
   67WAT     H2  413   1.002   0.321   0.919
   68WAT      O  414   1.299   0.374   0.902
   68WAT     H1  415   1.264   0.356   0.815
   68WAT     H2  416   1.392   0.388   0.888
   69WAT      O  417   2.895   3.177   1.384
   69WAT     H1  418   2.802   3.156   1.395
   69WAT     H2  419   2.926   3.195   1.473
   70WAT      O  420   4.319   2.934   2.857
   70WAT     H1  421   4.325   2.909   2.765
   70WAT     H2  422   4.340   2.854   2.905
   71WAT      O  423   0.764   3.330   0.863
   71WAT     H1  424   0.789   3.239   0.844
   71WAT     H2  425   0.762   3.372   0.777
   72WAT      O  426   0.373   4.399   0.897
   72WAT     H1  427   0.325   4.324   0.860
   72WAT     H2  428   0.462   4.365   0.912
   73WAT      O  429   2.794   1.337   3.288
   73WAT     H1  430   2.835   1.255   3.315
   73WAT     H2  431   2.856   1.405   3.315
   74WAT      O  432   2.743   4.712   1.679
   74WAT     H1  433   2.685   4.684   1.608
   74WAT     H2  434   2.814   4.759   1.635
   75WAT      O  435   3.614   1.693   4.731
   75WAT     H1  436   3.689   1.643   4.763
   75WAT     H2  437   3.574   1.636   4.665
   76WAT      O  438   2.703   1.064   5.070
   76WAT     H1  439   2.710   1.026   5.157
   76WAT     H2  440   2.639   1.009   5.025
   77WAT      O  441   1.744   1.905   1.470
   77WAT     H1  442   1.684   1.955   1.415
   77WAT     H2  443   1.717   1.814   1.457
   78WAT      O  444   1.509   1.166   4.830
   78WAT     H1  445   1.525   1.091   4.774
   78WAT     H2  446   1.426   1.146   4.874
   79WAT      O  447   1.165   0.518   1.849
   79WAT     H1  448   1.242   0.464   1.832
   79WAT     H2  449   1.093   0.471   1.808
   80WAT      O  450   2.891   2.884   2.137
   80WAT     H1  451   2.936   2.814   2.088
   80WAT     H2  452   2.933   2.964   2.107
   81WAT      O  453   3.512   3.200   2.916
   81WAT     H1  454   3.561   3.282   2.923
   81WAT     H2  455   3.450   3.215   2.844
   82WAT      O  456   0.175   1.811   1.560
   82WAT     H1  457   0.193   1.894   1.604
   82WAT     H2  458   0.256   1.790   1.514
   83WAT      O  459   3.703   2.406   4.814
   83WAT     H1  460   3.671   2.494   4.834
   83WAT     H2  461   3.737   2.372   4.897
   84WAT      O  462   2.585   0.871   2.412
   84WAT     H1  463   2.563   0.872   2.505
   84WAT     H2  464   2.637   0.950   2.399
   85WAT      O  465   1.967   0.354   3.336
   85WAT     H1  466   2.053   0.348   3.377
   85WAT     H2  467   1.909   0.381   3.407
   86WAT      O  468   3.897   1.702   0.955
   86WAT     H1  469   3.929   1.658   0.876
   86WAT     H2  470   3.831   1.763   0.922
   87WAT      O  471   2.413   3.210   3.067
   87WAT     H1  472   2.436   3.176   3.153
   87WAT     H2  473   2.336   3.160   3.040
   88WAT      O  474   3.935   1.418   5.004
   88WAT     H1  475   4.022   1.451   5.025
   88WAT     H2  476   3.884   1.434   5.084
   89WAT      O  477   3.036   0.973   2.295
   89WAT     H1  478   3.122   0.937   2.275
   89WAT     H2  479   3.021   1.038   2.226
   90WAT      O  480   0.391   0.695   0.447
   90WAT     H1  481   0.409   0.695   0.353
   90WAT     H2  482   0.311   0.747   0.456
   91WAT      O  483   1.283   0.094   0.180
   91WAT     H1  484   1.223   0.084   0.106
   91WAT     H2  485   1.368   0.113   0.140
   92WAT      O  486   2.927   2.685   4.530
   92WAT     H1  487   2.935   2.711   4.438
   92WAT     H2  488   2.932   2.589   4.528
   93WAT      O  489   3.739   1.440   3.269
   93WAT     H1  490   3.721   1.457   3.176
   93WAT     H2  491   3.675   1.373   3.294
   94WAT      O  492   0.920   0.663   3.960
   94WAT     H1  493   1.005   0.650   3.917
   94WAT     H2  494   0.929   0.747   4.005
   95WAT      O  495   2.170   4.376   2.151
   95WAT     H1  496   2.207   4.291   2.127
   95WAT     H2  497   2.197   4.435   2.081
   96WAT      O  498   3.423   0.386   2.464
   96WAT     H1  499   3.507   0.424   2.439
   96WAT     H2  500   3.445   0.313   2.521
   97WAT      O  501   2.386   4.213   3.089
   97WAT     H1  502   2.424   4.127   3.069
   97WAT     H2  503   2.443   4.249   3.157
   98WAT      O  504   2.080   4.307   3.639
   98WAT     H1  505   2.083   4.214   3.660
   98WAT     H2  506   2.172   4.335   3.642
   99WAT      O  507   3.558   1.684   3.154
   99WAT     H1  508   3.611   1.657   3.079
   99WAT     H2  509   3.618   1.680   3.228
  100WAT      O  510   2.004   2.109   0.038
  100WAT     H1  511   1.933   2.093  -0.024
  100WAT     H2  512   1.969   2.082   0.122
  101WAT      O  513   2.080   4.342   5.207
  101WAT     H1  514   2.063   4.430   5.243
  101WAT     H2  515   2.149   4.306   5.263
  102WAT      O  516   2.056   4.472   3.131
  102WAT     H1  517   2.110   4.527   3.074
  102WAT     H2  518   2.001   4.534   3.179
  103WAT      O  519   1.862   1.168   1.459
  103WAT     H1  520   1.943   1.182   1.509
  103WAT     H2  521   1.877   1.085   1.413
  104WAT      O  522   2.662   4.620   3.035
  104WAT     H1  523   2.735   4.654   2.983
  104WAT     H2  524   2.675   4.658   3.122
  105WAT      O  525   3.067   1.240   2.883
  105WAT     H1  526   3.115   1.271   2.806
  105WAT     H2  527   3.086   1.147   2.888
  106WAT      O  528   2.806   4.523   4.723
  106WAT     H1  529   2.770   4.485   4.804
  106WAT     H2  530   2.763   4.608   4.716
  107WAT      O  531   2.633   2.030   5.271
  107WAT     H1  532   2.622   1.958   5.334
  107WAT     H2  533   2.544   2.052   5.244
  108WAT      O  534   1.735   2.996   0.124
  108WAT     H1  535   1.719   2.986   0.030
  108WAT     H2  536   1.796   3.070   0.130
  109WAT      O  537   1.688   1.082   0.570
  109WAT     H1  538   1.710   1.166   0.530
  109WAT     H2  539   1.600   1.094   0.606
  110WAT      O  540   1.945   3.816   3.612
  110WAT     H1  541   1.877   3.867   3.568
  110WAT     H2  542   1.897   3.753   3.666
  111WAT      O  543   3.116   0.852   1.985
  111WAT     H1  544   3.048   0.919   1.980
  111WAT     H2  545   3.198   0.902   1.985
  112WAT      O  546   0.671   2.251   4.156
  112WAT     H1  547   0.630   2.215   4.077
  112WAT     H2  548   0.601   2.301   4.199
  113WAT      O  549   3.731   3.895   2.729
  113WAT     H1  550   3.775   3.950   2.664
  113WAT     H2  551   3.756   3.934   2.813
  114WAT      O  552   2.150   4.676   1.647
  114WAT     H1  553   2.082   4.712   1.591
  114WAT     H2  554   2.231   4.715   1.615
  115WAT      O  555   3.982   0.068   4.581
  115WAT     H1  556   3.976   0.053   4.487
  115WAT     H2  557   3.905   0.024   4.618
  116WAT      O  558   1.656   0.791   2.744
  116WAT     H1  559   1.671   0.696   2.740
  116WAT     H2  560   1.588   0.807   2.679
  117WAT      O  561   2.362   2.134   2.003
  117WAT     H1  562   2.401   2.126   1.916
  117WAT     H2  563   2.275   2.173   1.987
  118WAT      O  564   2.354   1.146   0.436
  118WAT     H1  565   2.411   1.071   0.449
  118WAT     H2  566   2.372   1.176   0.347
  119WAT      O  567   2.082   0.382   1.688
  119WAT     H1  568   2.080   0.322   1.615
  119WAT     H2  569   2.170   0.372   1.725
  120WAT      O  570   0.118   3.100   3.806
  120WAT     H1  571   0.152   3.185   3.778
  120WAT     H2  572   0.078   3.117   3.891
  121WAT      O  573   0.368   1.250   1.015
  121WAT     H1  574   0.396   1.260   0.924
  121WAT     H2  575   0.386   1.158   1.035
  122WAT      O  576   3.329   1.036   3.189
  122WAT     H1  577   3.284   1.056   3.271
  122WAT     H2  578   3.266   0.984   3.138
  123WAT      O  579   1.156   4.540   2.418
  123WAT     H1  580   1.144   4.624   2.463
  123WAT     H2  581   1.250   4.533   2.404
  124WAT      O  582   0.034   1.745   4.808
  124WAT     H1  583  -0.033   1.677   4.815
  124WAT     H2  584  -0.014   1.827   4.819
  125WAT      O  585   2.530   0.707   3.713
  125WAT     H1  586   2.516   0.705   3.807
  125WAT     H2  587   2.551   0.799   3.694
  126WAT      O  588   0.200   3.988   4.621
  126WAT     H1  589   0.139   3.926   4.661
  126WAT     H2  590   0.163   4.006   4.534
  127WAT      O  591   1.808   4.940   4.040
  127WAT     H1  592   1.726   4.984   4.014
  127WAT     H2  593   1.855   4.929   3.957
  128WAT      O  594   1.702   3.090   0.432
  128WAT     H1  595   1.704   3.128   0.343
  128WAT     H2  596   1.781   3.037   0.437
  129WAT      O  597   2.589   2.333   4.408
  129WAT     H1  598   2.553   2.421   4.420
  129WAT     H2  599   2.512   2.276   4.404
  130WAT      O  600   4.257   1.868   1.908
  130WAT     H1  601   4.211   1.785   1.891
  130WAT     H2  602   4.187   1.933   1.913
  131WAT      O  603   0.225   2.098   4.630
  131WAT     H1  604   0.276   2.022   4.660
  131WAT     H2  605   0.289   2.169   4.625
  132WAT      O  606   3.074   0.343   0.114
  132WAT     H1  607   3.129   0.421   0.123
  132WAT     H2  608   3.046   0.323   0.203
  133WAT      O  609   0.460   2.774   3.051
  133WAT     H1  610   0.430   2.729   2.971
  133WAT     H2  611   0.382   2.777   3.107
  134WAT      O  612   0.137   2.847   5.095
  134WAT     H1  613   0.191   2.846   5.015
  134WAT     H2  614   0.121   2.940   5.112
  135WAT      O  615   1.826   3.629   1.039
  135WAT     H1  616   1.870   3.666   0.962
  135WAT     H2  617   1.805   3.705   1.093
  136WAT      O  618   4.428   1.560   2.250
  136WAT     H1  619   4.385   1.592   2.171
  136WAT     H2  620   4.522   1.567   2.230
  137WAT      O  621   3.481   2.221   4.927
  137WAT     H1  622   3.524   2.165   4.992
  137WAT     H2  623   3.533   2.210   4.848
  138WAT      O  624   2.162   3.688   4.927
  138WAT     H1  625   2.129   3.777   4.930
  138WAT     H2  626   2.208   3.676   5.011
  139WAT      O  627   0.036   1.716   4.235
  139WAT     H1  628   0.091   1.691   4.309
  139WAT     H2  629  -0.039   1.761   4.274
  140WAT      O  630   3.654   4.108   5.190
  140WAT     H1  631   3.582   4.121   5.129
  140WAT     H2  632   3.711   4.044   5.147
  141WAT      O  633   4.349   0.976   4.021
  141WAT     H1  634   4.383   0.987   4.110
  141WAT     H2  635   4.413   0.919   3.978
  142WAT      O  636   2.080   4.473   0.953
  142WAT     H1  637   2.002   4.529   0.955
  142WAT     H2  638   2.136   4.512   0.886
  143WAT      O  639   0.675   4.517   2.865
  143WAT     H1  640   0.749   4.473   2.822
  143WAT     H2  641   0.606   4.516   2.799
  144WAT      O  642   2.348   2.802   4.360
  144WAT     H1  643   2.312   2.829   4.444
  144WAT     H2  644   2.309   2.861   4.296
  145WAT      O  645   0.980   2.546   2.153
  145WAT     H1  646   1.053   2.487   2.173
  145WAT     H2  647   0.946   2.515   2.070
  146WAT      O  648   0.100   4.649   2.774
  146WAT     H1  649   0.025   4.676   2.827
  146WAT     H2  650   0.156   4.726   2.772
  147WAT      O  651   2.138   3.626   3.810
  147WAT     H1  652   2.114   3.715   3.836
  147WAT     H2  653   2.194   3.638   3.733
  148WAT      O  654   2.663   4.859   2.755
  148WAT     H1  655   2.630   4.949   2.753
  148WAT     H2  656   2.747   4.865   2.801
  149WAT      O  657   3.190   3.527   4.535
  149WAT     H1  658   3.218   3.614   4.562
  149WAT     H2  659   3.169   3.536   4.442
  150WAT      O  660   3.079   3.003   0.245
  150WAT     H1  661   3.091   2.962   0.330
  150WAT     H2  662   3.022   2.944   0.197
  151WAT      O  663   1.842   0.887   4.683
  151WAT     H1  664   1.800   0.963   4.643
  151WAT     H2  665   1.774   0.850   4.740
  152WAT      O  666   0.163   1.300   0.722
  152WAT     H1  667   0.087   1.287   0.665
  152WAT     H2  668   0.172   1.218   0.770
  153WAT      O  669   3.320   4.528   2.190
  153WAT     H1  670   3.346   4.436   2.187
  153WAT     H2  671   3.351   4.565   2.107
  154WAT      O  672   1.971   1.191   4.080
  154WAT     H1  673   2.044   1.187   4.142
  154WAT     H2  674   2.011   1.220   3.998
  155WAT      O  675   2.697   0.897   1.962
  155WAT     H1  676   2.725   0.848   1.885
  155WAT     H2  677   2.741   0.982   1.953
  156WAT      O  678   0.150   1.524   5.027
  156WAT     H1  679   0.082   1.586   5.002
  156WAT     H2  680   0.149   1.525   5.123
  157WAT      O  681   3.722   3.904   4.809
  157WAT     H1  682   3.643   3.895   4.863
  157WAT     H2  683   3.690   3.892   4.719
  158WAT      O  684   3.334   0.155   4.269
  158WAT     H1  685   3.292   0.230   4.227
  158WAT     H2  686   3.425   0.184   4.283
  159WAT      O  687   1.728   4.336   4.330
  159WAT     H1  688   1.677   4.355   4.409
  159WAT     H2  689   1.663   4.330   4.260
  160WAT      O  690   1.544   3.894   4.686
  160WAT     H1  691   1.500   3.810   4.699
  160WAT     H2  692   1.592   3.883   4.604
  161WAT      O  693   3.397   4.484   4.530
  161WAT     H1  694   3.407   4.414   4.465
  161WAT     H2  695   3.432   4.561   4.487
  162WAT      O  696   3.769   3.149   2.569
  162WAT     H1  697   3.705   3.175   2.502
  162WAT     H2  698   3.786   3.229   2.618
  163WAT      O  699   0.317   0.403   3.398
  163WAT     H1  700   0.372   0.481   3.388
  163WAT     H2  701   0.295   0.378   3.309
  164WAT      O  702   0.428   0.274   1.897
  164WAT     H1  703   0.343   0.241   1.927
  164WAT     H2  704   0.464   0.203   1.844
  165WAT      O  705   2.252   4.907   2.570
  165WAT     H1  706   2.165   4.894   2.531
  165WAT     H2  707   2.268   5.001   2.563
  166WAT      O  708   0.426   0.020   4.826
  166WAT     H1  709   0.450  -0.072   4.828
  166WAT     H2  710   0.506   0.065   4.800
  167WAT      O  711   0.365   1.235   1.674
  167WAT     H1  712   0.370   1.228   1.579
  167WAT     H2  713   0.454   1.217   1.704
  168WAT      O  714   4.497   0.605   2.029
  168WAT     H1  715   4.440   0.622   2.104
  168WAT     H2  716   4.573   0.661   2.043
  169WAT      O  717   1.405   4.901   4.979
  169WAT     H1  718   1.335   4.963   4.958
  169WAT     H2  719   1.438   4.929   5.064
  170WAT      O  720   1.913   3.729   4.435
  170WAT     H1  721   1.967   3.799   4.471
  170WAT     H2  722   1.823   3.757   4.450
  171WAT      O  723   0.189   0.132   1.953
  171WAT     H1  724   0.110   0.185   1.964
  171WAT     H2  725   0.167   0.048   1.993
  172WAT      O  726   1.499   4.198   0.269
  172WAT     H1  727   1.505   4.270   0.206
  172WAT     H2  728   1.407   4.194   0.293
  173WAT      O  729   4.505   1.550   0.648
  173WAT     H1  730   4.415   1.518   0.647
  173WAT     H2  731   4.540   1.522   0.733
  174WAT      O  732   4.052   2.299   1.742
  174WAT     H1  733   4.056   2.332   1.831
  174WAT     H2  734   4.138   2.319   1.705
  175WAT      O  735   3.507   1.227   4.463
  175WAT     H1  736   3.507   1.312   4.507
  175WAT     H2  737   3.504   1.163   4.535
  176WAT      O  738   3.158   0.267   0.582
  176WAT     H1  739   3.110   0.192   0.547
  176WAT     H2  740   3.091   0.333   0.600
  177WAT      O  741   3.684   2.854   4.721
  177WAT     H1  742   3.664   2.773   4.674
  177WAT     H2  743   3.769   2.881   4.685
  178WAT      O  744   1.329   1.068   0.872
  178WAT     H1  745   1.265   1.000   0.893
  178WAT     H2  746   1.282   1.128   0.814
  179WAT      O  747   1.039   1.709   1.647
  179WAT     H1  748   1.007   1.799   1.653
  179WAT     H2  749   0.971   1.662   1.598
  180WAT      O  750   3.118   2.708   4.853
  180WAT     H1  751   3.135   2.667   4.768
  180WAT     H2  752   3.174   2.786   4.853
  181WAT      O  753   0.033   1.091   3.766
  181WAT     H1  754   0.027   1.154   3.837
  181WAT     H2  755   0.106   1.123   3.713
  182WAT      O  756   1.582   4.354   0.516
  182WAT     H1  757   1.547   4.430   0.469
  182WAT     H2  758   1.610   4.294   0.447
  183WAT      O  759   3.724   1.002   2.352
  183WAT     H1  760   3.694   0.920   2.312
  183WAT     H2  761   3.815   0.984   2.375
  184WAT      O  762   1.457   2.087   1.330
  184WAT     H1  763   1.523   2.148   1.300
  184WAT     H2  764   1.477   2.005   1.284
  185WAT      O  765   1.458   4.715   0.139
  185WAT     H1  766   1.546   4.751   0.152
  185WAT     H2  767   1.400   4.790   0.145
  186WAT      O  768   3.046   3.724   0.084
  186WAT     H1  769   3.061   3.637   0.120
  186WAT     H2  770   3.134   3.756   0.061
  187WAT      O  771   2.635   0.593   2.878
  187WAT     H1  772   2.608   0.501   2.878
  187WAT     H2  773   2.724   0.592   2.843
  188WAT      O  774   2.654   3.241   0.319
  188WAT     H1  775   2.599   3.260   0.243
  188WAT     H2  776   2.697   3.324   0.338
  189WAT      O  777   1.953   2.659   0.488
  189WAT     H1  778   1.887   2.609   0.536
  189WAT     H2  779   2.036   2.614   0.506
  190WAT      O  780   1.245   0.963   3.069
  190WAT     H1  781   1.278   0.907   3.139
  190WAT     H2  782   1.315   0.963   3.004
  191WAT      O  783   2.296   4.861   3.480
  191WAT     H1  784   2.387   4.886   3.463
  191WAT     H2  785   2.245   4.937   3.452
  192WAT      O  786   4.032   0.427   1.614
  192WAT     H1  787   4.091   0.496   1.583
  192WAT     H2  788   4.082   0.346   1.603
  193WAT      O  789   0.497   2.683   1.072
  193WAT     H1  790   0.484   2.590   1.093
  193WAT     H2  791   0.418   2.708   1.024
  194WAT      O  792   1.142   4.889   1.573
  194WAT     H1  793   1.112   4.876   1.483
  194WAT     H2  794   1.086   4.959   1.607
  195WAT      O  795   2.601   1.649   3.116
  195WAT     H1  796   2.673   1.690   3.163
  195WAT     H2  797   2.639   1.570   3.078
  196WAT      O  798   3.759   1.416   2.335
  196WAT     H1  799   3.792   1.345   2.281
  196WAT     H2  800   3.734   1.484   2.272
  197WAT      O  801   2.901   4.151   5.189
  197WAT     H1  802   2.851   4.105   5.120
  197WAT     H2  803   2.986   4.168   5.149
  198WAT      O  804   1.873   4.667   3.295
  198WAT     H1  805   1.904   4.756   3.308
  198WAT     H2  806   1.926   4.614   3.354
  199WAT      O  807   2.194   4.023   4.244
  199WAT     H1  808   2.285   4.044   4.266
  199WAT     H2  809   2.143   4.062   4.315
  200WAT      O  810   3.125   3.087   4.210
  200WAT     H1  811   3.203   3.035   4.192
  200WAT     H2  812   3.053   3.024   4.208
  201WAT      O  813   3.071   0.408   3.992
  201WAT     H1  814   3.080   0.498   4.023
  201WAT     H2  815   3.011   0.367   4.055
  202WAT      O  816   2.162   1.307   1.292
  202WAT     H1  817   2.251   1.341   1.288
  202WAT     H2  818   2.159   1.255   1.372
  203WAT      O  819   0.628   0.177   4.046
  203WAT     H1  820   0.577   0.252   4.077
  203WAT     H2  821   0.719   0.209   4.045
  204WAT      O  822   1.537   1.975   5.087
  204WAT     H1  823   1.488   2.027   5.151
  204WAT     H2  824   1.493   1.991   5.004
  205WAT      O  825   2.760   4.317   2.707
  205WAT     H1  826   2.767   4.408   2.735
  205WAT     H2  827   2.816   4.269   2.767
  206WAT      O  828   0.476   0.997   1.074
  206WAT     H1  829   0.501   0.948   1.152
  206WAT     H2  830   0.500   0.940   1.001
  207WAT      O  831   2.402   4.670   2.479
  207WAT     H1  832   2.341   4.597   2.470
  207WAT     H2  833   2.348   4.744   2.505
  208WAT      O  834   1.109   1.550   2.925
  208WAT     H1  835   1.123   1.627   2.869
  208WAT     H2  836   1.170   1.561   2.997
  209WAT      O  837   1.200   0.768   0.147
  209WAT     H1  838   1.121   0.820   0.160
  209WAT     H2  839   1.230   0.747   0.235
  210WAT      O  840   2.760   0.795   3.940
  210WAT     H1  841   2.782   0.772   4.030
  210WAT     H2  842   2.724   0.884   3.946
  211WAT      O  843   1.943   2.738   1.472
  211WAT     H1  844   1.937   2.831   1.490
  211WAT     H2  845   1.947   2.697   1.559
  212WAT      O  846   4.332   4.006   4.023
  212WAT     H1  847   4.253   3.982   4.070
  212WAT     H2  848   4.374   4.071   4.080
  213WAT      O  849   3.471   0.297   3.265
  213WAT     H1  850   3.510   0.233   3.325
  213WAT     H2  851   3.446   0.246   3.188
  214WAT      O  852   2.767   2.537   4.027
  214WAT     H1  853   2.691   2.592   4.048
  214WAT     H2  854   2.778   2.481   4.104
  215WAT      O  855   1.318   1.296   4.242
  215WAT     H1  856   1.319   1.288   4.337
  215WAT     H2  857   1.256   1.367   4.225
  216WAT      O  858   1.448   1.627   0.246
  216WAT     H1  859   1.445   1.582   0.161
  216WAT     H2  860   1.457   1.556   0.310
  217WAT      O  861   3.582   3.637   2.711
  217WAT     H1  862   3.610   3.622   2.621
  217WAT     H2  863   3.630   3.714   2.739
  218WAT      O  864   2.961   0.094   0.474
  218WAT     H1  865   2.947   0.024   0.410
  218WAT     H2  866   2.919   0.063   0.554
  219WAT      O  867   1.457   1.137   1.245
  219WAT     H1  868   1.552   1.132   1.256
  219WAT     H2  869   1.422   1.116   1.332
  220WAT      O  870   2.352   3.149   0.964
  220WAT     H1  871   2.398   3.066   0.955
  220WAT     H2  872   2.415   3.215   0.936
  221WAT      O  873   4.172   1.193   0.949
  221WAT     H1  874   4.128   1.227   1.027
  221WAT     H2  875   4.104   1.192   0.882
  222WAT      O  876   3.644   1.671   3.446
  222WAT     H1  877   3.693   1.608   3.499
  222WAT     H2  878   3.675   1.757   3.477
  223WAT      O  879   1.515   4.748   2.602
  223WAT     H1  880   1.611   4.755   2.599
  223WAT     H2  881   1.484   4.822   2.552
  224WAT      O  882   1.790   2.454   5.104
  224WAT     H1  883   1.828   2.485   5.186
  224WAT     H2  884   1.732   2.382   5.130
  225WAT      O  885   1.124   4.359   1.526
  225WAT     H1  886   1.163   4.374   1.440
  225WAT     H2  887   1.033   4.386   1.517
  226WAT      O  888   1.323   5.042   3.798
  226WAT     H1  889   1.331   4.955   3.837
  226WAT     H2  890   1.407   5.056   3.754
  227WAT      O  891   3.304   4.656   0.785
  227WAT     H1  892   3.306   4.601   0.863
  227WAT     H2  893   3.211   4.680   0.775
  228WAT      O  894   3.146   2.912   3.560
  228WAT     H1  895   3.198   2.852   3.614
  228WAT     H2  896   3.175   2.895   3.470
  229WAT      O  897   0.269   1.813   4.952
  229WAT     H1  898   0.227   1.872   5.014
  229WAT     H2  899   0.197   1.769   4.907
  230WAT      O  900   0.283   0.085   1.363
  230WAT     H1  901   0.359   0.029   1.382
  230WAT     H2  902   0.308   0.172   1.395
  231WAT      O  903   1.813   3.634   4.184
  231WAT     H1  904   1.856   3.663   4.264
  231WAT     H2  905   1.806   3.713   4.130
  232WAT      O  906   4.181   0.224   1.519
  232WAT     H1  907   4.269   0.204   1.549
  232WAT     H2  908   4.151   0.144   1.477
  233WAT      O  909   2.193   2.496   4.575
  233WAT     H1  910   2.139   2.500   4.497
  233WAT     H2  911   2.167   2.571   4.627
  234WAT      O  912   2.628   3.309   2.924
  234WAT     H1  913   2.589   3.360   2.852
  234WAT     H2  914   2.555   3.292   2.983
  235WAT      O  915   3.579   3.422   1.105
  235WAT     H1  916   3.636   3.496   1.086
  235WAT     H2  917   3.514   3.456   1.165
  236WAT      O  918   2.588   1.363   5.107
  236WAT     H1  919   2.569   1.409   5.025
  236WAT     H2  920   2.616   1.276   5.080
  237WAT      O  921   4.355   1.222   4.479
  237WAT     H1  922   4.285   1.207   4.416
  237WAT     H2  923   4.420   1.274   4.432
  238WAT      O  924   0.400   1.849   3.953
  238WAT     H1  925   0.313   1.810   3.961
  238WAT     H2  926   0.404   1.914   4.023
  239WAT      O  927   0.232   2.051   0.582
  239WAT     H1  928   0.177   1.974   0.571
  239WAT     H2  929   0.239   2.064   0.676
  240WAT      O  930   1.331   3.822   4.902
  240WAT     H1  931   1.239   3.831   4.877
  240WAT     H2  932   1.361   3.745   4.854
  241WAT      O  933   3.213   1.965   0.536
  241WAT     H1  934   3.182   1.985   0.624
  241WAT     H2  935   3.153   2.012   0.478
  242WAT      O  936   2.374   0.499   2.536
  242WAT     H1  937   2.454   0.445   2.528
  242WAT     H2  938   2.369   0.547   2.454
  243WAT      O  939   2.485   2.320   0.917
  243WAT     H1  940   2.478   2.250   0.852
  243WAT     H2  941   2.410   2.376   0.900
  244WAT      O  942   2.762   2.544   0.975
  244WAT     H1  943   2.704   2.468   0.969
  244WAT     H2  944   2.718   2.612   0.925
  245WAT      O  945   2.444   3.125   4.099
  245WAT     H1  946   2.369   3.093   4.148
  245WAT     H2  947   2.434   3.220   4.097
  246WAT      O  948   3.511   4.633   5.073
  246WAT     H1  949   3.488   4.625   4.980
  246WAT     H2  950   3.431   4.665   5.115
  247WAT      O  951   2.205   1.058   2.751
  247WAT     H1  952   2.292   1.080   2.785
  247WAT     H2  953   2.164   1.008   2.822
  248WAT      O  954   3.811   3.598   1.414
  248WAT     H1  955   3.818   3.593   1.318
  248WAT     H2  956   3.890   3.554   1.446
  249WAT      O  957   2.773   0.815   0.790
  249WAT     H1  958   2.798   0.754   0.722
  249WAT     H2  959   2.786   0.902   0.751
  250WAT      O  960   3.017   4.666   1.414
  250WAT     H1  961   2.951   4.598   1.403
  250WAT     H2  962   3.100   4.620   1.403
  251WAT      O  963   1.149   2.876   2.027
  251WAT     H1  964   1.117   2.869   2.117
  251WAT     H2  965   1.090   2.937   1.985
  252WAT      O  966   2.608   2.058   2.788
  252WAT     H1  967   2.635   1.987   2.845
  252WAT     H2  968   2.512   2.061   2.797
  253WAT      O  969   3.879   2.492   2.996
  253WAT     H1  970   3.879   2.581   2.961
  253WAT     H2  971   3.947   2.492   3.063
  254WAT      O  972   0.077   4.048   0.175
  254WAT     H1  973   0.019   4.030   0.101
  254WAT     H2  974   0.140   3.976   0.175
  255WAT      O  975   3.801   3.181   4.046
  255WAT     H1  976   3.718   3.186   4.093
  255WAT     H2  977   3.779   3.143   3.961
  256WAT      O  978   1.843   3.359   0.735
  256WAT     H1  979   1.875   3.275   0.702
  256WAT     H2  980   1.921   3.415   0.736
  257WAT      O  981   1.710   1.131   0.912
  257WAT     H1  982   1.641   1.074   0.881
  257WAT     H2  983   1.726   1.103   1.002
  258WAT      O  984   3.945   4.669   0.790
  258WAT     H1  985   3.950   4.752   0.742
  258WAT     H2  986   4.017   4.617   0.755
  259WAT      O  987   0.493   3.026   4.466
  259WAT     H1  988   0.555   3.048   4.535
  259WAT     H2  989   0.485   3.106   4.414
  260WAT      O  990   1.238   4.198   0.272
  260WAT     H1  991   1.183   4.123   0.294
  260WAT     H2  992   1.205   4.268   0.329
  261WAT      O  993   3.394   3.614   1.207
  261WAT     H1  994   3.396   3.669   1.285
  261WAT     H2  995   3.301   3.599   1.191
  262WAT      O  996   2.530   4.974   3.364
  262WAT     H1  997   2.561   4.891   3.329
  262WAT     H2  998   2.516   5.029   3.286
  263WAT      O  999   3.146   1.288   3.347
  263WAT     H1 1000   3.091   1.216   3.316
  263WAT     H2 1001   3.189   1.252   3.424
  264WAT      O 1002   1.577   3.234   5.244
  264WAT     H1 1003   1.602   3.326   5.255
  264WAT     H2 1004   1.524   3.214   5.321
  265WAT      O 1005   2.110   0.672   3.936
  265WAT     H1 1006   2.161   0.591   3.936
  265WAT     H2 1007   2.034   0.653   3.880
  266WAT      O 1008   3.969   1.505   2.858
  266WAT     H1 1009   3.935   1.442   2.795
  266WAT     H2 1010   4.020   1.567   2.805
  267WAT      O 1011   1.334   1.113   3.555
  267WAT     H1 1012   1.368   1.128   3.643
  267WAT     H2 1013   1.270   1.043   3.566
  268WAT      O 1014   1.420   0.511   4.256
  268WAT     H1 1015   1.435   0.605   4.257
  268WAT     H2 1016   1.457   0.479   4.338
  269WAT      O 1017   4.248   1.734   1.362
  269WAT     H1 1018   4.191   1.691   1.298
  269WAT     H2 1019   4.326   1.757   1.311
  270WAT      O 1020   0.620   4.749   0.479
  270WAT     H1 1021   0.671   4.814   0.526
  270WAT     H2 1022   0.673   4.669   0.484
  271WAT      O 1023   0.644   1.756   1.853
  271WAT     H1 1024   0.653   1.774   1.759
  271WAT     H2 1025   0.583   1.682   1.857
  272WAT      O 1026   0.152   1.410   3.209
  272WAT     H1 1027   0.086   1.426   3.277
  272WAT     H2 1028   0.120   1.458   3.133
  273WAT      O 1029   3.282   1.400   0.003
  273WAT     H1 1030   3.307   1.492  -0.001
  273WAT     H2 1031   3.365   1.352   0.000
  274WAT      O 1032   0.849   4.178   1.889
  274WAT     H1 1033   0.884   4.165   1.977
  274WAT     H2 1034   0.879   4.266   1.865
  275WAT      O 1035   0.122   2.254   3.905
  275WAT     H1 1036   0.206   2.280   3.869
  275WAT     H2 1037   0.093   2.181   3.850
  276WAT      O 1038   0.611   4.701   4.350
  276WAT     H1 1039   0.534   4.730   4.302
  276WAT     H2 1040   0.587   4.711   4.442
  277WAT      O 1041   2.615   1.532   0.036
  277WAT     H1 1042   2.602   1.466  -0.032
  277WAT     H2 1043   2.687   1.586   0.004
  278WAT      O 1044   0.190   3.395   0.379
  278WAT     H1 1045   0.206   3.482   0.343
  278WAT     H2 1046   0.111   3.405   0.433
  279WAT      O 1047   3.546   2.725   2.476
  279WAT     H1 1048   3.514   2.799   2.529
  279WAT     H2 1049   3.600   2.675   2.537
  280WAT      O 1050   1.221   2.767   1.619
  280WAT     H1 1051   1.137   2.813   1.622
  280WAT     H2 1052   1.223   2.716   1.701
  281WAT      O 1053   0.663   0.632   1.255
  281WAT     H1 1054   0.728   0.702   1.257
  281WAT     H2 1055   0.712   0.553   1.280
  282WAT      O 1056   4.462   2.289   0.437
  282WAT     H1 1057   4.378   2.308   0.478
  282WAT     H2 1058   4.520   2.359   0.466
  283WAT      O 1059   0.089   4.478   1.581
  283WAT     H1 1060   0.016   4.417   1.573
  283WAT     H2 1061   0.101   4.489   1.676
  284WAT      O 1062   3.373   0.175   3.045
  284WAT     H1 1063   3.301   0.224   3.005
  284WAT     H2 1064   3.331   0.115   3.106
  285WAT      O 1065   4.114   4.917   4.722
  285WAT     H1 1066   4.116   4.955   4.810
  285WAT     H2 1067   4.030   4.870   4.718
  286WAT      O 1068   4.456   5.052   4.325
  286WAT     H1 1069   4.400   5.055   4.247
  286WAT     H2 1070   4.395   5.061   4.398
  287WAT      O 1071   0.528   3.230   4.949
  287WAT     H1 1072   0.561   3.317   4.973
  287WAT     H2 1073   0.595   3.169   4.980
  288WAT      O 1074   2.775   3.661   2.339
  288WAT     H1 1075   2.773   3.731   2.405
  288WAT     H2 1076   2.734   3.700   2.262
  289WAT      O 1077   1.787   5.128   4.469
  289WAT     H1 1078   1.825   5.125   4.557
  289WAT     H2 1079   1.836   5.062   4.421
  290WAT      O 1080   4.078   1.510   4.639
  290WAT     H1 1081   4.099   1.539   4.550
  290WAT     H2 1082   4.095   1.416   4.638
  291WAT      O 1083   0.347   2.181   5.063
  291WAT     H1 1084   0.419   2.119   5.062
  291WAT     H2 1085   0.337   2.206   5.155
  292WAT      O 1086   0.840   4.525   0.556
  292WAT     H1 1087   0.878   4.437   0.554
  292WAT     H2 1088   0.863   4.559   0.643
  293WAT      O 1089   0.684   2.060   0.627
  293WAT     H1 1090   0.746   1.990   0.607
  293WAT     H2 1091   0.674   2.056   0.722
  294WAT      O 1092   4.358   3.000   0.882
  294WAT     H1 1093   4.442   2.953   0.876
  294WAT     H2 1094   4.309   2.953   0.949
  295WAT      O 1095   0.961   0.806   5.064
  295WAT     H1 1096   0.879   0.766   5.091
  295WAT     H2 1097   0.952   0.817   4.969
  296WAT      O 1098   1.340   2.585   2.328
  296WAT     H1 1099   1.395   2.522   2.375
  296WAT     H2 1100   1.385   2.669   2.339
  297WAT      O 1101   3.282   2.338   1.059
  297WAT     H1 1102   3.189   2.353   1.041
  297WAT     H2 1103   3.313   2.419   1.098
  298WAT      O 1104   2.944   4.664   0.597
  298WAT     H1 1105   2.938   4.746   0.547
  298WAT     H2 1106   2.917   4.596   0.535
  299WAT      O 1107   3.423   2.069   0.422
  299WAT     H1 1108   3.376   2.109   0.349
  299WAT     H2 1109   3.357   2.017   0.468
  300WAT      O 1110   0.304   3.903   0.133
  300WAT     H1 1111   0.380   3.936   0.180
  300WAT     H2 1112   0.342   3.853   0.059
  301WAT      O 1113   2.582   4.080   1.827
  301WAT     H1 1114   2.642   4.120   1.764
  301WAT     H2 1115   2.495   4.090   1.787
  302WAT      O 1116   1.111   0.691   2.887
  302WAT     H1 1117   1.189   0.654   2.846
  302WAT     H2 1118   1.044   0.688   2.819
  303WAT      O 1119   0.982   4.402   1.818
  303WAT     H1 1120   0.966   4.368   1.729
  303WAT     H2 1121   0.992   4.496   1.806
  304WAT      O 1122   3.742   2.796   3.240
  304WAT     H1 1123   3.832   2.775   3.216
  304WAT     H2 1124   3.710   2.719   3.287
  305WAT      O 1125   1.407   3.089   3.183
  305WAT     H1 1126   1.436   3.111   3.094
  305WAT     H2 1127   1.348   3.014   3.171
  306WAT      O 1128   2.468   1.641   0.373
  306WAT     H1 1129   2.418   1.683   0.302
  306WAT     H2 1130   2.522   1.575   0.328
  307WAT      O 1131   1.940   2.085   0.302
  307WAT     H1 1132   1.944   2.178   0.323
  307WAT     H2 1133   1.847   2.063   0.303
  308WAT      O 1134   4.186   2.061   1.023
  308WAT     H1 1135   4.193   1.967   1.005
  308WAT     H2 1136   4.139   2.066   1.106
  309WAT      O 1137   1.165   1.672   1.893
  309WAT     H1 1138   1.189   1.583   1.920
  309WAT     H2 1139   1.113   1.660   1.814
  310WAT      O 1140   3.138   4.279   1.619
  310WAT     H1 1141   3.141   4.199   1.567
  310WAT     H2 1142   3.116   4.348   1.556
  311WAT      O 1143   3.444   0.082   1.444
  311WAT     H1 1144   3.489   0.090   1.360
  311WAT     H2 1145   3.433  -0.012   1.457
  312WAT      O 1146   4.147   4.473   1.859
  312WAT     H1 1147   4.093   4.550   1.877
  312WAT     H2 1148   4.235   4.508   1.844
  313WAT      O 1149   0.553   1.424   2.234
  313WAT     H1 1150   0.542   1.340   2.279
  313WAT     H2 1151   0.574   1.486   2.304
  314WAT      O 1152   3.312   4.065   2.062
  314WAT     H1 1153   3.365   3.988   2.043
  314WAT     H2 1154   3.248   4.035   2.127
  315WAT      O 1155   1.674   3.383   2.854
  315WAT     H1 1156   1.750   3.348   2.807
  315WAT     H2 1157   1.696   3.475   2.869
  316WAT      O 1158   0.175   0.103   1.674
  316WAT     H1 1159   0.187   0.105   1.769
  316WAT     H2 1160   0.099   0.158   1.657
  317WAT      O 1161   4.184   2.034   4.470
  317WAT     H1 1162   4.137   2.079   4.399
  317WAT     H2 1163   4.272   2.072   4.469
  318WAT      O 1164   2.618   1.303   3.684
  318WAT     H1 1165   2.590   1.385   3.643
  318WAT     H2 1166   2.691   1.272   3.630
  319WAT      O 1167   1.363   1.105   0.052
  319WAT     H1 1168   1.444   1.084   0.005
  319WAT     H2 1169   1.295   1.059   0.004
  320WAT      O 1170   0.256   4.532   0.111
  320WAT     H1 1171   0.307   4.454   0.090
  320WAT     H2 1172   0.302   4.572   0.185
  321WAT      O 1173   2.217   4.515   1.179
  321WAT     H1 1174   2.186   4.513   1.089
  321WAT     H2 1175   2.312   4.500   1.173
  322WAT      O 1176   1.697   4.794   0.836
  322WAT     H1 1177   1.623   4.734   0.844
  322WAT     H2 1178   1.662   4.879   0.862
  323WAT      O 1179   1.633   3.966   0.428
  323WAT     H1 1180   1.560   3.949   0.487
  323WAT     H2 1181   1.602   4.036   0.371
  324WAT      O 1182   2.263   1.500   3.210
  324WAT     H1 1183   2.168   1.503   3.218
  324WAT     H2 1184   2.281   1.419   3.162
  325WAT      O 1185   0.558   2.513   3.414
  325WAT     H1 1186   0.510   2.594   3.432
  325WAT     H2 1187   0.532   2.453   3.484
  326WAT      O 1188   0.620   3.958   2.952
  326WAT     H1 1189   0.669   3.993   2.877
  326WAT     H2 1190   0.539   4.009   2.953
  327WAT      O 1191   0.723   2.317   0.179
  327WAT     H1 1192   0.722   2.271   0.263
  327WAT     H2 1193   0.742   2.250   0.114
  328WAT      O 1194   0.283   2.792   0.121
  328WAT     H1 1195   0.299   2.880   0.087
  328WAT     H2 1196   0.200   2.799   0.169
  329WAT      O 1197   3.070   1.780   1.213
  329WAT     H1 1198   3.027   1.840   1.274
  329WAT     H2 1199   3.078   1.698   1.262
  330WAT      O 1200   0.573   1.694   1.600
  330WAT     H1 1201   0.484   1.721   1.577
  330WAT     H2 1202   0.629   1.761   1.561
  331WAT      O 1203   2.143   1.926   4.473
  331WAT     H1 1204   2.181   1.865   4.537
  331WAT     H2 1205   2.151   2.012   4.514
  332WAT      O 1206   2.852   3.784   4.251
  332WAT     H1 1207   2.868   3.878   4.258
  332WAT     H2 1208   2.929   3.744   4.290
  333WAT      O 1209   0.070   0.247   2.285
  333WAT     H1 1210   0.079   0.155   2.259
  333WAT     H2 1211   0.045   0.292   2.204
  334WAT      O 1212   2.148   1.589   4.627
  334WAT     H1 1213   2.077   1.570   4.689
  334WAT     H2 1214   2.109   1.571   4.541
  335WAT      O 1215   4.074   1.309   2.481
  335WAT     H1 1216   4.161   1.286   2.512
  335WAT     H2 1217   4.075   1.405   2.474
  336WAT      O 1218   2.363   3.916   2.230
  336WAT     H1 1219   2.347   3.905   2.324
  336WAT     H2 1220   2.457   3.902   2.220
  337WAT      O 1221   1.564   4.167   2.704
  337WAT     H1 1222   1.505   4.154   2.778
  337WAT     H2 1223   1.506   4.173   2.628
  338WAT      O 1224   1.666   0.529   2.576
  338WAT     H1 1225   1.748   0.549   2.531
  338WAT     H2 1226   1.603   0.515   2.505
  339WAT      O 1227   0.675   3.594   3.560
  339WAT     H1 1228   0.649   3.676   3.603
  339WAT     H2 1229   0.697   3.620   3.470
  340WAT      O 1230   0.162   1.854   0.224
  340WAT     H1 1231   0.240   1.811   0.258
  340WAT     H2 1232   0.175   1.947   0.245
  341WAT      O 1233   1.227   2.646   1.878
  341WAT     H1 1234   1.232   2.558   1.916
  341WAT     H2 1235   1.212   2.704   1.954
  342WAT      O 1236   1.154   4.827   4.745
  342WAT     H1 1237   1.145   4.918   4.716
  342WAT     H2 1238   1.074   4.811   4.795
  343WAT      O 1239   1.022   1.845   3.865
  343WAT     H1 1240   1.048   1.930   3.901
  343WAT     H2 1241   0.927   1.842   3.876
  344WAT      O 1242   0.075   1.729   3.614
  344WAT     H1 1243   0.127   1.773   3.681
  344WAT     H2 1244   0.140   1.693   3.553
  345WAT      O 1245   0.883   4.343   4.878
  345WAT     H1 1246   0.827   4.419   4.892
  345WAT     H2 1247   0.972   4.378   4.881
  346WAT      O 1248   3.239   2.130   2.289
  346WAT     H1 1249   3.172   2.170   2.234
  346WAT     H2 1250   3.191   2.075   2.350
  347WAT      O 1251   2.704   2.316   1.675
  347WAT     H1 1252   2.709   2.383   1.607
  347WAT     H2 1253   2.755   2.352   1.748
  348WAT      O 1254   0.563   3.702   4.375
  348WAT     H1 1255   0.523   3.781   4.412
  348WAT     H2 1256   0.527   3.631   4.427
  349WAT      O 1257   2.154   0.620   0.117
  349WAT     H1 1258   2.240   0.638   0.156
  349WAT     H2 1259   2.092   0.665   0.174
  350WAT      O 1260   3.948   1.966   4.619
  350WAT     H1 1261   4.030   1.954   4.572
  350WAT     H2 1262   3.946   2.060   4.640
  351WAT      O 1263   2.284   4.301   3.927
  351WAT     H1 1264   2.282   4.271   4.018
  351WAT     H2 1265   2.202   4.269   3.890
  352WAT      O 1266   1.789   1.545   0.632
  352WAT     H1 1267   1.829   1.591   0.706
  352WAT     H2 1268   1.767   1.614   0.570
  353WAT      O 1269   4.080   1.270   2.203
  353WAT     H1 1270   4.056   1.329   2.274
  353WAT     H2 1271   3.995   1.242   2.166
  354WAT      O 1272   0.738   0.142   0.791
  354WAT     H1 1273   0.664   0.082   0.805
  354WAT     H2 1274   0.809   0.086   0.759
  355WAT      O 1275   3.331   1.306   2.166
  355WAT     H1 1276   3.330   1.396   2.198
  355WAT     H2 1277   3.416   1.297   2.123
  356WAT      O 1278   1.947   1.314   2.136
  356WAT     H1 1279   1.907   1.382   2.189
  356WAT     H2 1280   1.995   1.259   2.199
  357WAT      O 1281   4.068   0.535   2.754
  357WAT     H1 1282   4.148   0.573   2.791
  357WAT     H2 1283   4.092   0.445   2.734
  358WAT      O 1284   3.689   3.558   0.749
  358WAT     H1 1285   3.649   3.644   0.762
  358WAT     H2 1286   3.722   3.560   0.659
  359WAT      O 1287   0.797   4.656   3.396
  359WAT     H1 1288   0.747   4.610   3.464
  359WAT     H2 1289   0.745   4.643   3.317
  360WAT      O 1290   2.048   4.208   0.873
  360WAT     H1 1291   2.054   4.296   0.909
  360WAT     H2 1292   2.112   4.207   0.802
  361WAT      O 1293   2.930   3.922   1.949
  361WAT     H1 1294   2.962   3.834   1.965
  361WAT     H2 1295   3.005   3.969   1.913
  362WAT      O 1296   1.429   1.231   3.809
  362WAT     H1 1297   1.428   1.269   3.897
  362WAT     H2 1298   1.521   1.210   3.794
  363WAT      O 1299   4.384   5.032   2.077
  363WAT     H1 1300   4.290   5.016   2.085
  363WAT     H2 1301   4.397   5.053   1.985
  364WAT      O 1302   1.954   2.293   0.608
  364WAT     H1 1303   2.008   2.333   0.676
  364WAT     H2 1304   1.886   2.358   0.590
  365WAT      O 1305   1.985   4.969   3.721
  365WAT     H1 1306   1.915   5.033   3.736
  365WAT     H2 1307   2.059   5.021   3.691
  366WAT      O 1308   2.506   5.119   0.427
  366WAT     H1 1309   2.563   5.180   0.380
  366WAT     H2 1310   2.528   5.132   0.520
  367WAT      O 1311   0.574   4.223   0.955
  367WAT     H1 1312   0.662   4.222   0.993
  367WAT     H2 1313   0.524   4.162   1.010
  368WAT      O 1314   4.488   1.971   1.254
  368WAT     H1 1315   4.580   1.993   1.269
  368WAT     H2 1316   4.439   2.033   1.309
  369WAT      O 1317   0.756   2.589   3.638
  369WAT     H1 1318   0.843   2.556   3.659
  369WAT     H2 1319   0.772   2.663   3.580
  370WAT      O 1320   2.745   5.087   0.964
  370WAT     H1 1321   2.747   5.182   0.956
  370WAT     H2 1322   2.832   5.063   0.997
  371WAT      O 1323   2.422   4.678   4.861
  371WAT     H1 1324   2.421   4.741   4.934
  371WAT     H2 1325   2.386   4.598   4.899
  372WAT      O 1326   0.972   3.062   2.777
  372WAT     H1 1327   1.045   3.007   2.806
  372WAT     H2 1328   0.915   3.003   2.728
  373WAT      O 1329   1.530   0.568   0.570
  373WAT     H1 1330   1.561   0.478   0.580
  373WAT     H2 1331   1.565   0.614   0.647
  374WAT      O 1332   0.839   2.018   5.011
  374WAT     H1 1333   0.863   2.086   4.947
  374WAT     H2 1334   0.890   2.040   5.089
  375WAT      O 1335   0.739   2.727   0.944
  375WAT     H1 1336   0.658   2.698   0.985
  375WAT     H2 1337   0.733   2.822   0.943
  376WAT      O 1338   3.475   1.813   3.694
  376WAT     H1 1339   3.526   1.894   3.705
  376WAT     H2 1340   3.537   1.751   3.657
  377WAT      O 1341   4.091   4.907   3.636
  377WAT     H1 1342   3.999   4.933   3.633
  377WAT     H2 1343   4.129   4.941   3.555
  378WAT      O 1344   1.034   4.766   0.859
  378WAT     H1 1345   0.990   4.850   0.846
  378WAT     H2 1346   0.963   4.705   0.880
  379WAT      O 1347   3.259   1.001   0.226
  379WAT     H1 1348   3.215   1.078   0.189
  379WAT     H2 1349   3.214   0.985   0.309
  380WAT      O 1350   4.131   0.235   2.652
  380WAT     H1 1351   4.142   0.150   2.694
  380WAT     H2 1352   4.204   0.241   2.591
  381WAT      O 1353   3.766   5.051   4.548
  381WAT     H1 1354   3.719   5.048   4.465
  381WAT     H2 1355   3.699   5.034   4.615
  382WAT      O 1356   0.958   4.291   0.542
  382WAT     H1 1357   1.039   4.321   0.500
  382WAT     H2 1358   0.976   4.200   0.566
  383WAT      O 1359   0.145   3.796   2.131
  383WAT     H1 1360   0.072   3.735   2.145
  383WAT     H2 1361   0.117   3.877   2.174
  384WAT      O 1362   1.916   4.727   0.660
  384WAT     H1 1363   1.840   4.729   0.719
  384WAT     H2 1364   1.933   4.820   0.641
  385WAT      O 1365   1.089   1.309   0.290
  385WAT     H1 1366   1.150   1.359   0.236
  385WAT     H2 1367   1.085   1.223   0.249
  386WAT      O 1368   3.594   1.715   2.851
  386WAT     H1 1369   3.628   1.632   2.885
  386WAT     H2 1370   3.668   1.774   2.855
  387WAT      O 1371   0.289   1.929   3.715
  387WAT     H1 1372   0.358   1.988   3.684
  387WAT     H2 1373   0.323   1.891   3.796
  388WAT      O 1374   2.028   1.434   0.400
  388WAT     H1 1375   2.071   1.452   0.316
  388WAT     H2 1376   1.949   1.488   0.399
  389WAT      O 1377   1.513   1.683   2.745
  389WAT     H1 1378   1.580   1.717   2.804
  389WAT     H2 1379   1.507   1.590   2.766
  390WAT      O 1380   2.182   0.639   1.119
  390WAT     H1 1381   2.268   0.676   1.139
  390WAT     H2 1382   2.130   0.713   1.087
  391WAT      O 1383   2.273   0.008   2.773
  391WAT     H1 1384   2.185   0.021   2.736
  391WAT     H2 1385   2.259  -0.001   2.867
  392WAT      O 1386   4.404   5.088   1.512
  392WAT     H1 1387   4.452   5.165   1.481
  392WAT     H2 1388   4.432   5.018   1.453
  393WAT      O 1389   0.786   0.009   3.466
  393WAT     H1 1390   0.856  -0.055   3.450
  393WAT     H2 1391   0.800   0.077   3.400
  394WAT      O 1392   4.166   4.499   4.226
  394WAT     H1 1393   4.132   4.584   4.252
  394WAT     H2 1394   4.162   4.500   4.130
  395WAT      O 1395   0.180   0.833   3.642
  395WAT     H1 1396   0.178   0.923   3.610
  395WAT     H2 1397   0.124   0.785   3.581
  396WAT      O 1398   1.753   0.239   5.071
  396WAT     H1 1399   1.687   0.292   5.028
  396WAT     H2 1400   1.750   0.267   5.163
  397WAT      O 1401   2.591   2.232   2.148
  397WAT     H1 1402   2.641   2.152   2.168
  397WAT     H2 1403   2.512   2.200   2.104
  398WAT      O 1404   2.512   2.162   1.774
  398WAT     H1 1405   2.582   2.212   1.732
  398WAT     H2 1406   2.532   2.071   1.755
  399WAT      O 1407   3.647   3.342   4.649
  399WAT     H1 1408   3.573   3.398   4.669
  399WAT     H2 1409   3.694   3.332   4.732
  400WAT      O 1410   3.237   2.931   1.824
  400WAT     H1 1411   3.198   2.920   1.737
  400WAT     H2 1412   3.267   2.844   1.848
  401WAT      O 1413   1.037   0.965   3.640
  401WAT     H1 1414   1.085   0.892   3.679
  401WAT     H2 1415   1.059   1.040   3.694
  402WAT      O 1416   3.578   0.244   2.692
  402WAT     H1 1417   3.611   0.248   2.782
  402WAT     H2 1418   3.649   0.205   2.642
  403WAT      O 1419   3.741   4.954   1.175
  403WAT     H1 1420   3.657   4.980   1.137
  403WAT     H2 1421   3.807   4.999   1.122
  404WAT      O 1422   2.254   0.579   5.029
  404WAT     H1 1423   2.169   0.621   5.046
  404WAT     H2 1424   2.249   0.551   4.938
  405WAT      O 1425   2.202   2.699   4.987
  405WAT     H1 1426   2.267   2.693   4.918
  405WAT     H2 1427   2.196   2.793   5.006
  406WAT      O 1428   0.550   1.199   4.254
  406WAT     H1 1429   0.590   1.163   4.175
  406WAT     H2 1430   0.619   1.249   4.296
  407WAT      O 1431   3.074   2.403   2.998
  407WAT     H1 1432   3.005   2.400   2.932
  407WAT     H2 1433   3.147   2.447   2.954
  408WAT      O 1434   1.436   3.465   3.015
  408WAT     H1 1435   1.523   3.504   3.014
  408WAT     H2 1436   1.443   3.389   2.958
  409WAT      O 1437   0.287   4.810   3.211
  409WAT     H1 1438   0.205   4.762   3.220
  409WAT     H2 1439   0.354   4.752   3.247
  410WAT      O 1440   3.192   3.747   2.381
  410WAT     H1 1441   3.148   3.824   2.345
  410WAT     H2 1442   3.277   3.780   2.411
  411WAT      O 1443   0.604   1.719   0.796
  411WAT     H1 1444   0.572   1.796   0.749
  411WAT     H2 1445   0.532   1.694   0.853
  412WAT      O 1446   3.215   0.314   4.642
  412WAT     H1 1447   3.310   0.316   4.651
  412WAT     H2 1448   3.189   0.237   4.693
  413WAT      O 1449   1.236   3.988   2.140
  413WAT     H1 1450   1.298   4.043   2.091
  413WAT     H2 1451   1.292   3.933   2.195
  414WAT      O 1452   0.174   2.914   3.515
  414WAT     H1 1453   0.254   2.963   3.494
  414WAT     H2 1454   0.194   2.870   3.598
  415WAT      O 1455   2.468   4.136   3.649
  415WAT     H1 1456   2.396   4.078   3.675
  415WAT     H2 1457   2.450   4.156   3.557
  416WAT      O 1458   2.709   4.178   2.461
  416WAT     H1 1459   2.762   4.111   2.504
  416WAT     H2 1460   2.724   4.257   2.513
  417WAT      O 1461   1.902   4.936   2.700
  417WAT     H1 1462   1.809   4.952   2.714
  417WAT     H2 1463   1.945   5.016   2.730
  418WAT      O 1464   0.737   1.392   4.283
  418WAT     H1 1465   0.737   1.455   4.355
  418WAT     H2 1466   0.826   1.357   4.282
  419WAT      O 1467   3.041   4.529   2.908
  419WAT     H1 1468   2.959   4.559   2.868
  419WAT     H2 1469   3.110   4.563   2.851
  420WAT      O 1470   2.460   3.720   3.091
  420WAT     H1 1471   2.537   3.667   3.070
  420WAT     H2 1472   2.419   3.675   3.164
  421WAT      O 1473   0.184   1.962   2.211
  421WAT     H1 1474   0.265   1.969   2.261
  421WAT     H2 1475   0.122   1.921   2.271
  422WAT      O 1476   4.513   1.062   0.642
  422WAT     H1 1477   4.539   0.980   0.601
  422WAT     H2 1478   4.418   1.058   0.647
  423WAT      O 1479   0.730   0.289   1.022
  423WAT     H1 1480   0.751   0.222   0.957
  423WAT     H2 1481   0.735   0.372   0.974
  424WAT      O 1482   2.780   0.498   4.185
  424WAT     H1 1483   2.788   0.443   4.263
  424WAT     H2 1484   2.785   0.588   4.219
  425WAT      O 1485   1.517   0.092   2.521
  425WAT     H1 1486   1.570   0.088   2.442
  425WAT     H2 1487   1.576   0.062   2.591
  426WAT      O 1488   4.016   1.224   4.645
  426WAT     H1 1489   3.931   1.252   4.680
  426WAT     H2 1490   4.020   1.130   4.662
  427WAT      O 1491   4.373   4.550   0.846
  427WAT     H1 1492   4.322   4.590   0.917
  427WAT     H2 1493   4.363   4.456   0.861
  428WAT      O 1494   1.940   2.447   0.230
  428WAT     H1 1495   1.854   2.485   0.210
  428WAT     H2 1496   1.989   2.455   0.148
  429WAT      O 1497   4.424   5.007   3.676
  429WAT     H1 1498   4.473   4.927   3.693
  429WAT     H2 1499   4.491   5.071   3.650
  430WAT      O 1500   1.674   2.118   4.096
  430WAT     H1 1501   1.759   2.101   4.057
  430WAT     H2 1502   1.623   2.038   4.080
  431WAT      O 1503   2.339   0.171   2.371
  431WAT     H1 1504   2.257   0.165   2.420
  431WAT     H2 1505   2.369   0.080   2.364
  432WAT      O 1506   2.964   2.150   1.043
  432WAT     H1 1507   2.898   2.083   1.062
  432WAT     H2 1508   2.977   2.196   1.125
  433WAT      O 1509   1.939   3.611   0.339
  433WAT     H1 1510   2.024   3.605   0.295
  433WAT     H2 1511   1.922   3.522   0.371
  434WAT      O 1512   0.409   0.563   2.791
  434WAT     H1 1513   0.423   0.497   2.724
  434WAT     H2 1514   0.386   0.642   2.742
  435WAT      O 1515   2.107   3.332   0.185
  435WAT     H1 1516   2.129   3.423   0.167
  435WAT     H2 1517   2.185   3.295   0.227
  436WAT      O 1518   3.882   1.348   1.935
  436WAT     H1 1519   3.871   1.292   2.012
  436WAT     H2 1520   3.970   1.329   1.903
  437WAT      O 1521   3.478   1.378   2.888
  437WAT     H1 1522   3.424   1.419   2.820
  437WAT     H2 1523   3.421   1.375   2.965
  438WAT      O 1524   3.033   2.902   2.644
  438WAT     H1 1525   3.035   2.968   2.574
  438WAT     H2 1526   3.072   2.946   2.719
  439WAT      O 1527   4.502   4.870   4.651
  439WAT     H1 1528   4.429   4.902   4.597
  439WAT     H2 1529   4.528   4.788   4.610
  440WAT      O 1530   4.496   2.125   3.003
  440WAT     H1 1531   4.573   2.078   2.971
  440WAT     H2 1532   4.457   2.163   2.924
  441WAT      O 1533   3.889   4.728   1.173
  441WAT     H1 1534   3.845   4.684   1.101
  441WAT     H2 1535   3.859   4.818   1.169
  442WAT      O 1536   3.941   0.059   1.978
  442WAT     H1 1537   3.871   0.012   2.023
  442WAT     H2 1538   4.021   0.012   2.002
  443WAT      O 1539   3.269   4.955   5.223
  443WAT     H1 1540   3.242   5.047   5.223
  443WAT     H2 1541   3.351   4.954   5.272
  444WAT      O 1542   1.814   3.773   0.562
  444WAT     H1 1543   1.865   3.700   0.525
  444WAT     H2 1544   1.788   3.825   0.486
  445WAT      O 1545   3.371   1.449   0.791
  445WAT     H1 1546   3.398   1.526   0.841
  445WAT     H2 1547   3.432   1.446   0.717
  446WAT      O 1548   2.555   0.899   0.210
  446WAT     H1 1549   2.585   0.990   0.213
  446WAT     H2 1550   2.529   0.879   0.300
  447WAT      O 1551   1.703   3.932   4.444
  447WAT     H1 1552   1.614   3.965   4.431
  447WAT     H2 1553   1.745   3.942   4.359
  448WAT      O 1554   2.204   0.322   2.172
  448WAT     H1 1555   2.271   0.296   2.235
  448WAT     H2 1556   2.144   0.377   2.222
  449WAT      O 1557   1.883   3.460   5.190
  449WAT     H1 1558   1.818   3.464   5.260
  449WAT     H2 1559   1.925   3.547   5.191
  450WAT      O 1560   4.040   3.114   1.161
  450WAT     H1 1561   3.985   3.149   1.091
  450WAT     H2 1562   3.986   3.121   1.239
  451WAT      O 1563   4.498   2.580   4.492
  451WAT     H1 1564   4.454   2.593   4.576
  451WAT     H2 1565   4.536   2.665   4.472
  452WAT      O 1566   0.184   1.036   3.454
  452WAT     H1 1567   0.232   0.988   3.387
  452WAT     H2 1568   0.246   1.103   3.483
  453WAT      O 1569   1.488   0.146   0.022
  453WAT     H1 1570   1.432   0.205  -0.029
  453WAT     H2 1571   1.570   0.195   0.034
  454WAT      O 1572   0.896   1.886   0.606
  454WAT     H1 1573   0.983   1.921   0.625
  454WAT     H2 1574   0.899   1.796   0.638
  455WAT      O 1575   2.966   3.944   3.157
  455WAT     H1 1576   2.932   4.029   3.185
  455WAT     H2 1577   3.054   3.964   3.124
  456WAT      O 1578   4.064   2.595   2.346
  456WAT     H1 1579   3.997   2.608   2.278
  456WAT     H2 1580   4.143   2.634   2.309
  457WAT      O 1581   3.013   2.388   0.925
  457WAT     H1 1582   2.986   2.302   0.956
  457WAT     H2 1583   2.933   2.441   0.929
  458WAT      O 1584   0.628   3.232   1.161
  458WAT     H1 1585   0.581   3.300   1.112
  458WAT     H2 1586   0.562   3.195   1.220
  459WAT      O 1587   4.091   3.113   1.951
  459WAT     H1 1588   3.998   3.108   1.930
  459WAT     H2 1589   4.098   3.078   2.040
  460WAT      O 1590   4.242   2.558   1.465
  460WAT     H1 1591   4.311   2.493   1.455
  460WAT     H2 1592   4.197   2.559   1.381
  461WAT      O 1593   4.501   1.896   2.400
  461WAT     H1 1594   4.525   1.938   2.483
  461WAT     H2 1595   4.456   1.816   2.426
  462WAT      O 1596   3.705   3.483   4.118
  462WAT     H1 1597   3.674   3.393   4.112
  462WAT     H2 1598   3.629   3.536   4.092
  463WAT      O 1599   3.823   2.161   3.451
  463WAT     H1 1600   3.918   2.160   3.441
  463WAT     H2 1601   3.805   2.239   3.504
  464WAT      O 1602   3.701   4.971   0.378
  464WAT     H1 1603   3.734   4.980   0.289
  464WAT     H2 1604   3.710   5.059   0.416
  465WAT      O 1605   2.309   0.469   0.900
  465WAT     H1 1606   2.362   0.391   0.918
  465WAT     H2 1607   2.240   0.467   0.967
  466WAT      O 1608   1.452   0.300   3.267
  466WAT     H1 1609   1.367   0.344   3.264
  466WAT     H2 1610   1.473   0.283   3.176
  467WAT      O 1611   0.781   1.543   4.039
  467WAT     H1 1612   0.764   1.459   4.082
  467WAT     H2 1613   0.779   1.607   4.110
  468WAT      O 1614   3.116   0.898   3.445
  468WAT     H1 1615   3.083   0.833   3.382
  468WAT     H2 1616   3.056   0.891   3.519
  469WAT      O 1617   4.112   1.177   4.350
  469WAT     H1 1618   4.103   1.083   4.338
  469WAT     H2 1619   4.058   1.197   4.426
  470WAT      O 1620   0.046   2.716   3.370
  470WAT     H1 1621   0.096   2.640   3.340
  470WAT     H2 1622   0.112   2.778   3.402
  471WAT      O 1623   1.806   3.381   4.940
  471WAT     H1 1624   1.829   3.424   5.022
  471WAT     H2 1625   1.782   3.292   4.965
  472WAT      O 1626   4.486   3.430   0.557
  472WAT     H1 1627   4.467   3.348   0.602
  472WAT     H2 1628   4.471   3.498   0.623
  473WAT      O 1629   0.240   0.119   4.629
  473WAT     H1 1630   0.301   0.062   4.675
  473WAT     H2 1631   0.154   0.092   4.661
  474WAT      O 1632   0.264   0.636   4.490
  474WAT     H1 1633   0.307   0.550   4.491
  474WAT     H2 1634   0.329   0.694   4.451
  475WAT      O 1635   0.514   3.874   3.285
  475WAT     H1 1636   0.557   3.792   3.311
  475WAT     H2 1637   0.579   3.942   3.303
  476WAT      O 1638   0.318   2.976   1.930
  476WAT     H1 1639   0.413   2.986   1.927
  476WAT     H2 1640   0.302   2.925   2.009
  477WAT      O 1641   0.056   0.054   3.352
  477WAT     H1 1642   0.125  -0.012   3.344
  477WAT     H2 1643   0.097   0.135   3.322
  478WAT      O 1644   2.472   0.311   2.116
  478WAT     H1 1645   2.515   0.356   2.043
  478WAT     H2 1646   2.517   0.227   2.122
  479WAT      O 1647   0.010   0.791   4.265
  479WAT     H1 1648  -0.042   0.869   4.247
  479WAT     H2 1649   0.098   0.825   4.281
  480WAT      O 1650   2.128   4.215   0.528
  480WAT     H1 1651   2.108   4.277   0.458
  480WAT     H2 1652   2.223   4.201   0.521
  481WAT      O 1653   0.705   1.723   4.245
  481WAT     H1 1654   0.628   1.696   4.195
  481WAT     H2 1655   0.669   1.773   4.319
  482WAT      O 1656   3.200   3.333   4.148
  482WAT     H1 1657   3.254   3.307   4.073
  482WAT     H2 1658   3.181   3.251   4.193
  483WAT      O 1659   3.027   2.160   3.113
  483WAT     H1 1660   3.028   2.255   3.102
  483WAT     H2 1661   2.936   2.135   3.097
  484WAT      O 1662   4.037   1.780   3.647
  484WAT     H1 1663   3.983   1.840   3.698
  484WAT     H2 1664   4.127   1.804   3.667
  485WAT      O 1665   1.564   5.068   1.887
  485WAT     H1 1666   1.645   5.041   1.843
  485WAT     H2 1667   1.497   5.013   1.847
  486WAT      O 1668   1.615   3.187   1.720
  486WAT     H1 1669   1.680   3.190   1.649
  486WAT     H2 1670   1.545   3.245   1.690
  487WAT      O 1671   3.670   4.560   1.843
  487WAT     H1 1672   3.740   4.578   1.906
  487WAT     H2 1673   3.590   4.561   1.895
  488WAT      O 1674   3.466   3.691   1.440
  488WAT     H1 1675   3.414   3.638   1.499
  488WAT     H2 1676   3.542   3.637   1.418
  489WAT      O 1677   1.102   2.515   0.668
  489WAT     H1 1678   1.050   2.593   0.685
  489WAT     H2 1679   1.155   2.538   0.591
  490WAT      O 1680   1.516   0.880   0.921
  490WAT     H1 1681   1.458   0.951   0.895
  490WAT     H2 1682   1.467   0.830   0.986
  491WAT      O 1683   2.636   1.593   1.789
  491WAT     H1 1684   2.556   1.601   1.739
  491WAT     H2 1685   2.705   1.579   1.724
  492WAT      O 1686   4.361   1.487   1.655
  492WAT     H1 1687   4.382   1.566   1.605
  492WAT     H2 1688   4.431   1.425   1.632
  493WAT      O 1689   3.635   0.637   0.528
  493WAT     H1 1690   3.634   0.544   0.505
  493WAT     H2 1691   3.552   0.652   0.572
  494WAT      O 1692   2.679   2.281   1.086
  494WAT     H1 1693   2.625   2.277   1.165
  494WAT     H2 1694   2.618   2.306   1.017
  495WAT      O 1695   2.335   2.643   1.329
  495WAT     H1 1696   2.325   2.699   1.406
  495WAT     H2 1697   2.255   2.657   1.278
  496WAT      O 1698   4.420   3.800   1.830
  496WAT     H1 1699   4.469   3.763   1.757
  496WAT     H2 1700   4.330   3.769   1.816
  497WAT      O 1701   3.144   1.579   1.709
  497WAT     H1 1702   3.223   1.605   1.662
  497WAT     H2 1703   3.170   1.501   1.758
  498WAT      O 1704   3.481   0.599   4.898
  498WAT     H1 1705   3.466   0.548   4.819
  498WAT     H2 1706   3.458   0.539   4.970
  499WAT      O 1707   1.561   4.735   3.852
  499WAT     H1 1708   1.565   4.648   3.813
  499WAT     H2 1709   1.649   4.771   3.838
  500WAT      O 1710   0.006   3.066   2.454
  500WAT     H1 1711  -0.049   3.087   2.379
  500WAT     H2 1712   0.035   3.152   2.487
  501WAT      O 1713   2.274   1.600   2.720
  501WAT     H1 1714   2.254   1.519   2.673
  501WAT     H2 1715   2.343   1.576   2.781
  502WAT      O 1716   2.030   4.661   1.313
  502WAT     H1 1717   2.009   4.717   1.239
  502WAT     H2 1718   2.100   4.603   1.280
  503WAT      O 1719   2.446   1.133   2.159
  503WAT     H1 1720   2.485   1.137   2.071
  503WAT     H2 1721   2.359   1.096   2.145
  504WAT      O 1722   2.778   2.176   3.801
  504WAT     H1 1723   2.743   2.101   3.848
  504WAT     H2 1724   2.777   2.150   3.709
  505WAT      O 1725   0.349   2.777   0.828
  505WAT     H1 1726   0.389   2.850   0.875
  505WAT     H2 1727   0.395   2.774   0.744
  506WAT      O 1728   1.917   0.941   2.241
  506WAT     H1 1729   1.950   0.991   2.316
  506WAT     H2 1730   1.953   0.986   2.164
  507WAT      O 1731   3.689   3.369   4.924
  507WAT     H1 1732   3.673   3.449   4.973
  507WAT     H2 1733   3.624   3.306   4.957
  508WAT      O 1734   0.227   4.742   5.240
  508WAT     H1 1735   0.267   4.794   5.310
  508WAT     H2 1736   0.236   4.651   5.269
  509WAT      O 1737   2.292   2.020   2.483
  509WAT     H1 1738   2.252   2.004   2.397
  509WAT     H2 1739   2.385   2.005   2.469
  510WAT      O 1740   0.326   1.056   2.669
  510WAT     H1 1741   0.288   1.128   2.617
  510WAT     H2 1742   0.289   1.067   2.756
  511WAT      O 1743   2.433   0.556   2.249
  511WAT     H1 1744   2.442   0.489   2.180
  511WAT     H2 1745   2.445   0.639   2.202
  512WAT      O 1746   0.586   2.291   2.694
  512WAT     H1 1747   0.499   2.263   2.666
  512WAT     H2 1748   0.641   2.278   2.616
  513WAT      O 1749   0.987   3.692   0.456
  513WAT     H1 1750   0.903   3.713   0.498
  513WAT     H2 1751   1.043   3.662   0.528
  514WAT      O 1752   4.141   0.546   2.384
  514WAT     H1 1753   4.085   0.498   2.323
  514WAT     H2 1754   4.086   0.560   2.461
  515WAT      O 1755   3.150   4.039   2.360
  515WAT     H1 1756   3.085   4.053   2.428
  515WAT     H2 1757   3.159   4.124   2.317
  516WAT      O 1758   3.311   1.675   4.432
  516WAT     H1 1759   3.239   1.674   4.370
  516WAT     H2 1760   3.313   1.587   4.469
  517WAT      O 1761   1.961   0.731   0.324
  517WAT     H1 1762   2.035   0.787   0.347
  517WAT     H2 1763   1.892   0.756   0.385
  518WAT      O 1764   4.075   0.999   3.738
  518WAT     H1 1765   4.131   0.928   3.705
  518WAT     H2 1766   3.987   0.962   3.737
  519WAT      O 1767   0.759   0.510   4.114
  519WAT     H1 1768   0.795   0.426   4.085
  519WAT     H2 1769   0.819   0.575   4.080
  520WAT      O 1770   4.061   3.352   0.124
  520WAT     H1 1771   4.114   3.278   0.155
  520WAT     H2 1772   4.119   3.428   0.132
  521WAT      O 1773   3.109   3.508   2.328
  521WAT     H1 1774   3.140   3.596   2.351
  521WAT     H2 1775   3.033   3.524   2.271
  522WAT      O 1776   1.663   2.074   1.009
  522WAT     H1 1777   1.641   2.125   1.087
  522WAT     H2 1778   1.737   2.121   0.970
  523WAT      O 1779   4.459   4.080   1.878
  523WAT     H1 1780   4.439   3.988   1.861
  523WAT     H2 1781   4.412   4.101   1.958
  524WAT      O 1782   1.433   0.372   0.237
  524WAT     H1 1783   1.504   0.359   0.174
  524WAT     H2 1784   1.447   0.305   0.304
  525WAT      O 1785   2.143   4.584   0.702
  525WAT     H1 1786   2.137   4.520   0.632
  525WAT     H2 1787   2.088   4.657   0.674
  526WAT      O 1788   2.066   0.762   1.822
  526WAT     H1 1789   1.993   0.763   1.884
  526WAT     H2 1790   2.035   0.708   1.749
  527WAT      O 1791   3.589   3.653   0.386
  527WAT     H1 1792   3.600   3.674   0.293
  527WAT     H2 1793   3.679   3.640   0.418
  528WAT      O 1794   2.181   0.329   4.313
  528WAT     H1 1795   2.099   0.338   4.263
  528WAT     H2 1796   2.249   0.355   4.250
  529WAT      O 1797   4.391   1.156   2.646
  529WAT     H1 1798   4.468   1.196   2.686
  529WAT     H2 1799   4.424   1.117   2.564
  530WAT      O 1800   1.713   3.315   4.611
  530WAT     H1 1801   1.674   3.388   4.659
  530WAT     H2 1802   1.653   3.298   4.538
  531WAT      O 1803   0.681   2.998   1.006
  531WAT     H1 1804   0.585   2.992   1.013
  531WAT     H2 1805   0.701   3.086   1.037
  532WAT      O 1806   0.570   4.928   5.172
  532WAT     H1 1807   0.648   4.936   5.227
  532WAT     H2 1808   0.502   4.976   5.219
  533WAT      O 1809   3.804   4.746   4.239
  533WAT     H1 1810   3.881   4.747   4.295
  533WAT     H2 1811   3.790   4.653   4.219
  534WAT      O 1812   4.201   0.587   3.368
  534WAT     H1 1813   4.185   0.672   3.409
  534WAT     H2 1814   4.185   0.601   3.275
  535WAT      O 1815   1.754   0.678   1.803
  535WAT     H1 1816   1.774   0.721   1.885
  535WAT     H2 1817   1.659   0.664   1.805
  536WAT      O 1818   3.550   5.029   4.343
  536WAT     H1 1819   3.535   5.000   4.253
  536WAT     H2 1820   3.534   5.124   4.341
  537WAT      O 1821   1.794   2.162   3.471
  537WAT     H1 1822   1.773   2.073   3.499
  537WAT     H2 1823   1.882   2.155   3.433
  538WAT      O 1824   2.837   1.563   0.937
  538WAT     H1 1825   2.762   1.509   0.959
  538WAT     H2 1826   2.901   1.546   1.006
  539WAT      O 1827   0.694   0.664   2.857
  539WAT     H1 1828   0.776   0.702   2.826
  539WAT     H2 1829   0.635   0.738   2.866
  540WAT      O 1830   3.186   4.901   4.965
  540WAT     H1 1831   3.090   4.902   4.974
  540WAT     H2 1832   3.217   4.923   5.053
  541WAT      O 1833   4.366   4.791   0.700
  541WAT     H1 1834   4.396   4.719   0.755
  541WAT     H2 1835   4.305   4.751   0.638
  542WAT      O 1836   4.033   4.383   0.744
  542WAT     H1 1837   4.064   4.292   0.743
  542WAT     H2 1838   4.021   4.403   0.837
  543WAT      O 1839   2.550   0.452   3.405
  543WAT     H1 1840   2.583   0.526   3.353
  543WAT     H2 1841   2.485   0.491   3.463
  544WAT      O 1842   3.061   2.012   2.445
  544WAT     H1 1843   2.977   2.050   2.419
  544WAT     H2 1844   3.046   1.978   2.533
  545WAT      O 1845   3.605   4.258   1.457
  545WAT     H1 1846   3.549   4.244   1.533
  545WAT     H2 1847   3.575   4.341   1.419
  546WAT      O 1848   4.384   4.649   1.864
  546WAT     H1 1849   4.470   4.682   1.837
  546WAT     H2 1850   4.326   4.725   1.856
  547WAT      O 1851   3.240   5.073   3.584
  547WAT     H1 1852   3.182   5.142   3.549
  547WAT     H2 1853   3.328   5.107   3.568
  548WAT      O 1854   0.703   2.747   3.127
  548WAT     H1 1855   0.702   2.678   3.194
  548WAT     H2 1856   0.611   2.759   3.104
  549WAT      O 1857   1.653   0.286   1.769
  549WAT     H1 1858   1.692   0.199   1.759
  549WAT     H2 1859   1.679   0.333   1.690
  550WAT      O 1860   0.801   0.471   4.509
  550WAT     H1 1861   0.860   0.500   4.578
  550WAT     H2 1862   0.835   0.513   4.430
  551WAT      O 1863   3.472   3.673   4.122
  551WAT     H1 1864   3.386   3.715   4.125
  551WAT     H2 1865   3.488   3.659   4.028
  552WAT      O 1866   4.200   4.315   0.158
  552WAT     H1 1867   4.200   4.304   0.062
  552WAT     H2 1868   4.293   4.316   0.181
  553WAT      O 1869   4.048   3.409   1.440
  553WAT     H1 1870   4.068   3.383   1.530
  553WAT     H2 1871   4.019   3.328   1.397
  554WAT      O 1872   1.965   3.199   0.518
  554WAT     H1 1873   1.959   3.115   0.565
  554WAT     H2 1874   2.045   3.192   0.467
  555WAT      O 1875   1.186   4.516   4.556
  555WAT     H1 1876   1.095   4.532   4.581
  555WAT     H2 1877   1.183   4.515   4.460
  556WAT      O 1878   3.992   0.300   1.898
  556WAT     H1 1879   3.977   0.215   1.939
  556WAT     H2 1880   3.917   0.314   1.841
  557WAT      O 1881   2.277   0.965   4.990
  557WAT     H1 1882   2.344   0.934   5.051
  557WAT     H2 1883   2.206   0.995   5.047
  558WAT      O 1884   1.437   0.186   1.561
  558WAT     H1 1885   1.441   0.101   1.517
  558WAT     H2 1886   1.495   0.176   1.637
  559WAT      O 1887   3.320   0.701   1.480
  559WAT     H1 1888   3.257   0.653   1.426
  559WAT     H2 1889   3.398   0.709   1.424
  560WAT      O 1890   0.185   3.444   4.383
  560WAT     H1 1891   0.111   3.384   4.381
  560WAT     H2 1892   0.186   3.485   4.296
  561WAT      O 1893   0.387   3.253   4.290
  561WAT     H1 1894   0.311   3.311   4.283
  561WAT     H2 1895   0.356   3.169   4.256
  562WAT      O 1896   3.959   0.511   4.335
  562WAT     H1 1897   4.033   0.528   4.394
  562WAT     H2 1898   3.978   0.561   4.256
  563WAT      O 1899   1.667   5.084   2.719
  563WAT     H1 1900   1.585   5.065   2.764
  563WAT     H2 1901   1.711   5.148   2.775
  564WAT      O 1902   3.030   1.482   4.606
  564WAT     H1 1903   3.071   1.487   4.693
  564WAT     H2 1904   3.046   1.392   4.578
  565WAT      O 1905   0.427   1.398   0.361
  565WAT     H1 1906   0.471   1.402   0.446
  565WAT     H2 1907   0.493   1.361   0.302
  566WAT      O 1908   3.564   4.063   1.185
  566WAT     H1 1909   3.610   4.036   1.264
  566WAT     H2 1910   3.549   3.981   1.137
  567WAT      O 1911   0.643   3.065   3.698
  567WAT     H1 1912   0.618   3.141   3.645
  567WAT     H2 1913   0.563   3.039   3.742
  568WAT      O 1914   2.066   0.769   2.601
  568WAT     H1 1915   2.046   0.857   2.569
  568WAT     H2 1916   2.162   0.765   2.604
  569WAT      O 1917   1.934   2.679   1.750
  569WAT     H1 1918   1.966   2.738   1.818
  569WAT     H2 1919   1.843   2.704   1.737
  570WAT      O 1920   4.197   1.122   2.832
  570WAT     H1 1921   4.268   1.089   2.888
  570WAT     H2 1922   4.240   1.143   2.749
  571WAT      O 1923   2.894   4.920   4.516
  571WAT     H1 1924   2.970   4.887   4.467
  571WAT     H2 1925   2.930   4.942   4.603
  572WAT      O 1926   0.518   2.003   1.928
  572WAT     H1 1927   0.557   1.920   1.899
  572WAT     H2 1928   0.429   1.980   1.953
  573WAT      O 1929   0.827   0.543   3.717
  573WAT     H1 1930   0.849   0.545   3.810
  573WAT     H2 1931   0.911   0.531   3.673
  574WAT      O 1932   3.464   0.457   0.817
  574WAT     H1 1933   3.382   0.497   0.789
  574WAT     H2 1934   3.498   0.516   0.885
  575WAT      O 1935   4.087   2.973   0.418
  575WAT     H1 1936   4.004   2.929   0.436
  575WAT     H2 1937   4.096   3.036   0.489
  576WAT      O 1938   2.818   3.711   5.192
  576WAT     H1 1939   2.842   3.755   5.111
  576WAT     H2 1940   2.900   3.701   5.240
  577WAT      O 1941   1.896   0.700   3.510
  577WAT     H1 1942   1.852   0.638   3.568
  577WAT     H2 1943   1.825   0.758   3.480
  578WAT      O 1944   0.927   2.275   3.967
  578WAT     H1 1945   0.915   2.319   4.051
  578WAT     H2 1946   0.988   2.204   3.985
  579WAT      O 1947   2.433   4.455   0.733
  579WAT     H1 1948   2.343   4.487   0.722
  579WAT     H2 1949   2.466   4.506   0.807
  580WAT      O 1950   0.589   0.744   4.145
  580WAT     H1 1951   0.612   0.651   4.154
  580WAT     H2 1952   0.629   0.769   4.061
  581WAT      O 1953   0.137   0.893   3.173
  581WAT     H1 1954   0.066   0.833   3.196
  581WAT     H2 1955   0.205   0.876   3.238
  582WAT      O 1956   3.882   4.627   2.075
  582WAT     H1 1957   3.809   4.615   2.136
  582WAT     H2 1958   3.857   4.704   2.024
  583WAT      O 1959   1.617   0.606   3.405
  583WAT     H1 1960   1.627   0.585   3.313
  583WAT     H2 1961   1.671   0.541   3.450
  584WAT      O 1962   2.745   1.643   5.079
  584WAT     H1 1963   2.743   1.733   5.046
  584WAT     H2 1964   2.683   1.596   5.023
  585WAT      O 1965   0.927   1.128   3.440
  585WAT     H1 1966   0.939   1.094   3.352
  585WAT     H2 1967   0.976   1.067   3.496
  586WAT      O 1968   0.206   2.296   1.336
  586WAT     H1 1969   0.280   2.246   1.369
  586WAT     H2 1970   0.225   2.311   1.244
  587WAT      O 1971   2.189   2.612   4.124
  587WAT     H1 1972   2.270   2.584   4.168
  587WAT     H2 1973   2.183   2.706   4.142
  588WAT      O 1974   1.635   2.897   4.637
  588WAT     H1 1975   1.659   2.812   4.675
  588WAT     H2 1976   1.702   2.957   4.670
  589WAT      O 1977   2.103   2.738   4.663
  589WAT     H1 1978   2.179   2.788   4.694
  589WAT     H2 1979   2.075   2.783   4.584
  590WAT      O 1980   0.776   2.384   1.402
  590WAT     H1 1981   0.767   2.372   1.307
  590WAT     H2 1982   0.850   2.444   1.410
  591WAT      O 1983   4.370   0.127   1.133
  591WAT     H1 1984   4.438   0.172   1.082
  591WAT     H2 1985   4.404   0.124   1.222
  592WAT      O 1986   3.284   3.137   0.084
  592WAT     H1 1987   3.212   3.102   0.137
  592WAT     H2 1988   3.248   3.216   0.045
  593WAT      O 1989   1.871   5.048   0.205
  593WAT     H1 1990   1.916   5.110   0.147
  593WAT     H2 1991   1.906   5.066   0.292
  594WAT      O 1992   3.324   3.382   1.007
  594WAT     H1 1993   3.340   3.346   1.094
  594WAT     H2 1994   3.411   3.396   0.970
  595WAT      O 1995   2.334   2.920   3.769
  595WAT     H1 1996   2.428   2.913   3.783
  595WAT     H2 1997   2.297   2.846   3.818
  596WAT      O 1998   1.508   1.747   3.313
  596WAT     H1 1999   1.417   1.743   3.285
  596WAT     H2 2000   1.505   1.790   3.399
  597WAT      O 2001   3.359   2.746   0.281
  597WAT     H1 2002   3.290   2.743   0.215
  597WAT     H2 2003   3.337   2.675   0.342
  598WAT      O 2004   0.097   3.356   0.956
  598WAT     H1 2005   0.007   3.345   0.987
  598WAT     H2 2006   0.113   3.451   0.961
  599WAT      O 2007   2.526   3.626   0.129
  599WAT     H1 2008   2.579   3.584   0.062
  599WAT     H2 2009   2.563   3.714   0.136
  600WAT      O 2010   2.830   0.023   3.284
  600WAT     H1 2011   2.844  -0.026   3.366
  600WAT     H2 2012   2.735   0.035   3.279
  601WAT      O 2013   2.248   4.214   0.096
  601WAT     H1 2014   2.233   4.122   0.120
  601WAT     H2 2015   2.343   4.225   0.106
  602WAT      O 2016   0.857   4.982   0.941
  602WAT     H1 2017   0.767   4.992   0.972
  602WAT     H2 2018   0.909   5.033   1.003
  603WAT      O 2019   2.343   4.024   3.365
  603WAT     H1 2020   2.305   4.106   3.332
  603WAT     H2 2021   2.298   3.956   3.315
  604WAT      O 2022   0.553   2.421   3.070
  604WAT     H1 2023   0.617   2.438   3.140
  604WAT     H2 2024   0.607   2.409   2.992
  605WAT      O 2025   2.681   3.420   4.628
  605WAT     H1 2026   2.662   3.356   4.559
  605WAT     H2 2027   2.722   3.367   4.697
  606WAT      O 2028   3.948   0.067   3.105
  606WAT     H1 2029   3.862   0.071   3.148
  606WAT     H2 2030   4.005   0.027   3.171
  607WAT      O 2031   2.998   0.773   2.771
  607WAT     H1 2032   3.001   0.677   2.769
  607WAT     H2 2033   3.060   0.799   2.703
  608WAT      O 2034   3.074   2.202   1.333
  608WAT     H1 2035   3.163   2.233   1.347
  608WAT     H2 2036   3.028   2.278   1.296
  609WAT      O 2037   1.559   1.362   0.021
  609WAT     H1 2038   1.493   1.313   0.071
  609WAT     H2 2039   1.508   1.425  -0.030
  610WAT      O 2040   4.516   3.080   5.164
  610WAT     H1 2041   4.519   3.163   5.118
  610WAT     H2 2042   4.423   3.061   5.176
  611WAT      O 2043   1.387   3.808   3.280
  611WAT     H1 2044   1.339   3.860   3.216
  611WAT     H2 2045   1.353   3.719   3.269
  612WAT      O 2046   1.532   4.491   3.726
  612WAT     H1 2047   1.589   4.416   3.713
  612WAT     H2 2048   1.455   4.456   3.771
  613WAT      O 2049   0.696   2.562   0.060
  613WAT     H1 2050   0.788   2.576   0.035
  613WAT     H2 2051   0.697   2.478   0.105
  614WAT      O 2052   3.156   5.046   1.740
  614WAT     H1 2053   3.185   4.986   1.809
  614WAT     H2 2054   3.104   5.111   1.787
  615WAT      O 2055   0.642   3.814   3.934
  615WAT     H1 2056   0.726   3.774   3.957
  615WAT     H2 2057   0.663   3.872   3.861
  616WAT      O 2058   3.392   1.418   4.640
  616WAT     H1 2059   3.349   1.460   4.715
  616WAT     H2 2060   3.328   1.354   4.609
  617WAT      O 2061   2.508   2.676   1.120
  617WAT     H1 2062   2.446   2.694   1.191
  617WAT     H2 2063   2.458   2.625   1.057
  618WAT      O 2064   0.403   4.295   0.047
  618WAT     H1 2065   0.365   4.272   0.132
  618WAT     H2 2066   0.497   4.300   0.064
  619WAT      O 2067   4.074   2.194   2.866
  619WAT     H1 2068   4.116   2.153   2.940
  619WAT     H2 2069   4.130   2.268   2.843
  620WAT      O 2070   0.391   0.492   0.802
  620WAT     H1 2071   0.312   0.542   0.785
  620WAT     H2 2072   0.434   0.539   0.874
  621WAT      O 2073   2.983   4.867   2.705
  621WAT     H1 2074   2.961   4.953   2.670
  621WAT     H2 2075   3.000   4.814   2.627
  622WAT      O 2076   3.227   0.556   1.228
  622WAT     H1 2077   3.183   0.498   1.290
  622WAT     H2 2078   3.295   0.501   1.188
  623WAT      O 2079   0.006   3.885   0.399
  623WAT     H1 2080   0.027   3.978   0.407
  623WAT     H2 2081  -0.048   3.879   0.321
  624WAT      O 2082   3.586   2.844   4.236
  624WAT     H1 2083   3.607   2.922   4.288
  624WAT     H2 2084   3.597   2.873   4.145
  625WAT      O 2085   0.665   1.064   5.079
  625WAT     H1 2086   0.598   1.107   5.026
  625WAT     H2 2087   0.643   0.971   5.073
  626WAT      O 2088   2.155   4.773   4.214
  626WAT     H1 2089   2.140   4.863   4.185
  626WAT     H2 2090   2.084   4.723   4.173
  627WAT      O 2091   1.006   3.403   2.210
  627WAT     H1 2092   0.957   3.482   2.184
  627WAT     H2 2093   1.092   3.435   2.235
  628WAT      O 2094   0.890   2.958   1.310
  628WAT     H1 2095   0.801   2.927   1.295
  628WAT     H2 2096   0.902   2.950   1.405
  629WAT      O 2097   1.221   5.074   1.287
  629WAT     H1 2098   1.141   5.111   1.324
  629WAT     H2 2099   1.265   5.149   1.247
  630WAT      O 2100   2.013   0.683   5.052
  630WAT     H1 2101   1.966   0.767   5.052
  630WAT     H2 2102   1.961   0.628   5.111
  631WAT      O 2103   2.328   1.841   2.986
  631WAT     H1 2104   2.235   1.819   2.981
  631WAT     H2 2105   2.355   1.810   3.073
  632WAT      O 2106   0.206   1.718   1.131
  632WAT     H1 2107   0.149   1.641   1.136
  632WAT     H2 2108   0.189   1.765   1.213
  633WAT      O 2109   0.705   1.079   4.053
  633WAT     H1 2110   0.664   0.997   4.026
  633WAT     H2 2111   0.687   1.140   3.981
  634WAT      O 2112   2.650   3.172   4.540
  634WAT     H1 2113   2.676   3.161   4.632
  634WAT     H2 2114   2.564   3.130   4.534
  635WAT      O 2115   3.876   3.260   0.998
  635WAT     H1 2116   3.902   3.351   0.986
  635WAT     H2 2117   3.791   3.265   1.042
  636WAT      O 2118   0.991   4.572   4.207
  636WAT     H1 2119   0.939   4.509   4.257
  636WAT     H2 2120   0.927   4.617   4.152
  637WAT      O 2121   2.310   3.737   5.144
  637WAT     H1 2122   2.305   3.801   5.215
  637WAT     H2 2123   2.400   3.704   5.148
  638WAT      O 2124   0.202   4.536   1.851
  638WAT     H1 2125   0.157   4.456   1.876
  638WAT     H2 2126   0.293   4.510   1.839
  639WAT      O 2127   1.154   2.495   5.107
  639WAT     H1 2128   1.212   2.565   5.138
  639WAT     H2 2129   1.213   2.434   5.063
  640WAT      O 2130   3.911   3.719   4.176
  640WAT     H1 2131   3.857   3.640   4.184
  640WAT     H2 2132   3.946   3.732   4.264
  641WAT      O 2133   0.149   1.437   2.003
  641WAT     H1 2134   0.177   1.378   1.934
  641WAT     H2 2135   0.107   1.510   1.957
  642WAT      O 2136   0.898   0.189   4.557
  642WAT     H1 2137   0.859   0.103   4.573
  642WAT     H2 2138   0.856   0.220   4.477
  643WAT      O 2139   2.956   3.295   5.009
  643WAT     H1 2140   2.861   3.287   5.014
  643WAT     H2 2141   2.986   3.211   4.975
  644WAT      O 2142   1.258   2.662   1.377
  644WAT     H1 2143   1.223   2.734   1.323
  644WAT     H2 2144   1.275   2.702   1.462
  645WAT      O 2145   2.868   2.210   2.659
  645WAT     H1 2146   2.900   2.210   2.568
  645WAT     H2 2147   2.836   2.121   2.673
  646WAT      O 2148   2.660   3.980   2.059
  646WAT     H1 2149   2.748   3.958   2.030
  646WAT     H2 2150   2.617   4.014   1.980
  647WAT      O 2151   3.624   4.480   3.493
  647WAT     H1 2152   3.687   4.428   3.543
  647WAT     H2 2153   3.539   4.444   3.516
  648WAT      O 2154   2.887   4.290   4.570
  648WAT     H1 2155   2.929   4.331   4.494
  648WAT     H2 2156   2.838   4.361   4.611
  649WAT      O 2157   0.894   2.148   1.278
  649WAT     H1 2158   0.866   2.129   1.367
  649WAT     H2 2159   0.990   2.139   1.280
  650WAT      O 2160   1.202   1.800   1.175
  650WAT     H1 2161   1.181   1.722   1.123
  650WAT     H2 2162   1.230   1.865   1.110
  651WAT      O 2163   4.201   0.185   5.012
  651WAT     H1 2164   4.260   0.217   5.081
  651WAT     H2 2165   4.237   0.223   4.932
  652WAT      O 2166   1.323   4.616   4.297
  652WAT     H1 2167   1.284   4.697   4.327
  652WAT     H2 2168   1.405   4.609   4.346
  653WAT      O 2169   0.194   1.559   2.235
  653WAT     H1 2170   0.155   1.481   2.275
  653WAT     H2 2171   0.209   1.534   2.144
  654WAT      O 2172   4.417   1.844   0.347
  654WAT     H1 2173   4.502   1.850   0.302
  654WAT     H2 2174   4.356   1.886   0.287
  655WAT      O 2175   2.726   4.793   4.329
  655WAT     H1 2176   2.781   4.843   4.389
  655WAT     H2 2177   2.686   4.858   4.273
  656WAT      O 2178   2.692   0.454   0.696
  656WAT     H1 2179   2.673   0.534   0.647
  656WAT     H2 2180   2.628   0.391   0.663
  657WAT      O 2181   4.041   2.435   3.692
  657WAT     H1 2182   4.086   2.352   3.710
  657WAT     H2 2183   4.041   2.480   3.777
  658WAT      O 2184   4.268   0.863   0.801
  658WAT     H1 2185   4.318   0.850   0.883
  658WAT     H2 2186   4.299   0.793   0.744
  659WAT      O 2187   2.838   5.007   4.003
  659WAT     H1 2188   2.792   4.924   3.989
  659WAT     H2 2189   2.899   5.013   3.930
  660WAT      O 2190   2.047   3.305   2.472
  660WAT     H1 2191   2.094   3.385   2.495
  660WAT     H2 2192   2.114   3.249   2.433
  661WAT      O 2193   4.319   1.360   0.687
  661WAT     H1 2194   4.248   1.312   0.645
  661WAT     H2 2195   4.283   1.389   0.770
  662WAT      O 2196   2.299   0.081   1.554
  662WAT     H1 2197   2.230   0.015   1.547
  662WAT     H2 2198   2.318   0.086   1.647
  663WAT      O 2199   0.272   3.410   3.424
  663WAT     H1 2200   0.196   3.409   3.366
  663WAT     H2 2201   0.343   3.445   3.370
  664WAT      O 2202   0.840   2.142   2.015
  664WAT     H1 2203   0.791   2.082   1.959
  664WAT     H2 2204   0.931   2.112   2.008
  665WAT      O 2205   4.490   4.004   1.270
  665WAT     H1 2206   4.513   3.995   1.362
  665WAT     H2 2207   4.430   3.931   1.253
  666WAT      O 2208   3.142   0.007   2.473
  666WAT     H1 2209   3.221   0.035   2.519
  666WAT     H2 2210   3.082   0.081   2.481
  667WAT      O 2211   3.569   2.538   1.411
  667WAT     H1 2212   3.643   2.591   1.443
  667WAT     H2 2213   3.609   2.458   1.378
  668WAT      O 2214   0.742   1.455   3.778
  668WAT     H1 2215   0.738   1.488   3.868
  668WAT     H2 2216   0.718   1.363   3.785
  669WAT      O 2217   0.530   1.974   0.077
  669WAT     H1 2218   0.524   1.963  -0.018
  669WAT     H2 2219   0.475   2.051   0.095
  670WAT      O 2220   0.465   5.093   0.822
  670WAT     H1 2221   0.492   5.059   0.737
  670WAT     H2 2222   0.396   5.034   0.851
  671WAT      O 2223   3.875   1.141   0.178
  671WAT     H1 2224   3.937   1.081   0.137
  671WAT     H2 2225   3.789   1.101   0.162
  672WAT      O 2226   0.442   2.186   2.134
  672WAT     H1 2227   0.501   2.144   2.071
  672WAT     H2 2228   0.426   2.118   2.201
  673WAT      O 2229   3.392   1.886   3.163
  673WAT     H1 2230   3.330   1.865   3.233
  673WAT     H2 2231   3.460   1.819   3.170
  674WAT      O 2232   0.990   0.939   2.174
  674WAT     H1 2233   1.031   0.855   2.152
  674WAT     H2 2234   1.027   1.001   2.110
  675WAT      O 2235   3.869   0.332   2.589
  675WAT     H1 2236   3.953   0.291   2.569
  675WAT     H2 2237   3.868   0.343   2.684
  676WAT      O 2238   0.188   3.976   2.987
  676WAT     H1 2239   0.185   3.946   3.078
  676WAT     H2 2240   0.150   3.903   2.938
  677WAT      O 2241   3.311   0.477   2.235
  677WAT     H1 2242   3.336   0.568   2.250
  677WAT     H2 2243   3.344   0.430   2.312
  678WAT      O 2244   3.413   4.328   3.561
  678WAT     H1 2245   3.427   4.279   3.642
  678WAT     H2 2246   3.339   4.284   3.519
  679WAT      O 2247   2.781   0.992   3.163
  679WAT     H1 2248   2.823   0.916   3.125
  679WAT     H2 2249   2.847   1.028   3.223
  680WAT      O 2250   3.894   4.985   0.932
  680WAT     H1 2251   3.900   4.924   0.858
  680WAT     H2 2252   3.816   5.037   0.913
  681WAT      O 2253   3.158   1.326   1.284
  681WAT     H1 2254   3.093   1.257   1.271
  681WAT     H2 2255   3.242   1.283   1.267
  682WAT      O 2256   3.854   4.131   4.851
  682WAT     H1 2257   3.801   4.051   4.851
  682WAT     H2 2258   3.945   4.100   4.851
  683WAT      O 2259   0.367   2.694   4.631
  683WAT     H1 2260   0.457   2.699   4.664
  683WAT     H2 2261   0.317   2.751   4.690
  684WAT      O 2262   0.813   0.668   1.715
  684WAT     H1 2263   0.804   0.747   1.767
  684WAT     H2 2264   0.830   0.599   1.778
  685WAT      O 2265   3.682   4.639   1.594
  685WAT     H1 2266   3.765   4.619   1.550
  685WAT     H2 2267   3.694   4.606   1.683
  686WAT      O 2268   2.769   2.735   2.340
  686WAT     H1 2269   2.737   2.650   2.310
  686WAT     H2 2270   2.805   2.777   2.262
  687WAT      O 2271   2.483   0.682   0.567
  687WAT     H1 2272   2.405   0.676   0.621
  687WAT     H2 2273   2.492   0.596   0.526
  688WAT      O 2274   2.608   3.931   3.415
  688WAT     H1 2275   2.600   3.838   3.436
  688WAT     H2 2276   2.521   3.957   3.385
  689WAT      O 2277   0.663   4.362   1.281
  689WAT     H1 2278   0.697   4.281   1.319
  689WAT     H2 2279   0.568   4.357   1.293
  690WAT      O 2280   2.871   3.201   4.344
  690WAT     H1 2281   2.781   3.190   4.376
  690WAT     H2 2282   2.873   3.292   4.313
  691WAT      O 2283   3.742   0.851   1.305
  691WAT     H1 2284   3.732   0.905   1.227
  691WAT     H2 2285   3.828   0.875   1.340
  692WAT      O 2286   0.646   4.643   3.635
  692WAT     H1 2287   0.583   4.712   3.613
  692WAT     H2 2288   0.703   4.683   3.700
  693WAT      O 2289   2.165   4.359   1.682
  693WAT     H1 2290   2.113   4.439   1.684
  693WAT     H2 2291   2.101   4.289   1.672
  694WAT      O 2292   3.905   4.164   0.425
  694WAT     H1 2293   3.822   4.202   0.454
  694WAT     H2 2294   3.905   4.176   0.330
  695WAT      O 2295   1.381   3.450   2.640
  695WAT     H1 2296   1.428   3.529   2.665
  695WAT     H2 2297   1.318   3.435   2.710
  696WAT      O 2298   3.302   2.509   0.395
  696WAT     H1 2299   3.347   2.435   0.353
  696WAT     H2 2300   3.210   2.496   0.374
  697WAT      O 2301   2.198   1.948   4.759
  697WAT     H1 2302   2.145   1.888   4.813
  697WAT     H2 2303   2.146   2.028   4.756
  698WAT      O 2304   3.007   2.701   1.952
  698WAT     H1 2305   3.097   2.679   1.930
  698WAT     H2 2306   2.956   2.676   1.875
  699WAT      O 2307   1.236   0.961   0.391
  699WAT     H1 2308   1.199   0.926   0.310
  699WAT     H2 2309   1.188   0.915   0.460
  700WAT      O 2310   4.096   0.890   0.464
  700WAT     H1 2311   4.058   0.965   0.418
  700WAT     H2 2312   4.048   0.815   0.429
  701WAT      O 2313   1.685   2.710   3.103
  701WAT     H1 2314   1.724   2.783   3.055
  701WAT     H2 2315   1.749   2.639   3.095
  702WAT      O 2316   0.015   2.497   2.852
  702WAT     H1 2317  -0.080   2.506   2.839
  702WAT     H2 2318   0.038   2.416   2.807
  703WAT      O 2319   1.394   4.677   5.155
  703WAT     H1 2320   1.400   4.684   5.250
  703WAT     H2 2321   1.343   4.753   5.128
  704WAT      O 2322   1.786   1.022   2.639
  704WAT     H1 2323   1.756   0.938   2.675
  704WAT     H2 2324   1.743   1.029   2.554
  705WAT      O 2325   0.398   4.124   2.909
  705WAT     H1 2326   0.318   4.093   2.951
  705WAT     H2 2327   0.368   4.170   2.831
  706WAT      O 2328   3.679   4.878   1.426
  706WAT     H1 2329   3.703   4.910   1.339
  706WAT     H2 2330   3.740   4.806   1.442
  707WAT      O 2331   3.442   2.790   1.586
  707WAT     H1 2332   3.462   2.850   1.514
  707WAT     H2 2333   3.349   2.771   1.577
  708WAT      O 2334   4.143   4.600   2.187
  708WAT     H1 2335   4.056   4.610   2.149
  708WAT     H2 2336   4.137   4.643   2.272
  709WAT      O 2337   2.502   1.268   1.578
  709WAT     H1 2338   2.485   1.255   1.485
  709WAT     H2 2339   2.548   1.189   1.605
  710WAT      O 2340   3.100   3.579   4.243
  710WAT     H1 2341   3.134   3.498   4.205
  710WAT     H2 2342   3.132   3.648   4.185
  711WAT      O 2343   3.830   0.305   4.432
  711WAT     H1 2344   3.906   0.254   4.405
  711WAT     H2 2345   3.850   0.395   4.404
  712WAT      O 2346   1.406   2.991   4.717
  712WAT     H1 2347   1.430   3.066   4.771
  712WAT     H2 2348   1.488   2.967   4.673
  713WAT      O 2349   3.514   0.659   3.602
  713WAT     H1 2350   3.591   0.653   3.545
  713WAT     H2 2351   3.488   0.568   3.615
  714WAT      O 2352   4.469   4.617   4.223
  714WAT     H1 2353   4.511   4.635   4.139
  714WAT     H2 2354   4.398   4.556   4.201
  715WAT      O 2355   2.188   3.502   0.561
  715WAT     H1 2356   2.186   3.441   0.487
  715WAT     H2 2357   2.267   3.554   0.546
  716WAT      O 2358   1.356   4.271   0.649
  716WAT     H1 2359   1.444   4.301   0.626
  716WAT     H2 2360   1.348   4.186   0.606
  717WAT      O 2361   3.944   0.341   0.884
  717WAT     H1 2362   3.968   0.248   0.879
  717WAT     H2 2363   3.880   0.353   0.814
  718WAT      O 2364   2.303   1.033   4.659
  718WAT     H1 2365   2.225   1.072   4.700
  718WAT     H2 2366   2.280   0.941   4.646
  719WAT      O 2367   1.018   4.701   5.242
  719WAT     H1 2368   1.055   4.635   5.183
  719WAT     H2 2369   1.010   4.780   5.188
  720WAT      O 2370   3.545   3.586   3.890
  720WAT     H1 2371   3.561   3.660   3.831
  720WAT     H2 2372   3.515   3.515   3.833
  721WAT      O 2373   3.992   2.392   4.027
  721WAT     H1 2374   3.933   2.456   4.067
  721WAT     H2 2375   4.060   2.445   3.986
  722WAT      O 2376   1.440   1.470   0.689
  722WAT     H1 2377   1.460   1.534   0.620
  722WAT     H2 2378   1.461   1.516   0.771
  723WAT      O 2379   0.968   1.284   0.666
  723WAT     H1 2380   0.954   1.255   0.576
  723WAT     H2 2381   0.948   1.207   0.720
  724WAT      O 2382   2.110   1.461   0.114
  724WAT     H1 2383   2.135   1.546   0.077
  724WAT     H2 2384   2.184   1.403   0.094
  725WAT      O 2385   4.458   4.850   3.185
  725WAT     H1 2386   4.507   4.772   3.155
  725WAT     H2 2387   4.464   4.846   3.280
  726WAT      O 2388   0.546   1.764   3.738
  726WAT     H1 2389   0.475   1.712   3.701
  726WAT     H2 2390   0.508   1.804   3.816
  727WAT      O 2391   0.571   2.826   4.819
  727WAT     H1 2392   0.481   2.853   4.799
  727WAT     H2 2393   0.571   2.811   4.913
  728WAT      O 2394   3.939   1.060   1.696
  728WAT     H1 2395   3.979   1.133   1.744
  728WAT     H2 2396   3.974   1.068   1.608
  729WAT      O 2397   3.262   0.230   0.978
  729WAT     H1 2398   3.299   0.267   0.898
  729WAT     H2 2399   3.317   0.265   1.049
  730WAT      O 2400   0.514   2.134   4.416
  730WAT     H1 2401   0.494   2.152   4.508
  730WAT     H2 2402   0.478   2.210   4.369
  731WAT      O 2403   3.684   1.479   0.870
  731WAT     H1 2404   3.719   1.567   0.883
  731WAT     H2 2405   3.646   1.481   0.782
  732WAT      O 2406   2.668   1.771   2.865
  732WAT     H1 2407   2.628   1.762   2.951
  732WAT     H2 2408   2.725   1.695   2.856
  733WAT      O 2409   3.132   4.361   3.398
  733WAT     H1 2410   3.121   4.436   3.340
  733WAT     H2 2411   3.119   4.397   3.486
  734WAT      O 2412   1.921   1.114   3.427
  734WAT     H1 2413   1.849   1.140   3.368
  734WAT     H2 2414   1.878   1.062   3.495
  735WAT      O 2415   3.434   0.383   0.523
  735WAT     H1 2416   3.486   0.318   0.476
  735WAT     H2 2417   3.345   0.347   0.522
  736WAT      O 2418   0.409   1.663   4.436
  736WAT     H1 2419   0.422   1.570   4.418
  736WAT     H2 2420   0.408   1.704   4.349
  737WAT      O 2421   4.322   0.719   1.075
  737WAT     H1 2422   4.395   0.659   1.058
  737WAT     H2 2423   4.253   0.690   1.014
  738WAT      O 2424   1.012   3.185   4.368
  738WAT     H1 2425   0.953   3.112   4.387
  738WAT     H2 2426   1.081   3.177   4.435
  739WAT      O 2427   2.935   2.396   1.225
  739WAT     H1 2428   2.843   2.382   1.205
  739WAT     H2 2429   2.951   2.488   1.207
  740WAT      O 2430   3.951   4.888   2.297
  740WAT     H1 2431   3.866   4.857   2.326
  740WAT     H2 2432   4.014   4.838   2.349
  741WAT      O 2433   2.967   0.219   2.468
  741WAT     H1 2434   2.931   0.226   2.380
  741WAT     H2 2435   2.970   0.309   2.501
  742WAT      O 2436   4.124   1.698   1.114
  742WAT     H1 2437   4.207   1.734   1.083
  742WAT     H2 2438   4.063   1.713   1.041
  743WAT      O 2439   3.246   4.832   4.709
  743WAT     H1 2440   3.201   4.748   4.701
  743WAT     H2 2441   3.217   4.867   4.793
  744WAT      O 2442   2.912   3.508   1.711
  744WAT     H1 2443   2.993   3.558   1.720
  744WAT     H2 2444   2.883   3.494   1.801
  745WAT      O 2445   1.515   5.119   2.149
  745WAT     H1 2446   1.531   5.113   2.055
  745WAT     H2 2447   1.599   5.094   2.188
  746WAT      O 2448   1.255   2.839   3.110
  746WAT     H1 2449   1.331   2.786   3.134
  746WAT     H2 2450   1.209   2.854   3.193
  747WAT      O 2451   4.011   0.336   3.132
  747WAT     H1 2452   4.006   0.245   3.103
  747WAT     H2 2453   4.089   0.371   3.089
  748WAT      O 2454   0.941   0.158   3.721
  748WAT     H1 2455   0.865   0.101   3.716
  748WAT     H2 2456   0.958   0.184   3.630
  749WAT      O 2457   0.411   3.565   0.548
  749WAT     H1 2458   0.380   3.474   0.544
  749WAT     H2 2459   0.332   3.617   0.534
  750WAT      O 2460   1.229   4.974   2.703
  750WAT     H1 2461   1.253   5.057   2.744
  750WAT     H2 2462   1.291   4.911   2.739
  751WAT      O 2463   2.672   4.101   0.481
  751WAT     H1 2464   2.744   4.164   0.493
  751WAT     H2 2465   2.709   4.017   0.506
  752WAT      O 2466   1.541   4.471   2.546
  752WAT     H1 2467   1.590   4.473   2.628
  752WAT     H2 2468   1.490   4.552   2.546
  753WAT      O 2469   2.000   3.369   4.216
  753WAT     H1 2470   2.013   3.275   4.232
  753WAT     H2 2471   1.919   3.373   4.166
  754WAT      O 2472   2.997   1.672   3.923
  754WAT     H1 2473   3.006   1.702   3.833
  754WAT     H2 2474   3.032   1.744   3.976
  755WAT      O 2475   3.057   4.331   1.106
  755WAT     H1 2476   3.060   4.241   1.072
  755WAT     H2 2477   3.124   4.333   1.174
  756WAT      O 2478   3.093   4.571   3.208
  756WAT     H1 2479   3.064   4.610   3.125
  756WAT     H2 2480   3.188   4.572   3.203
  757WAT      O 2481   2.810   1.704   1.970
  757WAT     H1 2482   2.774   1.626   1.928
  757WAT     H2 2483   2.856   1.750   1.900
  758WAT      O 2484   2.633   0.005   0.671
  758WAT     H1 2485   2.630  -0.087   0.698
  758WAT     H2 2486   2.726   0.028   0.675
  759WAT      O 2487   2.006   3.402   3.789
  759WAT     H1 2488   1.938   3.422   3.725
  759WAT     H2 2489   2.071   3.471   3.777
  760WAT      O 2490   0.334   4.934   2.973
  760WAT     H1 2491   0.330   4.896   3.061
  760WAT     H2 2492   0.426   4.928   2.948
  761WAT      O 2493   2.403   4.923   1.860
  761WAT     H1 2494   2.486   4.889   1.895
  761WAT     H2 2495   2.338   4.860   1.891
  762WAT      O 2496   2.969   4.903   2.179
  762WAT     H1 2497   2.931   4.985   2.146
  762WAT     H2 2498   2.973   4.846   2.103
  763WAT      O 2499   1.968   1.507   1.444
  763WAT     H1 2500   1.942   1.460   1.364
  763WAT     H2 2501   1.957   1.442   1.513
  764WAT      O 2502   0.804   3.819   2.681
  764WAT     H1 2503   0.850   3.823   2.598
  764WAT     H2 2504   0.873   3.811   2.747
  765WAT      O 2505   0.471   0.761   4.792
  765WAT     H1 2506   0.384   0.796   4.775
  765WAT     H2 2507   0.495   0.797   4.878
  766WAT      O 2508   0.402   2.146   1.502
  766WAT     H1 2509   0.457   2.146   1.424
  766WAT     H2 2510   0.461   2.167   1.574
  767WAT      O 2511   3.196   4.540   2.688
  767WAT     H1 2512   3.167   4.550   2.598
  767WAT     H2 2513   3.290   4.557   2.686
  768WAT      O 2514   3.382   2.550   1.196
  768WAT     H1 2515   3.315   2.613   1.221
  768WAT     H2 2516   3.447   2.555   1.267
  769WAT      O 2517   1.761   1.560   5.074
  769WAT     H1 2518   1.691   1.586   5.134
  769WAT     H2 2519   1.783   1.471   5.100
  770WAT      O 2520   3.258   1.862   0.153
  770WAT     H1 2521   3.198   1.813   0.097
  770WAT     H2 2522   3.338   1.871   0.101
  771WAT      O 2523   0.399   3.949   4.164
  771WAT     H1 2524   0.402   4.029   4.218
  771WAT     H2 2525   0.481   3.904   4.184
  772WAT      O 2526   3.374   3.281   1.269
  772WAT     H1 2527   3.290   3.237   1.253
  772WAT     H2 2528   3.355   3.342   1.340
  773WAT      O 2529   3.575   0.445   0.077
  773WAT     H1 2530   3.642   0.421   0.141
  773WAT     H2 2531   3.531   0.363   0.057
  774WAT      O 2532   2.026   4.815   0.159
  774WAT     H1 2533   2.118   4.837   0.139
  774WAT     H2 2534   1.987   4.899   0.185
  775WAT      O 2535   4.199   2.901   1.089
  775WAT     H1 2536   4.249   2.874   1.167
  775WAT     H2 2537   4.150   2.978   1.117
  776WAT      O 2538   0.259   4.038   0.919
  776WAT     H1 2539   0.280   4.073   0.832
  776WAT     H2 2540   0.181   3.984   0.905
  777WAT      O 2541   1.146   1.457   1.593
  777WAT     H1 2542   1.142   1.466   1.498
  777WAT     H2 2543   1.135   1.546   1.626
  778WAT      O 2544   0.214   0.550   1.533
  778WAT     H1 2545   0.243   0.641   1.538
  778WAT     H2 2546   0.179   0.532   1.621
  779WAT      O 2547   4.033   3.157   2.462
  779WAT     H1 2548   4.035   3.189   2.372
  779WAT     H2 2549   3.947   3.116   2.472
  780WAT      O 2550   4.293   0.471   5.157
  780WAT     H1 2551   4.249   0.556   5.164
  780WAT     H2 2552   4.286   0.448   5.065
  781WAT      O 2553   3.848   1.469   4.286
  781WAT     H1 2554   3.779   1.531   4.310
  781WAT     H2 2555   3.856   1.479   4.191
  782WAT      O 2556   1.281   1.821   3.147
  782WAT     H1 2557   1.301   1.741   3.099
  782WAT     H2 2558   1.266   1.887   3.078
  783WAT      O 2559   3.658   0.883   4.658
  783WAT     H1 2560   3.579   0.902   4.709
  783WAT     H2 2561   3.728   0.927   4.706
  784WAT      O 2562   2.975   4.077   2.588
  784WAT     H1 2563   2.915   4.035   2.650
  784WAT     H2 2564   3.022   4.143   2.639
  785WAT      O 2565   4.286   0.137   2.454
  785WAT     H1 2566   4.327   0.168   2.373
  785WAT     H2 2567   4.354   0.087   2.498
  786WAT      O 2568   1.084   0.323   3.869
  786WAT     H1 2569   1.158   0.265   3.883
  786WAT     H2 2570   1.030   0.279   3.803
  787WAT      O 2571   3.328   0.699   3.963
  787WAT     H1 2572   3.364   0.716   4.050
  787WAT     H2 2573   3.234   0.713   3.971
  788WAT      O 2574   2.010   1.366   0.725
  788WAT     H1 2575   1.959   1.408   0.794
  788WAT     H2 2576   1.973   1.401   0.644
  789WAT      O 2577   2.000   0.121   2.730
  789WAT     H1 2578   1.954   0.179   2.669
  789WAT     H2 2579   1.963   0.141   2.816
  790WAT      O 2580   0.811   3.410   3.987
  790WAT     H1 2581   0.759   3.410   4.068
  790WAT     H2 2582   0.803   3.320   3.954
  791WAT      O 2583   1.566   0.442   0.891
  791WAT     H1 2584   1.615   0.392   0.826
  791WAT     H2 2585   1.603   0.530   0.886
  792WAT      O 2586   1.386   0.390   1.390
  792WAT     H1 2587   1.396   0.326   1.460
  792WAT     H2 2588   1.381   0.338   1.310
  793WAT      O 2589   1.217   2.261   2.888
  793WAT     H1 2590   1.241   2.272   2.796
  793WAT     H2 2591   1.143   2.321   2.900
  794WAT      O 2592   1.407   3.444   5.010
  794WAT     H1 2593   1.479   3.439   4.948
  794WAT     H2 2594   1.443   3.492   5.085
  795WAT      O 2595   0.363   2.965   1.501
  795WAT     H1 2596   0.409   2.982   1.419
  795WAT     H2 2597   0.429   2.978   1.569
  796WAT      O 2598   1.457   1.978   2.761
  796WAT     H1 2599   1.520   1.931   2.816
  796WAT     H2 2600   1.373   1.966   2.807
  797WAT      O 2601   2.495   0.648   3.979
  797WAT     H1 2602   2.436   0.697   4.035
  797WAT     H2 2603   2.574   0.702   3.974
  798WAT      O 2604   3.911   1.214   1.140
  798WAT     H1 2605   3.846   1.201   1.071
  798WAT     H2 2606   3.862   1.250   1.214
  799WAT      O 2607   3.654   2.169   4.426
  799WAT     H1 2608   3.681   2.205   4.342
  799WAT     H2 2609   3.679   2.077   4.422
  800WAT      O 2610   1.026   1.820   4.921
  800WAT     H1 2611   1.030   1.764   4.998
  800WAT     H2 2612   0.939   1.860   4.925
  801WAT      O 2613   3.227   2.851   5.216
  801WAT     H1 2614   3.196   2.781   5.272
  801WAT     H2 2615   3.151   2.907   5.201
  802WAT      O 2616   1.684   4.498   1.815
  802WAT     H1 2617   1.678   4.453   1.730
  802WAT     H2 2618   1.595   4.499   1.848
  803WAT      O 2619   1.983   2.639   2.894
  803WAT     H1 2620   1.907   2.607   2.943
  803WAT     H2 2621   1.962   2.731   2.875
  804WAT      O 2622   0.024   2.480   4.931
  804WAT     H1 2623   0.024   2.525   5.015
  804WAT     H2 2624   0.117   2.468   4.911
  805WAT      O 2625   1.353   0.191   4.409
  805WAT     H1 2626   1.294   0.249   4.458
  805WAT     H2 2627   1.308   0.177   4.325
  806WAT      O 2628   0.628   3.299   4.159
  806WAT     H1 2629   0.629   3.242   4.082
  806WAT     H2 2630   0.537   3.293   4.191
  807WAT      O 2631   2.541   5.087   2.738
  807WAT     H1 2632   2.446   5.078   2.748
  807WAT     H2 2633   2.559   5.180   2.754
  808WAT      O 2634   3.887   4.457   4.256
  808WAT     H1 2635   3.863   4.401   4.182
  808WAT     H2 2636   3.982   4.447   4.264
  809WAT      O 2637   1.452   1.391   0.381
  809WAT     H1 2638   1.449   1.360   0.472
  809WAT     H2 2639   1.401   1.326   0.332
  810WAT      O 2640   3.472   4.696   1.196
  810WAT     H1 2641   3.425   4.640   1.134
  810WAT     H2 2642   3.474   4.782   1.153
  811WAT      O 2643   1.406   3.798   2.240
  811WAT     H1 2644   1.480   3.739   2.254
  811WAT     H2 2645   1.358   3.759   2.167
  812WAT      O 2646   3.427   1.693   1.637
  812WAT     H1 2647   3.481   1.663   1.564
  812WAT     H2 2648   3.444   1.787   1.643
  813WAT      O 2649   1.185   0.944   5.144
  813WAT     H1 2650   1.097   0.914   5.121
  813WAT     H2 2651   1.232   0.865   5.170
  814WAT      O 2652   0.728   3.160   3.928
  814WAT     H1 2653   0.793   3.098   3.962
  814WAT     H2 2654   0.735   3.151   3.833
  815WAT      O 2655   3.817   0.065   4.838
  815WAT     H1 2656   3.886   0.040   4.899
  815WAT     H2 2657   3.737   0.030   4.876
  816WAT      O 2658   1.310   3.845   2.495
  816WAT     H1 2659   1.319   3.840   2.400
  816WAT     H2 2660   1.250   3.774   2.518
  817WAT      O 2661   3.783   2.178   1.738
  817WAT     H1 2662   3.765   2.123   1.662
  817WAT     H2 2663   3.860   2.230   1.713
  818WAT      O 2664   2.143   4.260   3.318
  818WAT     H1 2665   2.113   4.328   3.258
  818WAT     H2 2666   2.166   4.308   3.398
  819WAT      O 2667   4.458   4.909   0.457
  819WAT     H1 2668   4.424   4.860   0.532
  819WAT     H2 2669   4.546   4.874   0.443
  820WAT      O 2670   1.904   3.751   1.964
  820WAT     H1 2671   1.850   3.806   2.019
  820WAT     H2 2672   1.988   3.747   2.009
  821WAT      O 2673   3.260   3.776   3.375
  821WAT     H1 2674   3.326   3.838   3.342
  821WAT     H2 2675   3.236   3.724   3.298
  822WAT      O 2676   0.048   2.695   3.914
  822WAT     H1 2677   0.076   2.607   3.939
  822WAT     H2 2678   0.037   2.690   3.819
  823WAT      O 2679   2.711   2.265   4.637
  823WAT     H1 2680   2.711   2.270   4.541
  823WAT     H2 2681   2.623   2.234   4.659
  824WAT      O 2682   2.331   2.269   4.356
  824WAT     H1 2683   2.248   2.301   4.391
  824WAT     H2 2684   2.359   2.338   4.296
  825WAT      O 2685   4.149   1.557   2.190
  825WAT     H1 2686   4.224   1.565   2.249
  825WAT     H2 2687   4.167   1.478   2.138
  826WAT      O 2688   1.517   2.769   0.747
  826WAT     H1 2689   1.440   2.822   0.725
  826WAT     H2 2690   1.590   2.831   0.743
  827WAT      O 2691   2.811   0.940   4.405
  827WAT     H1 2692   2.847   0.955   4.492
  827WAT     H2 2693   2.783   1.027   4.375
  828WAT      O 2694   3.912   0.057   1.715
  828WAT     H1 2695   3.985   0.016   1.670
  828WAT     H2 2696   3.921   0.028   1.806
  829WAT      O 2697   3.737   4.062   2.961
  829WAT     H1 2698   3.734   4.042   3.055
  829WAT     H2 2699   3.714   4.155   2.956
  830WAT      O 2700   0.516   5.085   3.529
  830WAT     H1 2701   0.610   5.099   3.525
  830WAT     H2 2702   0.506   4.997   3.566
  831WAT      O 2703   2.890   2.463   2.794
  831WAT     H1 2704   2.862   2.398   2.729
  831WAT     H2 2705   2.907   2.542   2.742
  832WAT      O 2706   1.867   2.884   2.994
  832WAT     H1 2707   1.955   2.880   3.032
  832WAT     H2 2708   1.831   2.966   3.026
  833WAT      O 2709   3.028   1.796   0.009
  833WAT     H1 2710   2.994   1.707  -0.004
  833WAT     H2 2711   2.950   1.851   0.015
  834WAT      O 2712   0.823   3.891   1.302
  834WAT     H1 2713   0.875   3.862   1.376
  834WAT     H2 2714   0.789   3.810   1.263
  835WAT      O 2715   1.800   3.833   3.949
  835WAT     H1 2716   1.892   3.839   3.922
  835WAT     H2 2717   1.759   3.780   3.880
  836WAT      O 2718   1.027   1.974   2.332
  836WAT     H1 2719   1.075   2.007   2.255
  836WAT     H2 2720   1.037   1.879   2.328
  837WAT      O 2721   3.317   2.744   4.293
  837WAT     H1 2722   3.410   2.727   4.273
  837WAT     H2 2723   3.319   2.821   4.350
  838WAT      O 2724   3.692   4.309   1.130
  838WAT     H1 2725   3.656   4.375   1.189
  838WAT     H2 2726   3.634   4.233   1.140
  839WAT      O 2727   1.362   4.829   4.013
  839WAT     H1 2728   1.431   4.796   3.955
  839WAT     H2 2729   1.297   4.759   4.015
  840WAT      O 2730   1.680   0.240   3.863
  840WAT     H1 2731   1.665   0.316   3.918
  840WAT     H2 2732   1.716   0.275   3.782
  841WAT      O 2733   3.623   0.161   4.297
  841WAT     H1 2734   3.691   0.207   4.346
  841WAT     H2 2735   3.666   0.135   4.215
  842WAT      O 2736   4.359   1.678   2.485
  842WAT     H1 2737   4.404   1.649   2.564
  842WAT     H2 2738   4.396   1.624   2.415
  843WAT      O 2739   0.800   0.133   2.744
  843WAT     H1 2740   0.792   0.082   2.824
  843WAT     H2 2741   0.742   0.208   2.759
  844WAT      O 2742   0.201   2.284   3.527
  844WAT     H1 2743   0.275   2.285   3.588
  844WAT     H2 2744   0.215   2.205   3.474
  845WAT      O 2745   0.268   1.996   1.244
  845WAT     H1 2746   0.329   2.069   1.254
  845WAT     H2 2747   0.221   2.016   1.163
  846WAT      O 2748   3.143   0.606   3.117
  846WAT     H1 2749   3.228   0.648   3.106
  846WAT     H2 2750   3.148   0.563   3.203
  847WAT      O 2751   1.438   4.660   3.543
  847WAT     H1 2752   1.480   4.595   3.601
  847WAT     H2 2753   1.496   4.736   3.546
  848WAT      O 2754   1.036   3.883   2.288
  848WAT     H1 2755   0.958   3.938   2.294
  848WAT     H2 2756   1.095   3.932   2.231
  849WAT      O 2757   2.389   2.522   2.886
  849WAT     H1 2758   2.448   2.449   2.863
  849WAT     H2 2759   2.347   2.546   2.803
  850WAT      O 2760   0.886   0.278   4.045
  850WAT     H1 2761   0.936   0.201   4.072
  850WAT     H2 2762   0.942   0.322   3.981
  851WAT      O 2763   2.299   1.368   0.918
  851WAT     H1 2764   2.256   1.408   0.994
  851WAT     H2 2765   2.231   1.313   0.879
  852WAT      O 2766   2.680   3.606   4.840
  852WAT     H1 2767   2.774   3.593   4.832
  852WAT     H2 2768   2.642   3.554   4.770
  853WAT      O 2769   3.373   0.175   0.725
  853WAT     H1 2770   3.436   0.247   0.723
  853WAT     H2 2771   3.296   0.208   0.680
  854WAT      O 2772   0.653   1.174   1.248
  854WAT     H1 2773   0.697   1.103   1.201
  854WAT     H2 2774   0.563   1.172   1.216
  855WAT      O 2775   2.769   4.158   0.129
  855WAT     H1 2776   2.832   4.112   0.184
  855WAT     H2 2777   2.812   4.166   0.044
  856WAT      O 2778   1.953   4.795   1.529
  856WAT     H1 2779   1.858   4.809   1.527
  856WAT     H2 2780   1.970   4.738   1.454
  857WAT      O 2781   0.405   4.024   1.347
  857WAT     H1 2782   0.403   3.967   1.270
  857WAT     H2 2783   0.479   3.992   1.399
  858WAT      O 2784   2.183   0.995   1.728
  858WAT     H1 2785   2.151   0.912   1.764
  858WAT     H2 2786   2.273   0.977   1.701
  859WAT      O 2787   0.679   4.561   3.164
  859WAT     H1 2788   0.683   4.569   3.069
  859WAT     H2 2789   0.656   4.469   3.179
  860WAT      O 2790   3.403   3.088   3.294
  860WAT     H1 2791   3.368   3.127   3.214
  860WAT     H2 2792   3.412   2.995   3.273
  861WAT      O 2793   2.967   1.793   1.759
  861WAT     H1 2794   3.048   1.743   1.752
  861WAT     H2 2795   2.989   1.868   1.814
  862WAT      O 2796   1.116   2.611   2.677
  862WAT     H1 2797   1.140   2.692   2.723
  862WAT     H2 2798   1.081   2.554   2.745
  863WAT      O 2799   4.494   2.029   4.757
  863WAT     H1 2800   4.546   2.063   4.685
  863WAT     H2 2801   4.545   2.049   4.835
  864WAT      O 2802   0.270   3.142   2.348
  864WAT     H1 2803   0.346   3.135   2.406
  864WAT     H2 2804   0.200   3.095   2.393
  865WAT      O 2805   4.479   1.018   1.581
  865WAT     H1 2806   4.529   1.067   1.646
  865WAT     H2 2807   4.499   1.063   1.498
  866WAT      O 2808   2.496   4.910   4.506
  866WAT     H1 2809   2.403   4.887   4.516
  866WAT     H2 2810   2.509   4.918   4.412
  867WAT      O 2811   0.205   3.286   2.683
  867WAT     H1 2812   0.272   3.220   2.668
  867WAT     H2 2813   0.156   3.254   2.760
  868WAT      O 2814   4.094   1.017   0.071
  868WAT     H1 2815   4.138   0.963   0.006
  868WAT     H2 2816   4.128   1.105   0.055
  869WAT      O 2817   2.534   3.380   2.672
  869WAT     H1 2818   2.536   3.363   2.578
  869WAT     H2 2819   2.491   3.465   2.680
  870WAT      O 2820   2.806   3.793   3.000
  870WAT     H1 2821   2.866   3.834   3.063
  870WAT     H2 2822   2.779   3.865   2.943
  871WAT      O 2823   3.966   3.665   5.082
  871WAT     H1 2824   3.932   3.598   5.142
  871WAT     H2 2825   3.961   3.625   4.995
  872WAT      O 2826   2.581   3.726   5.055
  872WAT     H1 2827   2.591   3.666   4.981
  872WAT     H2 2828   2.649   3.699   5.117
  873WAT      O 2829   2.370   0.331   1.742
  873WAT     H1 2830   2.385   0.399   1.808
  873WAT     H2 2831   2.378   0.249   1.790
  874WAT      O 2832   3.717   4.937   2.991
  874WAT     H1 2833   3.754   4.856   3.027
  874WAT     H2 2834   3.626   4.937   3.021
  875WAT      O 2835   0.480   3.788   0.402
  875WAT     H1 2836   0.475   3.720   0.470
  875WAT     H2 2837   0.413   3.762   0.338
  876WAT      O 2838   0.189   4.861   0.632
  876WAT     H1 2839   0.148   4.845   0.717
  876WAT     H2 2840   0.251   4.932   0.649
  877WAT      O 2841   1.714   1.694   1.018
  877WAT     H1 2842   1.793   1.639   1.014
  877WAT     H2 2843   1.734   1.769   0.963
  878WAT      O 2844   0.049   0.573   1.028
  878WAT     H1 2845   0.065   0.575   0.934
  878WAT     H2 2846   0.129   0.536   1.066
  879WAT      O 2847   3.137   0.380   5.126
  879WAT     H1 2848   3.109   0.378   5.217
  879WAT     H2 2849   3.058   0.360   5.076
  880WAT      O 2850   1.733   1.115   0.246
  880WAT     H1 2851   1.776   1.190   0.287
  880WAT     H2 2852   1.648   1.109   0.291
  881WAT      O 2853   2.284   4.480   1.926
  881WAT     H1 2854   2.249   4.464   1.838
  881WAT     H2 2855   2.366   4.432   1.928
  882WAT      O 2856   2.640   0.274   4.864
  882WAT     H1 2857   2.716   0.326   4.837
  882WAT     H2 2858   2.618   0.222   4.786
  883WAT      O 2859   1.907   4.380   2.243
  883WAT     H1 2860   1.881   4.334   2.163
  883WAT     H2 2861   1.996   4.411   2.226
  884WAT      O 2862   0.261   0.095   5.216
  884WAT     H1 2863   0.182   0.142   5.243
  884WAT     H2 2864   0.236   0.048   5.137
  885WAT      O 2865   4.489   0.415   0.575
  885WAT     H1 2866   4.551   0.346   0.552
  885WAT     H2 2867   4.406   0.388   0.536
  886WAT      O 2868   3.513   1.939   4.832
  886WAT     H1 2869   3.550   1.850   4.827
  886WAT     H2 2870   3.549   1.976   4.912
  887WAT      O 2871   0.565   2.154   3.174
  887WAT     H1 2872   0.593   2.133   3.263
  887WAT     H2 2873   0.637   2.204   3.137
  888WAT      O 2874   1.332   3.325   0.828
  888WAT     H1 2875   1.373   3.344   0.743
  888WAT     H2 2876   1.377   3.382   0.890
  889WAT      O 2877   1.595   4.054   3.972
  889WAT     H1 2878   1.512   4.022   3.938
  889WAT     H2 2879   1.649   3.976   3.982
  890WAT      O 2880   1.707   4.994   1.332
  890WAT     H1 2881   1.639   5.007   1.398
  890WAT     H2 2882   1.784   5.037   1.368
  891WAT      O 2883   4.040   0.208   3.848
  891WAT     H1 2884   4.032   0.127   3.799
  891WAT     H2 2885   4.131   0.211   3.875
  892WAT      O 2886   2.456   5.088   5.159
  892WAT     H1 2887   2.533   5.038   5.131
  892WAT     H2 2888   2.456   5.166   5.103
  893WAT      O 2889   3.382   0.570   4.239
  893WAT     H1 2890   3.318   0.514   4.283
  893WAT     H2 2891   3.375   0.654   4.283
  894WAT      O 2892   1.374   0.607   4.712
  894WAT     H1 2893   1.436   0.634   4.781
  894WAT     H2 2894   1.431   0.582   4.638
  895WAT      O 2895   1.493   3.018   1.920
  895WAT     H1 2896   1.563   3.060   1.871
  895WAT     H2 2897   1.488   2.929   1.884
  896WAT      O 2898   0.981   5.032   0.135
  896WAT     H1 2899   0.893   4.999   0.121
  896WAT     H2 2900   0.970   5.125   0.153
  897WAT      O 2901   3.839   3.010   2.833
  897WAT     H1 2902   3.843   3.074   2.762
  897WAT     H2 2903   3.751   3.020   2.869
  898WAT      O 2904   1.165   2.207   2.420
  898WAT     H1 2905   1.101   2.137   2.405
  898WAT     H2 2906   1.249   2.161   2.425
  899WAT      O 2907   2.150   2.760   2.595
  899WAT     H1 2908   2.069   2.729   2.555
  899WAT     H2 2909   2.192   2.680   2.628
  900WAT      O 2910   3.637   1.914   0.346
  900WAT     H1 2911   3.572   1.979   0.372
  900WAT     H2 2912   3.679   1.951   0.269
  901WAT      O 2913   4.386   4.268   0.895
  901WAT     H1 2914   4.330   4.226   0.960
  901WAT     H2 2915   4.473   4.270   0.936
  902WAT      O 2916   2.499   3.345   2.399
  902WAT     H1 2917   2.435   3.384   2.340
  902WAT     H2 2918   2.581   3.347   2.350
  903WAT      O 2919   3.907   0.169   1.198
  903WAT     H1 2920   3.965   0.240   1.228
  903WAT     H2 2921   3.964   0.092   1.196
  904WAT      O 2922   0.586   4.198   0.448
  904WAT     H1 2923   0.603   4.223   0.539
  904WAT     H2 2924   0.637   4.260   0.397
  905WAT      O 2925   3.603   4.494   1.333
  905WAT     H1 2926   3.568   4.572   1.290
  905WAT     H2 2927   3.654   4.528   1.407
  906WAT      O 2928   0.212   0.405   5.234
  906WAT     H1 2929   0.264   0.435   5.160
  906WAT     H2 2930   0.141   0.354   5.194
  907WAT      O 2931   4.099   1.495   3.677
  907WAT     H1 2932   4.057   1.580   3.664
  907WAT     H2 2933   4.103   1.484   3.772
  908WAT      O 2934   1.786   1.221   4.375
  908WAT     H1 2935   1.740   1.141   4.348
  908WAT     H2 2936   1.729   1.292   4.344
  909WAT      O 2937   1.040   4.373   2.237
  909WAT     H1 2938   0.960   4.350   2.285
  909WAT     H2 2939   1.100   4.404   2.304
  910WAT      O 2940   0.690   3.924   2.136
  910WAT     H1 2941   0.725   3.870   2.064
  910WAT     H2 2942   0.596   3.928   2.119
  911WAT      O 2943   0.827   4.337   2.693
  911WAT     H1 2944   0.867   4.338   2.606
  911WAT     H2 2945   0.757   4.272   2.686
  912WAT      O 2946   0.862   4.317   0.284
  912WAT     H1 2947   0.886   4.309   0.377
  912WAT     H2 2948   0.935   4.365   0.245
  913WAT      O 2949   3.873   1.276   0.807
  913WAT     H1 2950   3.842   1.362   0.836
  913WAT     H2 2951   3.795   1.233   0.772
  914WAT      O 2952   3.699   3.423   2.961
  914WAT     H1 2953   3.712   3.517   2.950
  914WAT     H2 2954   3.719   3.407   3.054
  915WAT      O 2955   3.874   3.504   0.024
  915WAT     H1 2956   3.908   3.467  -0.057
  915WAT     H2 2957   3.934   3.473   0.092
  916WAT      O 2958   4.309   0.073   3.312
  916WAT     H1 2959   4.397   0.041   3.331
  916WAT     H2 2960   4.311   0.165   3.340
  917WAT      O 2961   3.174   0.048   4.724
  917WAT     H1 2962   3.099  -0.009   4.735
  917WAT     H2 2963   3.198   0.038   4.632
  918WAT      O 2964   3.165   3.682   0.472
  918WAT     H1 2965   3.222   3.757   0.457
  918WAT     H2 2966   3.218   3.622   0.526
  919WAT      O 2967   1.708   2.943   1.091
  919WAT     H1 2968   1.693   3.026   1.045
  919WAT     H2 2969   1.741   2.884   1.024
  920WAT      O 2970   1.963   0.538   3.767
  920WAT     H1 2971   1.899   0.490   3.715
  920WAT     H2 2972   1.991   0.475   3.833
  921WAT      O 2973   2.670   2.875   1.604
  921WAT     H1 2974   2.678   2.858   1.510
  921WAT     H2 2975   2.631   2.962   1.610
  922WAT      O 2976   3.539   3.962   1.723
  922WAT     H1 2977   3.607   4.011   1.770
  922WAT     H2 2978   3.557   3.870   1.746
  923WAT      O 2979   4.238   3.422   2.497
  923WAT     H1 2980   4.273   3.467   2.420
  923WAT     H2 2981   4.179   3.355   2.461
  924WAT      O 2982   0.859   2.699   2.593
  924WAT     H1 2983   0.953   2.688   2.610
  924WAT     H2 2984   0.845   2.658   2.508
  925WAT      O 2985   3.250   2.614   4.624
  925WAT     H1 2986   3.253   2.653   4.537
  925WAT     H2 2987   3.327   2.558   4.628
  926WAT      O 2988   2.646   2.969   4.142
  926WAT     H1 2989   2.567   3.022   4.135
  926WAT     H2 2990   2.691   2.981   4.059
  927WAT      O 2991   3.945   4.152   2.075
  927WAT     H1 2992   4.011   4.157   2.144
  927WAT     H2 2993   3.989   4.182   1.996
  928WAT      O 2994   2.218   0.422   3.955
  928WAT     H1 2995   2.162   0.351   3.924
  928WAT     H2 2996   2.302   0.408   3.911
  929WAT      O 2997   0.203   3.434   4.102
  929WAT     H1 2998   0.132   3.448   4.039
  929WAT     H2 2999   0.283   3.457   4.053
  930WAT      O 3000   1.307   4.845   1.988
  930WAT     H1 3001   1.353   4.876   1.910
  930WAT     H2 3002   1.373   4.795   2.036
  931WAT      O 3003   2.309   3.945   2.507
  931WAT     H1 3004   2.265   3.963   2.590
  931WAT     H2 3005   2.401   3.935   2.530
  932WAT      O 3006   2.418   2.410   3.843
  932WAT     H1 3007   2.414   2.363   3.759
  932WAT     H2 3008   2.472   2.354   3.899
  933WAT      O 3009   3.223   3.782   4.088
  933WAT     H1 3010   3.195   3.785   3.997
  933WAT     H2 3011   3.179   3.857   4.129
  934WAT      O 3012   0.348   0.042   3.880
  934WAT     H1 3013   0.308   0.090   3.808
  934WAT     H2 3014   0.283   0.044   3.950
  935WAT      O 3015   1.710   3.996   3.615
  935WAT     H1 3016   1.779   4.044   3.571
  935WAT     H2 3017   1.629   4.030   3.577
  936WAT      O 3018   0.662   1.174   3.491
  936WAT     H1 3019   0.627   1.089   3.516
  936WAT     H2 3020   0.754   1.157   3.471
  937WAT      O 3021   0.024   2.436   4.079
  937WAT     H1 3022  -0.048   2.413   4.139
  937WAT     H2 3023   0.044   2.355   4.033
  938WAT      O 3024   0.575   0.673   1.573
  938WAT     H1 3025   0.667   0.693   1.595
  938WAT     H2 3026   0.525   0.711   1.645
  939WAT      O 3027   4.358   1.739   5.152
  939WAT     H1 3028   4.339   1.833   5.153
  939WAT     H2 3029   4.452   1.734   5.170
  940WAT      O 3030   0.176   0.284   2.533
  940WAT     H1 3031   0.151   0.270   2.441
  940WAT     H2 3032   0.113   0.349   2.565
  941WAT      O 3033   1.933   4.939   4.261
  941WAT     H1 3034   1.904   4.859   4.305
  941WAT     H2 3035   1.887   4.939   4.177
  942WAT      O 3036   4.070   0.918   1.982
  942WAT     H1 3037   4.129   0.931   2.056
  942WAT     H2 3038   4.112   0.962   1.909
  943WAT      O 3039   4.293   1.445   1.923
  943WAT     H1 3040   4.328   1.446   1.834
  943WAT     H2 3041   4.369   1.429   1.978
  944WAT      O 3042   1.830   3.244   0.217
  944WAT     H1 3043   1.924   3.256   0.208
  944WAT     H2 3044   1.802   3.313   0.277
  945WAT      O 3045   1.446   0.401   1.894
  945WAT     H1 3046   1.432   0.335   1.961
  945WAT     H2 3047   1.528   0.375   1.851
  946WAT      O 3048   3.533   1.701   4.017
  946WAT     H1 3049   3.612   1.713   3.963
  946WAT     H2 3050   3.541   1.769   4.084
  947WAT      O 3051   3.118   3.791   2.666
  947WAT     H1 3052   3.091   3.746   2.586
  947WAT     H2 3053   3.191   3.846   2.639
  948WAT      O 3054   4.495   1.513   4.514
  948WAT     H1 3055   4.453   1.535   4.597
  948WAT     H2 3056   4.577   1.563   4.514
  949WAT      O 3057   1.907   3.049   0.768
  949WAT     H1 3058   1.885   2.959   0.789
  949WAT     H2 3059   1.961   3.079   0.841
  950WAT      O 3060   0.559   1.596   2.780
  950WAT     H1 3061   0.654   1.592   2.790
  950WAT     H2 3062   0.531   1.658   2.848
  951WAT      O 3063   3.211   4.130   3.482
  951WAT     H1 3064   3.177   4.203   3.431
  951WAT     H2 3065   3.135   4.098   3.531
  952WAT      O 3066   0.979   1.864   2.910
  952WAT     H1 3067   0.914   1.928   2.881
  952WAT     H2 3068   0.943   1.829   2.992
  953WAT      O 3069   3.301   4.554   1.663
  953WAT     H1 3070   3.358   4.615   1.710
  953WAT     H2 3071   3.311   4.578   1.571
  954WAT      O 3072   4.163   4.048   0.213
  954WAT     H1 3073   4.143   4.028   0.305
  954WAT     H2 3074   4.178   4.143   0.213
  955WAT      O 3075   2.136   3.414   1.562
  955WAT     H1 3076   2.175   3.357   1.628
  955WAT     H2 3077   2.186   3.395   1.482
  956WAT      O 3078   4.358   0.137   3.850
  956WAT     H1 3079   4.374   0.227   3.876
  956WAT     H2 3080   4.414   0.123   3.774
  957WAT      O 3081   3.123   1.205   0.092
  957WAT     H1 3082   3.195   1.268   0.104
  957WAT     H2 3083   3.074   1.240   0.018
  958WAT      O 3084   1.415   4.434   2.896
  958WAT     H1 3085   1.365   4.492   2.839
  958WAT     H2 3086   1.503   4.433   2.859
  959WAT      O 3087   3.151   2.718   1.272
  959WAT     H1 3088   3.138   2.786   1.338
  959WAT     H2 3089   3.100   2.747   1.197
  960WAT      O 3090   3.597   0.807   2.592
  960WAT     H1 3091   3.645   0.791   2.510
  960WAT     H2 3092   3.646   0.877   2.635
  961WAT      O 3093   1.306   0.521   3.595
  961WAT     H1 3094   1.326   0.479   3.512
  961WAT     H2 3095   1.383   0.505   3.650
  962WAT      O 3096   3.103   0.795   1.240
  962WAT     H1 3097   3.073   0.828   1.156
  962WAT     H2 3098   3.153   0.716   1.219
  963WAT      O 3099   1.187   0.445   4.141
  963WAT     H1 3100   1.201   0.485   4.055
  963WAT     H2 3101   1.270   0.460   4.187
  964WAT      O 3102   4.273   1.781   4.052
  964WAT     H1 3103   4.331   1.783   4.129
  964WAT     H2 3104   4.318   1.834   3.987
  965WAT      O 3105   3.713   0.395   0.420
  965WAT     H1 3106   3.794   0.423   0.464
  965WAT     H2 3107   3.743   0.349   0.342
  966WAT      O 3108   3.897   0.221   4.071
  966WAT     H1 3109   3.824   0.283   4.071
  966WAT     H2 3110   3.938   0.233   3.985
  967WAT      O 3111   1.963   0.555   2.445
  967WAT     H1 3112   1.990   0.556   2.353
  967WAT     H2 3113   2.014   0.625   2.485
  968WAT      O 3114   1.434   2.186   2.188
  968WAT     H1 3115   1.373   2.251   2.223
  968WAT     H2 3116   1.515   2.200   2.237
  969WAT      O 3117   2.690   2.485   3.752
  969WAT     H1 3118   2.601   2.485   3.786
  969WAT     H2 3119   2.745   2.470   3.829
  970WAT      O 3120   0.031   4.192   2.977
  970WAT     H1 3121   0.043   4.261   2.912
  970WAT     H2 3122   0.087   4.120   2.946
  971WAT      O 3123   4.000   4.425   3.740
  971WAT     H1 3124   4.068   4.489   3.718
  971WAT     H2 3125   4.034   4.380   3.818
  972WAT      O 3126   4.105   3.182   2.742
  972WAT     H1 3127   4.132   3.091   2.728
  972WAT     H2 3128   4.083   3.214   2.655
  973WAT      O 3129   0.997   3.886   4.360
  973WAT     H1 3130   0.926   3.825   4.339
  973WAT     H2 3131   1.075   3.831   4.367
  974WAT      O 3132   2.558   3.941   4.028
  974WAT     H1 3133   2.532   4.033   4.041
  974WAT     H2 3134   2.597   3.940   3.941
  975WAT      O 3135   2.414   3.956   0.094
  975WAT     H1 3136   2.492   3.900   0.098
  975WAT     H2 3137   2.438   4.026   0.033
  976WAT      O 3138   0.929   0.845   1.898
  976WAT     H1 3139   0.951   0.787   1.971
  976WAT     H2 3140   1.013   0.864   1.856
  977WAT      O 3141   4.311   0.075   4.638
  977WAT     H1 3142   4.239   0.018   4.664
  977WAT     H2 3143   4.272   0.136   4.576
  978WAT      O 3144   2.273   0.694   0.734
  978WAT     H1 3145   2.276   0.614   0.786
  978WAT     H2 3146   2.180   0.717   0.731
  979WAT      O 3147   3.736   3.967   3.226
  979WAT     H1 3148   3.657   3.915   3.244
  979WAT     H2 3149   3.807   3.914   3.261
  980WAT      O 3150   3.352   4.203   4.692
  980WAT     H1 3151   3.371   4.150   4.615
  980WAT     H2 3152   3.437   4.241   4.715
  981WAT      O 3153   1.169   0.595   3.856
  981WAT     H1 3154   1.238   0.601   3.789
  981WAT     H2 3155   1.148   0.502   3.860
  982WAT      O 3156   0.864   0.808   0.995
  982WAT     H1 3157   0.783   0.757   0.988
  982WAT     H2 3158   0.928   0.746   1.029
  983WAT      O 3159   1.379   1.420   1.265
  983WAT     H1 3160   1.425   1.381   1.191
  983WAT     H2 3161   1.374   1.349   1.330
  984WAT      O 3162   3.405   0.758   3.062
  984WAT     H1 3163   3.435   0.683   3.113
  984WAT     H2 3164   3.452   0.832   3.098
  985WAT      O 3165   2.496   4.418   2.897
  985WAT     H1 3166   2.454   4.380   2.975
  985WAT     H2 3167   2.535   4.499   2.928
  986WAT      O 3168   3.402   2.972   0.434
  986WAT     H1 3169   3.458   2.934   0.502
  986WAT     H2 3170   3.381   2.898   0.377
  987WAT      O 3171   2.400   4.218   1.615
  987WAT     H1 3172   2.344   4.293   1.634
  987WAT     H2 3173   2.345   4.141   1.630
  988WAT      O 3174   4.207   1.445   1.165
  988WAT     H1 3175   4.168   1.527   1.135
  988WAT     H2 3176   4.287   1.437   1.114
  989WAT      O 3177   3.330   1.641   1.007
  989WAT     H1 3178   3.283   1.592   1.076
  989WAT     H2 3179   3.270   1.712   0.983
  990WAT      O 3180   1.979   1.094   0.780
  990WAT     H1 3181   2.000   1.182   0.751
  990WAT     H2 3182   1.884   1.094   0.789
  991WAT      O 3183   1.324   4.398   3.870
  991WAT     H1 3184   1.332   4.424   3.961
  991WAT     H2 3185   1.246   4.444   3.838
  992WAT      O 3186   2.922   0.313   3.699
  992WAT     H1 3187   2.885   0.401   3.704
  992WAT     H2 3188   3.007   0.320   3.743
  993WAT      O 3189   2.089   0.930   1.041
  993WAT     H1 3190   2.040   0.856   1.004
  993WAT     H2 3191   2.057   1.007   0.994
  994WAT      O 3192   4.115   4.007   4.887
  994WAT     H1 3193   4.106   3.936   4.951
  994WAT     H2 3194   4.198   4.049   4.910
  995WAT      O 3195   2.252   2.021   0.063
  995WAT     H1 3196   2.287   2.063  -0.015
  995WAT     H2 3197   2.161   2.051   0.067
  996WAT      O 3198   2.343   3.981   0.969
  996WAT     H1 3199   2.333   4.060   0.916
  996WAT     H2 3200   2.364   3.912   0.906
  997WAT      O 3201   2.920   0.498   2.844
  997WAT     H1 3202   2.967   0.433   2.898
  997WAT     H2 3203   2.921   0.460   2.756
  998WAT      O 3204   2.373   4.797   2.793
  998WAT     H1 3205   2.468   4.802   2.788
  998WAT     H2 3206   2.342   4.831   2.709
  999WAT      O 3207   1.941   0.060   4.001
  999WAT     H1 3208   1.948   0.135   4.060
  999WAT     H2 3209   1.855   0.022   4.019
 1000WAT      O 3210   2.875   1.192   3.509
 1000WAT     H1 3211   2.890   1.104   3.545
 1000WAT     H2 3212   2.943   1.246   3.548
 1001WAT      O 3213   3.579   2.553   2.951
 1001WAT     H1 3214   3.516   2.481   2.957
 1001WAT     H2 3215   3.660   2.516   2.987
 1002WAT      O 3216   2.386   3.635   0.367
 1002WAT     H1 3217   2.437   3.607   0.290
 1002WAT     H2 3218   2.434   3.598   0.441
 1003WAT      O 3219   1.809   4.297   3.028
 1003WAT     H1 3220   1.747   4.266   3.095
 1003WAT     H2 3221   1.875   4.345   3.077
 1004WAT      O 3222   0.506   2.360   0.971
 1004WAT     H1 3223   0.508   2.431   0.906
 1004WAT     H2 3224   0.597   2.349   0.996
 1005WAT      O 3225   2.917   0.019   3.715
 1005WAT     H1 3226   2.880  -0.006   3.630
 1005WAT     H2 3227   2.932   0.114   3.707
 1006WAT      O 3228   0.291   0.150   4.368
 1006WAT     H1 3229   0.376   0.106   4.378
 1006WAT     H2 3230   0.239   0.117   4.441
 1007WAT      O 3231   3.331   3.505   0.093
 1007WAT     H1 3232   3.302   3.595   0.109
 1007WAT     H2 3233   3.251   3.459   0.068
 1008WAT      O 3234   0.574   3.983   5.074
 1008WAT     H1 3235   0.494   4.032   5.052
 1008WAT     H2 3236   0.641   4.050   5.083
 1009WAT      O 3237   0.675   2.671   2.792
 1009WAT     H1 3238   0.693   2.720   2.872
 1009WAT     H2 3239   0.740   2.704   2.729
 1010WAT      O 3240   3.632   0.676   0.968
 1010WAT     H1 3241   3.705   0.627   1.005
 1010WAT     H2 3242   3.673   0.747   0.918
 1011WAT      O 3243   1.342   3.548   3.397
 1011WAT     H1 3244   1.300   3.477   3.349
 1011WAT     H2 3245   1.270   3.606   3.423
 1012WAT      O 3246   4.286   2.816   1.567
 1012WAT     H1 3247   4.244   2.791   1.649
 1012WAT     H2 3248   4.278   2.739   1.512
 1013WAT      O 3249   1.355   3.137   0.507
 1013WAT     H1 3250   1.432   3.106   0.555
 1013WAT     H2 3251   1.285   3.076   0.530
 1014WAT      O 3252   3.785   0.890   1.984
 1014WAT     H1 3253   3.768   0.802   2.018
 1014WAT     H2 3254   3.877   0.906   2.005
 1015WAT      O 3255   3.511   4.913   0.579
 1015WAT     H1 3256   3.445   4.920   0.511
 1015WAT     H2 3257   3.593   4.939   0.537
 1016WAT      O 3258   4.490   0.973   2.451
 1016WAT     H1 3259   4.509   0.879   2.442
 1016WAT     H2 3260   4.489   1.005   2.361
 1017WAT      O 3261   1.449   2.974   5.208
 1017WAT     H1 3262   1.505   3.046   5.238
 1017WAT     H2 3263   1.421   3.001   5.120
 1018WAT      O 3264   3.949   3.310   3.756
 1018WAT     H1 3265   3.875   3.295   3.698
 1018WAT     H2 3266   3.992   3.224   3.763
 1019WAT      O 3267   2.795   4.593   2.733
 1019WAT     H1 3268   2.700   4.591   2.741
 1019WAT     H2 3269   2.813   4.655   2.663
 1020WAT      O 3270   4.020   2.941   1.609
 1020WAT     H1 3271   4.110   2.945   1.642
 1020WAT     H2 3272   3.995   2.850   1.620
 1021WAT      O 3273   3.363   2.007   2.899
 1021WAT     H1 3274   3.388   1.960   2.979
 1021WAT     H2 3275   3.445   2.024   2.854
 1022WAT      O 3276   3.820   0.621   2.119
 1022WAT     H1 3277   3.779   0.546   2.075
 1022WAT     H2 3278   3.908   0.590   2.141
 1023WAT      O 3279   3.880   2.620   4.149
 1023WAT     H1 3280   3.914   2.707   4.168
 1023WAT     H2 3281   3.809   2.607   4.212
 1024WAT      O 3282   0.674   1.989   0.896
 1024WAT     H1 3283   0.769   1.999   0.893
 1024WAT     H2 3284   0.655   1.965   0.986
 1025WAT      O 3285   0.765   3.655   3.312
 1025WAT     H1 3286   0.700   3.660   3.241
 1025WAT     H2 3287   0.849   3.648   3.266
 1026WAT      O 3288   4.024   0.265   3.403
 1026WAT     H1 3289   4.003   0.285   3.311
 1026WAT     H2 3290   4.119   0.258   3.404
 1027WAT      O 3291   3.545   1.475   5.042
 1027WAT     H1 3292   3.464   1.525   5.054
 1027WAT     H2 3293   3.518   1.399   4.990
 1028WAT      O 3294   0.065   3.695   4.475
 1028WAT     H1 3295   0.095   3.733   4.392
 1028WAT     H2 3296   0.073   3.600   4.462
 1029WAT      O 3297   3.390   0.083   2.219
 1029WAT     H1 3298   3.341   0.000   2.223
 1029WAT     H2 3299   3.395   0.111   2.310
 1030WAT      O 3300   0.430   1.778   0.234
 1030WAT     H1 3301   0.421   1.707   0.171
 1030WAT     H2 3302   0.488   1.841   0.191
 1031WAT      O 3303   3.603   0.208   1.623
 1031WAT     H1 3304   3.551   0.151   1.566
 1031WAT     H2 3305   3.542   0.239   1.689
 1032WAT      O 3306   2.872   1.448   1.367
 1032WAT     H1 3307   2.923   1.393   1.306
 1032WAT     H2 3308   2.932   1.518   1.392
 1033WAT      O 3309   1.159   1.061   2.550
 1033WAT     H1 3310   1.164   1.006   2.628
 1033WAT     H2 3311   1.066   1.062   2.528
 1034WAT      O 3312   0.749   2.282   1.100
 1034WAT     H1 3313   0.811   2.320   1.039
 1034WAT     H2 3314   0.802   2.228   1.159
 1035WAT      O 3315   3.773   1.713   3.852
 1035WAT     H1 3316   3.842   1.744   3.911
 1035WAT     H2 3317   3.770   1.779   3.783
 1036WAT      O 3318   2.815   0.977   2.794
 1036WAT     H1 3319   2.873   0.904   2.814
 1036WAT     H2 3320   2.873   1.045   2.761
 1037WAT      O 3321   4.459   4.008   1.552
 1037WAT     H1 3322   4.456   3.912   1.550
 1037WAT     H2 3323   4.541   4.028   1.599
 1038WAT      O 3324   1.333   3.954   4.122
 1038WAT     H1 3325   1.260   4.016   4.123
 1038WAT     H2 3326   1.325   3.908   4.039
 1039WAT      O 3327   2.556   1.033   3.923
 1039WAT     H1 3328   2.539   1.126   3.940
 1039WAT     H2 3329   2.560   0.993   4.010
 1040WAT      O 3330   2.153   2.249   4.698
 1040WAT     H1 3331   2.061   2.260   4.725
 1040WAT     H2 3332   2.180   2.337   4.672
 1041WAT      O 3333   3.842   0.887   3.492
 1041WAT     H1 3334   3.837   0.887   3.588
 1041WAT     H2 3335   3.798   0.967   3.465
 1042WAT      O 3336   3.291   3.365   2.481
 1042WAT     H1 3337   3.223   3.408   2.431
 1042WAT     H2 3338   3.372   3.385   2.435
 1043WAT      O 3339   3.835   1.541   1.743
 1043WAT     H1 3340   3.824   1.465   1.800
 1043WAT     H2 3341   3.916   1.523   1.696
 1044WAT      O 3342   0.094   1.098   0.910
 1044WAT     H1 3343   0.067   1.075   0.822
 1044WAT     H2 3344   0.027   1.060   0.967
 1045WAT      O 3345   1.526   1.074   1.680
 1045WAT     H1 3346   1.603   1.115   1.641
 1045WAT     H2 3347   1.452   1.119   1.639
 1046WAT      O 3348   3.242   2.701   3.722
 1046WAT     H1 3349   3.250   2.606   3.734
 1046WAT     H2 3350   3.270   2.737   3.807
 1047WAT      O 3351   1.672   4.588   1.208
 1047WAT     H1 3352   1.578   4.577   1.194
 1047WAT     H2 3353   1.682   4.680   1.231
 1048WAT      O 3354   4.480   3.388   2.067
 1048WAT     H1 3355   4.433   3.331   2.006
 1048WAT     H2 3356   4.551   3.333   2.102
 1049WAT      O 3357   2.797   2.406   4.265
 1049WAT     H1 3358   2.855   2.445   4.331
 1049WAT     H2 3359   2.712   2.398   4.310
 1050WAT      O 3360   0.508   0.395   4.181
 1050WAT     H1 3361   0.490   0.421   4.271
 1050WAT     H2 3362   0.593   0.434   4.161
 1051WAT      O 3363   4.014   0.136   4.294
 1051WAT     H1 3364   3.972   0.159   4.211
 1051WAT     H2 3365   4.102   0.173   4.287
 1052WAT      O 3366   2.865   0.637   1.099
 1052WAT     H1 3367   2.780   0.633   1.055
 1052WAT     H2 3368   2.898   0.725   1.080
 1053WAT      O 3369   1.696   4.770   1.724
 1053WAT     H1 3370   1.689   4.676   1.741
 1053WAT     H2 3371   1.756   4.802   1.791
 1054WAT      O 3372   3.625   0.354   1.401
 1054WAT     H1 3373   3.618   0.308   1.485
 1054WAT     H2 3374   3.664   0.290   1.342
 1055WAT      O 3375   0.211   3.706   5.108
 1055WAT     H1 3376   0.295   3.746   5.129
 1055WAT     H2 3377   0.161   3.776   5.066
 1056WAT      O 3378   1.895   3.506   1.835
 1056WAT     H1 3379   1.883   3.586   1.885
 1056WAT     H2 3380   1.832   3.513   1.763
 1057WAT      O 3381   3.876   4.258   3.313
 1057WAT     H1 3382   3.966   4.229   3.320
 1057WAT     H2 3383   3.840   4.249   3.402
 1058WAT      O 3384   0.554   2.012   5.069
 1058WAT     H1 3385   0.644   2.040   5.054
 1058WAT     H2 3386   0.552   1.921   5.041
 1059WAT      O 3387   1.034   1.149   3.847
 1059WAT     H1 3388   1.039   1.234   3.804
 1059WAT     H2 3389   1.118   1.140   3.893
 1060WAT      O 3390   1.784   2.898   2.469
 1060WAT     H1 3391   1.775   2.993   2.459
 1060WAT     H2 3392   1.814   2.886   2.560
 1061WAT      O 3393   0.974   0.019   0.720
 1061WAT     H1 3394   1.068   0.027   0.734
 1061WAT     H2 3395   0.950  -0.062   0.765
 1062WAT      O 3396   0.150   2.121   0.336
 1062WAT     H1 3397   0.199   2.107   0.416
 1062WAT     H2 3398   0.078   2.180   0.362
 1063WAT      O 3399   4.162   4.012   1.660
 1063WAT     H1 3400   4.140   3.970   1.577
 1063WAT     H2 3401   4.257   4.002   1.667
 1064WAT      O 3402   4.058   4.550   0.088
 1064WAT     H1 3403   4.094   4.469   0.123
 1064WAT     H2 3404   4.095   4.619   0.143
 1065WAT      O 3405   2.650   0.127   3.832
 1065WAT     H1 3406   2.724   0.074   3.801
 1065WAT     H2 3407   2.691   0.198   3.881
 1066WAT      O 3408   4.341   2.660   2.384
 1066WAT     H1 3409   4.418   2.679   2.331
 1066WAT     H2 3410   4.336   2.733   2.446
 1067WAT      O 3411   2.318   1.207   4.906
 1067WAT     H1 3412   2.223   1.195   4.908
 1067WAT     H2 3413   2.354   1.118   4.912
 1068WAT      O 3414   2.355   2.049   4.178
 1068WAT     H1 3415   2.353   2.123   4.239
 1068WAT     H2 3416   2.373   1.973   4.232
 1069WAT      O 3417   3.592   1.232   0.012
 1069WAT     H1 3418   3.602   1.314   0.060
 1069WAT     H2 3419   3.676   1.221  -0.034
 1070WAT      O 3420   4.342   2.359   4.256
 1070WAT     H1 3421   4.384   2.298   4.317
 1070WAT     H2 3422   4.316   2.433   4.310
 1071WAT      O 3423   0.769   2.647   4.261
 1071WAT     H1 3424   0.698   2.711   4.253
 1071WAT     H2 3425   0.844   2.698   4.292
 1072WAT      O 3426   1.922   1.596   4.833
 1072WAT     H1 3427   1.885   1.594   4.921
 1072WAT     H2 3428   1.892   1.679   4.796
 1073WAT      O 3429   3.482   4.362   0.637
 1073WAT     H1 3430   3.469   4.449   0.599
 1073WAT     H2 3431   3.570   4.364   0.674
 1074WAT      O 3432   3.053   0.698   4.044
 1074WAT     H1 3433   2.987   0.687   4.112
 1074WAT     H2 3434   3.076   0.791   4.048
 1075WAT      O 3435   1.033   1.703   0.766
 1075WAT     H1 3436   1.062   1.673   0.852
 1075WAT     H2 3437   1.099   1.670   0.705
 1076WAT      O 3438   2.736   0.756   4.209
 1076WAT     H1 3439   2.654   0.726   4.248
 1076WAT     H2 3440   2.777   0.808   4.278
 1077WAT      O 3441   1.263   3.420   3.780
 1077WAT     H1 3442   1.205   3.437   3.706
 1077WAT     H2 3443   1.205   3.410   3.855
 1078WAT      O 3444   0.859   2.740   5.114
 1078WAT     H1 3445   0.765   2.725   5.103
 1078WAT     H2 3446   0.880   2.700   5.198
 1079WAT      O 3447   3.743   1.453   3.588
 1079WAT     H1 3448   3.802   1.380   3.572
 1079WAT     H2 3449   3.755   1.474   3.681
 1080WAT      O 3450   0.672   5.057   2.644
 1080WAT     H1 3451   0.601   5.108   2.607
 1080WAT     H2 3452   0.735   5.122   2.675
 1081WAT      O 3453   0.238   0.327   0.369
 1081WAT     H1 3454   0.292   0.262   0.324
 1081WAT     H2 3455   0.299   0.373   0.427
 1082WAT      O 3456   0.779   2.580   2.373
 1082WAT     H1 3457   0.835   2.563   2.297
 1082WAT     H2 3458   0.699   2.530   2.356
 1083WAT      O 3459   2.404   0.350   4.691
 1083WAT     H1 3460   2.416   0.303   4.608
 1083WAT     H2 3461   2.481   0.407   4.697
 1084WAT      O 3462   3.445   4.839   2.240
 1084WAT     H1 3463   3.465   4.793   2.321
 1084WAT     H2 3464   3.370   4.894   2.262
 1085WAT      O 3465   0.975   3.102   0.744
 1085WAT     H1 3466   1.016   3.124   0.828
 1085WAT     H2 3467   1.025   3.150   0.679
 1086WAT      O 3468   1.434   3.704   4.440
 1086WAT     H1 3469   1.503   3.670   4.384
 1086WAT     H2 3470   1.355   3.702   4.386
 1087WAT      O 3471   0.143   3.807   3.207
 1087WAT     H1 3472   0.137   3.730   3.150
 1087WAT     H2 3473   0.057   3.813   3.248
 1088WAT      O 3474   4.157   0.668   0.223
 1088WAT     H1 3475   4.062   0.665   0.220
 1088WAT     H2 3476   4.186   0.624   0.143
 1089WAT      O 3477   1.002   1.999   1.636
 1089WAT     H1 3478   1.031   2.000   1.545
 1089WAT     H2 3479   0.936   2.068   1.640
 1090WAT      O 3480   3.825   2.636   1.538
 1090WAT     H1 3481   3.825   2.717   1.487
 1090WAT     H2 3482   3.904   2.642   1.592
 1091WAT      O 3483   2.421   1.864   3.480
 1091WAT     H1 3484   2.371   1.810   3.419
 1091WAT     H2 3485   2.510   1.863   3.447
 1092WAT      O 3486   2.522   1.839   1.235
 1092WAT     H1 3487   2.477   1.922   1.248
 1092WAT     H2 3488   2.549   1.840   1.143
 1093WAT      O 3489   2.992   2.349   1.570
 1093WAT     H1 3490   2.957   2.312   1.489
 1093WAT     H2 3491   3.076   2.388   1.544
 1094WAT      O 3492   2.062   0.818   3.285
 1094WAT     H1 3493   2.015   0.744   3.246
 1094WAT     H2 3494   2.004   0.850   3.353
 1095WAT      O 3495   2.375   4.654   3.639
 1095WAT     H1 3496   2.359   4.716   3.568
 1095WAT     H2 3497   2.332   4.693   3.715
 1096WAT      O 3498   1.267   4.343   1.155
 1096WAT     H1 3499   1.209   4.288   1.102
 1096WAT     H2 3500   1.355   4.323   1.121
 1097WAT      O 3501   1.555   0.475   4.015
 1097WAT     H1 3502   1.470   0.488   4.058
 1097WAT     H2 3503   1.620   0.500   4.081
 1098WAT      O 3504   2.256   3.343   1.283
 1098WAT     H1 3505   2.178   3.307   1.242
 1098WAT     H2 3506   2.326   3.282   1.259
 1099WAT      O 3507   3.054   2.715   3.108
 1099WAT     H1 3508   3.063   2.629   3.067
 1099WAT     H2 3509   2.960   2.725   3.122
 1100WAT      O 3510   2.249   2.974   5.245
 1100WAT     H1 3511   2.249   2.918   5.322
 1100WAT     H2 3512   2.156   2.985   5.223
 1101WAT      O 3513   2.755   3.316   2.228
 1101WAT     H1 3514   2.815   3.257   2.273
 1101WAT     H2 3515   2.801   3.400   2.226
 1102WAT      O 3516   2.967   3.306   0.549
 1102WAT     H1 3517   3.011   3.364   0.612
 1102WAT     H2 3518   2.874   3.310   0.573
 1103WAT      O 3519   1.342   4.664   4.865
 1103WAT     H1 3520   1.375   4.728   4.929
 1103WAT     H2 3521   1.293   4.717   4.802
 1104WAT      O 3522   1.910   3.568   2.824
 1104WAT     H1 3523   1.978   3.632   2.800
 1104WAT     H2 3524   1.930   3.545   2.915
 1105WAT      O 3525   0.439   0.614   3.199
 1105WAT     H1 3526   0.384   0.572   3.134
 1105WAT     H2 3527   0.514   0.555   3.209
 1106WAT      O 3528   2.245   0.202   1.155
 1106WAT     H1 3529   2.314   0.202   1.088
 1106WAT     H2 3530   2.270   0.133   1.216
 1107WAT      O 3531   2.976   3.605   3.823
 1107WAT     H1 3532   3.062   3.647   3.812
 1107WAT     H2 3533   2.927   3.665   3.879
 1108WAT      O 3534   1.444   0.134   0.405
 1108WAT     H1 3535   1.390   0.116   0.328
 1108WAT     H2 3536   1.500   0.057   0.414
 1109WAT      O 3537   4.031   2.674   1.704
 1109WAT     H1 3538   4.106   2.625   1.736
 1109WAT     H2 3539   3.974   2.684   1.781
 1110WAT      O 3540   2.416   2.779   2.990
 1110WAT     H1 3541   2.425   2.685   2.974
 1110WAT     H2 3542   2.496   2.817   2.953
 1111WAT      O 3543   3.695   3.316   3.641
 1111WAT     H1 3544   3.613   3.358   3.669
 1111WAT     H2 3545   3.680   3.292   3.550
 1112WAT      O 3546   1.395   1.286   2.289
 1112WAT     H1 3547   1.443   1.304   2.369
 1112WAT     H2 3548   1.384   1.191   2.288
 1113WAT      O 3549   0.400   4.800   4.226
 1113WAT     H1 3550   0.314   4.813   4.266
 1113WAT     H2 3551   0.426   4.888   4.197
 1114WAT      O 3552   2.801   1.267   4.722
 1114WAT     H1 3553   2.832   1.297   4.807
 1114WAT     H2 3554   2.731   1.327   4.699
 1115WAT      O 3555   3.985   2.107   4.989
 1115WAT     H1 3556   4.031   2.086   5.070
 1115WAT     H2 3557   4.055   2.111   4.923
 1116WAT      O 3558   0.450   1.986   2.338
 1116WAT     H1 3559   0.543   2.007   2.331
 1116WAT     H2 3560   0.449   1.895   2.369
 1117WAT      O 3561   4.481   0.451   1.407
 1117WAT     H1 3562   4.415   0.516   1.382
 1117WAT     H2 3563   4.554   0.503   1.441
 1118WAT      O 3564   2.844   0.281   2.230
 1118WAT     H1 3565   2.853   0.350   2.164
 1118WAT     H2 3566   2.784   0.319   2.295
 1119WAT      O 3567   4.479   3.285   4.967
 1119WAT     H1 3568   4.456   3.278   4.874
 1119WAT     H2 3569   4.542   3.357   4.971
 1120WAT      O 3570   2.845   4.577   5.213
 1120WAT     H1 3571   2.753   4.551   5.208
 1120WAT     H2 3572   2.844   4.661   5.259
 1121WAT      O 3573   2.681   1.118   0.282
 1121WAT     H1 3574   2.659   1.184   0.347
 1121WAT     H2 3575   2.777   1.110   0.287
 1122WAT      O 3576   3.526   3.041   4.536
 1122WAT     H1 3577   3.541   3.092   4.615
 1122WAT     H2 3578   3.599   3.065   4.478
 1123WAT      O 3579   0.452   0.422   0.528
 1123WAT     H1 3580   0.465   0.490   0.462
 1123WAT     H2 3581   0.423   0.470   0.606
 1124WAT      O 3582   4.485   1.128   2.997
 1124WAT     H1 3583   4.520   1.040   3.004
 1124WAT     H2 3584   4.480   1.160   3.087
 1125WAT      O 3585   1.612   0.252   3.018
 1125WAT     H1 3586   1.663   0.174   2.997
 1125WAT     H2 3587   1.646   0.319   2.957
 1126WAT      O 3588   3.611   4.666   4.379
 1126WAT     H1 3589   3.681   4.719   4.342
 1126WAT     H2 3590   3.595   4.704   4.465
 1127WAT      O 3591   3.363   2.455   5.029
 1127WAT     H1 3592   3.446   2.412   5.050
 1127WAT     H2 3593   3.355   2.448   4.934
 1128WAT      O 3594   0.557   0.918   0.823
 1128WAT     H1 3595   0.585   0.844   0.768
 1128WAT     H2 3596   0.556   0.993   0.763
 1129WAT      O 3597   0.192   1.650   4.609
 1129WAT     H1 3598   0.279   1.689   4.606
 1129WAT     H2 3599   0.139   1.713   4.660
 1130WAT      O 3600  -0.003   3.593   0.091
 1130WAT     H1 3601   0.088   3.622   0.088
 1130WAT     H2 3602   0.002   3.501   0.117
 1131WAT      O 3603   3.079   2.995   1.312
 1131WAT     H1 3604   3.007   3.056   1.324
 1131WAT     H2 3605   3.098   2.998   1.219
 1132WAT      O 3606   2.218   1.412   1.992
 1132WAT     H1 3607   2.290   1.364   2.032
 1132WAT     H2 3608   2.151   1.417   2.061
 1133WAT      O 3609   1.485   0.653   1.810
 1133WAT     H1 3610   1.462   0.645   1.717
 1133WAT     H2 3611   1.464   0.567   1.847
 1134WAT      O 3612   3.878   2.334   2.662
 1134WAT     H1 3613   3.930   2.336   2.583
 1134WAT     H2 3614   3.934   2.294   2.728
 1135WAT      O 3615   4.347   3.827   3.194
 1135WAT     H1 3616   4.310   3.828   3.106
 1135WAT     H2 3617   4.271   3.840   3.251
 1136WAT      O 3618   1.146   3.419   2.859
 1136WAT     H1 3619   1.129   3.456   2.945
 1136WAT     H2 3620   1.062   3.425   2.813
 1137WAT      O 3621   4.186   2.749   0.200
 1137WAT     H1 3622   4.169   2.732   0.293
 1137WAT     H2 3623   4.128   2.821   0.178
 1138WAT      O 3624   1.416   1.469   3.609
 1138WAT     H1 3625   1.424   1.445   3.701
 1138WAT     H2 3626   1.328   1.443   3.584
 1139WAT      O 3627   0.899   2.746   3.987
 1139WAT     H1 3628   0.829   2.771   3.927
 1139WAT     H2 3629   0.876   2.657   4.015
 1140WAT      O 3630   1.835   3.443   1.241
 1140WAT     H1 3631   1.930   3.433   1.239
 1140WAT     H2 3632   1.816   3.504   1.169
 1141WAT      O 3633   3.156   1.120   5.050
 1141WAT     H1 3634   3.107   1.170   5.115
 1141WAT     H2 3635   3.188   1.044   5.099
 1142WAT      O 3636   1.306   4.325   4.229
 1142WAT     H1 3637   1.356   4.273   4.291
 1142WAT     H2 3638   1.307   4.413   4.264
 1143WAT      O 3639   1.276   4.223   1.715
 1143WAT     H1 3640   1.262   4.271   1.796
 1143WAT     H2 3641   1.231   4.274   1.648
 1144WAT      O 3642   1.876   1.861   4.709
 1144WAT     H1 3643   1.888   1.923   4.780
 1144WAT     H2 3644   1.849   1.915   4.634
 1145WAT      O 3645   1.670   1.053   3.007
 1145WAT     H1 3646   1.715   1.087   3.084
 1145WAT     H2 3647   1.724   0.980   2.978
 1146WAT      O 3648   3.441   2.017   0.829
 1146WAT     H1 3649   3.457   1.947   0.765
 1146WAT     H2 3650   3.349   2.005   0.854
 1147WAT      O 3651   1.631   4.664   3.182
 1147WAT     H1 3652   1.719   4.644   3.215
 1147WAT     H2 3653   1.616   4.755   3.209
 1148WAT      O 3654   4.359   0.888   4.773
 1148WAT     H1 3655   4.360   0.916   4.681
 1148WAT     H2 3656   4.345   0.793   4.769
 1149WAT      O 3657   1.625   2.281   1.254
 1149WAT     H1 3658   1.593   2.366   1.224
 1149WAT     H2 3659   1.705   2.301   1.303
 1150WAT      O 3660   0.807   0.611   0.092
 1150WAT     H1 3661   0.895   0.583   0.065
 1150WAT     H2 3662   0.758   0.621   0.010
 1151WAT      O 3663   0.084   3.548   3.150
 1151WAT     H1 3664   0.021   3.547   3.078
 1151WAT     H2 3665   0.079   3.461   3.188
 1152WAT      O 3666   1.512   1.954   2.040
 1152WAT     H1 3667   1.480   2.042   2.059
 1152WAT     H2 3668   1.492   1.903   2.118
 1153WAT      O 3669   3.261   2.395   2.609
 1153WAT     H1 3670   3.216   2.331   2.663
 1153WAT     H2 3671   3.191   2.436   2.557
 1154WAT      O 3672   0.579   2.439   1.821
 1154WAT     H1 3673   0.544   2.441   1.910
 1154WAT     H2 3674   0.542   2.517   1.779
 1155WAT      O 3675   0.880   3.447   1.099
 1155WAT     H1 3676   0.889   3.367   1.151
 1155WAT     H2 3677   0.837   3.418   1.019
 1156WAT      O 3678   0.249   3.577   2.755
 1156WAT     H1 3679   0.317   3.522   2.793
 1156WAT     H2 3680   0.177   3.516   2.736
 1157WAT      O 3681   2.955   1.255   4.347
 1157WAT     H1 3682   2.888   1.233   4.412
 1157WAT     H2 3683   2.919   1.331   4.301
 1158WAT      O 3684   0.456   1.180   4.949
 1158WAT     H1 3685   0.469   1.204   4.857
 1158WAT     H2 3686   0.369   1.142   4.952
 1159WAT      O 3687   4.035   2.824   3.167
 1159WAT     H1 3688   4.127   2.837   3.148
 1159WAT     H2 3689   4.031   2.819   3.263
 1160WAT      O 3690   1.269   4.890   0.213
 1160WAT     H1 3691   1.299   4.979   0.230
 1160WAT     H2 3692   1.185   4.902   0.168
 1161WAT      O 3693   0.204   3.270   2.095
 1161WAT     H1 3694   0.250   3.208   2.152
 1161WAT     H2 3695   0.251   3.266   2.012
 1162WAT      O 3696   2.903   3.712   0.372
 1162WAT     H1 3697   2.990   3.678   0.390
 1162WAT     H2 3698   2.917   3.778   0.303
 1163WAT      O 3699   2.749   0.059   4.993
 1163WAT     H1 3700   2.736   0.051   5.088
 1163WAT     H2 3701   2.729   0.151   4.974
 1164WAT      O 3702   2.181   0.491   1.347
 1164WAT     H1 3703   2.178   0.581   1.380
 1164WAT     H2 3704   2.193   0.499   1.253
 1165WAT      O 3705   2.352   1.748   2.094
 1165WAT     H1 3706   2.431   1.738   2.147
 1165WAT     H2 3707   2.365   1.690   2.019
 1166WAT      O 3708   1.482   3.701   2.667
 1166WAT     H1 3709   1.564   3.749   2.651
 1166WAT     H2 3710   1.417   3.745   2.612
 1167WAT      O 3711   4.255   0.384   1.874
 1167WAT     H1 3712   4.182   0.321   1.873
 1167WAT     H2 3713   4.212   0.470   1.876
 1168WAT      O 3714   2.144   2.831   3.062
 1168WAT     H1 3715   2.232   2.830   3.026
 1168WAT     H2 3716   2.109   2.743   3.044
 1169WAT      O 3717   1.928   0.568   2.806
 1169WAT     H1 3718   1.988   0.495   2.785
 1169WAT     H2 3719   1.975   0.646   2.776
 1170WAT      O 3720   4.007   3.123   4.224
 1170WAT     H1 3721   3.933   3.146   4.167
 1170WAT     H2 3722   4.028   3.205   4.268
 1171WAT      O 3723   4.138   1.350   3.086
 1171WAT     H1 3724   4.157   1.443   3.084
 1171WAT     H2 3725   4.092   1.333   3.003
 1172WAT      O 3726   1.564   4.277   4.121
 1172WAT     H1 3727   1.574   4.189   4.085
 1172WAT     H2 3728   1.475   4.303   4.097
 1173WAT      O 3729   2.139   4.216   2.994
 1173WAT     H1 3730   2.231   4.224   3.019
 1173WAT     H2 3731   2.099   4.297   3.025
 1174WAT      O 3732   3.170   4.672   0.379
 1174WAT     H1 3733   3.212   4.676   0.293
 1174WAT     H2 3734   3.083   4.709   0.365
 1175WAT      O 3735   3.768   0.386   4.958
 1175WAT     H1 3736   3.803   0.337   4.883
 1175WAT     H2 3737   3.759   0.475   4.927
 1176WAT      O 3738   2.155   3.994   3.597
 1176WAT     H1 3739   2.187   4.010   3.509
 1176WAT     H2 3740   2.081   3.935   3.586
 1177WAT      O 3741   0.703   5.115   3.853
 1177WAT     H1 3742   0.691   5.191   3.910
 1177WAT     H2 3743   0.614   5.083   3.837
 1178WAT      O 3744   0.090   1.096   5.243
 1178WAT     H1 3745   0.065   1.141   5.162
 1178WAT     H2 3746   0.163   1.148   5.278
 1179WAT      O 3747   3.644   4.384   3.831
 1179WAT     H1 3748   3.599   4.441   3.769
 1179WAT     H2 3749   3.589   4.386   3.910
 1180WAT      O 3750   0.090   3.273   3.233
 1180WAT     H1 3751   0.182   3.253   3.216
 1180WAT     H2 3752   0.047   3.187   3.231
 1181WAT      O 3753   2.975   2.034   4.515
 1181WAT     H1 3754   3.052   2.092   4.517
 1181WAT     H2 3755   3.002   1.958   4.567
 1182WAT      O 3756   2.680   0.265   2.618
 1182WAT     H1 3757   2.628   0.261   2.538
 1182WAT     H2 3758   2.747   0.330   2.599
 1183WAT      O 3759   2.566   1.288   4.180
 1183WAT     H1 3760   2.519   1.205   4.187
 1183WAT     H2 3761   2.633   1.273   4.113
 1184WAT      O 3762   1.690   0.299   0.671
 1184WAT     H1 3763   1.776   0.321   0.634
 1184WAT     H2 3764   1.694   0.205   0.688
 1185WAT      O 3765   3.386   1.567   3.402
 1185WAT     H1 3766   3.468   1.611   3.425
 1185WAT     H2 3767   3.407   1.518   3.322
 1186WAT      O 3768   1.801   1.813   2.308
 1186WAT     H1 3769   1.834   1.799   2.397
 1186WAT     H2 3770   1.835   1.899   2.283
 1187WAT      O 3771   2.171   0.764   3.558
 1187WAT     H1 3772   2.160   0.788   3.466
 1187WAT     H2 3773   2.085   0.730   3.584
 1188WAT      O 3774   3.172   5.120   4.415
 1188WAT     H1 3775   3.139   5.049   4.359
 1188WAT     H2 3776   3.233   5.169   4.358
 1189WAT      O 3777   1.033   3.956   1.116
 1189WAT     H1 3778   0.958   3.943   1.174
 1189WAT     H2 3779   1.084   3.876   1.123
 1190WAT      O 3780   0.896   2.366   0.882
 1190WAT     H1 3781   0.979   2.321   0.864
 1190WAT     H2 3782   0.880   2.418   0.803
 1191WAT      O 3783   3.544   2.804   1.867
 1191WAT     H1 3784   3.513   2.776   1.781
 1191WAT     H2 3785   3.477   2.774   1.928
 1192WAT      O 3786   0.015   0.093   0.768
 1192WAT     H1 3787   0.095   0.142   0.750
 1192WAT     H2 3788  -0.004   0.110   0.860
 1193WAT      O 3789   0.357   4.285   1.254
 1193WAT     H1 3790   0.282   4.336   1.283
 1193WAT     H2 3791   0.333   4.194   1.272
 1194WAT      O 3792   0.911   3.920   5.118
 1194WAT     H1 3793   0.886   4.000   5.072
 1194WAT     H2 3794   1.006   3.923   5.123
 1195WAT      O 3795   0.434   4.358   1.827
 1195WAT     H1 3796   0.451   4.269   1.859
 1195WAT     H2 3797   0.406   4.346   1.736
 1196WAT      O 3798   0.017   1.284   3.952
 1196WAT     H1 3799  -0.062   1.266   4.002
 1196WAT     H2 3800   0.065   1.349   4.004
 1197WAT      O 3801   1.266   4.442   0.848
 1197WAT     H1 3802   1.235   4.515   0.794
 1197WAT     H2 3803   1.267   4.367   0.788
 1198WAT      O 3804   4.226   3.379   0.450
 1198WAT     H1 3805   4.201   3.458   0.402
 1198WAT     H2 3806   4.300   3.407   0.505
 1199WAT      O 3807   1.508   4.981   4.706
 1199WAT     H1 3808   1.530   4.937   4.624
 1199WAT     H2 3809   1.496   4.910   4.769
 1200WAT      O 3810   2.190   0.171   4.798
 1200WAT     H1 3811   2.269   0.225   4.793
 1200WAT     H2 3812   2.160   0.164   4.707
 1201WAT      O 3813   0.073   2.454   2.061
 1201WAT     H1 3814   0.077   2.362   2.088
 1201WAT     H2 3815   0.003   2.457   1.996
 1202WAT      O 3816   0.819   1.550   4.523
 1202WAT     H1 3817   0.790   1.639   4.502
 1202WAT     H2 3818   0.913   1.558   4.538
 1203WAT      O 3819   3.193   1.790   3.321
 1203WAT     H1 3820   3.118   1.747   3.280
 1203WAT     H2 3821   3.220   1.730   3.391
 1204WAT      O 3822   3.117   4.089   1.815
 1204WAT     H1 3823   3.096   4.160   1.754
 1204WAT     H2 3824   3.138   4.133   1.897
 1205WAT      O 3825   0.664   3.608   1.777
 1205WAT     H1 3826   0.711   3.686   1.806
 1205WAT     H2 3827   0.571   3.632   1.783
 1206WAT      O 3828   4.315   0.328   4.186
 1206WAT     H1 3829   4.398   0.284   4.206
 1206WAT     H2 3830   4.325   0.360   4.097
 1207WAT      O 3831   0.319   0.781   2.631
 1207WAT     H1 3832   0.275   0.740   2.557
 1207WAT     H2 3833   0.282   0.869   2.636
 1208WAT      O 3834   0.931   2.884   3.021
 1208WAT     H1 3835   1.013   2.834   3.020
 1208WAT     H2 3836   0.867   2.825   3.061
 1209WAT      O 3837   2.290   1.971   3.723
 1209WAT     H1 3838   2.264   1.927   3.803
 1209WAT     H2 3839   2.325   1.901   3.667
 1210WAT      O 3840   3.412   3.976   3.274
 1210WAT     H1 3841   3.389   4.054   3.325
 1210WAT     H2 3842   3.364   3.986   3.192
 1211WAT      O 3843   2.975   5.008   3.113
 1211WAT     H1 3844   3.023   5.070   3.060
 1211WAT     H2 3845   2.905   5.059   3.153
 1212WAT      O 3846   2.005   1.491   3.267
 1212WAT     H1 3847   1.911   1.479   3.253
 1212WAT     H2 3848   2.021   1.457   3.356
 1213WAT      O 3849   2.244   3.810   4.071
 1213WAT     H1 3850   2.211   3.880   4.127
 1213WAT     H2 3851   2.302   3.758   4.127
 1214WAT      O 3852   4.451   2.655   0.219
 1214WAT     H1 3853   4.467   2.657   0.313
 1214WAT     H2 3854   4.369   2.703   0.207
 1215WAT      O 3855   2.778   0.571   4.868
 1215WAT     H1 3856   2.839   0.546   4.799
 1215WAT     H2 3857   2.776   0.667   4.865
 1216WAT      O 3858   4.369   3.883   2.728
 1216WAT     H1 3859   4.443   3.826   2.748
 1216WAT     H2 3860   4.392   3.968   2.767
 1217WAT      O 3861   3.315   0.563   0.027
 1217WAT     H1 3862   3.277   0.590   0.110
 1217WAT     H2 3863   3.407   0.544   0.047
 1218WAT      O 3864   4.244   3.507   0.896
 1218WAT     H1 3865   4.227   3.544   0.810
 1218WAT     H2 3866   4.258   3.413   0.879
 1219WAT      O 3867   0.304   4.634   4.766
 1219WAT     H1 3868   0.266   4.691   4.832
 1219WAT     H2 3869   0.336   4.558   4.815
 1220WAT      O 3870   2.096   3.532   4.427
 1220WAT     H1 3871   2.050   3.498   4.350
 1220WAT     H2 3872   2.041   3.603   4.458
 1221WAT      O 3873   1.022   4.475   1.041
 1221WAT     H1 3874   1.109   4.441   1.022
 1221WAT     H2 3875   1.036   4.543   1.107
 1222WAT      O 3876   2.921   1.912   2.712
 1222WAT     H1 3877   2.955   1.838   2.761
 1222WAT     H2 3878   2.846   1.877   2.663
 1223WAT      O 3879   1.559   2.724   2.468
 1223WAT     H1 3880   1.550   2.747   2.376
 1223WAT     H2 3881   1.643   2.761   2.494
 1224WAT      O 3882   1.828   1.671   4.487
 1224WAT     H1 3883   1.820   1.763   4.513
 1224WAT     H2 3884   1.919   1.663   4.457
 1225WAT      O 3885   0.876   1.141   0.232
 1225WAT     H1 3886   0.812   1.149   0.302
 1225WAT     H2 3887   0.862   1.219   0.178
 1226WAT      O 3888   0.178   4.672   2.134
 1226WAT     H1 3889   0.113   4.621   2.087
 1226WAT     H2 3890   0.224   4.722   2.067
 1227WAT      O 3891   1.420   3.369   1.642
 1227WAT     H1 3892   1.327   3.352   1.655
 1227WAT     H2 3893   1.425   3.460   1.614
 1228WAT      O 3894   1.235   0.688   0.663
 1228WAT     H1 3895   1.257   0.600   0.694
 1228WAT     H2 3896   1.167   0.673   0.597
 1229WAT      O 3897   3.229   4.717   4.217
 1229WAT     H1 3898   3.278   4.756   4.290
 1229WAT     H2 3899   3.293   4.712   4.146
 1230WAT      O 3900   2.541   3.698   0.972
 1230WAT     H1 3901   2.458   3.669   1.009
 1230WAT     H2 3902   2.600   3.706   1.047
 1231WAT      O 3903   1.250   2.438   1.655
 1231WAT     H1 3904   1.224   2.518   1.700
 1231WAT     H2 3905   1.238   2.369   1.721
 1232WAT      O 3906   2.800   2.165   0.791
 1232WAT     H1 3907   2.829   2.074   0.788
 1232WAT     H2 3908   2.791   2.184   0.884
 1233WAT      O 3909   3.088   0.972   4.006
 1233WAT     H1 3910   3.146   1.003   3.936
 1233WAT     H2 3911   3.103   1.032   4.078
 1234WAT      O 3912   1.888   3.292   2.696
 1234WAT     H1 3913   1.921   3.295   2.606
 1234WAT     H2 3914   1.918   3.374   2.735
 1235WAT      O 3915   4.030   4.669   3.360
 1235WAT     H1 3916   4.059   4.734   3.296
 1235WAT     H2 3917   3.984   4.603   3.308
 1236WAT      O 3918   0.912   0.732   2.697
 1236WAT     H1 3919   0.911   0.704   2.606
 1236WAT     H2 3920   0.917   0.827   2.693
 1237WAT      O 3921   3.062   1.092   4.751
 1237WAT     H1 3922   3.090   1.127   4.835
 1237WAT     H2 3923   2.985   1.144   4.728
 1238WAT      O 3924   0.146   1.789   3.981
 1238WAT     H1 3925   0.107   1.710   3.943
 1238WAT     H2 3926   0.081   1.820   4.044
 1239WAT      O 3927   0.568   1.877   1.129
 1239WAT     H1 3928   0.536   1.820   1.059
 1239WAT     H2 3929   0.608   1.817   1.193
 1240WAT      O 3930   2.606   1.403   0.260
 1240WAT     H1 3931   2.613   1.444   0.174
 1240WAT     H2 3932   2.685   1.430   0.306
 1241WAT      O 3933   2.284   1.970   2.219
 1241WAT     H1 3934   2.286   1.886   2.173
 1241WAT     H2 3935   2.327   2.031   2.160
 1242WAT      O 3936   0.635   4.412   2.276
 1242WAT     H1 3937   0.585   4.440   2.200
 1242WAT     H2 3938   0.609   4.472   2.346
 1243WAT      O 3939   1.170   2.062   2.135
 1243WAT     H1 3940   1.255   2.105   2.143
 1243WAT     H2 3941   1.174   2.017   2.050
 1244WAT      O 3942   3.786   4.434   2.430
 1244WAT     H1 3943   3.692   4.424   2.412
 1244WAT     H2 3944   3.793   4.520   2.471
 1245WAT      O 3945   3.539   1.964   1.693
 1245WAT     H1 3946   3.609   1.929   1.638
 1245WAT     H2 3947   3.574   1.959   1.782
 1246WAT      O 3948   0.197   5.021   2.697
 1246WAT     H1 3949   0.208   5.006   2.791
 1246WAT     H2 3950   0.257   4.959   2.656
 1247WAT      O 3951   2.736   0.240   1.606
 1247WAT     H1 3952   2.650   0.236   1.566
 1247WAT     H2 3953   2.793   0.274   1.537
 1248WAT      O 3954   2.298   2.985   2.593
 1248WAT     H1 3955   2.364   2.977   2.661
 1248WAT     H2 3956   2.255   2.899   2.591
 1249WAT      O 3957   0.240   3.689   3.567
 1249WAT     H1 3958   0.156   3.666   3.527
 1249WAT     H2 3959   0.291   3.608   3.564
 1250WAT      O 3960   1.572   1.860   2.524
 1250WAT     H1 3961   1.662   1.833   2.538
 1250WAT     H2 3962   1.534   1.863   2.612
 1251WAT      O 3963   4.305   3.107   1.308
 1251WAT     H1 3964   4.227   3.100   1.253
 1251WAT     H2 3965   4.351   3.023   1.296
 1252WAT      O 3966   0.468   2.109   0.454
 1252WAT     H1 3967   0.547   2.085   0.503
 1252WAT     H2 3968   0.395   2.084   0.511
 1253WAT      O 3969   3.016   0.478   0.876
 1253WAT     H1 3970   3.021   0.385   0.898
 1253WAT     H2 3971   2.973   0.518   0.951
 1254WAT      O 3972   3.595   4.905   5.137
 1254WAT     H1 3973   3.549   4.891   5.220
 1254WAT     H2 3974   3.578   4.826   5.086
 1255WAT      O 3975   0.159   1.255   2.828
 1255WAT     H1 3976   0.220   1.284   2.896
 1255WAT     H2 3977   0.084   1.221   2.876
 1256WAT      O 3978   0.974   4.963   0.493
 1256WAT     H1 3979   0.912   4.920   0.551
 1256WAT     H2 3980   0.990   5.048   0.534
 1257WAT      O 3981   2.942   4.667   3.748
 1257WAT     H1 3982   2.982   4.718   3.677
 1257WAT     H2 3983   2.972   4.711   3.828
 1258WAT      O 3984   1.941   3.899   2.601
 1258WAT     H1 3985   1.848   3.910   2.620
 1258WAT     H2 3986   1.986   3.931   2.679
 1259WAT      O 3987   2.640   1.108   2.969
 1259WAT     H1 3988   2.683   1.062   3.042
 1259WAT     H2 3989   2.683   1.074   2.891
 1260WAT      O 3990   2.332   3.252   0.366
 1260WAT     H1 3991   2.396   3.297   0.420
 1260WAT     H2 3992   2.382   3.218   0.291
 1261WAT      O 3993   0.636   0.851   3.890
 1261WAT     H1 3994   0.673   0.915   3.829
 1261WAT     H2 3995   0.550   0.829   3.854
 1262WAT      O 3996   1.641   3.528   4.828
 1262WAT     H1 3997   1.653   3.607   4.880
 1262WAT     H2 3998   1.704   3.465   4.863
 1263WAT      O 3999   2.694   4.742   4.958
 1263WAT     H1 4000   2.662   4.655   4.981
 1263WAT     H2 4001   2.662   4.756   4.869
 1264WAT      O 4002   0.788   0.693   0.662
 1264WAT     H1 4003   0.858   0.696   0.596
 1264WAT     H2 4004   0.729   0.764   0.637
 1265WAT      O 4005   0.396   0.218   0.931
 1265WAT     H1 4006   0.415   0.290   0.871
 1265WAT     H2 4007   0.403   0.139   0.876
 1266WAT      O 4008   2.662   1.531   1.215
 1266WAT     H1 4009   2.651   1.626   1.226
 1266WAT     H2 4010   2.739   1.510   1.268
 1267WAT      O 4011   0.464   3.615   4.115
 1267WAT     H1 4012   0.504   3.670   4.048
 1267WAT     H2 4013   0.488   3.657   4.198
 1268WAT      O 4014   4.233   3.551   0.204
 1268WAT     H1 4015   4.312   3.518   0.160
 1268WAT     H2 4016   4.242   3.646   0.200
 1269WAT      O 4017   2.786   3.606   0.769
 1269WAT     H1 4018   2.868   3.615   0.816
 1269WAT     H2 4019   2.718   3.620   0.836
 1270WAT      O 4020   1.339   0.159   1.090
 1270WAT     H1 4021   1.434   0.161   1.102
 1270WAT     H2 4022   1.319   0.238   1.040
 1271WAT      O 4023   4.223   3.795   2.929
 1271WAT     H1 4024   4.141   3.753   2.902
 1271WAT     H2 4025   4.263   3.824   2.848
 1272WAT      O 4026   1.530   4.289   1.034
 1272WAT     H1 4027   1.607   4.337   1.004
 1272WAT     H2 4028   1.512   4.228   0.962
 1273WAT      O 4029   1.783   2.543   1.349
 1273WAT     H1 4030   1.807   2.479   1.417
 1273WAT     H2 4031   1.833   2.621   1.371
 1274WAT      O 4032   0.531   0.889   2.867
 1274WAT     H1 4033   0.508   0.927   2.952
 1274WAT     H2 4034   0.450   0.895   2.816
 1275WAT      O 4035   1.830   0.242   2.148
 1275WAT     H1 4036   1.803   0.150   2.141
 1275WAT     H2 4037   1.926   0.239   2.147
 1276WAT      O 4038   4.427   3.939   0.871
 1276WAT     H1 4039   4.337   3.932   0.904
 1276WAT     H2 4040   4.421   4.005   0.802
 1277WAT      O 4041   3.107   5.098   3.925
 1277WAT     H1 4042   3.150   5.182   3.943
 1277WAT     H2 4043   3.051   5.117   3.850
 1278WAT      O 4044   2.736   4.029   0.857
 1278WAT     H1 4045   2.758   3.974   0.782
 1278WAT     H2 4046   2.783   3.989   0.930
 1279WAT      O 4047   4.030   0.096   0.799
 1279WAT     H1 4048   3.988   0.015   0.826
 1279WAT     H2 4049   4.032   0.093   0.704
 1280WAT      O 4050   4.414   1.459   2.944
 1280WAT     H1 4051   4.397   1.386   3.003
 1280WAT     H2 4052   4.366   1.533   2.982
 1281WAT      O 4053   4.117   1.176   4.942
 1281WAT     H1 4054   4.093   1.264   4.969
 1281WAT     H2 4055   4.111   1.177   4.847
 1282WAT      O 4056   4.058   4.218   1.828
 1282WAT     H1 4057   4.101   4.302   1.843
 1282WAT     H2 4058   4.100   4.183   1.749
 1283WAT      O 4059   3.431   4.303   1.673
 1283WAT     H1 4060   3.390   4.388   1.684
 1283WAT     H2 4061   3.358   4.242   1.662
 1284WAT      O 4062   4.322   2.314   5.196
 1284WAT     H1 4063   4.387   2.314   5.265
 1284WAT     H2 4064   4.306   2.406   5.178
 1285WAT      O 4065   2.651   0.634   1.599
 1285WAT     H1 4066   2.689   0.643   1.512
 1285WAT     H2 4067   2.589   0.561   1.590
 1286WAT      O 4068   2.869   0.484   2.574
 1286WAT     H1 4069   2.803   0.529   2.521
 1286WAT     H2 4070   2.953   0.514   2.539
 1287WAT      O 4071   3.839   3.059   1.826
 1287WAT     H1 4072   3.827   3.112   1.747
 1287WAT     H2 4073   3.822   2.969   1.798
 1288WAT      O 4074   0.530   2.866   1.279
 1288WAT     H1 4075   0.559   2.783   1.317
 1288WAT     H2 4076   0.539   2.854   1.184
 1289WAT      O 4077   3.800   2.618   4.564
 1289WAT     H1 4078   3.768   2.577   4.484
 1289WAT     H2 4079   3.844   2.547   4.611
 1290WAT      O 4080   0.574   2.193   1.720
 1290WAT     H1 4081   0.542   2.139   1.792
 1290WAT     H2 4082   0.571   2.282   1.753
 1291WAT      O 4083   4.417   0.056   1.849
 1291WAT     H1 4084   4.414  -0.001   1.773
 1291WAT     H2 4085   4.426   0.144   1.813
 1292WAT      O 4086   0.719   2.415   2.870
 1292WAT     H1 4087   0.707   2.500   2.828
 1292WAT     H2 4088   0.673   2.353   2.813
 1293WAT      O 4089   0.697   1.160   0.449
 1293WAT     H1 4090   0.672   1.154   0.541
 1293WAT     H2 4091   0.722   1.252   0.437
 1294WAT      O 4092   2.674   1.953   4.506
 1294WAT     H1 4093   2.663   1.929   4.598
 1294WAT     H2 4094   2.742   2.021   4.507
 1295WAT      O 4095   3.908   2.903   0.964
 1295WAT     H1 4096   3.831   2.948   0.999
 1295WAT     H2 4097   3.955   2.872   1.042
 1296WAT      O 4098   2.976   0.773   4.630
 1296WAT     H1 4099   2.901   0.793   4.686
 1296WAT     H2 4100   3.033   0.851   4.638
 1297WAT      O 4101   4.350   4.642   4.892
 1297WAT     H1 4102   4.415   4.647   4.823
 1297WAT     H2 4103   4.266   4.652   4.847
 1298WAT      O 4104   4.420   4.571   2.113
 1298WAT     H1 4105   4.400   4.606   2.026
 1298WAT     H2 4106   4.335   4.568   2.158
 1299WAT      O 4107   0.945   2.872   1.608
 1299WAT     H1 4108   0.869   2.814   1.608
 1299WAT     H2 4109   0.918   2.947   1.660
 1300WAT      O 4110   0.590   2.677   3.837
 1300WAT     H1 4111   0.613   2.623   3.912
 1300WAT     H2 4112   0.660   2.661   3.774
 1301WAT      O 4113   0.811   3.215   2.141
 1301WAT     H1 4114   0.744   3.280   2.160
 1301WAT     H2 4115   0.893   3.256   2.168
 1302WAT      O 4116   3.640   1.156   0.722
 1302WAT     H1 4117   3.601   1.218   0.659
 1302WAT     H2 4118   3.646   1.074   0.673
 1303WAT      O 4119   2.858   2.936   4.624
 1303WAT     H1 4120   2.911   2.863   4.593
 1303WAT     H2 4121   2.770   2.901   4.632
 1304WAT      O 4122   1.861   4.738   3.657
 1304WAT     H1 4123   1.899   4.822   3.681
 1304WAT     H2 4124   1.935   4.686   3.623
 1305WAT      O 4125   0.558   0.130   1.167
 1305WAT     H1 4126   0.479   0.157   1.120
 1305WAT     H2 4127   0.628   0.183   1.128
 1306WAT      O 4128   4.068   1.473   1.630
 1306WAT     H1 4129   4.057   1.393   1.579
 1306WAT     H2 4130   4.163   1.483   1.639
 1307WAT      O 4131   3.592   3.623   3.459
 1307WAT     H1 4132   3.602   3.535   3.497
 1307WAT     H2 4133   3.505   3.622   3.418
 1308WAT      O 4134   2.423   2.462   4.160
 1308WAT     H1 4135   2.476   2.540   4.140
 1308WAT     H2 4136   2.466   2.391   4.113
 1309WAT      O 4137   3.517   2.941   5.288
 1309WAT     H1 4138   3.469   2.891   5.222
 1309WAT     H2 4139   3.449   2.990   5.334
 1310WAT      O 4140   2.417   1.475   2.909
 1310WAT     H1 4141   2.446   1.474   3.001
 1310WAT     H2 4142   2.360   1.399   2.901
 1311WAT      O 4143   0.765   4.130   1.403
 1311WAT     H1 4144   0.788   4.051   1.354
 1311WAT     H2 4145   0.797   4.114   1.491
 1312WAT      O 4146   2.465   4.909   4.235
 1312WAT     H1 4147   2.454   4.854   4.158
 1312WAT     H2 4148   2.445   4.998   4.205
 1313WAT      O 4149   3.522   4.688   3.347
 1313WAT     H1 4150   3.512   4.764   3.404
 1313WAT     H2 4151   3.550   4.617   3.405
 1314WAT      O 4152   3.792   3.883   5.068
 1314WAT     H1 4153   3.836   3.798   5.064
 1314WAT     H2 4154   3.776   3.906   4.977
 1315WAT      O 4155   3.796   4.722   3.546
 1315WAT     H1 4156   3.750   4.638   3.538
 1315WAT     H2 4157   3.887   4.701   3.523
 1316WAT      O 4158   2.395   3.607   2.695
 1316WAT     H1 4159   2.481   3.612   2.736
 1316WAT     H2 4160   2.384   3.691   2.651
 1317WAT      O 4161   1.530   2.496   4.229
 1317WAT     H1 4162   1.593   2.443   4.278
 1317WAT     H2 4163   1.535   2.463   4.139
 1318WAT      O 4164   0.030   0.170   4.248
 1318WAT     H1 4165   0.121   0.181   4.276
 1318WAT     H2 4166   0.006   0.083   4.279
 1319WAT      O 4167   0.680   2.637   1.353
 1319WAT     H1 4168   0.665   2.548   1.386
 1319WAT     H2 4169   0.750   2.627   1.288
 1320WAT      O 4170   1.753   2.596   1.079
 1320WAT     H1 4171   1.841   2.563   1.095
 1320WAT     H2 4172   1.720   2.617   1.166
 1321WAT      O 4173   4.089   3.305   2.245
 1321WAT     H1 4174   3.995   3.319   2.232
 1321WAT     H2 4175   4.130   3.383   2.208
 1322WAT      O 4176   2.862   4.263   3.235
 1322WAT     H1 4177   2.927   4.317   3.281
 1322WAT     H2 4178   2.836   4.197   3.299
 1323WAT      O 4179   0.382   1.682   0.954
 1323WAT     H1 4180   0.325   1.688   0.877
 1323WAT     H2 4181   0.327   1.709   1.027
 1324WAT      O 4182   2.181   0.491   3.012
 1324WAT     H1 4183   2.190   0.586   3.022
 1324WAT     H2 4184   2.187   0.477   2.917
 1325WAT      O 4185   4.485   4.305   5.104
 1325WAT     H1 4186   4.539   4.339   5.033
 1325WAT     H2 4187   4.451   4.384   5.147
 1326WAT      O 4188   0.236   4.660   1.492
 1326WAT     H1 4189   0.197   4.583   1.534
 1326WAT     H2 4190   0.256   4.630   1.403
 1327WAT      O 4191   4.513   1.154   1.325
 1327WAT     H1 4192   4.433   1.190   1.287
 1327WAT     H2 4193   4.570   1.136   1.249
 1328WAT      O 4194   0.569   2.414   2.288
 1328WAT     H1 4195   0.492   2.470   2.282
 1328WAT     H2 4196   0.553   2.344   2.224
 1329WAT      O 4197   2.150   0.388   3.557
 1329WAT     H1 4198   2.101   0.440   3.621
 1329WAT     H2 4199   2.237   0.427   3.556
 1330WAT      O 4200   0.035   4.349   1.938
 1330WAT     H1 4201  -0.006   4.378   2.019
 1330WAT     H2 4202  -0.033   4.296   1.895
 1331WAT      O 4203   3.050   1.071   3.219
 1331WAT     H1 4204   3.060   1.000   3.283
 1331WAT     H2 4205   3.077   1.031   3.136
 1332WAT      O 4206   4.155   3.508   2.060
 1332WAT     H1 4207   4.138   3.464   1.977
 1332WAT     H2 4208   4.225   3.571   2.040
 1333WAT      O 4209   0.402   1.792   1.410
 1333WAT     H1 4210   0.355   1.832   1.337
 1333WAT     H2 4211   0.473   1.742   1.369
 1334WAT      O 4212   2.709   3.906   4.521
 1334WAT     H1 4213   2.730   3.971   4.588
 1334WAT     H2 4214   2.759   3.933   4.445
 1335WAT      O 4215   1.198   4.667   3.423
 1335WAT     H1 4216   1.131   4.693   3.486
 1335WAT     H2 4217   1.279   4.663   3.475
 1336WAT      O 4218   1.616   2.224   0.010
 1336WAT     H1 4219   1.628   2.316   0.037
 1336WAT     H2 4220   1.522   2.210   0.015
 1337WAT      O 4221   1.759   1.395   3.597
 1337WAT     H1 4222   1.752   1.307   3.636
 1337WAT     H2 4223   1.703   1.391   3.520
 1338WAT      O 4224   2.785   2.033   3.019
 1338WAT     H1 4225   2.709   2.083   2.990
 1338WAT     H2 4226   2.809   1.979   2.943
 1339WAT      O 4227   1.289   1.131   4.963
 1339WAT     H1 4228   1.203   1.173   4.973
 1339WAT     H2 4229   1.304   1.087   5.046
 1340WAT      O 4230   0.708   3.432   2.916
 1340WAT     H1 4231   0.747   3.398   2.996
 1340WAT     H2 4232   0.757   3.390   2.846
 1341WAT      O 4233   1.539   5.071   0.862
 1341WAT     H1 4234   1.446   5.048   0.866
 1341WAT     H2 4235   1.561   5.098   0.951
 1342WAT      O 4236   1.397   0.678   3.085
 1342WAT     H1 4237   1.374   0.690   2.992
 1342WAT     H2 4238   1.319   0.638   3.123
 1343WAT      O 4239   0.971   4.050   2.843
 1343WAT     H1 4240   0.895   4.108   2.831
 1343WAT     H2 4241   0.968   4.026   2.936
 1344WAT      O 4242   3.112   1.403   0.873
 1344WAT     H1 4243   3.069   1.451   0.803
 1344WAT     H2 4244   3.205   1.411   0.855
 1345WAT      O 4245   2.136   0.804   4.749
 1345WAT     H1 4246   2.155   0.814   4.843
 1345WAT     H2 4247   2.151   0.711   4.732
 1346WAT      O 4248   2.032   1.584   0.975
 1346WAT     H1 4249   2.083   1.637   1.037
 1346WAT     H2 4250   2.068   1.608   0.889
 1347WAT      O 4251   2.133   3.938   1.802
 1347WAT     H1 4252   2.147   3.957   1.895
 1347WAT     H2 4253   2.142   3.843   1.796
 1348WAT      O 4254   3.389   2.353   2.934
 1348WAT     H1 4255   3.349   2.266   2.932
 1348WAT     H2 4256   3.333   2.406   2.879
 1349WAT      O 4257   2.226   0.016   3.686
 1349WAT     H1 4258   2.256  -0.044   3.617
 1349WAT     H2 4259   2.190   0.091   3.638
 1350WAT      O 4260   1.634   4.688   4.815
 1350WAT     H1 4261   1.636   4.677   4.720
 1350WAT     H2 4262   1.587   4.610   4.847
 1351WAT      O 4263   3.448   1.790   0.686
 1351WAT     H1 4264   3.376   1.792   0.623
 1351WAT     H2 4265   3.527   1.782   0.633
 1352WAT      O 4266   1.842   4.489   3.846
 1352WAT     H1 4267   1.798   4.415   3.806
 1352WAT     H2 4268   1.828   4.562   3.786
 1353WAT      O 4269   1.798   3.975   4.188
 1353WAT     H1 4270   1.843   4.056   4.168
 1353WAT     H2 4271   1.796   3.927   4.105
 1354WAT      O 4272   0.156   4.872   4.345
 1354WAT     H1 4273   0.085   4.934   4.325
 1354WAT     H2 4274   0.111   4.791   4.370
 1355WAT      O 4275   0.958   4.689   2.243
 1355WAT     H1 4276   0.914   4.694   2.328
 1355WAT     H2 4277   1.036   4.636   2.259
 1356WAT      O 4278   3.662   4.121   2.065
 1356WAT     H1 4279   3.662   4.154   1.975
 1356WAT     H2 4280   3.754   4.126   2.092
 1357WAT      O 4281   1.606   2.869   0.325
 1357WAT     H1 4282   1.642   2.934   0.387
 1357WAT     H2 4283   1.651   2.887   0.243
 1358WAT      O 4284   0.635   2.750   2.126
 1358WAT     H1 4285   0.593   2.663   2.125
 1358WAT     H2 4286   0.613   2.786   2.212
 1359WAT      O 4287   3.977   0.758   1.651
 1359WAT     H1 4288   3.966   0.837   1.703
 1359WAT     H2 4289   3.887   0.727   1.636
 1360WAT      O 4290   2.066   3.104   2.762
 1360WAT     H1 4291   2.005   3.168   2.727
 1360WAT     H2 4292   2.143   3.111   2.706
 1361WAT      O 4293   3.216   2.836   3.316
 1361WAT     H1 4294   3.299   2.818   3.272
 1361WAT     H2 4295   3.150   2.795   3.261
 1362WAT      O 4296   3.323   4.941   1.977
 1362WAT     H1 4297   3.389   4.999   1.939
 1362WAT     H2 4298   3.323   4.963   2.071
 1363WAT      O 4299   0.554   2.783   0.145
 1363WAT     H1 4300   0.593   2.701   0.117
 1363WAT     H2 4301   0.460   2.765   0.146
 1364WAT      O 4302   2.022   3.842   0.873
 1364WAT     H1 4303   2.067   3.871   0.794
 1364WAT     H2 4304   1.996   3.923   0.917
 1365WAT      O 4305   4.179   1.556   0.435
 1365WAT     H1 4306   4.241   1.488   0.407
 1365WAT     H2 4307   4.131   1.516   0.508
 1366WAT      O 4308   0.790   4.931   1.266
 1366WAT     H1 4309   0.743   4.851   1.289
 1366WAT     H2 4310   0.728   5.002   1.287
 1367WAT      O 4311   2.929   0.434   0.622
 1367WAT     H1 4312   2.838   0.405   0.623
 1367WAT     H2 4313   2.947   0.461   0.712
 1368WAT      O 4314   1.652   1.354   1.453
 1368WAT     H1 4315   1.655   1.382   1.362
 1368WAT     H2 4316   1.727   1.296   1.463
 1369WAT      O 4317   2.927   3.861   0.908
 1369WAT     H1 4318   2.984   3.817   0.846
 1369WAT     H2 4319   2.906   3.794   0.973
 1370WAT      O 4320   1.741   2.126   0.659
 1370WAT     H1 4321   1.715   2.205   0.707
 1370WAT     H2 4322   1.814   2.154   0.604
 1371WAT      O 4323   2.397   4.660   4.319
 1371WAT     H1 4324   2.441   4.736   4.358
 1371WAT     H2 4325   2.329   4.698   4.264
 1372WAT      O 4326   0.658   0.110   1.408
 1372WAT     H1 4327   0.624   0.191   1.445
 1372WAT     H2 4328   0.629   0.111   1.316
 1373WAT      O 4329   0.622   1.641   1.299
 1373WAT     H1 4330   0.557   1.575   1.275
 1373WAT     H2 4331   0.705   1.606   1.267
 1374WAT      O 4332   1.155   3.148   0.942
 1374WAT     H1 4333   1.209   3.224   0.920
 1374WAT     H2 4334   1.145   3.152   1.037
 1375WAT      O 4335   1.317   2.112   1.837
 1375WAT     H1 4336   1.353   2.073   1.757
 1375WAT     H2 4337   1.253   2.048   1.868
 1376WAT      O 4338   0.099   3.125   4.147
 1376WAT     H1 4339   0.179   3.082   4.175
 1376WAT     H2 4340   0.094   3.204   4.200
 1377WAT      O 4341   2.847   2.178   2.389
 1377WAT     H1 4342   2.752   2.169   2.391
 1377WAT     H2 4343   2.867   2.200   2.298
 1378WAT      O 4344   2.073   1.903   4.214
 1378WAT     H1 4345   2.139   1.835   4.200
 1378WAT     H2 4346   2.085   1.929   4.306
 1379WAT      O 4347   3.062   4.752   3.987
 1379WAT     H1 4348   3.075   4.683   4.052
 1379WAT     H2 4349   3.150   4.783   3.966
 1380WAT      O 4350   0.362   2.478   2.595
 1380WAT     H1 4351   0.456   2.497   2.591
 1380WAT     H2 4352   0.327   2.510   2.512
 1381WAT      O 4353   3.634   2.172   1.450
 1381WAT     H1 4354   3.667   2.089   1.484
 1381WAT     H2 4355   3.711   2.230   1.449
 1382WAT      O 4356   2.998   2.340   3.883
 1382WAT     H1 4357   3.007   2.316   3.975
 1382WAT     H2 4358   2.925   2.288   3.850
 1383WAT      O 4359   0.707   0.404   2.750
 1383WAT     H1 4360   0.688   0.478   2.807
 1383WAT     H2 4361   0.642   0.410   2.680
 1384WAT      O 4362   0.031   2.080   3.686
 1384WAT     H1 4363   0.113   2.050   3.648
 1384WAT     H2 4364  -0.016   2.119   3.613
 1385WAT      O 4365   4.359   0.401   2.456
 1385WAT     H1 4366   4.378   0.351   2.377
 1385WAT     H2 4367   4.274   0.441   2.440
 1386WAT      O 4368   0.042   0.398   3.518
 1386WAT     H1 4369   0.109   0.340   3.481
 1386WAT     H2 4370   0.043   0.378   3.612
 1387WAT      O 4371   3.632   2.157   4.678
 1387WAT     H1 4372   3.565   2.091   4.698
 1387WAT     H2 4373   3.648   2.146   4.584
 1388WAT      O 4374   3.953   1.419   0.186
 1388WAT     H1 4375   3.966   1.327   0.162
 1388WAT     H2 4376   4.041   1.455   0.192
 1389WAT      O 4377   1.945   1.400   1.155
 1389WAT     H1 4378   1.980   1.455   1.085
 1389WAT     H2 4379   2.023   1.365   1.198
 1390WAT      O 4380   1.942   0.316   3.066
 1390WAT     H1 4381   1.927   0.303   3.160
 1390WAT     H2 4382   1.993   0.396   3.061
 1391WAT      O 4383   2.497   0.994   4.205
 1391WAT     H1 4384   2.533   0.995   4.294
 1391WAT     H2 4385   2.447   0.912   4.200
 1392WAT      O 4386   3.106   3.903   1.252
 1392WAT     H1 4387   3.018   3.941   1.245
 1392WAT     H2 4388   3.093   3.810   1.235
 1393WAT      O 4389   3.011   4.819   1.659
 1393WAT     H1 4390   3.047   4.774   1.582
 1393WAT     H2 4391   3.067   4.895   1.670
 1394WAT      O 4392   1.688   0.880   3.464
 1394WAT     H1 4393   1.648   0.902   3.379
 1394WAT     H2 4394   1.637   0.804   3.494
 1395WAT      O 4395   1.242   2.210   3.421
 1395WAT     H1 4396   1.278   2.127   3.452
 1395WAT     H2 4397   1.254   2.207   3.326
 1396WAT      O 4398   3.629   5.034   1.643
 1396WAT     H1 4399   3.647   4.984   1.563
 1396WAT     H2 4400   3.678   5.115   1.632
 1397WAT      O 4401   0.761   4.614   1.237
 1397WAT     H1 4402   0.728   4.524   1.246
 1397WAT     H2 4403   0.686   4.669   1.261
 1398WAT      O 4404   1.316   0.279   0.623
 1398WAT     H1 4405   1.394   0.233   0.590
 1398WAT     H2 4406   1.291   0.337   0.551
 1399WAT      O 4407   4.323   1.787   3.606
 1399WAT     H1 4408   4.413   1.759   3.591
 1399WAT     H2 4409   4.274   1.748   3.533
 1400WAT      O 4410   3.982   0.841   0.862
 1400WAT     H1 4411   4.028   0.774   0.913
 1400WAT     H2 4412   4.051   0.884   0.812
 1401WAT      O 4413   2.600   2.652   0.405
 1401WAT     H1 4414   2.547   2.592   0.353
 1401WAT     H2 4415   2.688   2.615   0.402
 1402WAT      O 4416   3.793   2.672   5.265
 1402WAT     H1 4417   3.795   2.767   5.281
 1402WAT     H2 4418   3.865   2.638   5.318
 1403WAT      O 4419   2.953   2.821   0.432
 1403WAT     H1 4420   3.028   2.849   0.484
 1403WAT     H2 4421   2.884   2.884   0.453
 1404WAT      O 4422   0.123   0.267   3.870
 1404WAT     H1 4423   0.177   0.283   3.947
 1404WAT     H2 4424   0.082   0.352   3.853
 1405WAT      O 4425   1.962   4.529   1.759
 1405WAT     H1 4426   1.876   4.562   1.786
 1405WAT     H2 4427   2.012   4.607   1.736
 1406WAT      O 4428   3.737   4.863   3.793
 1406WAT     H1 4429   3.771   4.798   3.732
 1406WAT     H2 4430   3.814   4.915   3.817
 1407WAT      O 4431   4.220   4.689   4.522
 1407WAT     H1 4432   4.298   4.635   4.512
 1407WAT     H2 4433   4.169   4.645   4.590
 1408WAT      O 4434   2.811   3.053   0.472
 1408WAT     H1 4435   2.893   3.102   0.463
 1408WAT     H2 4436   2.748   3.102   0.420
 1409WAT      O 4437   3.641   3.509   1.583
 1409WAT     H1 4438   3.633   3.590   1.633
 1409WAT     H2 4439   3.709   3.528   1.518
 1410WAT      O 4440   3.199   1.368   4.144
 1410WAT     H1 4441   3.235   1.425   4.075
 1410WAT     H2 4442   3.150   1.428   4.201
 1411WAT      O 4443   3.896   3.874   0.412
 1411WAT     H1 4444   3.903   3.845   0.321
 1411WAT     H2 4445   3.858   3.962   0.406
 1412WAT      O 4446   3.620   2.337   3.197
 1412WAT     H1 4447   3.551   2.284   3.238
 1412WAT     H2 4448   3.573   2.413   3.162
 1413WAT      O 4449   3.222   3.453   4.959
 1413WAT     H1 4450   3.126   3.448   4.956
 1413WAT     H2 4451   3.250   3.412   4.877
 1414WAT      O 4452   3.502   4.213   2.796
 1414WAT     H1 4453   3.461   4.131   2.823
 1414WAT     H2 4454   3.489   4.271   2.871
 1415WAT      O 4455   4.083   5.095   0.520
 1415WAT     H1 4456   4.172   5.065   0.505
 1415WAT     H2 4457   4.065   5.156   0.448
 1416WAT      O 4458   0.129   0.848   0.154
 1416WAT     H1 4459   0.094   0.923   0.105
 1416WAT     H2 4460   0.068   0.777   0.135
 1417WAT      O 4461   1.345   2.303   0.469
 1417WAT     H1 4462   1.259   2.293   0.429
 1417WAT     H2 4463   1.333   2.277   0.560
 1418WAT      O 4464   4.375   4.988   0.898
 1418WAT     H1 4465   4.371   4.932   0.820
 1418WAT     H2 4466   4.442   5.053   0.876
 1419WAT      O 4467   0.034   3.857   3.912
 1419WAT     H1 4468  -0.037   3.905   3.954
 1419WAT     H2 4469  -0.010   3.794   3.855
 1420WAT      O 4470   2.504   3.976   3.060
 1420WAT     H1 4471   2.581   3.960   3.005
 1420WAT     H2 4472   2.482   3.889   3.095
 1421WAT      O 4473   2.275   0.383   3.248
 1421WAT     H1 4474   2.328   0.459   3.272
 1421WAT     H2 4475   2.244   0.402   3.159
 1422WAT      O 4476   0.590   2.653   5.120
 1422WAT     H1 4477   0.566   2.742   5.146
 1422WAT     H2 4478   0.615   2.610   5.201
 1423WAT      O 4479   4.072   2.059   1.296
 1423WAT     H1 4480   4.076   2.020   1.384
 1423WAT     H2 4481   4.026   1.994   1.243
 1424WAT      O 4482   0.175   4.714   3.973
 1424WAT     H1 4483   0.260   4.755   3.989
 1424WAT     H2 4484   0.111   4.782   3.995
 1425WAT      O 4485   1.482   1.913   0.883
 1425WAT     H1 4486   1.531   1.983   0.927
 1425WAT     H2 4487   1.494   1.930   0.790
 1426WAT      O 4488   1.224   2.875   4.908
 1426WAT     H1 4489   1.229   2.809   4.839
 1426WAT     H2 4490   1.271   2.950   4.872
 1427WAT      O 4491   3.681   4.930   4.094
 1427WAT     H1 4492   3.712   4.848   4.132
 1427WAT     H2 4493   3.759   4.985   4.088
 1428WAT      O 4494   4.419   4.081   5.250
 1428WAT     H1 4495   4.445   4.161   5.204
 1428WAT     H2 4496   4.344   4.109   5.304
 1429WAT      O 4497   0.822   2.419   1.956
 1429WAT     H1 4498   0.737   2.401   1.916
 1429WAT     H2 4499   0.852   2.334   1.987
 1430WAT      O 4500   0.986   2.416   2.828
 1430WAT     H1 4501   0.971   2.368   2.747
 1430WAT     H2 4502   0.900   2.424   2.868
 1431WAT      O 4503   1.230   1.079   4.061
 1431WAT     H1 4504   1.248   1.151   4.122
 1431WAT     H2 4505   1.294   1.012   4.084
 1432WAT      O 4506   1.188   0.984   1.197
 1432WAT     H1 4507   1.093   0.992   1.183
 1432WAT     H2 4508   1.225   1.061   1.154
 1433WAT      O 4509   4.258   3.636   4.504
 1433WAT     H1 4510   4.237   3.582   4.581
 1433WAT     H2 4511   4.272   3.574   4.434
 1434WAT      O 4512   2.685   1.382   1.985
 1434WAT     H1 4513   2.665   1.455   1.926
 1434WAT     H2 4514   2.661   1.304   1.935
 1435WAT      O 4515   3.236   0.577   0.759
 1435WAT     H1 4516   3.161   0.524   0.787
 1435WAT     H2 4517   3.251   0.638   0.831
 1436WAT      O 4518   0.392   4.397   4.320
 1436WAT     H1 4519   0.404   4.302   4.333
 1436WAT     H2 4520   0.356   4.428   4.402
 1437WAT      O 4521   0.082   1.452   0.003
 1437WAT     H1 4522   0.136   1.380   0.036
 1437WAT     H2 4523   0.018   1.468   0.073
 1438WAT      O 4524   1.246   2.381   2.198
 1438WAT     H1 4525   1.210   2.348   2.280
 1438WAT     H2 4526   1.269   2.472   2.216
 1439WAT      O 4527   4.328   1.789   4.350
 1439WAT     H1 4528   4.288   1.864   4.393
 1439WAT     H2 4529   4.266   1.717   4.363
 1440WAT      O 4530   3.839   1.572   4.784
 1440WAT     H1 4531   3.911   1.581   4.721
 1440WAT     H2 4532   3.874   1.514   4.851
 1441WAT      O 4533   0.900   3.845   0.195
 1441WAT     H1 4534   0.905   3.787   0.271
 1441WAT     H2 4535   0.969   3.814   0.136
 1442WAT      O 4536   2.965   1.532   0.691
 1442WAT     H1 4537   2.910   1.549   0.768
 1442WAT     H2 4538   2.957   1.612   0.638
 1443WAT      O 4539   3.453   2.350   2.345
 1443WAT     H1 4540   3.362   2.321   2.355
 1443WAT     H2 4541   3.489   2.348   2.434
 1444WAT      O 4542   1.154   4.187   4.047
 1444WAT     H1 4543   1.070   4.235   4.044
 1444WAT     H2 4544   1.206   4.237   4.110
 1445WAT      O 4545   0.869   4.250   0.984
 1445WAT     H1 4546   0.953   4.223   0.946
 1445WAT     H2 4547   0.888   4.334   1.024
 1446WAT      O 4548   0.736   0.220   3.235
 1446WAT     H1 4549   0.776   0.216   3.148
 1446WAT     H2 4550   0.649   0.183   3.222
 1447WAT      O 4551   2.081   4.379   4.357
 1447WAT     H1 4552   2.036   4.460   4.383
 1447WAT     H2 4553   2.047   4.312   4.417
 1448WAT      O 4554   0.589   1.494   1.958
 1448WAT     H1 4555   0.592   1.493   2.053
 1448WAT     H2 4556   0.506   1.539   1.937
 1449WAT      O 4557   4.438   3.945   2.399
 1449WAT     H1 4558   4.411   4.025   2.442
 1449WAT     H2 4559   4.382   3.877   2.437
 1450WAT      O 4560   4.313   4.429   4.448
 1450WAT     H1 4561   4.400   4.407   4.415
 1450WAT     H2 4562   4.257   4.427   4.371
 1451WAT      O 4563   3.481   0.377   3.636
 1451WAT     H1 4564   3.507   0.333   3.717
 1451WAT     H2 4565   3.541   0.343   3.570
 1452WAT      O 4566   1.522   3.033   3.439
 1452WAT     H1 4567   1.533   2.941   3.466
 1452WAT     H2 4568   1.436   3.036   3.398
 1453WAT      O 4569   3.043   1.146   0.948
 1453WAT     H1 4570   3.034   1.214   0.881
 1453WAT     H2 4571   3.026   1.190   1.031
 1454WAT      O 4572   4.204   3.263   5.042
 1454WAT     H1 4573   4.217   3.191   5.105
 1454WAT     H2 4574   4.287   3.268   4.995
 1455WAT      O 4575   0.170   4.715   0.406
 1455WAT     H1 4576   0.202   4.778   0.470
 1455WAT     H2 4577   0.233   4.643   0.408
 1456WAT      O 4578   0.268   4.202   2.016
 1456WAT     H1 4579   0.198   4.225   1.954
 1456WAT     H2 4580   0.221   4.177   2.096
 1457WAT      O 4581   1.532   4.834   1.530
 1457WAT     H1 4582   1.610   4.827   1.584
 1457WAT     H2 4583   1.518   4.746   1.496
 1458WAT      O 4584   1.436   4.049   4.370
 1458WAT     H1 4585   1.366   4.093   4.419
 1458WAT     H2 4586   1.392   4.013   4.293
 1459WAT      O 4587   1.988   4.999   3.038
 1459WAT     H1 4588   1.961   4.946   3.112
 1459WAT     H2 4589   2.072   4.962   3.011
 1460WAT      O 4590   3.369   3.950   3.645
 1460WAT     H1 4591   3.399   4.033   3.682
 1460WAT     H2 4592   3.334   3.974   3.559
 1461WAT      O 4593   2.738   1.983   2.137
 1461WAT     H1 4594   2.777   1.896   2.134
 1461WAT     H2 4595   2.728   2.008   2.045
 1462WAT      O 4596   1.048   1.676   4.078
 1462WAT     H1 4597   1.046   1.751   4.019
 1462WAT     H2 4598   0.991   1.611   4.035
 1463WAT      O 4599   1.307   4.878   0.887
 1463WAT     H1 4600   1.215   4.885   0.862
 1463WAT     H2 4601   1.305   4.867   0.982
 1464WAT      O 4602   4.378   4.707   1.523
 1464WAT     H1 4603   4.429   4.657   1.587
 1464WAT     H2 4604   4.441   4.767   1.484
 1465WAT      O 4605   0.760   3.358   1.734
 1465WAT     H1 4606   0.836   3.345   1.678
 1465WAT     H2 4607   0.751   3.454   1.739
 1466WAT      O 4608   1.421   0.238   2.139
 1466WAT     H1 4609   1.334   0.230   2.176
 1466WAT     H2 4610   1.456   0.149   2.138
 1467WAT      O 4611   4.227   1.077   0.652
 1467WAT     H1 4612   4.156   1.030   0.608
 1467WAT     H2 4613   4.243   1.027   0.732
 1468WAT      O 4614   2.152   1.421   1.722
 1468WAT     H1 4615   2.057   1.425   1.728
 1468WAT     H2 4616   2.181   1.403   1.812
 1469WAT      O 4617   2.763   0.837   4.833
 1469WAT     H1 4618   2.689   0.886   4.796
 1469WAT     H2 4619   2.783   0.884   4.914
 1470WAT      O 4620   0.646   3.658   4.651
 1470WAT     H1 4621   0.657   3.753   4.655
 1470WAT     H2 4622   0.557   3.646   4.617
 1471WAT      O 4623   3.846   3.321   0.324
 1471WAT     H1 4624   3.762   3.280   0.300
 1471WAT     H2 4625   3.891   3.335   0.241
 1472WAT      O 4626   0.925   1.411   3.064
 1472WAT     H1 4627   0.996   1.452   3.016
 1472WAT     H2 4628   0.859   1.480   3.073
 1473WAT      O 4629   3.830   3.519   0.501
 1473WAT     H1 4630   3.921   3.544   0.483
 1473WAT     H2 4631   3.816   3.441   0.447
 1474WAT      O 4632   3.217   0.097   5.237
 1474WAT     H1 4633   3.246   0.156   5.167
 1474WAT     H2 4634   3.125   0.120   5.251
 1475WAT      O 4635   2.444   5.037   2.341
 1475WAT     H1 4636   2.465   4.986   2.418
 1475WAT     H2 4637   2.453   4.976   2.268
 1476WAT      O 4638   2.232   3.240   1.726
 1476WAT     H1 4639   2.318   3.222   1.764
 1476WAT     H2 4640   2.175   3.251   1.801
 1477WAT      O 4641   2.024   4.567   0.066
 1477WAT     H1 4642   1.938   4.528   0.048
 1477WAT     H2 4643   2.003   4.652   0.105
 1478WAT      O 4644   0.607   0.825   2.562
 1478WAT     H1 4645   0.564   0.763   2.620
 1478WAT     H2 4646   0.616   0.905   2.614
 1479WAT      O 4647   1.806   0.616   4.808
 1479WAT     H1 4648   1.891   0.658   4.815
 1479WAT     H2 4649   1.818   0.530   4.848
 1480WAT      O 4650   0.907   3.628   4.878
 1480WAT     H1 4651   0.842   3.615   4.809
 1480WAT     H2 4652   0.858   3.622   4.960
 1481WAT      O 4653   0.958   5.085   1.681
 1481WAT     H1 4654   0.868   5.053   1.683
 1481WAT     H2 4655   0.976   5.113   1.771
 1482WAT      O 4656   2.918   3.233   1.653
 1482WAT     H1 4657   2.862   3.187   1.715
 1482WAT     H2 4658   2.911   3.325   1.677
 1483WAT      O 4659   0.376   1.821   3.303
 1483WAT     H1 4660   0.416   1.806   3.217
 1483WAT     H2 4661   0.446   1.803   3.365
 1484WAT      O 4662   3.318   0.331   1.504
 1484WAT     H1 4663   3.343   0.239   1.500
 1484WAT     H2 4664   3.401   0.378   1.511
 1485WAT      O 4665   3.633   0.111   1.198
 1485WAT     H1 4666   3.726   0.114   1.218
 1485WAT     H2 4667   3.629   0.103   1.103
 1486WAT      O 4668   1.464   1.749   1.851
 1486WAT     H1 4669   1.377   1.707   1.848
 1486WAT     H2 4670   1.462   1.802   1.931
 1487WAT      O 4671   0.559   2.537   0.794
 1487WAT     H1 4672   0.503   2.555   0.718
 1487WAT     H2 4673   0.643   2.576   0.771
 1488WAT      O 4674   2.698   4.894   0.732
 1488WAT     H1 4675   2.685   4.824   0.668
 1488WAT     H2 4676   2.705   4.849   0.816
 1489WAT      O 4677   1.272   2.543   4.289
 1489WAT     H1 4678   1.241   2.587   4.210
 1489WAT     H2 4679   1.363   2.521   4.270
 1490WAT      O 4680   2.002   0.618   1.574
 1490WAT     H1 4681   2.030   0.529   1.594
 1490WAT     H2 4682   2.079   0.659   1.534
 1491WAT      O 4683   3.364   4.937   0.346
 1491WAT     H1 4684   3.436   4.897   0.297
 1491WAT     H2 4685   3.286   4.915   0.295
 1492WAT      O 4686   0.115   2.013   2.625
 1492WAT     H1 4687   0.158   2.087   2.582
 1492WAT     H2 4688   0.097   2.045   2.713
 1493WAT      O 4689   3.440   3.409   1.758
 1493WAT     H1 4690   3.499   3.399   1.684
 1493WAT     H2 4691   3.355   3.379   1.725
 1494WAT      O 4692   1.464   4.294   5.000
 1494WAT     H1 4693   1.475   4.241   5.080
 1494WAT     H2 4694   1.441   4.230   4.933
 1495WAT      O 4695   4.169   0.589   1.271
 1495WAT     H1 4696   4.205   0.620   1.354
 1495WAT     H2 4697   4.222   0.633   1.204
 1496WAT      O 4698   1.646   0.955   1.381
 1496WAT     H1 4699   1.694   0.903   1.446
 1496WAT     H2 4700   1.554   0.939   1.401
 1497WAT      O 4701   3.607   1.307   4.050
 1497WAT     H1 4702   3.619   1.213   4.060
 1497WAT     H2 4703   3.600   1.339   4.140
 1498WAT      O 4704   2.951   1.470   2.346
 1498WAT     H1 4705   3.046   1.463   2.340
 1498WAT     H2 4706   2.934   1.499   2.436
 1499WAT      O 4707   2.175   3.963   1.192
 1499WAT     H1 4708   2.234   3.956   1.117
 1499WAT     H2 4709   2.091   3.987   1.154
 1500WAT      O 4710   1.962   0.473   1.930
 1500WAT     H1 4711   1.866   0.479   1.932
 1500WAT     H2 4712   1.983   0.456   1.838
 1501WAT      O 4713   3.498   0.407   1.166
 1501WAT     H1 4714   3.542   0.357   1.235
 1501WAT     H2 4715   3.547   0.489   1.161
 1502WAT      O 4716   4.088   0.639   1.891
 1502WAT     H1 4717   4.055   0.724   1.919
 1502WAT     H2 4718   4.067   0.634   1.798
 1503WAT      O 4719   0.443   2.827   4.022
 1503WAT     H1 4720   0.383   2.880   3.970
 1503WAT     H2 4721   0.487   2.772   3.957
 1504WAT      O 4722   4.503   0.821   3.875
 1504WAT     H1 4723   4.565   0.889   3.850
 1504WAT     H2 4724   4.435   0.824   3.807
 1505WAT      O 4725   0.032   4.923   1.111
 1505WAT     H1 4726   0.079   5.006   1.124
 1505WAT     H2 4727  -0.055   4.950   1.080
 1506WAT      O 4728   3.975   4.442   1.025
 1506WAT     H1 4729   3.965   4.370   1.088
 1506WAT     H2 4730   3.893   4.492   1.033
 1507WAT      O 4731   2.428   0.741   4.552
 1507WAT     H1 4732   2.335   0.753   4.531
 1507WAT     H2 4733   2.429   0.677   4.623
 1508WAT      O 4734   0.312   0.163   3.584
 1508WAT     H1 4735   0.369   0.098   3.544
 1508WAT     H2 4736   0.311   0.235   3.521
 1509WAT      O 4737   4.044   2.324   2.420
 1509WAT     H1 4738   4.002   2.274   2.350
 1509WAT     H2 4739   4.036   2.416   2.392
 1510WAT      O 4740   4.134   2.324   1.208
 1510WAT     H1 4741   4.134   2.245   1.262
 1510WAT     H2 4742   4.227   2.349   1.204
 1511WAT      O 4743   0.236   1.045   1.185
 1511WAT     H1 4744   0.324   1.033   1.149
 1511WAT     H2 4745   0.200   0.957   1.191
 1512WAT      O 4746   0.970   0.023   1.947
 1512WAT     H1 4747   0.994  -0.057   1.994
 1512WAT     H2 4748   0.889   0.051   1.990
 1513WAT      O 4749   2.522   1.340   2.308
 1513WAT     H1 4750   2.610   1.355   2.274
 1513WAT     H2 4751   2.502   1.250   2.284
 1514WAT      O 4752   4.418   2.390   1.351
 1514WAT     H1 4753   4.416   2.447   1.274
 1514WAT     H2 4754   4.503   2.345   1.345
 1515WAT      O 4755   1.215   1.985   2.927
 1515WAT     H1 4756   1.209   2.076   2.896
 1515WAT     H2 4757   1.131   1.947   2.903
 1516WAT      O 4758   3.816   3.372   2.721
 1516WAT     H1 4759   3.759   3.387   2.796
 1516WAT     H2 4760   3.896   3.420   2.742
 1517WAT      O 4761   3.425   0.256   1.836
 1517WAT     H1 4762   3.445   0.344   1.870
 1517WAT     H2 4763   3.337   0.238   1.869
 1518WAT      O 4764   3.022   1.557   3.240
 1518WAT     H1 4765   3.065   1.482   3.281
 1518WAT     H2 4766   2.975   1.519   3.165
 1519WAT      O 4767   0.408   0.406   4.458
 1519WAT     H1 4768   0.482   0.374   4.510
 1519WAT     H2 4769   0.351   0.329   4.450
 1520WAT      O 4770   3.900   4.699   3.008
 1520WAT     H1 4771   3.879   4.634   3.075
 1520WAT     H2 4772   3.928   4.647   2.933
 1521WAT      O 4773   0.526   4.029   0.206
 1521WAT     H1 4774   0.538   4.050   0.299
 1521WAT     H2 4775   0.615   4.028   0.170
 1522WAT      O 4776   1.814   2.789   0.889
 1522WAT     H1 4777   1.890   2.735   0.866
 1522WAT     H2 4778   1.772   2.743   0.961
 1523WAT      O 4779   0.733   3.735   0.525
 1523WAT     H1 4780   0.670   3.764   0.459
 1523WAT     H2 4781   0.699   3.767   0.608
 1524WAT      O 4782   4.030   1.735   1.580
 1524WAT     H1 4783   4.094   1.761   1.514
 1524WAT     H2 4784   4.045   1.641   1.592
 1525WAT      O 4785   4.156   4.912   1.012
 1525WAT     H1 4786   4.084   4.958   0.969
 1525WAT     H2 4787   4.231   4.926   0.954
 1526WAT      O 4788   4.165   3.915   0.981
 1526WAT     H1 4789   4.151   3.999   1.024
 1526WAT     H2 4790   4.170   3.852   1.052
 1527WAT      O 4791   2.673   2.439   5.172
 1527WAT     H1 4792   2.649   2.388   5.249
 1527WAT     H2 4793   2.763   2.467   5.189
 1528WAT      O 4794   2.705   2.722   3.593
 1528WAT     H1 4795   2.799   2.705   3.592
 1528WAT     H2 4796   2.671   2.662   3.660
 1529WAT      O 4797   1.434   2.645   3.216
 1529WAT     H1 4798   1.453   2.564   3.263
 1529WAT     H2 4799   1.519   2.676   3.186
 1530WAT      O 4800   3.926   0.612   2.529
 1530WAT     H1 4801   3.886   0.531   2.498
 1530WAT     H2 4802   3.953   0.593   2.619
 1531WAT      O 4803   2.474   1.952   4.785
 1531WAT     H1 4804   2.497   1.886   4.850
 1531WAT     H2 4805   2.381   1.935   4.765
 1532WAT      O 4806   1.803   1.856   0.782
 1532WAT     H1 4807   1.778   1.857   0.689
 1532WAT     H2 4808   1.891   1.894   0.784
 1533WAT      O 4809   2.961   0.215   0.990
 1533WAT     H1 4810   3.020   0.151   0.950
 1533WAT     H2 4811   2.979   0.208   1.084
 1534WAT      O 4812   1.814   0.537   5.196
 1534WAT     H1 4813   1.768   0.590   5.261
 1534WAT     H2 4814   1.760   0.544   5.117
 1535WAT      O 4815   2.356   0.157   3.430
 1535WAT     H1 4816   2.355   0.247   3.398
 1535WAT     H2 4817   2.443   0.147   3.470
 1536WAT      O 4818   3.245   4.146   5.202
 1536WAT     H1 4819   3.334   4.181   5.192
 1536WAT     H2 4820   3.207   4.195   5.274
 1537WAT      O 4821   3.454   1.265   0.533
 1537WAT     H1 4822   3.453   1.255   0.438
 1537WAT     H2 4823   3.374   1.221   0.562
 1538WAT      O 4824   0.915   3.264   2.434
 1538WAT     H1 4825   0.974   3.189   2.426
 1538WAT     H2 4826   0.927   3.313   2.352
 1539WAT      O 4827   4.137   5.018   3.391
 1539WAT     H1 4828   4.095   4.981   3.314
 1539WAT     H2 4829   4.201   5.080   3.356
 1540WAT      O 4830   1.003   4.551   0.241
 1540WAT     H1 4831   1.029   4.606   0.167
 1540WAT     H2 4832   1.032   4.601   0.318
 1541WAT      O 4833   1.158   3.943   0.341
 1541WAT     H1 4834   1.185   3.881   0.273
 1541WAT     H2 4835   1.072   3.912   0.369
 1542WAT      O 4836   3.078   3.780   0.722
 1542WAT     H1 4837   3.044   3.735   0.644
 1542WAT     H2 4838   3.169   3.751   0.728
 1543WAT      O 4839   0.544   4.508   4.029
 1543WAT     H1 4840   0.530   4.481   4.120
 1543WAT     H2 4841   0.563   4.426   3.983
 1544WAT      O 4842   4.294   0.626   0.627
 1544WAT     H1 4843   4.271   0.653   0.538
 1544WAT     H2 4844   4.356   0.555   0.616
 1545WAT      O 4845   2.072   1.585   4.357
 1545WAT     H1 4846   2.013   1.528   4.307
 1545WAT     H2 4847   2.138   1.614   4.293
 1546WAT      O 4848   3.119   4.830   3.575
 1546WAT     H1 4849   3.148   4.921   3.586
 1546WAT     H2 4850   3.058   4.833   3.501
 1547WAT      O 4851   0.793   1.841   3.108
 1547WAT     H1 4852   0.832   1.839   3.195
 1547WAT     H2 4853   0.758   1.929   3.099
 1548WAT      O 4854   2.671   4.883   0.307
 1548WAT     H1 4855   2.667   4.817   0.376
 1548WAT     H2 4856   2.612   4.953   0.337
 1549WAT      O 4857   0.454   3.626   0.847
 1549WAT     H1 4858   0.506   3.699   0.815
 1549WAT     H2 4859   0.401   3.600   0.772
 1550WAT      O 4860   0.266   1.261   2.517
 1550WAT     H1 4861   0.199   1.274   2.451
 1550WAT     H2 4862   0.305   1.348   2.529
 1551WAT      O 4863   1.267   4.837   4.457
 1551WAT     H1 4864   1.215   4.786   4.518
 1551WAT     H2 4865   1.203   4.881   4.401
 1552WAT      O 4866   1.628   1.584   1.736
 1552WAT     H1 4867   1.579   1.559   1.657
 1552WAT     H2 4868   1.573   1.649   1.779
 1553WAT      O 4869   1.767   3.662   2.395
 1553WAT     H1 4870   1.708   3.660   2.320
 1553WAT     H2 4871   1.715   3.700   2.466
 1554WAT      O 4872   1.766   1.518   2.740
 1554WAT     H1 4873   1.726   1.432   2.754
 1554WAT     H2 4874   1.827   1.527   2.813
 1555WAT      O 4875   4.355   3.853   0.162
 1555WAT     H1 4876   4.299   3.928   0.180
 1555WAT     H2 4877   4.342   3.836   0.068
 1556WAT      O 4878   2.084   3.837   3.333
 1556WAT     H1 4879   2.134   3.763   3.298
 1556WAT     H2 4880   2.034   3.800   3.405
 1557WAT      O 4881   4.284   2.703   3.297
 1557WAT     H1 4882   4.368   2.728   3.335
 1557WAT     H2 4883   4.251   2.636   3.356
 1558WAT      O 4884   3.624   2.933   1.114
 1558WAT     H1 4885   3.621   2.993   1.039
 1558WAT     H2 4886   3.673   2.980   1.181
 1559WAT      O 4887   0.138   2.324   2.639
 1559WAT     H1 4888   0.078   2.351   2.569
 1559WAT     H2 4889   0.208   2.390   2.637
 1560WAT      O 4890   1.017   3.677   2.786
 1560WAT     H1 4891   1.041   3.669   2.694
 1560WAT     H2 4892   1.100   3.695   2.831
 1561WAT      O 4893   1.399   2.015   3.553
 1561WAT     H1 4894   1.468   2.080   3.570
 1561WAT     H2 4895   1.443   1.931   3.561
 1562WAT      O 4896   1.498   2.547   0.954
 1562WAT     H1 4897   1.586   2.554   0.992
 1562WAT     H2 4898   1.482   2.633   0.915
 1563WAT      O 4899   4.346   2.535   1.141
 1563WAT     H1 4900   4.426   2.581   1.115
 1563WAT     H2 4901   4.278   2.575   1.087
 1564WAT      O 4902   1.212   0.177   4.167
 1564WAT     H1 4903   1.197   0.270   4.149
 1564WAT     H2 4904   1.223   0.138   4.080
 1565WAT      O 4905   2.917   5.059   4.806
 1565WAT     H1 4906   2.875   5.127   4.860
 1565WAT     H2 4907   2.926   4.984   4.864
 1566WAT      O 4908   1.904   1.023   0.058
 1566WAT     H1 4909   1.841   1.055   0.123
 1566WAT     H2 4910   1.990   1.043   0.096
 1567WAT      O 4911   1.053   5.066   3.872
 1567WAT     H1 4912   1.145   5.062   3.848
 1567WAT     H2 4913   1.013   5.119   3.803
 1568WAT      O 4914   0.974   3.452   1.894
 1568WAT     H1 4915   1.028   3.416   1.965
 1568WAT     H2 4916   0.909   3.384   1.877
 1569WAT      O 4917   1.732   1.437   4.691
 1569WAT     H1 4918   1.791   1.489   4.746
 1569WAT     H2 4919   1.741   1.475   4.604
 1570WAT      O 4920   2.211   3.042   1.502
 1570WAT     H1 4921   2.116   3.046   1.496
 1570WAT     H2 4922   2.231   3.085   1.585
 1571WAT      O 4923   0.948   1.269   2.214
 1571WAT     H1 4924   0.993   1.196   2.173
 1571WAT     H2 4925   1.018   1.322   2.252
 1572WAT      O 4926   0.396   3.669   1.789
 1572WAT     H1 4927   0.324   3.616   1.824
 1572WAT     H2 4928   0.362   3.704   1.707
 1573WAT      O 4929   3.441   4.320   0.202
 1573WAT     H1 4930   3.424   4.409   0.232
 1573WAT     H2 4931   3.461   4.330   0.109
 1574WAT      O 4932   2.567   1.764   2.253
 1574WAT     H1 4933   2.560   1.849   2.296
 1574WAT     H2 4934   2.661   1.755   2.233
 1575WAT      O 4935   3.392   3.221   0.518
 1575WAT     H1 4936   3.323   3.241   0.454
 1575WAT     H2 4937   3.419   3.132   0.496
 1576WAT      O 4938   0.594   0.406   1.463
 1576WAT     H1 4939   0.589   0.492   1.505
 1576WAT     H2 4940   0.672   0.411   1.408
 1577WAT      O 4941   0.604   2.066   3.430
 1577WAT     H1 4942   0.695   2.086   3.410
 1577WAT     H2 4943   0.605   1.975   3.459
 1578WAT      O 4944   3.202   1.767   3.728
 1578WAT     H1 4945   3.297   1.777   3.733
 1578WAT     H2 4946   3.187   1.726   3.643
 1579WAT      O 4947   1.129   3.150   4.125
 1579WAT     H1 4948   1.078   3.181   4.200
 1579WAT     H2 4949   1.090   3.066   4.103
 1580WAT      O 4950   0.197   5.124   1.127
 1580WAT     H1 4951   0.259   5.148   1.196
 1580WAT     H2 4952   0.145   5.203   1.113
 1581WAT      O 4953   0.627   3.587   2.633
 1581WAT     H1 4954   0.653   3.678   2.645
 1581WAT     H2 4955   0.657   3.543   2.712
 1582WAT      O 4956   4.122   3.905   2.254
 1582WAT     H1 4957   4.146   3.868   2.338
 1582WAT     H2 4958   4.073   3.836   2.210
 1583WAT      O 4959   3.939   1.579   0.714
 1583WAT     H1 4960   3.880   1.610   0.646
 1583WAT     H2 4961   3.970   1.495   0.682
 1584WAT      O 4962   4.064   0.473   2.094
 1584WAT     H1 4963   4.088   0.551   2.045
 1584WAT     H2 4964   4.032   0.412   2.028
 1585WAT      O 4965   1.369   1.839   2.264
 1585WAT     H1 4966   1.385   1.762   2.319
 1585WAT     H2 4967   1.285   1.821   2.222
 1586WAT      O 4968   0.455   4.800   1.619
 1586WAT     H1 4969   0.417   4.864   1.680
 1586WAT     H2 4970   0.381   4.747   1.590
 1587WAT      O 4971   3.019   4.441   0.401
 1587WAT     H1 4972   3.097   4.491   0.425
 1587WAT     H2 4973   2.976   4.494   0.335
 1588WAT      O 4974   2.391   3.191   4.538
 1588WAT     H1 4975   2.421   3.253   4.471
 1588WAT     H2 4976   2.335   3.243   4.595
 1589WAT      O 4977   2.710   0.874   5.263
 1589WAT     H1 4978   2.673   0.857   5.350
 1589WAT     H2 4979   2.801   0.845   5.270
 1590WAT      O 4980   2.342   0.864   3.254
 1590WAT     H1 4981   2.384   0.813   3.185
 1590WAT     H2 4982   2.248   0.845   3.243
 1591WAT      O 4983   2.549   4.203   3.889
 1591WAT     H1 4984   2.544   4.152   3.809
 1591WAT     H2 4985   2.458   4.230   3.907
 1592WAT      O 4986   1.110   3.689   3.466
 1592WAT     H1 4987   1.054   3.759   3.500
 1592WAT     H2 4988   1.120   3.710   3.373
 1593WAT      O 4989   2.412   2.089   1.269
 1593WAT     H1 4990   2.374   2.166   1.228
 1593WAT     H2 4991   2.480   2.124   1.327
 1594WAT      O 4992   3.377   0.933   4.188
 1594WAT     H1 4993   3.452   0.975   4.146
 1594WAT     H2 4994   3.310   1.002   4.192
 1595WAT      O 4995   3.061   2.166   3.595
 1595WAT     H1 4996   3.004   2.240   3.576
 1595WAT     H2 4997   3.097   2.141   3.510
 1596WAT      O 4998   4.097   4.038   3.519
 1596WAT     H1 4999   4.072   4.068   3.606
 1596WAT     H2 5000   4.187   4.008   3.528
 1597WAT      O 5001   4.466   0.683   2.477
 1597WAT     H1 5002   4.439   0.751   2.540
 1597WAT     H2 5003   4.433   0.601   2.515
 1598WAT      O 5004   2.003   2.170   4.355
 1598WAT     H1 5005   2.061   2.133   4.289
 1598WAT     H2 5006   2.017   2.265   4.350
 1599WAT      O 5007   2.139   3.258   0.828
 1599WAT     H1 5008   2.202   3.192   0.856
 1599WAT     H2 5009   2.163   3.279   0.738
 1600WAT      O 5010   2.921   1.200   1.231
 1600WAT     H1 5011   2.917   1.105   1.222
 1600WAT     H2 5012   2.835   1.231   1.202
 1601WAT      O 5013   3.528   3.880   2.119
 1601WAT     H1 5014   3.600   3.829   2.157
 1601WAT     H2 5015   3.567   3.966   2.103
 1602WAT      O 5016   3.814   0.497   1.078
 1602WAT     H1 5017   3.845   0.500   1.168
 1602WAT     H2 5018   3.885   0.453   1.030
 1603WAT      O 5019   1.683   1.838   2.893
 1603WAT     H1 5020   1.703   1.812   2.983
 1603WAT     H2 5021   1.760   1.887   2.864
 1604WAT      O 5022   0.240   2.869   3.798
 1604WAT     H1 5023   0.194   2.953   3.795
 1604WAT     H2 5024   0.181   2.811   3.846
 1605WAT      O 5025   3.760   0.937   1.039
 1605WAT     H1 5026   3.848   0.900   1.035
 1605WAT     H2 5027   3.749   0.981   0.955
 1606WAT      O 5028   0.778   4.685   4.101
 1606WAT     H1 5029   0.730   4.697   4.183
 1606WAT     H2 5030   0.719   4.635   4.045
 1607WAT      O 5031   1.483   0.925   4.690
 1607WAT     H1 5032   1.505   0.862   4.758
 1607WAT     H2 5033   1.399   0.894   4.655
 1608WAT      O 5034   3.979   3.416   4.092
 1608WAT     H1 5035   3.948   3.335   4.052
 1608WAT     H2 5036   3.903   3.448   4.141
 1609WAT      O 5037   0.033   3.609   2.489
 1609WAT     H1 5038  -0.030   3.603   2.417
 1609WAT     H2 5039   0.079   3.525   2.488
 1610WAT      O 5040   1.791   4.438   0.245
 1610WAT     H1 5041   1.719   4.415   0.187
 1610WAT     H2 5042   1.829   4.354   0.271
 1611WAT      O 5043   2.522   3.889   2.635
 1611WAT     H1 5044   2.521   3.974   2.679
 1611WAT     H2 5045   2.570   3.832   2.695
 1612WAT      O 5046   2.345   3.950   3.841
 1612WAT     H1 5047   2.267   3.939   3.787
 1612WAT     H2 5048   2.317   3.923   3.929
 1613WAT      O 5049   0.790   2.686   4.577
 1613WAT     H1 5050   0.765   2.720   4.663
 1613WAT     H2 5051   0.727   2.616   4.560
 1614WAT      O 5052   0.079   1.235   5.009
 1614WAT     H1 5053   0.074   1.188   4.926
 1614WAT     H2 5054   0.092   1.326   4.984
 1615WAT      O 5055   4.052   2.140   0.788
 1615WAT     H1 5056   4.101   2.104   0.714
 1615WAT     H2 5057   4.115   2.146   0.859
 1616WAT      O 5058   0.056   0.551   1.760
 1616WAT     H1 5059   0.005   0.621   1.718
 1616WAT     H2 5060   0.017   0.542   1.847
 1617WAT      O 5061   1.037   4.715   3.646
 1617WAT     H1 5062   0.973   4.735   3.715
 1617WAT     H2 5063   1.070   4.628   3.669
 1618WAT      O 5064   2.115   4.696   2.469
 1618WAT     H1 5065   2.110   4.607   2.436
 1618WAT     H2 5066   2.085   4.690   2.560
 1619WAT      O 5067   2.479   0.013   3.157
 1619WAT     H1 5068   2.410   0.074   3.131
 1619WAT     H2 5069   2.554   0.037   3.102
 1620WAT      O 5070   3.433   2.776   2.882
 1620WAT     H1 5071   3.462   2.818   2.801
 1620WAT     H2 5072   3.496   2.706   2.897
 1621WAT      O 5073   0.662   4.290   0.091
 1621WAT     H1 5074   0.659   4.196   0.070
 1621WAT     H2 5075   0.737   4.298   0.150
 1622WAT      O 5076   1.374   2.458   1.213
 1622WAT     H1 5077   1.392   2.481   1.121
 1622WAT     H2 5078   1.343   2.540   1.252
 1623WAT      O 5079   2.142   2.086   4.025
 1623WAT     H1 5080   2.225   2.123   4.054
 1623WAT     H2 5081   2.125   2.014   4.085
 1624WAT      O 5082   1.306   0.823   3.354
 1624WAT     H1 5083   1.254   0.743   3.344
 1624WAT     H2 5084   1.328   0.827   3.447
 1625WAT      O 5085   1.026   3.281   4.728
 1625WAT     H1 5086   0.957   3.341   4.702
 1625WAT     H2 5087   1.084   3.332   4.784
 1626WAT      O 5088   0.768   4.578   0.114
 1626WAT     H1 5089   0.847   4.542   0.154
 1626WAT     H2 5090   0.703   4.508   0.121
 1627WAT      O 5091   3.759   1.492   5.218
 1627WAT     H1 5092   3.711   1.493   5.301
 1627WAT     H2 5093   3.693   1.511   5.152
 1628WAT      O 5094   1.033   0.038   4.937
 1628WAT     H1 5095   1.107   0.068   4.884
 1628WAT     H2 5096   0.979   0.116   4.948
 1629WAT      O 5097   1.667   2.048   0.278
 1629WAT     H1 5098   1.656   1.964   0.233
 1629WAT     H2 5099   1.605   2.107   0.235
 1630WAT      O 5100   0.822   3.079   0.312
 1630WAT     H1 5101   0.823   3.162   0.361
 1630WAT     H2 5102   0.754   3.092   0.246
 1631WAT      O 5103   1.913   0.707   0.977
 1631WAT     H1 5104   1.924   0.612   0.966
 1631WAT     H2 5105   1.840   0.715   1.038
 1632WAT      O 5106   2.147   2.904   4.198
 1632WAT     H1 5107   2.145   2.999   4.193
 1632WAT     H2 5108   2.076   2.881   4.259
 1633WAT      O 5109   1.757   4.667   0.400
 1633WAT     H1 5110   1.765   4.583   0.355
 1633WAT     H2 5111   1.764   4.645   0.493
 1634WAT      O 5112   0.768   4.042   0.054
 1634WAT     H1 5113   0.817   3.995   0.123
 1634WAT     H2 5114   0.788   3.994  -0.026
 1635WAT      O 5115   2.299   1.330   4.512
 1635WAT     H1 5116   2.294   1.423   4.533
 1635WAT     H2 5117   2.208   1.301   4.509
 1636WAT      O 5118   0.428   3.669   3.788
 1636WAT     H1 5119   0.383   3.735   3.735
 1636WAT     H2 5120   0.504   3.715   3.824
 1637WAT      O 5121   2.539   1.270   2.592
 1637WAT     H1 5122   2.628   1.243   2.569
 1637WAT     H2 5123   2.497   1.290   2.508
 1638WAT      O 5124   4.282   0.306   2.195
 1638WAT     H1 5125   4.345   0.335   2.129
 1638WAT     H2 5126   4.200   0.350   2.170
 1639WAT      O 5127   2.484   0.674   1.834
 1639WAT     H1 5128   2.554   0.608   1.835
 1639WAT     H2 5129   2.410   0.630   1.876
 1640WAT      O 5130   0.759   1.819   0.379
 1640WAT     H1 5131   0.807   1.852   0.455
 1640WAT     H2 5132   0.723   1.897   0.337
 1641WAT      O 5133   3.613   2.216   0.583
 1641WAT     H1 5134   3.657   2.167   0.653
 1641WAT     H2 5135   3.539   2.161   0.558
 1642WAT      O 5136   2.566   2.283   2.946
 1642WAT     H1 5137   2.599   2.222   2.880
 1642WAT     H2 5138   2.529   2.228   3.015
 1643WAT      O 5139   1.982   2.836   4.420
 1643WAT     H1 5140   1.918   2.767   4.403
 1643WAT     H2 5141   1.929   2.914   4.436
 1644WAT      O 5142   1.005   1.015   3.206
 1644WAT     H1 5143   0.924   1.000   3.157
 1644WAT     H2 5144   1.074   0.985   3.147
 1645WAT      O 5145   4.113   1.864   3.071
 1645WAT     H1 5146   4.145   1.953   3.074
 1645WAT     H2 5147   4.017   1.873   3.072
 1646WAT      O 5148   1.099   3.406   3.991
 1646WAT     H1 5149   1.004   3.416   3.978
 1646WAT     H2 5150   1.111   3.315   4.017
 1647WAT      O 5151   2.695   4.553   4.021
 1647WAT     H1 5152   2.614   4.514   4.054
 1647WAT     H2 5153   2.759   4.538   4.091
 1648WAT      O 5154   2.209   1.648   1.487
 1648WAT     H1 5155   2.123   1.609   1.502
 1648WAT     H2 5156   2.265   1.575   1.463
 1649WAT      O 5157   1.152   2.162   3.171
 1649WAT     H1 5158   1.187   2.164   3.082
 1649WAT     H2 5159   1.061   2.134   3.159
 1650WAT      O 5160   4.287   0.809   3.608
 1650WAT     H1 5161   4.347   0.739   3.583
 1650WAT     H2 5162   4.236   0.825   3.528
 1651WAT      O 5163   0.262   3.620   0.159
 1651WAT     H1 5164   0.350   3.597   0.129
 1651WAT     H2 5165   0.255   3.714   0.146
 1652WAT      O 5166   2.893   4.321   2.013
 1652WAT     H1 5167   2.913   4.281   2.097
 1652WAT     H2 5168   2.973   4.368   1.989
 1653WAT      O 5169   1.732   3.828   1.212
 1653WAT     H1 5170   1.770   3.905   1.171
 1653WAT     H2 5171   1.748   3.840   1.306
 1654WAT      O 5172   0.265   4.397   3.094
 1654WAT     H1 5173   0.297   4.480   3.058
 1654WAT     H2 5174   0.204   4.364   3.028
 1655WAT      O 5175   0.331   2.301   3.203
 1655WAT     H1 5176   0.318   2.226   3.145
 1655WAT     H2 5177   0.426   2.308   3.212
 1656WAT      O 5178   2.551   4.298   3.423
 1656WAT     H1 5179   2.640   4.269   3.446
 1656WAT     H2 5180   2.561   4.337   3.336
 1657WAT      O 5181   1.038   3.466   3.601
 1657WAT     H1 5182   1.069   3.515   3.525
 1657WAT     H2 5183   0.996   3.532   3.656
 1658WAT      O 5184   3.813   2.738   0.707
 1658WAT     H1 5185   3.825   2.644   0.713
 1658WAT     H2 5186   3.899   2.775   0.728
 1659WAT      O 5187   1.663   4.242   3.769
 1659WAT     H1 5188   1.619   4.204   3.845
 1659WAT     H2 5189   1.697   4.167   3.721
 1660WAT      O 5190   2.191   4.752   1.938
 1660WAT     H1 5191   2.215   4.661   1.955
 1660WAT     H2 5192   2.139   4.748   1.858
 1661WAT      O 5193   2.588   4.058   1.110
 1661WAT     H1 5194   2.507   4.063   1.161
 1661WAT     H2 5195   2.558   4.057   1.019
 1662WAT      O 5196   0.332   0.842   3.327
 1662WAT     H1 5197   0.365   0.814   3.413
 1662WAT     H2 5198   0.340   0.764   3.272
 1663WAT      O 5199   1.128   4.466   4.833
 1663WAT     H1 5200   1.147   4.470   4.739
 1663WAT     H2 5201   1.181   4.536   4.870
 1664WAT      O 5202   3.335   1.060   1.930
 1664WAT     H1 5203   3.415   1.041   1.882
 1664WAT     H2 5204   3.295   1.133   1.882
 1665WAT      O 5205   0.206   2.459   1.549
 1665WAT     H1 5206   0.201   2.404   1.471
 1665WAT     H2 5207   0.153   2.536   1.528
 1666WAT      O 5208   2.441   4.504   4.029
 1666WAT     H1 5209   2.385   4.577   4.003
 1666WAT     H2 5210   2.415   4.433   3.971
 1667WAT      O 5211   3.860   0.747   0.370
 1667WAT     H1 5212   3.800   0.691   0.420
 1667WAT     H2 5213   3.830   0.836   0.388
 1668WAT      O 5214   0.683   0.817   2.016
 1668WAT     H1 5215   0.626   0.886   1.982
 1668WAT     H2 5216   0.761   0.820   1.959
 1669WAT      O 5217   1.830   0.806   2.957
 1669WAT     H1 5218   1.806   0.774   2.870
 1669WAT     H2 5219   1.854   0.728   3.006
 1670WAT      O 5220   0.854   1.804   3.369
 1670WAT     H1 5221   0.874   1.897   3.373
 1670WAT     H2 5222   0.937   1.760   3.387
 1671WAT      O 5223   0.565   0.529   4.702
 1671WAT     H1 5224   0.528   0.611   4.736
 1671WAT     H2 5225   0.614   0.556   4.624
 1672WAT      O 5226   0.208   0.278   3.171
 1672WAT     H1 5227   0.183   0.200   3.122
 1672WAT     H2 5228   0.246   0.337   3.106
 1673WAT      O 5229   2.699   3.869   0.105
 1673WAT     H1 5230   2.745   3.939   0.152
 1673WAT     H2 5231   2.750   3.857   0.025
 1674WAT      O 5232   1.663   3.479   0.082
 1674WAT     H1 5233   1.697   3.478   0.171
 1674WAT     H2 5234   1.617   3.563   0.074
 1675WAT      O 5235   1.037   4.617   3.031
 1675WAT     H1 5236   1.057   4.540   2.977
 1675WAT     H2 5237   1.025   4.581   3.119
 1676WAT      O 5238   3.097   1.815   4.863
 1676WAT     H1 5239   3.123   1.855   4.945
 1676WAT     H2 5240   3.118   1.722   4.873
 1677WAT      O 5241   3.552   3.314   0.767
 1677WAT     H1 5242   3.504   3.298   0.685
 1677WAT     H2 5243   3.600   3.395   0.751
 1678WAT      O 5244   1.309   0.160   3.905
 1678WAT     H1 5245   1.402   0.159   3.927
 1678WAT     H2 5246   1.297   0.088   3.844
 1679WAT      O 5247   2.138   1.204   1.561
 1679WAT     H1 5248   2.160   1.133   1.621
 1679WAT     H2 5249   2.156   1.284   1.611
 1680WAT      O 5250   2.088   5.045   1.542
 1680WAT     H1 5251   2.025   5.034   1.614
 1680WAT     H2 5252   2.076   4.966   1.489
 1681WAT      O 5253   1.865   4.577   5.114
 1681WAT     H1 5254   1.790   4.528   5.148
 1681WAT     H2 5255   1.871   4.551   5.022
 1682WAT      O 5256   0.421   3.416   3.926
 1682WAT     H1 5257   0.429   3.494   3.872
 1682WAT     H2 5258   0.469   3.437   4.006
 1683WAT      O 5259   0.847   4.763   4.460
 1683WAT     H1 5260   0.875   4.678   4.494
 1683WAT     H2 5261   0.768   4.743   4.410
 1684WAT      O 5262   1.219   0.278   1.672
 1684WAT     H1 5263   1.300   0.264   1.624
 1684WAT     H2 5264   1.229   0.225   1.752
 1685WAT      O 5265   1.660   0.080   4.181
 1685WAT     H1 5266   1.695   0.047   4.264
 1685WAT     H2 5267   1.568   0.051   4.181
 1686WAT      O 5268   1.247   2.344   4.463
 1686WAT     H1 5269   1.250   2.413   4.396
 1686WAT     H2 5270   1.337   2.341   4.498
 1687WAT      O 5271   3.931   1.272   3.577
 1687WAT     H1 5272   3.988   1.345   3.599
 1687WAT     H2 5273   3.916   1.226   3.660
 1688WAT      O 5274   1.291   4.226   4.526
 1688WAT     H1 5275   1.330   4.313   4.518
 1688WAT     H2 5276   1.310   4.199   4.616
 1689WAT      O 5277   2.974   2.406   4.567
 1689WAT     H1 5278   2.934   2.333   4.616
 1689WAT     H2 5279   3.068   2.396   4.582
 1690WAT      O 5280   2.910   2.811   0.815
 1690WAT     H1 5281   2.977   2.743   0.808
 1690WAT     H2 5282   2.842   2.784   0.753
 1691WAT      O 5283   2.192   2.528   0.603
 1691WAT     H1 5284   2.227   2.440   0.589
 1691WAT     H2 5285   2.235   2.559   0.682
 1692WAT      O 5286   1.571   1.337   4.064
 1692WAT     H1 5287   1.519   1.341   4.144
 1692WAT     H2 5288   1.557   1.422   4.022
 1693WAT      O 5289   2.987   4.607   4.968
 1693WAT     H1 5290   2.976   4.576   5.058
 1693WAT     H2 5291   2.920   4.674   4.957
 1694WAT      O 5292   3.206   1.904   5.104
 1694WAT     H1 5293   3.139   1.886   5.170
 1694WAT     H2 5294   3.232   1.994   5.120
 1695WAT      O 5295   0.745   1.963   2.304
 1695WAT     H1 5296   0.828   1.941   2.348
 1695WAT     H2 5297   0.769   1.968   2.211
 1696WAT      O 5298   1.019   0.645   1.519
 1696WAT     H1 5299   1.052   0.735   1.524
 1696WAT     H2 5300   0.959   0.637   1.593
 1697WAT      O 5301   2.501   4.133   4.296
 1697WAT     H1 5302   2.496   4.087   4.379
 1697WAT     H2 5303   2.472   4.222   4.316
 1698WAT      O 5304   3.882   2.988   4.881
 1698WAT     H1 5305   3.794   2.951   4.872
 1698WAT     H2 5306   3.938   2.912   4.896
 1699WAT      O 5307   0.961   0.314   1.630
 1699WAT     H1 5308   1.055   0.304   1.648
 1699WAT     H2 5309   0.957   0.330   1.535
 1700WAT      O 5310   4.068   4.490   4.715
 1700WAT     H1 5311   4.029   4.488   4.802
 1700WAT     H2 5312   3.996   4.468   4.656
 1701WAT      O 5313   1.245   2.697   4.692
 1701WAT     H1 5314   1.171   2.646   4.659
 1701WAT     H2 5315   1.301   2.709   4.616
 1702WAT      O 5316   3.997   0.469   3.714
 1702WAT     H1 5317   3.997   0.432   3.626
 1702WAT     H2 5318   3.995   0.393   3.772
 1703WAT      O 5319   4.088   2.525   3.198
 1703WAT     H1 5320   4.089   2.531   3.294
 1703WAT     H2 5321   4.140   2.601   3.169
 1704WAT      O 5322   1.500   0.790   2.518
 1704WAT     H1 5323   1.536   0.859   2.462
 1704WAT     H2 5324   1.439   0.743   2.461
 1705WAT      O 5325   0.448   3.797   5.229
 1705WAT     H1 5326   0.526   3.746   5.250
 1705WAT     H2 5327   0.481   3.876   5.186
 1706WAT      O 5328   1.419   1.539   3.874
 1706WAT     H1 5329   1.509   1.550   3.843
 1706WAT     H2 5330   1.397   1.623   3.914
 1707WAT      O 5331   4.203   2.533   3.476
 1707WAT     H1 5332   4.204   2.532   3.571
 1707WAT     H2 5333   4.257   2.459   3.450
 1708WAT      O 5334   3.404   4.955   1.437
 1708WAT     H1 5335   3.345   4.898   1.387
 1708WAT     H2 5336   3.490   4.915   1.427
 1709WAT      O 5337   3.211   1.268   4.515
 1709WAT     H1 5338   3.273   1.215   4.464
 1709WAT     H2 5339   3.132   1.272   4.461
 1710WAT      O 5340   4.293   1.320   1.369
 1710WAT     H1 5341   4.320   1.402   1.410
 1710WAT     H2 5342   4.244   1.348   1.291
 1711WAT      O 5343   0.928   4.377   3.518
 1711WAT     H1 5344   0.891   4.433   3.450
 1711WAT     H2 5345   1.022   4.374   3.498
 1712WAT      O 5346   2.357   3.432   4.345
 1712WAT     H1 5347   2.420   3.504   4.339
 1712WAT     H2 5348   2.272   3.475   4.352
 1713WAT      O 5349   1.479   3.101   4.276
 1713WAT     H1 5350   1.417   3.077   4.345
 1713WAT     H2 5351   1.525   3.019   4.255
 1714WAT      O 5352   4.154   4.150   3.006
 1714WAT     H1 5353   4.086   4.107   3.057
 1714WAT     H2 5354   4.234   4.138   3.058
 1715WAT      O 5355   2.624   3.192   1.146
 1715WAT     H1 5356   2.556   3.165   1.207
 1715WAT     H2 5357   2.688   3.121   1.148
 1716WAT      O 5358   2.935   0.776   0.256
 1716WAT     H1 5359   2.945   0.871   0.261
 1716WAT     H2 5360   2.869   0.755   0.322
 1717WAT      O 5361   4.241   0.299   2.916
 1717WAT     H1 5362   4.192   0.254   2.847
 1717WAT     H2 5363   4.304   0.234   2.947
 1718WAT      O 5364   0.592   0.863   0.565
 1718WAT     H1 5365   0.526   0.800   0.536
 1718WAT     H2 5366   0.583   0.937   0.506
 1719WAT      O 5367   0.242   4.943   4.708
 1719WAT     H1 5368   0.264   4.890   4.785
 1719WAT     H2 5369   0.152   4.917   4.687
 1720WAT      O 5370   1.603   3.749   0.242
 1720WAT     H1 5371   1.655   3.820   0.279
 1720WAT     H2 5372   1.572   3.783   0.158
 1721WAT      O 5373   2.314   3.970   1.581
 1721WAT     H1 5374   2.381   3.903   1.595
 1721WAT     H2 5375   2.231   3.923   1.590
 1722WAT      O 5376   4.434   4.114   0.642
 1722WAT     H1 5377   4.509   4.059   0.618
 1722WAT     H2 5378   4.421   4.171   0.566
 1723WAT      O 5379   3.046   4.210   4.916
 1723WAT     H1 5380   2.971   4.268   4.929
 1723WAT     H2 5381   3.123   4.266   4.930
 1724WAT      O 5382   1.568   0.817   2.136
 1724WAT     H1 5383   1.579   0.871   2.057
 1724WAT     H2 5384   1.650   0.768   2.143
 1725WAT      O 5385   0.768   0.394   1.269
 1725WAT     H1 5386   0.860   0.418   1.273
 1725WAT     H2 5387   0.755   0.359   1.181
 1726WAT      O 5388   2.021   1.051   2.478
 1726WAT     H1 5389   2.087   1.114   2.509
 1726WAT     H2 5390   1.953   1.053   2.545
 1727WAT      O 5391   0.709   2.499   4.011
 1727WAT     H1 5392   0.711   2.533   4.101
 1727WAT     H2 5393   0.758   2.417   4.015
 1728WAT      O 5394   0.037   3.606   3.411
 1728WAT     H1 5395   0.035   3.595   3.316
 1728WAT     H2 5396  -0.055   3.612   3.436
 1729WAT      O 5397   0.929   0.377   2.931
 1729WAT     H1 5398   1.002   0.333   2.889
 1729WAT     H2 5399   0.864   0.388   2.862
 1730WAT      O 5400   0.328   1.608   0.057
 1730WAT     H1 5401   0.368   1.545  -0.004
 1730WAT     H2 5402   0.259   1.558   0.101
 1731WAT      O 5403   3.756   1.291   1.336
 1731WAT     H1 5404   3.698   1.266   1.407
 1731WAT     H2 5405   3.710   1.362   1.290
 1732WAT      O 5406   3.122   3.627   1.190
 1732WAT     H1 5407   3.087   3.610   1.102
 1732WAT     H2 5408   3.062   3.581   1.249
 1733WAT      O 5409   3.351   0.391   2.789
 1733WAT     H1 5410   3.373   0.479   2.759
 1733WAT     H2 5411   3.428   0.338   2.769
 1734WAT      O 5412   2.237   1.927   0.501
 1734WAT     H1 5413   2.258   1.981   0.425
 1734WAT     H2 5414   2.144   1.908   0.492
 1735WAT      O 5415   0.898   1.139   2.464
 1735WAT     H1 5416   0.806   1.115   2.449
 1735WAT     H2 5417   0.931   1.162   2.377
 1736WAT      O 5418   2.288   0.486   1.959
 1736WAT     H1 5419   2.280   0.409   2.015
 1736WAT     H2 5420   2.202   0.529   1.966
 1737WAT      O 5421   3.343   2.226   1.376
 1737WAT     H1 5422   3.410   2.203   1.441
 1737WAT     H2 5423   3.379   2.194   1.293
 1738WAT      O 5424   1.402   4.494   2.320
 1738WAT     H1 5425   1.378   4.417   2.268
 1738WAT     H2 5426   1.449   4.458   2.395
 1739WAT      O 5427   3.145   5.109   1.473
 1739WAT     H1 5428   3.236   5.086   1.454
 1739WAT     H2 5429   3.135   5.094   1.567
 1740WAT      O 5430   3.406   4.301   2.422
 1740WAT     H1 5431   3.311   4.312   2.428
 1740WAT     H2 5432   3.423   4.300   2.328
 1741WAT      O 5433   2.037   3.560   0.758
 1741WAT     H1 5434   2.092   3.526   0.686
 1741WAT     H2 5435   2.071   3.647   0.775
 1742WAT      O 5436   2.269   4.374   2.754
 1742WAT     H1 5437   2.213   4.449   2.775
 1742WAT     H2 5438   2.350   4.390   2.802
 1743WAT      O 5439   4.369   3.047   4.394
 1743WAT     H1 5440   4.316   2.977   4.356
 1743WAT     H2 5441   4.449   3.003   4.423
 1744WAT      O 5442   3.430   2.712   5.108
 1744WAT     H1 5443   3.358   2.761   5.146
 1744WAT     H2 5444   3.390   2.633   5.072
 1745WAT      O 5445   2.274   1.002   3.666
 1745WAT     H1 5446   2.263   0.917   3.622
 1745WAT     H2 5447   2.313   1.058   3.599
 1746WAT      O 5448   1.580   0.843   0.297
 1746WAT     H1 5449   1.527   0.923   0.292
 1746WAT     H2 5450   1.623   0.848   0.382
 1747WAT      O 5451   2.267   3.231   3.462
 1747WAT     H1 5452   2.347   3.226   3.409
 1747WAT     H2 5453   2.243   3.324   3.460
 1748WAT      O 5454   1.133   0.926   1.541
 1748WAT     H1 5455   1.057   0.976   1.511
 1748WAT     H2 5456   1.152   0.960   1.628
 1749WAT      O 5457   1.487   2.456   0.288
 1749WAT     H1 5458   1.451   2.397   0.353
 1749WAT     H2 5459   1.490   2.542   0.331
 1750WAT      O 5460   1.669   1.576   3.785
 1750WAT     H1 5461   1.706   1.511   3.725
 1750WAT     H2 5462   1.733   1.648   3.784
 1751WAT      O 5463   0.852   1.847   1.213
 1751WAT     H1 5464   0.941   1.853   1.247
 1751WAT     H2 5465   0.848   1.913   1.144
 1752WAT      O 5466   4.070   5.045   1.530
 1752WAT     H1 5467   4.091   4.965   1.578
 1752WAT     H2 5468   4.135   5.048   1.460
 1753WAT      O 5469   3.972   4.265   2.336
 1753WAT     H1 5470   3.985   4.296   2.247
 1753WAT     H2 5471   3.920   4.333   2.378
 1754WAT      O 5472   3.355   3.678   0.741
 1754WAT     H1 5473   3.419   3.750   0.743
 1754WAT     H2 5474   3.389   3.618   0.675
 1755WAT      O 5475   4.387   3.163   2.244
 1755WAT     H1 5476   4.377   3.090   2.184
 1755WAT     H2 5477   4.343   3.236   2.201
 1756WAT      O 5478   2.143   3.504   3.485
 1756WAT     H1 5479   2.215   3.535   3.539
 1756WAT     H2 5480   2.163   3.537   3.397
 1757WAT      O 5481   2.528   3.281   4.981
 1757WAT     H1 5482   2.476   3.341   4.927
 1757WAT     H2 5483   2.469   3.209   5.001
 1758WAT      O 5484   1.105   5.027   2.443
 1758WAT     H1 5485   1.168   5.014   2.513
 1758WAT     H2 5486   1.153   5.006   2.363
 1759WAT      O 5487   1.152   1.419   2.294
 1759WAT     H1 5488   1.235   1.377   2.272
 1759WAT     H2 5489   1.173   1.477   2.367
 1760WAT      O 5490   1.080   2.735   1.068
 1760WAT     H1 5491   1.035   2.798   1.012
 1760WAT     H2 5492   1.098   2.783   1.148
 1761WAT      O 5493   1.017   3.176   3.021
 1761WAT     H1 5494   0.999   3.087   3.053
 1761WAT     H2 5495   0.990   3.174   2.929
 1762WAT      O 5496   1.077   1.390   5.173
 1762WAT     H1 5497   1.014   1.450   5.213
 1762WAT     H2 5498   1.040   1.303   5.186
 1763WAT      O 5499   4.144   0.890   4.287
 1763WAT     H1 5500   4.157   0.849   4.202
 1763WAT     H2 5501   4.052   0.871   4.309
 1764WAT      O 5502   4.175   4.551   3.574
 1764WAT     H1 5503   4.121   4.584   3.502
 1764WAT     H2 5504   4.230   4.484   3.534
 1765WAT      O 5505   3.885   2.887   2.446
 1765WAT     H1 5506   3.931   2.910   2.527
 1765WAT     H2 5507   3.917   2.800   2.425
 1766WAT      O 5508   3.988   3.394   3.221
 1766WAT     H1 5509   4.022   3.356   3.302
 1766WAT     H2 5510   3.897   3.415   3.241
 1767WAT      O 5511   0.047   4.884   1.389
 1767WAT     H1 5512   0.135   4.893   1.425
 1767WAT     H2 5513   0.061   4.858   1.298
 1768WAT      O 5514   3.051   0.608   2.080
 1768WAT     H1 5515   3.065   0.702   2.070
 1768WAT     H2 5516   3.128   0.578   2.128
 1769WAT      O 5517   4.431   3.023   3.171
 1769WAT     H1 5518   4.370   3.086   3.133
 1769WAT     H2 5519   4.421   2.944   3.117
 1770WAT      O 5520   0.874   4.435   1.447
 1770WAT     H1 5521   0.799   4.465   1.497
 1770WAT     H2 5522   0.842   4.427   1.357
 1771WAT      O 5523   2.719   3.704   1.462
 1771WAT     H1 5524   2.651   3.760   1.422
 1771WAT     H2 5525   2.681   3.616   1.460
 1772WAT      O 5526   2.642   2.844   1.964
 1772WAT     H1 5527   2.588   2.874   2.037
 1772WAT     H2 5528   2.730   2.875   1.984
 1773WAT      O 5529   3.227   4.984   2.772
 1773WAT     H1 5530   3.149   4.930   2.764
 1773WAT     H2 5531   3.223   5.043   2.696
 1774WAT      O 5532   1.819   4.186   0.394
 1774WAT     H1 5533   1.781   4.102   0.420
 1774WAT     H2 5534   1.913   4.175   0.410
 1775WAT      O 5535   3.135   0.904   3.008
 1775WAT     H1 5536   3.081   0.833   2.973
 1775WAT     H2 5537   3.205   0.915   2.944
 1776WAT      O 5538   1.693   4.377   2.803
 1776WAT     H1 5539   1.727   4.355   2.890
 1776WAT     H2 5540   1.672   4.292   2.764
 1777WAT      O 5541   1.432   0.832   3.621
 1777WAT     H1 5542   1.465   0.757   3.671
 1777WAT     H2 5543   1.391   0.888   3.687
 1778WAT      O 5544   0.569   3.008   1.679
 1778WAT     H1 5545   0.632   2.940   1.702
 1778WAT     H2 5546   0.622   3.086   1.664
 1779WAT      O 5547   0.564   1.036   1.949
 1779WAT     H1 5548   0.603   1.055   1.863
 1779WAT     H2 5549   0.603   1.100   2.008
 1780WAT      O 5550   0.492   1.019   3.108
 1780WAT     H1 5551   0.423   1.084   3.110
 1780WAT     H2 5552   0.458   0.946   3.159
 1781WAT      O 5553   2.781   0.093   4.644
 1781WAT     H1 5554   2.698   0.046   4.650
 1781WAT     H2 5555   2.845   0.032   4.682
 1782WAT      O 5556   2.776   2.764   2.611
 1782WAT     H1 5557   2.761   2.752   2.517
 1782WAT     H2 5558   2.861   2.808   2.616
 1783WAT      O 5559   3.555   3.236   4.137
 1783WAT     H1 5560   3.475   3.205   4.095
 1783WAT     H2 5561   3.525   3.287   4.213
 1784WAT      O 5562   2.433   3.815   0.731
 1784WAT     H1 5563   2.490   3.838   0.658
 1784WAT     H2 5564   2.488   3.763   0.789
 1785WAT      O 5565   3.606   3.378   2.400
 1785WAT     H1 5566   3.579   3.468   2.418
 1785WAT     H2 5567   3.700   3.383   2.385
 1786WAT      O 5568   3.774   3.667   2.928
 1786WAT     H1 5569   3.829   3.696   3.001
 1786WAT     H2 5570   3.784   3.735   2.861
 1787WAT      O 5571   2.020   1.381   3.510
 1787WAT     H1 5572   2.025   1.288   3.489
 1787WAT     H2 5573   1.945   1.388   3.569
 1788WAT      O 5574   2.996   0.717   4.335
 1788WAT     H1 5575   2.945   0.769   4.397
 1788WAT     H2 5576   3.087   0.729   4.362
 1789WAT      O 5577   1.561   2.099   4.438
 1789WAT     H1 5578   1.506   2.031   4.400
 1789WAT     H2 5579   1.645   2.055   4.454
 1790WAT      O 5580   0.883   0.276   5.120
 1790WAT     H1 5581   0.826   0.259   5.196
 1790WAT     H2 5582   0.831   0.334   5.064
 1791WAT      O 5583   0.869   1.140   5.227
 1791WAT     H1 5584   0.834   1.095   5.304
 1791WAT     H2 5585   0.803   1.125   5.160
 1792WAT      O 5586   0.154   2.979   2.948
 1792WAT     H1 5587   0.234   3.031   2.945
 1792WAT     H2 5588   0.084   3.040   2.924
 1793WAT      O 5589   0.814   3.597   2.401
 1793WAT     H1 5590   0.754   3.588   2.475
 1793WAT     H2 5591   0.766   3.560   2.327
 1794WAT      O 5592   0.068   5.111   2.239
 1794WAT     H1 5593   0.047   5.029   2.284
 1794WAT     H2 5594   0.002   5.118   2.170
 1795WAT      O 5595   3.880   0.744   2.867
 1795WAT     H1 5596   3.954   0.754   2.808
 1795WAT     H2 5597   3.819   0.813   2.841
 1796WAT      O 5598   0.704   1.498   4.780
 1796WAT     H1 5599   0.720   1.533   4.692
 1796WAT     H2 5600   0.637   1.555   4.817
 1797WAT      O 5601   0.966   2.998   4.694
 1797WAT     H1 5602   1.047   2.969   4.653
 1797WAT     H2 5603   0.975   3.093   4.703
 1798WAT      O 5604   3.620   0.989   0.159
 1798WAT     H1 5605   3.605   1.020   0.070
 1798WAT     H2 5606   3.642   0.896   0.149
 1799WAT      O 5607   1.832   4.206   2.466
 1799WAT     H1 5608   1.879   4.252   2.397
 1799WAT     H2 5609   1.892   4.206   2.541
 1800WAT      O 5610   1.703   3.691   5.026
 1800WAT     H1 5611   1.770   3.708   5.093
 1800WAT     H2 5612   1.653   3.773   5.021
 1801WAT      O 5613   1.029   2.945   5.068
 1801WAT     H1 5614   1.095   2.915   5.006
 1801WAT     H2 5615   0.985   2.865   5.097
 1802WAT      O 5616   2.235   1.751   3.886
 1802WAT     H1 5617   2.193   1.709   3.811
 1802WAT     H2 5618   2.260   1.679   3.943
 1803WAT      O 5619   0.034   4.066   3.473
 1803WAT     H1 5620   0.093   4.107   3.410
 1803WAT     H2 5621   0.092   4.028   3.539
 1804WAT      O 5622   1.836   4.905   1.908
 1804WAT     H1 5623   1.930   4.908   1.922
 1804WAT     H2 5624   1.801   4.865   1.987
 1805WAT      O 5625   0.417   3.261   0.299
 1805WAT     H1 5626   0.451   3.197   0.360
 1805WAT     H2 5627   0.342   3.300   0.344
 1806WAT      O 5628   0.918   0.602   4.713
 1806WAT     H1 5629   0.859   0.669   4.747
 1806WAT     H2 5630   0.999   0.614   4.764
 1807WAT      O 5631   0.282   3.121   4.926
 1807WAT     H1 5632   0.225   3.163   4.990
 1807WAT     H2 5633   0.366   3.164   4.936
 1808WAT      O 5634   1.217   4.578   4.055
 1808WAT     H1 5635   1.279   4.585   4.128
 1808WAT     H2 5636   1.132   4.569   4.097
 1809WAT      O 5637   1.172   1.539   4.263
 1809WAT     H1 5638   1.132   1.536   4.349
 1809WAT     H2 5639   1.113   1.594   4.211
 1810WAT      O 5640   1.309   3.881   5.168
 1810WAT     H1 5641   1.310   3.860   5.074
 1810WAT     H2 5642   1.261   3.963   5.173
 1811WAT      O 5643   4.365   0.409   3.907
 1811WAT     H1 5644   4.291   0.455   3.867
 1811WAT     H2 5645   4.440   0.466   3.894
 1812WAT      O 5646   3.322   1.641   5.106
 1812WAT     H1 5647   3.268   1.589   5.046
 1812WAT     H2 5648   3.286   1.730   5.099
 1813WAT      O 5649   0.449   1.588   3.091
 1813WAT     H1 5650   0.447   1.495   3.070
 1813WAT     H2 5651   0.370   1.624   3.050
 1814WAT      O 5652   1.602   4.478   5.142
 1814WAT     H1 5653   1.570   4.420   5.073
 1814WAT     H2 5654   1.537   4.549   5.147
 1815WAT      O 5655   3.192   2.052   3.959
 1815WAT     H1 5656   3.222   2.110   3.889
 1815WAT     H2 5657   3.243   2.079   4.036
 1816WAT      O 5658   3.190   2.685   1.613
 1816WAT     H1 5659   3.105   2.712   1.645
 1816WAT     H2 5660   3.177   2.595   1.583
 1817WAT      O 5661   0.494   5.041   1.968
 1817WAT     H1 5662   0.566   5.022   2.028
 1817WAT     H2 5663   0.530   5.105   1.907
 1818WAT      O 5664   0.468   0.791   4.404
 1818WAT     H1 5665   0.538   0.748   4.355
 1818WAT     H2 5666   0.497   0.881   4.415
 1819WAT      O 5667   0.699   1.474   0.431
 1819WAT     H1 5668   0.794   1.471   0.444
 1819WAT     H2 5669   0.686   1.543   0.366
 1820WAT      O 5670   1.822   3.125   4.771
 1820WAT     H1 5671   1.769   3.192   4.727
 1820WAT     H2 5672   1.770   3.099   4.846
 1821WAT      O 5673   4.348   3.230   4.024
 1821WAT     H1 5674   4.417   3.194   4.080
 1821WAT     H2 5675   4.389   3.306   3.982
 1822WAT      O 5676   0.465   4.488   2.688
 1822WAT     H1 5677   0.483   4.540   2.610
 1822WAT     H2 5678   0.464   4.398   2.657
 1823WAT      O 5679   4.242   3.243   0.869
 1823WAT     H1 5680   4.296   3.164   0.869
 1823WAT     H2 5681   4.163   3.219   0.820
 1824WAT      O 5682   1.481   2.310   4.928
 1824WAT     H1 5683   1.529   2.232   4.902
 1824WAT     H2 5684   1.410   2.277   4.983
 1825WAT      O 5685   1.251   1.284   4.526
 1825WAT     H1 5686   1.339   1.303   4.557
 1825WAT     H2 5687   1.203   1.261   4.606
 1826WAT      O 5688   1.496   3.255   4.031
 1826WAT     H1 5689   1.483   3.204   4.111
 1826WAT     H2 5690   1.476   3.345   4.057
 1827WAT      O 5691   4.259   0.965   4.514
 1827WAT     H1 5692   4.291   1.053   4.495
 1827WAT     H2 5693   4.226   0.933   4.430
 1828WAT      O 5694   1.026   4.900   2.043
 1828WAT     H1 5695   1.119   4.884   2.028
 1828WAT     H2 5696   0.996   4.822   2.089
 1829WAT      O 5697   0.763   1.012   1.443
 1829WAT     H1 5698   0.847   1.059   1.446
 1829WAT     H2 5699   0.699   1.078   1.417
 1830WAT      O 5700   0.541   0.937   2.298
 1830WAT     H1 5701   0.579   0.876   2.235
 1830WAT     H2 5702   0.576   0.909   2.382
 1831WAT      O 5703   1.085   4.005   3.836
 1831WAT     H1 5704   1.076   3.913   3.862
 1831WAT     H2 5705   1.072   4.054   3.918
 1832WAT      O 5706   2.149   2.303   0.312
 1832WAT     H1 5707   2.059   2.336   0.307
 1832WAT     H2 5708   2.185   2.317   0.224
 1833WAT      O 5709   3.934   4.205   1.208
 1833WAT     H1 5710   3.917   4.175   1.297
 1833WAT     H2 5711   3.851   4.243   1.180
 1834WAT      O 5712   0.813   0.473   1.912
 1834WAT     H1 5713   0.796   0.447   2.003
 1834WAT     H2 5714   0.787   0.397   1.860
 1835WAT      O 5715   1.768   0.561   4.228
 1835WAT     H1 5716   1.847   0.602   4.196
 1835WAT     H2 5717   1.756   0.597   4.316
 1836WAT      O 5718   1.600   4.641   4.397
 1836WAT     H1 5719   1.669   4.620   4.335
 1836WAT     H2 5720   1.608   4.736   4.411
 1837WAT      O 5721   4.140   3.390   4.633
 1837WAT     H1 5722   4.078   3.377   4.562
 1837WAT     H2 5723   4.110   3.330   4.702
 1838WAT      O 5724   2.553   3.115   2.746
 1838WAT     H1 5725   2.523   3.185   2.688
 1838WAT     H2 5726   2.613   3.158   2.807
 1839WAT      O 5727   1.003   0.331   3.479
 1839WAT     H1 5728   1.083   0.369   3.515
 1839WAT     H2 5729   0.942   0.404   3.471
 1840WAT      O 5730   4.029   3.666   3.609
 1840WAT     H1 5731   3.956   3.709   3.563
 1840WAT     H2 5732   3.991   3.635   3.691
 1841WAT      O 5733   1.018   0.124   3.296
 1841WAT     H1 5734   0.987   0.203   3.342
 1841WAT     H2 5735   1.100   0.103   3.340
 1842WAT      O 5736   2.170   5.128   4.325
 1842WAT     H1 5737   2.231   5.153   4.255
 1842WAT     H2 5738   2.093   5.096   4.278
 1843WAT      O 5739   4.276   4.197   1.314
 1843WAT     H1 5740   4.365   4.167   1.293
 1843WAT     H2 5741   4.226   4.116   1.326
 1844WAT      O 5742   1.054   0.611   3.554
 1844WAT     H1 5743   1.138   0.565   3.555
 1844WAT     H2 5744   1.075   0.697   3.517
 1845WAT      O 5745   0.296   4.973   1.772
 1845WAT     H1 5746   0.363   4.994   1.837
 1845WAT     H2 5747   0.262   5.058   1.745
 1846WAT      O 5748   2.052   4.640   3.963
 1846WAT     H1 5749   1.976   4.587   3.941
 1846WAT     H2 5750   2.097   4.654   3.880
 1847WAT      O 5751   1.211   0.873   4.296
 1847WAT     H1 5752   1.304   0.884   4.276
 1847WAT     H2 5753   1.209   0.848   4.389
 1848WAT      O 5754   3.801   0.378   1.731
 1848WAT     H1 5755   3.769   0.300   1.686
 1848WAT     H2 5756   3.878   0.405   1.682
 1849WAT      O 5757   2.920   0.702   3.367
 1849WAT     H1 5758   2.888   0.616   3.394
 1849WAT     H2 5759   2.876   0.719   3.283
 1850WAT      O 5760   1.455   3.489   1.035
 1850WAT     H1 5761   1.522   3.490   0.967
 1850WAT     H2 5762   1.478   3.414   1.090
 1851WAT      O 5763   0.998   3.459   0.275
 1851WAT     H1 5764   1.077   3.433   0.323
 1851WAT     H2 5765   0.949   3.513   0.338
 1852WAT      O 5766   0.707   0.303   1.713
 1852WAT     H1 5767   0.655   0.348   1.647
 1852WAT     H2 5768   0.791   0.288   1.671
 1853WAT      O 5769   1.979   0.259   1.142
 1853WAT     H1 5770   1.943   0.212   1.217
 1853WAT     H2 5771   2.069   0.225   1.133
 1854WAT      O 5772   2.239   0.548   4.701
 1854WAT     H1 5773   2.169   0.541   4.636
 1854WAT     H2 5774   2.296   0.473   4.683
 1855WAT      O 5775   3.249   0.216   3.911
 1855WAT     H1 5776   3.327   0.263   3.941
 1855WAT     H2 5777   3.176   0.265   3.948
 1856WAT      O 5778   1.816   1.969   4.435
 1856WAT     H1 5779   1.808   1.926   4.350
 1856WAT     H2 5780   1.893   2.025   4.426
 1857WAT      O 5781   3.257   0.906   0.495
 1857WAT     H1 5782   3.247   0.815   0.468
 1857WAT     H2 5783   3.321   0.904   0.565
 1858WAT      O 5784   2.920   2.693   5.056
 1858WAT     H1 5785   2.831   2.694   5.020
 1858WAT     H2 5786   2.976   2.711   4.980
 1859WAT      O 5787   1.450   1.836   4.405
 1859WAT     H1 5788   1.488   1.765   4.458
 1859WAT     H2 5789   1.360   1.808   4.390
 1860WAT      O 5790   3.362   2.852   4.018
 1860WAT     H1 5791   3.376   2.758   4.017
 1860WAT     H2 5792   3.445   2.889   3.989
 1861WAT      O 5793   2.633   4.569   4.423
 1861WAT     H1 5794   2.673   4.652   4.395
 1861WAT     H2 5795   2.547   4.569   4.381
 1862WAT      O 5796   4.383   4.816   2.505
 1862WAT     H1 5797   4.396   4.898   2.552
 1862WAT     H2 5798   4.436   4.826   2.426
 1863WAT      O 5799   0.825   0.858   4.817
 1863WAT     H1 5800   0.753   0.831   4.760
 1863WAT     H2 5801   0.885   0.905   4.760
 1864WAT      O 5802   2.063   2.469   4.345
 1864WAT     H1 5803   1.994   2.527   4.378
 1864WAT     H2 5804   2.083   2.503   4.258
 1865WAT      O 5805   4.357   4.730   3.766
 1865WAT     H1 5806   4.285   4.692   3.715
 1865WAT     H2 5807   4.350   4.824   3.751
 1866WAT      O 5808   3.729   0.269   4.687
 1866WAT     H1 5809   3.779   0.191   4.712
 1866WAT     H2 5810   3.748   0.282   4.594
 1867WAT      O 5811   2.854   0.760   1.765
 1867WAT     H1 5812   2.923   0.694   1.759
 1867WAT     H2 5813   2.780   0.722   1.718
 1868WAT      O 5814   4.218   2.171   2.563
 1868WAT     H1 5815   4.218   2.076   2.554
 1868WAT     H2 5816   4.141   2.200   2.515
 1869WAT      O 5817   3.281   2.159   1.689
 1869WAT     H1 5818   3.370   2.128   1.706
 1869WAT     H2 5819   3.248   2.100   1.622
 1870WAT      O 5820   2.664   3.707   2.060
 1870WAT     H1 5821   2.628   3.795   2.069
 1870WAT     H2 5822   2.660   3.688   1.967
 1871WAT      O 5823   2.351   0.578   3.556
 1871WAT     H1 5824   2.292   0.654   3.550
 1871WAT     H2 5825   2.424   0.609   3.609
 1872WAT      O 5826   4.161   4.180   1.052
 1872WAT     H1 5827   4.072   4.213   1.066
 1872WAT     H2 5828   4.207   4.202   1.133
 1873WAT      O 5829   4.167   1.263   5.290
 1873WAT     H1 5830   4.195   1.283   5.201
 1873WAT     H2 5831   4.150   1.349   5.330
 1874WAT      O 5832   0.580   4.179   3.545
 1874WAT     H1 5833   0.632   4.224   3.611
 1874WAT     H2 5834   0.493   4.172   3.583
 1875WAT      O 5835   0.987   1.015   4.637
 1875WAT     H1 5836   0.942   1.042   4.557
 1875WAT     H2 5837   1.023   1.096   4.673
 1876WAT      O 5838   1.608   1.592   2.174
 1876WAT     H1 5839   1.548   1.614   2.245
 1876WAT     H2 5840   1.691   1.634   2.198
 1877WAT      O 5841   2.939   0.758   5.238
 1877WAT     H1 5842   3.012   0.745   5.178
 1877WAT     H2 5843   2.978   0.755   5.325
 1878WAT      O 5844   1.980   0.223   0.747
 1878WAT     H1 5845   1.942   0.150   0.796
 1878WAT     H2 5846   2.060   0.186   0.707
 1879WAT      O 5847   3.865   3.437   2.434
 1879WAT     H1 5848   3.884   3.531   2.439
 1879WAT     H2 5849   3.887   3.403   2.521
 1880WAT      O 5850   1.427   1.630   0.941
 1880WAT     H1 5851   1.500   1.615   1.001
 1880WAT     H2 5852   1.443   1.718   0.905
 1881WAT      O 5853   0.032   1.174   4.764
 1881WAT     H1 5854   0.107   1.211   4.717
 1881WAT     H2 5855   0.013   1.093   4.717
 1882WAT      O 5856   3.908   3.046   3.570
 1882WAT     H1 5857   3.967   2.971   3.561
 1882WAT     H2 5858   3.888   3.070   3.479
 1883WAT      O 5859   2.945   1.114   2.033
 1883WAT     H1 5860   2.956   1.141   1.942
 1883WAT     H2 5861   2.915   1.193   2.078
 1884WAT      O 5862   0.231   1.611   3.419
 1884WAT     H1 5863   0.290   1.682   3.394
 1884WAT     H2 5864   0.176   1.597   3.343
 1885WAT      O 5865   2.324   3.946   0.364
 1885WAT     H1 5866   2.342   3.951   0.270
 1885WAT     H2 5867   2.338   3.854   0.386
 1886WAT      O 5868   0.542   2.923   5.093
 1886WAT     H1 5869   0.481   2.993   5.120
 1886WAT     H2 5870   0.622   2.969   5.070
 1887WAT      O 5871   1.403   3.618   4.720
 1887WAT     H1 5872   1.488   3.584   4.749
 1887WAT     H2 5873   1.405   3.610   4.624
 1888WAT      O 5874   4.066   4.924   3.144
 1888WAT     H1 5875   4.153   4.928   3.105
 1888WAT     H2 5876   4.017   4.865   3.088
 1889WAT      O 5877   4.429   2.359   3.724
 1889WAT     H1 5878   4.519   2.329   3.736
 1889WAT     H2 5879   4.375   2.287   3.756
 1890WAT      O 5880   0.404   3.528   4.814
 1890WAT     H1 5881   0.341   3.599   4.806
 1890WAT     H2 5882   0.445   3.524   4.728
 1891WAT      O 5883   3.705   2.546   2.681
 1891WAT     H1 5884   3.683   2.528   2.772
 1891WAT     H2 5885   3.789   2.503   2.667
 1892WAT      O 5886   3.675   0.436   1.989
 1892WAT     H1 5887   3.588   0.467   1.965
 1892WAT     H2 5888   3.720   0.424   1.905
 1893WAT      O 5889   1.652   1.001   2.379
 1893WAT     H1 5890   1.624   0.969   2.293
 1893WAT     H2 5891   1.685   1.089   2.362
 1894WAT      O 5892   2.550   5.072   1.179
 1894WAT     H1 5893   2.606   5.127   1.234
 1894WAT     H2 5894   2.605   5.050   1.104
 1895WAT      O 5895   0.125   1.210   0.345
 1895WAT     H1 5896   0.054   1.186   0.285
 1895WAT     H2 5897   0.091   1.284   0.394
 1896WAT      O 5898   2.174   0.906   5.272
 1896WAT     H1 5899   2.088   0.865   5.263
 1896WAT     H2 5900   2.161   0.974   5.338
 1897WAT      O 5901   0.587   4.626   2.457
 1897WAT     H1 5902   0.640   4.641   2.536
 1897WAT     H2 5903   0.556   4.713   2.432
 1898WAT      O 5904   3.825   3.564   3.806
 1898WAT     H1 5905   3.859   3.480   3.775
 1898WAT     H2 5906   3.770   3.541   3.882
 1899WAT      O 5907   1.195   4.623   0.659
 1899WAT     H1 5908   1.142   4.634   0.580
 1899WAT     H2 5909   1.156   4.683   0.722
 1900WAT      O 5910   4.305   1.140   3.581
 1900WAT     H1 5911   4.375   1.099   3.631
 1900WAT     H2 5912   4.253   1.067   3.547
 1901WAT      O 5913   3.046   3.166   2.231
 1901WAT     H1 5914   3.091   3.099   2.180
 1901WAT     H2 5915   3.060   3.247   2.182
 1902WAT      O 5916   3.525   1.275   1.517
 1902WAT     H1 5917   3.559   1.217   1.585
 1902WAT     H2 5918   3.434   1.292   1.543
 1903WAT      O 5919   1.513   0.524   3.751
 1903WAT     H1 5920   1.590   0.503   3.697
 1903WAT     H2 5921   1.538   0.499   3.840
 1904WAT      O 5922   3.597   3.813   0.789
 1904WAT     H1 5923   3.607   3.882   0.724
 1904WAT     H2 5924   3.679   3.815   0.839
 1905WAT      O 5925   0.265   0.344   4.085
 1905WAT     H1 5926   0.347   0.338   4.136
 1905WAT     H2 5927   0.212   0.407   4.133
 1906WAT      O 5928   1.153   3.992   1.687
 1906WAT     H1 5929   1.173   3.958   1.599
 1906WAT     H2 5930   1.199   4.076   1.691
 1907WAT      O 5931   2.498   2.084   3.102
 1907WAT     H1 5932   2.457   2.085   3.188
 1907WAT     H2 5933   2.455   2.012   3.056
 1908WAT      O 5934   1.841   0.780   2.026
 1908WAT     H1 5935   1.872   0.832   2.100
 1908WAT     H2 5936   1.851   0.689   2.054
 1909WAT      O 5937   0.960   2.433   3.716
 1909WAT     H1 5938   0.956   2.403   3.806
 1909WAT     H2 5939   0.963   2.353   3.664
 1910WAT      O 5940   1.326   0.065   2.819
 1910WAT     H1 5941   1.259   0.092   2.882
 1910WAT     H2 5942   1.358   0.147   2.781
 1911WAT      O 5943   3.657   2.235   1.978
 1911WAT     H1 5944   3.678   2.209   1.889
 1911WAT     H2 5945   3.659   2.153   2.028
 1912WAT      O 5946   0.491   3.412   1.018
 1912WAT     H1 5947   0.401   3.404   1.050
 1912WAT     H2 5948   0.491   3.493   0.967
 1913WAT      O 5949   3.242   2.432   3.805
 1913WAT     H1 5950   3.149   2.411   3.816
 1913WAT     H2 5951   3.285   2.347   3.793
 1914WAT      O 5952   2.569   2.981   2.186
 1914WAT     H1 5953   2.556   3.076   2.176
 1914WAT     H2 5954   2.583   2.969   2.280
 1915WAT      O 5955   1.069   1.418   1.306
 1915WAT     H1 5956   1.156   1.405   1.269
 1915WAT     H2 5957   1.014   1.440   1.231
 1916WAT      O 5958   2.499   3.403   0.543
 1916WAT     H1 5959   2.468   3.331   0.599
 1916WAT     H2 5960   2.594   3.405   0.557
 1917WAT      O 5961   2.613   0.357   2.367
 1917WAT     H1 5962   2.563   0.301   2.306
 1917WAT     H2 5963   2.626   0.439   2.320
 1918WAT      O 5964   3.718   3.455   3.269
 1918WAT     H1 5965   3.648   3.520   3.277
 1918WAT     H2 5966   3.687   3.380   3.320
 1919WAT      O 5967   3.772   2.038   0.105
 1919WAT     H1 5968   3.730   2.117   0.140
 1919WAT     H2 5969   3.853   2.070   0.066
 1920WAT      O 5970   4.359   3.204   2.883
 1920WAT     H1 5971   4.347   3.111   2.865
 1920WAT     H2 5972   4.274   3.243   2.865
 1921WAT      O 5973   1.965   0.760   4.154
 1921WAT     H1 5974   2.025   0.705   4.104
 1921WAT     H2 5975   2.022   0.818   4.204
 1922WAT      O 5976   3.124   0.453   2.469
 1922WAT     H1 5977   3.161   0.537   2.497
 1922WAT     H2 5978   3.194   0.412   2.418
 1923WAT      O 5979   2.498   0.514   1.130
 1923WAT     H1 5980   2.514   0.420   1.129
 1923WAT     H2 5981   2.546   0.548   1.055
 1924WAT      O 5982   1.443   4.565   1.501
 1924WAT     H1 5983   1.366   4.561   1.558
 1924WAT     H2 5984   1.408   4.588   1.415
 1925WAT      O 5985   1.861   2.068   2.207
 1925WAT     H1 5986   1.791   2.073   2.271
 1925WAT     H2 5987   1.934   2.114   2.248
 1926WAT      O 5988   1.155   0.387   5.062
 1926WAT     H1 5989   1.115   0.366   4.977
 1926WAT     H2 5990   1.097   0.452   5.101
 1927WAT      O 5991   3.665   2.025   3.809
 1927WAT     H1 5992   3.697   2.110   3.777
 1927WAT     H2 5993   3.599   2.048   3.875
 1928WAT      O 5994   1.090   1.156   1.998
 1928WAT     H1 5995   1.175   1.125   1.965
 1928WAT     H2 5996   1.048   1.195   1.922
 1929WAT      O 5997   2.380   5.131   0.773
 1929WAT     H1 5998   2.363   5.050   0.821
 1929WAT     H2 5999   2.476   5.139   0.774
 1930WAT      O 6000   1.280   2.255   4.751
 1930WAT     H1 6001   1.329   2.314   4.809
 1930WAT     H2 6002   1.225   2.204   4.811
 1931WAT      O 6003   2.901   1.665   3.534
 1931WAT     H1 6004   2.984   1.618   3.544
 1931WAT     H2 6005   2.918   1.752   3.567
 1932WAT      O 6006   3.028   1.474   1.110
 1932WAT     H1 6007   3.077   1.415   1.168
 1932WAT     H2 6008   3.066   1.460   1.023
 1933WAT      O 6009   3.426   4.327   3.053
 1933WAT     H1 6010   3.421   4.416   3.089
 1933WAT     H2 6011   3.449   4.273   3.128
 1934WAT      O 6012   2.273   1.704   4.222
 1934WAT     H1 6013   2.347   1.738   4.272
 1934WAT     H2 6014   2.312   1.651   4.153
 1935WAT      O 6015   0.521   1.419   1.227
 1935WAT     H1 6016   0.584   1.347   1.230
 1935WAT     H2 6017   0.462   1.396   1.156
 1936WAT      O 6018   4.247   1.838   2.833
 1936WAT     H1 6019   4.328   1.810   2.876
 1936WAT     H2 6020   4.183   1.839   2.904
 1937WAT      O 6021   0.814   3.671   4.302
 1937WAT     H1 6022   0.815   3.576   4.310
 1937WAT     H2 6023   0.725   3.697   4.327
 1938WAT      O 6024   2.297   2.475   5.124
 1938WAT     H1 6025   2.363   2.432   5.070
 1938WAT     H2 6026   2.259   2.542   5.067
 1939WAT      O 6027   1.371   0.068   4.717
 1939WAT     H1 6028   1.431   0.134   4.681
 1939WAT     H2 6029   1.424  -0.011   4.724
 1940WAT      O 6030   3.261   3.158   0.747
 1940WAT     H1 6031   3.217   3.242   0.761
 1940WAT     H2 6032   3.329   3.177   0.682
 1941WAT      O 6033   3.088   2.292   2.109
 1941WAT     H1 6034   2.999   2.318   2.132
 1941WAT     H2 6035   3.095   2.312   2.016
 1942WAT      O 6036   4.218   2.194   3.781
 1942WAT     H1 6037   4.213   2.170   3.874
 1942WAT     H2 6038   4.191   2.115   3.734
 1943WAT      O 6039   0.990   2.870   0.313
 1943WAT     H1 6040   1.038   2.868   0.230
 1943WAT     H2 6041   0.934   2.948   0.306
 1944WAT      O 6042   3.467   4.935   2.529
 1944WAT     H1 6043   3.558   4.931   2.558
 1944WAT     H2 6044   3.417   4.935   2.611
 1945WAT      O 6045   1.579   1.337   2.077
 1945WAT     H1 6046   1.591   1.430   2.090
 1945WAT     H2 6047   1.517   1.310   2.146
 1946WAT      O 6048   3.347   2.086   1.134
 1946WAT     H1 6049   3.441   2.097   1.143
 1946WAT     H2 6050   3.314   2.174   1.118
 1947WAT      O 6051   0.668   3.706   0.129
 1947WAT     H1 6052   0.659   3.633   0.191
 1947WAT     H2 6053   0.715   3.773   0.178
 1948WAT      O 6054   3.787   2.936   0.008
 1948WAT     H1 6055   3.692   2.941   0.021
 1948WAT     H2 6056   3.814   3.026  -0.006
 1949WAT      O 6057   0.483   1.079   4.489
 1949WAT     H1 6058   0.518   1.123   4.412
 1949WAT     H2 6059   0.492   1.143   4.560
 1950WAT      O 6060   4.093   2.364   1.991
 1950WAT     H1 6061   4.058   2.277   2.012
 1950WAT     H2 6062   4.052   2.422   2.055
 1951WAT      O 6063   1.369   3.832   0.743
 1951WAT     H1 6064   1.441   3.795   0.693
 1951WAT     H2 6065   1.395   3.822   0.835
 1952WAT      O 6066   1.309   3.733   3.696
 1952WAT     H1 6067   1.368   3.664   3.664
 1952WAT     H2 6068   1.259   3.759   3.619
 1953WAT      O 6069   2.589   4.858   1.365
 1953WAT     H1 6070   2.674   4.826   1.335
 1953WAT     H2 6071   2.551   4.901   1.288
 1954WAT      O 6072   3.121   0.140   3.426
 1954WAT     H1 6073   3.033   0.158   3.393
 1954WAT     H2 6074   3.158   0.226   3.444
 1955WAT      O 6075   3.713   3.256   2.011
 1955WAT     H1 6076   3.806   3.238   1.999
 1955WAT     H2 6077   3.676   3.174   2.041
 1956WAT      O 6078   1.770   4.575   2.412
 1956WAT     H1 6079   1.685   4.540   2.437
 1956WAT     H2 6080   1.803   4.515   2.345
 1957WAT      O 6081   3.784   2.285   5.081
 1957WAT     H1 6082   3.851   2.252   5.021
 1957WAT     H2 6083   3.834   2.322   5.154
 1958WAT      O 6084   3.162   4.148   3.984
 1958WAT     H1 6085   3.103   4.223   3.978
 1958WAT     H2 6086   3.105   4.072   3.993
 1959WAT      O 6087   1.114   1.936   1.882
 1959WAT     H1 6088   1.065   1.939   1.799
 1959WAT     H2 6089   1.150   1.847   1.885
 1960WAT      O 6090   4.010   2.785   3.453
 1960WAT     H1 6091   4.089   2.738   3.480
 1960WAT     H2 6092   3.950   2.776   3.528
 1961WAT      O 6093   0.307   2.451   4.900
 1961WAT     H1 6094   0.396   2.471   4.872
 1961WAT     H2 6095   0.315   2.374   4.956
 1962WAT      O 6096   2.612   0.434   1.902
 1962WAT     H1 6097   2.669   0.381   1.846
 1962WAT     H2 6098   2.672   0.483   1.958
 1963WAT      O 6099   0.475   1.914   3.036
 1963WAT     H1 6100   0.510   2.001   3.054
 1963WAT     H2 6101   0.542   1.872   2.982
 1964WAT      O 6102   1.185   3.751   0.119
 1964WAT     H1 6103   1.220   3.795   0.042
 1964WAT     H2 6104   1.199   3.658   0.102
 1965WAT      O 6105   0.272   2.430   1.080
 1965WAT     H1 6106   0.352   2.380   1.063
 1965WAT     H2 6107   0.236   2.448   0.993
 1966WAT      O 6108   3.287   2.680   1.934
 1966WAT     H1 6109   3.297   2.621   2.010
 1966WAT     H2 6110   3.320   2.629   1.860
 1967WAT      O 6111   0.170   2.988   1.693
 1967WAT     H1 6112   0.238   2.969   1.630
 1967WAT     H2 6113   0.216   3.020   1.771
 1968WAT      O 6114   3.614   0.877   3.205
 1968WAT     H1 6115   3.639   0.932   3.279
 1968WAT     H2 6116   3.665   0.911   3.131
 1969WAT      O 6117   2.351   2.047   2.823
 1969WAT     H1 6118   2.266   2.088   2.808
 1969WAT     H2 6119   2.332   1.972   2.879
 1970WAT      O 6120   3.187   3.811   3.795
 1970WAT     H1 6121   3.132   3.826   3.719
 1970WAT     H2 6122   3.273   3.845   3.770
 1971WAT      O 6123   3.159   0.683   1.787
 1971WAT     H1 6124   3.247   0.721   1.780
 1971WAT     H2 6125   3.121   0.723   1.865
 1972WAT      O 6126   4.218   0.436   4.859
 1972WAT     H1 6127   4.249   0.511   4.809
 1972WAT     H2 6128   4.145   0.401   4.808
 1973WAT      O 6129   1.858   4.639   0.991
 1973WAT     H1 6130   1.792   4.678   0.934
 1973WAT     H2 6131   1.807   4.590   1.056
 1974WAT      O 6132   3.048   1.860   3.077
 1974WAT     H1 6133   3.139   1.837   3.095
 1974WAT     H2 6134   3.050   1.953   3.057
 1975WAT      O 6135   3.205   4.042   3.075
 1975WAT     H1 6136   3.190   4.132   3.048
 1975WAT     H2 6137   3.280   4.013   3.022
 1976WAT      O 6138   2.804   2.973   4.919
 1976WAT     H1 6139   2.819   2.907   4.987
 1976WAT     H2 6140   2.872   2.956   4.854
 1977WAT      O 6141   2.842   1.748   3.214
 1977WAT     H1 6142   2.909   1.799   3.167
 1977WAT     H2 6143   2.891   1.679   3.258
 1978WAT      O 6144   0.768   4.593   4.920
 1978WAT     H1 6145   0.712   4.600   4.997
 1978WAT     H2 6146   0.846   4.643   4.943
 1979WAT      O 6147   3.803   3.850   1.955
 1979WAT     H1 6148   3.804   3.934   1.909
 1979WAT     H2 6149   3.880   3.854   2.013
 1980WAT      O 6150   2.697   0.051   5.264
 1980WAT     H1 6151   2.733   0.123   5.316
 1980WAT     H2 6152   2.608   0.039   5.296
 1981WAT      O 6153   3.134   2.980   0.544
 1981WAT     H1 6154   3.221   2.982   0.504
 1981WAT     H2 6155   3.145   3.021   0.629
 1982WAT      O 6156   0.475   4.129   4.819
 1982WAT     H1 6157   0.517   4.046   4.798
 1982WAT     H2 6158   0.412   4.108   4.888
 1983WAT      O 6159   0.429   4.384   4.775
 1983WAT     H1 6160   0.522   4.407   4.777
 1983WAT     H2 6161   0.427   4.289   4.786
 1984WAT      O 6162   3.749   4.686   4.934
 1984WAT     H1 6163   3.671   4.632   4.949
 1984WAT     H2 6164   3.784   4.701   5.022
 1985WAT      O 6165   4.223   2.010   3.542
 1985WAT     H1 6166   4.270   1.931   3.568
 1985WAT     H2 6167   4.170   1.983   3.467
 1986WAT      O 6168   3.795   3.374   1.780
 1986WAT     H1 6169   3.754   3.354   1.864
 1986WAT     H2 6170   3.729   3.423   1.732
 1987WAT      O 6171   2.020   2.785   0.245
 1987WAT     H1 6172   2.019   2.728   0.322
 1987WAT     H2 6173   1.940   2.838   0.253
 1988WAT      O 6174   2.929   3.955   0.222
 1988WAT     H1 6175   2.972   3.888   0.169
 1988WAT     H2 6176   3.000   3.999   0.268
 1989WAT      O 6177   2.450   0.694   3.082
 1989WAT     H1 6178   2.527   0.661   3.035
 1989WAT     H2 6179   2.386   0.713   3.014
 1990WAT      O 6180   3.044   1.540   0.315
 1990WAT     H1 6181   3.120   1.592   0.340
 1990WAT     H2 6182   3.047   1.536   0.220
 1991WAT      O 6183   1.381   1.621   4.875
 1991WAT     H1 6184   1.371   1.549   4.813
 1991WAT     H2 6185   1.453   1.674   4.840
 1992WAT      O 6186   1.765   0.017   4.760
 1992WAT     H1 6187   1.848  -0.029   4.774
 1992WAT     H2 6188   1.699  -0.052   4.761
 1993WAT      O 6189   2.865   4.269   0.569
 1993WAT     H1 6190   2.920   4.315   0.505
 1993WAT     H2 6191   2.926   4.217   0.620
 1994WAT      O 6192   1.567   3.714   0.625
 1994WAT     H1 6193   1.575   3.634   0.677
 1994WAT     H2 6194   1.656   3.750   0.625
 1995WAT      O 6195   4.406   4.379   3.381
 1995WAT     H1 6196   4.452   4.298   3.359
 1995WAT     H2 6197   4.415   4.434   3.303
 1996WAT      O 6198   2.587   1.508   4.836
 1996WAT     H1 6199   2.554   1.578   4.779
 1996WAT     H2 6200   2.556   1.427   4.795
 1997WAT      O 6201   4.396   2.756   3.047
 1997WAT     H1 6202   4.355   2.719   3.125
 1997WAT     H2 6203   4.477   2.706   3.035
 1998WAT      O 6204   2.005   0.603   2.168
 1998WAT     H1 6205   1.997   0.554   2.086
 1998WAT     H2 6206   2.051   0.684   2.143
 1999WAT      O 6207   3.025   2.395   0.537
 1999WAT     H1 6208   2.941   2.384   0.582
 1999WAT     H2 6209   3.072   2.459   0.591
 2000WAT      O 6210   2.902   5.114   0.723
 2000WAT     H1 6211   2.865   5.027   0.739
 2000WAT     H2 6212   2.964   5.126   0.795
 2001WAT      O 6213   0.717   4.383   3.698
 2001WAT     H1 6214   0.679   4.469   3.678
 2001WAT     H2 6215   0.793   4.377   3.639
 2002WAT      O 6216   0.013   1.741   3.283
 2002WAT     H1 6217   0.015   1.811   3.218
 2002WAT     H2 6218  -0.066   1.757   3.334
 2003WAT      O 6219   0.750   1.893   3.895
 2003WAT     H1 6220   0.706   1.815   3.862
 2003WAT     H2 6221   0.686   1.963   3.884
 2004WAT      O 6222   4.407   2.975   3.440
 2004WAT     H1 6223   4.411   3.018   3.354
 2004WAT     H2 6224   4.484   2.918   3.441
 2005WAT      O 6225   3.422   4.836   2.925
 2005WAT     H1 6226   3.365   4.905   2.892
 2005WAT     H2 6227   3.433   4.856   3.018
 2006WAT      O 6228   2.603   1.795   0.153
 2006WAT     H1 6229   2.584   1.706   0.124
 2006WAT     H2 6230   2.660   1.784   0.229
 2007WAT      O 6231   1.978   2.036   4.929
 2007WAT     H1 6232   1.932   2.065   5.007
 2007WAT     H2 6233   1.963   2.106   4.865
 2008WAT      O 6234   3.829   2.581   3.589
 2008WAT     H1 6235   3.810   2.556   3.498
 2008WAT     H2 6236   3.912   2.537   3.608
 2009WAT      O 6237   1.141   4.457   3.269
 2009WAT     H1 6238   1.219   4.474   3.216
 2009WAT     H2 6239   1.152   4.513   3.347
 2010WAT      O 6240   1.187   2.842   2.849
 2010WAT     H1 6241   1.253   2.873   2.786
 2010WAT     H2 6242   1.225   2.861   2.934
 2011WAT      O 6243   3.833   1.478   3.997
 2011WAT     H1 6244   3.753   1.426   4.009
 2011WAT     H2 6245   3.809   1.543   3.931
 2012WAT      O 6246   0.038   4.268   4.008
 2012WAT     H1 6247   0.068   4.186   4.046
 2012WAT     H2 6248   0.106   4.331   4.028
 2013WAT      O 6249   0.335   1.512   2.611
 2013WAT     H1 6250   0.280   1.588   2.591
 2013WAT     H2 6251   0.383   1.538   2.690
 2014WAT      O 6252   1.474   4.630   0.866
 2014WAT     H1 6253   1.421   4.693   0.915
 2014WAT     H2 6254   1.420   4.551   0.862
 2015WAT      O 6255   1.117   4.478   5.127
 2015WAT     H1 6256   1.112   4.443   5.038
 2015WAT     H2 6257   1.162   4.410   5.177
 2016WAT      O 6258   1.175   0.221   2.257
 2016WAT     H1 6259   1.120   0.169   2.316
 2016WAT     H2 6260   1.113   0.275   2.208
 2017WAT      O 6261   2.317   0.052   1.836
 2017WAT     H1 6262   2.317  -0.043   1.823
 2017WAT     H2 6263   2.289   0.064   1.926
 2018WAT      O 6264   3.911   2.755   2.927
 2018WAT     H1 6265   3.871   2.833   2.889
 2018WAT     H2 6266   3.952   2.786   3.008
 2019WAT      O 6267   2.403   1.531   1.669
 2019WAT     H1 6268   2.312   1.506   1.687
 2019WAT     H2 6269   2.443   1.452   1.633
 2020WAT      O 6270   1.571   1.782   4.761
 2020WAT     H1 6271   1.665   1.776   4.749
 2020WAT     H2 6272   1.554   1.876   4.774
 2021WAT      O 6273   0.529   4.221   3.953
 2021WAT     H1 6274   0.483   4.208   3.871
 2021WAT     H2 6275   0.529   4.135   3.995
 2022WAT      O 6276   4.305   1.321   4.737
 2022WAT     H1 6277   4.282   1.275   4.656
 2022WAT     H2 6278   4.399   1.307   4.747
 2023WAT      O 6279   2.768   4.192   4.059
 2023WAT     H1 6280   2.763   4.259   4.127
 2023WAT     H2 6281   2.691   4.207   4.004
 2024WAT      O 6282   2.422   0.466   1.497
 2024WAT     H1 6283   2.408   0.426   1.583
 2024WAT     H2 6284   2.334   0.481   1.463
 2025WAT      O 6285   3.608   4.372   4.360
 2025WAT     H1 6286   3.590   4.465   4.353
 2025WAT     H2 6287   3.703   4.365   4.348
 2026WAT      O 6288   1.892   0.107   1.392
 2026WAT     H1 6289   1.964   0.159   1.429
 2026WAT     H2 6290   1.937   0.038   1.343
 2027WAT      O 6291   3.911   0.653   3.921
 2027WAT     H1 6292   3.944   0.602   3.847
 2027WAT     H2 6293   3.842   0.598   3.958
 2028WAT      O 6294   3.552   1.113   2.911
 2028WAT     H1 6295   3.527   1.205   2.918
 2028WAT     H2 6296   3.497   1.068   2.976
 2029WAT      O 6297   4.102   0.956   3.996
 2029WAT     H1 6298   4.196   0.967   4.009
 2029WAT     H2 6299   4.084   1.001   3.913
 2030WAT      O 6300   4.484   3.283   4.336
 2030WAT     H1 6301   4.423   3.347   4.298
 2030WAT     H2 6302   4.435   3.201   4.338
 2031WAT      O 6303   1.531   3.302   3.303
 2031WAT     H1 6304   1.457   3.362   3.294
 2031WAT     H2 6305   1.499   3.218   3.268
 2032WAT      O 6306   4.366   2.149   1.868
 2032WAT     H1 6307   4.387   2.055   1.867
 2032WAT     H2 6308   4.428   2.186   1.931
 2033WAT      O 6309   3.522   3.829   1.078
 2033WAT     H1 6310   3.485   3.761   1.135
 2033WAT     H2 6311   3.537   3.785   0.995
 2034WAT      O 6312   4.110   1.265   1.849
 2034WAT     H1 6313   4.158   1.337   1.890
 2034WAT     H2 6314   4.159   1.246   1.769
 2035WAT      O 6315   4.043   2.422   4.781
 2035WAT     H1 6316   4.065   2.451   4.870
 2035WAT     H2 6317   4.096   2.478   4.725
 2036WAT      O 6318   1.490   1.738   3.647
 2036WAT     H1 6319   1.526   1.650   3.655
 2036WAT     H2 6320   1.396   1.726   3.660
 2037WAT      O 6321   4.087   0.396   0.096
 2037WAT     H1 6322   4.094   0.366   0.005
 2037WAT     H2 6323   4.025   0.469   0.093
 2038WAT      O 6324   0.599   0.316   2.386
 2038WAT     H1 6325   0.623   0.399   2.426
 2038WAT     H2 6326   0.594   0.335   2.292
 2039WAT      O 6327   4.341   4.388   2.493
 2039WAT     H1 6328   4.408   4.456   2.486
 2039WAT     H2 6329   4.258   4.437   2.493
 2040WAT      O 6330   3.986   3.896   4.675
 2040WAT     H1 6331   3.904   3.945   4.675
 2040WAT     H2 6332   4.049   3.954   4.718
 2041WAT      O 6333   4.329   3.232   0.250
 2041WAT     H1 6334   4.294   3.143   0.254
 2041WAT     H2 6335   4.308   3.271   0.335
 2042WAT      O 6336   2.361   4.855   0.567
 2042WAT     H1 6337   2.398   4.943   0.555
 2042WAT     H2 6338   2.330   4.854   0.657
 2043WAT      O 6339   3.400   3.729   2.899
 2043WAT     H1 6340   3.314   3.688   2.885
 2043WAT     H2 6341   3.457   3.687   2.835
 2044WAT      O 6342   3.443   1.814   1.993
 2044WAT     H1 6343   3.513   1.750   1.983
 2044WAT     H2 6344   3.485   1.899   1.981
 2045WAT      O 6345   3.466   0.848   0.736
 2045WAT     H1 6346   3.426   0.832   0.822
 2045WAT     H2 6347   3.560   0.844   0.753
 2046WAT      O 6348   0.172   4.462   3.494
 2046WAT     H1 6349   0.078   4.448   3.506
 2046WAT     H2 6350   0.202   4.383   3.448
 2047WAT      O 6351   3.246   2.179   5.034
 2047WAT     H1 6352   3.337   2.182   5.005
 2047WAT     H2 6353   3.226   2.269   5.060
 2048WAT      O 6354   2.738   5.088   3.525
 2048WAT     H1 6355   2.702   5.175   3.543
 2048WAT     H2 6356   2.667   5.042   3.481
 2049WAT      O 6357   4.462   0.291   1.694
 2049WAT     H1 6358   4.507   0.374   1.677
 2049WAT     H2 6359   4.383   0.316   1.743
 2050WAT      O 6360   1.391   3.610   0.361
 2050WAT     H1 6361   1.457   3.679   0.353
 2050WAT     H2 6362   1.308   3.657   0.360
 2051WAT      O 6363   3.295   4.637   3.598
 2051WAT     H1 6364   3.241   4.559   3.608
 2051WAT     H2 6365   3.234   4.707   3.574
 2052WAT      O 6366   4.302   4.321   4.689
 2052WAT     H1 6367   4.284   4.351   4.600
 2052WAT     H2 6368   4.244   4.373   4.745
 2053WAT      O 6369   2.057   3.070   5.014
 2053WAT     H1 6370   2.050   3.031   4.926
 2053WAT     H2 6371   1.999   3.146   5.012
 2054WAT      O 6372   2.293   3.938   4.692
 2054WAT     H1 6373   2.342   3.860   4.665
 2054WAT     H2 6374   2.300   3.939   4.787
 2055WAT      O 6375   3.451   0.430   3.994
 2055WAT     H1 6376   3.426   0.490   3.923
 2055WAT     H2 6377   3.418   0.472   4.073
 2056WAT      O 6378   1.065   2.529   4.608
 2056WAT     H1 6379   1.000   2.475   4.651
 2056WAT     H2 6380   1.132   2.466   4.578
 2057WAT      O 6381   3.478   4.663   2.471
 2057WAT     H1 6382   3.464   4.689   2.562
 2057WAT     H2 6383   3.400   4.611   2.450
 2058WAT      O 6384   4.266   1.620   3.116
 2058WAT     H1 6385   4.234   1.709   3.104
 2058WAT     H2 6386   4.282   1.613   3.210
 2059WAT      O 6387   3.720   4.349   0.027
 2059WAT     H1 6388   3.779   4.340   0.102
 2059WAT     H2 6389   3.721   4.263  -0.015
 2060WAT      O 6390   3.884   3.073   2.188
 2060WAT     H1 6391   3.820   3.016   2.144
 2060WAT     H2 6392   3.895   3.034   2.274
 2061WAT      O 6393   1.548   1.396   3.386
 2061WAT     H1 6394   1.524   1.448   3.463
 2061WAT     H2 6395   1.467   1.355   3.358
 2062WAT      O 6396   2.494   0.799   2.114
 2062WAT     H1 6397   2.556   0.812   2.042
 2062WAT     H2 6398   2.523   0.859   2.182
 2063WAT      O 6399   2.286   0.914   3.952
 2063WAT     H1 6400   2.225   0.842   3.936
 2063WAT     H2 6401   2.324   0.933   3.866
 2064WAT      O 6402   1.282   3.873   1.463
 2064WAT     H1 6403   1.300   3.906   1.375
 2064WAT     H2 6404   1.353   3.910   1.516
 2065WAT      O 6405   1.112   3.318   0.488
 2065WAT     H1 6406   1.192   3.266   0.489
 2065WAT     H2 6407   1.050   3.264   0.439
 2066WAT      O 6408   0.585   1.859   4.437
 2066WAT     H1 6409   0.545   1.946   4.434
 2066WAT     H2 6410   0.513   1.800   4.459
 2067WAT      O 6411   4.140   1.085   1.260
 2067WAT     H1 6412   4.071   1.112   1.199
 2067WAT     H2 6413   4.099   1.017   1.313
 2068WAT      O 6414   2.933   1.227   5.184
 2068WAT     H1 6415   2.867   1.157   5.185
 2068WAT     H2 6416   2.906   1.284   5.112
 2069WAT      O 6417   1.622   2.854   1.680
 2069WAT     H1 6418   1.536   2.896   1.684
 2069WAT     H2 6419   1.628   2.821   1.590
 2070WAT      O 6420   2.482   2.580   4.510
 2070WAT     H1 6421   2.400   2.537   4.534
 2070WAT     H2 6422   2.455   2.658   4.461
 2071WAT      O 6423   4.157   5.081   5.265
 2071WAT     H1 6424   4.119   4.999   5.298
 2071WAT     H2 6425   4.247   5.058   5.243
 2072WAT      O 6426   2.749   1.915   5.013
 2072WAT     H1 6427   2.830   1.965   4.999
 2072WAT     H2 6428   2.700   1.967   5.077
 2073WAT      O 6429   2.485   2.286   0.605
 2073WAT     H1 6430   2.509   2.255   0.518
 2073WAT     H2 6431   2.390   2.277   0.608
 2074WAT      O 6432   3.728   1.487   2.998
 2074WAT     H1 6433   3.700   1.401   2.965
 2074WAT     H2 6434   3.819   1.494   2.971
 2075WAT      O 6435   1.732   3.149   5.027
 2075WAT     H1 6436   1.772   3.074   5.071
 2075WAT     H2 6437   1.666   3.180   5.088
 2076WAT      O 6438   1.385   0.870   1.434
 2076WAT     H1 6439   1.404   0.787   1.478
 2076WAT     H2 6440   1.302   0.898   1.472
 2077WAT      O 6441   1.705   4.274   4.762
 2077WAT     H1 6442   1.774   4.335   4.788
 2077WAT     H2 6443   1.624   4.323   4.773
 2078WAT      O 6444   4.107   1.944   2.282
 2078WAT     H1 6445   4.031   1.886   2.273
 2078WAT     H2 6446   4.147   1.919   2.365
 2079WAT      O 6447   3.997   0.848   2.454
 2079WAT     H1 6448   4.038   0.880   2.534
 2079WAT     H2 6449   3.967   0.760   2.476
 2080WAT      O 6450   3.957   2.801   1.210
 2080WAT     H1 6451   3.906   2.827   1.287
 2080WAT     H2 6452   3.965   2.706   1.217
 2081WAT      O 6453   1.577   2.659   0.485
 2081WAT     H1 6454   1.563   2.686   0.575
 2081WAT     H2 6455   1.586   2.741   0.436
 2082WAT      O 6456   1.230   2.369   2.632
 2082WAT     H1 6457   1.217   2.335   2.544
 2082WAT     H2 6458   1.175   2.447   2.636
 2083WAT      O 6459   2.351   0.369   0.642
 2083WAT     H1 6460   2.324   0.278   0.654
 2083WAT     H2 6461   2.325   0.412   0.724
 2084WAT      O 6462   1.355   3.504   0.050
 2084WAT     H1 6463   1.265   3.483   0.026
 2084WAT     H2 6464   1.355   3.500   0.146
 2085WAT      O 6465   2.150   0.428   2.700
 2085WAT     H1 6466   2.227   0.373   2.708
 2085WAT     H2 6467   2.167   0.483   2.624
 2086WAT      O 6468   0.531   0.884   1.335
 2086WAT     H1 6469   0.621   0.906   1.359
 2086WAT     H2 6470   0.525   0.789   1.352
 2087WAT      O 6471   0.349   0.345   1.365
 2087WAT     H1 6472   0.440   0.343   1.394
 2087WAT     H2 6473   0.307   0.409   1.424
 2088WAT      O 6474   3.676   1.780   5.044
 2088WAT     H1 6475   3.738   1.811   4.978
 2088WAT     H2 6476   3.609   1.733   4.993
 2089WAT      O 6477   2.467   5.111   4.699
 2089WAT     H1 6478   2.439   5.195   4.662
 2089WAT     H2 6479   2.484   5.055   4.624
 2090WAT      O 6480   0.562   1.426   1.634
 2090WAT     H1 6481   0.467   1.419   1.623
 2090WAT     H2 6482   0.580   1.519   1.621
 2091WAT      O 6483   1.658   3.647   2.981
 2091WAT     H1 6484   1.730   3.668   3.040
 2091WAT     H2 6485   1.671   3.706   2.906
 2092WAT      O 6486   1.363   2.830   4.136
 2092WAT     H1 6487   1.451   2.810   4.167
 2092WAT     H2 6488   1.314   2.850   4.216
 2093WAT      O 6489   1.658   0.654   0.108
 2093WAT     H1 6490   1.707   0.582   0.147
 2093WAT     H2 6491   1.653   0.720   0.178
 2094WAT      O 6492   1.191   2.958   3.351
 2094WAT     H1 6493   1.169   2.887   3.410
 2094WAT     H2 6494   1.107   2.999   3.329
 2095WAT      O 6495   1.016   3.262   5.067
 2095WAT     H1 6496   1.070   3.294   4.994
 2095WAT     H2 6497   1.033   3.168   5.070
 2096WAT      O 6498   4.192   2.766   4.535
 2096WAT     H1 6499   4.227   2.784   4.448
 2096WAT     H2 6500   4.224   2.678   4.556
 2097WAT      O 6501   2.516   4.834   2.129
 2097WAT     H1 6502   2.594   4.818   2.076
 2097WAT     H2 6503   2.472   4.750   2.133
 2098WAT      O 6504   1.850   4.850   2.453
 2098WAT     H1 6505   1.801   4.768   2.447
 2098WAT     H2 6506   1.876   4.855   2.545
 2099WAT      O 6507   1.132   0.856   0.843
 2099WAT     H1 6508   1.189   0.823   0.773
 2099WAT     H2 6509   1.108   0.778   0.893
 2100WAT      O 6510   4.236   2.610   5.211
 2100WAT     H1 6511   4.298   2.637   5.144
 2100WAT     H2 6512   4.243   2.678   5.278
 2101WAT      O 6513   1.284   4.782   2.997
 2101WAT     H1 6514   1.327   4.749   3.075
 2101WAT     H2 6515   1.197   4.742   2.999
 2102WAT      O 6516   4.040   1.352   0.599
 2102WAT     H1 6517   3.988   1.312   0.669
 2102WAT     H2 6518   4.030   1.293   0.525
 2103WAT      O 6519   4.463   2.646   3.658
 2103WAT     H1 6520   4.448   2.552   3.666
 2103WAT     H2 6521   4.452   2.665   3.564
 2104WAT      O 6522   3.745   3.796   2.307
 2104WAT     H1 6523   3.835   3.764   2.296
 2104WAT     H2 6524   3.755   3.877   2.358
 2105WAT      O 6525   0.018   0.165   1.371
 2105WAT     H1 6526   0.111   0.144   1.359
 2105WAT     H2 6527   0.017   0.256   1.397
 2106WAT      O 6528   1.101   4.743   0.402
 2106WAT     H1 6529   1.162   4.765   0.332
 2106WAT     H2 6530   1.053   4.824   0.418
 2107WAT      O 6531   0.409   3.013   0.982
 2107WAT     H1 6532   0.323   3.036   1.018
 2107WAT     H2 6533   0.428   3.084   0.920
 2108WAT      O 6534   3.541   0.840   3.841
 2108WAT     H1 6535   3.483   0.776   3.882
 2108WAT     H2 6536   3.549   0.810   3.751
 2109WAT      O 6537   0.695   2.721   1.616
 2109WAT     H1 6538   0.696   2.706   1.522
 2109WAT     H2 6539   0.602   2.735   1.636
 2110WAT      O 6540   0.854   2.108   2.869
 2110WAT     H1 6541   0.781   2.062   2.828
 2110WAT     H2 6542   0.891   2.162   2.800
 2111WAT      O 6543   1.569   4.188   2.375
 2111WAT     H1 6544   1.647   4.188   2.429
 2111WAT     H2 6545   1.601   4.169   2.287
 2112WAT      O 6546   1.920   4.245   4.171
 2112WAT     H1 6547   1.985   4.306   4.205
 2112WAT     H2 6548   1.840   4.266   4.219
 2113WAT      O 6549   4.405   0.870   2.690
 2113WAT     H1 6550   4.396   0.965   2.691
 2113WAT     H2 6551   4.488   0.852   2.735
 2114WAT      O 6552   0.886   1.433   2.455
 2114WAT     H1 6553   0.861   1.342   2.466
 2114WAT     H2 6554   0.982   1.433   2.459
 2115WAT      O 6555   0.125   4.067   2.621
 2115WAT     H1 6556   0.156   3.985   2.585
 2115WAT     H2 6557   0.038   4.078   2.585
 2116WAT      O 6558   1.342   2.453   3.527
 2116WAT     H1 6559   1.308   2.377   3.478
 2116WAT     H2 6560   1.432   2.462   3.496
 2117WAT      O 6561   2.820   5.045   1.646
 2117WAT     H1 6562   2.883   4.985   1.686
 2117WAT     H2 6563   2.794   5.103   1.718
 2118WAT      O 6564   1.454   2.253   4.066
 2118WAT     H1 6565   1.530   2.195   4.074
 2118WAT     H2 6566   1.481   2.319   4.003
 2119WAT      O 6567   3.804   0.083   2.372
 2119WAT     H1 6568   3.759   0.128   2.301
 2119WAT     H2 6569   3.893   0.118   2.371
 2120WAT      O 6570   0.653   1.423   3.376
 2120WAT     H1 6571   0.678   1.357   3.441
 2120WAT     H2 6572   0.667   1.380   3.292
 2121WAT      O 6573   4.339   1.217   2.115
 2121WAT     H1 6574   4.248   1.224   2.144
 2121WAT     H2 6575   4.379   1.154   2.175
 2122WAT      O 6576   2.512   3.770   4.660
 2122WAT     H1 6577   2.570   3.717   4.716
 2122WAT     H2 6578   2.571   3.831   4.616
 2123WAT      O 6579   1.908   3.749   5.230
 2123WAT     H1 6580   1.979   3.798   5.189
 2123WAT     H2 6581   1.867   3.811   5.290
 2124WAT      O 6582   1.774   1.799   0.475
 2124WAT     H1 6583   1.717   1.870   0.445
 2124WAT     H2 6584   1.833   1.783   0.402
 2125WAT      O 6585   0.272   3.982   3.332
 2125WAT     H1 6586   0.363   3.964   3.310
 2125WAT     H2 6587   0.227   3.899   3.316
 2126WAT      O 6588   0.108   2.058   4.994
 2126WAT     H1 6589   0.194   2.101   4.996
 2126WAT     H2 6590   0.079   2.060   5.085
 2127WAT      O 6591   2.169   3.430   2.696
 2127WAT     H1 6592   2.183   3.408   2.788
 2127WAT     H2 6593   2.243   3.486   2.673
 2128WAT      O 6594   2.422   3.079   1.898
 2128WAT     H1 6595   2.494   3.130   1.861
 2128WAT     H2 6596   2.423   3.100   1.991
 2129WAT      O 6597   1.210   3.099   2.236
 2129WAT     H1 6598   1.238   3.010   2.257
 2129WAT     H2 6599   1.172   3.132   2.318
 2130WAT      O 6600   0.004   2.628   5.161
 2130WAT     H1 6601   0.034   2.599   5.247
 2130WAT     H2 6602   0.036   2.718   5.153
 2131WAT      O 6603   0.170   1.580   1.732
 2131WAT     H1 6604   0.144   1.643   1.665
 2131WAT     H2 6605   0.160   1.494   1.690
 2132WAT      O 6606   1.357   3.948   3.850
 2132WAT     H1 6607   1.342   3.860   3.815
 2132WAT     H2 6608   1.278   3.997   3.827
 2133WAT      O 6609   3.632   2.409   1.084
 2133WAT     H1 6610   3.538   2.410   1.102
 2133WAT     H2 6611   3.650   2.495   1.045
 2134WAT      O 6612   4.395   0.982   1.053
 2134WAT     H1 6613   4.393   0.897   1.097
 2134WAT     H2 6614   4.314   1.025   1.081
 2135WAT      O 6615   3.436   4.280   2.159
 2135WAT     H1 6616   3.382   4.205   2.134
 2135WAT     H2 6617   3.525   4.256   2.132
 2136WAT      O 6618   0.538   0.545   1.033
 2136WAT     H1 6619   0.611   0.525   0.975
 2136WAT     H2 6620   0.579   0.576   1.114
 2137WAT      O 6621   3.775   4.583   3.936
 2137WAT     H1 6622   3.733   4.659   3.896
 2137WAT     H2 6623   3.751   4.509   3.879
 2138WAT      O 6624   0.750   3.082   5.042
 2138WAT     H1 6625   0.796   3.127   5.112
 2138WAT     H2 6626   0.818   3.032   4.996
 2139WAT      O 6627   3.628   3.877   0.194
 2139WAT     H1 6628   3.598   3.791   0.166
 2139WAT     H2 6629   3.707   3.893   0.144
 2140WAT      O 6630   4.147   4.100   4.483
 2140WAT     H1 6631   4.105   4.015   4.497
 2140WAT     H2 6632   4.216   4.104   4.550
 2141WAT      O 6633   1.415   4.787   0.600
 2141WAT     H1 6634   1.319   4.782   0.605
 2141WAT     H2 6635   1.445   4.759   0.686
 2142WAT      O 6636   3.102   1.844   4.098
 2142WAT     H1 6637   3.140   1.900   4.030
 2142WAT     H2 6638   3.042   1.901   4.145
 2143WAT      O 6639   2.814   3.031   3.909
 2143WAT     H1 6640   2.867   3.093   3.959
 2143WAT     H2 6641   2.873   2.996   3.842
 2144WAT      O 6642   3.895   2.041   2.704
 2144WAT     H1 6643   3.951   2.093   2.762
 2144WAT     H2 6644   3.807   2.077   2.716
 2145WAT      O 6645   2.484   4.390   4.708
 2145WAT     H1 6646   2.397   4.431   4.710
 2145WAT     H2 6647   2.522   4.420   4.625
 2146WAT      O 6648   3.957   4.342   3.061
 2146WAT     H1 6649   4.031   4.283   3.045
 2146WAT     H2 6650   3.922   4.314   3.145
 2147WAT      O 6651   2.503   1.181   1.315
 2147WAT     H1 6652   2.571   1.188   1.248
 2147WAT     H2 6653   2.441   1.117   1.280
 2148WAT      O 6654   4.133   0.033   0.257
 2148WAT     H1 6655   4.223   0.065   0.261
 2148WAT     H2 6656   4.124  -0.001   0.168
 2149WAT      O 6657   0.968   2.566   1.730
 2149WAT     H1 6658   0.925   2.503   1.787
 2149WAT     H2 6659   0.970   2.647   1.780
 2150WAT      O 6660   0.242   4.251   3.339
 2150WAT     H1 6661   0.267   4.159   3.328
 2150WAT     H2 6662   0.258   4.290   3.253
 2151WAT      O 6663   0.365   1.294   3.447
 2151WAT     H1 6664   0.332   1.347   3.374
 2151WAT     H2 6665   0.455   1.325   3.459
 2152WAT      O 6666   4.291   4.100   2.103
 2152WAT     H1 6667   4.321   4.168   2.164
 2152WAT     H2 6668   4.237   4.042   2.156
 2153WAT      O 6669   3.446   2.904   2.635
 2153WAT     H1 6670   3.469   2.986   2.679
 2153WAT     H2 6671   3.360   2.921   2.597
 2154WAT      O 6672   3.457   1.649   0.058
 2154WAT     H1 6673   3.443   1.632  -0.035
 2154WAT     H2 6674   3.541   1.695   0.061
 2155WAT      O 6675   3.916   3.703   2.559
 2155WAT     H1 6676   3.931   3.715   2.653
 2155WAT     H2 6677   3.856   3.775   2.536
 2156WAT      O 6678   2.523   3.248   2.120
 2156WAT     H1 6679   2.614   3.262   2.145
 2156WAT     H2 6680   2.495   3.331   2.082
 2157WAT      O 6681   0.180   2.103   1.672
 2157WAT     H1 6682   0.167   2.189   1.711
 2157WAT     H2 6683   0.264   2.110   1.625
 2158WAT      O 6684   0.631   3.079   2.778
 2158WAT     H1 6685   0.689   3.153   2.764
 2158WAT     H2 6686   0.653   3.018   2.708
 2159WAT      O 6687   3.686   4.256   1.826
 2159WAT     H1 6688   3.610   4.287   1.776
 2159WAT     H2 6689   3.738   4.334   1.843
 2160WAT      O 6690   3.827   3.102   0.753
 2160WAT     H1 6691   3.864   3.081   0.839
 2160WAT     H2 6692   3.768   3.176   0.770
 2161WAT      O 6693   4.287   3.377   3.671
 2161WAT     H1 6694   4.349   3.311   3.701
 2161WAT     H2 6695   4.234   3.397   3.748
 2162WAT      O 6696   0.903   3.819   3.077
 2162WAT     H1 6697   0.833   3.774   3.030
 2162WAT     H2 6698   0.870   3.907   3.091
 2163WAT      O 6699   0.843   3.390   4.335
 2163WAT     H1 6700   0.764   3.349   4.298
 2163WAT     H2 6701   0.912   3.326   4.320
 2164WAT      O 6702   0.444   3.459   5.258
 2164WAT     H1 6703   0.513   3.398   5.233
 2164WAT     H2 6704   0.364   3.423   5.219
 2165WAT      O 6705   1.022   4.742   2.547
 2165WAT     H1 6706   1.005   4.834   2.563
 2165WAT     H2 6707   0.947   4.696   2.585
 2166WAT      O 6708   4.345   1.588   4.749
 2166WAT     H1 6709   4.304   1.503   4.733
 2166WAT     H2 6710   4.272   1.650   4.751
 2167WAT      O 6711   3.532   2.119   3.544
 2167WAT     H1 6712   3.497   2.128   3.455
 2167WAT     H2 6713   3.626   2.106   3.532
 2168WAT      O 6714   0.384   3.101   2.610
 2168WAT     H1 6715   0.459   3.105   2.550
 2168WAT     H2 6716   0.424   3.089   2.696
 2169WAT      O 6717   2.972   5.031   1.162
 2169WAT     H1 6718   2.931   5.106   1.205
 2169WAT     H2 6719   2.908   4.960   1.174
 2170WAT      O 6720   0.478   2.515   0.316
 2170WAT     H1 6721   0.541   2.470   0.373
 2170WAT     H2 6722   0.460   2.452   0.246
 2171WAT      O 6723   1.546   3.562   4.239
 2171WAT     H1 6724   1.476   3.575   4.174
 2171WAT     H2 6725   1.627   3.576   4.189
 2172WAT      O 6726   4.349   1.352   5.058
 2172WAT     H1 6727   4.428   1.306   5.087
 2172WAT     H2 6728   4.338   1.326   4.967
 2173WAT      O 6729   1.639   0.554   3.151
 2173WAT     H1 6730   1.557   0.594   3.123
 2173WAT     H2 6731   1.632   0.462   3.124
 2174WAT      O 6732   3.014   4.921   4.254
 2174WAT     H1 6733   3.080   4.855   4.233
 2174WAT     H2 6734   2.979   4.947   4.169
 2175WAT      O 6735   3.234   2.551   2.819
 2175WAT     H1 6736   3.268   2.509   2.740
 2175WAT     H2 6737   3.200   2.635   2.789
 2176WAT      O 6738   0.768   2.489   3.238
 2176WAT     H1 6739   0.841   2.459   3.292
 2176WAT     H2 6740   0.696   2.501   3.300
 2177WAT      O 6741   4.415   1.298   1.004
 2177WAT     H1 6742   4.343   1.237   0.989
 2177WAT     H2 6743   4.494   1.248   0.985
 2178WAT      O 6744   3.987   3.798   1.189
 2178WAT     H1 6745   3.895   3.801   1.164
 2178WAT     H2 6746   4.021   3.718   1.148
 2179WAT      O 6747   2.793   5.108   4.313
 2179WAT     H1 6748   2.792   5.065   4.227
 2179WAT     H2 6749   2.851   5.054   4.366
 2180WAT      O 6750   2.646   1.253   0.529
 2180WAT     H1 6751   2.661   1.327   0.470
 2180WAT     H2 6752   2.574   1.282   0.586
 2181WAT      O 6753   4.096   3.935   1.405
 2181WAT     H1 6754   4.073   3.870   1.339
 2181WAT     H2 6755   4.015   3.985   1.417
 2182WAT      O 6756   1.142   0.607   4.869
 2182WAT     H1 6757   1.184   0.564   4.944
 2182WAT     H2 6758   1.214   0.633   4.812
 2183WAT      O 6759   0.109   2.657   1.175
 2183WAT     H1 6760   0.168   2.593   1.134
 2183WAT     H2 6761   0.136   2.659   1.267
 2184WAT      O 6762   1.753   0.063   1.648
 2184WAT     H1 6763   1.823   0.038   1.708
 2184WAT     H2 6764   1.794   0.062   1.561
 2185WAT      O 6765   0.720   0.201   0.072
 2185WAT     H1 6766   0.670   0.165  -0.002
 2185WAT     H2 6767   0.667   0.181   0.149
 2186WAT      O 6768   0.469   0.655   2.030
 2186WAT     H1 6769   0.494   0.571   1.993
 2186WAT     H2 6770   0.551   0.704   2.037
 2187WAT      O 6771   4.238   0.612   3.807
 2187WAT     H1 6772   4.161   0.581   3.759
 2187WAT     H2 6773   4.278   0.676   3.748
 2188WAT      O 6774   1.095   3.408   0.013
 2188WAT     H1 6775   1.060   3.343  -0.048
 2188WAT     H2 6776   1.022   3.429   0.071
 2189WAT      O 6777   3.820   2.254   3.825
 2189WAT     H1 6778   3.855   2.268   3.913
 2189WAT     H2 6779   3.866   2.319   3.771
 2190WAT      O 6780   2.042   2.214   1.159
 2190WAT     H1 6781   2.059   2.219   1.065
 2190WAT     H2 6782   2.046   2.305   1.189
 2191WAT      O 6783   2.112   2.794   0.885
 2191WAT     H1 6784   2.128   2.835   0.970
 2191WAT     H2 6785   2.149   2.707   0.892
 2192WAT      O 6786   3.557   3.097   0.926
 2192WAT     H1 6787   3.473   3.060   0.953
 2192WAT     H2 6788   3.534   3.168   0.866
 2193WAT      O 6789   3.261   3.008   4.994
 2193WAT     H1 6790   3.314   2.959   5.057
 2193WAT     H2 6791   3.324   3.061   4.945
 2194WAT      O 6792   0.271   1.482   1.347
 2194WAT     H1 6793   0.225   1.483   1.263
 2194WAT     H2 6794   0.363   1.492   1.323
 2195WAT      O 6795   3.153   0.587   0.249
 2195WAT     H1 6796   3.157   0.593   0.345
 2195WAT     H2 6797   3.089   0.653   0.224
 2196WAT      O 6798   2.451   4.351   0.333
 2196WAT     H1 6799   2.429   4.434   0.375
 2196WAT     H2 6800   2.450   4.287   0.404
 2197WAT      O 6801   0.844   5.015   4.099
 2197WAT     H1 6802   0.892   4.933   4.084
 2197WAT     H2 6803   0.827   5.049   4.011
 2198WAT      O 6804   3.987   2.257   4.401
 2198WAT     H1 6805   3.935   2.192   4.355
 2198WAT     H2 6806   3.955   2.253   4.492
 2199WAT      O 6807   2.421   0.637   0.181
 2199WAT     H1 6808   2.475   0.715   0.183
 2199WAT     H2 6809   2.432   0.603   0.092
 2200WAT      O 6810   3.745   0.458   4.051
 2200WAT     H1 6811   3.728   0.519   4.123
 2200WAT     H2 6812   3.659   0.446   4.010
 2201WAT      O 6813   0.790   3.846   1.885
 2201WAT     H1 6814   0.880   3.824   1.907
 2201WAT     H2 6815   0.780   3.937   1.912
 2202WAT      O 6816   0.675   3.489   0.616
 2202WAT     H1 6817   0.581   3.501   0.628
 2202WAT     H2 6818   0.708   3.576   0.592
 2203WAT      O 6819   3.322   4.123   0.637
 2203WAT     H1 6820   3.358   4.093   0.720
 2203WAT     H2 6821   3.359   4.210   0.625
 2204WAT      O 6822   0.949   4.819   4.956
 2204WAT     H1 6823   0.980   4.875   5.028
 2204WAT     H2 6824   0.920   4.881   4.889
 2205WAT      O 6825   3.769   2.730   3.856
 2205WAT     H1 6826   3.741   2.683   3.777
 2205WAT     H2 6827   3.856   2.764   3.834
 2206WAT      O 6828   0.142   4.037   4.097
 2206WAT     H1 6829   0.228   3.998   4.111
 2206WAT     H2 6830   0.103   3.986   4.026
 2207WAT      O 6831   0.273   0.494   3.003
 2207WAT     H1 6832   0.330   0.509   2.927
 2207WAT     H2 6833   0.188   0.529   2.977
 2208WAT      O 6834   3.143   0.400   1.708
 2208WAT     H1 6835   3.210   0.375   1.645
 2208WAT     H2 6836   3.165   0.491   1.731
 2209WAT      O 6837   1.662   3.912   2.640
 2209WAT     H1 6838   1.665   4.001   2.605
 2209WAT     H2 6839   1.658   3.923   2.735
 2210WAT      O 6840   1.011   0.031   1.424
 2210WAT     H1 6841   0.922   0.037   1.390
 2210WAT     H2 6842   0.999   0.004   1.516
 2211WAT      O 6843   3.675   3.186   1.258
 2211WAT     H1 6844   3.633   3.248   1.199
 2211WAT     H2 6845   3.630   3.197   1.341
 2212WAT      O 6846   2.690   2.844   0.598
 2212WAT     H1 6847   2.748   2.903   0.551
 2212WAT     H2 6848   2.668   2.776   0.534
 2213WAT      O 6849   3.931   4.492   2.812
 2213WAT     H1 6850   3.938   4.445   2.895
 2213WAT     H2 6851   3.844   4.468   2.778
 2214WAT      O 6852   3.542   0.675   1.349
 2214WAT     H1 6853   3.597   0.605   1.385
 2214WAT     H2 6854   3.603   0.746   1.332
 2215WAT      O 6855   3.650   0.584   2.997
 2215WAT     H1 6856   3.741   0.611   2.989
 2215WAT     H2 6857   3.631   0.590   3.091
 2216WAT      O 6858   2.160   0.803   4.461
 2216WAT     H1 6859   2.161   0.816   4.366
 2216WAT     H2 6860   2.099   0.870   4.493
 2217WAT      O 6861   0.833   2.654   4.853
 2217WAT     H1 6862   0.860   2.677   4.942
 2217WAT     H2 6863   0.911   2.668   4.800
 2218WAT      O 6864   2.293   5.074   1.278
 2218WAT     H1 6865   2.386   5.078   1.257
 2218WAT     H2 6866   2.289   5.078   1.374
 2219WAT      O 6867   1.552   4.437   0.102
 2219WAT     H1 6868   1.594   4.438   0.016
 2219WAT     H2 6869   1.503   4.519   0.107
 2220WAT      O 6870   0.457   1.191   0.756
 2220WAT     H1 6871   0.474   1.282   0.730
 2220WAT     H2 6872   0.400   1.157   0.686
 2221WAT      O 6873   3.035   2.147   0.426
 2221WAT     H1 6874   3.024   2.213   0.494
 2221WAT     H2 6875   2.968   2.167   0.361
 2222WAT      O 6876   1.285   2.314   1.416
 2222WAT     H1 6877   1.270   2.387   1.476
 2222WAT     H2 6878   1.298   2.356   1.331
 2223WAT      O 6879  -0.001   3.737   1.579
 2223WAT     H1 6880   0.082   3.711   1.540
 2223WAT     H2 6881  -0.053   3.656   1.580
 2224WAT      O 6882   1.718   0.494   2.134
 2224WAT     H1 6883   1.738   0.537   2.217
 2224WAT     H2 6884   1.758   0.408   2.141
 2225WAT      O 6885   2.482   0.658   5.193
 2225WAT     H1 6886   2.514   0.740   5.156
 2225WAT     H2 6887   2.395   0.646   5.155
 2226WAT      O 6888   2.992   4.377   0.859
 2226WAT     H1 6889   3.077   4.363   0.817
 2226WAT     H2 6890   3.007   4.357   0.951
 2227WAT      O 6891   4.161   0.999   2.250
 2227WAT     H1 6892   4.105   1.076   2.250
 2227WAT     H2 6893   4.123   0.942   2.317
 2228WAT      O 6894   3.019   3.409   3.480
 2228WAT     H1 6895   3.101   3.427   3.526
 2228WAT     H2 6896   3.044   3.351   3.407
 2229WAT      O 6897   0.305   1.272   0.063
 2229WAT     H1 6898   0.375   1.243   0.004
 2229WAT     H2 6899   0.327   1.234   0.148
 2230WAT      O 6900   2.745   1.571   3.983
 2230WAT     H1 6901   2.837   1.585   3.960
 2230WAT     H2 6902   2.720   1.492   3.933
 2231WAT      O 6903   2.929   1.082   3.788
 2231WAT     H1 6904   2.958   1.038   3.707
 2231WAT     H2 6905   2.954   1.022   3.858
 2232WAT      O 6906   2.742   4.025   2.870
 2232WAT     H1 6907   2.680   4.056   2.804
 2232WAT     H2 6908   2.778   4.106   2.908
 2233WAT      O 6909   2.409   1.232   0.140
 2233WAT     H1 6910   2.451   1.251   0.056
 2233WAT     H2 6911   2.470   1.266   0.206
 2234WAT      O 6912   1.154   2.695   0.448
 2234WAT     H1 6913   1.086   2.727   0.389
 2234WAT     H2 6914   1.233   2.742   0.421
 2235WAT      O 6915   0.685   3.759   5.010
 2235WAT     H1 6916   0.617   3.825   5.022
 2235WAT     H2 6917   0.764   3.797   5.047
 2236WAT      O 6918   3.586   1.482   0.586
 2236WAT     H1 6919   3.542   1.409   0.542
 2236WAT     H2 6920   3.611   1.542   0.516
 2237WAT      O 6921   2.895   0.344   1.802
 2237WAT     H1 6922   2.984   0.349   1.767
 2237WAT     H2 6923   2.844   0.301   1.733
 2238WAT      O 6924   1.075   4.247   3.128
 2238WAT     H1 6925   1.063   4.287   3.042
 2238WAT     H2 6926   1.095   4.320   3.186
 2239WAT      O 6927   1.494   2.739   1.908
 2239WAT     H1 6928   1.545   2.763   1.830
 2239WAT     H2 6929   1.431   2.674   1.877
 2240WAT      O 6930   4.144   4.282   3.948
 2240WAT     H1 6931   4.210   4.350   3.950
 2240WAT     H2 6932   4.164   4.226   4.024
 2241WAT      O 6933   0.822   0.440   0.479
 2241WAT     H1 6934   0.822   0.345   0.472
 2241WAT     H2 6935   0.739   0.467   0.441
 2242WAT      O 6936   3.981   1.593   3.340
 2242WAT     H1 6937   3.927   1.642   3.402
 2242WAT     H2 6938   3.923   1.525   3.307
 2243WAT      O 6939   2.819   2.383   2.134
 2243WAT     H1 6940   2.796   2.463   2.086
 2243WAT     H2 6941   2.736   2.337   2.144
 2244WAT      O 6942   3.293   3.119   3.712
 2244WAT     H1 6943   3.302   3.049   3.648
 2244WAT     H2 6944   3.206   3.154   3.697
 2245WAT      O 6945   2.051   3.459   4.835
 2245WAT     H1 6946   1.961   3.439   4.862
 2245WAT     H2 6947   2.058   3.554   4.843
 2246WAT      O 6948   0.846   4.116   4.741
 2246WAT     H1 6949   0.854   4.199   4.788
 2246WAT     H2 6950   0.910   4.124   4.669
 2247WAT      O 6951   3.541   1.236   3.260
 2247WAT     H1 6952   3.565   1.211   3.350
 2247WAT     H2 6953   3.492   1.160   3.227
 2248WAT      O 6954   1.827   3.287   2.108
 2248WAT     H1 6955   1.817   3.354   2.176
 2248WAT     H2 6956   1.890   3.225   2.146
 2249WAT      O 6957   4.122   4.910   2.685
 2249WAT     H1 6958   4.102   4.902   2.592
 2249WAT     H2 6959   4.050   4.961   2.721
 2250WAT      O 6960   2.667   4.543   2.322
 2250WAT     H1 6961   2.676   4.599   2.399
 2250WAT     H2 6962   2.575   4.548   2.299
 2251WAT      O 6963   3.905   2.853   4.512
 2251WAT     H1 6964   3.998   2.830   4.513
 2251WAT     H2 6965   3.860   2.771   4.533
 2252WAT      O 6966   4.242   2.382   0.597
 2252WAT     H1 6967   4.201   2.383   0.683
 2252WAT     H2 6968   4.169   2.371   0.536
 2253WAT      O 6969   0.226   3.788   2.566
 2253WAT     H1 6970   0.251   3.749   2.649
 2253WAT     H2 6971   0.158   3.731   2.531
 2254WAT      O 6972   3.644   4.942   3.527
 2254WAT     H1 6973   3.631   4.925   3.620
 2254WAT     H2 6974   3.719   4.888   3.503
 2255WAT      O 6975   0.290   1.698   0.689
 2255WAT     H1 6976   0.211   1.745   0.661
 2255WAT     H2 6977   0.347   1.698   0.612
 2256WAT      O 6978   4.206   2.948   2.434
 2256WAT     H1 6979   4.136   3.013   2.443
 2256WAT     H2 6980   4.245   2.944   2.522
 2257WAT      O 6981   3.839   2.355   1.511
 2257WAT     H1 6982   3.819   2.437   1.555
 2257WAT     H2 6983   3.935   2.350   1.512
 2258WAT      O 6984   3.137   0.365   2.965
 2258WAT     H1 6985   3.190   0.365   2.886
 2258WAT     H2 6986   3.159   0.447   3.009
 2259WAT      O 6987   1.531   2.376   1.523
 2259WAT     H1 6988   1.496   2.451   1.570
 2259WAT     H2 6989   1.462   2.353   1.460
 2260WAT      O 6990   0.278   1.632   2.889
 2260WAT     H1 6991   0.263   1.551   2.839
 2260WAT     H2 6992   0.280   1.701   2.823
 2261WAT      O 6993   3.742   0.813   0.729
 2261WAT     H1 6994   3.837   0.817   0.741
 2261WAT     H2 6995   3.730   0.761   0.650
 2262WAT      O 6996   1.014   2.391   3.330
 2262WAT     H1 6997   1.051   2.479   3.332
 2262WAT     H2 6998   1.080   2.336   3.373
 2263WAT      O 6999   0.439   0.350   2.611
 2263WAT     H1 7000   0.352   0.322   2.584
 2263WAT     H2 7001   0.498   0.308   2.548
 2264WAT      O 7002   2.166   3.339   4.619
 2264WAT     H1 7003   2.126   3.384   4.693
 2264WAT     H2 7004   2.160   3.403   4.547
 2265WAT      O 7005   3.264   0.927   5.229
 2265WAT     H1 7006   3.253   0.916   5.324
 2265WAT     H2 7007   3.222   0.849   5.192
 2266WAT      O 7008   2.135   4.982   3.984
 2266WAT     H1 7009   2.099   5.069   3.963
 2266WAT     H2 7010   2.112   4.927   3.910
 2267WAT      O 7011   2.787   3.021   1.029
 2267WAT     H1 7012   2.715   3.034   0.967
 2267WAT     H2 7013   2.863   3.057   0.985
 2268WAT      O 7014   1.645   4.399   1.575
 2268WAT     H1 7015   1.608   4.318   1.541
 2268WAT     H2 7016   1.571   4.459   1.581
 2269WAT      O 7017   0.208   2.889   4.792
 2269WAT     H1 7018   0.239   2.977   4.813
 2269WAT     H2 7019   0.119   2.902   4.761
 2270WAT      O 7020   0.504   1.332   3.026
 2270WAT     H1 7021   0.580   1.302   3.075
 2270WAT     H2 7022   0.441   1.260   3.033
 2271WAT      O 7023   4.048   3.436   1.820
 2271WAT     H1 7024   3.952   3.439   1.825
 2271WAT     H2 7025   4.068   3.359   1.768
 2272WAT      O 7026   0.866   4.074   4.180
 2272WAT     H1 7027   0.922   4.025   4.241
 2272WAT     H2 7028   0.850   4.012   4.109
 2273WAT      O 7029   2.603   0.692   3.303
 2273WAT     H1 7030   2.547   0.700   3.225
 2273WAT     H2 7031   2.577   0.765   3.359
 2274WAT      O 7032   3.624   3.614   0.080
 2274WAT     H1 7033   3.686   3.548   0.048
 2274WAT     H2 7034   3.538   3.579   0.054
 2275WAT      O 7035   0.971   0.878   0.223
 2275WAT     H1 7036   0.945   0.970   0.223
 2275WAT     H2 7037   0.892   0.831   0.251
 2276WAT      O 7038   3.444   3.610   3.191
 2276WAT     H1 7039   3.502   3.613   3.115
 2276WAT     H2 7040   3.357   3.594   3.155
 2277WAT      O 7041   0.078   4.177   1.078
 2277WAT     H1 7042   0.041   4.119   1.144
 2277WAT     H2 7043   0.142   4.122   1.031
 2278WAT      O 7044   0.287   4.940   0.942
 2278WAT     H1 7045   0.243   4.991   1.010
 2278WAT     H2 7046   0.237   4.859   0.935
 2279WAT      O 7047   3.428   2.406   4.321
 2279WAT     H1 7048   3.458   2.323   4.282
 2279WAT     H2 7049   3.338   2.415   4.293
 2280WAT      O 7050   3.913   3.518   0.886
 2280WAT     H1 7051   3.973   3.554   0.821
 2280WAT     H2 7052   3.827   3.520   0.844
 2281WAT      O 7053   1.721   0.008   0.657
 2281WAT     H1 7054   1.676  -0.020   0.737
 2281WAT     H2 7055   1.674  -0.037   0.587
 2282WAT      O 7056   0.677   0.565   2.454
 2282WAT     H1 7057   0.600   0.595   2.406
 2282WAT     H2 7058   0.703   0.640   2.507
 2283WAT      O 7059   0.393   4.857   2.641
 2283WAT     H1 7060   0.446   4.883   2.566
 2283WAT     H2 7061   0.457   4.836   2.709
 2284WAT      O 7062   2.998   0.478   4.623
 2284WAT     H1 7063   3.081   0.433   4.640
 2284WAT     H2 7064   3.023   0.570   4.611
 2285WAT      O 7065   4.478   2.405   0.139
 2285WAT     H1 7066   4.474   2.495   0.171
 2285WAT     H2 7067   4.550   2.365   0.187
 2286WAT      O 7068   4.239   3.711   4.122
 2286WAT     H1 7069   4.304   3.768   4.081
 2286WAT     H2 7070   4.157   3.758   4.114
 2287WAT      O 7071   3.699   1.893   1.900
 2287WAT     H1 7072   3.778   1.864   1.853
 2287WAT     H2 7073   3.729   1.907   1.990
 2288WAT      O 7074   1.597   0.222   4.493
 2288WAT     H1 7075   1.658   0.152   4.469
 2288WAT     H2 7076   1.512   0.193   4.460
 2289WAT      O 7077   2.837   4.073   4.715
 2289WAT     H1 7078   2.839   4.151   4.659
 2289WAT     H2 7079   2.927   4.065   4.747
 2290WAT      O 7080   4.049   1.943   3.347
 2290WAT     H1 7081   4.026   2.011   3.285
 2290WAT     H2 7082   4.081   1.871   3.293
 2291WAT      O 7083   4.297   2.860   2.169
 2291WAT     H1 7084   4.253   2.884   2.250
 2291WAT     H2 7085   4.380   2.821   2.197
 2292WAT      O 7086   0.763   2.318   4.538
 2292WAT     H1 7087   0.742   2.279   4.623
 2292WAT     H2 7088   0.806   2.247   4.489
 2293WAT      O 7089   2.714   0.589   0.016
 2293WAT     H1 7090   2.651   0.627  -0.045
 2293WAT     H2 7091   2.799   0.618  -0.016
 2294WAT      O 7092   2.418   4.582   2.155
 2294WAT     H1 7093   2.425   4.523   2.079
 2294WAT     H2 7094   2.326   4.576   2.181
 2295WAT      O 7095   1.402   4.052   1.234
 2295WAT     H1 7096   1.414   4.037   1.140
 2295WAT     H2 7097   1.312   4.085   1.241
 2296WAT      O 7098   0.906   0.361   0.738
 2296WAT     H1 7099   0.942   0.273   0.725
 2296WAT     H2 7100   0.900   0.397   0.650
 2297WAT      O 7101   2.540   2.965   4.793
 2297WAT     H1 7102   2.482   2.999   4.861
 2297WAT     H2 7103   2.625   2.957   4.836
 2298WAT      O 7104   3.460   1.208   0.972
 2298WAT     H1 7105   3.481   1.302   0.965
 2298WAT     H2 7106   3.503   1.168   0.897
 2299WAT      O 7107   1.608   0.266   4.775
 2299WAT     H1 7108   1.610   0.274   4.680
 2299WAT     H2 7109   1.673   0.198   4.795
 2300WAT      O 7110   2.371   1.495   4.073
 2300WAT     H1 7111   2.448   1.469   4.125
 2300WAT     H2 7112   2.376   1.442   3.994
 2301WAT      O 7113   0.016   1.446   3.595
 2301WAT     H1 7114  -0.074   1.417   3.607
 2301WAT     H2 7115   0.014   1.540   3.612
 2302WAT      O 7116   2.901   3.525   2.122
 2302WAT     H1 7117   2.976   3.554   2.070
 2302WAT     H2 7118   2.842   3.600   2.121
 2303WAT      O 7119   3.093   1.233   1.569
 2303WAT     H1 7120   3.076   1.160   1.509
 2303WAT     H2 7121   3.077   1.311   1.516
 2304WAT      O 7122   4.035   1.704   0.052
 2304WAT     H1 7123   3.966   1.669  -0.005
 2304WAT     H2 7124   3.992   1.717   0.137
 2305WAT      O 7125   2.451   1.100   3.266
 2305WAT     H1 7126   2.525   1.096   3.206
 2305WAT     H2 7127   2.417   1.010   3.267
 2306WAT      O 7128   2.760   1.761   2.527
 2306WAT     H1 7129   2.789   1.746   2.437
 2306WAT     H2 7130   2.672   1.724   2.530
 2307WAT      O 7131   1.812   0.108   2.934
 2307WAT     H1 7132   1.854   0.191   2.955
 2307WAT     H2 7133   1.869   0.042   2.974
 2308WAT      O 7134   3.012   2.642   3.916
 2308WAT     H1 7135   3.029   2.655   4.009
 2308WAT     H2 7136   2.957   2.564   3.912
 2309WAT      O 7137   3.620   2.119   1.172
 2309WAT     H1 7138   3.642   2.127   1.265
 2309WAT     H2 7139   3.657   2.197   1.132
 2310WAT      O 7140   2.769   1.255   3.942
 2310WAT     H1 7141   2.857   1.291   3.957
 2310WAT     H2 7142   2.784   1.162   3.924
 2311WAT      O 7143   0.257   4.815   4.978
 2311WAT     H1 7144   0.254   4.903   5.016
 2311WAT     H2 7145   0.256   4.756   5.054
 2312WAT      O 7146   1.129   5.071   4.645
 2312WAT     H1 7147   1.188   5.142   4.671
 2312WAT     H2 7148   1.115   5.084   4.552
 2313WAT      O 7149   4.407   3.338   1.516
 2313WAT     H1 7150   4.386   3.245   1.523
 2313WAT     H2 7151   4.486   3.349   1.569
 2314WAT      O 7152   2.565   4.502   5.175
 2314WAT     H1 7153   2.493   4.552   5.136
 2314WAT     H2 7154   2.606   4.457   5.100
 2315WAT      O 7155   1.720   3.926   1.488
 2315WAT     H1 7156   1.639   3.976   1.495
 2315WAT     H2 7157   1.759   3.930   1.575
 2316WAT      O 7158   1.201   3.998   3.440
 2316WAT     H1 7159   1.261   3.974   3.369
 2316WAT     H2 7160   1.245   4.069   3.486
 2317WAT      O 7161   2.118   1.595   2.217
 2317WAT     H1 7162   2.172   1.670   2.190
 2317WAT     H2 7163   2.158   1.564   2.298
 2318WAT      O 7164   3.710   5.013   2.093
 2318WAT     H1 7165   3.654   5.067   2.036
 2318WAT     H2 7166   3.658   5.001   2.173
 2319WAT      O 7167   2.653   3.928   2.327
 2319WAT     H1 7168   2.674   3.958   2.238
 2319WAT     H2 7169   2.635   4.008   2.376
 2320WAT      O 7170   3.807   3.862   3.638
 2320WAT     H1 7171   3.744   3.810   3.687
 2320WAT     H2 7172   3.760   3.942   3.616
 2321WAT      O 7173   3.321   0.013   3.308
 2321WAT     H1 7174   3.235   0.027   3.348
 2321WAT     H2 7175   3.384   0.028   3.379
 2322WAT      O 7176   0.707   4.717   2.082
 2322WAT     H1 7177   0.788   4.688   2.125
 2322WAT     H2 7178   0.658   4.636   2.067
 2323WAT      O 7179   2.623   3.141   1.485
 2323WAT     H1 7180   2.613   3.217   1.541
 2323WAT     H2 7181   2.572   3.163   1.406
 2324WAT      O 7182   3.662   4.595   0.097
 2324WAT     H1 7183   3.670   4.505   0.065
 2324WAT     H2 7184   3.644   4.586   0.190
 2325WAT      O 7185   2.300   2.837   0.178
 2325WAT     H1 7186   2.212   2.837   0.215
 2325WAT     H2 7187   2.316   2.746   0.153
 2326WAT      O 7188   0.344   1.208   1.401
 2326WAT     H1 7189   0.305   1.152   1.334
 2326WAT     H2 7190   0.338   1.296   1.363
 2327WAT      O 7191   1.743   0.707   1.520
 2327WAT     H1 7192   1.824   0.657   1.511
 2327WAT     H2 7193   1.742   0.735   1.612
 2328WAT      O 7194   3.827   1.928   4.849
 2328WAT     H1 7195   3.858   1.948   4.760
 2328WAT     H2 7196   3.873   1.990   4.905
 2329WAT      O 7197   0.465   3.417   2.449
 2329WAT     H1 7198   0.377   3.455   2.450
 2329WAT     H2 7199   0.511   3.461   2.520
 2330WAT      O 7200   1.573   0.195   3.478
 2330WAT     H1 7201   1.540   0.255   3.412
 2330WAT     H2 7202   1.642   0.243   3.523
 2331WAT      O 7203   1.015   4.093   4.530
 2331WAT     H1 7204   1.091   4.150   4.514
 2331WAT     H2 7205   1.016   4.031   4.457
 2332WAT      O 7206   3.310   0.106   4.959
 2332WAT     H1 7207   3.341   0.192   4.930
 2332WAT     H2 7208   3.252   0.077   4.890
 2333WAT      O 7209   4.323   2.321   1.658
 2333WAT     H1 7210   4.351   2.250   1.717
 2333WAT     H2 7211   4.347   2.291   1.571
 2334WAT      O 7212   1.747   1.114   3.952
 2334WAT     H1 7213   1.829   1.134   3.996
 2334WAT     H2 7214   1.681   1.168   3.996
 2335WAT      O 7215   3.274   3.921   0.452
 2335WAT     H1 7216   3.297   3.994   0.510
 2335WAT     H2 7217   3.326   3.936   0.373
 2336WAT      O 7218   1.646   4.233   3.234
 2336WAT     H1 7219   1.597   4.152   3.221
 2336WAT     H2 7220   1.614   4.268   3.317
 2337WAT      O 7221   4.142   2.194   0.146
 2337WAT     H1 7222   4.113   2.118   0.095
 2337WAT     H2 7223   4.104   2.181   0.233
 2338WAT      O 7224   3.212   1.925   1.916
 2338WAT     H1 7225   3.250   2.012   1.923
 2338WAT     H2 7226   3.274   1.867   1.959
 2339WAT      O 7227   3.732   1.816   0.574
 2339WAT     H1 7228   3.787   1.878   0.622
 2339WAT     H2 7229   3.702   1.865   0.497
 2340WAT      O 7230   2.528   3.348   0.939
 2340WAT     H1 7231   2.515   3.439   0.968
 2340WAT     H2 7232   2.566   3.305   1.016
 2341WAT      O 7233   3.535   1.164   4.731
 2341WAT     H1 7234   3.482   1.225   4.782
 2341WAT     H2 7235   3.624   1.199   4.737
 2342WAT      O 7236   0.396   2.092   0.874
 2342WAT     H1 7237   0.435   2.176   0.896
 2342WAT     H2 7238   0.465   2.028   0.891
 2343WAT      O 7239   2.521   0.218   1.447
 2343WAT     H1 7240   2.441   0.171   1.468
 2343WAT     H2 7241   2.495   0.310   1.443
 2344WAT      O 7242   1.915   1.747   0.251
 2344WAT     H1 7243   2.002   1.754   0.212
 2344WAT     H2 7244   1.856   1.736   0.176
 2345WAT      O 7245   3.626   2.696   2.175
 2345WAT     H1 7246   3.646   2.607   2.147
 2345WAT     H2 7247   3.598   2.687   2.266
 2346WAT      O 7248   2.459   3.222   0.112
 2346WAT     H1 7249   2.429   3.305   0.073
 2346WAT     H2 7250   2.444   3.158   0.043
 2347WAT      O 7251   4.429   5.017   5.160
 2347WAT     H1 7252   4.434   4.932   5.203
 2347WAT     H2 7253   4.483   5.007   5.081
 2348WAT      O 7254   3.815   4.522   3.264
 2348WAT     H1 7255   3.727   4.502   3.296
 2348WAT     H2 7256   3.860   4.437   3.264
 2349WAT      O 7257   2.344   1.045   1.123
 2349WAT     H1 7258   2.254   1.022   1.145
 2349WAT     H2 7259   2.354   1.017   1.032
 2350WAT      O 7260   0.049   4.059   2.198
 2350WAT     H1 7261   0.023   4.148   2.222
 2350WAT     H2 7262   0.011   4.004   2.267
 2351WAT      O 7263   3.026   1.630   1.469
 2351WAT     H1 7264   3.030   1.607   1.562
 2351WAT     H2 7265   3.037   1.725   1.468
 2352WAT      O 7266   1.246   3.513   2.289
 2352WAT     H1 7267   1.202   3.558   2.361
 2352WAT     H2 7268   1.331   3.488   2.326
 2353WAT      O 7269   0.811   1.381   0.123
 2353WAT     H1 7270   0.838   1.442   0.191
 2353WAT     H2 7271   0.758   1.434   0.064
 2354WAT      O 7272   2.203   1.039   2.139
 2354WAT     H1 7273   2.199   0.946   2.161
 2354WAT     H2 7274   2.139   1.050   2.069
 2355WAT      O 7275   1.754   4.154   1.196
 2355WAT     H1 7276   1.733   4.246   1.176
 2355WAT     H2 7277   1.686   4.127   1.256
 2356WAT      O 7278   2.132   1.116   3.227
 2356WAT     H1 7279   2.081   1.109   3.307
 2356WAT     H2 7280   2.220   1.089   3.253
 2357WAT      O 7281   2.267   4.956   3.000
 2357WAT     H1 7282   2.324   4.903   2.945
 2357WAT     H2 7283   2.326   5.002   3.059
 2358WAT      O 7284   0.571   3.316   3.550
 2358WAT     H1 7285   0.593   3.405   3.576
 2358WAT     H2 7286   0.590   3.312   3.457
 2359WAT      O 7287   3.853   3.999   4.102
 2359WAT     H1 7288   3.777   3.953   4.138
 2359WAT     H2 7289   3.901   3.933   4.053
 2360WAT      O 7290   1.126   4.086   5.128
 2360WAT     H1 7291   1.154   4.162   5.177
 2360WAT     H2 7292   1.161   4.099   5.040
 2361WAT      O 7293   0.949   4.901   3.446
 2361WAT     H1 7294   1.002   4.884   3.524
 2361WAT     H2 7295   0.914   4.815   3.421
 2362WAT      O 7296   0.155   0.799   1.167
 2362WAT     H1 7297   0.108   0.831   1.090
 2362WAT     H2 7298   0.135   0.705   1.168
 2363WAT      O 7299   0.719   4.027   3.354
 2363WAT     H1 7300   0.808   4.020   3.387
 2363WAT     H2 7301   0.677   4.093   3.411
 2364WAT      O 7302   4.349   3.205   1.905
 2364WAT     H1 7303   4.366   3.156   1.824
 2364WAT     H2 7304   4.257   3.186   1.925
 2365WAT      O 7305   2.092   2.385   0.004
 2365WAT     H1 7306   2.042   2.304   0.012
 2365WAT     H2 7307   2.171   2.360  -0.045
 2366WAT      O 7308   3.400   2.156   3.285
 2366WAT     H1 7309   3.305   2.154   3.294
 2366WAT     H2 7310   3.421   2.079   3.233
 2367WAT      O 7311   1.677   0.783   1.142
 2367WAT     H1 7312   1.619   0.826   1.078
 2367WAT     H2 7313   1.667   0.836   1.221
 2368WAT      O 7314   0.052   1.901   1.807
 2368WAT     H1 7315   0.092   1.965   1.748
 2368WAT     H2 7316  -0.018   1.861   1.755
 2369WAT      O 7317   1.304   4.133   2.874
 2369WAT     H1 7318   1.293   4.225   2.896
 2369WAT     H2 7319   1.252   4.121   2.794
 2370WAT      O 7320   2.215   0.781   2.077
 2370WAT     H1 7321   2.218   0.766   1.983
 2370WAT     H2 7322   2.305   0.804   2.100
 2371WAT      O 7323   2.714   2.642   4.684
 2371WAT     H1 7324   2.673   2.593   4.613
 2371WAT     H2 7325   2.808   2.639   4.664
 2372WAT      O 7326   0.787   1.014   3.045
 2372WAT     H1 7327   0.810   0.983   2.957
 2372WAT     H2 7328   0.691   1.015   3.046
 2373WAT      O 7329   4.237   0.914   5.028
 2373WAT     H1 7330   4.201   1.002   5.033
 2373WAT     H2 7331   4.267   0.905   4.938
 2374WAT      O 7332   2.515   2.081   0.777
 2374WAT     H1 7333   2.540   2.132   0.701
 2374WAT     H2 7334   2.599   2.057   0.818
 2375WAT      O 7335   1.503   0.766   4.391
 2375WAT     H1 7336   1.482   0.834   4.455
 2375WAT     H2 7337   1.571   0.714   4.433
 2376WAT      O 7338   3.378   0.896   3.541
 2376WAT     H1 7339   3.288   0.869   3.521
 2376WAT     H2 7340   3.427   0.813   3.545
 2377WAT      O 7341   0.512   0.907   0.072
 2377WAT     H1 7342   0.514   0.976   0.138
 2377WAT     H2 7343   0.493   0.827   0.121
 2378WAT      O 7344   2.674   4.761   0.070
 2378WAT     H1 7345   2.584   4.733   0.052
 2378WAT     H2 7346   2.667   4.816   0.148
 2379WAT      O 7347   4.269   4.965   4.502
 2379WAT     H1 7348   4.221   4.965   4.585
 2379WAT     H2 7349   4.251   4.878   4.464
 2380WAT      O 7350   3.021   1.032   2.586
 2380WAT     H1 7351   2.964   0.960   2.558
 2380WAT     H2 7352   3.101   1.020   2.535
 2381WAT      O 7353   1.467   0.608   1.542
 2381WAT     H1 7354   1.426   0.548   1.479
 2381WAT     H2 7355   1.560   0.606   1.520
 2382WAT      O 7356   2.654   4.789   4.714
 2382WAT     H1 7357   2.564   4.758   4.702
 2382WAT     H2 7358   2.666   4.853   4.644
 2383WAT      O 7359   3.816   4.258   4.066
 2383WAT     H1 7360   3.822   4.280   3.973
 2383WAT     H2 7361   3.838   4.165   4.070
 2384WAT      O 7362   2.104   4.743   4.819
 2384WAT     H1 7363   2.066   4.757   4.906
 2384WAT     H2 7364   2.171   4.811   4.811
 2385WAT      O 7365   0.687   4.520   4.666
 2385WAT     H1 7366   0.622   4.583   4.635
 2385WAT     H2 7367   0.706   4.547   4.756
 2386WAT      O 7368   1.946   4.079   1.391
 2386WAT     H1 7369   1.985   4.148   1.337
 2386WAT     H2 7370   1.857   4.070   1.357
 2387WAT      O 7371   2.981   3.557   0.946
 2387WAT     H1 7372   3.037   3.523   0.876
 2387WAT     H2 7373   2.936   3.480   0.980
 2388WAT      O 7374   1.762   3.269   0.985
 2388WAT     H1 7375   1.675   3.244   0.955
 2388WAT     H2 7376   1.806   3.301   0.906
 2389WAT      O 7377   1.432   3.213   0.206
 2389WAT     H1 7378   1.477   3.256   0.278
 2389WAT     H2 7379   1.343   3.199   0.238
 2390WAT      O 7380   1.425   3.758   1.009
 2390WAT     H1 7381   1.462   3.777   1.095
 2390WAT     H2 7382   1.440   3.664   0.997
 2391WAT      O 7383   1.340   1.770   5.208
 2391WAT     H1 7384   1.250   1.774   5.240
 2391WAT     H2 7385   1.360   1.860   5.182
 2392WAT      O 7386   3.165   4.600   2.422
 2392WAT     H1 7387   3.200   4.588   2.333
 2392WAT     H2 7388   3.109   4.677   2.415
 2393WAT      O 7389   3.191   2.950   2.117
 2393WAT     H1 7390   3.192   2.891   2.042
 2393WAT     H2 7391   3.246   2.907   2.182
 2394WAT      O 7392   3.192   3.316   1.691
 2394WAT     H1 7393   3.108   3.279   1.664
 2394WAT     H2 7394   3.177   3.344   1.782
 2395WAT      O 7395   0.885   3.371   3.187
 2395WAT     H1 7396   0.922   3.295   3.141
 2395WAT     H2 7397   0.900   3.352   3.280
 2396WAT      O 7398   1.130   5.070   4.317
 2396WAT     H1 7399   1.099   5.150   4.273
 2396WAT     H2 7400   1.108   5.000   4.256
 2397WAT      O 7401   0.984   2.093   5.230
 2397WAT     H1 7402   1.029   2.027   5.282
 2397WAT     H2 7403   1.032   2.174   5.248
 2398WAT      O 7404   0.607   4.618   5.162
 2398WAT     H1 7405   0.641   4.607   5.251
 2398WAT     H2 7406   0.571   4.707   5.160
 2399WAT      O 7407   1.732   0.264   0.074
 2399WAT     H1 7408   1.788   0.228   0.143
 2399WAT     H2 7409   1.759   0.355   0.066
 2400WAT      O 7410   2.882   2.896   4.281
 2400WAT     H1 7411   2.803   2.933   4.242
 2400WAT     H2 7412   2.892   2.945   4.363
 2401WAT      O 7413   4.259   3.033   5.206
 2401WAT     H1 7414   4.211   3.002   5.283
 2401WAT     H2 7415   4.217   2.988   5.132
 2402WAT      O 7416   1.427   5.045   4.247
 2402WAT     H1 7417   1.398   4.993   4.172
 2402WAT     H2 7418   1.347   5.075   4.289
 2403WAT      O 7419   0.289   0.453   1.114
 2403WAT     H1 7420   0.322   0.416   1.195
 2403WAT     H2 7421   0.361   0.508   1.082
 2404WAT      O 7422   4.161   4.164   0.757
 2404WAT     H1 7423   4.151   4.114   0.838
 2404WAT     H2 7424   4.247   4.204   0.763
 2405WAT      O 7425   1.818   4.020   2.935
 2405WAT     H1 7426   1.898   3.998   2.984
 2405WAT     H2 7427   1.791   4.104   2.970
 2406WAT      O 7428   2.658   1.668   0.596
 2406WAT     H1 7429   2.612   1.687   0.678
 2406WAT     H2 7430   2.590   1.670   0.530
 2407WAT      O 7431   3.134   2.677   0.127
 2407WAT     H1 7432   3.045   2.695   0.155
 2407WAT     H2 7433   3.143   2.582   0.136
 2408WAT      O 7434   3.239   2.127   0.241
 2408WAT     H1 7435   3.244   2.034   0.219
 2408WAT     H2 7436   3.154   2.137   0.286
 2409WAT      O 7437   2.552   3.979   4.970
 2409WAT     H1 7438   2.457   3.990   4.977
 2409WAT     H2 7439   2.570   3.897   5.016
 2410WAT      O 7440   3.176   0.703   4.827
 2410WAT     H1 7441   3.206   0.769   4.765
 2410WAT     H2 7442   3.117   0.647   4.777
 2411WAT      O 7443   0.316   1.438   4.776
 2411WAT     H1 7444   0.267   1.499   4.721
 2411WAT     H2 7445   0.292   1.462   4.866
 2412WAT      O 7446   0.360   0.806   3.825
 2412WAT     H1 7447   0.359   0.715   3.854
 2412WAT     H2 7448   0.284   0.814   3.767
 2413WAT      O 7449   3.086   3.569   2.851
 2413WAT     H1 7450   3.052   3.638   2.793
 2413WAT     H2 7451   3.038   3.490   2.824
 2414WAT      O 7452   0.676   1.328   2.765
 2414WAT     H1 7453   0.645   1.405   2.813
 2414WAT     H2 7454   0.772   1.331   2.776
 2415WAT      O 7455   3.010   1.693   2.884
 2415WAT     H1 7456   3.030   1.757   2.952
 2415WAT     H2 7457   2.997   1.611   2.931
 2416WAT      O 7458   4.073   1.951   4.095
 2416WAT     H1 7459   4.110   2.039   4.088
 2416WAT     H2 7460   4.150   1.895   4.107
 2417WAT      O 7461   0.849   4.810   3.835
 2417WAT     H1 7462   0.813   4.816   3.923
 2417WAT     H2 7463   0.874   4.900   3.814
 2418WAT      O 7464   0.719   1.273   3.169
 2418WAT     H1 7465   0.745   1.182   3.157
 2418WAT     H2 7466   0.780   1.323   3.114
 2419WAT      O 7467   2.355   2.341   1.175
 2419WAT     H1 7468   2.334   2.412   1.235
 2419WAT     H2 7469   2.372   2.384   1.091
 2420WAT      O 7470   3.310   4.953   3.843
 2420WAT     H1 7471   3.298   4.969   3.749
 2420WAT     H2 7472   3.243   5.009   3.885
 2421WAT      O 7473   2.493   1.286   4.693
 2421WAT     H1 7474   2.437   1.269   4.768
 2421WAT     H2 7475   2.435   1.280   4.617
 2422WAT      O 7476   0.866   1.572   1.172
 2422WAT     H1 7477   0.849   1.541   1.083
 2422WAT     H2 7478   0.865   1.667   1.165
 2423WAT      O 7479   3.386   2.571   4.005
 2423WAT     H1 7480   3.363   2.553   4.096
 2423WAT     H2 7481   3.331   2.512   3.954
 2424WAT      O 7482   4.126   2.874   5.007
 2424WAT     H1 7483   4.049   2.818   5.016
 2424WAT     H2 7484   4.187   2.824   4.953
 2425WAT      O 7485   0.889   3.262   3.520
 2425WAT     H1 7486   0.944   3.340   3.512
 2425WAT     H2 7487   0.932   3.210   3.588
 2426WAT      O 7488   0.385   4.493   5.104
 2426WAT     H1 7489   0.463   4.548   5.109
 2426WAT     H2 7490   0.410   4.412   5.149
 2427WAT      O 7491   3.599   1.040   4.028
 2427WAT     H1 7492   3.567   0.978   3.963
 2427WAT     H2 7493   3.689   1.012   4.045
 2428WAT      O 7494   3.773   2.900   1.412
 2428WAT     H1 7495   3.727   2.921   1.493
 2428WAT     H2 7496   3.796   2.985   1.374
 2429WAT      O 7497   1.643   3.113   0.700
 2429WAT     H1 7498   1.731   3.093   0.733
 2429WAT     H2 7499   1.655   3.123   0.605
 2430WAT      O 7500   0.645   3.035   0.093
 2430WAT     H1 7501   0.618   2.945   0.112
 2430WAT     H2 7502   0.564   3.081   0.072
 2431WAT      O 7503   1.516   0.462   2.342
 2431WAT     H1 7504   1.500   0.515   2.264
 2431WAT     H2 7505   1.518   0.372   2.309
 2432WAT      O 7506   1.999   3.135   3.882
 2432WAT     H1 7507   2.032   3.223   3.866
 2432WAT     H2 7508   2.036   3.082   3.811
 2433WAT      O 7509   0.046   0.806   0.547
 2433WAT     H1 7510   0.097   0.805   0.466
 2433WAT     H2 7511  -0.040   0.774   0.522
 2434WAT      O 7512   2.819   1.470   0.417
 2434WAT     H1 7513   2.807   1.502   0.507
 2434WAT     H2 7514   2.909   1.494   0.395
 2435WAT      O 7515   1.100   2.270   0.380
 2435WAT     H1 7516   1.125   2.314   0.298
 2435WAT     H2 7517   1.004   2.272   0.380
 2436WAT      O 7518   2.006   4.790   5.067
 2436WAT     H1 7519   1.961   4.713   5.099
 2436WAT     H2 7520   2.044   4.831   5.145
 2437WAT      O 7521   4.175   5.066   3.838
 2437WAT     H1 7522   4.250   5.126   3.835
 2437WAT     H2 7523   4.178   5.020   3.754
 2438WAT      O 7524   4.366   4.132   3.159
 2438WAT     H1 7525   4.389   4.040   3.174
 2438WAT     H2 7526   4.424   4.160   3.088
 2439WAT      O 7527   0.891   1.566   1.483
 2439WAT     H1 7528   0.795   1.560   1.479
 2439WAT     H2 7529   0.920   1.525   1.401
 2440WAT      O 7530   3.441   1.333   3.839
 2440WAT     H1 7531   3.489   1.323   3.921
 2440WAT     H2 7532   3.355   1.365   3.866
 2441WAT      O 7533   2.233   4.523   5.018
 2441WAT     H1 7534   2.196   4.469   5.088
 2441WAT     H2 7535   2.220   4.613   5.047
 2442WAT      O 7536   0.080   4.522   0.670
 2442WAT     H1 7537   0.015   4.557   0.731
 2442WAT     H2 7538   0.076   4.581   0.595
 2443WAT      O 7539   0.807   4.813   0.681
 2443WAT     H1 7540   0.797   4.829   0.775
 2443WAT     H2 7541   0.779   4.723   0.668
 2444WAT      O 7542   2.925   3.838   1.554
 2444WAT     H1 7543   2.896   3.929   1.554
 2444WAT     H2 7544   2.867   3.795   1.491
 2445WAT      O 7545   2.942   0.999   1.715
 2445WAT     H1 7546   3.035   0.992   1.696
 2445WAT     H2 7547   2.913   0.909   1.729
 2446WAT      O 7548   0.380   1.415   3.989
 2446WAT     H1 7549   0.380   1.320   4.003
 2446WAT     H2 7550   0.340   1.425   3.903
 2447WAT      O 7551   2.067   1.761   5.032
 2447WAT     H1 7552   1.986   1.812   5.028
 2447WAT     H2 7553   2.052   1.686   4.974
 2448WAT      O 7554   3.191   3.605   3.099
 2448WAT     H1 7555   3.161   3.601   3.008
 2448WAT     H2 7556   3.115   3.638   3.147
 2449WAT      O 7557   1.248   4.819   1.153
 2449WAT     H1 7558   1.161   4.783   1.167
 2449WAT     H2 7559   1.243   4.908   1.190
 2450WAT      O 7560   3.658   0.739   2.303
 2450WAT     H1 7561   3.734   0.693   2.267
 2450WAT     H2 7562   3.632   0.687   2.379
 2451WAT      O 7563   1.831   3.407   2.341
 2451WAT     H1 7564   1.821   3.501   2.357
 2451WAT     H2 7565   1.910   3.383   2.389
 2452WAT      O 7566   3.472   4.784   1.719
 2452WAT     H1 7567   3.487   4.876   1.698
 2452WAT     H2 7568   3.543   4.737   1.675
 2453WAT      O 7569   3.903   1.774   2.636
 2453WAT     H1 7570   3.808   1.768   2.630
 2453WAT     H2 7571   3.921   1.868   2.644
 2454WAT      O 7572   2.628   0.633   0.925
 2454WAT     H1 7573   2.552   0.636   0.866
 2454WAT     H2 7574   2.687   0.699   0.891
 2455WAT      O 7575   3.705   0.152   3.605
 2455WAT     H1 7576   3.689   0.177   3.697
 2455WAT     H2 7577   3.785   0.099   3.609
 2456WAT      O 7578   3.225   4.992   2.252
 2456WAT     H1 7579   3.189   5.037   2.328
 2456WAT     H2 7580   3.150   4.945   2.215
 2457WAT      O 7581   0.487   1.117   0.263
 2457WAT     H1 7582   0.578   1.136   0.286
 2457WAT     H2 7583   0.451   1.073   0.340
 2458WAT      O 7584   1.288   2.177   3.758
 2458WAT     H1 7585   1.327   2.147   3.677
 2458WAT     H2 7586   1.352   2.238   3.795
 2459WAT      O 7587   0.841   4.311   4.297
 2459WAT     H1 7588   0.860   4.233   4.244
 2459WAT     H2 7589   0.762   4.288   4.346
 2460WAT      O 7590   1.444   1.088   0.300
 2460WAT     H1 7591   1.377   1.042   0.350
 2460WAT     H2 7592   1.403   1.105   0.215
 2461WAT      O 7593   0.832   2.871   3.565
 2461WAT     H1 7594   0.780   2.920   3.628
 2461WAT     H2 7595   0.811   2.910   3.480
 2462WAT      O 7596   3.578   0.993   1.821
 2462WAT     H1 7597   3.623   1.071   1.790
 2462WAT     H2 7598   3.642   0.949   1.877
 2463WAT      O 7599   3.174   3.325   2.067
 2463WAT     H1 7600   3.222   3.391   2.116
 2463WAT     H2 7601   3.242   3.274   2.021
 2464WAT      O 7602   2.857   2.376   0.125
 2464WAT     H1 7603   2.913   2.396   0.050
 2464WAT     H2 7604   2.894   2.429   0.197
 2465WAT      O 7605   1.167   3.469   4.885
 2465WAT     H1 7606   1.248   3.491   4.930
 2465WAT     H2 7607   1.106   3.540   4.908
 2466WAT      O 7608   1.476   4.424   4.500
 2466WAT     H1 7609   1.499   4.503   4.451
 2466WAT     H2 7610   1.469   4.453   4.591
 2467WAT      O 7611   3.009   2.268   4.157
 2467WAT     H1 7612   2.933   2.303   4.203
 2467WAT     H2 7613   3.003   2.173   4.170
 2468WAT      O 7614   0.053   4.668   4.487
 2468WAT     H1 7615   0.022   4.644   4.400
 2468WAT     H2 7616   0.126   4.609   4.504
 2469WAT      O 7617   2.818   1.983   1.611
 2469WAT     H1 7618   2.834   1.907   1.667
 2469WAT     H2 7619   2.825   2.058   1.670
 2470WAT      O 7620   2.692   4.479   0.609
 2470WAT     H1 7621   2.602   4.463   0.639
 2470WAT     H2 7622   2.735   4.394   0.618
 2471WAT      O 7623   4.109   4.099   4.185
 2471WAT     H1 7624   4.107   4.113   4.279
 2471WAT     H2 7625   4.017   4.084   4.161
 2472WAT      O 7626   3.954   2.673   4.952
 2472WAT     H1 7627   3.862   2.647   4.950
 2472WAT     H2 7628   4.000   2.596   4.984
 2473WAT      O 7629   1.656   2.508   0.086
 2473WAT     H1 7630   1.613   2.584   0.048
 2473WAT     H2 7631   1.607   2.491   0.167
 2474WAT      O 7632   2.489   0.452   0.424
 2474WAT     H1 7633   2.424   0.459   0.354
 2474WAT     H2 7634   2.446   0.399   0.491
 2475WAT      O 7635   3.842   0.506   3.258
 2475WAT     H1 7636   3.886   0.434   3.213
 2475WAT     H2 7637   3.884   0.585   3.225
 2476WAT      O 7638   1.346   4.145   2.513
 2476WAT     H1 7639   1.425   4.145   2.459
 2476WAT     H2 7640   1.313   4.056   2.507
 2477WAT      O 7641   0.898   1.916   4.174
 2477WAT     H1 7642   0.886   1.884   4.085
 2477WAT     H2 7643   0.838   1.864   4.227
 2478WAT      O 7644   2.604   4.369   3.168
 2478WAT     H1 7645   2.700   4.360   3.172
 2478WAT     H2 7646   2.589   4.443   3.109
 2479WAT      O 7647   1.102   0.654   1.036
 2479WAT     H1 7648   1.084   0.581   1.095
 2479WAT     H2 7649   1.181   0.695   1.070
 2480WAT      O 7650   2.822   1.775   4.787
 2480WAT     H1 7651   2.806   1.825   4.867
 2480WAT     H2 7652   2.918   1.770   4.781
 2481WAT      O 7653   2.888   3.230   2.989
 2481WAT     H1 7654   2.803   3.268   2.963
 2481WAT     H2 7655   2.953   3.292   2.955
 2482WAT      O 7656   1.221   4.270  -0.002
 2482WAT     H1 7657   1.196   4.272   0.090
 2482WAT     H2 7658   1.307   4.314  -0.005
 2483WAT      O 7659   2.700   3.821   0.599
 2483WAT     H1 7660   2.734   3.756   0.661
 2483WAT     H2 7661   2.734   3.793   0.514
 2484WAT      O 7662   2.528   1.012   4.495
 2484WAT     H1 7663   2.535   0.917   4.485
 2484WAT     H2 7664   2.458   1.025   4.560
 2485WAT      O 7665   0.347   4.153   3.736
 2485WAT     H1 7666   0.302   4.073   3.710
 2485WAT     H2 7667   0.283   4.223   3.721
 2486WAT      O 7668   3.136   2.001   0.802
 2486WAT     H1 7669   3.050   2.039   0.821
 2486WAT     H2 7670   3.163   1.960   0.884
 2487WAT      O 7671   1.401   2.740   4.480
 2487WAT     H1 7672   1.338   2.800   4.440
 2487WAT     H2 7673   1.484   2.788   4.478
 2488WAT      O 7674   1.237   0.395   4.568
 2488WAT     H1 7675   1.292   0.465   4.603
 2488WAT     H2 7676   1.193   0.359   4.645
 2489WAT      O 7677   3.449   0.543   1.936
 2489WAT     H1 7678   3.443   0.622   1.882
 2489WAT     H2 7679   3.405   0.566   2.018
 2490WAT      O 7680   0.005   0.330   2.002
 2490WAT     H1 7681  -0.068   0.334   1.941
 2490WAT     H2 7682   0.033   0.422   2.012
 2491WAT      O 7683   0.184   4.412   4.945
 2491WAT     H1 7684   0.231   4.383   4.867
 2491WAT     H2 7685   0.253   4.423   5.011
 2492WAT      O 7686   3.374   1.945   4.448
 2492WAT     H1 7687   3.379   1.952   4.543
 2492WAT     H2 7688   3.350   1.853   4.432
 2493WAT      O 7689   0.156   3.661   0.514
 2493WAT     H1 7690   0.066   3.637   0.536
 2493WAT     H2 7691   0.148   3.731   0.449
 2494WAT      O 7692   4.063   2.608   2.614
 2494WAT     H1 7693   4.068   2.585   2.521
 2494WAT     H2 7694   4.105   2.694   2.619
 2495WAT      O 7695   3.167   3.448   0.784
 2495WAT     H1 7696   3.234   3.514   0.766
 2495WAT     H2 7697   3.186   3.418   0.872
 2496WAT      O 7698   0.480   2.094   3.667
 2496WAT     H1 7699   0.548   2.121   3.729
 2496WAT     H2 7700   0.522   2.098   3.581
 2497WAT      O 7701   0.539   1.278   4.698
 2497WAT     H1 7702   0.621   1.323   4.718
 2497WAT     H2 7703   0.471   1.341   4.723
 2498WAT      O 7704   3.808   2.746   1.853
 2498WAT     H1 7705   3.724   2.793   1.855
 2498WAT     H2 7706   3.784   2.654   1.842
 2499WAT      O 7707   0.064   1.007   4.542
 2499WAT     H1 7708   0.120   0.993   4.466
 2499WAT     H2 7709  -0.001   1.071   4.512
 2500WAT      O 7710   2.483   0.626   4.804
 2500WAT     H1 7711   2.572   0.600   4.828
 2500WAT     H2 7712   2.439   0.640   4.887
 2501WAT      O 7713   2.034   3.966   3.096
 2501WAT     H1 7714   2.084   4.047   3.088
 2501WAT     H2 7715   2.045   3.939   3.187
 2502WAT      O 7716   4.193   4.625   1.029
 2502WAT     H1 7717   4.108   4.581   1.039
 2502WAT     H2 7718   4.171   4.718   1.021
 2503WAT      O 7719   2.260   3.200   3.717
 2503WAT     H1 7720   2.254   3.224   3.624
 2503WAT     H2 7721   2.288   3.109   3.716
 2504WAT      O 7722   4.290   3.787   0.467
 2504WAT     H1 7723   4.243   3.869   0.447
 2504WAT     H2 7724   4.380   3.803   0.438
 2505WAT      O 7725   3.774   0.738   4.889
 2505WAT     H1 7726   3.821   0.690   4.821
 2505WAT     H2 7727   3.682   0.733   4.863
 2506WAT      O 7728   3.262   4.390   4.890
 2506WAT     H1 7729   3.322   4.464   4.882
 2506WAT     H2 7730   3.279   4.337   4.812
 2507WAT      O 7731   4.478   5.106   4.819
 2507WAT     H1 7732   4.477   5.022   4.773
 2507WAT     H2 7733   4.422   5.163   4.767
 2508WAT      O 7734   4.165   2.188   4.102
 2508WAT     H1 7735   4.230   2.237   4.152
 2508WAT     H2 7736   4.083   2.236   4.116
 2509WAT      O 7737   3.673   0.006   0.867
 2509WAT     H1 7738   3.659   0.100   0.881
 2509WAT     H2 7739   3.586  -0.029   0.852
 2510WAT      O 7740   3.820   0.868   3.772
 2510WAT     H1 7741   3.756   0.917   3.823
 2510WAT     H2 7742   3.849   0.797   3.830
 2511WAT      O 7743   3.358   1.270   4.933
 2511WAT     H1 7744   3.291   1.204   4.952
 2511WAT     H2 7745   3.314   1.354   4.945
 2512WAT      O 7746   1.509   1.916   4.000
 2512WAT     H1 7747   1.440   1.853   4.023
 2512WAT     H2 7748   1.508   1.918   3.904
 2513WAT      O 7749   3.048   1.752   4.585
 2513WAT     H1 7750   3.093   1.790   4.660
 2513WAT     H2 7751   3.067   1.658   4.591
 2514WAT      O 7752   0.261   3.482   1.259
 2514WAT     H1 7753   0.307   3.565   1.272
 2514WAT     H2 7754   0.199   3.500   1.187
 2515WAT      O 7755   4.411   0.776   1.714
 2515WAT     H1 7756   4.436   0.850   1.659
 2515WAT     H2 7757   4.409   0.811   1.803
 2516WAT      O 7758   0.577   3.397   3.281
 2516WAT     H1 7759   0.526   3.458   3.228
 2516WAT     H2 7760   0.665   3.435   3.284
 2517WAT      O 7761   3.580   3.944   1.425
 2517WAT     H1 7762   3.543   3.971   1.510
 2517WAT     H2 7763   3.529   3.868   1.399
 2518WAT      O 7764   1.572   0.719   4.859
 2518WAT     H1 7765   1.574   0.765   4.943
 2518WAT     H2 7766   1.658   0.676   4.854
 2519WAT      O 7767   0.940   1.090   1.080
 2519WAT     H1 7768   0.953   1.003   1.041
 2519WAT     H2 7769   0.878   1.133   1.022
 2520WAT      O 7770   2.265   3.354   3.966
 2520WAT     H1 7771   2.217   3.428   3.929
 2520WAT     H2 7772   2.259   3.286   3.898
 2521WAT      O 7773   1.153   1.475   3.509
 2521WAT     H1 7774   1.100   1.464   3.587
 2521WAT     H2 7775   1.105   1.427   3.441
 2522WAT      O 7776   0.899   4.510   4.514
 2522WAT     H1 7777   0.824   4.509   4.574
 2522WAT     H2 7778   0.889   4.431   4.461
 2523WAT      O 7779   4.042   2.001   5.266
 2523WAT     H1 7780   4.121   2.004   5.212
 2523WAT     H2 7781   4.033   1.909   5.291
 2524WAT      O 7782   4.101   5.060   4.971
 2524WAT     H1 7783   4.111   5.156   4.969
 2524WAT     H2 7784   4.139   5.035   5.056
 2525WAT      O 7785   1.965   4.220   1.614
 2525WAT     H1 7786   1.946   4.161   1.541
 2525WAT     H2 7787   1.947   4.307   1.580
 2526WAT      O 7788   2.894   4.225   2.967
 2526WAT     H1 7789   2.983   4.243   2.937
 2526WAT     H2 7790   2.900   4.232   3.063
 2527WAT      O 7791   2.870   1.899   0.808
 2527WAT     H1 7792   2.863   1.894   0.904
 2527WAT     H2 7793   2.842   1.812   0.778
 2528WAT      O 7794   3.534   1.305   1.953
 2528WAT     H1 7795   3.549   1.391   1.912
 2528WAT     H2 7796   3.533   1.244   1.880
 2529WAT      O 7797   4.357   3.785   1.248
 2529WAT     H1 7798   4.394   3.701   1.220
 2529WAT     H2 7799   4.309   3.763   1.329
 2530WAT      O 7800   1.852   4.412   1.370
 2530WAT     H1 7801   1.839   4.476   1.301
 2530WAT     H2 7802   1.779   4.427   1.431
 2531WAT      O 7803   2.901   0.579   3.818
 2531WAT     H1 7804   2.859   0.657   3.854
 2531WAT     H2 7805   2.982   0.569   3.868
 2532WAT      O 7806   4.208   3.842   2.507
 2532WAT     H1 7807   4.242   3.881   2.588
 2532WAT     H2 7808   4.158   3.766   2.537
 2533WAT      O 7809   3.844   1.019   3.133
 2533WAT     H1 7810   3.873   1.097   3.180
 2533WAT     H2 7811   3.849   1.043   3.040
 2534WAT      O 7812   1.084   0.544   2.361
 2534WAT     H1 7813   1.031   0.622   2.348
 2534WAT     H2 7814   1.024   0.471   2.345
 2535WAT      O 7815   3.140   4.312   2.340
 2535WAT     H1 7816   3.174   4.391   2.382
 2535WAT     H2 7817   3.051   4.335   2.312
 2536WAT      O 7818   1.867   0.410   4.578
 2536WAT     H1 7819   1.887   0.341   4.514
 2536WAT     H2 7820   1.885   0.370   4.663
 2537WAT      O 7821   3.338   1.042   2.204
 2537WAT     H1 7822   3.339   1.056   2.109
 2537WAT     H2 7823   3.335   1.130   2.241
 2538WAT      O 7824   3.037   4.429   0.044
 2538WAT     H1 7825   3.023   4.334   0.035
 2538WAT     H2 7826   2.956   4.468   0.012
 2539WAT      O 7827   4.256   1.330   0.306
 2539WAT     H1 7828   4.279   1.393   0.237
 2539WAT     H2 7829   4.315   1.256   0.292
 2540WAT      O 7830   1.015   2.166   4.579
 2540WAT     H1 7831   1.101   2.206   4.588
 2540WAT     H2 7832   1.001   2.157   4.485
 2541WAT      O 7833   2.242   3.413   2.960
 2541WAT     H1 7834   2.249   3.329   3.006
 2541WAT     H2 7835   2.231   3.477   3.030
 2542WAT      O 7836   0.880   3.800   4.064
 2542WAT     H1 7837   0.954   3.756   4.023
 2542WAT     H2 7838   0.857   3.744   4.139
 2543WAT      O 7839   4.273   4.385   2.868
 2543WAT     H1 7840   4.212   4.312   2.864
 2543WAT     H2 7841   4.331   4.372   2.793
 2544WAT      O 7842   2.477   3.637   2.416
 2544WAT     H1 7843   2.563   3.597   2.429
 2544WAT     H2 7844   2.495   3.731   2.407
 2545WAT      O 7845   0.360   2.651   2.817
 2545WAT     H1 7846   0.349   2.572   2.765
 2545WAT     H2 7847   0.437   2.694   2.780
 2546WAT      O 7848   2.597   0.972   3.659
 2546WAT     H1 7849   2.613   0.982   3.753
 2546WAT     H2 7850   2.541   1.046   3.635
 2547WAT      O 7851   2.119   5.011   1.988
 2547WAT     H1 7852   2.180   5.072   2.031
 2547WAT     H2 7853   2.167   4.928   1.986
 2548WAT      O 7854   1.769   0.709   2.310
 2548WAT     H1 7855   1.853   0.754   2.315
 2548WAT     H2 7856   1.709   0.764   2.361
 2549WAT      O 7857   3.242   4.656   5.105
 2549WAT     H1 7858   3.199   4.719   5.047
 2549WAT     H2 7859   3.214   4.571   5.073
 2550WAT      O 7860   2.695   0.629   0.307
 2550WAT     H1 7861   2.631   0.558   0.314
 2550WAT     H2 7862   2.701   0.646   0.213
 2551WAT      O 7863   3.284   1.006   1.057
 2551WAT     H1 7864   3.355   1.069   1.044
 2551WAT     H2 7865   3.215   1.037   0.999
 2552WAT      O 7866   2.712   1.205   4.439
 2552WAT     H1 7867   2.635   1.150   4.451
 2552WAT     H2 7868   2.716   1.258   4.519
 2553WAT      O 7869   3.978   2.846   4.252
 2553WAT     H1 7870   3.998   2.939   4.253
 2553WAT     H2 7871   3.939   2.828   4.338
 2554WAT      O 7872   4.039   4.620   4.018
 2554WAT     H1 7873   4.061   4.704   3.978
 2554WAT     H2 7874   3.948   4.603   3.991
 2555WAT      O 7875   4.458   0.109   0.210
 2555WAT     H1 7876   4.537   0.102   0.264
 2555WAT     H2 7877   4.434   0.202   0.215
 2556WAT      O 7878   1.365   1.671   1.358
 2556WAT     H1 7879   1.330   1.610   1.293
 2556WAT     H2 7880   1.354   1.757   1.317
 2557WAT      O 7881   0.172   3.121   1.055
 2557WAT     H1 7882   0.147   3.212   1.037
 2557WAT     H2 7883   0.089   3.077   1.074
 2558WAT      O 7884   3.564   1.713   1.096
 2558WAT     H1 7885   3.478   1.691   1.060
 2558WAT     H2 7886   3.597   1.782   1.037
 2559WAT      O 7887   1.301   2.991   3.700
 2559WAT     H1 7888   1.271   2.922   3.759
 2559WAT     H2 7889   1.288   2.955   3.613
 2560WAT      O 7890   4.373   3.899   4.537
 2560WAT     H1 7891   4.429   3.924   4.463
 2560WAT     H2 7892   4.338   3.813   4.512
 2561WAT      O 7893   4.083   3.324   3.488
 2561WAT     H1 7894   4.162   3.341   3.539
 2561WAT     H2 7895   4.013   3.315   3.554
 2562WAT      O 7896   0.017   1.543   2.710
 2562WAT     H1 7897   0.060   1.458   2.694
 2562WAT     H2 7898  -0.018   1.535   2.799
 2563WAT      O 7899   1.212   1.268   0.754
 2563WAT     H1 7900   1.235   1.360   0.743
 2563WAT     H2 7901   1.124   1.260   0.715
 2564WAT      O 7902   3.982   1.713   0.326
 2564WAT     H1 7903   3.919   1.645   0.302
 2564WAT     H2 7904   4.061   1.664   0.350
 2565WAT      O 7905   0.717   1.595   3.038
 2565WAT     H1 7906   0.749   1.681   3.067
 2565WAT     H2 7907   0.627   1.591   3.071
 2566WAT      O 7908   2.390   0.938   0.877
 2566WAT     H1 7909   2.357   0.856   0.840
 2566WAT     H2 7910   2.357   1.006   0.818
 2567WAT      O 7911   0.564   0.953   3.625
 2567WAT     H1 7912   0.478   0.913   3.636
 2567WAT     H2 7913   0.618   0.883   3.588
 2568WAT      O 7914   2.379   1.746   3.255
 2568WAT     H1 7915   2.329   1.665   3.261
 2568WAT     H2 7916   2.459   1.722   3.209
 2569WAT      O 7917   2.763   0.330   0.048
 2569WAT     H1 7918   2.731   0.419   0.060
 2569WAT     H2 7919   2.858   0.336   0.057
 2570WAT      O 7920   0.952   4.682   1.739
 2570WAT     H1 7921   0.889   4.695   1.668
 2570WAT     H2 7922   0.955   4.766   1.784
 2571WAT      O 7923   0.258   1.025   4.335
 2571WAT     H1 7924   0.306   0.978   4.267
 2571WAT     H2 7925   0.319   1.031   4.408
 2572WAT      O 7926   4.419   0.432   2.721
 2572WAT     H1 7927   4.382   0.362   2.774
 2572WAT     H2 7928   4.396   0.408   2.631
 2573WAT      O 7929   2.040   0.867   0.654
 2573WAT     H1 7930   2.016   0.957   0.674
 2573WAT     H2 7931   1.961   0.830   0.614
 2574WAT      O 7932   3.297   0.993   2.470
 2574WAT     H1 7933   3.313   1.001   2.377
 2574WAT     H2 7934   3.378   1.022   2.512
 2575WAT      O 7935   1.592   2.707   1.468
 2575WAT     H1 7936   1.543   2.731   1.389
 2575WAT     H2 7937   1.661   2.650   1.436
 2576WAT      O 7938   3.043   3.818   3.546
 2576WAT     H1 7939   3.113   3.813   3.481
 2576WAT     H2 7940   3.034   3.911   3.565
 2577WAT      O 7941   2.499   3.504   1.440
 2577WAT     H1 7942   2.417   3.491   1.392
 2577WAT     H2 7943   2.478   3.574   1.502
 2578WAT      O 7944   0.698   1.889   1.471
 2578WAT     H1 7945   0.728   1.978   1.485
 2578WAT     H2 7946   0.703   1.876   1.376
 2579WAT      O 7947   3.998   2.471   0.417
 2579WAT     H1 7948   3.920   2.499   0.466
 2579WAT     H2 7949   3.983   2.378   0.400
 2580WAT      O 7950   0.386   2.171   2.558
 2580WAT     H1 7951   0.363   2.115   2.484
 2580WAT     H2 7952   0.358   2.259   2.530
 2581WAT      O 7953   0.286   1.179   3.164
 2581WAT     H1 7954   0.242   1.262   3.182
 2581WAT     H2 7955   0.257   1.121   3.234
 2582WAT      O 7956   3.721   2.539   0.428
 2582WAT     H1 7957   3.676   2.503   0.352
 2582WAT     H2 7958   3.759   2.621   0.397
 2583WAT      O 7959   4.251   0.288   0.507
 2583WAT     H1 7960   4.281   0.198   0.520
 2583WAT     H2 7961   4.157   0.285   0.525
 2584WAT      O 7962   1.219   4.372   2.638
 2584WAT     H1 7963   1.187   4.425   2.565
 2584WAT     H2 7964   1.271   4.303   2.595
 2585WAT      O 7965   0.387   3.589   3.229
 2585WAT     H1 7966   0.358   3.566   3.140
 2585WAT     H2 7967   0.357   3.679   3.241
 2586WAT      O 7968   1.690   3.007   1.375
 2586WAT     H1 7969   1.629   2.945   1.416
 2586WAT     H2 7970   1.663   3.011   1.283
 2587WAT      O 7971   2.039   4.186   2.665
 2587WAT     H1 7972   2.047   4.241   2.742
 2587WAT     H2 7973   2.096   4.111   2.683
 2588WAT      O 7974   2.033   1.976   0.731
 2588WAT     H1 7975   2.117   1.996   0.772
 2588WAT     H2 7976   1.989   2.060   0.723
 2589WAT      O 7977   2.909   2.034   5.266
 2589WAT     H1 7978   2.925   2.095   5.195
 2589WAT     H2 7979   2.814   2.029   5.273
 2590WAT      O 7980   1.818   0.480   0.254
 2590WAT     H1 7981   1.803   0.438   0.339
 2590WAT     H2 7982   1.872   0.556   0.275
 2591WAT      O 7983   4.202   4.350   5.189
 2591WAT     H1 7984   4.155   4.326   5.109
 2591WAT     H2 7985   4.241   4.436   5.169
 2592WAT      O 7986   2.226   4.894   4.445
 2592WAT     H1 7987   2.181   4.843   4.378
 2592WAT     H2 7988   2.206   4.985   4.424
 2593WAT      O 7989   1.265   2.121   4.207
 2593WAT     H1 7990   1.264   2.177   4.284
 2593WAT     H2 7991   1.342   2.150   4.158
 2594WAT      O 7992   1.409   1.534   4.474
 2594WAT     H1 7993   1.315   1.541   4.457
 2594WAT     H2 7994   1.415   1.497   4.562
 2595WAT      O 7995   4.381   3.519   2.691
 2595WAT     H1 7996   4.339   3.458   2.631
 2595WAT     H2 7997   4.445   3.565   2.636
 2596WAT      O 7998   2.048   3.976   2.364
 2596WAT     H1 7999   1.987   3.976   2.438
 2596WAT     H2 8000   2.135   3.982   2.404
 2597WAT      O 8001   0.306   4.855   0.185
 2597WAT     H1 8002   0.291   4.790   0.254
 2597WAT     H2 8003   0.400   4.868   0.184
 2598WAT      O 8004   0.243   2.745   4.384
 2598WAT     H1 8005   0.290   2.705   4.457
 2598WAT     H2 8006   0.155   2.761   4.419
 2599WAT      O 8007   3.844   3.049   3.311
 2599WAT     H1 8008   3.897   3.070   3.234
 2599WAT     H2 8009   3.818   2.958   3.298
 2600WAT      O 8010   2.673   1.180   1.099
 2600WAT     H1 8011   2.608   1.220   1.041
 2600WAT     H2 8012   2.670   1.087   1.077
 2601WAT      O 8013   1.518   1.956   0.601
 2601WAT     H1 8014   1.589   2.020   0.600
 2601WAT     H2 8015   1.478   1.963   0.514
 2602WAT      O 8016   3.444   3.419   3.668
 2602WAT     H1 8017   3.407   3.416   3.580
 2602WAT     H2 8018   3.389   3.360   3.720
 2603WAT      O 8019   0.414   4.795   2.008
 2603WAT     H1 8020   0.507   4.799   1.983
 2603WAT     H2 8021   0.378   4.878   1.979
 2604WAT      O 8022   2.457   2.164   3.641
 2604WAT     H1 8023   2.537   2.114   3.629
 2604WAT     H2 8024   2.390   2.098   3.659
 2605WAT      O 8025   0.698   1.236   2.097
 2605WAT     H1 8026   0.653   1.315   2.125
 2605WAT     H2 8027   0.783   1.238   2.142
 2606WAT      O 8028   0.830   4.956   2.411
 2606WAT     H1 8029   0.829   5.014   2.487
 2606WAT     H2 8030   0.923   4.947   2.389
 2607WAT      O 8031   0.828   2.234   3.107
 2607WAT     H1 8032   0.831   2.329   3.093
 2607WAT     H2 8033   0.842   2.197   3.020
 2608WAT      O 8034   2.383   4.108   1.290
 2608WAT     H1 8035   2.299   4.074   1.257
 2608WAT     H2 8036   2.367   4.125   1.382
 2609WAT      O 8037   1.441   2.781   3.480
 2609WAT     H1 8038   1.460   2.742   3.395
 2609WAT     H2 8039   1.390   2.714   3.527
 2610WAT      O 8040   1.419   3.425   0.566
 2610WAT     H1 8041   1.410   3.341   0.521
 2610WAT     H2 8042   1.411   3.490   0.496
 2611WAT      O 8043   3.982   3.100   3.050
 2611WAT     H1 8044   3.941   3.067   2.970
 2611WAT     H2 8045   4.014   3.187   3.027
 2612WAT      O 8046   2.849   4.812   1.249
 2612WAT     H1 8047   2.895   4.840   1.328
 2612WAT     H2 8048   2.885   4.725   1.231
 2613WAT      O 8049   3.844   1.315   2.676
 2613WAT     H1 8050   3.753   1.311   2.647
 2613WAT     H2 8051   3.896   1.306   2.596
 2614WAT      O 8052   3.024   3.296   2.748
 2614WAT     H1 8053   3.039   3.309   2.655
 2614WAT     H2 8054   2.950   3.235   2.753
 2615WAT      O 8055   3.490   5.001   4.717
 2615WAT     H1 8056   3.402   4.964   4.707
 2615WAT     H2 8057   3.489   5.042   4.803
 2616WAT      O 8058   1.030   3.809   1.473
 2616WAT     H1 8059   1.122   3.806   1.445
 2616WAT     H2 8060   1.020   3.735   1.533
 2617WAT      O 8061   1.452   1.373   4.683
 2617WAT     H1 8062   1.545   1.393   4.693
 2617WAT     H2 8063   1.439   1.293   4.734
 2618WAT      O 8064   4.461   2.910   4.061
 2618WAT     H1 8065   4.522   2.982   4.078
 2618WAT     H2 8066   4.513   2.844   4.015
 2619WAT      O 8067   2.403   1.373   3.838
 2619WAT     H1 8068   2.488   1.341   3.806
 2619WAT     H2 8069   2.374   1.434   3.771
 2620WAT      O 8070   3.318   1.401   3.160
 2620WAT     H1 8071   3.398   1.356   3.185
 2620WAT     H2 8072   3.249   1.358   3.210
 2621WAT      O 8073   2.175   4.600   2.922
 2621WAT     H1 8074   2.105   4.639   2.869
 2621WAT     H2 8075   2.256   4.638   2.887
 2622WAT      O 8076   2.131   3.327   1.964
 2622WAT     H1 8077   2.119   3.277   2.045
 2622WAT     H2 8078   2.047   3.372   1.951
 2623WAT      O 8079   4.230   4.672   0.491
 2623WAT     H1 8080   4.193   4.585   0.481
 2623WAT     H2 8081   4.307   4.673   0.434
 2624WAT      O 8082   0.613   0.346   2.107
 2624WAT     H1 8083   0.555   0.363   2.033
 2624WAT     H2 8084   0.642   0.255   2.094
 2625WAT      O 8085   3.525   4.377   4.061
 2625WAT     H1 8086   3.492   4.431   4.132
 2625WAT     H2 8087   3.593   4.323   4.102
 2626WAT      O 8088   4.361   0.627   4.704
 2626WAT     H1 8089   4.403   0.629   4.618
 2626WAT     H2 8090   4.433   0.614   4.766
 2627WAT      O 8091   3.840   0.752   5.147
 2627WAT     H1 8092   3.748   0.748   5.171
 2627WAT     H2 8093   3.841   0.739   5.053
 2628WAT      O 8094   1.598   3.303   1.255
 2628WAT     H1 8095   1.674   3.288   1.199
 2628WAT     H2 8096   1.623   3.379   1.309
 2629WAT      O 8097   2.384   2.130   3.345
 2629WAT     H1 8098   2.310   2.178   3.382
 2629WAT     H2 8099   2.400   2.059   3.406
 2630WAT      O 8100   0.512   1.492   3.606
 2630WAT     H1 8101   0.589   1.507   3.661
 2630WAT     H2 8102   0.543   1.507   3.517
 2631WAT      O 8103   1.257   3.175   1.942
 2631WAT     H1 8104   1.328   3.113   1.929
 2631WAT     H2 8105   1.242   3.175   2.037
 2632WAT      O 8106   0.667   3.861   3.634
 2632WAT     H1 8107   0.741   3.882   3.577
 2632WAT     H2 8108   0.592   3.903   3.592
 2633WAT      O 8109   4.343   4.942   2.970
 2633WAT     H1 8110   4.356   4.861   2.921
 2633WAT     H2 8111   4.397   4.931   3.049
 2634WAT      O 8112   2.825   3.946   1.239
 2634WAT     H1 8113   2.756   3.963   1.176
 2634WAT     H2 8114   2.828   4.026   1.293
 2635WAT      O 8115   2.770   1.548   4.596
 2635WAT     H1 8116   2.756   1.606   4.670
 2635WAT     H2 8117   2.865   1.533   4.595
 2636WAT      O 8118   4.249   2.456   2.812
 2636WAT     H1 8119   4.285   2.378   2.769
 2636WAT     H2 8120   4.179   2.485   2.754
 2637WAT      O 8121   0.212   0.734   2.069
 2637WAT     H1 8122   0.232   0.827   2.076
 2637WAT     H2 8123   0.298   0.691   2.069
 2638WAT      O 8124   2.729   4.751   0.977
 2638WAT     H1 8125   2.778   4.801   1.043
 2638WAT     H2 8126   2.796   4.698   0.932
 2639WAT      O 8127   1.093   1.697   3.322
 2639WAT     H1 8128   1.117   1.614   3.362
 2639WAT     H2 8129   1.176   1.743   3.310
 2640WAT      O 8130   1.490   2.042   4.805
 2640WAT     H1 8131   1.509   2.119   4.751
 2640WAT     H2 8132   1.398   2.023   4.788
 2641WAT      O 8133   2.924   5.016   0.310
 2641WAT     H1 8134   2.835   4.983   0.301
 2641WAT     H2 8135   2.977   4.956   0.258
 2642WAT      O 8136   1.190   0.142   5.198
 2642WAT     H1 8137   1.242   0.142   5.118
 2642WAT     H2 8138   1.115   0.198   5.178
 2643WAT      O 8139   2.222   1.346   2.643
 2643WAT     H1 8140   2.134   1.341   2.606
 2643WAT     H2 8141   2.245   1.255   2.663
 2644WAT      O 8142   3.622   2.775   0.195
 2644WAT     H1 8143   3.548   2.767   0.256
 2644WAT     H2 8144   3.584   2.819   0.118
 2645WAT      O 8145   3.135   2.067   3.328
 2645WAT     H1 8146   3.133   1.971   3.326
 2645WAT     H2 8147   3.108   2.093   3.240
 2646WAT      O 8148   1.861   0.294   4.197
 2646WAT     H1 8149   1.842   0.383   4.227
 2646WAT     H2 8150   1.776   0.251   4.192
 2647WAT      O 8151   2.386   4.189   0.791
 2647WAT     H1 8152   2.438   4.264   0.764
 2647WAT     H2 8153   2.393   4.128   0.717
 2648WAT      O 8154   2.471   3.433   3.308
 2648WAT     H1 8155   2.472   3.365   3.241
 2648WAT     H2 8156   2.384   3.473   3.300
 2649WAT      O 8157   3.740   0.639   1.699
 2649WAT     H1 8158   3.651   0.659   1.728
 2649WAT     H2 8159   3.753   0.547   1.722
 2650WAT      O 8160   4.436   2.192   4.480
 2650WAT     H1 8161   4.522   2.230   4.463
 2650WAT     H2 8162   4.412   2.226   4.567
 2651WAT      O 8163   0.727   1.562   5.219
 2651WAT     H1 8164   0.672   1.630   5.179
 2651WAT     H2 8165   0.766   1.516   5.144
 2652WAT      O 8166   1.220   4.626   1.749
 2652WAT     H1 8167   1.126   4.635   1.764
 2652WAT     H2 8168   1.248   4.713   1.721
 2653WAT      O 8169   4.379   3.533   2.272
 2653WAT     H1 8170   4.429   3.475   2.214
 2653WAT     H2 8171   4.343   3.600   2.214
 2654WAT      O 8172   3.501   4.239   3.283
 2654WAT     H1 8173   3.504   4.301   3.355
 2654WAT     H2 8174   3.575   4.180   3.297
 2655WAT      O 8175   2.044   1.085   4.700
 2655WAT     H1 8176   2.017   0.994   4.714
 2655WAT     H2 8177   1.964   1.136   4.708
 2656WAT      O 8178   4.188   3.501   3.922
 2656WAT     H1 8179   4.110   3.450   3.946
 2656WAT     H2 8180   4.190   3.572   3.987
 2657WAT      O 8181   3.265   0.361   3.444
 2657WAT     H1 8182   3.322   0.377   3.520
 2657WAT     H2 8183   3.326   0.335   3.375
 2658WAT      O 8184   0.987   4.118   2.129
 2658WAT     H1 8185   1.077   4.091   2.113
 2658WAT     H2 8186   0.994   4.199   2.179
 2659WAT      O 8187   4.387   1.791   1.588
 2659WAT     H1 8188   4.451   1.780   1.518
 2659WAT     H2 8189   4.302   1.784   1.544
 2660WAT      O 8190   0.263   0.179   0.661
 2660WAT     H1 8191   0.301   0.105   0.614
 2660WAT     H2 8192   0.287   0.255   0.607
 2661WAT      O 8193   3.404   2.042   2.572
 2661WAT     H1 8194   3.351   2.100   2.626
 2661WAT     H2 8195   3.422   2.092   2.493
 2662WAT      O 8196   4.060   2.511   4.380
 2662WAT     H1 8197   4.027   2.423   4.396
 2662WAT     H2 8198   4.024   2.536   4.295
 2663WAT      O 8199   2.990   0.901   0.980
 2663WAT     H1 8200   3.017   0.991   0.961
 2663WAT     H2 8201   2.927   0.880   0.911
 2664WAT      O 8202   0.155   1.399   1.120
 2664WAT     H1 8203   0.075   1.373   1.074
 2664WAT     H2 8204   0.226   1.361   1.069
 2665WAT      O 8205   1.183   2.590   3.732
 2665WAT     H1 8206   1.111   2.527   3.734
 2665WAT     H2 8207   1.254   2.544   3.686
 2666WAT      O 8208   3.345   2.328   0.794
 2666WAT     H1 8209   3.358   2.234   0.778
 2666WAT     H2 8210   3.311   2.332   0.883
 2667WAT      O 8211   3.682   4.455   2.711
 2667WAT     H1 8212   3.638   4.370   2.711
 2667WAT     H2 8213   3.716   4.464   2.622
 2668WAT      O 8214   3.214   4.865   1.230
 2668WAT     H1 8215   3.167   4.949   1.234
 2668WAT     H2 8216   3.146   4.801   1.209
 2669WAT      O 8217   3.871   0.936   4.337
 2669WAT     H1 8218   3.779   0.913   4.353
 2669WAT     H2 8219   3.877   1.028   4.364
 2670WAT      O 8220   1.598   3.130   2.674
 2670WAT     H1 8221   1.625   3.153   2.763
 2670WAT     H2 8222   1.663   3.172   2.618
 2671WAT      O 8223   2.157   5.021   0.030
 2671WAT     H1 8224   2.107   5.059  -0.043
 2671WAT     H2 8225   2.246   5.054   0.018
 2672WAT      O 8226   1.073   4.829   4.180
 2672WAT     H1 8227   1.101   4.795   4.095
 2672WAT     H2 8228   1.043   4.752   4.228
 2673WAT      O 8229   2.964   2.627   3.541
 2673WAT     H1 8230   2.940   2.698   3.482
 2673WAT     H2 8231   3.049   2.653   3.577
 2674WAT      O 8232   2.816   1.750   0.320
 2674WAT     H1 8233   2.853   1.772   0.406
 2674WAT     H2 8234   2.885   1.701   0.276
 2675WAT      O 8235   0.143   1.480   4.145
 2675WAT     H1 8236   0.117   1.571   4.157
 2675WAT     H2 8237   0.221   1.485   4.089
 2676WAT      O 8238   2.137   1.739   0.018
 2676WAT     H1 8239   2.109   1.736  -0.073
 2676WAT     H2 8240   2.182   1.823   0.026
 2677WAT      O 8241   1.644   3.920   3.244
 2677WAT     H1 8242   1.563   3.890   3.285
 2677WAT     H2 8243   1.648   3.873   3.161
 2678WAT      O 8244   4.117   3.249   1.643
 2678WAT     H1 8245   4.137   3.166   1.600
 2678WAT     H2 8246   4.202   3.292   1.654
 2679WAT      O 8247   2.042   3.984   0.369
 2679WAT     H1 8248   2.045   3.973   0.464
 2679WAT     H2 8249   2.128   4.020   0.346
 2680WAT      O 8250   3.750   4.596   0.959
 2680WAT     H1 8251   3.825   4.608   0.900
 2680WAT     H2 8252   3.684   4.657   0.927
 2681WAT      O 8253   1.493   3.545   3.632
 2681WAT     H1 8254   1.463   3.459   3.661
 2681WAT     H2 8255   1.474   3.547   3.538
 2682WAT      O 8256   1.559   2.208   3.620
 2682WAT     H1 8257   1.619   2.214   3.546
 2682WAT     H2 8258   1.615   2.215   3.697
 2683WAT      O 8259   2.956   2.442   5.156
 2683WAT     H1 8260   2.933   2.532   5.132
 2683WAT     H2 8261   3.003   2.408   5.079
 2684WAT      O 8262   0.956   1.124   4.956
 2684WAT     H1 8263   0.911   1.048   4.919
 2684WAT     H2 8264   0.954   1.110   5.051
 2685WAT      O 8265   0.834   3.425   4.604
 2685WAT     H1 8266   0.835   3.400   4.512
 2685WAT     H2 8267   0.767   3.493   4.610
 2686WAT      O 8268   1.939   4.028   1.061
 2686WAT     H1 8269   1.884   4.075   1.124
 2686WAT     H2 8270   1.979   4.098   1.008
 2687WAT      O 8271   4.116   0.862   2.746
 2687WAT     H1 8272   4.201   0.833   2.712
 2687WAT     H2 8273   4.126   0.956   2.759
 2688WAT      O 8274   2.617   0.207   0.278
 2688WAT     H1 8275   2.691   0.222   0.219
 2688WAT     H2 8276   2.602   0.293   0.318
 2689WAT      O 8277   4.011   2.160   2.150
 2689WAT     H1 8278   4.082   2.108   2.188
 2689WAT     H2 8279   3.933   2.105   2.158
 2690WAT      O 8280   3.885   1.759   2.283
 2690WAT     H1 8281   3.893   1.675   2.237
 2690WAT     H2 8282   3.858   1.734   2.372
 2691WAT      O 8283   4.322   0.939   0.272
 2691WAT     H1 8284   4.241   0.914   0.316
 2691WAT     H2 8285   4.386   0.874   0.302
 2692WAT      O 8286   4.020   4.849   0.029
 2692WAT     H1 8287   3.992   4.774  -0.024
 2692WAT     H2 8288   4.049   4.809   0.112
 2693WAT      O 8289   3.652   2.222   0.269
 2693WAT     H1 8290   3.690   2.236   0.355
 2693WAT     H2 8291   3.611   2.305   0.247
 2694WAT      O 8292   1.937   4.940   3.313
 2694WAT     H1 8293   2.013   4.985   3.351
 2694WAT     H2 8294   1.863   4.995   3.337
 2695WAT      O 8295   2.552   2.969   0.908
 2695WAT     H1 8296   2.488   2.936   0.845
 2695WAT     H2 8297   2.587   2.891   0.950
 2696WAT      O 8298   3.898   5.052   2.831
 2696WAT     H1 8299   3.833   5.008   2.886
 2696WAT     H2 8300   3.943   5.112   2.889
 2697WAT      O 8301   2.249   1.239   4.242
 2697WAT     H1 8302   2.296   1.302   4.188
 2697WAT     H2 8303   2.289   1.245   4.328
 2698WAT      O 8304   3.496   3.664   4.797
 2698WAT     H1 8305   3.507   3.605   4.871
 2698WAT     H2 8306   3.585   3.680   4.766
 2699WAT      O 8307   0.456   3.884   4.558
 2699WAT     H1 8308   0.367   3.884   4.592
 2699WAT     H2 8309   0.512   3.894   4.635
 2700WAT      O 8310   3.129   1.357   0.540
 2700WAT     H1 8311   3.109   1.415   0.467
 2700WAT     H2 8312   3.076   1.390   0.613
 2701WAT      O 8313   0.893   0.182   0.481
 2701WAT     H1 8314   0.950   0.189   0.404
 2701WAT     H2 8315   0.947   0.139   0.547
 2702WAT      O 8316   3.302   3.827   0.041
 2702WAT     H1 8317   3.349   3.845   0.122
 2702WAT     H2 8318   3.369   3.833  -0.027
 2703WAT      O 8319   4.174   2.689   0.465
 2703WAT     H1 8320   4.113   2.616   0.466
 2703WAT     H2 8321   4.253   2.655   0.508
 2704WAT      O 8322   0.352   4.384   1.556
 2704WAT     H1 8323   0.258   4.403   1.559
 2704WAT     H2 8324   0.358   4.303   1.505
 2705WAT      O 8325   1.185   3.127   4.579
 2705WAT     H1 8326   1.269   3.099   4.613
 2705WAT     H2 8327   1.139   3.163   4.654
 2706WAT      O 8328   2.648   1.538   2.707
 2706WAT     H1 8329   2.590   1.513   2.779
 2706WAT     H2 8330   2.610   1.619   2.673
 2707WAT      O 8331   0.631   3.880   1.584
 2707WAT     H1 8332   0.656   3.792   1.557
 2707WAT     H2 8333   0.712   3.931   1.577
 2708WAT      O 8334   0.384   3.224   1.276
 2708WAT     H1 8335   0.301   3.182   1.256
 2708WAT     H2 8336   0.360   3.309   1.313
 2709WAT      O 8337   0.451   3.114   3.916
 2709WAT     H1 8338   0.546   3.129   3.913
 2709WAT     H2 8339   0.413   3.202   3.916
 2710WAT      O 8340   1.682   0.435   2.828
 2710WAT     H1 8341   1.654   0.460   2.740
 2710WAT     H2 8342   1.764   0.483   2.842
 2711WAT      O 8343   3.756   0.009   2.628
 2711WAT     H1 8344   3.787   0.016   2.537
 2711WAT     H2 8345   3.835  -0.004   2.679
 2712WAT      O 8346   0.541   4.614   0.846
 2712WAT     H1 8347   0.521   4.698   0.887
 2712WAT     H2 8348   0.464   4.560   0.862
 2713WAT      O 8349   1.073   4.472   3.755
 2713WAT     H1 8350   1.031   4.455   3.839
 2713WAT     H2 8351   1.017   4.427   3.691
 2714WAT      O 8352   3.647   2.502   3.979
 2714WAT     H1 8353   3.692   2.582   3.952
 2714WAT     H2 8354   3.557   2.530   3.998
 2715WAT      O 8355   0.451   4.844   3.637
 2715WAT     H1 8356   0.372   4.795   3.614
 2715WAT     H2 8357   0.461   4.830   3.731
 2716WAT      O 8358   3.243   3.041   2.507
 2716WAT     H1 8359   3.201   3.023   2.422
 2716WAT     H2 8360   3.267   3.134   2.503
 2717WAT      O 8361   3.766   3.063   4.387
 2717WAT     H1 8362   3.786   3.008   4.463
 2717WAT     H2 8363   3.852   3.088   4.352
 2718WAT      O 8364   1.231   4.345   2.041
 2718WAT     H1 8365   1.234   4.259   2.083
 2718WAT     H2 8366   1.144   4.379   2.061
 2719WAT      O 8367   2.961   2.881   3.748
 2719WAT     H1 8368   2.963   2.792   3.783
 2719WAT     H2 8369   3.040   2.888   3.694
 2720WAT      O 8370   0.429   4.309   2.433
 2720WAT     H1 8371   0.508   4.305   2.380
 2720WAT     H2 8372   0.368   4.363   2.383
 2721WAT      O 8373   4.475   0.702   3.226
 2721WAT     H1 8374   4.382   0.710   3.208
 2721WAT     H2 8375   4.496   0.612   3.204
 2722WAT      O 8376   4.070   3.621   0.431
 2722WAT     H1 8377   4.016   3.699   0.422
 2722WAT     H2 8378   4.159   3.651   0.416
 2723WAT      O 8379   2.594   3.858   3.753
 2723WAT     H1 8380   2.508   3.893   3.777
 2723WAT     H2 8381   2.588   3.842   3.659
 2724WAT      O 8382   1.688   0.964   4.292
 2724WAT     H1 8383   1.708   0.950   4.200
 2724WAT     H2 8384   1.630   0.891   4.315
 2725WAT      O 8385   3.714   0.683   4.209
 2725WAT     H1 8386   3.756   0.758   4.167
 2725WAT     H2 8387   3.645   0.722   4.263
 2726WAT      O 8388   3.018   3.217   4.580
 2726WAT     H1 8389   2.971   3.212   4.497
 2726WAT     H2 8390   2.954   3.189   4.645
 2727WAT      O 8391   3.729   4.388   0.751
 2727WAT     H1 8392   3.714   4.460   0.812
 2727WAT     H2 8393   3.824   4.387   0.738
 2728WAT      O 8394   3.016   1.521   0.021
 2728WAT     H1 8395   2.965   1.487  -0.052
 2728WAT     H2 8396   3.101   1.478   0.012
 2729WAT      O 8397   4.113   0.692   5.158
 2729WAT     H1 8398   4.022   0.699   5.132
 2729WAT     H2 8399   4.154   0.771   5.122
 2730WAT      O 8400   3.709   1.200   1.757
 2730WAT     H1 8401   3.791   1.170   1.717
 2730WAT     H2 8402   3.736   1.232   1.844
 2731WAT      O 8403   3.110   2.623   2.469
 2731WAT     H1 8404   3.089   2.621   2.376
 2731WAT     H2 8405   3.050   2.688   2.506
 2732WAT      O 8406   0.505   2.165   3.972
 2732WAT     H1 8407   0.435   2.160   4.038
 2732WAT     H2 8408   0.481   2.239   3.917
 2733WAT      O 8409   0.084   4.072   4.385
 2733WAT     H1 8410   0.077   4.165   4.365
 2733WAT     H2 8411   0.079   4.028   4.300
 2734WAT      O 8412   1.015   2.761   4.474
 2734WAT     H1 8413   0.932   2.798   4.502
 2734WAT     H2 8414   1.019   2.675   4.515
 2735WAT      O 8415   1.120   3.193   1.216
 2735WAT     H1 8416   1.082   3.259   1.274
 2735WAT     H2 8417   1.211   3.186   1.244
 2736WAT      O 8418   1.514   2.101   1.601
 2736WAT     H1 8419   1.528   2.190   1.569
 2736WAT     H2 8420   1.459   2.060   1.534
 2737WAT      O 8421   3.761   1.947   2.162
 2737WAT     H1 8422   3.733   1.999   2.237
 2737WAT     H2 8423   3.797   1.867   2.200
 2738WAT      O 8424   2.284   4.698   0.108
 2738WAT     H1 8425   2.225   4.624   0.091
 2738WAT     H2 8426   2.327   4.675   0.191
 2739WAT      O 8427   2.934   0.156   1.382
 2739WAT     H1 8428   3.017   0.112   1.402
 2739WAT     H2 8429   2.867   0.096   1.413
 2740WAT      O 8430   4.317   2.292   3.410
 2740WAT     H1 8431   4.384   2.231   3.379
 2740WAT     H2 8432   4.306   2.271   3.503
 2741WAT      O 8433   4.357   2.459   1.919
 2741WAT     H1 8434   4.331   2.472   1.828
 2741WAT     H2 8435   4.286   2.408   1.957
 2742WAT      O 8436   1.631   5.112   1.105
 2742WAT     H1 8437   1.666   5.071   1.185
 2742WAT     H2 8438   1.626   5.205   1.126
 2743WAT      O 8439   4.069   4.451   2.571
 2743WAT     H1 8440   4.045   4.482   2.658
 2743WAT     H2 8441   4.059   4.356   2.575
 2744WAT      O 8442   2.636   4.589   3.535
 2744WAT     H1 8443   2.677   4.531   3.600
 2744WAT     H2 8444   2.555   4.618   3.576
 2745WAT      O 8445   2.580   2.261   4.047
 2745WAT     H1 8446   2.565   2.173   4.010
 2745WAT     H2 8447   2.675   2.266   4.056
 2746WAT      O 8448   0.994   1.720   2.490
 2746WAT     H1 8449   1.067   1.673   2.533
 2746WAT     H2 8450   0.927   1.653   2.479
 2747WAT      O 8451   0.611   2.522   4.471
 2747WAT     H1 8452   0.651   2.580   4.406
 2747WAT     H2 8453   0.673   2.449   4.479
 2748WAT      O 8454   1.787   4.582   4.217
 2748WAT     H1 8455   1.739   4.563   4.136
 2748WAT     H2 8456   1.801   4.497   4.257
 2749WAT      O 8457   1.837   2.601   4.409
 2749WAT     H1 8458   1.792   2.522   4.379
 2749WAT     H2 8459   1.826   2.601   4.504
 2750WAT      O 8460   2.515   0.943   0.482
 2750WAT     H1 8461   2.593   0.983   0.522
 2750WAT     H2 8462   2.504   0.861   0.529
 2751WAT      O 8463   2.904   4.779   2.967
 2751WAT     H1 8464   2.925   4.839   3.038
 2751WAT     H2 8465   2.968   4.798   2.899
 2752WAT      O 8466   1.811   1.310   5.232
 2752WAT     H1 8467   1.869   1.346   5.299
 2752WAT     H2 8468   1.723   1.327   5.265
 2753WAT      O 8469   3.421   0.081   2.512
 2753WAT     H1 8470   3.451  -0.010   2.506
 2753WAT     H2 8471   3.489   0.125   2.562
 2754WAT      O 8472   0.115   1.120   1.790
 2754WAT     H1 8473   0.170   1.053   1.830
 2754WAT     H2 8474   0.172   1.162   1.725
 2755WAT      O 8475   2.871   0.368   5.031
 2755WAT     H1 8476   2.813   0.389   5.104
 2755WAT     H2 8477   2.862   0.442   4.971
 2756WAT      O 8478   3.369   4.732   3.969
 2756WAT     H1 8479   3.454   4.695   3.946
 2756WAT     H2 8480   3.357   4.806   3.910
 2757WAT      O 8481   3.111   2.643   0.836
 2757WAT     H1 8482   3.098   2.559   0.881
 2757WAT     H2 8483   3.198   2.636   0.797
 2758WAT      O 8484   4.071   4.158   2.581
 2758WAT     H1 8485   4.057   4.153   2.487
 2758WAT     H2 8486   4.019   4.087   2.618
 2759WAT      O 8487   3.495   4.061   4.964
 2759WAT     H1 8488   3.418   4.003   4.962
 2759WAT     H2 8489   3.489   4.112   4.883
 2760WAT      O 8490   4.374   0.670   0.381
 2760WAT     H1 8491   4.301   0.653   0.322
 2760WAT     H2 8492   4.447   0.620   0.343
 2761WAT      O 8493   3.323   4.092   4.237
 2761WAT     H1 8494   3.245   4.064   4.284
 2761WAT     H2 8495   3.289   4.128   4.155
 2762WAT      O 8496   3.442   0.191   0.140
 2762WAT     H1 8497   3.354   0.172   0.106
 2762WAT     H2 8498   3.501   0.165   0.069
 2763WAT      O 8499   1.201   0.864   1.844
 2763WAT     H1 8500   1.250   0.941   1.873
 2763WAT     H2 8501   1.258   0.790   1.865
 2764WAT      O 8502   4.154   2.568   3.919
 2764WAT     H1 8503   4.249   2.559   3.933
 2764WAT     H2 8504   4.134   2.657   3.947
 2765WAT      O 8505   0.304   4.055   5.030
 2765WAT     H1 8506   0.239   3.998   4.989
 2765WAT     H2 8507   0.253   4.128   5.064
 2766WAT      O 8508   3.013   0.095   2.929
 2766WAT     H1 8509   3.065   0.176   2.933
 2766WAT     H2 8510   3.028   0.061   2.840
 2767WAT      O 8511   0.609   0.069   1.783
 2767WAT     H1 8512   0.657   0.006   1.728
 2767WAT     H2 8513   0.661   0.149   1.778
 2768WAT      O 8514   0.101   4.748   0.913
 2768WAT     H1 8515   0.030   4.803   0.945
 2768WAT     H2 8516   0.092   4.666   0.962
 2769WAT      O 8517   4.043   2.028   1.613
 2769WAT     H1 8518   4.038   2.119   1.644
 2769WAT     H2 8519   4.012   1.976   1.687
 2770WAT      O 8520   2.147   3.665   1.697
 2770WAT     H1 8521   2.083   3.656   1.768
 2770WAT     H2 8522   2.139   3.583   1.648
 2771WAT      O 8523   1.090   3.625   4.393
 2771WAT     H1 8524   1.079   3.609   4.487
 2771WAT     H2 8525   1.010   3.592   4.354
 2772WAT      O 8526   3.640   2.963   2.093
 2772WAT     H1 8527   3.613   2.950   2.002
 2772WAT     H2 8528   3.634   2.876   2.132
 2773WAT      O 8529   2.351   1.204   3.488
 2773WAT     H1 8530   2.391   1.178   3.404
 2773WAT     H2 8531   2.347   1.299   3.483
 2774WAT      O 8532   3.600   2.932   3.969
 2774WAT     H1 8533   3.650   2.854   3.946
 2774WAT     H2 8534   3.650   3.005   3.932
 2775WAT      O 8535   2.512   4.231   0.044
 2775WAT     H1 8536   2.516   4.325   0.024
 2775WAT     H2 8537   2.589   4.214   0.099
 2776WAT      O 8538   0.409   4.592   2.943
 2776WAT     H1 8539   0.399   4.592   2.847
 2776WAT     H2 8540   0.492   4.548   2.959
 2777WAT      O 8541   0.139   2.608   3.065
 2777WAT     H1 8542   0.083   2.565   3.000
 2777WAT     H2 8543   0.181   2.536   3.112
 2778WAT      O 8544   0.642   4.263   0.705
 2778WAT     H1 8545   0.635   4.243   0.798
 2778WAT     H2 8546   0.727   4.305   0.696
 2779WAT      O 8547   3.716   1.907   4.496
 2779WAT     H1 8548   3.795   1.933   4.543
 2779WAT     H2 8549   3.673   1.844   4.554
 2780WAT      O 8550   1.494   1.402   2.815
 2780WAT     H1 8551   1.562   1.336   2.831
 2780WAT     H2 8552   1.414   1.362   2.847
 2781WAT      O 8553   0.685   4.082   2.689
 2781WAT     H1 8554   0.619   4.083   2.620
 2781WAT     H2 8555   0.734   4.001   2.675
 2782WAT      O 8556   2.744   4.407   0.253
 2782WAT     H1 8557   2.666   4.387   0.305
 2782WAT     H2 8558   2.776   4.321   0.224
 2783WAT      O 8559   0.951   1.247   2.812
 2783WAT     H1 8560   1.007   1.304   2.758
 2783WAT     H2 8561   0.969   1.275   2.902
 2784WAT      O 8562   2.282   3.986   5.009
 2784WAT     H1 8563   2.285   4.067   5.059
 2784WAT     H2 8564   2.189   3.975   4.986
 2785WAT      O 8565   2.000   0.038   5.133
 2785WAT     H1 8566   1.940   0.099   5.176
 2785WAT     H2 8567   1.972   0.038   5.042
 2786WAT      O 8568   3.273   1.674   0.353
 2786WAT     H1 8569   3.267   1.748   0.293
 2786WAT     H2 8570   3.367   1.662   0.367
 2787WAT      O 8571   2.322   1.702   0.595
 2787WAT     H1 8572   2.285   1.786   0.568
 2787WAT     H2 8573   2.381   1.677   0.524
 2788WAT      O 8574   0.358   3.245   3.135
 2788WAT     H1 8575   0.421   3.262   3.205
 2788WAT     H2 8576   0.399   3.177   3.081
 2789WAT      O 8577   1.668   1.466   4.361
 2789WAT     H1 8578   1.580   1.479   4.395
 2789WAT     H2 8579   1.718   1.541   4.394
 2790WAT      O 8580   2.248   0.745   2.933
 2790WAT     H1 8581   2.270   0.734   2.841
 2790WAT     H2 8582   2.196   0.825   2.936
 2791WAT      O 8583   4.452   1.713   2.012
 2791WAT     H1 8584   4.520   1.780   2.007
 2791WAT     H2 8585   4.371   1.760   1.995
 2792WAT      O 8586   0.704   2.294   0.468
 2792WAT     H1 8587   0.777   2.337   0.512
 2792WAT     H2 8588   0.689   2.214   0.519
 2793WAT      O 8589   0.358   2.574   2.327
 2793WAT     H1 8590   0.305   2.500   2.295
 2793WAT     H2 8591   0.330   2.648   2.272
 2794WAT      O 8592   2.864   3.268   0.082
 2794WAT     H1 8593   2.816   3.248   0.001
 2794WAT     H2 8594   2.815   3.222   0.150
 2795WAT      O 8595   2.792   4.387   4.281
 2795WAT     H1 8596   2.727   4.433   4.335
 2795WAT     H2 8597   2.867   4.446   4.279
 2796WAT      O 8598   0.815   5.049   4.521
 2796WAT     H1 8599   0.818   4.954   4.512
 2796WAT     H2 8600   0.762   5.079   4.447
 2797WAT      O 8601   2.793   1.029   0.627
 2797WAT     H1 8602   2.748   1.113   0.623
 2797WAT     H2 8603   2.883   1.048   0.600
 2798WAT      O 8604   3.638   0.720   0.106
 2798WAT     H1 8605   3.625   0.642   0.160
 2798WAT     H2 8606   3.579   0.707   0.032
 2799WAT      O 8607   2.413   4.139   0.515
 2799WAT     H1 8608   2.505   4.120   0.502
 2799WAT     H2 8609   2.367   4.070   0.467
 2800WAT      O 8610   3.185   0.185   2.692
 2800WAT     H1 8611   3.251   0.247   2.723
 2800WAT     H2 8612   3.153   0.224   2.610
 2801WAT      O 8613   3.017   4.656   0.841
 2801WAT     H1 8614   3.000   4.564   0.861
 2801WAT     H2 8615   2.982   4.669   0.752
 2802WAT      O 8616   0.829   3.608   3.793
 2802WAT     H1 8617   0.822   3.535   3.855
 2802WAT     H2 8618   0.760   3.592   3.729
 2803WAT      O 8619   0.592   4.379   3.381
 2803WAT     H1 8620   0.598   4.328   3.301
 2803WAT     H2 8621   0.548   4.322   3.444
 2804WAT      O 8622   4.107   1.599   4.379
 2804WAT     H1 8623   4.143   1.541   4.312
 2804WAT     H2 8624   4.012   1.599   4.362
 2805WAT      O 8625   0.722   3.632   1.253
 2805WAT     H1 8626   0.757   3.563   1.197
 2805WAT     H2 8627   0.737   3.602   1.342
 2806WAT      O 8628   0.907   1.889   4.591
 2806WAT     H1 8629   0.913   1.979   4.559
 2806WAT     H2 8630   0.980   1.844   4.548
 2807WAT      O 8631   1.816   2.796   5.090
 2807WAT     H1 8632   1.879   2.738   5.133
 2807WAT     H2 8633   1.731   2.764   5.120
 2808WAT      O 8634   1.498   1.574   5.139
 2808WAT     H1 8635   1.466   1.559   5.050
 2808WAT     H2 8636   1.447   1.649   5.170
 2809WAT      O 8637   4.388   4.435   3.115
 2809WAT     H1 8638   4.415   4.357   3.065
 2809WAT     H2 8639   4.306   4.462   3.074
 2810WAT      O 8640   1.254   3.355   3.216
 2810WAT     H1 8641   1.230   3.266   3.189
 2810WAT     H2 8642   1.292   3.395   3.138
 2811WAT      O 8643   2.421   2.602   0.111
 2811WAT     H1 8644   2.400   2.604   0.018
 2811WAT     H2 8645   2.478   2.526   0.121
 2812WAT      O 8646   3.041   3.089   4.839
 2812WAT     H1 8647   3.123   3.070   4.884
 2812WAT     H2 8648   3.059   3.070   4.747
 2813WAT      O 8649   2.743   3.461   1.296
 2813WAT     H1 8650   2.755   3.375   1.254
 2813WAT     H2 8651   2.662   3.452   1.346
 2814WAT      O 8652   1.376   4.913   1.732
 2814WAT     H1 8653   1.433   4.877   1.664
 2814WAT     H2 8654   1.296   4.940   1.685
 2815WAT      O 8655   1.558   0.937   1.907
 2815WAT     H1 8656   1.546   0.855   1.859
 2815WAT     H2 8657   1.566   1.003   1.839
 2816WAT      O 8658   1.680   5.103   3.861
 2816WAT     H1 8659   1.629   5.089   3.781
 2816WAT     H2 8660   1.679   5.198   3.874
 2817WAT      O 8661   2.005   0.256   3.841
 2817WAT     H1 8662   1.945   0.196   3.886
 2817WAT     H2 8663   2.050   0.202   3.777
 2818WAT      O 8664   3.743   3.959   4.510
 2818WAT     H1 8665   3.654   3.989   4.496
 2818WAT     H2 8666   3.768   3.917   4.427
 2819WAT      O 8667   4.365   4.947   0.179
 2819WAT     H1 8668   4.401   4.964   0.266
 2819WAT     H2 8669   4.400   5.016   0.124
 2820WAT      O 8670   2.489   4.984   3.838
 2820WAT     H1 8671   2.506   5.077   3.847
 2820WAT     H2 8672   2.573   4.942   3.857
 2821WAT      O 8673   3.066   4.605   4.693
 2821WAT     H1 8674   3.103   4.565   4.772
 2821WAT     H2 8675   2.975   4.577   4.693
 2822WAT      O 8676   0.742   0.794   3.533
 2822WAT     H1 8677   0.759   0.734   3.606
 2822WAT     H2 8678   0.815   0.780   3.472
 2823WAT      O 8679   3.625   4.253   4.783
 2823WAT     H1 8680   3.707   4.213   4.810
 2823WAT     H2 8681   3.640   4.347   4.791
 2824WAT      O 8682   0.833   4.265   2.401
 2824WAT     H1 8683   0.827   4.171   2.416
 2824WAT     H2 8684   0.749   4.288   2.361
 2825WAT      O 8685   3.480   4.920   3.174
 2825WAT     H1 8686   3.443   4.996   3.219
 2825WAT     H2 8687   3.477   4.850   3.239
 2826WAT      O 8688   2.423   2.826   1.786
 2826WAT     H1 8689   2.518   2.815   1.786
 2826WAT     H2 8690   2.408   2.905   1.838
 2827WAT      O 8691   1.093   2.750   3.522
 2827WAT     H1 8692   1.009   2.794   3.539
 2827WAT     H2 8693   1.110   2.701   3.602
 2828WAT      O 8694   2.137   0.388   5.281
 2828WAT     H1 8695   2.112   0.477   5.303
 2828WAT     H2 8696   2.178   0.395   5.195
 2829WAT      O 8697   1.352   1.138   1.925
 2829WAT     H1 8698   1.414   1.068   1.943
 2829WAT     H2 8699   1.404   1.206   1.883
 2830WAT      O 8700   3.977   3.828   3.948
 2830WAT     H1 8701   3.945   3.793   3.865
 2830WAT     H2 8702   3.924   3.785   4.014
 2831WAT      O 8703   4.381   2.329   4.729
 2831WAT     H1 8704   4.448   2.376   4.779
 2831WAT     H2 8705   4.326   2.288   4.796
 2832WAT      O 8706   3.275   2.022   4.747
 2832WAT     H1 8707   3.362   1.992   4.774
 2832WAT     H2 8708   3.220   2.007   4.823
 2833WAT      O 8709   0.408   3.714   1.314
 2833WAT     H1 8710   0.501   3.689   1.309
 2833WAT     H2 8711   0.389   3.750   1.228
 2834WAT      O 8712   4.033   4.061   3.789
 2834WAT     H1 8713   4.007   4.002   3.859
 2834WAT     H2 8714   4.112   4.105   3.822
 2835WAT      O 8715   1.802   2.286   1.479
 2835WAT     H1 8716   1.710   2.303   1.497
 2835WAT     H2 8717   1.832   2.233   1.553
 2836WAT      O 8718   0.210   2.510   3.338
 2836WAT     H1 8719   0.212   2.477   3.428
 2836WAT     H2 8720   0.247   2.438   3.286
 2837WAT      O 8721   0.419   4.998   4.473
 2837WAT     H1 8722   0.361   4.948   4.416
 2837WAT     H2 8723   0.385   4.983   4.561
 2838WAT      O 8724   2.461   2.682   4.823
 2838WAT     H1 8725   2.524   2.754   4.830
 2838WAT     H2 8726   2.496   2.626   4.753
 2839WAT      O 8727   0.398   5.103   2.266
 2839WAT     H1 8728   0.418   5.131   2.176
 2839WAT     H2 8729   0.306   5.078   2.264
 2840WAT      O 8730   2.049   0.233   2.395
 2840WAT     H1 8731   2.008   0.281   2.466
 2840WAT     H2 8732   2.009   0.146   2.399
 2841WAT      O 8733   0.463   4.768   3.897
 2841WAT     H1 8734   0.479   4.674   3.905
 2841WAT     H2 8735   0.503   4.806   3.975
 2842WAT      O 8736   0.839   1.471   4.992
 2842WAT     H1 8737   0.798   1.477   4.905
 2842WAT     H2 8738   0.919   1.420   4.977
 2843WAT      O 8739   2.544   3.601   4.438
 2843WAT     H1 8740   2.525   3.677   4.492
 2843WAT     H2 8741   2.572   3.534   4.500
 2844WAT      O 8742   0.475   1.736   0.490
 2844WAT     H1 8743   0.567   1.711   0.494
 2844WAT     H2 8744   0.461   1.764   0.400
 2845WAT      O 8745   1.569   3.320   4.401
 2845WAT     H1 8746   1.519   3.251   4.358
 2845WAT     H2 8747   1.567   3.393   4.338
 2846WAT      O 8748   1.637   2.267   4.664
 2846WAT     H1 8749   1.591   2.352   4.664
 2846WAT     H2 8750   1.628   2.236   4.574
 2847WAT      O 8751   4.430   3.660   0.713
 2847WAT     H1 8752   4.475   3.649   0.797
 2847WAT     H2 8753   4.417   3.755   0.706
 2848WAT      O 8754   3.995   0.861   1.399
 2848WAT     H1 8755   4.054   0.800   1.353
 2848WAT     H2 8756   3.976   0.817   1.482
 2849WAT      O 8757   0.891   1.518   2.088
 2849WAT     H1 8758   0.872   1.488   2.000
 2849WAT     H2 8759   0.893   1.438   2.141
 2850WAT      O 8760   1.334   0.074   4.975
 2850WAT     H1 8761   1.421   0.089   5.013
 2850WAT     H2 8762   1.350   0.070   4.880
 2851WAT      O 8763   0.768   2.186   3.730
 2851WAT     H1 8764   0.845   2.138   3.701
 2851WAT     H2 8765   0.784   2.203   3.823
 2852WAT      O 8766   3.702   0.635   3.428
 2852WAT     H1 8767   3.749   0.569   3.377
 2852WAT     H2 8768   3.759   0.712   3.426
 2853WAT      O 8769   4.375   2.111   0.190
 2853WAT     H1 8770   4.288   2.148   0.178
 2853WAT     H2 8771   4.427   2.183   0.225
 2854WAT      O 8772   0.362   1.143   0.513
 2854WAT     H1 8773   0.315   1.067   0.480
 2854WAT     H2 8774   0.319   1.218   0.472
 2855WAT      O 8775   1.775   0.687   4.524
 2855WAT     H1 8776   1.827   0.745   4.579
 2855WAT     H2 8777   1.800   0.599   4.552
 2856WAT      O 8778   4.513   0.625   2.882
 2856WAT     H1 8779   4.437   0.614   2.940
 2856WAT     H2 8780   4.505   0.553   2.818
 2857WAT      O 8781   2.836   4.390   1.446
 2857WAT     H1 8782   2.832   4.318   1.383
 2857WAT     H2 8783   2.761   4.445   1.426
 2858WAT      O 8784   0.431   2.358   4.272
 2858WAT     H1 8785   0.466   2.426   4.329
 2858WAT     H2 8786   0.378   2.405   4.207
 2859WAT      O 8787   0.599   4.274   3.134
 2859WAT     H1 8788   0.637   4.199   3.090
 2859WAT     H2 8789   0.506   4.271   3.111
 2860WAT      O 8790   4.410   3.532   2.957
 2860WAT     H1 8791   4.369   3.483   2.885
 2860WAT     H2 8792   4.342   3.592   2.987
 2861WAT      O 8793   3.818   3.146   5.123
 2861WAT     H1 8794   3.831   3.236   5.095
 2861WAT     H2 8795   3.831   3.094   5.044
 2862WAT      O 8796   2.383   4.793   5.137
 2862WAT     H1 8797   2.333   4.773   5.217
 2862WAT     H2 8798   2.386   4.889   5.135
 2863WAT      O 8799   2.179   0.951   4.209
 2863WAT     H1 8800   2.191   1.040   4.242
 2863WAT     H2 8801   2.220   0.952   4.123
 2864WAT      O 8802   4.184   2.854   1.850
 2864WAT     H1 8803   4.195   2.812   1.935
 2864WAT     H2 8804   4.146   2.940   1.870
 2865WAT      O 8805   0.098   0.868   2.909
 2865WAT     H1 8806   0.142   0.870   2.995
 2865WAT     H2 8807   0.068   0.778   2.900
 2866WAT      O 8808   4.366   2.092   2.210
 2866WAT     H1 8809   4.416   2.044   2.276
 2866WAT     H2 8810   4.283   2.044   2.203
 2867WAT      O 8811   2.081   1.180   0.486
 2867WAT     H1 8812   2.049   1.268   0.464
 2867WAT     H2 8813   2.175   1.184   0.467
 2868WAT      O 8814   1.785   0.798   0.554
 2868WAT     H1 8815   1.736   0.728   0.597
 2868WAT     H2 8816   1.734   0.877   0.571
 2869WAT      O 8817   2.844   1.718   2.238
 2869WAT     H1 8818   2.891   1.641   2.272
 2869WAT     H2 8819   2.847   1.708   2.143
 2870WAT      O 8820   3.918   1.144   2.886
 2870WAT     H1 8821   4.009   1.136   2.857
 2870WAT     H2 8822   3.880   1.210   2.829
 2871WAT      O 8823   1.753   1.343   0.445
 2871WAT     H1 8824   1.683   1.373   0.387
 2871WAT     H2 8825   1.770   1.417   0.503
 2872WAT      O 8826   2.404   3.052   1.312
 2872WAT     H1 8827   2.378   2.999   1.236
 2872WAT     H2 8828   2.324   3.060   1.364
 2873WAT      O 8829   1.239   0.432   0.415
 2873WAT     H1 8830   1.300   0.404   0.346
 2873WAT     H2 8831   1.228   0.526   0.401
 2874WAT      O 8832   4.502   0.863   5.071
 2874WAT     H1 8833   4.413   0.898   5.073
 2874WAT     H2 8834   4.532   0.867   5.161
 2875WAT      O 8835   0.207   4.456   2.315
 2875WAT     H1 8836   0.139   4.489   2.374
 2875WAT     H2 8837   0.230   4.532   2.260
 2876WAT      O 8838   4.053   1.151   0.377
 2876WAT     H1 8839   4.136   1.186   0.343
 2876WAT     H2 8840   3.990   1.166   0.307
 2877WAT      O 8841   2.820   4.052   4.316
 2877WAT     H1 8842   2.828   4.139   4.355
 2877WAT     H2 8843   2.752   4.062   4.249
 2878WAT      O 8844   2.129   1.824   2.621
 2878WAT     H1 8845   2.188   1.749   2.628
 2878WAT     H2 8846   2.187   1.899   2.614
 2879WAT      O 8847   1.539   3.899   0.008
 2879WAT     H1 8848   1.598   3.879  -0.066
 2879WAT     H2 8849   1.451   3.886  -0.028
 2880WAT      O 8850   0.258   0.979   4.984
 2880WAT     H1 8851   0.255   0.930   4.902
 2880WAT     H2 8852   0.166   0.990   5.009
 2881WAT      O 8853   3.072   4.455   1.844
 2881WAT     H1 8854   3.096   4.394   1.774
 2881WAT     H2 8855   3.130   4.530   1.830
 2882WAT      O 8856   2.097   2.277   0.882
 2882WAT     H1 8857   2.159   2.205   0.876
 2882WAT     H2 8858   2.151   2.356   0.875
 2883WAT      O 8859   4.367   4.563   5.162
 2883WAT     H1 8860   4.375   4.644   5.211
 2883WAT     H2 8861   4.339   4.590   5.075
 2884WAT      O 8862   1.983   5.012   0.629
 2884WAT     H1 8863   1.897   5.046   0.604
 2884WAT     H2 8864   2.034   5.014   0.547
 2885WAT      O 8865   3.425   1.239   1.244
 2885WAT     H1 8866   3.456   1.227   1.155
 2885WAT     H2 8867   3.494   1.289   1.287
 2886WAT      O 8868   2.654   2.668   5.004
 2886WAT     H1 8869   2.642   2.601   5.071
 2886WAT     H2 8870   2.576   2.662   4.949
 2887WAT      O 8871   0.045   2.197   0.764
 2887WAT     H1 8872  -0.013   2.237   0.830
 2887WAT     H2 8873   0.085   2.271   0.719
 2888WAT      O 8874   3.199   2.207   4.563
 2888WAT     H1 8875   3.231   2.134   4.616
 2888WAT     H2 8876   3.264   2.276   4.576
 2889WAT      O 8877   2.825   4.114   1.540
 2889WAT     H1 8878   2.815   4.176   1.612
 2889WAT     H2 8879   2.797   4.163   1.463
 2890WAT      O 8880   2.819   0.315   4.469
 2890WAT     H1 8881   2.881   0.361   4.525
 2890WAT     H2 8882   2.806   0.230   4.511
 2891WAT      O 8883   0.468   3.065   0.538
 2891WAT     H1 8884   0.508   3.109   0.613
 2891WAT     H2 8885   0.534   3.002   0.509
 2892WAT      O 8886   4.218   0.029   2.843
 2892WAT     H1 8887   4.213  -0.054   2.796
 2892WAT     H2 8888   4.272   0.011   2.920
 2893WAT      O 8889   1.506   4.080   0.883
 2893WAT     H1 8890   1.597   4.051   0.879
 2893WAT     H2 8891   1.466   4.045   0.804
 2894WAT      O 8892   1.357   0.690   0.364
 2894WAT     H1 8893   1.389   0.682   0.453
 2894WAT     H2 8894   1.436   0.706   0.311
 2895WAT      O 8895   2.507   4.143   2.727
 2895WAT     H1 8896   2.567   4.217   2.715
 2895WAT     H2 8897   2.423   4.183   2.747
 2896WAT      O 8898   1.447   0.869   4.099
 2896WAT     H1 8899   1.530   0.858   4.052
 2896WAT     H2 8900   1.469   0.848   4.190
 2897WAT      O 8901   2.400   1.582   3.624
 2897WAT     H1 8902   2.489   1.574   3.591
 2897WAT     H2 8903   2.377   1.674   3.612
 2898WAT      O 8904   0.023   4.838   3.445
 2898WAT     H1 8905  -0.013   4.922   3.474
 2898WAT     H2 8906   0.100   4.825   3.500
 2899WAT      O 8907   3.954   1.842   1.814
 2899WAT     H1 8908   3.977   1.810   1.727
 2899WAT     H2 8909   3.953   1.763   1.869
 2900WAT      O 8910   3.826   4.512   4.574
 2900WAT     H1 8911   3.801   4.543   4.487
 2900WAT     H2 8912   3.831   4.417   4.565
 2901WAT      O 8913   2.454   1.631   0.813
 2901WAT     H1 8914   2.391   1.576   0.859
 2901WAT     H2 8915   2.401   1.679   0.748
 2902WAT      O 8916   2.167   3.756   2.035
 2902WAT     H1 8917   2.237   3.815   2.065
 2902WAT     H2 8918   2.180   3.677   2.087
 2903WAT      O 8919   1.939   1.923   2.850
 2903WAT     H1 8920   2.004   1.854   2.866
 2903WAT     H2 8921   1.986   1.990   2.801
 2904WAT      O 8922   1.690   1.217   2.773
 2904WAT     H1 8923   1.719   1.148   2.713
 2904WAT     H2 8924   1.688   1.175   2.859
 2905WAT      O 8925   2.560   2.703   4.180
 2905WAT     H1 8926   2.601   2.786   4.158
 2905WAT     H2 8927   2.488   2.727   4.239
 2906WAT      O 8928   0.434   3.473   2.959
 2906WAT     H1 8929   0.407   3.391   3.001
 2906WAT     H2 8930   0.529   3.465   2.949
 2907WAT      O 8931   1.307   2.917   0.282
 2907WAT     H1 8932   1.265   3.001   0.264
 2907WAT     H2 8933   1.397   2.939   0.304
 2908WAT      O 8934   4.470   1.559   0.242
 2908WAT     H1 8935   4.547   1.543   0.297
 2908WAT     H2 8936   4.460   1.655   0.242
 2909WAT      O 8937   2.406   4.806   1.606
 2909WAT     H1 8938   2.399   4.854   1.689
 2909WAT     H2 8939   2.462   4.861   1.551
 2910WAT      O 8940   3.227   4.631   0.105
 2910WAT     H1 8941   3.239   4.645   0.011
 2910WAT     H2 8942   3.162   4.561   0.111
 2911WAT      O 8943   3.658   2.291   4.139
 2911WAT     H1 8944   3.605   2.238   4.080
 2911WAT     H2 8945   3.666   2.376   4.095
 2912WAT      O 8946   3.711   1.577   2.118
 2912WAT     H1 8947   3.645   1.536   2.063
 2912WAT     H2 8948   3.773   1.616   2.056
 2913WAT      O 8949   1.600   2.353   0.792
 2913WAT     H1 8950   1.627   2.304   0.870
 2913WAT     H2 8951   1.568   2.437   0.826
 2914WAT      O 8952   1.300   3.688   2.902
 2914WAT     H1 8953   1.346   3.616   2.946
 2914WAT     H2 8954   1.359   3.716   2.832
 2915WAT      O 8955   4.494   0.661   5.276
 2915WAT     H1 8956   4.415   0.606   5.271
 2915WAT     H2 8957   4.566   0.599   5.267
 2916WAT      O 8958   2.172   2.388   3.959
 2916WAT     H1 8959   2.180   2.447   4.035
 2916WAT     H2 8960   2.258   2.392   3.917
 2917WAT      O 8961   1.888   4.458   4.806
 2917WAT     H1 8962   1.878   4.524   4.736
 2917WAT     H2 8963   1.978   4.428   4.797
 2918WAT      O 8964   2.533   0.966   4.778
 2918WAT     H1 8965   2.550   1.054   4.746
 2918WAT     H2 8966   2.437   0.958   4.778
 2919WAT      O 8967   1.730   3.073   3.147
 2919WAT     H1 8968   1.790   3.132   3.192
 2919WAT     H2 8969   1.669   3.044   3.215
 2920WAT      O 8970   4.305   0.325   3.376
 2920WAT     H1 8971   4.256   0.407   3.366
 2920WAT     H2 8972   4.364   0.342   3.450
 2921WAT      O 8973   3.450   4.625   2.748
 2921WAT     H1 8974   3.532   4.576   2.742
 2921WAT     H2 8975   3.471   4.698   2.807
 2922WAT      O 8976   3.030   4.521   4.249
 2922WAT     H1 8977   3.094   4.587   4.223
 2922WAT     H2 8978   3.069   4.477   4.324
 2923WAT      O 8979   1.465   0.937   2.896
 2923WAT     H1 8980   1.526   0.994   2.943
 2923WAT     H2 8981   1.495   0.848   2.917
 2924WAT      O 8982   2.584   2.377   0.156
 2924WAT     H1 8983   2.679   2.380   0.152
 2924WAT     H2 8984   2.564   2.304   0.214
 2925WAT      O 8985   1.874   3.865   0.194
 2925WAT     H1 8986   1.889   3.777   0.229
 2925WAT     H2 8987   1.943   3.918   0.233
 2926WAT      O 8988   0.944   0.076   1.130
 2926WAT     H1 8989   0.935   0.171   1.130
 2926WAT     H2 8990   1.028   0.059   1.171
 2927WAT      O 8991   3.862   1.227   3.846
 2927WAT     H1 8992   3.882   1.298   3.908
 2927WAT     H2 8993   3.875   1.147   3.897
 2928WAT      O 8994   4.166   3.704   1.784
 2928WAT     H1 8995   4.102   3.753   1.731
 2928WAT     H2 8996   4.120   3.623   1.806
 2929WAT      O 8997   4.188   0.325   4.434
 2929WAT     H1 8998   4.178   0.420   4.442
 2929WAT     H2 8999   4.235   0.313   4.351
 2930WAT      O 9000   4.391   1.031   1.915
 2930WAT     H1 9001   4.484   1.053   1.917
 2930WAT     H2 9002   4.347   1.106   1.955
 2931WAT      O 9003   2.412   1.434   1.226
 2931WAT     H1 9004   2.440   1.351   1.263
 2931WAT     H2 9005   2.493   1.477   1.199
 2932WAT      O 9006   1.935   0.947   5.063
 2932WAT     H1 9007   1.886   1.016   5.017
 2932WAT     H2 9008   1.945   0.980   5.152
 2933WAT      O 9009   4.136   4.216   3.313
 2933WAT     H1 9010   4.124   4.148   3.379
 2933WAT     H2 9011   4.227   4.206   3.285
 2934WAT      O 9012   1.166   3.723   3.935
 2934WAT     H1 9013   1.225   3.720   3.859
 2934WAT     H2 9014   1.146   3.631   3.954
 2935WAT      O 9015   2.872   1.488   4.239
 2935WAT     H1 9016   2.854   1.562   4.297
 2935WAT     H2 9017   2.804   1.493   4.172
 2936WAT      O 9018   2.643   1.381   3.060
 2936WAT     H1 9019   2.651   1.367   3.155
 2936WAT     H2 9020   2.625   1.293   3.025
 2937WAT      O 9021   1.123   0.663   3.232
 2937WAT     H1 9022   1.065   0.719   3.283
 2937WAT     H2 9023   1.082   0.657   3.146
 2938WAT      O 9024   0.299   1.144   3.682
 2938WAT     H1 9025   0.345   1.175   3.760
 2938WAT     H2 9026   0.314   1.212   3.616
 2939WAT      O 9027   3.814   3.887   0.942
 2939WAT     H1 9028   3.803   3.981   0.955
 2939WAT     H2 9029   3.868   3.879   0.864
 2940WAT      O 9030   1.783   2.596   4.677
 2940WAT     H1 9031   1.858   2.589   4.735
 2940WAT     H2 9032   1.707   2.587   4.734
 2941WAT      O 9033   3.910   3.754   0.163
 2941WAT     H1 9034   3.991   3.762   0.112
 2941WAT     H2 9035   3.873   3.670   0.136
 2942WAT      O 9036   3.540   4.853   0.118
 2942WAT     H1 9037   3.549   4.758   0.131
 2942WAT     H2 9038   3.628   4.887   0.133
 2943WAT      O 9039   3.683   0.638   4.528
 2943WAT     H1 9040   3.661   0.728   4.550
 2943WAT     H2 9041   3.712   0.642   4.437
 2944WAT      O 9042   3.930   1.936   3.851
 2944WAT     H1 9043   3.972   1.958   3.934
 2944WAT     H2 9044   3.856   1.996   3.845
 2945WAT      O 9045   0.233   2.360   1.795
 2945WAT     H1 9046   0.240   2.393   1.705
 2945WAT     H2 9047   0.160   2.409   1.833
 2946WAT      O 9048   0.845   1.625   2.774
 2946WAT     H1 9049   0.911   1.691   2.754
 2946WAT     H2 9050   0.858   1.606   2.867
 2947WAT      O 9051   0.172   3.922   0.669
 2947WAT     H1 9052   0.176   3.828   0.651
 2947WAT     H2 9053   0.264   3.950   0.668
 2948WAT      O 9054   4.443   1.743   1.128
 2948WAT     H1 9055   4.440   1.830   1.169
 2948WAT     H2 9056   4.505   1.753   1.056
 2949WAT      O 9057   3.008   3.698   3.253
 2949WAT     H1 9058   2.944   3.692   3.324
 2949WAT     H2 9059   3.015   3.792   3.235
 2950WAT      O 9060   0.775   2.139   1.523
 2950WAT     H1 9061   0.766   2.226   1.485
 2950WAT     H2 9062   0.728   2.144   1.606
 2951WAT      O 9063   1.212   1.710   3.654
 2951WAT     H1 9064   1.188   1.641   3.591
 2951WAT     H2 9065   1.133   1.724   3.706
 2952WAT      O 9066   4.230   2.508   4.591
 2952WAT     H1 9067   4.168   2.488   4.521
 2952WAT     H2 9068   4.268   2.423   4.613
 2953WAT      O 9069   1.961   3.185   1.189
 2953WAT     H1 9070   1.895   3.219   1.129
 2953WAT     H2 9071   1.915   3.174   1.272
 2954WAT      O 9072   2.753   4.458   3.739
 2954WAT     H1 9073   2.713   4.460   3.826
 2954WAT     H2 9074   2.831   4.512   3.747
 2955WAT      O 9075   0.516   4.729   4.612
 2955WAT     H1 9076   0.540   4.804   4.666
 2955WAT     H2 9077   0.427   4.707   4.638
 2956WAT      O 9078   1.036   0.456   1.332
 2956WAT     H1 9079   1.117   0.405   1.341
 2956WAT     H2 9080   1.058   0.542   1.369
 2957WAT      O 9081   1.164   4.139   0.966
 2957WAT     H1 9082   1.114   4.071   1.011
 2957WAT     H2 9083   1.179   4.103   0.878
 2958WAT      O 9084   1.548   2.815   2.225
 2958WAT     H1 9085   1.540   2.789   2.133
 2958WAT     H2 9086   1.543   2.910   2.224
 2959WAT      O 9087   3.696   0.221   2.147
 2959WAT     H1 9088   3.691   0.288   2.080
 2959WAT     H2 9089   3.616   0.171   2.138
 2960WAT      O 9090   3.329   1.246   1.721
 2960WAT     H1 9091   3.260   1.199   1.674
 2960WAT     H2 9092   3.284   1.318   1.766
 2961WAT      O 9093   3.121   2.986   1.587
 2961WAT     H1 9094   3.026   2.975   1.599
 2961WAT     H2 9095   3.133   2.992   1.493
 2962WAT      O 9096   2.908   4.898   5.008
 2962WAT     H1 9097   2.888   4.954   5.084
 2962WAT     H2 9098   2.826   4.853   4.990
 2963WAT      O 9099   1.438   1.205   0.626
 2963WAT     H1 9100   1.359   1.173   0.669
 2963WAT     H2 9101   1.451   1.293   0.663
 2964WAT      O 9102   3.168   3.247   0.363
 2964WAT     H1 9103   3.130   3.169   0.321
 2964WAT     H2 9104   3.114   3.260   0.441
 2965WAT      O 9105   1.312   1.237   3.289
 2965WAT     H1 9106   1.235   1.294   3.295
 2965WAT     H2 9107   1.299   1.173   3.358
 2966WAT      O 9108   4.331   4.457   4.001
 2966WAT     H1 9109   4.398   4.399   3.965
 2966WAT     H2 9110   4.327   4.531   3.940
 2967WAT      O 9111   4.358   4.140   4.933
 2967WAT     H1 9112   4.386   4.210   4.992
 2967WAT     H2 9113   4.347   4.183   4.848
 2968WAT      O 9114   0.877   0.189   2.340
 2968WAT     H1 9115   0.787   0.221   2.347
 2968WAT     H2 9116   0.905   0.174   2.430
 2969WAT      O 9117   0.829   3.283   1.324
 2969WAT     H1 9118   0.759   3.291   1.260
 2969WAT     H2 9119   0.869   3.198   1.306
 2970WAT      O 9120   3.242   2.437   1.517
 2970WAT     H1 9121   3.274   2.367   1.460
 2970WAT     H2 9122   3.302   2.435   1.592
 2971WAT      O 9123   1.603   1.805   0.147
 2971WAT     H1 9124   1.543   1.738   0.181
 2971WAT     H2 9125   1.579   1.814   0.055
 2972WAT      O 9126   3.306   1.642   3.024
 2972WAT     H1 9127   3.285   1.566   3.077
 2972WAT     H2 9128   3.391   1.672   3.056
 2973WAT      O 9129   2.581   0.333   2.847
 2973WAT     H1 9130   2.628   0.316   2.765
 2973WAT     H2 9131   2.489   0.315   2.826
 2974WAT      O 9132   1.195   1.421   3.987
 2974WAT     H1 9133   1.207   1.333   4.022
 2974WAT     H2 9134   1.280   1.442   3.947
 2975WAT      O 9135   3.485   3.534   5.035
 2975WAT     H1 9136   3.501   3.495   5.121
 2975WAT     H2 9137   3.391   3.524   5.021
 2976WAT      O 9138   1.606   2.853   4.300
 2976WAT     H1 9139   1.632   2.761   4.291
 2976WAT     H2 9140   1.687   2.899   4.322
 2977WAT      O 9141   0.974   3.041   3.909
 2977WAT     H1 9142   1.028   2.964   3.925
 2977WAT     H2 9143   1.021   3.089   3.841
 2978WAT      O 9144   0.208   3.897   3.707
 2978WAT     H1 9145   0.157   3.863   3.781
 2978WAT     H2 9146   0.219   3.821   3.649
 2979WAT      O 9147   0.593   1.173   3.821
 2979WAT     H1 9148   0.504   1.157   3.854
 2979WAT     H2 9149   0.593   1.133   3.734
 2980WAT      O 9150   0.596   2.372   3.636
 2980WAT     H1 9151   0.647   2.453   3.627
 2980WAT     H2 9152   0.662   2.303   3.645
 2981WAT      O 9153   1.955   1.422   2.565
 2981WAT     H1 9154   1.874   1.449   2.609
 2981WAT     H2 9155   1.944   1.450   2.474
 2982WAT      O 9156   1.218   2.846   3.902
 2982WAT     H1 9157   1.201   2.754   3.883
 2982WAT     H2 9158   1.271   2.844   3.982
 2983WAT      O 9159   0.599   1.101   2.628
 2983WAT     H1 9160   0.506   1.078   2.637
 2983WAT     H2 9161   0.607   1.186   2.669
 2984WAT      O 9162   3.917   1.222   3.302
 2984WAT     H1 9163   3.895   1.310   3.273
 2984WAT     H2 9164   3.929   1.230   3.396
 2985WAT      O 9165   0.868   4.034   1.646
 2985WAT     H1 9166   0.955   4.002   1.672
 2985WAT     H2 9167   0.835   4.077   1.725
 2986WAT      O 9168   3.368   5.043   0.805
 2986WAT     H1 9169   3.372   5.133   0.773
 2986WAT     H2 9170   3.407   4.991   0.736
 2987WAT      O 9171   3.468   3.418   2.058
 2987WAT     H1 9172   3.455   3.416   1.963
 2987WAT     H2 9173   3.536   3.352   2.074
 2988WAT      O 9174   1.759   2.366   4.323
 2988WAT     H1 9175   1.747   2.273   4.341
 2988WAT     H2 9176   1.804   2.368   4.239
 2989WAT      O 9177   1.194   1.772   0.526
 2989WAT     H1 9178   1.278   1.737   0.554
 2989WAT     H2 9179   1.178   1.846   0.585
 2990WAT      O 9180   1.806   2.078   5.143
 2990WAT     H1 9181   1.742   2.115   5.204
 2990WAT     H2 9182   1.754   2.036   5.075
 2991WAT      O 9183   3.616   2.494   0.183
 2991WAT     H1 9184   3.589   2.469   0.095
 2991WAT     H2 9185   3.612   2.590   0.183
 2992WAT      O 9186   1.558   2.691   5.115
 2992WAT     H1 9187   1.463   2.689   5.130
 2992WAT     H2 9188   1.569   2.657   5.027
 2993WAT      O 9189   2.921   3.224   4.051
 2993WAT     H1 9190   2.999   3.206   4.104
 2993WAT     H2 9191   2.853   3.243   4.114
 2994WAT      O 9192   0.673   0.041   0.321
 2994WAT     H1 9193   0.660   0.094   0.400
 2994WAT     H2 9194   0.767   0.026   0.317
 2995WAT      O 9195   1.344   1.734   4.073
 2995WAT     H1 9196   1.343   1.667   4.141
 2995WAT     H2 9197   1.253   1.763   4.067
 2996WAT      O 9198   3.054   0.141   1.913
 2996WAT     H1 9199   2.994   0.208   1.879
 2996WAT     H2 9200   3.122   0.191   1.959
 2997WAT      O 9201   1.618   3.437   1.966
 2997WAT     H1 9202   1.582   3.383   1.897
 2997WAT     H2 9203   1.697   3.391   1.994
 2998WAT      O 9204   2.622   0.818   2.703
 2998WAT     H1 9205   2.699   0.868   2.730
 2998WAT     H2 9206   2.626   0.738   2.756
 2999WAT      O 9207   4.191   1.547   3.952
 2999WAT     H1 9208   4.220   1.631   3.987
 2999WAT     H2 9209   4.195   1.487   4.027
 3000WAT      O 9210   2.259   0.372   0.280
 3000WAT     H1 9211   2.266   0.392   0.187
 3000WAT     H2 9212   2.180   0.419   0.309
 3001WAT      O 9213   1.439   5.007   2.998
 3001WAT     H1 9214   1.351   4.968   2.990
 3001WAT     H2 9215   1.426   5.099   2.978
 3002WAT      O 9216   3.672   3.130   1.551
 3002WAT     H1 9217   3.666   3.199   1.618
 3002WAT     H2 9218   3.581   3.104   1.536
 3003WAT      O 9219   4.099   4.770   1.598
 3003WAT     H1 9220   4.192   4.752   1.585
 3003WAT     H2 9221   4.054   4.706   1.542
 3004WAT      O 9222   4.336   3.182   4.703
 3004WAT     H1 9223   4.274   3.222   4.642
 3004WAT     H2 9224   4.358   3.098   4.664
 3005WAT      O 9225   1.715   5.086   3.352
 3005WAT     H1 9226   1.648   5.045   3.297
 3005WAT     H2 9227   1.675   5.169   3.380
 3006WAT      O 9228   4.459   3.186   0.679
 3006WAT     H1 9229   4.413   3.162   0.760
 3006WAT     H2 9230   4.434   3.118   0.616
 3007WAT      O 9231   0.939   2.912   4.207
 3007WAT     H1 9232   0.964   2.875   4.122
 3007WAT     H2 9233   0.844   2.912   4.206
 3008WAT      O 9234   0.721   0.404   4.928
 3008WAT     H1 9235   0.677   0.321   4.913
 3008WAT     H2 9236   0.684   0.463   4.862
 3009WAT      O 9237   2.605   3.660   3.459
 3009WAT     H1 9238   2.565   3.590   3.408
 3009WAT     H2 9239   2.696   3.633   3.471
 3010WAT      O 9240   4.197   1.049   3.202
 3010WAT     H1 9241   4.149   1.129   3.222
 3010WAT     H2 9242   4.288   1.078   3.190
 3011WAT      O 9243   2.869   4.360   2.306
 3011WAT     H1 9244   2.837   4.277   2.343
 3011WAT     H2 9245   2.805   4.425   2.335
 3012WAT      O 9246   2.696   4.799   3.871
 3012WAT     H1 9247   2.676   4.767   3.783
 3012WAT     H2 9248   2.719   4.720   3.921
 3013WAT      O 9249   1.996   0.161   3.570
 3013WAT     H1 9250   2.035   0.248   3.563
 3013WAT     H2 9251   1.902   0.176   3.566
 3014WAT      O 9252   3.578   1.857   4.232
 3014WAT     H1 9253   3.563   1.902   4.314
 3014WAT     H2 9254   3.662   1.813   4.243
 3015WAT      O 9255   3.581   5.127   4.982
 3015WAT     H1 9256   3.589   5.049   5.037
 3015WAT     H2 9257   3.496   5.164   5.004
 3016WAT      O 9258   3.408   0.743   2.236
 3016WAT     H1 9259   3.502   0.732   2.246
 3016WAT     H2 9260   3.398   0.834   2.206
 3017WAT      O 9261   3.871   4.633   5.202
 3017WAT     H1 9262   3.797   4.651   5.260
 3017WAT     H2 9263   3.939   4.599   5.260
 3018WAT      O 9264   3.949   4.455   4.980
 3018WAT     H1 9265   3.911   4.371   5.004
 3018WAT     H2 9266   3.899   4.520   5.030
 3019WAT      O 9267   2.689   4.284   0.932
 3019WAT     H1 9268   2.699   4.195   0.899
 3019WAT     H2 9269   2.765   4.331   0.897
 3020WAT      O 9270   2.889   2.556   0.341
 3020WAT     H1 9271   2.909   2.647   0.361
 3020WAT     H2 9272   2.892   2.511   0.426
 3021WAT      O 9273   0.377   2.425   2.023
 3021WAT     H1 9274   0.324   2.398   1.947
 3021WAT     H2 9275   0.379   2.347   2.079
 3022WAT      O 9276   2.929   1.527   2.616
 3022WAT     H1 9277   2.837   1.541   2.638
 3022WAT     H2 9278   2.977   1.581   2.678
 3023WAT      O 9279   2.393   2.096   5.126
 3023WAT     H1 9280   2.328   2.065   5.064
 3023WAT     H2 9281   2.437   2.168   5.081
 3024WAT      O 9282   2.416   0.172   5.003
 3024WAT     H1 9283   2.477   0.209   4.938
 3024WAT     H2 9284   2.331   0.210   4.981
 3025WAT      O 9285   1.831   5.095   2.193
 3025WAT     H1 9286   1.887   5.090   2.270
 3025WAT     H2 9287   1.804   5.004   2.177
 3026WAT      O 9288   1.891   2.054   3.918
 3026WAT     H1 9289   1.884   1.972   3.869
 3026WAT     H2 9290   1.983   2.060   3.944
 3027WAT      O 9291   3.511   0.572   3.227
 3027WAT     H1 9292   3.500   0.479   3.247
 3027WAT     H2 9293   3.581   0.601   3.286
 3028WAT      O 9294   4.330   0.337   0.235
 3028WAT     H1 9295   4.284   0.329   0.319
 3028WAT     H2 9296   4.266   0.378   0.177
 3029WAT      O 9297   3.694   0.412   2.384
 3029WAT     H1 9298   3.712   0.363   2.304
 3029WAT     H2 9299   3.745   0.368   2.451
 3030WAT      O 9300   4.212   0.754   3.132
 3030WAT     H1 9301   4.223   0.849   3.135
 3030WAT     H2 9302   4.125   0.741   3.095
 3031WAT      O 9303   0.235   3.579   0.999
 3031WAT     H1 9304   0.187   3.662   0.999
 3031WAT     H2 9305   0.320   3.601   0.959
 3032WAT      O 9306   0.157   2.733   1.743
 3032WAT     H1 9307   0.165   2.828   1.733
 3032WAT     H2 9308   0.097   2.722   1.817
 3033WAT      O 9309   3.791   4.167   0.907
 3033WAT     H1 9310   3.767   4.214   0.988
 3033WAT     H2 9311   3.744   4.214   0.838
 3034WAT      O 9312   4.231   4.983   4.103
 3034WAT     H1 9313   4.195   5.020   4.022
 3034WAT     H2 9314   4.154   4.957   4.153
 3035WAT      O 9315   3.679   1.927   0.971
 3035WAT     H1 9316   3.619   1.994   0.938
 3035WAT     H2 9317   3.692   1.949   1.063
 3036WAT      O 9318   2.915   2.853   0.106
 3036WAT     H1 9319   2.835   2.889   0.145
 3036WAT     H2 9320   2.883   2.798   0.034
 3037WAT      O 9321   2.150   3.935   0.650
 3037WAT     H1 9322   2.227   3.879   0.646
 3037WAT     H2 9323   2.180   4.019   0.615
 3038WAT      O 9324   0.853   2.603   1.158
 3038WAT     H1 9325   0.815   2.615   1.071
 3038WAT     H2 9326   0.939   2.646   1.153
 3039WAT      O 9327   2.101   1.717   2.921
 3039WAT     H1 9328   2.154   1.694   2.844
 3039WAT     H2 9329   2.060   1.635   2.948
 3040WAT      O 9330   1.327   0.544   2.819
 3040WAT     H1 9331   1.304   0.531   2.727
 3040WAT     H2 9332   1.368   0.461   2.846
 3041WAT      O 9333   4.037   3.213   4.809
 3041WAT     H1 9334   4.112   3.203   4.868
 3041WAT     H2 9335   3.983   3.136   4.828
 3042WAT      O 9336   1.093   3.181   3.717
 3042WAT     H1 9337   1.130   3.269   3.713
 3042WAT     H2 9338   1.167   3.123   3.696
 3043WAT      O 9339   0.416   1.711   2.384
 3043WAT     H1 9340   0.363   1.651   2.331
 3043WAT     H2 9341   0.465   1.654   2.443
 3044WAT      O 9342   3.124   0.465   4.285
 3044WAT     H1 9343   3.116   0.408   4.362
 3044WAT     H2 9344   3.073   0.543   4.308
 3045WAT      O 9345   2.271   0.084   0.349
 3045WAT     H1 9346   2.363   0.059   0.344
 3045WAT     H2 9347   2.265   0.165   0.300
 3046WAT      O 9348   1.870   3.922   1.723
 3046WAT     H1 9349   1.964   3.939   1.725
 3046WAT     H2 9350   1.851   3.878   1.806
 3047WAT      O 9351   0.175   3.744   4.240
 3047WAT     H1 9352   0.244   3.810   4.230
 3047WAT     H2 9353   0.188   3.685   4.166
 3048WAT      O 9354   4.118   4.406   1.349
 3048WAT     H1 9355   4.202   4.451   1.336
 3048WAT     H2 9356   4.142   4.317   1.372
 3049WAT      O 9357   3.479   2.047   4.057
 3049WAT     H1 9358   3.427   2.084   4.128
 3049WAT     H2 9359   3.525   1.973   4.097
 3050WAT      O 9360   0.563   4.780   1.293
 3050WAT     H1 9361   0.475   4.751   1.271
 3050WAT     H2 9362   0.560   4.875   1.286
 3051WAT      O 9363   1.163   1.994   0.680
 3051WAT     H1 9364   1.140   2.001   0.772
 3051WAT     H2 9365   1.193   2.082   0.656
 3052WAT      O 9366   3.711   1.701   1.323
 3052WAT     H1 9367   3.658   1.690   1.244
 3052WAT     H2 9368   3.686   1.629   1.380
 3053WAT      O 9369   3.331   3.111   4.004
 3053WAT     H1 9370   3.340   3.016   4.015
 3053WAT     H2 9371   3.338   3.125   3.909
 3054WAT      O 9372   4.176   3.121   3.858
 3054WAT     H1 9373   4.226   3.128   3.776
 3054WAT     H2 9374   4.236   3.152   3.926
 3055WAT      O 9375   2.686   4.761   3.341
 3055WAT     H1 9376   2.781   4.761   3.338
 3055WAT     H2 9377   2.664   4.702   3.414
 3056WAT      O 9378   2.431   1.665   4.682
 3056WAT     H1 9379   2.423   1.628   4.594
 3056WAT     H2 9380   2.345   1.650   4.722
 3057WAT      O 9381   3.724   0.147   3.295
 3057WAT     H1 9382   3.741   0.110   3.381
 3057WAT     H2 9383   3.740   0.241   3.305
 3058WAT      O 9384   2.039   3.903   3.859
 3058WAT     H1 9385   2.035   3.996   3.879
 3058WAT     H2 9386   2.005   3.896   3.770
 3059WAT      O 9387   0.658   1.812   2.566
 3059WAT     H1 9388   0.725   1.839   2.503
 3059WAT     H2 9389   0.637   1.722   2.543
 3060WAT      O 9390   3.271   1.901   1.429
 3060WAT     H1 9391   3.309   1.814   1.428
 3060WAT     H2 9392   3.277   1.931   1.338
 3061WAT      O 9393   3.525   3.654   2.449
 3061WAT     H1 9394   3.527   3.691   2.360
 3061WAT     H2 9395   3.502   3.728   2.505
 3062WAT      O 9396   0.172   3.478   4.982
 3062WAT     H1 9397   0.190   3.558   5.032
 3062WAT     H2 9398   0.245   3.470   4.921
 3063WAT      O 9399   2.855   3.618   3.464
 3063WAT     H1 9400   2.915   3.544   3.470
 3063WAT     H2 9401   2.901   3.690   3.508
 3064WAT      O 9402   2.678   0.121   3.013
 3064WAT     H1 9403   2.772   0.138   3.024
 3064WAT     H2 9404   2.647   0.195   2.960
 3065WAT      O 9405   0.469   5.004   1.200
 3065WAT     H1 9406   0.426   4.982   1.118
 3065WAT     H2 9407   0.511   5.089   1.184
 3066WAT      O 9408   1.482   4.682   2.126
 3066WAT     H1 9409   1.461   4.636   2.208
 3066WAT     H2 9410   1.466   4.617   2.058
 3067WAT      O 9411   2.108   0.253   1.449
 3067WAT     H1 9412   2.191   0.213   1.478
 3067WAT     H2 9413   2.134   0.311   1.378
 3068WAT      O 9414   1.275   3.150   2.789
 3068WAT     H1 9415   1.225   3.209   2.845
 3068WAT     H2 9416   1.360   3.193   2.778
 3069WAT      O 9417   2.935   0.170   4.159
 3069WAT     H1 9418   2.868   0.116   4.202
 3069WAT     H2 9419   3.017   0.144   4.200
 3070WAT      O 9420   2.498   1.792   1.520
 3070WAT     H1 9421   2.525   1.771   1.431
 3070WAT     H2 9422   2.445   1.717   1.547
 3071WAT      O 9423   2.791   0.538   2.080
 3071WAT     H1 9424   2.800   0.619   2.129
 3071WAT     H2 9425   2.878   0.524   2.041
 3072WAT      O 9426   2.303   4.967   4.849
 3072WAT     H1 9427   2.274   5.025   4.919
 3072WAT     H2 9428   2.355   5.023   4.791
 3073WAT      O 9429   1.551   3.184   2.974
 3073WAT     H1 9430   1.597   3.257   2.932
 3073WAT     H2 9431   1.620   3.136   3.020
 3074WAT      O 9432   3.957   4.935   3.926
 3074WAT     H1 9433   4.049   4.939   3.898
 3074WAT     H2 9434   3.958   4.969   4.015
 3075WAT      O 9435   3.577   4.720   0.771
 3075WAT     H1 9436   3.559   4.797   0.716
 3075WAT     H2 9437   3.495   4.671   0.770
 3076WAT      O 9438   0.959   0.814   2.425
 3076WAT     H1 9439   0.956   0.834   2.332
 3076WAT     H2 9440   0.936   0.896   2.468
 3077WAT      O 9441   1.521   4.163   5.220
 3077WAT     H1 9442   1.554   4.225   5.285
 3077WAT     H2 9443   1.572   4.083   5.235
 3078WAT      O 9444   3.242   1.046   1.340
 3078WAT     H1 9445   3.235   0.965   1.289
 3078WAT     H2 9446   3.309   1.097   1.295
 3079WAT      O 9447   2.510   3.481   3.960
 3079WAT     H1 9448   2.497   3.562   4.010
 3079WAT     H2 9449   2.435   3.426   3.983
 3080WAT      O 9450   0.045   0.505   0.259
 3080WAT     H1 9451   0.102   0.430   0.277
 3080WAT     H2 9452  -0.036   0.465   0.226
 3081WAT      O 9453   3.321   3.257   2.746
 3081WAT     H1 9454   3.228   3.241   2.760
 3081WAT     H2 9455   3.325   3.312   2.668
 3082WAT      O 9456   3.632   1.879   2.588
 3082WAT     H1 9457   3.650   1.909   2.677
 3082WAT     H2 9458   3.545   1.915   2.568
 3083WAT      O 9459   1.252   2.368   0.155
 3083WAT     H1 9460   1.282   2.286   0.114
 3083WAT     H2 9461   1.329   2.401   0.200
 3084WAT      O 9462   3.987   1.251   1.471
 3084WAT     H1 9463   4.045   1.212   1.405
 3084WAT     H2 9464   3.902   1.254   1.428
 3085WAT      O 9465   2.552   1.153   1.883
 3085WAT     H1 9466   2.484   1.195   1.829
 3085WAT     H2 9467   2.521   1.064   1.895
 3086WAT      O 9468   4.228   2.813   3.620
 3086WAT     H1 9469   4.258   2.891   3.574
 3086WAT     H2 9470   4.308   2.774   3.655
 3087WAT      O 9471   0.234   0.004   0.231
 3087WAT     H1 9472   0.248  -0.087   0.204
 3087WAT     H2 9473   0.248   0.055   0.151
 3088WAT      O 9474   4.434   3.599   1.055
 3088WAT     H1 9475   4.359   3.617   0.999
 3088WAT     H2 9476   4.421   3.509   1.085
 3089WAT      O 9477   2.888   4.618   0.263
 3089WAT     H1 9478   2.840   4.535   0.255
 3089WAT     H2 9479   2.836   4.681   0.213
 3090WAT      O 9480   2.141   3.109   3.029
 3090WAT     H1 9481   2.104   3.106   2.941
 3090WAT     H2 9482   2.142   3.018   3.058
 3091WAT      O 9483   2.853   0.434   3.427
 3091WAT     H1 9484   2.760   0.411   3.416
 3091WAT     H2 9485   2.889   0.362   3.479
 3092WAT      O 9486   0.564   3.150   2.430
 3092WAT     H1 9487   0.558   3.246   2.423
 3092WAT     H2 9488   0.649   3.129   2.391
 3093WAT      O 9489   0.370   1.640   1.914
 3093WAT     H1 9490   0.313   1.620   1.839
 3093WAT     H2 9491   0.337   1.724   1.947
 3094WAT      O 9492   3.805   4.832   1.928
 3094WAT     H1 9493   3.772   4.877   2.006
 3094WAT     H2 9494   3.763   4.877   1.855
 3095WAT      O 9495   1.870   4.064   4.805
 3095WAT     H1 9496   1.927   4.118   4.750
 3095WAT     H2 9497   1.786   4.110   4.804
 3096WAT      O 9498   2.277   4.592   4.562
 3096WAT     H1 9499   2.351   4.634   4.605
 3096WAT     H2 9500   2.301   4.589   4.469
 3097WAT      O 9501   3.984   1.938   0.477
 3097WAT     H1 9502   4.061   1.887   0.503
 3097WAT     H2 9503   3.934   1.878   0.422
 3098WAT      O 9504   1.148   3.454   1.375
 3098WAT     H1 9505   1.110   3.518   1.315
 3098WAT     H2 9506   1.236   3.488   1.392
 3099WAT      O 9507   2.811   0.897   1.419
 3099WAT     H1 9508   2.814   0.809   1.457
 3099WAT     H2 9509   2.893   0.905   1.370
 3100WAT      O 9510   2.864   2.379   3.570
 3100WAT     H1 9511   2.817   2.377   3.653
 3100WAT     H2 9512   2.907   2.464   3.569
 3101WAT      O 9513   3.720   0.386   0.711
 3101WAT     H1 9514   3.642   0.393   0.766
 3101WAT     H2 9515   3.687   0.352   0.628
 3102WAT      O 9516   3.816   4.032   1.744
 3102WAT     H1 9517   3.909   4.050   1.734
 3102WAT     H2 9518   3.775   4.118   1.757
 3103WAT      O 9519   4.375   3.303   1.118
 3103WAT     H1 9520   4.363   3.263   1.204
 3103WAT     H2 9521   4.305   3.265   1.064
 3104WAT      O 9522   3.419   0.670   2.759
 3104WAT     H1 9523   3.480   0.717   2.701
 3104WAT     H2 9524   3.461   0.672   2.845
 3105WAT      O 9525   0.506   1.202   2.367
 3105WAT     H1 9526   0.513   1.108   2.347
 3105WAT     H2 9527   0.431   1.208   2.427
 3106WAT      O 9528   1.076   3.837   1.901
 3106WAT     H1 9529   1.116   3.907   1.851
 3106WAT     H2 9530   1.148   3.801   1.953
 3107WAT      O 9531   2.953   2.145   4.972
 3107WAT     H1 9532   3.046   2.162   4.981
 3107WAT     H2 9533   2.919   2.222   4.927
 3108WAT      O 9534   1.216   3.660   2.063
 3108WAT     H1 9535   1.243   3.591   2.002
 3108WAT     H2 9536   1.203   3.614   2.146
 3109WAT      O 9537   3.635   4.211   0.450
 3109WAT     H1 9538   3.587   4.257   0.520
 3109WAT     H2 9539   3.595   4.242   0.369
 3110WAT      O 9540   2.513   3.842   1.367
 3110WAT     H1 9541   2.487   3.929   1.336
 3110WAT     H2 9542   2.436   3.787   1.351
 3111WAT      O 9543   2.742   0.650   2.391
 3111WAT     H1 9544   2.688   0.728   2.402
 3111WAT     H2 9545   2.799   0.671   2.317
 3112WAT      O 9546   2.865   0.894   3.565
 3112WAT     H1 9547   2.776   0.883   3.598
 3112WAT     H2 9548   2.880   0.818   3.509
 3113WAT      O 9549   3.074   2.650   4.253
 3113WAT     H1 9550   3.025   2.732   4.243
 3113WAT     H2 9551   3.165   2.676   4.245
 3114WAT      O 9552   2.757   3.241   4.824
 3114WAT     H1 9553   2.685   3.263   4.884
 3114WAT     H2 9554   2.791   3.158   4.857
 3115WAT      O 9555   3.932   0.719   3.122
 3115WAT     H1 9556   3.913   0.734   3.029
 3115WAT     H2 9557   3.904   0.800   3.165
 3116WAT      O 9558   3.293   4.337   0.858
 3116WAT     H1 9559   3.276   4.247   0.886
 3116WAT     H2 9560   3.364   4.329   0.794
 3117WAT      O 9561   3.611   3.160   0.212
 3117WAT     H1 9562   3.533   3.163   0.266
 3117WAT     H2 9563   3.671   3.102   0.259
 3118WAT      O 9564   2.250   3.585   2.257
 3118WAT     H1 9565   2.322   3.626   2.306
 3118WAT     H2 9566   2.172   3.607   2.307
 3119WAT      O 9567   3.306   0.630   0.496
 3119WAT     H1 9568   3.363   0.554   0.500
 3119WAT     H2 9569   3.262   0.632   0.581
 3120WAT      O 9570   0.481   0.635   2.289
 3120WAT     H1 9571   0.400   0.681   2.311
 3120WAT     H2 9572   0.479   0.627   2.194
 3121WAT      O 9573   4.160   1.579   5.024
 3121WAT     H1 9574   4.228   1.520   4.992
 3121WAT     H2 9575   4.198   1.620   5.102
 3122WAT      O 9576   1.626   1.006   5.230
 3122WAT     H1 9577   1.653   1.022   5.140
 3122WAT     H2 9578   1.699   1.037   5.283
 3123WAT      O 9579   3.664   4.869   2.729
 3123WAT     H1 9580   3.716   4.941   2.693
 3123WAT     H2 9581   3.636   4.901   2.815
 3124WAT      O 9582   2.708   1.966   3.958
 3124WAT     H1 9583   2.745   1.899   3.901
 3124WAT     H2 9584   2.676   1.917   4.034
 3125WAT      O 9585   0.819   0.493   2.232
 3125WAT     H1 9586   0.760   0.536   2.294
 3125WAT     H2 9587   0.761   0.441   2.176
 3126WAT      O 9588   1.439   4.552   0.375
 3126WAT     H1 9589   1.413   4.625   0.432
 3126WAT     H2 9590   1.473   4.594   0.296
 3127WAT      O 9591   0.832   1.005   2.745
 3127WAT     H1 9592   0.872   1.092   2.746
 3127WAT     H2 9593   0.745   1.018   2.708
 3128WAT      O 9594   1.659   2.089   2.401
 3128WAT     H1 9595   1.629   2.142   2.475
 3128WAT     H2 9596   1.616   2.005   2.413
 3129WAT      O 9597   0.144   2.087   1.035
 3129WAT     H1 9598   0.219   2.113   0.981
 3129WAT     H2 9599   0.081   2.159   1.025
 3130WAT      O 9600   3.396   2.887   2.292
 3130WAT     H1 9601   3.450   2.960   2.322
 3130WAT     H2 9602   3.418   2.816   2.352
 3131WAT      O 9603   3.454   0.716   1.719
 3131WAT     H1 9604   3.468   0.811   1.714
 3131WAT     H2 9605   3.448   0.687   1.628
 3132WAT      O 9606   0.410   3.937   2.083
 3132WAT     H1 9607   0.346   3.868   2.066
 3132WAT     H2 9608   0.362   4.018   2.066
 3133WAT      O 9609   2.361   3.476   4.867
 3133WAT     H1 9610   2.277   3.452   4.908
 3133WAT     H2 9611   2.341   3.552   4.813
 3134WAT      O 9612   4.377   3.742   5.184
 3134WAT     H1 9613   4.443   3.698   5.237
 3134WAT     H2 9614   4.425   3.775   5.108
 3135WAT      O 9615   2.637   0.220   3.537
 3135WAT     H1 9616   2.598   0.286   3.481
 3135WAT     H2 9617   2.658   0.267   3.618
 3136WAT      O 9618   0.174   3.563   1.906
 3136WAT     H1 9619   0.147   3.473   1.925
 3136WAT     H2 9620   0.133   3.616   1.975
 3137WAT      O 9621   4.465   1.391   4.278
 3137WAT     H1 9622   4.535   1.427   4.224
 3137WAT     H2 9623   4.465   1.445   4.357
 3138WAT      O 9624   1.217   0.137   1.911
 3138WAT     H1 9625   1.226   0.145   2.006
 3138WAT     H2 9626   1.126   0.112   1.897
 3139WAT      O 9627   0.206   2.020   2.909
 3139WAT     H1 9628   0.272   1.980   2.965
 3139WAT     H2 9629   0.244   2.103   2.882
 3140WAT      O 9630   0.824   4.611   0.874
 3140WAT     H1 9631   0.733   4.586   0.891
 3140WAT     H2 9632   0.875   4.552   0.929
 3141WAT      O 9633   2.522   3.011   5.210
 3141WAT     H1 9634   2.567   2.932   5.180
 3141WAT     H2 9635   2.432   2.982   5.226
 3142WAT      O 9636   0.339   5.083   0.499
 3142WAT     H1 9637   0.278   5.069   0.427
 3142WAT     H2 9638   0.407   5.139   0.461
 3143WAT      O 9639   0.733   2.919   3.324
 3143WAT     H1 9640   0.745   2.862   3.248
 3143WAT     H2 9641   0.638   2.929   3.331
 3144WAT      O 9642   0.303   4.584   1.237
 3144WAT     H1 9643   0.212   4.554   1.234
 3144WAT     H2 9644   0.354   4.510   1.204
 3145WAT      O 9645   4.148   4.402   0.494
 3145WAT     H1 9646   4.123   4.405   0.586
 3145WAT     H2 9647   4.093   4.333   0.456
 3146WAT      O 9648   3.772   2.062   2.405
 3146WAT     H1 9649   3.809   2.110   2.480
 3146WAT     H2 9650   3.707   2.004   2.444
 3147WAT      O 9651   0.756   4.191   5.087
 3147WAT     H1 9652   0.794   4.247   5.019
 3147WAT     H2 9653   0.720   4.252   5.151
 3148WAT      O 9654   0.469   2.837   3.344
 3148WAT     H1 9655   0.452   2.824   3.437
 3148WAT     H2 9656   0.383   2.859   3.307
 3149WAT      O 9657   0.209   4.476   4.096
 3149WAT     H1 9658   0.197   4.556   4.043
 3149WAT     H2 9659   0.302   4.478   4.120
 3150WAT      O 9660   0.896   3.637   2.121
 3150WAT     H1 9661   0.939   3.644   2.035
 3150WAT     H2 9662   0.900   3.725   2.157
 3151WAT      O 9663   1.003   0.133   2.555
 3151WAT     H1 9664   0.942   0.121   2.628
 3151WAT     H2 9665   1.030   0.044   2.532
 3152WAT      O 9666   2.960   2.741   1.100
 3152WAT     H1 9667   2.921   2.814   1.052
 3152WAT     H2 9668   2.894   2.671   1.094
 3153WAT      O 9669   0.022   3.904   5.002
 3153WAT     H1 9670  -0.031   3.953   5.064
 3153WAT     H2 9671  -0.024   3.912   4.918
 3154WAT      O 9672   3.049   0.401   1.362
 3154WAT     H1 9673   2.992   0.329   1.335
 3154WAT     H2 9674   3.116   0.359   1.416
 3155WAT      O 9675   3.247   0.791   4.395
 3155WAT     H1 9676   3.253   0.844   4.475
 3155WAT     H2 9677   3.294   0.842   4.329
 3156WAT      O 9678   4.075   3.645   0.716
 3156WAT     H1 9679   4.131   3.680   0.647
 3156WAT     H2 9680   4.001   3.705   0.720
 3157WAT      O 9681   1.739   1.128   4.995
 3157WAT     H1 9682   1.662   1.163   4.950
 3157WAT     H2 9683   1.769   1.201   5.049
 3158WAT      O 9684   2.755   4.191   3.630
 3158WAT     H1 9685   2.660   4.180   3.627
 3158WAT     H2 9686   2.768   4.278   3.669
 3159WAT      O 9687   4.006   2.396   0.854
 3159WAT     H1 9688   4.014   2.302   0.839
 3159WAT     H2 9689   3.913   2.415   0.839
 3160WAT      O 9690   2.726   3.509   0.343
 3160WAT     H1 9691   2.806   3.561   0.346
 3160WAT     H2 9692   2.664   3.562   0.293
 3161WAT      O 9693   4.140   4.725   2.444
 3161WAT     H1 9694   4.108   4.649   2.492
 3161WAT     H2 9695   4.220   4.751   2.491
 3162WAT      O 9696   0.449   0.299   3.809
 3162WAT     H1 9697   0.378   0.250   3.767
 3162WAT     H2 9698   0.491   0.235   3.867
 3163WAT      O 9699   1.554   5.009   0.459
 3163WAT     H1 9700   1.591   4.971   0.379
 3163WAT     H2 9701   1.529   4.933   0.512
 3164WAT      O 9702   0.688   1.890   2.821
 3164WAT     H1 9703   0.652   1.914   2.735
 3164WAT     H2 9704   0.720   1.800   2.809
 3165WAT      O 9705   4.287   3.513   1.338
 3165WAT     H1 9706   4.202   3.507   1.381
 3165WAT     H2 9707   4.347   3.466   1.396
 3166WAT      O 9708   3.881   2.079   4.235
 3166WAT     H1 9709   3.938   2.019   4.187
 3166WAT     H2 9710   3.857   2.146   4.170
 3167WAT      O 9711   4.263   2.034   5.125
 3167WAT     H1 9712   4.266   2.035   5.029
 3167WAT     H2 9713   4.316   2.110   5.150
 3168WAT      O 9714   1.719   1.441   3.200
 3168WAT     H1 9715   1.706   1.528   3.163
 3168WAT     H2 9716   1.656   1.435   3.272
 3169WAT      O 9717   1.051   4.400   2.849
 3169WAT     H1 9718   0.973   4.383   2.796
 3169WAT     H2 9719   1.124   4.385   2.790
 3170WAT      O 9720   3.815   1.123   5.175
 3170WAT     H1 9721   3.796   1.109   5.082
 3170WAT     H2 9722   3.901   1.082   5.188
 3171WAT      O 9723   1.911   0.333   4.828
 3171WAT     H1 9724   1.989   0.279   4.842
 3171WAT     H2 9725   1.845   0.294   4.884
 3172WAT      O 9726   0.590   2.999   1.981
 3172WAT     H1 9727   0.590   3.042   2.066
 3172WAT     H2 9728   0.602   2.906   2.000
 3173WAT      O 9729   0.707   4.702   1.579
 3173WAT     H1 9730   0.622   4.746   1.585
 3173WAT     H2 9731   0.686   4.609   1.586
 3174WAT      O 9732   3.917   2.520   1.165
 3174WAT     H1 9733   3.846   2.470   1.124
 3174WAT     H2 9734   3.992   2.460   1.164
 3175WAT      O 9735   0.615   3.373   2.245
 3175WAT     H1 9736   0.571   3.404   2.166
 3175WAT     H2 9737   0.553   3.391   2.316
 3176WAT      O 9738   3.753   1.944   1.537
 3176WAT     H1 9739   3.717   1.881   1.475
 3176WAT     H2 9740   3.848   1.928   1.535
 3177WAT      O 9741   2.653   1.533   3.508
 3177WAT     H1 9742   2.737   1.578   3.505
 3177WAT     H2 9743   2.663   1.458   3.450
 3178WAT      O 9744   0.246   2.911   0.402
 3178WAT     H1 9745   0.175   2.975   0.407
 3178WAT     H2 9746   0.319   2.952   0.449
 3179WAT      O 9747   3.912   0.644   0.093
 3179WAT     H1 9748   3.847   0.683   0.152
 3179WAT     H2 9749   3.899   0.689   0.010
 3180WAT      O 9750   4.221   0.658   1.537
 3180WAT     H1 9751   4.291   0.688   1.595
 3180WAT     H2 9752   4.140   0.689   1.577
 3181WAT      O 9753   2.932   1.456   3.006
 3181WAT     H1 9754   2.988   1.393   2.960
 3181WAT     H2 9755   2.845   1.415   3.005
 3182WAT      O 9756   4.133   4.958   2.064
 3182WAT     H1 9757   4.078   4.926   2.136
 3182WAT     H2 9758   4.121   4.893   1.994
 3183WAT      O 9759   3.987   4.979   4.219
 3183WAT     H1 9760   3.971   5.054   4.275
 3183WAT     H2 9761   3.997   4.905   4.279
 3184WAT      O 9762   2.227   1.289   3.044
 3184WAT     H1 9763   2.193   1.218   3.099
 3184WAT     H2 9764   2.263   1.245   2.967
 3185WAT      O 9765   1.672   4.146   1.714
 3185WAT     H1 9766   1.748   4.101   1.750
 3185WAT     H2 9767   1.707   4.229   1.680
 3186WAT      O 9768   0.489   0.852   5.071
 3186WAT     H1 9769   0.498   0.866   5.165
 3186WAT     H2 9770   0.405   0.891   5.048
 3187WAT      O 9771   4.033   2.857   2.714
 3187WAT     H1 9772   3.971   2.917   2.755
 3187WAT     H2 9773   4.016   2.772   2.755
 3188WAT      O 9774   1.856   1.814   2.573
 3188WAT     H1 9775   1.950   1.831   2.572
 3188WAT     H2 9776   1.845   1.740   2.632
 3189WAT      O 9777   2.273   2.643   3.793
 3189WAT     H1 9778   2.325   2.564   3.804
 3189WAT     H2 9779   2.221   2.629   3.714
 3190WAT      O 9780   1.480   2.499   4.615
 3190WAT     H1 9781   1.453   2.548   4.538
 3190WAT     H2 9782   1.425   2.533   4.685
 3191WAT      O 9783   2.809   3.132   2.634
 3191WAT     H1 9784   2.716   3.108   2.633
 3191WAT     H2 9785   2.835   3.129   2.542
 3192WAT      O 9786   4.003   2.858   3.781
 3192WAT     H1 9787   4.055   2.934   3.805
 3192WAT     H2 9788   4.063   2.802   3.732
 3193WAT      O 9789   0.506   3.286   4.672
 3193WAT     H1 9790   0.590   3.242   4.671
 3193WAT     H2 9791   0.477   3.281   4.763
 3194WAT      O 9792   0.271   2.851   2.527
 3194WAT     H1 9793   0.209   2.924   2.535
 3194WAT     H2 9794   0.235   2.782   2.583
 3195WAT      O 9795   2.425   0.188   4.485
 3195WAT     H1 9796   2.343   0.176   4.437
 3195WAT     H2 9797   2.491   0.197   4.417
 3196WAT      O 9798   3.888   0.041   5.226
 3196WAT     H1 9799   3.909   0.127   5.190
 3196WAT     H2 9800   3.972  -0.006   5.226
 3197WAT      O 9801   1.453   1.611   2.411
 3197WAT     H1 9802   1.456   1.522   2.445
 3197WAT     H2 9803   1.492   1.664   2.480
 3198WAT      O 9804   1.356   2.035   2.487
 3198WAT     H1 9805   1.383   1.973   2.419
 3198WAT     H2 9806   1.409   2.013   2.563
 3199WAT      O 9807   1.384   4.487   3.157
 3199WAT     H1 9808   1.452   4.546   3.190
 3199WAT     H2 9809   1.409   4.471   3.066
 3200WAT      O 9810   3.561   0.219   3.843
 3200WAT     H1 9811   3.515   0.266   3.913
 3200WAT     H2 9812   3.545   0.127   3.862
 3201WAT      O 9813   3.312   2.118   4.268
 3201WAT     H1 9814   3.307   2.197   4.322
 3201WAT     H2 9815   3.349   2.051   4.326
 3202WAT      O 9816   3.600   4.171   2.554
 3202WAT     H1 9817   3.528   4.207   2.502
 3202WAT     H2 9818   3.570   4.180   2.645
 3203WAT      O 9819   2.892   2.724   1.704
 3203WAT     H1 9820   2.891   2.706   1.610
 3203WAT     H2 9821   2.807   2.765   1.721
 3204WAT      O 9822   3.101   3.917   4.355
 3204WAT     H1 9823   3.177   3.863   4.378
 3204WAT     H2 9824   3.040   3.903   4.427
 3205WAT      O 9825   1.897   4.133   5.182
 3205WAT     H1 9826   1.838   4.152   5.255
 3205WAT     H2 9827   1.959   4.206   5.181
 3206WAT      O 9828   2.625   2.691   0.797
 3206WAT     H1 9829   2.648   2.761   0.736
 3206WAT     H2 9830   2.531   2.705   0.814
 3207WAT      O 9831   2.531   3.660   4.172
 3207WAT     H1 9832   2.550   3.752   4.156
 3207WAT     H2 9833   2.560   3.645   4.262
 3208WAT      O 9834   1.875   4.246   2.003
 3208WAT     H1 9835   1.864   4.330   1.959
 3208WAT     H2 9836   1.925   4.193   1.940
 3209WAT      O 9837   2.581   4.562   1.399
 3209WAT     H1 9838   2.504   4.509   1.422
 3209WAT     H2 9839   2.549   4.652   1.397
 3210WAT      O 9840   3.561   2.896   0.629
 3210WAT     H1 9841   3.640   2.845   0.646
 3210WAT     H2 9842   3.497   2.864   0.693
 3211WAT      O 9843   3.631   4.780   4.617
 3211WAT     H1 9844   3.596   4.862   4.652
 3211WAT     H2 9845   3.703   4.758   4.675
 3212WAT      O 9846   0.307   2.979   4.225
 3212WAT     H1 9847   0.277   2.922   4.296
 3212WAT     H2 9848   0.353   2.920   4.165
 3213WAT      O 9849   0.480   2.866   2.359
 3213WAT     H1 9850   0.405   2.852   2.417
 3213WAT     H2 9851   0.522   2.945   2.394
 3214WAT      O 9852   2.618   0.199   4.303
 3214WAT     H1 9853   2.683   0.257   4.343
 3214WAT     H2 9854   2.656   0.112   4.308
 3215WAT      O 9855   0.600   2.864   4.255
 3215WAT     H1 9856   0.554   2.871   4.171
 3215WAT     H2 9857   0.541   2.906   4.318
 3216WAT      O 9858   1.387   3.120   1.278
 3216WAT     H1 9859   1.375   3.082   1.365
 3216WAT     H2 9860   1.471   3.166   1.284
 3217WAT      O 9861   3.783   1.882   3.524
 3217WAT     H1 9862   3.797   1.976   3.536
 3217WAT     H2 9863   3.869   1.848   3.500
 3218WAT      O 9864   3.232   1.435   2.433
 3218WAT     H1 9865   3.231   1.353   2.481
 3218WAT     H2 9866   3.309   1.481   2.465
 3219WAT      O 9867   0.092   1.773   5.230
 3219WAT     H1 9868   0.090   1.859   5.271
 3219WAT     H2 9869   0.149   1.720   5.286
 3220WAT      O 9870   2.091   3.141   2.170
 3220WAT     H1 9871   2.162   3.162   2.231
 3220WAT     H2 9872   2.098   3.047   2.156
 3221WAT      O 9873   1.029   0.646   0.451
 3221WAT     H1 9874   0.990   0.690   0.375
 3221WAT     H2 9875   0.972   0.571   0.467
 3222WAT      O 9876   1.816   3.408   4.013
 3222WAT     H1 9877   1.889   3.386   3.954
 3222WAT     H2 9878   1.834   3.498   4.040
 3223WAT      O 9879   1.709   1.917   3.571
 3223WAT     H1 9880   1.789   1.887   3.615
 3223WAT     H2 9881   1.640   1.862   3.607
 3224WAT      O 9882   3.532   2.316   2.616
 3224WAT     H1 9883   3.575   2.398   2.641
 3224WAT     H2 9884   3.440   2.340   2.604
 3225WAT      O 9885   2.994   4.052   3.656
 3225WAT     H1 9886   3.011   4.016   3.743
 3225WAT     H2 9887   2.907   4.090   3.662
 3226WAT      O 9888   4.095   1.583   2.520
 3226WAT     H1 9889   4.038   1.640   2.572
 3226WAT     H2 9890   4.179   1.629   2.518
 3227WAT      O 9891   2.153   2.983   1.152
 3227WAT     H1 9892   2.201   3.040   1.091
 3227WAT     H2 9893   2.080   3.038   1.183
 3228WAT      O 9894   1.717   4.664   2.877
 3228WAT     H1 9895   1.718   4.575   2.911
 3228WAT     H2 9896   1.672   4.715   2.944
 3229WAT      O 9897   3.629   1.445   1.170
 3229WAT     H1 9898   3.707   1.459   1.116
 3229WAT     H2 9899   3.571   1.518   1.146
 3230WAT      O 9900   1.191   1.725   0.269
 3230WAT     H1 9901   1.278   1.689   0.252
 3230WAT     H2 9902   1.194   1.753   0.361
 3231WAT      O 9903   1.704   0.426   1.332
 3231WAT     H1 9904   1.793   0.409   1.362
 3231WAT     H2 9905   1.696   0.522   1.334
 3232WAT      O 9906   0.875   2.114   3.383
 3232WAT     H1 9907   0.886   2.183   3.318
 3232WAT     H2 9908   0.912   2.150   3.463
 3233WAT      O 9909   1.111   3.097   2.498
 3233WAT     H1 9910   1.128   3.106   2.592
 3233WAT     H2 9911   1.126   3.005   2.479
 3234WAT      O 9912   1.068   3.829   4.805
 3234WAT     H1 9913   1.020   3.746   4.807
 3234WAT     H2 9914   1.023   3.882   4.740
 3235WAT      O 9915   4.224   2.027   4.848
 3235WAT     H1 9916   4.204   1.934   4.845
 3235WAT     H2 9917   4.308   2.036   4.803
 3236WAT      O 9918   2.913   3.550   2.571
 3236WAT     H1 9919   2.983   3.499   2.529
 3236WAT     H2 9920   2.865   3.589   2.497
 3237WAT      O 9921   3.130   1.622   4.249
 3237WAT     H1 9922   3.133   1.704   4.199
 3237WAT     H2 9923   3.037   1.605   4.261
 3238WAT      O 9924   2.492   2.351   4.997
 3238WAT     H1 9925   2.531   2.331   4.912
 3238WAT     H2 9926   2.565   2.385   5.050
 3239WAT      O 9927   1.168   3.223   1.678
 3239WAT     H1 9928   1.158   3.188   1.767
 3239WAT     H2 9929   1.094   3.282   1.667
 3240WAT      O 9930   0.205   2.548   0.847
 3240WAT     H1 9931   0.262   2.625   0.839
 3240WAT     H2 9932   0.186   2.523   0.756
 3241WAT      O 9933   0.159   3.380   2.431
 3241WAT     H1 9934   0.192   3.319   2.497
 3241WAT     H2 9935   0.185   3.341   2.347
 3242WAT      O 9936   4.200   1.403   4.205
 3242WAT     H1 9937   4.295   1.402   4.213
 3242WAT     H2 9938   4.172   1.321   4.246
 3243WAT      O 9939   1.898   2.373   4.095
 3243WAT     H1 9940   1.851   2.397   4.015
 3243WAT     H2 9941   1.969   2.317   4.065
 3244WAT      O 9942   3.215   4.060   1.436
 3244WAT     H1 9943   3.238   3.999   1.505
 3244WAT     H2 9944   3.180   4.006   1.366
 3245WAT      O 9945   2.922   2.706   1.447
 3245WAT     H1 9946   2.850   2.702   1.383
 3245WAT     H2 9947   2.993   2.657   1.405
 3246WAT      O 9948   1.326   3.048   1.543
 3246WAT     H1 9949   1.318   3.133   1.587
 3246WAT     H2 9950   1.249   2.999   1.571
 3247WAT      O 9951   3.977   0.241   0.502
 3247WAT     H1 9952   3.919   0.231   0.577
 3247WAT     H2 9953   3.933   0.195   0.431
 3248WAT      O 9954   3.074   2.296   1.831
 3248WAT     H1 9955   3.154   2.254   1.799
 3248WAT     H2 9956   3.038   2.340   1.755
 3249WAT      O 9957   1.061   3.672   2.476
 3249WAT     H1 9958   1.073   3.742   2.411
 3249WAT     H2 9959   0.971   3.642   2.461
 3250WAT      O 9960   0.577   0.046   4.359
 3250WAT     H1 9961   0.517  -0.011   4.407
 3250WAT     H2 9962   0.576   0.012   4.270
 3251WAT      O 9963   1.875   1.522   2.316
 3251WAT     H1 9964   1.953   1.563   2.279
 3251WAT     H2 9965   1.817   1.596   2.336
 3252WAT      O 9966   1.182   3.657   0.646
 3252WAT     H1 9967   1.218   3.574   0.613
 3252WAT     H2 9968   1.256   3.699   0.690
 3253WAT      O 9969   0.418   2.740   3.643
 3253WAT     H1 9970   0.370   2.783   3.714
 3253WAT     H2 9971   0.489   2.693   3.687
 3254WAT      O 9972   2.671   4.740   2.529
 3254WAT     H1 9973   2.582   4.705   2.529
 3254WAT     H2 9974   2.670   4.810   2.594
 3255WAT      O 9975   1.271   2.213   5.070
 3255WAT     H1 9976   1.194   2.168   5.035
 3255WAT     H2 9977   1.283   2.176   5.158
 3256WAT      O 9978   1.883   0.323   2.574
 3256WAT     H1 9979   1.795   0.340   2.607
 3256WAT     H2 9980   1.910   0.405   2.533
 3257WAT      O 9981   0.208   0.681   2.376
 3257WAT     H1 9982   0.121   0.669   2.415
 3257WAT     H2 9983   0.192   0.733   2.297
 3258WAT      O 9984   0.242   3.350   3.695
 3258WAT     H1 9985   0.259   3.367   3.602
 3258WAT     H2 9986   0.321   3.382   3.739
 3259WAT      O 9987   1.763   1.749   3.134
 3259WAT     H1 9988   1.850   1.771   3.168
 3259WAT     H2 9989   1.704   1.765   3.208
 3260WAT      O 9990   0.138  -0.001   4.037
 3260WAT     H1 9991   0.060  -0.050   4.013
 3260WAT     H2 9992   0.105   0.080   4.075
 3261WAT      O 9993   3.115   3.713   1.716
 3261WAT     H1 9994   3.197   3.761   1.705
 3261WAT     H2 9995   3.053   3.758   1.659
 3262WAT      O 9996   1.891   2.269   4.792
 3262WAT     H1 9997   1.900   2.360   4.822
 3262WAT     H2 9998   1.808   2.269   4.743
 3263WAT      O 9999   0.173   5.128   4.983
 3263WAT     H110000   0.252   5.131   4.929
 3263WAT     H210001   0.101   5.131   4.920
 3264WAT      O10002   2.802   2.569   3.063
 3264WAT     H110003   2.840   2.513   2.996
 3264WAT     H210004   2.759   2.639   3.015
 3265WAT      O10005   2.842   1.772   4.393
 3265WAT     H110006   2.921   1.785   4.446
 3265WAT     H210007   2.770   1.794   4.452
 3266WAT      O10008   0.931   2.454   4.199
 3266WAT     H110009   0.882   2.532   4.225
 3266WAT     H210010   1.008   2.453   4.256
 3267WAT      O10011   3.884   0.243   0.220
 3267WAT     H110012   3.882   0.162   0.169
 3267WAT     H210013   3.967   0.284   0.197
 3268WAT      O10014   4.066   3.009   0.147
 3268WAT     H110015   4.069   2.997   0.242
 3268WAT     H210016   3.974   3.031   0.129
 3269WAT      O10017   1.987   0.059   1.806
 3269WAT     H110018   2.030   0.011   1.877
 3269WAT     H210019   1.990   0.150   1.834
 3270WAT      O10020   1.160   4.112   1.326
 3270WAT     H110021   1.092   4.073   1.270
 3270WAT     H210022   1.113   4.177   1.378
 3271WAT      O10023   2.524   4.390   1.927
 3271WAT     H110024   2.570   4.349   1.853
 3271WAT     H210025   2.594   4.431   1.979
 3272WAT      O10026   2.327   4.837   0.836
 3272WAT     H110027   2.388   4.775   0.875
 3272WAT     H210028   2.246   4.826   0.886
 3273WAT      O10029   2.862   3.026   2.392
 3273WAT     H110030   2.831   2.941   2.361
 3273WAT     H210031   2.935   3.048   2.334
 3274WAT      O10032   2.897   2.959   2.959
 3274WAT     H110033   2.877   3.045   2.995
 3274WAT     H210034   2.992   2.957   2.951
 3275WAT      O10035   1.079   4.970   5.146
 3275WAT     H110036   1.087   5.046   5.088
 3275WAT     H210037   1.082   5.007   5.234
 3276WAT      O10038   2.952   3.297   1.134
 3276WAT     H110039   2.936   3.274   1.226
 3276WAT     H210040   3.008   3.226   1.101
 3277WAT      O10041   4.131   5.117   1.206
 3277WAT     H110042   4.141   5.032   1.164
 3277WAT     H210043   4.196   5.173   1.164
 3278WAT      O10044   1.958   3.259   3.249
 3278WAT     H110045   2.051   3.274   3.231
 3278WAT     H210046   1.914   3.334   3.209
 3279WAT      O10047   3.198   2.409   0.157
 3279WAT     H110048   3.245   2.326   0.163
 3279WAT     H210049   3.208   2.436   0.066
 3280WAT      O10050   2.998   4.339   3.994
 3280WAT     H110051   2.914   4.294   4.003
 3280WAT     H210052   3.009   4.386   4.076
 3281WAT      O10053   3.927   3.144   1.451
 3281WAT     H110054   3.949   3.087   1.525
 3281WAT     H210055   3.831   3.144   1.448
 3282WAT      O10056   0.501   3.253   0.743
 3282WAT     H110057   0.412   3.288   0.744
 3282WAT     H210058   0.547   3.303   0.810
 3283WAT      O10059   1.601   0.454   5.003
 3283WAT     H110060   1.556   0.471   4.921
 3283WAT     H210061   1.531   0.433   5.065
 3284WAT      O10062   3.679   1.785   0.055
 3284WAT     H110063   3.690   1.779  -0.040
 3284WAT     H210064   3.716   1.870   0.079
 3285WAT      O10065   1.960   2.529   4.893
 3285WAT     H110066   2.037   2.585   4.893
 3285WAT     H210067   1.926   2.535   4.983
 3286WAT      O10068   4.454   4.827   4.022
 3286WAT     H110069   4.416   4.795   3.940
 3286WAT     H210070   4.379   4.854   4.075
 3287WAT      O10071   0.870   2.147   4.790
 3287WAT     H110072   0.795   2.207   4.794
 3287WAT     H210073   0.926   2.184   4.722
 3288WAT      O10074   0.287   2.517   5.199
 3288WAT     H110075   0.304   2.600   5.244
 3288WAT     H210076   0.260   2.543   5.111
 3289WAT      O10077   1.118   1.620   4.741
 3289WAT     H110078   1.204   1.653   4.768
 3289WAT     H210079   1.056   1.670   4.794
 3290WAT      O10080   4.466   4.787   5.266
 3290WAT     H110081   4.555   4.753   5.251
 3290WAT     H210082   4.469   4.821   5.356
 3291WAT      O10083   3.547   1.260   3.604
 3291WAT     H110084   3.510   1.299   3.684
 3291WAT     H210085   3.608   1.326   3.572
 3292WAT      O10086   0.775   3.996   2.387
 3292WAT     H110087   0.744   3.975   2.298
 3292WAT     H210088   0.697   3.988   2.442
 3293WAT      O10089   0.512   0.091   2.494
 3293WAT     H110090   0.546   0.154   2.431
 3293WAT     H210091   0.453   0.036   2.443
 3294WAT      O10092   0.815   1.436   1.825
 3294WAT     H110093   0.803   1.503   1.757
 3294WAT     H210094   0.730   1.434   1.871
 3295WAT      O10095   1.133   2.072   4.877
 3295WAT     H110096   1.110   1.979   4.877
 3295WAT     H210097   1.048   2.117   4.877
 3296WAT      O10098   1.479   4.102   3.524
 3296WAT     H110099   1.414   4.124   3.590
 3296WAT     H210100   1.450   4.146   3.444
 3297WAT      O10101   2.798   0.680   0.545
 3297WAT     H110102   2.752   0.668   0.462
 3297WAT     H210103   2.869   0.616   0.543
 3298WAT      O10104   1.796   1.089   1.181
 3298WAT     H110105   1.846   1.160   1.223
 3298WAT     H210106   1.764   1.037   1.254
 3299WAT      O10107   1.205   2.823   2.479
 3299WAT     H110108   1.216   2.728   2.487
 3299WAT     H210109   1.282   2.860   2.523
 3300WAT      O10110   4.031   0.204   2.336
 3300WAT     H110111   4.066   0.174   2.252
 3300WAT     H210112   4.099   0.182   2.400
 3301WAT      O10113   0.374   2.348   3.799
 3301WAT     H110114   0.400   2.437   3.824
 3301WAT     H210115   0.442   2.319   3.739
 3302WAT      O10116   2.484   0.400   3.886
 3302WAT     H110117   2.490   0.494   3.867
 3302WAT     H210118   2.574   0.373   3.904
 3303WAT      O10119   3.648   3.961   0.533
 3303WAT     H110120   3.625   4.053   0.515
 3303WAT     H210121   3.624   3.915   0.452
 3304WAT      O10122   3.344   3.680   2.064
 3304WAT     H110123   3.403   3.754   2.080
 3304WAT     H210124   3.393   3.604   2.095
 3305WAT      O10125   2.959   4.825   1.922
 3305WAT     H110126   2.864   4.813   1.922
 3305WAT     H210127   2.987   4.797   1.835
 3306WAT      O10128   3.074   3.445   0.196
 3306WAT     H110129   3.007   3.379   0.178
 3306WAT     H210130   3.142   3.396   0.242
 3307WAT      O10131   0.884   2.148   4.326
 3307WAT     H110132   0.909   2.068   4.280
 3307WAT     H210133   0.835   2.198   4.261
 3308WAT      O10134   2.934   1.098   0.272
 3308WAT     H110135   3.007   1.128   0.218
 3308WAT     H210136   2.962   1.116   0.362
 3309WAT      O10137   1.915   2.933   0.462
 3309WAT     H110138   2.009   2.951   0.452
 3309WAT     H210139   1.912   2.840   0.487
 3310WAT      O10140   3.426   4.051   0.226
 3310WAT     H110141   3.438   4.146   0.224
 3310WAT     H210142   3.515   4.016   0.224
 3311WAT      O10143   3.778   2.454   0.673
 3311WAT     H110144   3.726   2.463   0.593
 3311WAT     H210145   3.725   2.396   0.729
 3312WAT      O10146   0.851   4.091   3.101
 3312WAT     H110147   0.782   4.095   3.168
 3312WAT     H210148   0.910   4.163   3.123
 3313WAT      O10149   1.474   3.558   3.942
 3313WAT     H110150   1.403   3.531   3.883
 3313WAT     H210151   1.539   3.598   3.883
 3314WAT      O10152   0.949   2.262   2.616
 3314WAT     H110153   1.009   2.192   2.592
 3314WAT     H210154   0.905   2.285   2.534
 3315WAT      O10155   1.544   0.924   3.235
 3315WAT     H110156   1.579   0.850   3.186
 3315WAT     H210157   1.449   0.908   3.239
 3316WAT      O10158   1.596   4.902   4.451
 3316WAT     H110159   1.522   4.920   4.393
 3316WAT     H210160   1.654   4.978   4.441
 3317WAT      O10161   3.513   0.998   5.146
 3317WAT     H110162   3.421   0.973   5.146
 3317WAT     H210163   3.515   1.087   5.180
 3318WAT      O10164   0.533   0.136   5.178
 3318WAT     H110165   0.442   0.113   5.199
 3318WAT     H210166   0.555   0.079   5.105
 3319WAT      O10167   2.784   3.687   1.120
 3319WAT     H110168   2.799   3.765   1.173
 3319WAT     H210169   2.777   3.616   1.184
 3320WAT      O10170   2.683   0.285   0.933
 3320WAT     H110171   2.706   0.341   0.859
 3320WAT     H210172   2.763   0.283   0.986
 3321WAT      O10173   1.677   4.109   2.116
 3321WAT     H110174   1.720   4.024   2.131
 3321WAT     H210175   1.739   4.157   2.061
 3322WAT      O10176   2.714   0.010   1.428
 3322WAT     H110177   2.637   0.065   1.443
 3322WAT     H210178   2.734  -0.026   1.515
 3323WAT      O10179   3.939   4.014   5.243
 3323WAT     H110180   4.025   4.001   5.204
 3323WAT     H210181   3.882   3.953   5.197
 3324WAT      O10182   2.138   1.254   3.868
 3324WAT     H110183   2.226   1.290   3.851
 3324WAT     H210184   2.142   1.165   3.833
 3325WAT      O10185   3.531   3.130   5.026
 3325WAT     H110186   3.616   3.090   5.044
 3325WAT     H210187   3.497   3.154   5.112
 3326WAT      O10188   3.488   1.631   2.593
 3326WAT     H110189   3.495   1.727   2.587
 3326WAT     H210190   3.447   1.616   2.678
 3327WAT      O10191   0.136   4.393   2.846
 3327WAT     H110192   0.134   4.486   2.823
 3327WAT     H210193   0.193   4.353   2.781
 3328WAT      O10194   2.052   1.230   4.476
 3328WAT     H110195   1.976   1.227   4.418
 3328WAT     H210196   2.039   1.158   4.537
 3329WAT      O10197   2.949   3.514   4.804
 3329WAT     H110198   2.970   3.478   4.718
 3329WAT     H210199   2.928   3.437   4.857
 3330WAT      O10200   0.398   4.582   3.333
 3330WAT     H110201   0.343   4.530   3.392
 3330WAT     H210202   0.481   4.533   3.329
 3331WAT      O10203   0.032   4.562   2.519
 3331WAT     H110204   0.093   4.543   2.590
 3331WAT     H210205   0.007   4.653   2.531
 3332WAT      O10206   0.007   3.428   3.879
 3332WAT     H110207   0.059   3.411   3.801
 3332WAT     H210208  -0.045   3.505   3.858
 3333WAT      O10209   3.512   0.036   3.494
 3333WAT     H110210   3.570   0.090   3.548
 3333WAT     H210211   3.559  -0.047   3.485
 3334WAT      O10212   0.908   2.670   0.734
 3334WAT     H110213   0.870   2.744   0.686
 3334WAT     H210214   0.863   2.671   0.819
 3335WAT      O10215   0.422   0.385   0.108
 3335WAT     H110216   0.328   0.382   0.089
 3335WAT     H210217   0.462   0.336   0.036
 3336WAT      O10218   2.661   2.906   0.190
 3336WAT     H110219   2.611   2.976   0.149
 3336WAT     H210220   2.597   2.857   0.242
 3337WAT      O10221   3.350   3.332   3.443
 3337WAT     H110222   3.283   3.356   3.379
 3337WAT     H210223   3.387   3.250   3.408
 3338WAT      O10224   0.847   4.817   2.964
 3338WAT     H110225   0.885   4.733   2.990
 3338WAT     H210226   0.871   4.877   3.034
 3339WAT      O10227   1.007   3.649   1.697
 3339WAT     H110228   1.024   3.718   1.761
 3339WAT     H210229   1.000   3.569   1.750
 3340WAT      O10230   0.642   1.547   2.492
 3340WAT     H110231   0.728   1.511   2.471
 3340WAT     H210232   0.611   1.495   2.566
 3341WAT      O10233   0.130   2.359   4.437
 3341WAT     H110234   0.094   2.448   4.433
 3341WAT     H210235   0.207   2.361   4.381
 3342WAT      O10236   3.372   4.686   1.962
 3342WAT     H110237   3.339   4.774   1.981
 3342WAT     H210238   3.411   4.694   1.875
 3343WAT      O10239   3.362   3.143   2.003
 3343WAT     H110240   3.396   3.089   1.931
 3343WAT     H210241   3.319   3.081   2.061
 3344WAT      O10242   3.975   3.713   2.135
 3344WAT     H110243   4.035   3.638   2.126
 3344WAT     H210244   3.909   3.698   2.068
 3345WAT      O10245   1.756   2.477   0.588
 3345WAT     H110246   1.709   2.429   0.656
 3345WAT     H210247   1.686   2.512   0.532
 3346WAT      O10248   0.382   3.132   0.037
 3346WAT     H110249   0.384   3.177   0.121
 3346WAT     H210250   0.319   3.181  -0.015
 3347WAT      O10251   0.109   1.297   2.299
 3347WAT     H110252   0.019   1.297   2.268
 3347WAT     H210253   0.162   1.286   2.220
 3348WAT      O10254   3.538   4.123   4.437
 3348WAT     H110255   3.482   4.121   4.359
 3348WAT     H210256   3.583   4.207   4.432
 3349WAT      O10257  -0.001   1.811   2.945
 3349WAT     H110258   0.065   1.852   2.890
 3349WAT     H210259   0.048   1.749   2.999
 3350WAT      O10260   1.929   0.605   3.181
 3350WAT     H110261   1.951   0.563   3.264
 3350WAT     H210262   1.841   0.575   3.162
 3351WAT      O10263   2.639   3.284   1.724
 3351WAT     H110264   2.690   3.310   1.800
 3351WAT     H210265   2.567   3.347   1.720
 3352WAT      O10266   3.290   3.177   3.092
 3352WAT     H110267   3.372   3.203   3.051
 3352WAT     H210268   3.253   3.112   3.032
 3353WAT      O10269   3.073   4.215   0.254
 3353WAT     H110270   3.161   4.188   0.280
 3353WAT     H210271   3.053   4.289   0.312
 3354WAT      O10272   3.861   1.982   3.088
 3354WAT     H110273   3.784   1.925   3.094
 3354WAT     H210274   3.825   2.067   3.064
 3355WAT      O10275   3.919   0.550   4.724
 3355WAT     H110276   3.975   0.472   4.716
 3355WAT     H210277   3.859   0.544   4.649
 3356WAT      O10278   3.289   2.964   4.457
 3356WAT     H110279   3.375   2.988   4.491
 3356WAT     H210280   3.237   3.044   4.464
 3357WAT      O10281   1.579   0.275   1.116
 3357WAT     H110282   1.611   0.317   1.196
 3357WAT     H210283   1.587   0.342   1.048
 3358WAT      O10284   0.111   3.243   2.931
 3358WAT     H110285   0.015   3.244   2.931
 3358WAT     H210286   0.135   3.272   3.019
 3359WAT      O10287   0.025   2.859   4.545
 3359WAT     H110288   0.090   2.929   4.548
 3359WAT     H210289  -0.043   2.887   4.606
 3360WAT      O10290   2.257   2.049   0.866
 3360WAT     H110291   2.350   2.060   0.847
 3360WAT     H210292   2.253   1.972   0.924
 3361WAT      O10293   1.572   0.491   4.539
 3361WAT     H110294   1.588   0.399   4.519
 3361WAT     H210295   1.640   0.514   4.603
 3362WAT      O10296   3.973   2.582   0.143
 3362WAT     H110297   4.066   2.571   0.164
 3362WAT     H210298   3.932   2.602   0.227
 3363WAT      O10299   3.371   3.925   2.508
 3363WAT     H110300   3.459   3.963   2.510
 3363WAT     H210301   3.325   3.974   2.440
 3364WAT      O10302   3.446   4.060   0.860
 3364WAT     H110303   3.427   4.073   0.953
 3364WAT     H210304   3.502   3.982   0.858
 3365WAT      O10305   0.209   3.053   4.530
 3365WAT     H110306   0.304   3.058   4.541
 3365WAT     H210307   0.183   3.144   4.511
 3366WAT      O10308   3.671   2.533   4.335
 3366WAT     H110309   3.591   2.483   4.320
 3366WAT     H210310   3.641   2.621   4.358
 3367WAT      O10311   0.891   4.347   3.932
 3367WAT     H110312   0.845   4.323   4.012
 3367WAT     H210313   0.824   4.344   3.864
 3368WAT      O10314   2.158   3.358   5.065
 3368WAT     H110315   2.124   3.376   4.978
 3368WAT     H210316   2.081   3.357   5.121
 3369WAT      O10317   1.657   1.398   0.867
 3369WAT     H110318   1.610   1.407   0.784
 3369WAT     H210319   1.687   1.307   0.868
 3370WAT      O10320   0.309   4.235   2.670
 3370WAT     H110321   0.334   4.249   2.579
 3370WAT     H210322   0.247   4.162   2.667
 3371WAT      O10323   1.632   4.844   3.519
 3371WAT     H110324   1.709   4.805   3.561
 3371WAT     H210325   1.665   4.881   3.438
 3372WAT      O10326   3.257   0.247   2.064
 3372WAT     H110327   3.270   0.324   2.119
 3372WAT     H210328   3.296   0.175   2.113
 3373WAT      O10329   2.075   3.080   4.730
 3373WAT     H110330   1.984   3.105   4.716
 3373WAT     H210331   2.125   3.144   4.680
 3374WAT      O10332   2.226   0.750   1.464
 3374WAT     H110333   2.283   0.771   1.391
 3374WAT     H210334   2.277   0.771   1.542
 3375WAT      O10335   0.300   2.787   2.141
 3375WAT     H110336   0.347   2.713   2.103
 3375WAT     H210337   0.364   2.827   2.200
 3376WAT      O10338   2.077   4.356   0.282
 3376WAT     H110339   2.141   4.335   0.214
 3376WAT     H210340   2.059   4.449   0.271
 3377WAT      O10341   2.177   4.426   4.759
 3377WAT     H110342   2.197   4.488   4.689
 3377WAT     H210343   2.192   4.475   4.840
 3378WAT      O10344   1.008   2.828   2.267
 3378WAT     H110345   0.989   2.736   2.248
 3378WAT     H210346   1.052   2.827   2.351
 3379WAT      O10347   4.015   3.752   4.424
 3379WAT     H110348   4.108   3.729   4.415
 3379WAT     H210349   4.005   3.771   4.518
 3380WAT      O10350   3.814   4.305   3.582
 3380WAT     H110351   3.757   4.295   3.658
 3380WAT     H210352   3.897   4.335   3.619
 3381WAT      O10353   3.500   0.403   4.684
 3381WAT     H110354   3.570   0.342   4.710
 3381WAT     H210355   3.529   0.438   4.600
 3382WAT      O10356   1.110   1.337   1.021
 3382WAT     H110357   1.039   1.275   1.041
 3382WAT     H210358   1.149   1.303   0.941
 3383WAT      O10359   2.419   1.979   0.270
 3383WAT     H110360   2.485   1.945   0.209
 3383WAT     H210361   2.348   2.009   0.214
 3384WAT      O10362   0.969   3.036   0.035
 3384WAT     H110363   0.873   3.035   0.030
 3384WAT     H210364   0.997   2.996  -0.048
 3385WAT      O10365   0.179   4.272   0.717
 3385WAT     H110366   0.151   4.363   0.717
 3385WAT     H210367   0.100   4.223   0.742
 3386WAT      O10368   4.505   2.668   0.503
 3386WAT     H110369   4.596   2.641   0.498
 3386WAT     H210370   4.493   2.697   0.593
 3387WAT      O10371   1.392   0.569   2.116
 3387WAT     H110372   1.441   0.620   2.051
 3387WAT     H210373   1.392   0.480   2.081
 3388WAT      O10374   2.631   4.701   0.508
 3388WAT     H110375   2.548   4.669   0.474
 3388WAT     H210376   2.669   4.626   0.553
 3389WAT      O10377   3.823   4.030   2.488
 3389WAT     H110378   3.883   4.093   2.449
 3389WAT     H210379   3.749   4.082   2.520
 3390WAT      O10380   4.099   0.868   3.420
 3390WAT     H110381   4.111   0.931   3.349
 3390WAT     H210382   4.011   0.886   3.453
 3391WAT      O10383   2.721   3.344   0.731
 3391WAT     H110384   2.652   3.321   0.795
 3391WAT     H210385   2.730   3.439   0.739
 3392WAT      O10386   2.812   1.922   1.074
 3392WAT     H110387   2.847   1.898   1.159
 3392WAT     H210388   2.736   1.864   1.062
 3393WAT      O10389   3.469   2.414   4.615
 3393WAT     H110390   3.543   2.365   4.651
 3393WAT     H210391   3.478   2.402   4.520
 3394WAT      O10392   0.076   0.524   4.184
 3394WAT     H110393   0.097   0.618   4.182
 3394WAT     H210394  -0.016   0.520   4.157
 3395WAT      O10395   3.661   4.642   0.372
 3395WAT     H110396   3.675   4.732   0.402
 3395WAT     H210397   3.603   4.604   0.438
 3396WAT      O10398   0.644   2.285   4.772
 3396WAT     H110399   0.606   2.209   4.816
 3396WAT     H210400   0.619   2.360   4.827
 3397WAT      O10401   1.097   1.503   4.517
 3397WAT     H110402   1.095   1.535   4.607
 3397WAT     H210403   1.155   1.427   4.519
 3398WAT      O10404   1.290   0.905   3.836
 3398WAT     H110405   1.271   0.982   3.890
 3398WAT     H210406   1.337   0.845   3.894
 3399WAT      O10407   3.821   2.425   3.344
 3399WAT     H110408   3.751   2.378   3.300
 3399WAT     H210409   3.898   2.369   3.333
 3400WAT      O10410   3.166   2.909   2.965
 3400WAT     H110411   3.255   2.875   2.956
 3400WAT     H210412   3.116   2.837   3.003
 3401WAT      O10413   1.233   3.992   3.096
 3401WAT     H110414   1.151   4.033   3.123
 3401WAT     H210415   1.257   4.037   3.015
 3402WAT      O10416   3.473   0.911   4.876
 3402WAT     H110417   3.465   0.965   4.955
 3402WAT     H210418   3.430   0.829   4.898
 3403WAT      O10419   4.503   2.159   3.300
 3403WAT     H110420   4.588   2.124   3.326
 3403WAT     H210421   4.510   2.171   3.205
 3404WAT      O10422   0.070   3.757   2.855
 3404WAT     H110423   0.020   3.676   2.869
 3404WAT     H210424   0.149   3.728   2.810
 3405WAT      O10425   1.755   2.285   3.833
 3405WAT     H110426   1.767   2.200   3.876
 3405WAT     H210427   1.826   2.290   3.769
 3406WAT      O10428   4.465   1.166   3.277
 3406WAT     H110429   4.388   1.192   3.328
 3406WAT     H210430   4.536   1.163   3.341
 3407WAT      O10431   4.062   4.774   1.880
 3407WAT     H110432   4.079   4.754   1.788
 3407WAT     H210433   3.967   4.782   1.886
 3408WAT      O10434   0.087   0.069   3.710
 3408WAT     H110435   0.105   0.126   3.785
 3408WAT     H210436   0.154   0.092   3.646
 3409WAT      O10437   4.452   2.086   1.537
 3409WAT     H110438   4.535   2.113   1.576
 3409WAT     H210439   4.433   2.001   1.577
 3410WAT      O10440   3.181   2.179   2.758
 3410WAT     H110441   3.218   2.130   2.831
 3410WAT     H210442   3.086   2.173   2.770
 3411WAT      O10443   4.417   3.075   1.654
 3411WAT     H110444   4.500   3.027   1.655
 3411WAT     H210445   4.353   3.010   1.627
 3412WAT      O10446   1.873   3.502   3.581
 3412WAT     H110447   1.965   3.501   3.554
 3412WAT     H210448   1.824   3.489   3.500
 3413WAT      O10449   2.200   3.022   0.468
 3413WAT     H110450   2.252   3.090   0.424
 3413WAT     H210451   2.264   2.955   0.492
 3414WAT      O10452   0.966   1.533   0.377
 3414WAT     H110453   1.036   1.599   0.383
 3414WAT     H210454   1.013   1.451   0.359
 3415WAT      O10455   2.201   3.587   0.140
 3415WAT     H110456   2.239   3.666   0.179
 3415WAT     H210457   2.270   3.553   0.084
 3416WAT      O10458   3.253   3.326   4.700
 3416WAT     H110459   3.257   3.397   4.636
 3416WAT     H210460   3.175   3.276   4.677
 3417WAT      O10461   2.773   4.288   1.751
 3417WAT     H110462   2.814   4.322   1.831
 3417WAT     H210463   2.792   4.354   1.685
 3418WAT      O10464   4.420   2.199   2.754
 3418WAT     H110465   4.484   2.234   2.692
 3418WAT     H210466   4.344   2.177   2.700
 3419WAT      O10467   2.572   1.886   1.765
 3419WAT     H110468   2.600   1.814   1.822
 3419WAT     H210469   2.538   1.842   1.687
 3420WAT      O10470   0.370   0.891   4.090
 3420WAT     H110471   0.440   0.845   4.136
 3420WAT     H210472   0.368   0.851   4.003
 3421WAT      O10473   0.634   3.691   3.076
 3421WAT     H110474   0.596   3.771   3.040
 3421WAT     H210475   0.637   3.630   3.003
 3422WAT      O10476   3.382   1.621   2.211
 3422WAT     H110477   3.365   1.653   2.300
 3422WAT     H210478   3.404   1.700   2.161
 3423WAT      O10479   0.169   4.046   1.707
 3423WAT     H110480   0.132   4.088   1.784
 3423WAT     H210481   0.261   4.032   1.729
 3424WAT      O10482   2.172   4.094   2.119
 3424WAT     H110483   2.114   4.106   2.195
 3424WAT     H210484   2.233   4.026   2.147
 3425WAT      O10485   0.093   4.782   1.774
 3425WAT     H110486   0.158   4.712   1.772
 3425WAT     H210487   0.144   4.861   1.788
 3426WAT      O10488   1.709   0.858   4.031
 3426WAT     H110489   1.796   0.821   4.046
 3426WAT     H210490   1.724   0.935   3.977
 3427WAT      O10491   3.828   1.201   4.414
 3427WAT     H110492   3.844   1.285   4.371
 3427WAT     H210493   3.736   1.204   4.440
 3428WAT      O10494   4.313   2.667   4.909
 3428WAT     H110495   4.305   2.608   4.834
 3428WAT     H210496   4.401   2.650   4.943
 3429WAT      O10497   2.912   0.050   2.115
 3429WAT     H110498   2.903   0.140   2.146
 3429WAT     H210499   2.984   0.054   2.052
 3430WAT      O10500   3.882   0.299   2.868
 3430WAT     H110501   3.924   0.371   2.915
 3430WAT     H210502   3.820   0.262   2.930
 3431WAT      O10503   2.074   0.961   2.990
 3431WAT     H110504   1.996   0.913   2.965
 3431WAT     H210505   2.052   1.000   3.075
 3432WAT      O10506   0.489   4.137   4.378
 3432WAT     H110507   0.566   4.189   4.402
 3432WAT     H210508   0.481   4.072   4.447
 3433WAT      O10509   4.066   3.172   0.671
 3433WAT     H110510   3.974   3.157   0.694
 3433WAT     H210511   4.063   3.247   0.612
 3434WAT      O10512   2.476   1.681   2.554
 3434WAT     H110513   2.402   1.644   2.602
 3434WAT     H210514   2.446   1.687   2.463
 3435WAT      O10515   4.471   0.944   2.163
 3435WAT     H110516   4.411   0.873   2.187
 3435WAT     H210517   4.434   0.980   2.083
 3436WAT      O10518   2.688   2.593   2.026
 3436WAT     H110519   2.636   2.549   1.959
 3436WAT     H210520   2.675   2.686   2.009
 3437WAT      O10521   1.561   2.468   3.895
 3437WAT     H110522   1.574   2.556   3.859
 3437WAT     H210523   1.640   2.420   3.871
 3438WAT      O10524   3.541   0.142   0.396
 3438WAT     H110525   3.478   0.073   0.414
 3438WAT     H210526   3.523   0.169   0.306
 3439WAT      O10527   0.773   1.522   0.880
 3439WAT     H110528   0.715   1.585   0.838
 3439WAT     H210529   0.861   1.559   0.870
 3440WAT      O10530   3.899   2.238   4.656
 3440WAT     H110531   3.947   2.307   4.702
 3440WAT     H210532   3.807   2.257   4.674
 3441WAT      O10533   0.084   2.866   0.878
 3441WAT     H110534   0.179   2.855   0.874
 3441WAT     H210535   0.049   2.779   0.858
 3442WAT      O10536   1.558   4.184   1.409
 3442WAT     H110537   1.494   4.176   1.338
 3442WAT     H210538   1.507   4.168   1.489
 3443WAT      O10539   3.334   4.857   4.432
 3443WAT     H110540   3.287   4.884   4.511
 3443WAT     H210541   3.379   4.936   4.403
 3444WAT      O10542   3.954   3.380   5.037
 3444WAT     H110543   4.039   3.336   5.039
 3444WAT     H210544   3.935   3.393   4.944
 3445WAT      O10545   0.009   0.672   3.520
 3445WAT     H110546   0.036   0.582   3.539
 3445WAT     H210547   0.006   0.677   3.424
 3446WAT      O10548   2.815   2.410   4.835
 3446WAT     H110549   2.772   2.493   4.819
 3446WAT     H210550   2.775   2.349   4.774
 3447WAT      O10551   1.167   1.597   0.986
 3447WAT     H110552   1.257   1.608   0.956
 3447WAT     H210553   1.159   1.505   1.008
 3448WAT      O10554   0.216   0.951   0.392
 3448WAT     H110555   0.213   0.914   0.303
 3448WAT     H210556   0.173   1.036   0.384
 3449WAT      O10557   3.249   0.957   4.634
 3449WAT     H110558   3.174   1.015   4.646
 3449WAT     H210559   3.313   0.988   4.698
 3450WAT      O10560   2.895   3.889   4.979
 3450WAT     H110561   2.975   3.854   4.942
 3450WAT     H210562   2.833   3.890   4.906
 3451WAT      O10563   1.479   2.407   2.479
 3451WAT     H110564   1.543   2.472   2.505
 3451WAT     H210565   1.436   2.380   2.560
 3452WAT      O10566   3.167   1.368   1.917
 3452WAT     H110567   3.190   1.336   2.004
 3452WAT     H210568   3.073   1.351   1.909
 3453WAT      O10569   0.632   2.881   0.390
 3453WAT     H110570   0.721   2.901   0.362
 3453WAT     H210571   0.592   2.839   0.314
 3454WAT      O10572   2.731   4.536   2.052
 3454WAT     H110573   2.798   4.469   2.064
 3454WAT     H210574   2.700   4.556   2.140
 3455WAT      O10575   1.138   0.950   2.795
 3455WAT     H110576   1.163   0.861   2.818
 3455WAT     H210577   1.109   0.989   2.878
 3456WAT      O10578   2.452   0.898   1.685
 3456WAT     H110579   2.483   0.809   1.703
 3456WAT     H210580   2.531   0.946   1.660
 3457WAT      O10581   4.138   4.033   0.494
 3457WAT     H110582   4.168   4.085   0.569
 3457WAT     H210583   4.044   4.049   0.489
 3458WAT      O10584   0.274   4.448   0.479
 3458WAT     H110585   0.238   4.429   0.566
 3458WAT     H210586   0.274   4.363   0.435
 3459WAT      O10587   3.850   0.908   4.079
 3459WAT     H110588   3.868   0.938   4.168
 3459WAT     H210589   3.936   0.908   4.036
 3460WAT      O10590   3.434   2.762   0.824
 3460WAT     H110591   3.422   2.673   0.788
 3460WAT     H210592   3.521   2.760   0.863
 3461WAT      O10593   1.214   0.423   3.319
 3461WAT     H110594   1.154   0.351   3.302
 3461WAT     H210595   1.165   0.502   3.294
 3462WAT      O10596   1.372   2.029   0.376
 3462WAT     H110597   1.363   2.014   0.281
 3462WAT     H210598   1.339   2.117   0.389
 3463WAT      O10599   1.755   4.140   0.112
 3463WAT     H110600   1.750   4.181   0.199
 3463WAT     H210601   1.725   4.051   0.126
 3464WAT      O10602   1.855   4.861   4.858
 3464WAT     H110603   1.886   4.837   4.946
 3464WAT     H210604   1.777   4.807   4.844
 3465WAT      O10605   1.254   4.213   3.639
 3465WAT     H110606   1.174   4.182   3.682
 3465WAT     H210607   1.305   4.253   3.709
 3466WAT      O10608   1.345   4.017   0.541
 3466WAT     H110609   1.271   3.980   0.492
 3466WAT     H210610   1.341   3.972   0.625
 3467WAT      O10611   1.168   0.124   3.029
 3467WAT     H110612   1.079   0.140   2.998
 3467WAT     H210613   1.160   0.121   3.125
 3468WAT      O10614   2.734   3.734   1.772
 3468WAT     H110615   2.731   3.705   1.681
 3468WAT     H210616   2.806   3.796   1.776
 3469WAT      O10617   2.397   4.369   4.344
 3469WAT     H110618   2.311   4.340   4.374
 3469WAT     H210619   2.377   4.434   4.277
 3470WAT      O10620   2.331   0.262   2.845
 3470WAT     H110621   2.281   0.251   2.926
 3470WAT     H210622   2.310   0.184   2.793
 3471WAT      O10623   0.503   1.697   5.079
 3471WAT     H110624   0.430   1.735   5.030
 3471WAT     H210625   0.467   1.616   5.116
 3472WAT      O10626   0.393   0.163   2.819
 3472WAT     H110627   0.396   0.230   2.751
 3472WAT     H210628   0.342   0.092   2.781
 3473WAT      O10629   3.325   2.512   2.149
 3473WAT     H110630   3.265   2.437   2.144
 3473WAT     H210631   3.357   2.512   2.239
 3474WAT      O10632   2.072   3.454   1.046
 3474WAT     H110633   2.078   3.369   1.003
 3474WAT     H210634   2.012   3.504   0.993
 3475WAT      O10635   0.623   4.456   1.588
 3475WAT     H110636   0.628   4.382   1.649
 3475WAT     H210637   0.539   4.445   1.545
 3476WAT      O10638   1.398   4.506   1.926
 3476WAT     H110639   1.355   4.433   1.970
 3476WAT     H210640   1.334   4.536   1.861
 3477WAT      O10641   4.323   3.916   3.567
 3477WAT     H110642   4.409   3.952   3.543
 3477WAT     H210643   4.322   3.829   3.527
 3478WAT      O10644   1.982   0.162   0.129
 3478WAT     H110645   2.055   0.153   0.190
 3478WAT     H210646   1.999   0.243   0.082
 3479WAT      O10647   1.387   1.270   1.549
 3479WAT     H110648   1.338   1.344   1.585
 3479WAT     H210649   1.474   1.305   1.530
 3480WAT      O10650   1.137   2.072   1.389
 3480WAT     H110651   1.174   2.158   1.409
 3480WAT     H210652   1.213   2.015   1.375
 3481WAT      O10653   1.049   0.511   4.377
 3481WAT     H110654   1.116   0.507   4.445
 3481WAT     H210655   1.086   0.464   4.303
 3482WAT      O10656   4.425   1.875   3.844
 3482WAT     H110657   4.465   1.950   3.801
 3482WAT     H210658   4.395   1.819   3.773
 3483WAT      O10659   1.418   1.124   2.644
 3483WAT     H110660   1.339   1.090   2.601
 3483WAT     H210661   1.425   1.072   2.724
 3484WAT      O10662   3.414   0.381   5.041
 3484WAT     H110663   3.468   0.311   5.079
 3484WAT     H210664   3.343   0.394   5.104
 3485WAT      O10665   4.493   0.453   3.163
 3485WAT     H110666   4.421   0.403   3.201
 3485WAT     H210667   4.572   0.402   3.183
 3486WAT      O10668   1.119   2.070   3.984
 3486WAT     H110669   1.143   2.094   4.074
 3486WAT     H210670   1.200   2.077   3.934
 3487WAT      O10671   1.270   0.495   2.533
 3487WAT     H110672   1.199   0.514   2.471
 3487WAT     H210673   1.350   0.503   2.480
 3488WAT      O10674   0.086   2.190   2.115
 3488WAT     H110675   0.131   2.107   2.126
 3488WAT     H210676  -0.002   2.175   2.148
 3489WAT      O10677   1.994   3.930   5.003
 3489WAT     H110678   1.960   3.988   5.071
 3489WAT     H210679   1.941   3.950   4.926
 3490WAT      O10680   3.932   2.213   0.508
 3490WAT     H110681   3.854   2.190   0.558
 3490WAT     H210682   3.966   2.130   0.476
 3491WAT      O10683   3.274   1.549   3.959
 3491WAT     H110684   3.352   1.603   3.966
 3491WAT     H210685   3.211   1.602   3.911
 3492WAT      O10686   2.049   4.275   1.218
 3492WAT     H110687   1.994   4.330   1.274
 3492WAT     H210688   2.090   4.337   1.157
 3493WAT      O10689   1.939   1.463   2.952
 3493WAT     H110690   1.880   1.444   3.024
 3493WAT     H210691   2.019   1.416   2.973
 3494WAT      O10692   2.694   1.780   4.158
 3494WAT     H110693   2.773   1.764   4.210
 3494WAT     H210694   2.666   1.693   4.130
 3495WAT      O10695   4.179   2.589   0.942
 3495WAT     H110696   4.143   2.670   0.906
 3495WAT     H210697   4.114   2.522   0.921
 3496WAT      O10698   3.571   0.869   4.370
 3496WAT     H110699   3.599   0.921   4.445
 3496WAT     H210700   3.496   0.916   4.334
 3497WAT      O10701   4.045   0.307   4.677
 3497WAT     H110702   4.027   0.216   4.654
 3497WAT     H210703   4.098   0.340   4.604
 3498WAT      O10704   4.383   2.955   0.490
 3498WAT     H110705   4.427   2.871   0.476
 3498WAT     H210706   4.290   2.935   0.479
 3499WAT      O10707   3.038   1.104   0.512
 3499WAT     H110708   3.118   1.051   0.510
 3499WAT     H210709   3.069   1.194   0.524
 3500WAT      O10710   1.665   4.870   0.206
 3500WAT     H110711   1.703   4.807   0.266
 3500WAT     H210712   1.737   4.928   0.183
 3501WAT      O10713   0.471   5.051   4.106
 3501WAT     H110714   0.393   5.064   4.052
 3501WAT     H210715   0.527   5.125   4.083
 3502WAT      O10716   0.011   2.721   2.180
 3502WAT     H110717   0.031   2.657   2.112
 3502WAT     H210718   0.095   2.765   2.196
 3503WAT      O10719   1.457   1.684   0.510
 3503WAT     H110720   1.475   1.771   0.547
 3503WAT     H210721   1.461   1.698   0.415
 3504WAT      O10722   2.780   2.401   0.650
 3504WAT     H110723   2.793   2.331   0.714
 3504WAT     H210724   2.686   2.419   0.654
 3505WAT      O10725   3.754   0.973   2.768
 3505WAT     H110726   3.822   1.010   2.825
 3505WAT     H210727   3.678   1.030   2.781
 3506WAT      O10728   4.464   0.577   4.454
 3506WAT     H110729   4.495   0.616   4.372
 3506WAT     H210730   4.543   0.557   4.503
 3507WAT      O10731   1.517   4.957   5.251
 3507WAT     H110732   1.534   5.052   5.248
 3507WAT     H210733   1.588   4.923   5.305
 3508WAT      O10734   3.149   0.683   5.088
 3508WAT     H110735   3.164   0.665   4.996
 3508WAT     H210736   3.184   0.606   5.134
 3509WAT      O10737   4.197   1.908   2.568
 3509WAT     H110738   4.250   1.839   2.529
 3509WAT     H210739   4.199   1.889   2.662
 3510WAT      O10740   3.182   0.748   2.550
 3510WAT     H110741   3.259   0.732   2.604
 3510WAT     H210742   3.209   0.820   2.492
 3511WAT      O10743   2.449   3.148   0.654
 3511WAT     H110744   2.538   3.113   0.664
 3511WAT     H210745   2.392   3.071   0.663
 3512WAT      O10746   0.355   3.860   1.107
 3512WAT     H110747   0.261   3.876   1.100
 3512WAT     H210748   0.392   3.900   1.029
 3513WAT      O10749   1.924   3.021   1.525
 3513WAT     H110750   1.837   3.022   1.484
 3513WAT     H210751   1.916   3.082   1.599
 3514WAT      O10752   4.443   4.618   0.332
 3514WAT     H110753   4.528   4.646   0.365
 3514WAT     H210754   4.463   4.566   0.255
 3515WAT      O10755   0.849   4.990   4.788
 3515WAT     H110756   0.913   5.055   4.819
 3515WAT     H210757   0.851   5.000   4.693
 3516WAT      O10758   0.237   2.269   0.039
 3516WAT     H110759   0.228   2.362   0.018
 3516WAT     H210760   0.304   2.266   0.107
 3517WAT      O10761   0.482   1.641   4.103
 3517WAT     H110762   0.435   1.572   4.054
 3517WAT     H210763   0.461   1.722   4.056
 3518WAT      O10764   4.421   3.771   4.769
 3518WAT     H110765   4.355   3.703   4.785
 3518WAT     H210766   4.402   3.803   4.681
 3519WAT      O10767   0.011   4.844   2.284
 3519WAT     H110768   0.071   4.771   2.273
 3519WAT     H210769  -0.029   4.855   2.198
 3520WAT      O10770   1.995   4.654   2.708
 3520WAT     H110771   1.928   4.586   2.706
 3520WAT     H210772   1.946   4.736   2.707
 3521WAT      O10773   3.087   4.438   3.658
 3521WAT     H110774   3.046   4.494   3.724
 3521WAT     H210775   3.043   4.353   3.669
 3522WAT      O10776   0.246   2.626   0.442
 3522WAT     H110777   0.231   2.714   0.408
 3522WAT     H210778   0.327   2.597   0.400
 3523WAT      O10779   4.061   2.259   3.338
 3523WAT     H110780   4.145   2.260   3.384
 3523WAT     H210781   4.078   2.306   3.257
 3524WAT      O10782   1.698   4.854   2.144
 3524WAT     H110783   1.606   4.874   2.156
 3524WAT     H210784   1.713   4.774   2.194
 3525WAT      O10785   0.756   2.953   2.571
 3525WAT     H110786   0.744   2.970   2.478
 3525WAT     H210787   0.767   2.858   2.577
 3526WAT      O10788   3.381   2.140   2.054
 3526WAT     H110789   3.399   2.233   2.047
 3526WAT     H210790   3.331   2.131   2.135
 3527WAT      O10791   3.000   1.390   3.954
 3527WAT     H110792   3.059   1.373   4.028
 3527WAT     H210793   2.993   1.485   3.951
 3528WAT      O10794   0.379   0.698   0.176
 3528WAT     H110795   0.297   0.743   0.159
 3528WAT     H210796   0.379   0.624   0.115
 3529WAT      O10797   1.918   5.115   2.447
 3529WAT     H110798   1.899   5.025   2.421
 3529WAT     H210799   1.895   5.118   2.539
 3530WAT      O10800   3.271   3.524   1.504
 3530WAT     H110801   3.263   3.451   1.566
 3530WAT     H210802   3.180   3.545   1.481
 3531WAT      O10803   3.457   3.988   2.978
 3531WAT     H110804   3.542   3.995   3.022
 3531WAT     H210805   3.446   3.895   2.963
 3532WAT      O10806   2.806   3.436   4.244
 3532WAT     H110807   2.879   3.491   4.270
 3532WAT     H210808   2.728   3.491   4.257
 3533WAT      O10809   3.098   4.867   0.147
 3533WAT     H110810   3.140   4.782   0.133
 3533WAT     H210811   3.133   4.923   0.078
 3534WAT      O10812   3.733   1.040   4.912
 3534WAT     H110813   3.735   0.945   4.900
 3534WAT     H210814   3.640   1.061   4.916
 3535WAT      O10815   0.250   2.054   3.383
 3535WAT     H110816   0.256   1.961   3.364
 3535WAT     H210817   0.320   2.094   3.332
 3536WAT      O10818   1.159   2.774   0.106
 3536WAT     H110819   1.197   2.757   0.019
 3536WAT     H210820   1.232   2.807   0.158
 3537WAT      O10821   4.424   4.268   0.416
 3537WAT     H110822   4.469   4.311   0.344
 3537WAT     H210823   4.341   4.315   0.424
 3538WAT      O10824   3.606   2.094   2.799
 3538WAT     H110825   3.637   2.152   2.869
 3538WAT     H210826   3.570   2.154   2.733
 3539WAT      O10827   2.899   5.122   2.663
 3539WAT     H110828   2.903   5.151   2.572
 3539WAT     H210829   2.834   5.179   2.704
 3540WAT      O10830   3.904   4.559   1.420
 3540WAT     H110831   3.913   4.610   1.340
 3540WAT     H210832   3.977   4.497   1.417
 3541WAT      O10833   2.674   4.496   1.152
 3541WAT     H110834   2.626   4.420   1.117
 3541WAT     H210835   2.621   4.525   1.226
 3542WAT      O10836   1.108   0.275   2.767
 3542WAT     H110837   1.197   0.263   2.732
 3542WAT     H210838   1.050   0.247   2.696
 3543WAT      O10839   0.607   0.200   0.522
 3543WAT     H110840   0.674   0.208   0.590
 3543WAT     H210841   0.561   0.284   0.524
 3544WAT      O10842   1.594   3.954   4.997
 3544WAT     H110843   1.630   3.958   4.908
 3544WAT     H210844   1.500   3.945   4.985
 3545WAT      O10845   3.569   1.576   1.871
 3545WAT     H110846   3.647   1.616   1.832
 3545WAT     H210847   3.500   1.589   1.806
 3546WAT      O10848   1.851   3.760   3.171
 3546WAT     H110849   1.836   3.832   3.232
 3546WAT     H210850   1.923   3.790   3.116
 3547WAT      O10851   0.971   1.723   5.187
 3547WAT     H110852   1.007   1.764   5.266
 3547WAT     H210853   0.878   1.711   5.207
 3548WAT      O10854   0.107   2.779   2.763
 3548WAT     H110855   0.110   2.833   2.842
 3548WAT     H210856   0.112   2.689   2.796
 3549WAT      O10857   3.541   3.346   0.013
 3549WAT     H110858   3.569   3.277   0.074
 3549WAT     H210859   3.467   3.388   0.056
 3550WAT      O10860   3.275   4.565   1.032
 3550WAT     H110861   3.262   4.487   0.978
 3550WAT     H210862   3.194   4.574   1.082
 3551WAT      O10863   2.008   4.980   4.625
 3551WAT     H110864   1.980   4.932   4.702
 3551WAT     H210865   2.104   4.975   4.627
 3552WAT      O10866   2.073   1.675   0.720
 3552WAT     H110867   2.158   1.656   0.679
 3552WAT     H210868   2.071   1.770   0.727
 3553WAT      O10869   0.713   5.023   1.569
 3553WAT     H110870   0.683   4.948   1.518
 3553WAT     H210871   0.684   5.099   1.519
 3554WAT      O10872   1.727   1.237   2.318
 3554WAT     H110873   1.682   1.265   2.238
 3554WAT     H210874   1.762   1.319   2.355
 3555WAT      O10875   1.811   1.174   4.655
 3555WAT     H110876   1.776   1.255   4.694
 3555WAT     H210877   1.803   1.188   4.561
 3556WAT      O10878   2.982   3.508   1.438
 3556WAT     H110879   2.943   3.526   1.523
 3556WAT     H210880   2.907   3.499   1.379
 3557WAT      O10881   1.497   2.806   1.233
 3557WAT     H110882   1.414   2.853   1.225
 3557WAT     H210883   1.557   2.854   1.177
 3558WAT      O10884   4.499   0.146   5.233
 3558WAT     H110885   4.458   0.076   5.181
 3558WAT     H210886   4.464   0.133   5.321
 3559WAT      O10887   0.961   4.938   2.722
 3559WAT     H110888   1.056   4.944   2.709
 3559WAT     H210889   0.951   4.895   2.807
 3560WAT      O10890   0.766   0.081   2.096
 3560WAT     H110891   0.840   0.094   2.156
 3560WAT     H210892   0.728  -0.003   2.123
 3561WAT      O10893   2.569   1.992   2.520
 3561WAT     H110894   2.562   2.028   2.609
 3561WAT     H210895   2.627   1.916   2.529
 3562WAT      O10896   0.142   0.239   1.020
 3562WAT     H110897   0.225   0.231   0.972
 3562WAT     H210898   0.142   0.329   1.053
 3563WAT      O10899   1.006   4.709   1.201
 3563WAT     H110900   0.974   4.800   1.200
 3563WAT     H210901   0.928   4.658   1.225
 3564WAT      O10902   4.234   1.159   1.605
 3564WAT     H110903   4.310   1.108   1.631
 3564WAT     H210904   4.255   1.190   1.517
 3565WAT      O10905   3.787   1.199   2.149
 3565WAT     H110906   3.750   1.125   2.199
 3565WAT     H210907   3.721   1.217   2.082
 3566WAT      O10908   1.627   1.656   1.432
 3566WAT     H110909   1.538   1.641   1.398
 3566WAT     H210910   1.665   1.568   1.440
 3567WAT      O10911   1.531   5.078   3.626
 3567WAT     H110912   1.572   5.008   3.574
 3567WAT     H210913   1.545   5.157   3.574
 3568WAT      O10914   1.904   0.089   0.955
 3568WAT     H110915   1.827   0.056   1.001
 3568WAT     H210916   1.943   0.152   1.014
 3569WAT      O10917   0.539   2.100   1.263
 3569WAT     H110918   0.620   2.143   1.237
 3569WAT     H210919   0.542   2.015   1.219
 3570WAT      O10920   2.805   3.759   3.970
 3570WAT     H110921   2.802   3.744   4.064
 3570WAT     H210922   2.713   3.772   3.944
 3571WAT      O10923   2.457   0.941   5.170
 3571WAT     H110924   2.390   0.980   5.226
 3571WAT     H210925   2.530   0.924   5.229
 3572WAT      O10926   1.775   1.288   1.913
 3572WAT     H110927   1.684   1.299   1.944
 3572WAT     H210928   1.828   1.294   1.993
 3573WAT      O10929   0.249   1.772   2.640
 3573WAT     H110930   0.201   1.853   2.659
 3573WAT     H210931   0.301   1.793   2.563
 3574WAT      O10932   3.086   3.663   1.990
 3574WAT     H110933   3.166   3.649   2.041
 3574WAT     H210934   3.117   3.688   1.903
 3575WAT      O10935   1.957   0.441   0.929
 3575WAT     H110936   1.953   0.359   0.880
 3575WAT     H210937   1.957   0.413   1.021
 3576WAT      O10938   1.950   4.188   4.530
 3576WAT     H110939   1.973   4.096   4.521
 3576WAT     H210940   1.855   4.190   4.518
 3577WAT      O10941   3.537   3.768   3.684
 3577WAT     H110942   3.538   3.725   3.598
 3577WAT     H210943   3.466   3.831   3.678
 3578WAT      O10944   0.677   4.221   4.532
 3578WAT     H110945   0.700   4.306   4.570
 3578WAT     H210946   0.725   4.158   4.585
 3579WAT      O10947   0.160   1.995   4.368
 3579WAT     H110948   0.077   2.014   4.411
 3579WAT     H210949   0.226   2.029   4.429
 3580WAT      O10950   1.589   3.588   2.197
 3580WAT     H110951   1.603   3.553   2.109
 3580WAT     H210952   1.563   3.513   2.249
 3581WAT      O10953   0.708   3.935   0.979
 3581WAT     H110954   0.713   3.902   1.068
 3581WAT     H210955   0.798   3.932   0.946
 3582WAT      O10956   2.020   3.928   4.572
 3582WAT     H110957   2.115   3.923   4.587
 3582WAT     H210958   1.981   3.892   4.652
 3583WAT      O10959   3.250   4.295   1.339
 3583WAT     H110960   3.341   4.274   1.316
 3583WAT     H210961   3.220   4.220   1.390
 3584WAT      O10962   3.957   0.286   5.142
 3584WAT     H110963   3.880   0.320   5.096
 3584WAT     H210964   4.029   0.296   5.080
 3585WAT      O10965   4.386   3.118   3.667
 3585WAT     H110966   4.477   3.116   3.696
 3585WAT     H210967   4.388   3.083   3.578
 3586WAT      O10968   4.261   3.539   4.832
 3586WAT     H110969   4.307   3.479   4.891
 3586WAT     H210970   4.227   3.482   4.763
 3587WAT      O10971   4.308   3.462   4.241
 3587WAT     H110972   4.303   3.551   4.206
 3587WAT     H210973   4.266   3.407   4.175
 3588WAT      O10974   0.976   2.534   1.440
 3588WAT     H110975   0.975   2.561   1.532
 3588WAT     H210976   1.064   2.557   1.410
 3589WAT      O10977   3.658   0.156   2.976
 3589WAT     H110978   3.572   0.164   3.017
 3589WAT     H210979   3.690   0.070   3.003
 3590WAT      O10980   4.002   1.630   1.996
 3590WAT     H110981   4.072   1.618   2.059
 3590WAT     H210982   4.002   1.550   1.944
 3591WAT      O10983   1.690   3.432   0.403
 3591WAT     H110984   1.703   3.394   0.489
 3591WAT     H210985   1.643   3.514   0.420
 3592WAT      O10986   0.389   1.391   4.365
 3592WAT     H110987   0.436   1.312   4.339
 3592WAT     H210988   0.321   1.402   4.299
 3593WAT      O10989   2.201   3.183   4.232
 3593WAT     H110990   2.246   3.218   4.309
 3593WAT     H210991   2.207   3.252   4.167
 3594WAT      O10992   2.234   1.610   1.129
 3594WAT     H110993   2.300   1.544   1.151
 3594WAT     H210994   2.182   1.620   1.209
 3595WAT      O10995   4.224   1.511   0.119
 3595WAT     H110996   4.174   1.590   0.100
 3595WAT     H210997   4.308   1.543   0.153
 3596WAT      O10998   3.718   1.020   0.451
 3596WAT     H110999   3.789   1.070   0.410
 3596WAT     H211000   3.667   0.987   0.377
 3597WAT      O11001   3.302   3.830   4.766
 3597WAT     H111002   3.378   3.778   4.791
 3597WAT     H211003   3.270   3.865   4.849
 3598WAT      O11004   1.822   3.040   4.381
 3598WAT     H111005   1.812   3.064   4.289
 3598WAT     H211006   1.802   3.120   4.429
 3599WAT      O11007   3.219   1.493   2.781
 3599WAT     H111008   3.186   1.549   2.711
 3599WAT     H211009   3.237   1.553   2.853
 3600WAT      O11010   3.663   0.270   0.962
 3600WAT     H111011   3.741   0.304   1.005
 3600WAT     H211012   3.590   0.314   1.005
 3601WAT      O11013   1.823   3.868   2.192
 3601WAT     H111014   1.763   3.834   2.259
 3601WAT     H211015   1.905   3.885   2.239
 3602WAT      O11016   1.080   3.649   1.117
 3602WAT     H111017   1.000   3.601   1.097
 3602WAT     H211018   1.149   3.604   1.068
 3603WAT      O11019   0.307   1.131   3.978
 3603WAT     H111020   0.217   1.155   3.960
 3603WAT     H211021   0.301   1.059   4.041
 3604WAT      O11022   2.279   3.720   1.334
 3604WAT     H111023   2.245   3.769   1.259
 3604WAT     H211024   2.204   3.712   1.393
 3605WAT      O11025   0.224   0.842   4.694
 3605WAT     H111026   0.150   0.887   4.652
 3605WAT     H211027   0.244   0.769   4.635
 3606WAT      O11028   1.953   1.709   4.030
 3606WAT     H111029   2.002   1.776   4.077
 3606WAT     H211030   1.935   1.641   4.096
 3607WAT      O11031   4.245   1.630   3.382
 3607WAT     H111032   4.263   1.545   3.423
 3607WAT     H211033   4.155   1.623   3.351
 3608WAT      O11034   2.599   2.512   1.470
 3608WAT     H111035   2.573   2.561   1.548
 3608WAT     H211036   2.543   2.548   1.400
 3609WAT      O11037   2.971   1.804   0.550
 3609WAT     H111038   3.062   1.829   0.534
 3609WAT     H211039   2.935   1.876   0.601
 3610WAT      O11040   0.420   1.437   5.140
 3610WAT     H111041   0.470   1.377   5.196
 3610WAT     H211042   0.376   1.380   5.077
 3611WAT      O11043   0.273   1.894   1.978
 3611WAT     H111044   0.252   1.900   2.072
 3611WAT     H211045   0.189   1.908   1.934
 3612WAT      O11046   1.477   4.461   4.792
 3612WAT     H111047   1.426   4.538   4.819
 3612WAT     H211048   1.459   4.395   4.859
 3613WAT      O11049   2.438   2.219   4.732
 3613WAT     H111050   2.454   2.127   4.751
 3613WAT     H211051   2.347   2.222   4.703
 3614WAT      O11052   1.423   4.136   4.777
 3614WAT     H111053   1.508   4.151   4.736
 3614WAT     H211054   1.408   4.042   4.766
 3615WAT      O11055   3.151   3.099   1.033
 3615WAT     H111056   3.159   3.006   1.015
 3615WAT     H211057   3.175   3.142   0.951
 3616WAT      O11058   0.966   2.550   0.021
 3616WAT     H111059   1.028   2.589   0.082
 3616WAT     H211060   1.019   2.495  -0.036
 3617WAT      O11061   1.849   3.113   4.113
 3617WAT     H111062   1.917   3.110   4.046
 3617WAT     H211063   1.800   3.193   4.095
 3618WAT      O11064   0.995   0.157   0.227
 3618WAT     H111065   0.968   0.213   0.155
 3618WAT     H211066   1.091   0.162   0.227
 3619WAT      O11067   3.680   2.680   0.950
 3619WAT     H111068   3.733   2.715   0.879
 3619WAT     H211069   3.658   2.756   1.003
 3620WAT      O11070   2.623   0.092   2.185
 3620WAT     H111071   2.583   0.017   2.230
 3620WAT     H211072   2.711   0.062   2.162
 3621WAT      O11073   3.008   4.827   3.324
 3621WAT     H111074   3.052   4.750   3.287
 3621WAT     H211075   3.014   4.893   3.255
 3622WAT      O11076   1.164   3.177   0.210
 3622WAT     H111077   1.187   3.245   0.147
 3622WAT     H211078   1.088   3.134   0.173
 3623WAT      O11079   1.384   4.592   1.227
 3623WAT     H111080   1.346   4.506   1.204
 3623WAT     H211081   1.324   4.655   1.188
 3624WAT      O11082   1.778   1.806   5.006
 3624WAT     H111083   1.686   1.831   5.016
 3624WAT     H211084   1.783   1.718   5.042
 3625WAT      O11085   4.252   1.818   0.902
 3625WAT     H111086   4.211   1.841   0.819
 3625WAT     H211087   4.345   1.839   0.889
 3626WAT      O11088   1.440   4.131   1.972
 3626WAT     H111089   1.518   4.118   2.026
 3626WAT     H211090   1.473   4.174   1.893
 3627WAT      O11091   3.292   1.611   1.362
 3627WAT     H111092   3.213   1.620   1.415
 3627WAT     H211093   3.283   1.526   1.318
 3628WAT      O11094   0.085   0.601   0.751
 3628WAT     H111095   0.076   0.663   0.679
 3628WAT     H211096   0.042   0.521   0.720
 3629WAT      O11097   0.503   0.100   3.094
 3629WAT     H111098   0.464   0.145   3.019
 3629WAT     H211099   0.429   0.079   3.151
 3630WAT      O11100   1.988   1.040   1.960
 3630WAT     H111101   2.034   1.011   1.881
 3630WAT     H211102   1.942   1.120   1.934
 3631WAT      O11103   2.905   0.722   3.059
 3631WAT     H111104   2.993   0.686   3.062
 3631WAT     H211105   2.873   0.701   2.971
 3632WAT      O11106   0.791   2.917   0.639
 3632WAT     H111107   0.783   2.952   0.550
 3632WAT     H211108   0.848   2.979   0.684
 3633WAT      O11109   4.383   2.691   0.768
 3633WAT     H111110   4.304   2.657   0.727
 3633WAT     H211111   4.379   2.659   0.858
 3634WAT      O11112   3.165   4.297   2.995
 3634WAT     H111113   3.257   4.312   3.016
 3634WAT     H211114   3.124   4.384   3.000
 3635WAT      O11115   0.539   4.922   2.435
 3635WAT     H111116   0.531   4.955   2.345
 3635WAT     H211117   0.624   4.956   2.465
 3636WAT      O11118   0.835   3.308   2.712
 3636WAT     H111119   0.913   3.266   2.748
 3636WAT     H211120   0.856   3.321   2.619
 3637WAT      O11121   0.685   3.405   0.206
 3637WAT     H111122   0.603   3.355   0.212
 3637WAT     H211123   0.715   3.392   0.116
 3638WAT      O11124   0.567   1.226   5.276
 3638WAT     H111125   0.592   1.153   5.218
 3638WAT     H211126   0.648   1.276   5.288
 3639WAT      O11127   2.110   0.193   4.538
 3639WAT     H111128   2.115   0.107   4.497
 3639WAT     H211129   2.141   0.253   4.470
 3640WAT      O11130   3.106   4.082   0.967
 3640WAT     H111131   3.049   4.051   0.896
 3640WAT     H211132   3.150   4.003   0.999
 3641WAT      O11133   2.231   1.876   1.052
 3641WAT     H111134   2.278   1.802   1.090
 3641WAT     H211135   2.264   1.952   1.100
 3642WAT      O11136   0.249   2.851   3.182
 3642WAT     H111137   0.225   2.906   3.107
 3642WAT     H211138   0.188   2.778   3.178
 3643WAT      O11139   0.392   4.102   0.636
 3643WAT     H111140   0.465   4.152   0.600
 3643WAT     H211141   0.325   4.167   0.658
 3644WAT      O11142   3.545   5.087   3.925
 3644WAT     H111143   3.596   5.032   3.984
 3644WAT     H211144   3.467   5.036   3.905
 3645WAT      O11145   0.164   1.483   0.430
 3645WAT     H111146   0.158   1.506   0.523
 3645WAT     H211147   0.256   1.461   0.417
 3646WAT      O11148   1.706   1.150   3.696
 3646WAT     H111149   1.744   1.104   3.770
 3646WAT     H211150   1.666   1.081   3.643
 3647WAT      O11151   0.622   0.260   4.526
 3647WAT     H111152   0.688   0.322   4.494
 3647WAT     H211153   0.608   0.199   4.454
 3648WAT      O11154   2.817   1.243   2.556
 3648WAT     H111155   2.811   1.311   2.624
 3648WAT     H211156   2.909   1.217   2.556
 3649WAT      O11157   1.143   2.200   1.118
 3649WAT     H111158   1.152   2.288   1.080
 3649WAT     H211159   1.203   2.199   1.192
 3650WAT      O11160   1.288   1.037   2.285
 3650WAT     H111161   1.320   0.947   2.275
 3650WAT     H211162   1.213   1.029   2.344
 3651WAT      O11163   1.027   1.262   1.743
 3651WAT     H111164   1.078   1.323   1.689
 3651WAT     H211165   0.944   1.306   1.758
 3652WAT      O11166   2.748   0.384   3.950
 3652WAT     H111167   2.759   0.460   3.893
 3652WAT     H211168   2.768   0.417   4.038
 3653WAT      O11169   0.442   3.036   2.980
 3653WAT     H111170   0.464   2.944   2.992
 3653WAT     H211171   0.507   3.068   2.918
 3654WAT      O11172   1.914   4.088   3.443
 3654WAT     H111173   1.865   4.082   3.361
 3654WAT     H211174   1.989   4.145   3.422
 3655WAT      O11175   2.636   4.429   4.926
 3655WAT     H111176   2.573   4.430   4.855
 3655WAT     H211177   2.672   4.340   4.926
 3656WAT      O11178   2.611   0.933   1.021
 3656WAT     H111179   2.522   0.941   0.986
 3656WAT     H211180   2.668   0.934   0.943
 3657WAT      O11181   1.558   1.870   1.192
 3657WAT     H111182   1.584   1.899   1.105
 3657WAT     H211183   1.548   1.775   1.184
 3658WAT      O11184   1.205   1.522   2.580
 3658WAT     H111185   1.202   1.590   2.647
 3658WAT     H211186   1.264   1.456   2.615
 3659WAT      O11187   3.402   3.505   0.541
 3659WAT     H111188   3.410   3.415   0.511
 3659WAT     H211189   3.456   3.555   0.479
 3660WAT      O11190   3.472   2.832   3.199
 3660WAT     H111191   3.567   2.846   3.205
 3660WAT     H211192   3.453   2.831   3.106
 3661WAT      O11193   0.061   1.358   1.502
 3661WAT     H111194   0.131   1.414   1.468
 3661WAT     H211195   0.064   1.279   1.446
 3662WAT      O11196   0.998   1.170   4.370
 3662WAT     H111197   1.003   1.162   4.274
 3662WAT     H211198   1.074   1.223   4.394
 3663WAT      O11199   2.474   3.513   1.774
 3663WAT     H111200   2.414   3.488   1.844
 3663WAT     H211201   2.499   3.603   1.795
 3664WAT      O11202   3.996   4.800   4.419
 3664WAT     H111203   4.081   4.758   4.433
 3664WAT     H211204   3.957   4.806   4.506
 3665WAT      O11205   0.217   3.315   5.205
 3665WAT     H111206   0.147   3.312   5.269
 3665WAT     H211207   0.185   3.374   5.137
 3666WAT      O11208   0.856   1.801   2.019
 3666WAT     H111209   0.887   1.711   2.026
 3666WAT     H211210   0.780   1.796   1.961
 3667WAT      O11211   2.361   3.455   2.055
 3667WAT     H111212   2.280   3.427   2.013
 3667WAT     H211213   2.333   3.505   2.131
 3668WAT      O11214   2.079   2.188   2.274
 3668WAT     H111215   2.123   2.272   2.258
 3668WAT     H211216   2.144   2.123   2.248
 3669WAT      O11217   2.344   0.728   2.670
 3669WAT     H111218   2.428   0.775   2.664
 3669WAT     H211219   2.356   0.653   2.612
 3670WAT      O11220   2.005   2.501   1.078
 3670WAT     H111221   2.075   2.508   1.013
 3670WAT     H211222   2.020   2.575   1.137
 3671WAT      O11223   0.780   2.050   0.151
 3671WAT     H111224   0.857   2.013   0.108
 3671WAT     H211225   0.706   2.002   0.115
 3672WAT      O11226   2.672   3.694   2.746
 3672WAT     H111227   2.736   3.666   2.681
 3672WAT     H211228   2.719   3.686   2.830
 3673WAT      O11229   4.116   3.565   1.128
 3673WAT     H111230   4.182   3.514   1.175
 3673WAT     H211231   4.132   3.545   1.036
 3674WAT      O11232   0.410   1.881   4.718
 3674WAT     H111233   0.505   1.888   4.723
 3674WAT     H211234   0.382   1.857   4.806
 3675WAT      O11235   3.423   4.965   1.085
 3675WAT     H111236   3.404   4.986   0.993
 3675WAT     H211237   3.345   4.919   1.115
 3676WAT      O11238   1.355   3.304   4.728
 3676WAT     H111239   1.339   3.310   4.634
 3676WAT     H211240   1.335   3.391   4.762
 3677WAT      O11241   3.712   2.453   1.786
 3677WAT     H111242   3.674   2.401   1.715
 3677WAT     H211243   3.749   2.388   1.846
 3678WAT      O11244   3.751   3.642   4.641
 3678WAT     H111245   3.811   3.709   4.610
 3678WAT     H211246   3.807   3.565   4.656
 3679WAT      O11247   3.595   0.221   5.172
 3679WAT     H111248   3.648   0.286   5.126
 3679WAT     H211249   3.613   0.139   5.127
 3680WAT      O11250   1.260   1.432   1.990
 3680WAT     H111251   1.206   1.354   1.975
 3680WAT     H211252   1.338   1.399   2.034
 3681WAT      O11253   3.986   3.897   0.690
 3681WAT     H111254   3.926   3.908   0.616
 3681WAT     H211255   4.043   3.973   0.686
 3682WAT      O11256   4.089   2.444   5.046
 3682WAT     H111257   4.137   2.505   5.103
 3682WAT     H211258   4.042   2.387   5.107
 3683WAT      O11259   3.114   3.337   3.854
 3683WAT     H111260   3.100   3.295   3.939
 3683WAT     H211261   3.088   3.428   3.868
 3684WAT      O11262   2.019   4.823   1.097
 3684WAT     H111263   1.971   4.763   1.040
 3684WAT     H211264   2.053   4.890   1.037
 3685WAT      O11265   3.171   3.352   5.201
 3685WAT     H111266   3.082   3.330   5.175
 3685WAT     H211267   3.210   3.392   5.123
 3686WAT      O11268   2.620   2.140   1.465
 3686WAT     H111269   2.662   2.157   1.550
 3686WAT     H211270   2.634   2.046   1.451
 3687WAT      O11271   1.362   1.517   3.107
 3687WAT     H111272   1.453   1.520   3.138
 3687WAT     H211273   1.345   1.424   3.093
 3688WAT      O11274   1.109   2.994   0.505
 3688WAT     H111275   1.089   2.933   0.434
 3688WAT     H211276   1.029   2.997   0.557
 3689WAT      O11277   2.062   4.988   0.888
 3689WAT     H111278   2.065   5.084   0.892
 3689WAT     H211279   2.016   4.968   0.806
 3690WAT      O11280   0.384   1.447   0.663
 3690WAT     H111281   0.316   1.394   0.705
 3690WAT     H211282   0.352   1.537   0.671
 3691WAT      O11283   1.371   3.158   5.041
 3691WAT     H111284   1.341   3.232   4.987
 3691WAT     H211285   1.415   3.199   5.115
 3692WAT      O11286   4.009   3.662   3.140
 3692WAT     H111287   4.021   3.573   3.172
 3692WAT     H211288   4.053   3.718   3.204
 3693WAT      O11289   0.623   3.486   4.992
 3693WAT     H111290   0.640   3.569   5.038
 3693WAT     H211291   0.557   3.508   4.927
 3694WAT      O11292   3.606   3.717   1.821
 3694WAT     H111293   3.676   3.750   1.878
 3694WAT     H211294   3.530   3.710   1.878
 3695WAT      O11295   3.564   1.530   4.226
 3695WAT     H111296   3.542   1.584   4.150
 3695WAT     H211297   3.498   1.553   4.292
 3696WAT      O11298   0.634   3.924   4.760
 3696WAT     H111299   0.628   3.881   4.845
 3696WAT     H211300   0.706   3.985   4.769
 3697WAT      O11301   3.754   3.364   4.403
 3697WAT     H111302   3.726   3.277   4.376
 3697WAT     H211303   3.694   3.387   4.475
 3698WAT      O11304   4.092   3.815   3.329
 3698WAT     H111305   4.000   3.798   3.349
 3698WAT     H211306   4.110   3.898   3.371
 3699WAT      O11307   2.294   4.187   4.527
 3699WAT     H111308   2.256   4.249   4.589
 3699WAT     H211309   2.298   4.105   4.574
 3700WAT      O11310   1.159   1.874   4.300
 3700WAT     H111311   1.078   1.879   4.249
 3700WAT     H211312   1.197   1.962   4.292
 3701WAT      O11313   3.272   3.924   1.680
 3701WAT     H111314   3.220   3.981   1.737
 3701WAT     H211315   3.362   3.935   1.711
 3702WAT      O11316   2.046   5.064   1.247
 3702WAT     H111317   2.025   4.981   1.206
 3702WAT     H211318   2.142   5.071   1.241
 3703WAT      O11319   2.047   4.666   0.383
 3703WAT     H111320   1.955   4.662   0.407
 3703WAT     H211321   2.051   4.734   0.315
 3704WAT      O11322   1.345   1.252   3.012
 3704WAT     H111323   1.344   1.171   2.961
 3704WAT     H211324   1.375   1.224   3.099
 3705WAT      O11325   2.079   2.724   1.239
 3705WAT     H111326   2.052   2.715   1.331
 3705WAT     H211327   2.093   2.817   1.228
 3706WAT      O11328   1.367   3.597   1.465
 3706WAT     H111329   1.333   3.686   1.471
 3706WAT     H211330   1.437   3.601   1.400
 3707WAT      O11331   1.976   2.642   5.250
 3707WAT     H111332   2.015   2.693   5.321
 3707WAT     H211333   2.019   2.557   5.255
 3708WAT      O11334   2.943   3.989   3.925
 3708WAT     H111335   2.888   3.911   3.933
 3708WAT     H211336   2.913   4.047   3.994
 3709WAT      O11337   1.383   0.284   2.666
 3709WAT     H111338   1.400   0.208   2.611
 3709WAT     H211339   1.367   0.356   2.604
 3710WAT      O11340   2.344   3.065   4.967
 3710WAT     H111341   2.313   3.032   5.051
 3710WAT     H211342   2.265   3.086   4.918
 3711WAT      O11343   3.944   0.460   1.311
 3711WAT     H111344   3.948   0.401   1.386
 3711WAT     H211345   4.033   0.496   1.305
 3712WAT      O11346   3.389   4.587   0.532
 3712WAT     H111347   3.315   4.618   0.479
 3712WAT     H211348   3.363   4.605   0.622
 3713WAT      O11349   2.933   1.972   1.345
 3713WAT     H111350   2.999   2.040   1.337
 3713WAT     H211351   2.883   1.995   1.423
 3714WAT      O11352   4.008   3.655   4.807
 3714WAT     H111353   4.004   3.743   4.770
 3714WAT     H211354   4.100   3.642   4.827
 3715WAT      O11355   3.424   2.513   1.751
 3715WAT     H111356   3.508   2.474   1.774
 3715WAT     H211357   3.445   2.577   1.683
 3716WAT      O11358   1.251   1.742   2.739
 3716WAT     H111359   1.344   1.748   2.763
 3716WAT     H211360   1.228   1.832   2.714
 3717WAT      O11361   0.449   2.233   0.216
 3717WAT     H111362   0.542   2.245   0.198
 3717WAT     H211363   0.446   2.209   0.309
 3718WAT      O11364   2.923   4.569   1.137
 3718WAT     H111365   2.834   4.539   1.156
 3718WAT     H211366   2.970   4.489   1.113
 3719WAT      O11367   4.342   4.149   2.581
 3719WAT     H111368   4.249   4.143   2.604
 3719WAT     H211369   4.358   4.242   2.569
 3720WAT      O11370   3.802   2.047   0.740
 3720WAT     H111371   3.890   2.079   0.761
 3720WAT     H211372   3.768   2.017   0.824
 3721WAT      O11373   1.946   3.522   3.089
 3721WAT     H111374   2.028   3.550   3.129
 3721WAT     H211375   1.880   3.578   3.130
 3722WAT      O11376   3.277   4.584   1.387
 3722WAT     H111377   3.293   4.490   1.397
 3722WAT     H211378   3.347   4.614   1.328
 3723WAT      O11379   2.473   1.834   4.342
 3723WAT     H111380   2.547   1.796   4.294
 3723WAT     H211381   2.504   1.837   4.433
 3724WAT      O11382   1.868   2.911   2.721
 3724WAT     H111383   1.846   2.886   2.811
 3724WAT     H211384   1.942   2.971   2.730
 3725WAT      O11385   2.416   1.420   0.636
 3725WAT     H111386   2.369   1.504   0.639
 3725WAT     H211387   2.355   1.357   0.675
 3726WAT      O11388   2.166   5.099   3.421
 3726WAT     H111389   2.245   5.153   3.418
 3726WAT     H211390   2.099   5.156   3.459
 3727WAT      O11391   4.415   2.852   2.604
 3727WAT     H111392   4.480   2.810   2.660
 3727WAT     H211393   4.460   2.926   2.565
 3728WAT      O11394   2.698   3.546   3.118
 3728WAT     H111395   2.732   3.531   3.206
 3728WAT     H211396   2.752   3.617   3.083
 3729WAT      O11397   4.483   5.116   2.537
 3729WAT     H111398   4.547   5.103   2.468
 3729WAT     H211399   4.533   5.110   2.618
 3730WAT      O11400   2.305   2.803   1.538
 3730WAT     H111401   2.362   2.804   1.615
 3730WAT     H211402   2.278   2.895   1.528
 3731WAT      O11403   3.805   3.757   3.388
 3731WAT     H111404   3.738   3.688   3.393
 3731WAT     H211405   3.799   3.802   3.472
 3732WAT      O11406   0.687   3.023   4.661
 3732WAT     H111407   0.781   3.026   4.642
 3732WAT     H211408   0.678   2.949   4.721
 3733WAT      O11409   3.881   2.595   2.143
 3733WAT     H111410   3.826   2.522   2.172
 3733WAT     H211411   3.819   2.661   2.112
 3734WAT      O11412   1.048   1.353   3.307
 3734WAT     H111413   0.997   1.362   3.227
 3734WAT     H211414   1.008   1.280   3.353
 3735WAT      O11415   1.048   2.203   3.620
 3735WAT     H111416   1.104   2.183   3.695
 3735WAT     H211417   1.108   2.239   3.555
 3736WAT      O11418   0.245   0.829   1.507
 3736WAT     H111419   0.314   0.854   1.446
 3736WAT     H211420   0.176   0.893   1.494
 3737WAT      O11421   2.560   1.326   0.887
 3737WAT     H111422   2.571   1.388   0.815
 3737WAT     H211423   2.468   1.336   0.912
 3738WAT      O11424   2.977   2.049   1.863
 3738WAT     H111425   2.992   2.144   1.857
 3738WAT     H211426   3.054   2.016   1.909
 3739WAT      O11427   3.163   1.667   2.574
 3739WAT     H111428   3.201   1.749   2.542
 3739WAT     H211429   3.147   1.616   2.495
 3740WAT      O11430   2.726   1.970   3.308
 3740WAT     H111431   2.694   2.013   3.229
 3740WAT     H211432   2.760   1.886   3.278
 3741WAT      O11433   0.956   5.005   3.192
 3741WAT     H111434   0.949   4.956   3.274
 3741WAT     H211435   0.968   5.096   3.220
 3742WAT      O11436   0.954   1.041   0.772
 3742WAT     H111437   1.002   0.964   0.803
 3742WAT     H211438   0.867   1.032   0.811
 3743WAT      O11439   2.998   3.139   1.937
 3743WAT     H111440   3.061   3.089   1.884
 3743WAT     H211441   3.053   3.197   1.990
 3744WAT      O11442   4.350   0.680   2.258
 3744WAT     H111443   4.403   0.682   2.338
 3744WAT     H211444   4.268   0.637   2.285
 3745WAT      O11445   3.642   3.210   3.368
 3745WAT     H111446   3.562   3.162   3.348
 3745WAT     H211447   3.711   3.143   3.365
 3746WAT      O11448   1.230   0.060   0.743
 3746WAT     H111449   1.296   0.078   0.809
 3746WAT     H211450   1.250   0.120   0.671
 3747WAT      O11451   3.524   1.123   2.496
 3747WAT     H111452   3.561   1.201   2.537
 3747WAT     H211453   3.598   1.083   2.450
 3748WAT      O11454   2.683   1.048   1.603
 3748WAT     H111455   2.760   1.046   1.660
 3748WAT     H211456   2.715   1.014   1.520
 3749WAT      O11457   0.615   2.494   4.908
 3749WAT     H111458   0.595   2.538   4.990
 3749WAT     H211459   0.683   2.547   4.868
 3750WAT      O11460   1.222   2.898   4.357
 3750WAT     H111461   1.176   2.970   4.312
 3750WAT     H211462   1.151   2.841   4.388
 3751WAT      O11463   1.887   3.263   1.665
 3751WAT     H111464   1.921   3.346   1.631
 3751WAT     H211465   1.885   3.274   1.760
 3752WAT      O11466   1.661   0.676   0.802
 3752WAT     H111467   1.612   0.756   0.821
 3752WAT     H211468   1.741   0.683   0.854
 3753WAT      O11469   1.286   4.913   3.317
 3753WAT     H111470   1.240   4.837   3.353
 3753WAT     H211471   1.217   4.976   3.298
 3754WAT      O11472   3.779   4.967   0.126
 3754WAT     H111473   3.853   4.912   0.100
 3754WAT     H211474   3.771   5.032   0.057
 3755WAT      O11475   3.524   3.110   2.356
 3755WAT     H111476   3.586   3.081   2.289
 3755WAT     H211477   3.556   3.197   2.381
 3756WAT      O11478   2.817   3.360   1.931
 3756WAT     H111479   2.830   3.409   2.012
 3756WAT     H211480   2.860   3.276   1.947
 3757WAT      O11481   2.747   2.051   3.563
 3757WAT     H111482   2.825   1.998   3.582
 3757WAT     H211483   2.723   2.027   3.474
 3758WAT      O11484   2.223   2.210   0.606
 3758WAT     H111485   2.147   2.234   0.552
 3758WAT     H211486   2.219   2.115   0.612
 3759WAT      O11487   3.893   4.741   4.712
 3759WAT     H111488   3.869   4.716   4.801
 3759WAT     H211489   3.870   4.666   4.658
 3760WAT      O11490   0.651   1.198   1.730
 3760WAT     H111491   0.744   1.219   1.743
 3760WAT     H211492   0.612   1.281   1.703
 3761WAT      O11493   1.140   3.687   3.169
 3761WAT     H111494   1.190   3.678   3.088
 3761WAT     H211495   1.058   3.729   3.141
 3762WAT      O11496   1.532   3.121   0.950
 3762WAT     H111497   1.563   3.120   0.859
 3762WAT     H211498   1.439   3.099   0.944
 3763WAT      O11499   2.869   0.624   1.395
 3763WAT     H111500   2.867   0.635   1.300
 3763WAT     H211501   2.933   0.555   1.410
 3764WAT      O11502   0.247   3.750   1.520
 3764WAT     H111503   0.262   3.843   1.536
 3764WAT     H211504   0.310   3.727   1.452
 3765WAT      O11505   3.763   4.743   2.474
 3765WAT     H111506   3.757   4.800   2.550
 3765WAT     H211507   3.680   4.755   2.429
 3766WAT      O11508   1.209   4.376   0.458
 3766WAT     H111509   1.251   4.441   0.401
 3766WAT     H211510   1.273   4.360   0.527
 3767WAT      O11511   0.365   1.205   2.130
 3767WAT     H111512   0.435   1.268   2.149
 3767WAT     H211513   0.400   1.121   2.161
 3768WAT      O11514   2.596   2.907   3.802
 3768WAT     H111515   2.638   2.847   3.741
 3768WAT     H211516   2.667   2.961   3.836
 3769WAT      O11517   0.613   0.474   0.298
 3769WAT     H111518   0.548   0.418   0.256
 3769WAT     H211519   0.683   0.484   0.234
 3770WAT      O11520   3.448   4.602   4.785
 3770WAT     H111521   3.423   4.552   4.708
 3770WAT     H211522   3.476   4.687   4.751
 3771WAT      O11523   0.960   3.359   1.548
 3771WAT     H111524   0.894   3.343   1.480
 3771WAT     H211525   1.040   3.378   1.500
 3772WAT      O11526   2.730   1.082   2.338
 3772WAT     H111527   2.747   1.133   2.259
 3772WAT     H211528   2.782   1.125   2.406
 3773WAT      O11529   1.065   0.589   5.229
 3773WAT     H111530   1.149   0.618   5.263
 3773WAT     H211531   1.032   0.663   5.178
 3774WAT      O11532   2.368   3.609   3.616
 3774WAT     H111533   2.422   3.578   3.688
 3774WAT     H211534   2.431   3.635   3.548
 3775WAT      O11535   1.445   5.067   1.465
 3775WAT     H111536   1.388   5.060   1.389
 3775WAT     H211537   1.463   4.976   1.490
 3776WAT      O11538   0.576   4.887   2.856
 3776WAT     H111539   0.627   4.827   2.910
 3776WAT     H211540   0.641   4.941   2.811
 3777WAT      O11541   3.739   0.044   0.559
 3777WAT     H111542   3.672   0.091   0.509
 3777WAT     H211543   3.737   0.084   0.645
 3778WAT      O11544   2.018   0.949   1.329
 3778WAT     H111545   2.043   0.931   1.239
 3778WAT     H211546   2.075   0.893   1.382
 3779WAT      O11547   0.075   4.620   3.145
 3779WAT     H111548   0.005   4.555   3.142
 3779WAT     H211549   0.155   4.570   3.131
 3780WAT      O11550   3.156   1.116   4.227
 3780WAT     H111551   3.070   1.133   4.264
 3780WAT     H211552   3.187   1.202   4.198
 3781WAT      O11553   3.677   2.410   2.178
 3781WAT     H111554   3.674   2.345   2.108
 3781WAT     H211555   3.609   2.383   2.240
 3782WAT      O11556   2.419   0.217   0.949
 3782WAT     H111557   2.397   0.136   0.903
 3782WAT     H211558   2.514   0.222   0.943
 3783WAT      O11559   0.751   4.718   2.661
 3783WAT     H111560   0.789   4.805   2.654
 3783WAT     H211561   0.747   4.700   2.755
 3784WAT      O11562   0.228   3.366   0.721
 3784WAT     H111563   0.197   3.340   0.807
 3784WAT     H211564   0.187   3.304   0.660
 3785WAT      O11565   2.632   1.750   0.990
 3785WAT     H111566   2.565   1.699   0.945
 3785WAT     H211567   2.712   1.697   0.981
 3786WAT      O11568   0.371   0.483   5.006
 3786WAT     H111569   0.370   0.448   4.917
 3786WAT     H211570   0.306   0.553   5.006
 3787WAT      O11571   0.221   2.310   2.334
 3787WAT     H111572   0.128   2.318   2.354
 3787WAT     H211573   0.223   2.265   2.249
 3788WAT      O11574   2.095   0.528   0.486
 3788WAT     H111575   2.103   0.613   0.442
 3788WAT     H211576   2.180   0.514   0.527
 3789WAT      O11577   0.703   1.323   0.701
 3789WAT     H111578   0.797   1.325   0.683
 3789WAT     H211579   0.685   1.406   0.745
 3790WAT      O11580   4.086   3.550   2.763
 3790WAT     H111581   4.174   3.550   2.724
 3790WAT     H211582   4.097   3.501   2.845
 3791WAT      O11583   4.263   1.391   3.507
 3791WAT     H111584   4.193   1.432   3.558
 3791WAT     H211585   4.267   1.301   3.540
 3792WAT      O11586   4.439   2.248   1.012
 3792WAT     H111587   4.400   2.332   1.038
 3792WAT     H211588   4.372   2.183   1.032
 3793WAT      O11589   3.017   3.779   4.767
 3793WAT     H111590   3.113   3.775   4.765
 3793WAT     H211591   2.989   3.688   4.777
 3794WAT      O11592   1.740   3.179   2.435
 3794WAT     H111593   1.775   3.260   2.398
 3794WAT     H211594   1.672   3.152   2.374
 3795WAT      O11595   0.091   4.417   1.231
 3795WAT     H111596   0.014   4.435   1.286
 3795WAT     H211597   0.061   4.354   1.167
 3796WAT      O11598   1.211   1.974   0.951
 3796WAT     H111599   1.210   2.057   0.999
 3796WAT     H211600   1.293   1.976   0.902
 3797WAT      O11601   0.398   2.311   4.625
 3797WAT     H111602   0.461   2.382   4.634
 3797WAT     H211603   0.315   2.355   4.604
 3798WAT      O11604   3.124   3.350   3.241
 3798WAT     H111605   3.138   3.271   3.188
 3798WAT     H211606   3.147   3.422   3.182
 3799WAT      O11607   2.240   0.141   3.093
 3799WAT     H111608   2.249   0.202   3.166
 3799WAT     H211609   2.161   0.090   3.114
 3800WAT      O11610   0.012   1.106   4.218
 3800WAT     H111611   0.102   1.097   4.248
 3800WAT     H211612  -0.002   1.201   4.212
 3801WAT      O11613   4.466   2.897   1.259
 3801WAT     H111614   4.535   2.855   1.207
 3801WAT     H211615   4.458   2.841   1.336
 3802WAT      O11616   4.473   2.379   2.422
 3802WAT     H111617   4.384   2.352   2.446
 3802WAT     H211618   4.463   2.468   2.390
 3803WAT      O11619   0.780   3.316   0.453
 3803WAT     H111620   0.730   3.370   0.513
 3803WAT     H211621   0.771   3.360   0.368
 3804WAT      O11622   2.832   1.285   2.194
 3804WAT     H111623   2.867   1.346   2.258
 3804WAT     H211624   2.795   1.341   2.125
 3805WAT      O11625   1.061   0.654   2.076
 3805WAT     H111626   1.021   0.596   2.141
 3805WAT     H211627   1.108   0.595   2.017
 3806WAT      O11628   0.094   3.830   1.024
 3806WAT     H111629   0.026   3.859   0.964
 3806WAT     H211630   0.048   3.777   1.089
 3807WAT      O11631   2.335   4.464   1.459
 3807WAT     H111632   2.306   4.465   1.550
 3807WAT     H211633   2.255   4.479   1.408
 3808WAT      O11634   4.496   1.939   0.869
 3808WAT     H111635   4.509   2.004   0.799
 3808WAT     H211636   4.570   1.953   0.928
 3809WAT      O11637   0.040   3.330   0.125
 3809WAT     H111638  -0.048   3.305   0.154
 3809WAT     H211639   0.098   3.291   0.190
 3810WAT      O11640   1.315   0.747   2.294
 3810WAT     H111641   1.229   0.704   2.287
 3810WAT     H211642   1.364   0.714   2.219
 3811WAT      O11643   0.264   1.230   4.601
 3811WAT     H111644   0.310   1.252   4.520
 3811WAT     H211645   0.282   1.304   4.659
 3812WAT      O11646   2.848   0.786   2.183
 3812WAT     H111647   2.796   0.817   2.108
 3812WAT     H211648   2.867   0.866   2.233
 3813WAT      O11649   2.292   1.109   0.691
 3813WAT     H111650   2.325   1.139   0.606
 3813WAT     H211651   2.198   1.101   0.679
 3814WAT      O11652   1.702   3.506   3.361
 3814WAT     H111653   1.646   3.559   3.305
 3814WAT     H211654   1.655   3.424   3.371
 3815WAT      O11655   2.918   2.024   4.237
 3815WAT     H111656   2.857   1.950   4.238
 3815WAT     H211657   2.927   2.049   4.329
 3816WAT      O11658   4.181   0.673   4.110
 3816WAT     H111659   4.110   0.664   4.047
 3816WAT     H211660   4.261   0.659   4.058
 3817WAT      O11661   0.557   2.743   0.611
 3817WAT     H111662   0.541   2.745   0.517
 3817WAT     H211663   0.641   2.787   0.623
 3818WAT      O11664   2.974   1.926   3.667
 3818WAT     H111665   3.001   2.016   3.650
 3818WAT     H211666   3.053   1.884   3.701
 3819WAT      O11667   0.651   0.160   4.774
 3819WAT     H111668   0.595   0.225   4.733
 3819WAT     H211669   0.728   0.155   4.719
 3820WAT      O11670   2.419   0.759   1.255
 3820WAT     H111671   2.462   0.688   1.209
 3820WAT     H211672   2.473   0.836   1.237
 3821WAT      O11673   3.955   2.376   5.276
 3821WAT     H111674   4.029   2.331   5.317
 3821WAT     H211675   3.950   2.460   5.322
 3822WAT      O11676   0.712   1.134   0.932
 3822WAT     H111677   0.633   1.082   0.948
 3822WAT     H211678   0.687   1.195   0.863
 3823WAT      O11679   3.619   3.846   4.249
 3823WAT     H111680   3.545   3.905   4.262
 3823WAT     H211681   3.588   3.781   4.186
 3824WAT      O11682   0.006   4.387   0.163
 3824WAT     H111683   0.079   4.326   0.167
 3824WAT     H211684   0.024   4.442   0.087
 3825WAT      O11685   0.282   2.535   4.173
 3825WAT     H111686   0.192   2.525   4.141
 3825WAT     H211687   0.282   2.617   4.221
 3826WAT      O11688   4.088   2.815   0.765
 3826WAT     H111689   4.128   2.888   0.718
 3826WAT     H211690   4.057   2.854   0.847
 3827WAT      O11691   4.130   0.595   0.909
 3827WAT     H111692   4.067   0.524   0.899
 3827WAT     H211693   4.168   0.606   0.822
 3828WAT      O11694   1.623   2.563   4.900
 3828WAT     H111695   1.700   2.529   4.947
 3828WAT     H211696   1.559   2.493   4.905
 3829WAT      O11697   2.284   1.476   2.396
 3829WAT     H111698   2.263   1.413   2.466
 3829WAT     H211699   2.366   1.444   2.359
 3830WAT      O11700   0.941   2.011   1.007
 3830WAT     H111701   0.973   2.076   1.068
 3830WAT     H211702   1.020   1.967   0.975
 3831WAT      O11703   3.609   1.389   2.562
 3831WAT     H111704   3.648   1.401   2.475
 3831WAT     H211705   3.578   1.476   2.586
 3832WAT      O11706   1.370   0.791   1.119
 3832WAT     H111707   1.317   0.865   1.149
 3832WAT     H211708   1.403   0.752   1.200
 3833WAT      O11709   3.548   4.632   3.710
 3833WAT     H111710   3.539   4.719   3.747
 3833WAT     H211711   3.462   4.613   3.672
 3834WAT      O11712   2.653   3.467   5.229
 3834WAT     H111713   2.744   3.491   5.208
 3834WAT     H211714   2.652   3.371   5.225
 3835WAT      O11715   0.744   0.630   5.107
 3835WAT     H111716   0.739   0.550   5.056
 3835WAT     H211717   0.658   0.671   5.097
 3836WAT      O11718   2.709   2.758   2.869
 3836WAT     H111719   2.753   2.838   2.897
 3836WAT     H211720   2.729   2.751   2.776
 3837WAT      O11721   3.345   2.184   3.737
 3837WAT     H111722   3.272   2.172   3.676
 3837WAT     H211723   3.418   2.138   3.697
 3838WAT      O11724   4.044   0.937   4.729
 3838WAT     H111725   4.009   0.882   4.799
 3838WAT     H211726   4.090   0.876   4.671
 3839WAT      O11727   0.875   0.612   3.069
 3839WAT     H111728   0.912   0.535   3.025
 3839WAT     H211729   0.802   0.638   3.013
 3840WAT      O11730   3.445   4.348   5.202
 3840WAT     H111731   3.433   4.438   5.173
 3840WAT     H211732   3.529   4.321   5.166
 3841WAT      O11733   0.477   4.510   2.077
 3841WAT     H111734   0.481   4.468   1.991
 3841WAT     H211735   0.407   4.574   2.069
 3842WAT      O11736   0.996   1.158   1.428
 3842WAT     H111737   1.009   1.242   1.472
 3842WAT     H211738   1.031   1.171   1.340
 3843WAT      O11739   3.473   3.408   4.329
 3843WAT     H111740   3.514   3.479   4.380
 3843WAT     H211741   3.420   3.454   4.264
 3844WAT      O11742   2.922   0.310   0.330
 3844WAT     H111743   2.895   0.361   0.406
 3844WAT     H211744   2.945   0.224   0.366
 3845WAT      O11745   0.858   0.824   1.300
 3845WAT     H111746   0.825   0.893   1.357
 3845WAT     H211747   0.938   0.793   1.343
 3846WAT      O11748   0.772   0.535   0.899
 3846WAT     H111749   0.764   0.606   0.834
 3846WAT     H211750   0.833   0.473   0.859
 3847WAT      O11751   1.625   3.592   1.331
 3847WAT     H111752   1.671   3.674   1.317
 3847WAT     H211753   1.657   3.535   1.260
 3848WAT      O11754   0.566   4.919   0.202
 3848WAT     H111755   0.636   4.856   0.186
 3848WAT     H211756   0.612   4.995   0.239
 3849WAT      O11757   2.279   0.081   2.098
 3849WAT     H111758   2.260   0.172   2.123
 3849WAT     H211759   2.361   0.060   2.143
 3850WAT      O11760   3.069   2.415   4.907
 3850WAT     H111761   2.975   2.418   4.887
 3850WAT     H211762   3.103   2.498   4.875
 3851WAT      O11763   0.894   0.781   3.300
 3851WAT     H111764   0.839   0.723   3.247
 3851WAT     H211765   0.918   0.852   3.240
 3852WAT      O11766   0.419   2.623   1.687
 3852WAT     H111767   0.383   2.545   1.645
 3852WAT     H211768   0.343   2.671   1.720
 3853WAT      O11769   0.821   3.066   1.820
 3853WAT     H111770   0.785   3.050   1.907
 3853WAT     H211771   0.806   3.160   1.806
 3854WAT      O11772   4.149   1.765   4.819
 3854WAT     H111773   4.114   1.705   4.886
 3854WAT     H211774   4.071   1.804   4.780
 3855WAT      O11775   1.994   4.583   4.595
 3855WAT     H111776   2.023   4.650   4.656
 3855WAT     H211777   2.068   4.568   4.537
 3856WAT      O11778   4.301   3.667   3.463
 3856WAT     H111779   4.269   3.590   3.509
 3856WAT     H211780   4.236   3.682   3.394
 3857WAT      O11781   3.405   2.844   1.303
 3857WAT     H111782   3.334   2.796   1.260
 3857WAT     H211783   3.482   2.827   1.248
 3858WAT      O11784   3.101   4.248   2.725
 3858WAT     H111785   3.157   4.249   2.803
 3858WAT     H211786   3.102   4.339   2.694
 3859WAT      O11787   1.027   1.442   3.780
 3859WAT     H111788   1.078   1.458   3.860
 3859WAT     H211789   0.937   1.466   3.805
 3860WAT      O11790   3.679   1.444   0.178
 3860WAT     H111791   3.773   1.433   0.189
 3860WAT     H211792   3.646   1.457   0.267
 3861WAT      O11793   0.331   0.374   4.753
 3861WAT     H111794   0.410   0.409   4.711
 3861WAT     H211795   0.317   0.290   4.711
 3862WAT      O11796   1.120   1.741   2.175
 3862WAT     H111797   1.044   1.766   2.122
 3862WAT     H211798   1.122   1.645   2.169
 3863WAT      O11799   2.168   3.718   2.854
 3863WAT     H111800   2.188   3.724   2.947
 3863WAT     H211801   2.214   3.639   2.825
 3864WAT      O11802   3.768   2.989   0.469
 3864WAT     H111803   3.735   2.914   0.518
 3864WAT     H211804   3.765   3.062   0.531
 3865WAT      O11805   3.542   2.317   5.268
 3865WAT     H111806   3.620   2.314   5.211
 3865WAT     H211807   3.495   2.236   5.248
 3866WAT      O11808   0.597   1.772   3.462
 3866WAT     H111809   0.686   1.772   3.426
 3866WAT     H211810   0.608   1.755   3.555
 3867WAT      O11811   2.139   1.100   0.183
 3867WAT     H111812   2.230   1.127   0.167
 3867WAT     H211813   2.127   1.112   0.277
 3868WAT      O11814   2.889   1.404   4.946
 3868WAT     H111815   2.978   1.430   4.920
 3868WAT     H211816   2.839   1.486   4.945
 3869WAT      O11817   3.903   4.927   0.655
 3869WAT     H111818   3.814   4.960   0.647
 3869WAT     H211819   3.953   4.977   0.591
 3870WAT      O11820   1.886   1.459   4.169
 3870WAT     H111821   1.798   1.452   4.206
 3870WAT     H211822   1.909   1.369   4.145
 3871WAT      O11823   0.941   1.187   4.103
 3871WAT     H111824   0.981   1.190   4.016
 3871WAT     H211825   0.868   1.126   4.094
 3872WAT      O11826   2.184   3.957   2.748
 3872WAT     H111827   2.175   3.867   2.778
 3872WAT     H211828   2.219   4.004   2.824
 3873WAT      O11829   2.358   0.140   3.896
 3873WAT     H111830   2.423   0.199   3.861
 3873WAT     H211831   2.339   0.079   3.824
 3874WAT      O11832   1.798   3.584   1.573
 3874WAT     H111833   1.712   3.555   1.543
 3874WAT     H211834   1.833   3.635   1.501
 3875WAT      O11835   0.289   4.208   0.333
 3875WAT     H111836   0.375   4.170   0.352
 3875WAT     H211837   0.238   4.134   0.300
 3876WAT      O11838   1.283   1.362   0.095
 3876WAT     H111839   1.249   1.400   0.014
 3876WAT     H211840   1.285   1.268   0.078
 3877WAT      O11841   2.406   1.194   2.848
 3877WAT     H111842   2.447   1.240   2.775
 3877WAT     H211843   2.480   1.162   2.900
 3878WAT      O11844   2.432   4.338   1.094
 3878WAT     H111845   2.417   4.261   1.148
 3878WAT     H211846   2.502   4.313   1.034
 3879WAT      O11847   0.151   5.108   3.062
 3879WAT     H111848   0.116   5.035   3.113
 3879WAT     H211849   0.233   5.074   3.025
 3880WAT      O11850   3.316   0.945   2.783
 3880WAT     H111851   3.391   0.973   2.730
 3880WAT     H211852   3.325   0.850   2.787
 3881WAT      O11853   3.948   0.032   3.527
 3881WAT     H111854   3.962   0.118   3.488
 3881WAT     H211855   4.028  -0.017   3.508
 3882WAT      O11856   4.400   0.114   3.047
 3882WAT     H111857   4.374   0.108   3.139
 3882WAT     H211858   4.458   0.039   3.034
 3883WAT      O11859   1.161   2.477   0.947
 3883WAT     H111860   1.141   2.480   0.854
 3883WAT     H211861   1.102   2.541   0.987
 3884WAT      O11862   4.021   3.354   4.384
 3884WAT     H111863   4.038   3.425   4.322
 3884WAT     H211864   3.927   3.361   4.402
 3885WAT      O11865   3.185   0.904   1.611
 3885WAT     H111866   3.207   0.811   1.614
 3885WAT     H211867   3.205   0.930   1.521
 3886WAT      O11868   3.097   0.010   0.895
 3886WAT     H111869   3.166   0.076   0.898
 3886WAT     H211870   3.144  -0.073   0.881
 3887WAT      O11871   0.210   4.693   3.646
 3887WAT     H111872   0.190   4.673   3.737
 3887WAT     H211873   0.203   4.610   3.600
 3888WAT      O11874   1.704   4.368   0.767
 3888WAT     H111875   1.797   4.360   0.744
 3888WAT     H211876   1.658   4.354   0.685
 3889WAT      O11877   1.251   2.357   1.920
 3889WAT     H111878   1.258   2.272   1.878
 3889WAT     H211879   1.254   2.338   2.014
 3890WAT      O11880   0.765   3.333   5.184
 3890WAT     H111881   0.846   3.302   5.143
 3890WAT     H211882   0.723   3.386   5.116
 3891WAT      O11883   1.743   3.946   0.851
 3891WAT     H111884   1.782   3.878   0.796
 3891WAT     H211885   1.817   3.983   0.899
 3892WAT      O11886   1.312   4.648   2.755
 3892WAT     H111887   1.395   4.672   2.715
 3892WAT     H211888   1.306   4.704   2.833
 3893WAT      O11889   3.335   0.729   0.964
 3893WAT     H111890   3.303   0.799   1.020
 3893WAT     H211891   3.427   0.718   0.989
 3894WAT      O11892   0.971   0.777   4.218
 3894WAT     H111893   0.980   0.706   4.282
 3894WAT     H211894   1.051   0.828   4.229
 3895WAT      O11895   1.823   2.265   0.938
 3895WAT     H111896   1.910   2.270   0.900
 3895WAT     H211897   1.828   2.319   1.017
 3896WAT      O11898   2.463   0.728   4.286
 3896WAT     H111899   2.457   0.728   4.381
 3896WAT     H211900   2.409   0.655   4.258
 3897WAT      O11901   1.316   2.234   0.723
 3897WAT     H111902   1.282   2.317   0.757
 3897WAT     H211903   1.407   2.233   0.751
 3898WAT      O11904   1.394   0.334   5.179
 3898WAT     H111905   1.316   0.331   5.125
 3898WAT     H211906   1.379   0.409   5.238
 3899WAT      O11907   2.394   0.413   4.176
 3899WAT     H111908   2.480   0.377   4.153
 3899WAT     H211909   2.355   0.438   4.093
 3900WAT      O11910   1.442   4.948   2.448
 3900WAT     H111911   1.373   4.948   2.382
 3900WAT     H211912   1.451   5.039   2.474
 3901WAT      O11913   4.364   3.698   3.760
 3901WAT     H111914   4.308   3.755   3.708
 3901WAT     H211915   4.305   3.634   3.799
 3902WAT      O11916   3.451   1.200   0.260
 3902WAT     H111917   3.409   1.114   0.263
 3902WAT     H211918   3.534   1.185   0.215
 3903WAT      O11919   2.337   2.757   0.495
 3903WAT     H111920   2.427   2.739   0.468
 3903WAT     H211921   2.290   2.676   0.479
 3904WAT      O11922   0.345   0.537   3.923
 3904WAT     H111923   0.326   0.500   4.009
 3904WAT     H211924   0.398   0.470   3.880
 3905WAT      O11925   3.549   1.640   0.348
 3905WAT     H111926   3.571   1.733   0.351
 3905WAT     H211927   3.534   1.622   0.255
 3906WAT      O11928   1.041   1.269   4.719
 3906WAT     H111929   0.972   1.322   4.680
 3906WAT     H211930   1.007   1.246   4.805
 3907WAT      O11931   2.391   0.012   4.144
 3907WAT     H111932   2.449   0.085   4.166
 3907WAT     H211933   2.363   0.029   4.054
 3908WAT      O11934   1.868   1.787   3.793
 3908WAT     H111935   1.934   1.746   3.738
 3908WAT     H211936   1.894   1.763   3.882
 3909WAT      O11937   2.590   1.528   4.290
 3909WAT     H111938   2.603   1.534   4.385
 3909WAT     H211939   2.587   1.434   4.272
 3910WAT      O11940   3.388   4.184   3.816
 3910WAT     H111941   3.305   4.164   3.859
 3910WAT     H211942   3.440   4.229   3.883
 3911WAT      O11943   0.424   3.963   1.734
 3911WAT     H111944   0.509   3.936   1.700
 3911WAT     H211945   0.398   3.891   1.793
 3912WAT      O11946   4.152   3.380   2.992
 3912WAT     H111947   4.244   3.395   3.012
 3912WAT     H211948   4.109   3.375   3.077
 3913WAT      O11949   2.142   2.231   3.742
 3913WAT     H111950   2.155   2.249   3.835
 3913WAT     H211951   2.209   2.166   3.721
 3914WAT      O11952   0.121   0.564   4.741
 3914WAT     H111953   0.173   0.485   4.751
 3914WAT     H211954   0.152   0.604   4.660
 3915WAT      O11955   3.844   2.768   0.326
 3915WAT     H111956   3.814   2.837   0.385
 3915WAT     H211957   3.768   2.750   0.270
 3916WAT      O11958   3.086   1.296   3.645
 3916WAT     H111959   3.139   1.217   3.637
 3916WAT     H211960   3.086   1.314   3.739
 3917WAT      O11961   3.862   4.247   4.504
 3917WAT     H111962   3.802   4.173   4.501
 3917WAT     H211963   3.948   4.208   4.520
 3918WAT      O11964   0.332   5.077   3.299
 3918WAT     H111965   0.389   5.058   3.374
 3918WAT     H211966   0.312   4.991   3.262
 3919WAT      O11967   3.251   2.857   0.997
 3919WAT     H111968   3.329   2.828   0.949
 3919WAT     H211969   3.180   2.803   0.962
 3920WAT      O11970   4.343   4.700   2.869
 3920WAT     H111971   4.317   4.608   2.871
 3920WAT     H211972   4.278   4.742   2.813
 3921WAT      O11973   3.137   1.556   3.555
 3921WAT     H111974   3.216   1.530   3.509
 3921WAT     H211975   3.107   1.477   3.600
 3922WAT      O11976   3.667   2.610   5.023
 3922WAT     H111977   3.583   2.647   5.052
 3922WAT     H211978   3.726   2.627   5.096
 3923WAT      O11979   0.188   0.681   4.981
 3923WAT     H111980   0.154   0.646   4.898
 3923WAT     H211981   0.128   0.752   5.004
 3924WAT      O11982   2.710   2.789   1.278
 3924WAT     H111983   2.741   2.858   1.219
 3924WAT     H211984   2.626   2.763   1.243
 3925WAT      O11985   3.765   1.298   4.738
 3925WAT     H111986   3.746   1.328   4.827
 3925WAT     H211987   3.783   1.378   4.689
 3926WAT      O11988   3.364   4.592   3.099
 3926WAT     H111989   3.412   4.623   3.176
 3926WAT     H211990   3.402   4.640   3.026
 3927WAT      O11991   1.279   0.112   3.391
 3927WAT     H111992   1.334   0.186   3.367
 3927WAT     H211993   1.320   0.077   3.471
 3928WAT      O11994   0.635   0.459   3.301
 3928WAT     H111995   0.690   0.385   3.276
 3928WAT     H211996   0.622   0.449   3.395
 3929WAT      O11997   0.086   0.546   3.866
 3929WAT     H111998   0.060   0.636   3.845
 3929WAT     H211999   0.182   0.549   3.871
 3930WAT      O12000   3.208   1.884   1.025
 3930WAT     H112001   3.167   1.837   1.097
 3930WAT     H212002   3.279   1.934   1.066
 3931WAT      O12003   0.821   0.987   4.413
 3931WAT     H112004   0.828   0.929   4.338
 3931WAT     H212005   0.889   1.053   4.399
 3932WAT      O12006   2.231   4.424   2.471
 3932WAT     H112007   2.198   4.348   2.423
 3932WAT     H212008   2.252   4.390   2.558
 3933WAT      O12009   1.296   3.450   1.904
 3933WAT     H112010   1.390   3.453   1.921
 3933WAT     H212011   1.273   3.357   1.909
 3934WAT      O12012   2.324   4.397   3.516
 3934WAT     H112013   2.407   4.365   3.481
 3934WAT     H212014   2.343   4.487   3.543
 3935WAT      O12015   0.170   3.668   4.746
 3935WAT     H112016   0.088   3.705   4.780
 3935WAT     H212017   0.153   3.657   4.652
 3936WAT      O12018   0.729   2.263   2.454
 3936WAT     H112019   0.750   2.193   2.392
 3936WAT     H212020   0.683   2.328   2.401
 3937WAT      O12021   1.184   2.911   1.249
 3937WAT     H112022   1.101   2.958   1.254
 3937WAT     H212023   1.250   2.976   1.272
 3938WAT      O12024   0.105   4.272   4.698
 3938WAT     H112025   0.014   4.256   4.724
 3938WAT     H212026   0.138   4.186   4.673
 3939WAT      O12027   0.698   4.969   2.159
 3939WAT     H112028   0.698   4.878   2.128
 3939WAT     H212029   0.731   4.964   2.248
 3940WAT      O12030   2.071   1.576   3.735
 3940WAT     H112031   2.052   1.507   3.799
 3940WAT     H212032   2.103   1.528   3.658
 3941WAT      O12033   4.330   3.762   2.096
 3941WAT     H112034   4.354   3.794   2.009
 3941WAT     H212035   4.284   3.835   2.137
 3942WAT      O12036   2.054   3.693   2.428
 3942WAT     H112037   2.053   3.762   2.494
 3942WAT     H212038   1.965   3.693   2.392
 3943WAT      O12039   3.205   2.433   4.191
 3943WAT     H112040   3.152   2.506   4.223
 3943WAT     H212041   3.141   2.367   4.166
 3944WAT      O12042   3.307   1.155   3.545
 3944WAT     H112043   3.392   1.192   3.569
 3944WAT     H212044   3.315   1.062   3.567
 3945WAT      O12045   4.152   3.842   5.098
 3945WAT     H112046   4.086   3.773   5.090
 3945WAT     H212047   4.228   3.798   5.135
 3946WAT      O12048   0.176   2.375   0.594
 3946WAT     H112049   0.194   2.281   0.590
 3946WAT     H212050   0.248   2.415   0.544
 3947WAT      O12051   3.620   4.628   2.169
 3947WAT     H112052   3.569   4.705   2.144
 3947WAT     H212053   3.554   4.559   2.184
 3948WAT      O12054   0.261   0.988   1.975
 3948WAT     H112055   0.280   1.077   2.003
 3948WAT     H212056   0.346   0.951   1.953
 3949WAT      O12057   3.739   2.227   2.980
 3949WAT     H112058   3.713   2.277   3.057
 3949WAT     H212059   3.811   2.278   2.942
 3950WAT      O12060   0.577   0.456   3.607
 3950WAT     H112061   0.544   0.377   3.650
 3950WAT     H212062   0.644   0.488   3.668
 3951WAT      O12063   1.669   1.421   1.171
 3951WAT     H112064   1.626   1.447   1.090
 3951WAT     H212065   1.759   1.401   1.146
 3952WAT      O12066   1.212   0.841   4.568
 3952WAT     H112067   1.198   0.752   4.598
 3952WAT     H212068   1.134   0.889   4.596
 3953WAT      O12069   0.492   3.932   2.551
 3953WAT     H112070   0.476   3.894   2.464
 3953WAT     H212071   0.411   3.916   2.599
 3954WAT      O12072   1.707   3.628   3.770
 3954WAT     H112073   1.634   3.617   3.709
 3954WAT     H212074   1.774   3.568   3.737
 3955WAT      O12075   3.381   2.550   0.652
 3955WAT     H112076   3.384   2.464   0.693
 3955WAT     H212077   3.374   2.533   0.559
 3956WAT      O12078   0.784   4.827   0.041
 3956WAT     H112079   0.879   4.823   0.028
 3956WAT     H212080   0.759   4.738   0.066
 3957WAT      O12081   3.219   3.965   4.991
 3957WAT     H112082   3.235   4.001   5.078
 3957WAT     H212083   3.156   4.026   4.952
 3958WAT      O12084   2.336   2.922   4.606
 3958WAT     H112085   2.393   2.923   4.683
 3958WAT     H212086   2.360   3.002   4.558
 3959WAT      O12087   1.533   4.905   3.225
 3959WAT     H112088   1.506   4.941   3.141
 3959WAT     H212089   1.454   4.911   3.280
 3960WAT      O12090   2.345   4.657   0.380
 3960WAT     H112091   2.368   4.706   0.459
 3960WAT     H212092   2.250   4.655   0.380
 3961WAT      O12093   0.564   4.907   4.822
 3961WAT     H112094   0.657   4.915   4.803
 3961WAT     H212095   0.559   4.897   4.917
 3962WAT      O12096   1.098   1.926   0.120
 3962WAT     H112097   1.117   1.850   0.175
 3962WAT     H212098   1.181   1.974   0.117
 3963WAT      O12099   2.818   2.050   0.251
 3963WAT     H112100   2.878   2.068   0.179
 3963WAT     H212101   2.813   1.955   0.256
 3964WAT      O12102   1.736   1.153   3.234
 3964WAT     H112103   1.727   1.247   3.218
 3964WAT     H212104   1.647   1.122   3.245
 3965WAT      O12105   2.713   3.205   5.148
 3965WAT     H112106   2.664   3.132   5.186
 3965WAT     H212107   2.657   3.238   5.078
 3966WAT      O12108   0.954   3.072   3.319
 3966WAT     H112109   0.870   3.032   3.299
 3966WAT     H212110   0.932   3.144   3.379
 3967WAT      O12111   1.868   1.402   1.693
 3967WAT     H112112   1.806   1.469   1.663
 3967WAT     H212113   1.818   1.348   1.754
 3968WAT      O12114   0.057   2.045   0.000
 3968WAT     H112115   0.126   2.105   0.026
 3968WAT     H212116  -0.012   2.056   0.066
 3969WAT      O12117   0.775   0.737   0.324
 3969WAT     H112118   0.704   0.694   0.371
 3969WAT     H212119   0.779   0.691   0.240
 3970WAT      O12120   1.353   0.557   0.044
 3970WAT     H112121   1.378   0.499   0.116
 3970WAT     H212122   1.300   0.625   0.085
 3971WAT      O12123   0.080   1.798   0.565
 3971WAT     H112124   0.025   1.723   0.588
 3971WAT     H212125   0.040   1.835   0.487
 3972WAT      O12126   2.678   4.175   1.326
 3972WAT     H112127   2.628   4.161   1.246
 3972WAT     H212128   2.612   4.187   1.394
 3973WAT      O12129   2.360   3.408   5.236
 3973WAT     H112130   2.435   3.443   5.188
 3973WAT     H212131   2.297   3.385   5.168
 3974WAT      O12132   1.300   2.766   5.148
 3974WAT     H112133   1.338   2.844   5.189
 3974WAT     H212134   1.278   2.794   5.059
 3975WAT      O12135   3.127   4.407   4.473
 3975WAT     H112136   3.102   4.493   4.506
 3975WAT     H212137   3.190   4.374   4.537
 3976WAT      O12138   2.773   1.432   1.617
 3976WAT     H112139   2.802   1.442   1.526
 3976WAT     H212140   2.694   1.379   1.612
 3977WAT      O12141   3.904   4.194   0.171
 3977WAT     H112142   3.880   4.121   0.114
 3977WAT     H212143   3.977   4.237   0.127
 3978WAT      O12144   3.642   1.529   1.529
 3978WAT     H112145   3.692   1.544   1.610
 3978WAT     H212146   3.632   1.434   1.524
 3979WAT      O12147   3.618   2.065   5.100
 3979WAT     H112148   3.649   1.994   5.157
 3979WAT     H212149   3.696   2.118   5.084
 3980WAT      O12150   4.354   2.893   4.738
 3980WAT     H112151   4.288   2.838   4.696
 3980WAT     H212152   4.329   2.893   4.831
 3981WAT      O12153   1.895   0.344   0.486
 3981WAT     H112154   1.951   0.281   0.532
 3981WAT     H212155   1.939   0.428   0.499
 3982WAT      O12156   2.267   3.150   2.389
 3982WAT     H112157   2.360   3.154   2.365
 3982WAT     H212158   2.262   3.079   2.452
 3983WAT      O12159   1.571   3.916   2.901
 3983WAT     H112160   1.504   3.979   2.925
 3983WAT     H212161   1.650   3.946   2.947
 3984WAT      O12162   0.367   1.975   4.181
 3984WAT     H112163   0.413   2.026   4.248
 3984WAT     H212164   0.274   1.992   4.197
 3985WAT      O12165   0.128   2.730   1.457
 3985WAT     H112166   0.190   2.803   1.451
 3985WAT     H212167   0.110   2.721   1.550
 3986WAT      O12168   2.730   4.180   4.950
 3986WAT     H112169   2.778   4.135   4.881
 3986WAT     H212170   2.655   4.123   4.968
 3987WAT      O12171   0.566   3.874   0.741
 3987WAT     H112172   0.539   3.963   0.717
 3987WAT     H212173   0.608   3.885   0.826
 3988WAT      O12174   0.686   0.802   4.588
 3988WAT     H112175   0.735   0.875   4.550
 3988WAT     H212176   0.594   0.829   4.581
 3989WAT      O12177   3.847   3.536   1.163
 3989WAT     H112178   3.858   3.557   1.070
 3989WAT     H212179   3.936   3.527   1.197
 3990WAT      O12180   1.921   1.731   1.275
 3990WAT     H112181   1.829   1.755   1.270
 3990WAT     H212182   1.921   1.648   1.324
 3991WAT      O12183   2.681   4.773   1.916
 3991WAT     H112184   2.683   4.685   1.952
 3991WAT     H212185   2.717   4.764   1.827
 3992WAT      O12186   2.188   0.122   0.622
 3992WAT     H112187   2.191   0.096   0.530
 3992WAT     H212188   2.248   0.062   0.666
 3993WAT      O12189   3.827   4.092   1.450
 3993WAT     H112190   3.764   4.164   1.448
 3993WAT     H212191   3.778   4.017   1.484
 3994WAT      O12192   4.247   2.830   4.265
 3994WAT     H112193   4.160   2.848   4.229
 3994WAT     H212194   4.305   2.828   4.189
 3995WAT      O12195   1.613   3.105   2.190
 3995WAT     H112196   1.551   3.097   2.117
 3995WAT     H212197   1.687   3.154   2.153
 3996WAT      O12198   3.888   1.891   1.195
 3996WAT     H112199   3.831   1.839   1.252
 3996WAT     H212200   3.905   1.834   1.120
 3997WAT      O12201   2.321   3.550   1.077
 3997WAT     H112202   2.328   3.511   1.164
 3997WAT     H212203   2.231   3.531   1.050
 3998WAT      O12204   2.146   4.965   0.395
 3998WAT     H112205   2.217   4.908   0.424
 3998WAT     H212206   2.188   5.048   0.375
 3999WAT      O12207   4.157   0.588   4.483
 3999WAT     H112208   4.173   0.619   4.572
 3999WAT     H212209   4.232   0.621   4.432
 4000WAT      O12210   2.919   1.274   1.822
 4000WAT     H112211   2.873   1.332   1.762
 4000WAT     H212212   2.958   1.207   1.765
 4001WAT      O12213   0.677   1.878   4.783
 4001WAT     H112214   0.706   1.922   4.863
 4001WAT     H212215   0.756   1.868   4.730
 4002WAT      O12216   2.843   4.064   3.403
 4002WAT     H112217   2.768   4.007   3.383
 4002WAT     H212218   2.831   4.088   3.495
 4003WAT      O12219   0.500   3.421   2.031
 4003WAT     H112220   0.492   3.504   1.983
 4003WAT     H212221   0.515   3.356   1.962
 4004WAT      O12222   0.749   0.008   3.010
 4004WAT     H112223   0.791  -0.049   3.075
 4004WAT     H212224   0.663   0.026   3.047
 4005WAT      O12225   1.112   1.980   2.624
 4005WAT     H112226   1.193   1.978   2.572
 4005WAT     H212227   1.047   1.935   2.570
   4.51204   5.13065   5.28767
