Generic title t= 5000.00000 step= 2500000
12227
    1ILE      N    1   1.318   2.037   2.153
    1ILE     H1    2   1.225   2.024   2.189
    1ILE     H2    3   1.369   1.952   2.129
    1ILE     H3    4   1.293   2.077   2.064
    1ILE     CA    5   1.408   2.136   2.214
    1ILE     HA    6   1.484   2.160   2.141
    1ILE     CB    7   1.327   2.266   2.256
    1ILE     HB    8   1.258   2.307   2.182
    1ILE    CG2    9   1.242   2.223   2.377
    1ILE   HG21   10   1.291   2.247   2.471
    1ILE   HG22   11   1.142   2.268   2.379
    1ILE   HG23   12   1.226   2.116   2.378
    1ILE    CG1   13   1.415   2.392   2.279
    1ILE   HG12   14   1.492   2.401   2.202
    1ILE   HG13   15   1.463   2.385   2.376
    1ILE    CD1   16   1.335   2.524   2.276
    1ILE   HD11   17   1.263   2.531   2.357
    1ILE   HD12   18   1.403   2.604   2.304
    1ILE   HD13   19   1.286   2.549   2.182
    1ILE      C   20   1.492   2.074   2.324
    1ILE      O   21   1.443   1.985   2.391
    2LEU      N   22   1.616   2.121   2.340
    2LEU      H   23   1.643   2.197   2.280
    2LEU     CA   24   1.694   2.100   2.463
    2LEU     HA   25   1.646   2.031   2.534
    2LEU     CB   26   1.826   2.031   2.435
    2LEU    HB2   27   1.897   2.110   2.409
    2LEU    HB3   28   1.862   1.984   2.526
    2LEU     CG   29   1.833   1.928   2.323
    2LEU     HG   30   1.814   1.967   2.223
    2LEU    CD1   31   1.984   1.882   2.306
    2LEU   HD11   32   2.034   1.958   2.246
    2LEU   HD12   33   2.031   1.873   2.404
    2LEU   HD13   34   1.999   1.784   2.259
    2LEU    CD2   35   1.752   1.807   2.352
    2LEU   HD21   36   1.769   1.784   2.457
    2LEU   HD22   37   1.647   1.837   2.350
    2LEU   HD23   38   1.768   1.721   2.288
    2LEU      C   39   1.720   2.230   2.542
    2LEU      O   40   1.720   2.342   2.488
    3ARG      N   41   1.726   2.216   2.673
    3ARG      H   42   1.721   2.122   2.710
    3ARG     CA   43   1.735   2.328   2.770
    3ARG     HA   44   1.759   2.419   2.714
    3ARG     CB   45   1.600   2.358   2.842
    3ARG    HB2   46   1.611   2.456   2.888
    3ARG    HB3   47   1.528   2.373   2.761
    3ARG     CG   48   1.544   2.255   2.945
    3ARG    HG2   49   1.535   2.155   2.904
    3ARG    HG3   50   1.608   2.254   3.033
    3ARG     CD   51   1.408   2.291   3.003
    3ARG    HD2   52   1.401   2.242   3.101
    3ARG    HD3   53   1.409   2.396   3.033
    3ARG     NE   54   1.295   2.255   2.924
    3ARG     HE   55   1.266   2.160   2.935
    3ARG     CZ   56   1.218   2.339   2.853
    3ARG    NH1   57   1.223   2.470   2.867
    3ARG   HH11   58   1.304   2.516   2.904
    3ARG   HH12   59   1.161   2.533   2.821
    3ARG    NH2   60   1.126   2.281   2.772
    3ARG   HH21   61   1.111   2.182   2.768
    3ARG   HH22   62   1.061   2.344   2.725
    3ARG      C   63   1.842   2.307   2.875
    3ARG      O   64   1.887   2.196   2.900
    4TRP      N   65   1.901   2.418   2.920
    4TRP      H   66   1.860   2.508   2.900
    4TRP     CA   67   2.021   2.417   3.008
    4TRP     HA   68   2.031   2.319   3.056
    4TRP     CB   69   2.147   2.439   2.914
    4TRP    HB2   70   2.127   2.517   2.840
    4TRP    HB3   71   2.238   2.454   2.972
    4TRP     CG   72   2.180   2.322   2.827
    4TRP    CD1   73   2.245   2.212   2.867
    4TRP    HD1   74   2.281   2.190   2.967
    4TRP    NE1   75   2.269   2.133   2.759
    4TRP    HE1   76   2.312   2.041   2.769
    4TRP    CE2   77   2.219   2.186   2.644
    4TRP    CZ2   78   2.212   2.147   2.510
    4TRP    HZ2   79   2.255   2.058   2.466
    4TRP    CH2   80   2.140   2.226   2.421
    4TRP    HH2   81   2.133   2.204   2.316
    4TRP    CZ3   82   2.058   2.329   2.465
    4TRP    HZ3   83   2.005   2.387   2.390
    4TRP    CE3   84   2.060   2.375   2.600
    4TRP    HE3   85   1.999   2.459   2.634
    4TRP    CD2   86   2.145   2.305   2.692
    4TRP      C   87   2.014   2.535   3.120
    4TRP      O   88   1.930   2.624   3.107
    5PRO      N   89   2.105   2.537   3.216
    5PRO     CD   90   2.174   2.417   3.255
    5PRO    HD2   91   2.274   2.413   3.213
    5PRO    HD3   92   2.122   2.322   3.233
    5PRO     CG   93   2.187   2.431   3.410
    5PRO    HG2   94   2.270   2.373   3.451
    5PRO    HG3   95   2.095   2.393   3.456
    5PRO     CB   96   2.210   2.579   3.425
    5PRO    HB2   97   2.312   2.607   3.395
    5PRO    HB3   98   2.179   2.604   3.526
    5PRO     CA   99   2.116   2.637   3.321
    5PRO     HA  100   2.018   2.647   3.367
    5PRO      C  101   2.162   2.776   3.273
    5PRO      O  102   2.216   2.773   3.159
    6TRP      N  103   2.168   2.885   3.348
    6TRP      H  104   2.113   2.872   3.432
    6TRP     CA  105   2.231   3.018   3.310
    6TRP     HA  106   2.209   3.042   3.206
    6TRP     CB  107   2.160   3.128   3.399
    6TRP    HB2  108   2.166   3.096   3.503
    6TRP    HB3  109   2.206   3.227   3.396
    6TRP     CG  110   2.015   3.163   3.363
    6TRP    CD1  111   1.904   3.110   3.421
    6TRP    HD1  112   1.915   3.045   3.508
    6TRP    NE1  113   1.782   3.149   3.360
    6TRP    HE1  114   1.695   3.108   3.389
    6TRP    CE2  115   1.815   3.215   3.246
    6TRP    CZ2  116   1.739   3.269   3.141
    6TRP    HZ2  117   1.634   3.245   3.133
    6TRP    CH2  118   1.794   3.344   3.039
    6TRP    HH2  119   1.726   3.374   2.961
    6TRP    CZ3  120   1.932   3.366   3.028
    6TRP    HZ3  121   1.976   3.419   2.945
    6TRP    CE3  122   2.012   3.308   3.132
    6TRP    HE3  123   2.119   3.325   3.132
    6TRP    CD2  124   1.957   3.235   3.245
    6TRP      C  125   2.377   3.025   3.323
    6TRP      O  126   2.441   3.121   3.275
    7TRP      N  127   2.438   2.923   3.388
    7TRP      H  128   2.375   2.852   3.422
    7TRP     CA  129   2.580   2.922   3.425
    7TRP     HA  130   2.601   3.019   3.469
    7TRP     CB  131   2.605   2.806   3.522
    7TRP    HB2  132   2.640   2.719   3.468
    7TRP    HB3  133   2.693   2.834   3.579
    7TRP     CG  134   2.506   2.766   3.630
    7TRP    CD1  135   2.503   2.648   3.698
    7TRP    HD1  136   2.574   2.568   3.681
    7TRP    NE1  137   2.403   2.637   3.790
    7TRP    HE1  138   2.389   2.549   3.838
    7TRP    CE2  139   2.336   2.759   3.795
    7TRP    CZ2  140   2.233   2.799   3.878
    7TRP    HZ2  141   2.193   2.728   3.950
    7TRP    CH2  142   2.176   2.926   3.862
    7TRP    HH2  143   2.098   2.956   3.931
    7TRP    CZ3  144   2.228   3.012   3.764
    7TRP    HZ3  145   2.180   3.108   3.745
    7TRP    CE3  146   2.346   2.973   3.693
    7TRP    HE3  147   2.401   3.044   3.634
    7TRP    CD2  148   2.400   2.841   3.699
    7TRP      C  149   2.660   2.911   3.298
    7TRP      O  150   2.618   2.838   3.208
    8PRO      N  151   2.785   2.964   3.288
    8PRO     CD  152   2.864   3.025   3.394
    8PRO    HD2  153   2.871   2.959   3.481
    8PRO    HD3  154   2.818   3.121   3.418
    8PRO     CG  155   3.004   3.035   3.336
    8PRO    HG2  156   3.064   2.951   3.371
    8PRO    HG3  157   3.053   3.124   3.373
    8PRO     CB  158   2.985   3.039   3.182
    8PRO    HB2  159   3.067   2.986   3.134
    8PRO    HB3  160   2.963   3.142   3.150
    8PRO     CA  161   2.859   2.958   3.160
    8PRO     HA  162   2.807   3.010   3.080
    8PRO      C  163   2.896   2.818   3.115
    8PRO      O  164   2.974   2.747   3.186
    9TRP      N  165   2.839   2.780   2.998
    9TRP      H  166   2.775   2.841   2.953
    9TRP     CA  167   2.869   2.654   2.926
    9TRP     HA  168   2.970   2.617   2.945
    9TRP     CB  169   2.760   2.550   2.970
    9TRP    HB2  170   2.667   2.604   2.957
    9TRP    HB3  171   2.767   2.466   2.900
    9TRP     CG  172   2.760   2.505   3.118
    9TRP    CD1  173   2.666   2.516   3.216
    9TRP    HD1  174   2.566   2.552   3.204
    9TRP    NE1  175   2.709   2.465   3.338
    9TRP    HE1  176   2.658   2.458   3.425
    9TRP    CE2  177   2.844   2.434   3.333
    9TRP    CZ2  178   2.939   2.380   3.422
    9TRP    HZ2  179   2.911   2.360   3.524
    9TRP    CH2  180   3.060   2.334   3.374
    9TRP    HH2  181   3.123   2.286   3.447
    9TRP    CZ3  182   3.092   2.352   3.238
    9TRP    HZ3  183   3.190   2.318   3.209
    9TRP    CE3  184   3.000   2.411   3.147
    9TRP    HE3  185   3.024   2.413   3.042
    9TRP    CD2  186   2.876   2.456   3.195
    9TRP      C  187   2.860   2.677   2.774
    9TRP      O  188   2.758   2.714   2.721
   10ARG      N  189   2.969   2.650   2.704
   10ARG      H  190   3.055   2.640   2.758
   10ARG     CA  191   2.974   2.653   2.564
   10ARG     HA  192   2.918   2.739   2.529
   10ARG     CB  193   3.120   2.656   2.523
   10ARG    HB2  194   3.173   2.569   2.563
   10ARG    HB3  195   3.119   2.638   2.415
   10ARG     CG  196   3.198   2.781   2.556
   10ARG    HG2  197   3.141   2.860   2.505
   10ARG    HG3  198   3.191   2.814   2.659
   10ARG     CD  199   3.348   2.775   2.506
   10ARG    HD2  200   3.394   2.873   2.513
   10ARG    HD3  201   3.404   2.696   2.558
   10ARG     NE  202   3.352   2.753   2.358
   10ARG     HE  203   3.312   2.827   2.303
   10ARG     CZ  204   3.390   2.637   2.300
   10ARG    NH1  205   3.386   2.525   2.368
   10ARG   HH11  206   3.336   2.511   2.455
   10ARG   HH12  207   3.430   2.446   2.323
   10ARG    NH2  208   3.432   2.635   2.175
   10ARG   HH21  209   3.458   2.716   2.122
   10ARG   HH22  210   3.453   2.544   2.137
   10ARG      C  211   2.907   2.528   2.507
   10ARG      O  212   2.919   2.417   2.562
   11ARG      N  213   2.831   2.536   2.396
   11ARG      H  214   2.823   2.629   2.358
   11ARG     CA  215   2.763   2.430   2.320
   11ARG     HA  216   2.836   2.348   2.325
   11ARG     CB  217   2.627   2.380   2.389
   11ARG    HB2  218   2.572   2.316   2.319
   11ARG    HB3  219   2.649   2.326   2.481
   11ARG     CG  220   2.530   2.497   2.418
   11ARG    HG2  221   2.585   2.570   2.476
   11ARG    HG3  222   2.505   2.549   2.325
   11ARG     CD  223   2.402   2.454   2.505
   11ARG    HD2  224   2.338   2.411   2.430
   11ARG    HD3  225   2.434   2.386   2.584
   11ARG     NE  226   2.335   2.576   2.557
   11ARG     HE  227   2.294   2.647   2.497
   11ARG     CZ  228   2.344   2.617   2.681
   11ARG    NH1  229   2.415   2.571   2.782
   11ARG   HH11  230   2.470   2.486   2.778
   11ARG   HH12  231   2.428   2.630   2.862
   11ARG    NH2  232   2.280   2.726   2.713
   11ARG   HH21  233   2.244   2.781   2.637
   11ARG   HH22  234   2.251   2.748   2.807
   11ARG      C  235   2.750   2.471   2.175
   11ARG      O  236   2.727   2.592   2.155
   12LYS      N  237   2.743   2.378   2.080
   12LYS      H  238   2.762   2.285   2.113
   12LYS     CA  239   2.715   2.403   1.936
   12LYS     HA  240   2.807   2.452   1.908
   12LYS     CB  241   2.699   2.263   1.870
   12LYS    HB2  242   2.766   2.189   1.912
   12LYS    HB3  243   2.602   2.223   1.898
   12LYS     CG  244   2.723   2.253   1.724
   12LYS    HG2  245   2.664   2.327   1.670
   12LYS    HG3  246   2.830   2.265   1.704
   12LYS     CD  247   2.686   2.120   1.671
   12LYS    HD2  248   2.750   2.043   1.714
   12LYS    HD3  249   2.581   2.099   1.690
   12LYS     CE  250   2.701   2.128   1.513
   12LYS    HE2  251   2.643   2.212   1.476
   12LYS    HE3  252   2.800   2.147   1.471
   12LYS     NZ  253   2.647   2.007   1.446
   12LYS    HZ1  254   2.707   1.926   1.448
   12LYS    HZ2  255   2.555   1.979   1.476
   12LYS    HZ3  256   2.646   2.031   1.347
   12LYS      C  257   2.604   2.500   1.895
   12LYS      O  258   2.498   2.497   1.953
   13NHE      N  259   2.636   2.568   1.782
   13NHE    HN1  260   2.728   2.564   1.739
   13NHE    HN2  261   2.570   2.628   1.735
   14Cl-    Cl-  262   3.895   3.242   1.699
   15Cl-    Cl-  263   2.838   3.659   3.737
   16Cl-    Cl-  264   1.158   0.997   2.756
   17Cl-    Cl-  265   2.934   3.680   1.083
   18Cl-    Cl-  266   1.381   4.497   4.280
   19WAT      O  267   0.684   4.852   4.045
   19WAT     H1  268   0.677   4.772   4.097
   19WAT     H2  269   0.744   4.829   3.974
   20WAT      O  270   3.703   2.880   3.816
   20WAT     H1  271   3.764   2.899   3.888
   20WAT     H2  272   3.629   2.838   3.858
   21WAT      O  273   0.684   0.109   3.773
   21WAT     H1  274   0.604   0.159   3.787
   21WAT     H2  275   0.655   0.018   3.769
   22WAT      O  276   4.504   2.946   2.728
   22WAT     H1  277   4.567   2.979   2.793
   22WAT     H2  278   4.541   2.863   2.700
   23WAT      O  279   1.447   1.475   3.666
   23WAT     H1  280   1.466   1.416   3.740
   23WAT     H2  281   1.533   1.504   3.637
   24WAT      O  282   3.235   2.753   0.686
   24WAT     H1  283   3.251   2.838   0.644
   24WAT     H2  284   3.152   2.763   0.731
   25WAT      O  285   3.691   3.065   3.324
   25WAT     H1  286   3.758   3.021   3.273
   25WAT     H2  287   3.622   3.002   3.336
   26WAT      O  288   3.775   1.412   0.465
   26WAT     H1  289   3.753   1.502   0.443
   26WAT     H2  290   3.870   1.412   0.475
   27WAT      O  291   2.975   4.968   2.746
   27WAT     H1  292   2.936   5.027   2.682
   27WAT     H2  293   3.050   5.017   2.781
   28WAT      O  294   3.354   4.308   2.624
   28WAT     H1  295   3.405   4.373   2.576
   28WAT     H2  296   3.266   4.346   2.630
   29WAT      O  297   4.242   0.769   0.324
   29WAT     H1  298   4.199   0.703   0.269
   29WAT     H2  299   4.335   0.748   0.320
   30WAT      O  300   0.541   3.417   0.418
   30WAT     H1  301   0.580   3.461   0.494
   30WAT     H2  302   0.542   3.484   0.350
   31WAT      O  303   3.071   3.480   2.676
   31WAT     H1  304   2.986   3.448   2.648
   31WAT     H2  305   3.059   3.575   2.684
   32WAT      O  306   4.183   2.676   3.391
   32WAT     H1  307   4.221   2.765   3.399
   32WAT     H2  308   4.134   2.681   3.308
   33WAT      O  309   4.464   0.741   2.765
   33WAT     H1  310   4.422   0.655   2.760
   33WAT     H2  311   4.557   0.720   2.777
   34WAT      O  312   3.558   3.900   3.509
   34WAT     H1  313   3.546   3.989   3.477
   34WAT     H2  314   3.503   3.847   3.451
   35WAT      O  315   2.768   1.889   0.240
   35WAT     H1  316   2.855   1.922   0.219
   35WAT     H2  317   2.735   1.854   0.156
   36WAT      O  318   0.335   1.193   3.476
   36WAT     H1  319   0.341   1.130   3.405
   36WAT     H2  320   0.399   1.261   3.455
   37WAT      O  321   2.568   0.746   0.344
   37WAT     H1  322   2.488   0.784   0.308
   37WAT     H2  323   2.594   0.807   0.413
   38WAT      O  324   0.283   1.058   5.159
   38WAT     H1  325   0.241   0.972   5.152
   38WAT     H2  326   0.211   1.119   5.171
   39WAT      O  327   4.150   4.502   1.105
   39WAT     H1  328   4.143   4.409   1.126
   39WAT     H2  329   4.068   4.540   1.136
   40WAT      O  330   2.278   4.135   2.241
   40WAT     H1  331   2.347   4.158   2.179
   40WAT     H2  332   2.200   4.123   2.186
   41WAT      O  333   2.170   1.793   2.646
   41WAT     H1  334   2.229   1.757   2.578
   41WAT     H2  335   2.179   1.732   2.719
   42WAT      O  336   0.743   0.157   1.643
   42WAT     H1  337   0.815   0.216   1.620
   42WAT     H2  338   0.739   0.160   1.739
   43WAT      O  339   2.066   2.687   5.268
   43WAT     H1  340   2.143   2.743   5.271
   43WAT     H2  341   2.082   2.623   5.337
   44WAT      O  342   1.688   3.434   1.288
   44WAT     H1  343   1.618   3.417   1.351
   44WAT     H2  344   1.752   3.365   1.306
   45WAT      O  345   0.817   3.529   4.934
   45WAT     H1  346   0.902   3.506   4.972
   45WAT     H2  347   0.773   3.445   4.922
   46WAT      O  348   1.691   0.038   2.320
   46WAT     H1  349   1.669  -0.024   2.389
   46WAT     H2  350   1.662   0.123   2.354
   47WAT      O  351   0.266   0.092   2.352
   47WAT     H1  352   0.352   0.105   2.313
   47WAT     H2  353   0.282   0.039   2.429
   48WAT      O  354   3.565   1.553   0.714
   48WAT     H1  355   3.600   1.640   0.705
   48WAT     H2  356   3.639   1.499   0.743
   49WAT      O  357   2.543   0.697   2.919
   49WAT     H1  358   2.603   0.702   2.992
   49WAT     H2  359   2.518   0.605   2.913
   50WAT      O  360   4.174   0.491   1.397
   50WAT     H1  361   4.097   0.446   1.431
   50WAT     H2  362   4.139   0.552   1.332
   51WAT      O  363   2.345   0.563   3.639
   51WAT     H1  364   2.399   0.484   3.647
   51WAT     H2  365   2.387   0.626   3.697
   52WAT      O  366   2.556   0.070   3.811
   52WAT     H1  367   2.592   0.157   3.826
   52WAT     H2  368   2.464   0.077   3.835
   53WAT      O  369   2.952   3.192   2.120
   53WAT     H1  370   2.883   3.130   2.142
   53WAT     H2  371   2.907   3.265   2.077
   54WAT      O  372   1.908   4.919   3.772
   54WAT     H1  373   1.875   5.006   3.748
   54WAT     H2  374   1.849   4.858   3.730
   55WAT      O  375   0.103   4.927   3.713
   55WAT     H1  376   0.100   4.843   3.759
   55WAT     H2  377   0.080   4.905   3.623
   56WAT      O  378   3.499   2.873   2.018
   56WAT     H1  379   3.444   2.951   2.012
   56WAT     H2  380   3.524   2.854   1.928
   57WAT      O  381   0.196   4.002   0.674
   57WAT     H1  382   0.164   4.068   0.611
   57WAT     H2  383   0.172   4.038   0.759
   58WAT      O  384   2.773   3.485   2.065
   58WAT     H1  385   2.758   3.565   2.116
   58WAT     H2  386   2.862   3.495   2.031
   59WAT      O  387   1.270   4.725   2.517
   59WAT     H1  388   1.349   4.695   2.561
   59WAT     H2  389   1.228   4.644   2.487
   60WAT      O  390   0.476   0.575   3.842
   60WAT     H1  391   0.429   0.612   3.917
   60WAT     H2  392   0.533   0.509   3.881
   61WAT      O  393   2.665   2.565   5.025
   61WAT     H1  394   2.728   2.533   5.089
   61WAT     H2  395   2.657   2.660   5.044
   62WAT      O  396   4.310   0.094   3.129
   62WAT     H1  397   4.290   0.092   3.035
   62WAT     H2  398   4.403   0.117   3.132
   63WAT      O  399   3.164   2.890   4.796
   63WAT     H1  400   3.229   2.834   4.840
   63WAT     H2  401   3.213   2.966   4.767
   64WAT      O  402   2.584   1.494   5.027
   64WAT     H1  403   2.578   1.574   5.078
   64WAT     H2  404   2.649   1.512   4.959
   65WAT      O  405   0.572   4.563   2.933
   65WAT     H1  406   0.650   4.508   2.947
   65WAT     H2  407   0.501   4.501   2.918
   66WAT      O  408   4.094   0.174   4.449
   66WAT     H1  409   4.174   0.211   4.488
   66WAT     H2  410   4.068   0.105   4.509
   67WAT      O  411   2.412   4.968   4.201
   67WAT     H1  412   2.324   5.005   4.199
   67WAT     H2  413   2.400   4.874   4.205
   68WAT      O  414   0.480   3.688   4.746
   68WAT     H1  415   0.518   3.710   4.832
   68WAT     H2  416   0.460   3.773   4.707
   69WAT      O  417   0.892   2.154   3.249
   69WAT     H1  418   0.812   2.204   3.256
   69WAT     H2  419   0.862   2.064   3.239
   70WAT      O  420   3.661   4.395   3.424
   70WAT     H1  421   3.641   4.302   3.420
   70WAT     H2  422   3.652   4.426   3.334
   71WAT      O  423   1.785   1.785   0.892
   71WAT     H1  424   1.860   1.751   0.942
   71WAT     H2  425   1.715   1.794   0.957
   72WAT      O  426   3.223   4.526   4.683
   72WAT     H1  427   3.310   4.551   4.713
   72WAT     H2  428   3.207   4.440   4.722
   73WAT      O  429   4.519   4.381   1.652
   73WAT     H1  430   4.448   4.323   1.677
   73WAT     H2  431   4.476   4.459   1.618
   74WAT      O  432   2.351   2.129   3.477
   74WAT     H1  433   2.288   2.099   3.542
   74WAT     H2  434   2.318   2.094   3.394
   75WAT      O  435   3.691   1.732   3.447
   75WAT     H1  436   3.661   1.738   3.537
   75WAT     H2  437   3.718   1.642   3.436
   76WAT      O  438   4.359   1.086   5.020
   76WAT     H1  439   4.288   1.126   4.969
   76WAT     H2  440   4.315   1.022   5.076
   77WAT      O  441   2.342   2.622   4.276
   77WAT     H1  442   2.421   2.654   4.232
   77WAT     H2  443   2.277   2.690   4.261
   78WAT      O  444   0.714   4.828   1.484
   78WAT     H1  445   0.741   4.750   1.533
   78WAT     H2  446   0.706   4.896   1.550
   79WAT      O  447   0.662   1.678   2.024
   79WAT     H1  448   0.723   1.683   2.098
   79WAT     H2  449   0.590   1.737   2.048
   80WAT      O  450   3.050   1.567   0.504
   80WAT     H1  451   3.059   1.517   0.586
   80WAT     H2  452   3.007   1.649   0.531
   81WAT      O  453   1.888   0.007   2.037
   81WAT     H1  454   1.960   0.023   1.975
   81WAT     H2  455   1.846   0.092   2.047
   82WAT      O  456   4.172   2.459   0.329
   82WAT     H1  457   4.078   2.444   0.337
   82WAT     H2  458   4.185   2.548   0.365
   83WAT      O  459   3.396   3.537   1.340
   83WAT     H1  460   3.382   3.453   1.296
   83WAT     H2  461   3.486   3.533   1.373
   84WAT      O  462   3.098   1.044   0.287
   84WAT     H1  463   3.150   1.100   0.229
   84WAT     H2  464   3.113   1.080   0.374
   85WAT      O  465   3.353   4.885   4.885
   85WAT     H1  466   3.283   4.870   4.821
   85WAT     H2  467   3.338   4.975   4.915
   86WAT      O  468   3.071   3.940   2.947
   86WAT     H1  469   2.997   3.992   2.979
   86WAT     H2  470   3.060   3.855   2.990
   87WAT      O  471   0.516   1.384   3.356
   87WAT     H1  472   0.477   1.471   3.375
   87WAT     H2  473   0.610   1.400   3.353
   88WAT      O  474   3.027   3.562   4.379
   88WAT     H1  475   3.053   3.507   4.305
   88WAT     H2  476   2.989   3.501   4.442
   89WAT      O  477   2.234   3.393   3.686
   89WAT     H1  478   2.139   3.402   3.691
   89WAT     H2  479   2.252   3.308   3.728
   90WAT      O  480   1.082   3.487   5.010
   90WAT     H1  481   1.134   3.441   5.076
   90WAT     H2  482   1.104   3.580   5.024
   91WAT      O  483   1.226   4.286   2.559
   91WAT     H1  484   1.219   4.360   2.499
   91WAT     H2  485   1.178   4.314   2.637
   92WAT      O  486   2.551   2.071   4.537
   92WAT     H1  487   2.553   2.108   4.448
   92WAT     H2  488   2.640   2.040   4.552
   93WAT      O  489   3.510   0.425   4.436
   93WAT     H1  490   3.441   0.379   4.484
   93WAT     H2  491   3.536   0.363   4.368
   94WAT      O  492   0.203   0.198   4.170
   94WAT     H1  493   0.258   0.272   4.145
   94WAT     H2  494   0.138   0.192   4.099
   95WAT      O  495   0.270   2.131   0.171
   95WAT     H1  496   0.194   2.077   0.190
   95WAT     H2  497   0.336   2.070   0.139
   96WAT      O  498   0.800   0.555   4.059
   96WAT     H1  499   0.787   0.471   4.014
   96WAT     H2  500   0.872   0.539   4.120
   97WAT      O  501   0.662   4.816   2.441
   97WAT     H1  502   0.573   4.837   2.469
   97WAT     H2  503   0.710   4.899   2.448
   98WAT      O  504   3.686   3.931   4.426
   98WAT     H1  505   3.662   3.845   4.393
   98WAT     H2  506   3.778   3.924   4.450
   99WAT      O  507   1.281   1.047   4.689
   99WAT     H1  508   1.289   0.952   4.709
   99WAT     H2  509   1.274   1.088   4.774
  100WAT      O  510   3.897   4.726   3.373
  100WAT     H1  511   3.838   4.665   3.327
  100WAT     H2  512   3.915   4.795   3.309
  101WAT      O  513   3.631   4.908   4.914
  101WAT     H1  514   3.539   4.905   4.886
  101WAT     H2  515   3.663   4.992   4.882
  102WAT      O  516   1.797   5.114   3.629
  102WAT     H1  517   1.747   5.041   3.592
  102WAT     H2  518   1.802   5.178   3.557
  103WAT      O  519   1.563   1.067   3.016
  103WAT     H1  520   1.494   1.022   3.064
  103WAT     H2  521   1.611   1.117   3.083
  104WAT      O  522   2.286   2.577   0.583
  104WAT     H1  523   2.266   2.538   0.497
  104WAT     H2  524   2.210   2.633   0.601
  105WAT      O  525   0.520   4.800   4.880
  105WAT     H1  526   0.599   4.853   4.867
  105WAT     H2  527   0.458   4.836   4.816
  106WAT      O  528   0.699   2.518   3.174
  106WAT     H1  529   0.712   2.614   3.166
  106WAT     H2  530   0.724   2.498   3.264
  107WAT      O  531   2.414   0.804   4.637
  107WAT     H1  532   2.472   0.761   4.700
  107WAT     H2  533   2.333   0.820   4.685
  108WAT      O  534   1.793   0.995   4.511
  108WAT     H1  535   1.860   0.972   4.446
  108WAT     H2  536   1.836   0.981   4.595
  109WAT      O  537   2.607   2.301   3.826
  109WAT     H1  538   2.515   2.309   3.801
  109WAT     H2  539   2.624   2.208   3.820
  110WAT      O  540   1.278   2.161   4.499
  110WAT     H1  541   1.372   2.180   4.497
  110WAT     H2  542   1.252   2.177   4.589
  111WAT      O  543   3.518   0.826   3.151
  111WAT     H1  544   3.605   0.866   3.161
  111WAT     H2  545   3.471   0.886   3.094
  112WAT      O  546   2.323   0.316   0.894
  112WAT     H1  547   2.276   0.399   0.884
  112WAT     H2  548   2.362   0.300   0.808
  113WAT      O  549   2.759   1.545   1.165
  113WAT     H1  550   2.764   1.629   1.119
  113WAT     H2  551   2.828   1.550   1.232
  114WAT      O  552   2.788   5.041   2.991
  114WAT     H1  553   2.730   4.970   3.017
  114WAT     H2  554   2.838   5.005   2.917
  115WAT      O  555   3.358   2.353   0.643
  115WAT     H1  556   3.367   2.398   0.559
  115WAT     H2  557   3.283   2.394   0.685
  116WAT      O  558   4.037   0.016   3.133
  116WAT     H1  559   4.128   0.035   3.113
  116WAT     H2  560   4.037  -0.007   3.226
  117WAT      O  561   1.079   2.104   3.691
  117WAT     H1  562   1.112   2.044   3.624
  117WAT     H2  563   0.985   2.107   3.677
  118WAT      O  564   2.357   0.534   0.271
  118WAT     H1  565   2.342   0.563   0.361
  118WAT     H2  566   2.399   0.608   0.229
  119WAT      O  567   2.601   4.304   3.857
  119WAT     H1  568   2.510   4.290   3.831
  119WAT     H2  569   2.617   4.235   3.922
  120WAT      O  570   1.678   2.104   0.562
  120WAT     H1  571   1.716   2.053   0.490
  120WAT     H2  572   1.730   2.081   0.638
  121WAT      O  573   4.505   3.969   1.988
  121WAT     H1  574   4.513   3.907   1.916
  121WAT     H2  575   4.526   3.918   2.066
  122WAT      O  576   1.031   2.544   2.648
  122WAT     H1  577   0.995   2.551   2.560
  122WAT     H2  578   1.003   2.625   2.691
  123WAT      O  579   1.160   2.485   3.208
  123WAT     H1  580   1.190   2.543   3.279
  123WAT     H2  581   1.170   2.397   3.243
  124WAT      O  582   0.052   3.737   2.172
  124WAT     H1  583   0.034   3.718   2.080
  124WAT     H2  584   0.005   3.669   2.220
  125WAT      O  585   2.187   4.423   1.966
  125WAT     H1  586   2.164   4.332   1.948
  125WAT     H2  587   2.110   4.459   2.010
  126WAT      O  588   2.002   1.873   3.272
  126WAT     H1  589   2.036   1.935   3.209
  126WAT     H2  590   1.943   1.817   3.220
  127WAT      O  591   0.246   1.083   1.171
  127WAT     H1  592   0.158   1.070   1.135
  127WAT     H2  593   0.304   1.063   1.098
  128WAT      O  594   3.856   0.540   2.618
  128WAT     H1  595   3.788   0.472   2.614
  128WAT     H2  596   3.823   0.603   2.682
  129WAT      O  597   4.039   4.877   2.819
  129WAT     H1  598   3.987   4.835   2.750
  129WAT     H2  599   4.126   4.840   2.809
  130WAT      O  600   3.428   4.577   2.475
  130WAT     H1  601   3.378   4.631   2.536
  130WAT     H2  602   3.366   4.555   2.405
  131WAT      O  603   1.465   0.065   5.155
  131WAT     H1  604   1.374   0.037   5.149
  131WAT     H2  605   1.512   0.005   5.097
  132WAT      O  606   0.123   0.807   1.266
  132WAT     H1  607   0.214   0.783   1.245
  132WAT     H2  608   0.130   0.895   1.304
  133WAT      O  609   1.019   3.044   2.114
  133WAT     H1  610   0.927   3.060   2.091
  133WAT     H2  611   1.063   3.126   2.095
  134WAT      O  612   0.420   2.294   0.345
  134WAT     H1  613   0.360   2.262   0.278
  134WAT     H2  614   0.483   2.347   0.298
  135WAT      O  615   4.294   2.839   4.189
  135WAT     H1  616   4.295   2.827   4.094
  135WAT     H2  617   4.386   2.841   4.214
  136WAT      O  618   4.500   3.327   2.902
  136WAT     H1  619   4.557   3.326   2.979
  136WAT     H2  620   4.558   3.309   2.828
  137WAT      O  621   4.419   3.588   2.860
  137WAT     H1  622   4.456   3.511   2.903
  137WAT     H2  623   4.326   3.567   2.848
  138WAT      O  624   1.081   2.900   1.877
  138WAT     H1  625   1.083   2.924   1.970
  138WAT     H2  626   1.018   2.962   1.839
  139WAT      O  627   2.123   2.794   4.243
  139WAT     H1  628   2.038   2.809   4.203
  139WAT     H2  629   2.125   2.852   4.319
  140WAT      O  630   1.190   3.285   0.850
  140WAT     H1  631   1.222   3.373   0.835
  140WAT     H2  632   1.216   3.265   0.940
  141WAT      O  633   4.448   3.319   1.798
  141WAT     H1  634   4.494   3.388   1.750
  141WAT     H2  635   4.359   3.321   1.762
  142WAT      O  636   1.480   2.213   3.906
  142WAT     H1  637   1.521   2.186   3.824
  142WAT     H2  638   1.393   2.173   3.904
  143WAT      O  639   0.287   4.018   1.946
  143WAT     H1  640   0.194   4.001   1.956
  143WAT     H2  641   0.293   4.110   1.922
  144WAT      O  642   2.980   3.103   0.558
  144WAT     H1  643   2.908   3.163   0.544
  144WAT     H2  644   2.938   3.022   0.587
  145WAT      O  645   0.037   3.427   2.547
  145WAT     H1  646   0.039   3.389   2.459
  145WAT     H2  647  -0.055   3.448   2.563
  146WAT      O  648   1.260   4.378   3.310
  146WAT     H1  649   1.272   4.440   3.237
  146WAT     H2  650   1.338   4.323   3.307
  147WAT      O  651   3.874   0.481   3.791
  147WAT     H1  652   3.835   0.452   3.874
  147WAT     H2  653   3.888   0.401   3.741
  148WAT      O  654   4.385   0.309   1.480
  148WAT     H1  655   4.309   0.359   1.451
  148WAT     H2  656   4.457   0.372   1.479
  149WAT      O  657   0.336   1.693   1.070
  149WAT     H1  658   0.348   1.728   0.982
  149WAT     H2  659   0.414   1.721   1.118
  150WAT      O  660   2.070   1.679   5.288
  150WAT     H1  661   2.100   1.659   5.199
  150WAT     H2  662   2.027   1.764   5.281
  151WAT      O  663   3.293   2.030   3.191
  151WAT     H1  664   3.338   2.105   3.153
  151WAT     H2  665   3.346   2.005   3.266
  152WAT      O  666   0.283   2.768   0.148
  152WAT     H1  667   0.376   2.752   0.163
  152WAT     H2  668   0.245   2.769   0.235
  153WAT      O  669   3.806   3.502   1.267
  153WAT     H1  670   3.890   3.539   1.292
  153WAT     H2  671   3.814   3.486   1.173
  154WAT      O  672   4.050   0.313   0.172
  154WAT     H1  673   4.059   0.233   0.224
  154WAT     H2  674   4.019   0.283   0.087
  155WAT      O  675   1.696   2.714   3.401
  155WAT     H1  676   1.694   2.745   3.491
  155WAT     H2  677   1.641   2.775   3.352
  156WAT      O  678   2.452   3.032   4.188
  156WAT     H1  679   2.511   3.057   4.259
  156WAT     H2  680   2.367   3.021   4.230
  157WAT      O  681   0.850   1.248   3.093
  157WAT     H1  682   0.845   1.152   3.096
  157WAT     H2  683   0.867   1.274   3.183
  158WAT      O  684   4.411   0.480   1.096
  158WAT     H1  685   4.331   0.517   1.059
  158WAT     H2  686   4.464   0.555   1.121
  159WAT      O  687   2.499   3.810   1.318
  159WAT     H1  688   2.510   3.902   1.345
  159WAT     H2  689   2.435   3.775   1.380
  160WAT      O  690   1.219   3.160   0.433
  160WAT     H1  691   1.270   3.123   0.360
  160WAT     H2  692   1.272   3.232   0.467
  161WAT      O  693   3.864   2.598   0.802
  161WAT     H1  694   3.884   2.511   0.773
  161WAT     H2  695   3.896   2.603   0.892
  162WAT      O  696   4.040   2.179   1.750
  162WAT     H1  697   4.006   2.262   1.716
  162WAT     H2  698   3.979   2.155   1.820
  163WAT      O  699   2.912   1.688   4.998
  163WAT     H1  700   2.920   1.649   5.084
  163WAT     H2  701   2.956   1.772   5.005
  164WAT      O  702   2.474   4.491   0.253
  164WAT     H1  703   2.521   4.518   0.174
  164WAT     H2  704   2.531   4.426   0.294
  165WAT      O  705   4.337   2.847   2.312
  165WAT     H1  706   4.308   2.830   2.223
  165WAT     H2  707   4.317   2.939   2.326
  166WAT      O  708   3.304   3.893   0.155
  166WAT     H1  709   3.217   3.871   0.123
  166WAT     H2  710   3.293   3.906   0.249
  167WAT      O  711   2.916   4.387   4.165
  167WAT     H1  712   2.875   4.444   4.101
  167WAT     H2  713   2.933   4.306   4.118
  168WAT      O  714   2.005   3.699   2.124
  168WAT     H1  715   2.009   3.685   2.029
  168WAT     H2  716   1.950   3.627   2.156
  169WAT      O  717   0.671   2.538   4.416
  169WAT     H1  718   0.672   2.505   4.506
  169WAT     H2  719   0.758   2.513   4.382
  170WAT      O  720   1.259   2.260   4.816
  170WAT     H1  721   1.274   2.256   4.911
  170WAT     H2  722   1.343   2.288   4.779
  171WAT      O  723   0.741   3.051   0.757
  171WAT     H1  724   0.673   2.996   0.793
  171WAT     H2  725   0.694   3.118   0.708
  172WAT      O  726   3.230   0.208   0.006
  172WAT     H1  727   3.299   0.157  -0.035
  172WAT     H2  728   3.218   0.168   0.092
  173WAT      O  729   2.101   4.019   5.144
  173WAT     H1  730   2.151   4.036   5.065
  173WAT     H2  731   2.100   4.102   5.191
  174WAT      O  732   0.870   2.014   5.274
  174WAT     H1  733   0.884   1.938   5.329
  174WAT     H2  734   0.837   1.978   5.192
  175WAT      O  735   3.259   0.627   2.747
  175WAT     H1  736   3.350   0.600   2.762
  175WAT     H2  737   3.213   0.603   2.828
  176WAT      O  738   0.558   4.966   0.161
  176WAT     H1  739   0.638   4.928   0.198
  176WAT     H2  740   0.571   5.060   0.170
  177WAT      O  741   0.286   0.919   2.276
  177WAT     H1  742   0.276   0.932   2.182
  177WAT     H2  743   0.227   0.846   2.296
  178WAT      O  744   1.089   3.704   1.475
  178WAT     H1  745   1.071   3.770   1.408
  178WAT     H2  746   1.042   3.626   1.445
  179WAT      O  747   1.733   4.427   0.232
  179WAT     H1  748   1.794   4.447   0.303
  179WAT     H2  749   1.712   4.513   0.194
  180WAT      O  750   2.098   3.163   0.917
  180WAT     H1  751   2.029   3.207   0.968
  180WAT     H2  752   2.172   3.222   0.923
  181WAT      O  753   3.759   1.221   3.004
  181WAT     H1  754   3.844   1.234   2.961
  181WAT     H2  755   3.696   1.213   2.932
  182WAT      O  756   0.731   1.629   3.810
  182WAT     H1  757   0.813   1.630   3.860
  182WAT     H2  758   0.665   1.662   3.871
  183WAT      O  759   3.965   3.420   4.865
  183WAT     H1  760   4.060   3.431   4.879
  183WAT     H2  761   3.950   3.327   4.880
  184WAT      O  762   4.420   3.685   1.946
  184WAT     H1  763   4.347   3.711   1.889
  184WAT     H2  764   4.456   3.606   1.906
  185WAT      O  765   3.513   3.313   0.065
  185WAT     H1  766   3.465   3.321  -0.018
  185WAT     H2  767   3.455   3.263   0.121
  186WAT      O  768   3.623   2.920   0.452
  186WAT     H1  769   3.630   2.909   0.547
  186WAT     H2  770   3.713   2.919   0.420
  187WAT      O  771   2.548   5.091   0.287
  187WAT     H1  772   2.606   5.147   0.237
  187WAT     H2  773   2.510   5.149   0.353
  188WAT      O  774   2.032   0.101   3.789
  188WAT     H1  775   1.979   0.094   3.868
  188WAT     H2  776   1.971   0.129   3.721
  189WAT      O  777   1.467   1.100   3.979
  189WAT     H1  778   1.469   1.096   4.075
  189WAT     H2  779   1.547   1.146   3.956
  190WAT      O  780   4.283   4.683   0.944
  190WAT     H1  781   4.235   4.616   0.992
  190WAT     H2  782   4.218   4.721   0.885
  191WAT      O  783   2.936   3.722   2.390
  191WAT     H1  784   2.912   3.732   2.483
  191WAT     H2  785   3.010   3.781   2.378
  192WAT      O  786   0.904   1.781   0.114
  192WAT     H1  787   0.969   1.715   0.094
  192WAT     H2  788   0.871   1.758   0.200
  193WAT      O  789   3.156   2.137   0.665
  193WAT     H1  790   3.204   2.064   0.703
  193WAT     H2  791   3.224   2.200   0.638
  194WAT      O  792   1.111   3.671   3.184
  194WAT     H1  793   1.068   3.750   3.216
  194WAT     H2  794   1.197   3.671   3.227
  195WAT      O  795   0.899   2.683   4.637
  195WAT     H1  796   0.840   2.610   4.657
  195WAT     H2  797   0.987   2.647   4.647
  196WAT      O  798   0.628   4.879   2.816
  196WAT     H1  799   0.708   4.835   2.844
  196WAT     H2  800   0.647   4.972   2.825
  197WAT      O  801   0.601   3.672   3.141
  197WAT     H1  802   0.600   3.620   3.060
  197WAT     H2  803   0.658   3.622   3.200
  198WAT      O  804   2.165   4.069   4.466
  198WAT     H1  805   2.095   4.129   4.437
  198WAT     H2  806   2.219   4.057   4.388
  199WAT      O  807   1.863   3.757   1.604
  199WAT     H1  808   1.796   3.760   1.535
  199WAT     H2  809   1.938   3.715   1.562
  200WAT      O  810   3.464   3.397   3.764
  200WAT     H1  811   3.504   3.314   3.736
  200WAT     H2  812   3.538   3.456   3.776
  201WAT      O  813   2.210   4.422   4.944
  201WAT     H1  814   2.238   4.449   5.031
  201WAT     H2  815   2.141   4.484   4.920
  202WAT      O  816   4.283   4.993   3.879
  202WAT     H1  817   4.243   4.907   3.862
  202WAT     H2  818   4.263   5.010   3.971
  203WAT      O  819   0.424   1.534   3.907
  203WAT     H1  820   0.469   1.550   3.990
  203WAT     H2  821   0.370   1.458   3.923
  204WAT      O  822   3.657   3.330   3.400
  204WAT     H1  823   3.665   3.235   3.391
  204WAT     H2  824   3.732   3.356   3.454
  205WAT      O  825   1.359   1.636   5.044
  205WAT     H1  826   1.393   1.655   4.957
  205WAT     H2  827   1.406   1.557   5.071
  206WAT      O  828   3.104   3.960   2.414
  206WAT     H1  829   3.090   4.013   2.335
  206WAT     H2  830   3.024   3.971   2.465
  207WAT      O  831   0.027   2.372   0.309
  207WAT     H1  832   0.067   2.321   0.381
  207WAT     H2  833  -0.011   2.449   0.352
  208WAT      O  834   1.038   3.042   0.648
  208WAT     H1  835   1.092   3.078   0.578
  208WAT     H2  836   0.956   3.091   0.642
  209WAT      O  837   1.426   5.127   0.683
  209WAT     H1  838   1.336   5.140   0.654
  209WAT     H2  839   1.471   5.208   0.657
  210WAT      O  840   1.582   4.003   0.230
  210WAT     H1  841   1.565   4.097   0.233
  210WAT     H2  842   1.677   3.995   0.228
  211WAT      O  843   3.456   4.632   4.815
  211WAT     H1  844   3.441   4.720   4.850
  211WAT     H2  845   3.496   4.584   4.887
  212WAT      O  846   1.466   3.896   0.010
  212WAT     H1  847   1.430   3.827   0.066
  212WAT     H2  848   1.516   3.951   0.070
  213WAT      O  849   2.898   4.863   4.562
  213WAT     H1  850   2.912   4.784   4.509
  213WAT     H2  851   2.838   4.916   4.511
  214WAT      O  852   2.563   1.672   1.856
  214WAT     H1  853   2.568   1.633   1.769
  214WAT     H2  854   2.647   1.649   1.897
  215WAT      O  855   3.050   2.583   1.379
  215WAT     H1  856   3.114   2.533   1.328
  215WAT     H2  857   3.009   2.642   1.316
  216WAT      O  858   0.044   4.504   2.276
  216WAT     H1  859   0.096   4.443   2.224
  216WAT     H2  860   0.091   4.511   2.359
  217WAT      O  861   2.227   0.338   0.480
  217WAT     H1  862   2.186   0.335   0.394
  217WAT     H2  863   2.161   0.377   0.537
  218WAT      O  864   4.406   1.188   2.799
  218WAT     H1  865   4.372   1.272   2.828
  218WAT     H2  866   4.422   1.139   2.879
  219WAT      O  867   4.435   0.500   4.317
  219WAT     H1  868   4.388   0.584   4.313
  219WAT     H2  869   4.472   0.489   4.230
  220WAT      O  870   4.180   1.369   2.286
  220WAT     H1  871   4.270   1.377   2.252
  220WAT     H2  872   4.191   1.340   2.376
  221WAT      O  873   0.207   3.998   4.251
  221WAT     H1  874   0.145   4.066   4.278
  221WAT     H2  875   0.184   3.922   4.304
  222WAT      O  876   3.524   4.949   4.360
  222WAT     H1  877   3.439   4.990   4.374
  222WAT     H2  878   3.542   4.902   4.442
  223WAT      O  879   4.426   2.365   3.842
  223WAT     H1  880   4.462   2.380   3.930
  223WAT     H2  881   4.414   2.452   3.805
  224WAT      O  882   2.582   3.860   2.306
  224WAT     H1  883   2.495   3.853   2.267
  224WAT     H2  884   2.615   3.770   2.305
  225WAT      O  885   0.128   0.449   3.767
  225WAT     H1  886   0.058   0.393   3.733
  225WAT     H2  887   0.194   0.450   3.698
  226WAT      O  888   3.517   3.895   2.830
  226WAT     H1  889   3.553   3.923   2.914
  226WAT     H2  890   3.446   3.836   2.853
  227WAT      O  891   2.080   1.764   2.982
  227WAT     H1  892   2.000   1.715   2.993
  227WAT     H2  893   2.062   1.823   2.908
  228WAT      O  894   0.939   3.216   1.876
  228WAT     H1  895   0.940   3.199   1.782
  228WAT     H2  896   0.848   3.235   1.896
  229WAT      O  897   3.028   4.027   0.984
  229WAT     H1  898   3.064   4.092   0.924
  229WAT     H2  899   3.059   3.943   0.950
  230WAT      O  900   2.899   2.817   1.565
  230WAT     H1  901   2.933   2.881   1.627
  230WAT     H2  902   2.931   2.846   1.480
  231WAT      O  903   1.696   2.609   2.382
  231WAT     H1  904   1.680   2.548   2.310
  231WAT     H2  905   1.697   2.554   2.460
  232WAT      O  906   2.011   1.425   2.300
  232WAT     H1  907   2.015   1.360   2.229
  232WAT     H2  908   1.935   1.479   2.279
  233WAT      O  909   3.925   4.075   3.945
  233WAT     H1  910   3.948   4.093   4.036
  233WAT     H2  911   4.006   4.090   3.896
  234WAT      O  912   0.848   1.567   1.386
  234WAT     H1  913   0.860   1.535   1.475
  234WAT     H2  914   0.753   1.573   1.375
  235WAT      O  915   0.128   3.733   3.767
  235WAT     H1  916   0.214   3.776   3.761
  235WAT     H2  917   0.083   3.757   3.687
  236WAT      O  918   2.575   0.687   4.268
  236WAT     H1  919   2.491   0.659   4.306
  236WAT     H2  920   2.635   0.688   4.343
  237WAT      O  921   1.915   1.882   1.206
  237WAT     H1  922   1.923   1.830   1.286
  237WAT     H2  923   1.826   1.866   1.176
  238WAT      O  924   1.578   4.716   4.589
  238WAT     H1  925   1.507   4.772   4.558
  238WAT     H2  926   1.556   4.629   4.555
  239WAT      O  927   0.190   0.359   1.147
  239WAT     H1  928   0.103   0.320   1.146
  239WAT     H2  929   0.210   0.370   1.240
  240WAT      O  930   1.206   2.144   3.928
  240WAT     H1  931   1.137   2.164   3.991
  240WAT     H2  932   1.160   2.131   3.846
  241WAT      O  933   1.267   4.226   3.942
  241WAT     H1  934   1.242   4.169   4.015
  241WAT     H2  935   1.204   4.298   3.945
  242WAT      O  936   0.366   4.974   4.245
  242WAT     H1  937   0.400   5.005   4.161
  242WAT     H2  938   0.317   5.048   4.280
  243WAT      O  939   0.148   3.403   4.394
  243WAT     H1  940   0.164   3.491   4.427
  243WAT     H2  941   0.172   3.345   4.466
  244WAT      O  942   3.521   1.346   2.741
  244WAT     H1  943   3.512   1.393   2.824
  244WAT     H2  944   3.612   1.361   2.715
  245WAT      O  945   2.260   3.342   3.997
  245WAT     H1  946   2.179   3.300   4.025
  245WAT     H2  947   2.330   3.290   4.037
  246WAT      O  948   2.480   1.203   3.598
  246WAT     H1  949   2.551   1.258   3.566
  246WAT     H2  950   2.413   1.265   3.627
  247WAT      O  951   3.368   1.816   1.758
  247WAT     H1  952   3.422   1.840   1.684
  247WAT     H2  953   3.318   1.895   1.779
  248WAT      O  954   0.401   1.382   1.641
  248WAT     H1  955   0.396   1.407   1.549
  248WAT     H2  956   0.423   1.462   1.688
  249WAT      O  957   2.594   4.565   4.152
  249WAT     H1  958   2.513   4.572   4.100
  249WAT     H2  959   2.564   4.571   4.243
  250WAT      O  960   2.831   4.275   3.382
  250WAT     H1  961   2.862   4.245   3.467
  250WAT     H2  962   2.864   4.364   3.374
  251WAT      O  963   2.925   3.276   2.882
  251WAT     H1  964   2.956   3.350   2.936
  251WAT     H2  965   2.986   3.205   2.902
  252WAT      O  966   1.126   3.015   4.443
  252WAT     H1  967   1.035   3.018   4.471
  252WAT     H2  968   1.122   2.985   4.352
  253WAT      O  969   2.949   3.809   4.752
  253WAT     H1  970   3.027   3.864   4.741
  253WAT     H2  971   2.914   3.800   4.664
  254WAT      O  972   0.053   0.144   2.195
  254WAT     H1  973   0.119   0.132   2.264
  254WAT     H2  974   0.077   0.082   2.127
  255WAT      O  975   0.447   1.718   3.706
  255WAT     H1  976   0.391   1.777   3.757
  255WAT     H2  977   0.471   1.649   3.768
  256WAT      O  978   1.982   2.374   1.179
  256WAT     H1  979   2.063   2.419   1.205
  256WAT     H2  980   1.912   2.433   1.206
  257WAT      O  981   2.467   4.220   2.056
  257WAT     H1  982   2.496   4.157   1.989
  257WAT     H2  983   2.453   4.301   2.008
  258WAT      O  984   4.122   2.845   3.688
  258WAT     H1  985   4.054   2.907   3.666
  258WAT     H2  986   4.075   2.769   3.724
  259WAT      O  987   0.556   2.268   4.164
  259WAT     H1  988   0.569   2.256   4.258
  259WAT     H2  989   0.630   2.222   4.124
  260WAT      O  990   3.403   2.411   0.253
  260WAT     H1  991   3.452   2.492   0.266
  260WAT     H2  992   3.323   2.423   0.303
  261WAT      O  993   3.064   4.040   1.729
  261WAT     H1  994   3.098   3.974   1.668
  261WAT     H2  995   3.094   4.011   1.815
  262WAT      O  996   1.558   0.698   3.000
  262WAT     H1  997   1.511   0.727   3.079
  262WAT     H2  998   1.558   0.775   2.943
  263WAT      O  999   2.789   1.111   0.743
  263WAT     H1 1000   2.813   1.111   0.836
  263WAT     H2 1001   2.720   1.177   0.737
  264WAT      O 1002   1.108   3.679   3.562
  264WAT     H1 1003   1.159   3.754   3.531
  264WAT     H2 1004   1.170   3.627   3.613
  265WAT      O 1005   3.706   1.203   1.467
  265WAT     H1 1006   3.727   1.202   1.374
  265WAT     H2 1007   3.755   1.278   1.502
  266WAT      O 1008   1.670   0.133   0.843
  266WAT     H1 1009   1.631   0.072   0.905
  266WAT     H2 1010   1.622   0.215   0.856
  267WAT      O 1011   0.773   0.205   0.561
  267WAT     H1 1012   0.712   0.134   0.543
  267WAT     H2 1013   0.844   0.192   0.498
  268WAT      O 1014   0.758   2.203   0.779
  268WAT     H1 1015   0.830   2.143   0.756
  268WAT     H2 1016   0.699   2.150   0.832
  269WAT      O 1017   1.627   3.176   4.951
  269WAT     H1 1018   1.557   3.123   4.915
  269WAT     H2 1019   1.582   3.243   5.002
  270WAT      O 1020   4.221   3.137   0.245
  270WAT     H1 1021   4.294   3.199   0.232
  270WAT     H2 1022   4.151   3.172   0.190
  271WAT      O 1023   0.795   4.586   2.560
  271WAT     H1 1024   0.792   4.505   2.509
  271WAT     H2 1025   0.758   4.652   2.501
  272WAT      O 1026   1.241   3.806   0.962
  272WAT     H1 1027   1.181   3.837   1.030
  272WAT     H2 1028   1.208   3.845   0.881
  273WAT      O 1029   3.736   1.356   4.260
  273WAT     H1 1030   3.667   1.290   4.271
  273WAT     H2 1031   3.698   1.420   4.200
  274WAT      O 1032   0.595   4.327   2.451
  274WAT     H1 1033   0.595   4.415   2.413
  274WAT     H2 1034   0.568   4.341   2.542
  275WAT      O 1035   1.067   0.398   0.610
  275WAT     H1 1036   1.000   0.432   0.551
  275WAT     H2 1037   1.132   0.469   0.615
  276WAT      O 1038   1.068   2.701   1.080
  276WAT     H1 1039   1.035   2.768   1.021
  276WAT     H2 1040   1.001   2.631   1.077
  277WAT      O 1041   1.360   4.896   0.064
  277WAT     H1 1042   1.310   4.861  -0.010
  277WAT     H2 1043   1.297   4.898   0.137
  278WAT      O 1044   2.497   1.748   4.098
  278WAT     H1 1045   2.438   1.681   4.132
  278WAT     H2 1046   2.473   1.827   4.145
  279WAT      O 1047   2.876   2.462   5.179
  279WAT     H1 1048   2.889   2.373   5.213
  279WAT     H2 1049   2.853   2.515   5.255
  280WAT      O 1050   4.201   0.330   3.950
  280WAT     H1 1051   4.225   0.386   3.876
  280WAT     H2 1052   4.138   0.381   4.000
  281WAT      O 1053   0.725   4.571   4.193
  281WAT     H1 1054   0.633   4.545   4.191
  281WAT     H2 1055   0.770   4.497   4.233
  282WAT      O 1056   1.937   0.833   2.738
  282WAT     H1 1057   2.010   0.876   2.782
  282WAT     H2 1058   1.861   0.889   2.758
  283WAT      O 1059   0.522   3.775   2.710
  283WAT     H1 1060   0.558   3.723   2.638
  283WAT     H2 1061   0.562   3.861   2.699
  284WAT      O 1062   1.668   4.617   4.294
  284WAT     H1 1063   1.639   4.672   4.221
  284WAT     H2 1064   1.589   4.572   4.324
  285WAT      O 1065   1.556   2.229   4.510
  285WAT     H1 1066   1.645   2.209   4.483
  285WAT     H2 1067   1.567   2.289   4.584
  286WAT      O 1068   3.979   4.051   1.765
  286WAT     H1 1069   3.924   3.990   1.717
  286WAT     H2 1070   4.036   4.090   1.698
  287WAT      O 1071   0.052   3.642   4.765
  287WAT     H1 1072   0.003   3.709   4.813
  287WAT     H2 1073   0.006   3.635   4.681
  288WAT      O 1074   0.365   4.876   1.733
  288WAT     H1 1075   0.328   4.876   1.644
  288WAT     H2 1076   0.291   4.853   1.789
  289WAT      O 1077   2.368   4.980   1.297
  289WAT     H1 1078   2.330   5.068   1.290
  289WAT     H2 1079   2.295   4.922   1.277
  290WAT      O 1080   3.437   1.324   1.229
  290WAT     H1 1081   3.409   1.232   1.227
  290WAT     H2 1082   3.448   1.344   1.322
  291WAT      O 1083   2.257   4.397   3.578
  291WAT     H1 1084   2.337   4.414   3.527
  291WAT     H2 1085   2.258   4.462   3.647
  292WAT      O 1086   0.649   0.248   2.861
  292WAT     H1 1087   0.567   0.291   2.836
  292WAT     H2 1088   0.703   0.318   2.896
  293WAT      O 1089   1.979   3.366   0.362
  293WAT     H1 1090   2.012   3.454   0.350
  293WAT     H2 1091   1.891   3.367   0.324
  294WAT      O 1092   0.704   2.637   2.452
  294WAT     H1 1093   0.653   2.579   2.396
  294WAT     H2 1094   0.706   2.594   2.537
  295WAT      O 1095   2.786   0.953   2.438
  295WAT     H1 1096   2.737   0.961   2.520
  295WAT     H2 1097   2.865   0.904   2.463
  296WAT      O 1098   0.738   4.462   4.540
  296WAT     H1 1099   0.711   4.553   4.529
  296WAT     H2 1100   0.779   4.460   4.626
  297WAT      O 1101   4.429   0.891   4.562
  297WAT     H1 1102   4.494   0.823   4.545
  297WAT     H2 1103   4.452   0.925   4.649
  298WAT      O 1104   0.926   3.664   4.730
  298WAT     H1 1105   0.857   3.728   4.715
  298WAT     H2 1106   0.896   3.613   4.805
  299WAT      O 1107   1.016   3.829   1.200
  299WAT     H1 1108   1.050   3.913   1.169
  299WAT     H2 1109   0.937   3.851   1.250
  300WAT      O 1110   0.381   0.451   0.718
  300WAT     H1 1111   0.296   0.434   0.759
  300WAT     H2 1112   0.407   0.367   0.682
  301WAT      O 1113   0.578   3.269   1.450
  301WAT     H1 1114   0.510   3.221   1.496
  301WAT     H2 1115   0.569   3.360   1.481
  302WAT      O 1116   3.172   1.508   3.946
  302WAT     H1 1117   3.148   1.576   3.883
  302WAT     H2 1118   3.117   1.433   3.923
  303WAT      O 1119   2.517   4.021   1.846
  303WAT     H1 1120   2.516   3.937   1.892
  303WAT     H2 1121   2.450   4.012   1.778
  304WAT      O 1122   0.338   3.983   1.581
  304WAT     H1 1123   0.366   4.031   1.503
  304WAT     H2 1124   0.313   3.896   1.549
  305WAT      O 1125   3.231   1.261   1.599
  305WAT     H1 1126   3.142   1.271   1.567
  305WAT     H2 1127   3.221   1.244   1.693
  306WAT      O 1128   4.429   4.767   2.082
  306WAT     H1 1129   4.362   4.713   2.038
  306WAT     H2 1130   4.488   4.794   2.011
  307WAT      O 1131   3.770   1.987   3.723
  307WAT     H1 1132   3.842   2.030   3.768
  307WAT     H2 1133   3.694   2.002   3.779
  308WAT      O 1134   2.871   0.084   4.911
  308WAT     H1 1135   2.921   0.109   4.989
  308WAT     H2 1136   2.884  -0.010   4.904
  309WAT      O 1137   2.155   1.538   3.131
  309WAT     H1 1138   2.168   1.606   3.064
  309WAT     H2 1139   2.167   1.455   3.085
  310WAT      O 1140   2.062   4.672   2.957
  310WAT     H1 1141   2.011   4.681   2.876
  310WAT     H2 1142   2.150   4.649   2.928
  311WAT      O 1143   4.034   1.409   0.532
  311WAT     H1 1144   4.095   1.336   0.529
  311WAT     H2 1145   4.086   1.485   0.505
  312WAT      O 1146   1.893   3.647   3.362
  312WAT     H1 1147   1.932   3.643   3.275
  312WAT     H2 1148   1.895   3.740   3.384
  313WAT      O 1149   0.448   2.767   0.536
  313WAT     H1 1150   0.456   2.804   0.624
  313WAT     H2 1151   0.527   2.714   0.525
  314WAT      O 1152   0.188   0.026   4.372
  314WAT     H1 1153   0.092   0.033   4.371
  314WAT     H2 1154   0.216   0.062   4.288
  315WAT      O 1155   3.511   2.956   4.561
  315WAT     H1 1156   3.575   3.025   4.575
  315WAT     H2 1157   3.464   2.949   4.643
  316WAT      O 1158   0.919   0.593   0.844
  316WAT     H1 1159   0.865   0.545   0.781
  316WAT     H2 1160   0.971   0.653   0.791
  317WAT      O 1161   2.619   4.574   0.686
  317WAT     H1 1162   2.652   4.535   0.606
  317WAT     H2 1163   2.528   4.544   0.693
  318WAT      O 1164   1.407   3.136   0.044
  318WAT     H1 1165   1.442   3.098   0.126
  318WAT     H2 1166   1.424   3.069  -0.021
  319WAT      O 1167   1.871   3.902   0.823
  319WAT     H1 1168   1.947   3.845   0.808
  319WAT     H2 1169   1.903   3.967   0.885
  320WAT      O 1170   4.140   3.538   3.104
  320WAT     H1 1171   4.189   3.619   3.119
  320WAT     H2 1172   4.048   3.564   3.113
  321WAT      O 1173   1.763   1.182   0.896
  321WAT     H1 1174   1.817   1.104   0.909
  321WAT     H2 1175   1.676   1.149   0.873
  322WAT      O 1176   0.860   4.318   1.343
  322WAT     H1 1177   0.852   4.276   1.258
  322WAT     H2 1178   0.920   4.391   1.329
  323WAT      O 1179   3.724   5.124   4.808
  323WAT     H1 1180   3.662   5.197   4.817
  323WAT     H2 1181   3.805   5.156   4.848
  324WAT      O 1182   4.268   1.133   2.398
  324WAT     H1 1183   4.262   1.045   2.434
  324WAT     H2 1184   4.278   1.120   2.304
  325WAT      O 1185   0.971   3.022   3.766
  325WAT     H1 1186   0.983   2.946   3.823
  325WAT     H2 1187   0.895   3.068   3.803
  326WAT      O 1188   1.127   4.445   4.021
  326WAT     H1 1189   1.183   4.428   4.096
  326WAT     H2 1190   1.147   4.535   3.996
  327WAT      O 1191   2.937   2.160   2.896
  327WAT     H1 1192   2.924   2.158   2.991
  327WAT     H2 1193   2.978   2.076   2.876
  328WAT      O 1194   2.161   1.265   4.259
  328WAT     H1 1195   2.146   1.198   4.326
  328WAT     H2 1196   2.171   1.346   4.308
  329WAT      O 1197   0.419   0.984   1.000
  329WAT     H1 1198   0.462   0.902   0.977
  329WAT     H2 1199   0.404   1.027   0.916
  330WAT      O 1200   2.662   1.530   3.715
  330WAT     H1 1201   2.680   1.459   3.778
  330WAT     H2 1202   2.665   1.485   3.630
  331WAT      O 1203   1.400   4.599   0.377
  331WAT     H1 1204   1.347   4.555   0.311
  331WAT     H2 1205   1.442   4.527   0.425
  332WAT      O 1206   1.178   0.000   4.138
  332WAT     H1 1207   1.258   0.002   4.191
  332WAT     H2 1208   1.186   0.076   4.080
  333WAT      O 1209   0.984   3.122   1.408
  333WAT     H1 1210   0.983   3.031   1.436
  333WAT     H2 1211   0.919   3.166   1.462
  334WAT      O 1212   1.841   0.648   0.824
  334WAT     H1 1213   1.832   0.627   0.917
  334WAT     H2 1214   1.751   0.644   0.791
  335WAT      O 1215   1.350   2.781   2.644
  335WAT     H1 1216   1.347   2.818   2.733
  335WAT     H2 1217   1.262   2.748   2.629
  336WAT      O 1218   3.747   2.433   2.381
  336WAT     H1 1219   3.713   2.427   2.470
  336WAT     H2 1220   3.828   2.485   2.390
  337WAT      O 1221   3.345   2.618   3.925
  337WAT     H1 1222   3.327   2.568   4.004
  337WAT     H2 1223   3.330   2.709   3.952
  338WAT      O 1224   0.378   1.167   0.793
  338WAT     H1 1225   0.372   1.261   0.818
  338WAT     H2 1226   0.451   1.163   0.732
  339WAT      O 1227   0.752   3.561   1.208
  339WAT     H1 1228   0.829   3.559   1.150
  339WAT     H2 1229   0.696   3.491   1.175
  340WAT      O 1230   2.097   1.422   1.858
  340WAT     H1 1231   2.072   1.514   1.853
  340WAT     H2 1232   2.018   1.377   1.890
  341WAT      O 1233   2.538   2.723   0.565
  341WAT     H1 1234   2.455   2.683   0.591
  341WAT     H2 1235   2.604   2.676   0.614
  342WAT      O 1236   1.247   3.533   0.931
  342WAT     H1 1237   1.257   3.625   0.957
  342WAT     H2 1238   1.310   3.486   0.986
  343WAT      O 1239   1.595   3.656   2.984
  343WAT     H1 1240   1.636   3.630   2.902
  343WAT     H2 1241   1.596   3.751   2.983
  344WAT      O 1242   2.983   4.383   3.158
  344WAT     H1 1243   2.949   4.398   3.069
  344WAT     H2 1244   2.935   4.306   3.189
  345WAT      O 1245   3.155   4.217   4.484
  345WAT     H1 1246   3.175   4.162   4.409
  345WAT     H2 1247   3.059   4.214   4.492
  346WAT      O 1248   2.109   3.707   3.907
  346WAT     H1 1249   2.057   3.682   3.984
  346WAT     H2 1250   2.075   3.651   3.837
  347WAT      O 1251   0.177   1.869   0.117
  347WAT     H1 1252   0.246   1.810   0.089
  347WAT     H2 1253   0.132   1.895   0.036
  348WAT      O 1254   2.233   0.533   2.727
  348WAT     H1 1255   2.211   0.586   2.650
  348WAT     H2 1256   2.254   0.447   2.691
  349WAT      O 1257   3.037   4.256   1.572
  349WAT     H1 1258   3.107   4.299   1.622
  349WAT     H2 1259   3.012   4.181   1.627
  350WAT      O 1260   2.084   0.831   2.062
  350WAT     H1 1261   2.060   0.921   2.040
  350WAT     H2 1262   2.165   0.816   2.013
  351WAT      O 1263   1.993   0.598   2.864
  351WAT     H1 1264   2.067   0.555   2.821
  351WAT     H2 1265   1.980   0.678   2.814
  352WAT      O 1266   1.585   4.411   3.198
  352WAT     H1 1267   1.598   4.481   3.261
  352WAT     H2 1268   1.645   4.341   3.227
  353WAT      O 1269   4.144   4.222   2.380
  353WAT     H1 1270   4.217   4.201   2.322
  353WAT     H2 1271   4.108   4.303   2.345
  354WAT      O 1272   0.323   3.819   2.476
  354WAT     H1 1273   0.364   3.816   2.563
  354WAT     H2 1274   0.273   3.900   2.476
  355WAT      O 1275   2.092   3.283   1.786
  355WAT     H1 1276   2.053   3.233   1.858
  355WAT     H2 1277   2.152   3.344   1.829
  356WAT      O 1278   0.073   3.544   1.751
  356WAT     H1 1279   0.046   3.609   1.686
  356WAT     H2 1280   0.128   3.592   1.813
  357WAT      O 1281   0.878   1.765   0.407
  357WAT     H1 1282   0.954   1.718   0.439
  357WAT     H2 1283   0.899   1.857   0.420
  358WAT      O 1284   2.278   3.471   4.783
  358WAT     H1 1285   2.227   3.551   4.778
  358WAT     H2 1286   2.331   3.470   4.704
  359WAT      O 1287   0.281   2.521   4.771
  359WAT     H1 1288   0.324   2.531   4.686
  359WAT     H2 1289   0.316   2.592   4.825
  360WAT      O 1290   3.662   3.071   1.398
  360WAT     H1 1291   3.727   3.091   1.331
  360WAT     H2 1292   3.580   3.109   1.365
  361WAT      O 1293   4.084   2.960   2.965
  361WAT     H1 1294   4.118   2.930   2.881
  361WAT     H2 1295   4.162   2.973   3.019
  362WAT      O 1296   0.781   5.070   2.031
  362WAT     H1 1297   0.785   4.986   1.985
  362WAT     H2 1298   0.700   5.065   2.082
  363WAT      O 1299   1.443   3.590   4.439
  363WAT     H1 1300   1.367   3.548   4.400
  363WAT     H2 1301   1.517   3.537   4.410
  364WAT      O 1302   4.303   0.802   0.668
  364WAT     H1 1303   4.392   0.811   0.634
  364WAT     H2 1304   4.265   0.731   0.615
  365WAT      O 1305   4.522   4.131   4.400
  365WAT     H1 1306   4.448   4.072   4.415
  365WAT     H2 1307   4.503   4.208   4.454
  366WAT      O 1308   0.737   2.371   3.409
  366WAT     H1 1309   0.642   2.355   3.406
  366WAT     H2 1310   0.759   2.360   3.501
  367WAT      O 1311   0.071   3.706   2.709
  367WAT     H1 1312   0.020   3.658   2.774
  367WAT     H2 1313   0.055   3.661   2.627
  368WAT      O 1314   1.675   0.702   3.427
  368WAT     H1 1315   1.739   0.646   3.383
  368WAT     H2 1316   1.703   0.703   3.519
  369WAT      O 1317   2.542   0.612   4.766
  369WAT     H1 1318   2.460   0.594   4.813
  369WAT     H2 1319   2.603   0.545   4.797
  370WAT      O 1320   1.558   4.670   2.537
  370WAT     H1 1321   1.632   4.667   2.598
  370WAT     H2 1322   1.577   4.746   2.481
  371WAT      O 1323   3.204   3.406   3.870
  371WAT     H1 1324   3.287   3.413   3.822
  371WAT     H2 1325   3.156   3.485   3.846
  372WAT      O 1326   3.620   1.215   3.517
  372WAT     H1 1327   3.635   1.310   3.519
  372WAT     H2 1328   3.533   1.205   3.478
  373WAT      O 1329   1.125   4.118   3.609
  373WAT     H1 1330   1.112   4.093   3.700
  373WAT     H2 1331   1.197   4.181   3.611
  374WAT      O 1332   2.682   0.045   2.346
  374WAT     H1 1333   2.611   0.013   2.402
  374WAT     H2 1334   2.701   0.133   2.379
  375WAT      O 1335   0.331   0.235   1.777
  375WAT     H1 1336   0.341   0.143   1.803
  375WAT     H2 1337   0.237   0.251   1.781
  376WAT      O 1338   4.332   2.145   2.221
  376WAT     H1 1339   4.389   2.071   2.235
  376WAT     H2 1340   4.262   2.136   2.285
  377WAT      O 1341   1.612   2.177   4.929
  377WAT     H1 1342   1.622   2.195   5.023
  377WAT     H2 1343   1.605   2.083   4.923
  378WAT      O 1344   1.560   1.902   2.043
  378WAT     H1 1345   1.555   1.971   1.977
  378WAT     H2 1346   1.653   1.876   2.044
  379WAT      O 1347   2.709   3.553   4.222
  379WAT     H1 1348   2.744   3.630   4.178
  379WAT     H2 1349   2.619   3.545   4.188
  380WAT      O 1350   2.580   0.789   1.226
  380WAT     H1 1351   2.582   0.869   1.278
  380WAT     H2 1352   2.636   0.807   1.151
  381WAT      O 1353   3.424   4.067   3.755
  381WAT     H1 1354   3.495   4.106   3.704
  381WAT     H2 1355   3.465   4.044   3.839
  382WAT      O 1356   0.425   3.822   1.773
  382WAT     H1 1357   0.373   3.830   1.853
  382WAT     H2 1358   0.381   3.880   1.711
  383WAT      O 1359   4.040   2.093   0.554
  383WAT     H1 1360   4.083   2.007   0.545
  383WAT     H2 1361   4.094   2.151   0.500
  384WAT      O 1362   3.342   1.804   3.968
  384WAT     H1 1363   3.294   1.777   3.890
  384WAT     H2 1364   3.278   1.859   4.017
  385WAT      O 1365   1.787   2.306   2.192
  385WAT     H1 1366   1.818   2.302   2.283
  385WAT     H2 1367   1.862   2.276   2.141
  386WAT      O 1368   4.430   2.033   1.489
  386WAT     H1 1369   4.488   1.984   1.547
  386WAT     H2 1370   4.486   2.056   1.414
  387WAT      O 1371   4.458   1.600   2.320
  387WAT     H1 1372   4.452   1.637   2.407
  387WAT     H2 1373   4.481   1.508   2.334
  388WAT      O 1374   0.111   1.649   1.760
  388WAT     H1 1375   0.109   1.744   1.743
  388WAT     H2 1376   0.106   1.609   1.674
  389WAT      O 1377   2.772   1.185   0.318
  389WAT     H1 1378   2.684   1.175   0.280
  389WAT     H2 1379   2.816   1.245   0.258
  390WAT      O 1380   2.511   2.992   3.008
  390WAT     H1 1381   2.554   3.072   2.979
  390WAT     H2 1382   2.556   2.969   3.089
  391WAT      O 1383   3.377   3.330   2.302
  391WAT     H1 1384   3.350   3.350   2.391
  391WAT     H2 1385   3.445   3.395   2.283
  392WAT      O 1386   2.161   4.185   3.462
  392WAT     H1 1387   2.195   4.265   3.503
  392WAT     H2 1388   2.215   4.174   3.384
  393WAT      O 1389   0.328   1.054   4.739
  393WAT     H1 1390   0.373   1.093   4.814
  393WAT     H2 1391   0.236   1.050   4.767
  394WAT      O 1392   3.541   0.520   3.696
  394WAT     H1 1393   3.567   0.508   3.605
  394WAT     H2 1394   3.464   0.576   3.693
  395WAT      O 1395   1.733   2.949   1.042
  395WAT     H1 1396   1.649   2.906   1.055
  395WAT     H2 1397   1.769   2.909   0.963
  396WAT      O 1398   0.047   2.847   4.209
  396WAT     H1 1399   0.069   2.873   4.298
  396WAT     H2 1400   0.130   2.842   4.163
  397WAT      O 1401   1.162   0.902   3.759
  397WAT     H1 1402   1.185   0.821   3.805
  397WAT     H2 1403   1.087   0.936   3.807
  398WAT      O 1404   1.123   3.845   4.265
  398WAT     H1 1405   1.119   3.837   4.360
  398WAT     H2 1406   1.036   3.818   4.235
  399WAT      O 1407   0.256   3.386   1.297
  399WAT     H1 1408   0.230   3.318   1.235
  399WAT     H2 1409   0.242   3.468   1.250
  400WAT      O 1410   4.442   2.912   3.687
  400WAT     H1 1411   4.479   2.872   3.609
  400WAT     H2 1412   4.371   2.966   3.655
  401WAT      O 1413   3.438   2.518   4.353
  401WAT     H1 1414   3.377   2.588   4.379
  401WAT     H2 1415   3.524   2.558   4.356
  402WAT      O 1416   4.169   2.638   5.094
  402WAT     H1 1417   4.237   2.638   5.162
  402WAT     H2 1418   4.201   2.578   5.028
  403WAT      O 1419   3.767   4.998   1.805
  403WAT     H1 1420   3.715   5.077   1.818
  403WAT     H2 1421   3.772   4.958   1.892
  404WAT      O 1422   3.891   3.248   1.370
  404WAT     H1 1423   3.925   3.260   1.459
  404WAT     H2 1424   3.834   3.324   1.356
  405WAT      O 1425   3.791   1.836   4.794
  405WAT     H1 1426   3.797   1.854   4.887
  405WAT     H2 1427   3.700   1.853   4.772
  406WAT      O 1428   1.155   1.948   0.113
  406WAT     H1 1429   1.183   1.925   0.024
  406WAT     H2 1430   1.060   1.939   0.112
  407WAT      O 1431   3.591   2.194   0.226
  407WAT     H1 1432   3.518   2.255   0.220
  407WAT     H2 1433   3.616   2.195   0.318
  408WAT      O 1434   0.303   4.154   4.692
  408WAT     H1 1435   0.380   4.191   4.648
  408WAT     H2 1436   0.230   4.211   4.665
  409WAT      O 1437   2.158   2.111   4.615
  409WAT     H1 1438   2.098   2.183   4.596
  409WAT     H2 1439   2.231   2.153   4.660
  410WAT      O 1440   0.732   5.139   1.022
  410WAT     H1 1441   0.768   5.206   0.963
  410WAT     H2 1442   0.728   5.060   0.968
  411WAT      O 1443   4.267   3.095   4.511
  411WAT     H1 1444   4.310   3.010   4.514
  411WAT     H2 1445   4.306   3.140   4.436
  412WAT      O 1446   4.458   2.893   1.730
  412WAT     H1 1447   4.366   2.898   1.757
  412WAT     H2 1448   4.466   2.964   1.665
  413WAT      O 1449   3.084   2.341   2.757
  413WAT     H1 1450   3.029   2.289   2.816
  413WAT     H2 1451   3.021   2.384   2.697
  414WAT      O 1452   2.748   0.691   3.101
  414WAT     H1 1453   2.743   0.699   3.197
  414WAT     H2 1454   2.726   0.600   3.084
  415WAT      O 1455   1.018   2.245   5.284
  415WAT     H1 1456   1.000   2.282   5.370
  415WAT     H2 1457   0.980   2.157   5.287
  416WAT      O 1458   3.656   4.953   1.146
  416WAT     H1 1459   3.644   4.931   1.238
  416WAT     H2 1460   3.671   5.048   1.145
  417WAT      O 1461   2.860   4.583   3.419
  417WAT     H1 1462   2.838   4.538   3.501
  417WAT     H2 1463   2.811   4.665   3.422
  418WAT      O 1464   2.910   1.977   3.560
  418WAT     H1 1465   2.823   2.013   3.543
  418WAT     H2 1466   2.925   1.994   3.653
  419WAT      O 1467   2.655   0.068   0.057
  419WAT     H1 1468   2.671   0.030  -0.029
  419WAT     H2 1469   2.679   0.160   0.048
  420WAT      O 1470   0.633   5.092   0.487
  420WAT     H1 1471   0.620   5.147   0.410
  420WAT     H2 1472   0.661   5.008   0.453
  421WAT      O 1473   2.499   1.225   1.018
  421WAT     H1 1474   2.555   1.259   0.948
  421WAT     H2 1475   2.412   1.258   0.996
  422WAT      O 1476   2.326   2.778   2.350
  422WAT     H1 1477   2.327   2.768   2.255
  422WAT     H2 1478   2.237   2.804   2.371
  423WAT      O 1479   0.019   0.128   2.551
  423WAT     H1 1480   0.080   0.065   2.512
  423WAT     H2 1481  -0.001   0.190   2.481
  424WAT      O 1482   1.559   3.690   3.938
  424WAT     H1 1483   1.617   3.629   3.892
  424WAT     H2 1484   1.497   3.633   3.984
  425WAT      O 1485   1.283   1.951   4.134
  425WAT     H1 1486   1.364   1.912   4.101
  425WAT     H2 1487   1.274   2.031   4.084
  426WAT      O 1488   3.877   4.986   0.184
  426WAT     H1 1489   3.900   4.978   0.092
  426WAT     H2 1490   3.845   4.900   0.209
  427WAT      O 1491   1.729   4.170   2.854
  427WAT     H1 1492   1.778   4.229   2.912
  427WAT     H2 1493   1.794   4.139   2.791
  428WAT      O 1494   3.474   4.402   0.714
  428WAT     H1 1495   3.472   4.454   0.794
  428WAT     H2 1496   3.541   4.335   0.730
  429WAT      O 1497   2.058   1.686   4.990
  429WAT     H1 1498   1.968   1.708   4.965
  429WAT     H2 1499   2.112   1.728   4.922
  430WAT      O 1500   3.094   2.186   1.112
  430WAT     H1 1501   3.163   2.177   1.179
  430WAT     H2 1502   3.130   2.248   1.049
  431WAT      O 1503   0.703   2.617   1.872
  431WAT     H1 1504   0.646   2.577   1.807
  431WAT     H2 1505   0.700   2.709   1.852
  432WAT      O 1506   0.319   1.567   5.266
  432WAT     H1 1507   0.293   1.623   5.194
  432WAT     H2 1508   0.240   1.521   5.290
  433WAT      O 1509   3.574   1.833   1.561
  433WAT     H1 1510   3.601   1.748   1.527
  433WAT     H2 1511   3.636   1.850   1.632
  434WAT      O 1512   1.982   0.923   4.327
  434WAT     H1 1513   1.965   0.939   4.234
  434WAT     H2 1514   2.075   0.902   4.331
  435WAT      O 1515   3.047   1.906   3.182
  435WAT     H1 1516   3.137   1.941   3.188
  435WAT     H2 1517   2.992   1.985   3.183
  436WAT      O 1518   3.546   3.534   2.645
  436WAT     H1 1519   3.548   3.619   2.602
  436WAT     H2 1520   3.611   3.482   2.597
  437WAT      O 1521   4.372   0.154   0.280
  437WAT     H1 1522   4.453   0.134   0.233
  437WAT     H2 1523   4.343   0.071   0.316
  438WAT      O 1524   4.000   2.605   4.275
  438WAT     H1 1525   4.081   2.571   4.313
  438WAT     H2 1526   4.019   2.611   4.181
  439WAT      O 1527   2.640   0.350   0.279
  439WAT     H1 1528   2.662   0.348   0.186
  439WAT     H2 1529   2.714   0.309   0.323
  440WAT      O 1530   2.004   3.049   2.641
  440WAT     H1 1531   1.921   3.088   2.613
  440WAT     H2 1532   2.000   3.051   2.737
  441WAT      O 1533   3.209   1.269   0.155
  441WAT     H1 1534   3.193   1.284   0.062
  441WAT     H2 1535   3.163   1.340   0.199
  442WAT      O 1536   2.632   1.149   4.202
  442WAT     H1 1537   2.724   1.175   4.208
  442WAT     H2 1538   2.619   1.093   4.278
  443WAT      O 1539   1.707   0.583   4.201
  443WAT     H1 1540   1.727   0.659   4.147
  443WAT     H2 1541   1.792   0.541   4.215
  444WAT      O 1542   1.090   4.297   1.146
  444WAT     H1 1543   1.017   4.330   1.093
  444WAT     H2 1544   1.121   4.373   1.194
  445WAT      O 1545   3.621   4.282   1.168
  445WAT     H1 1546   3.535   4.317   1.144
  445WAT     H2 1547   3.651   4.339   1.239
  446WAT      O 1548   0.300   3.098   2.422
  446WAT     H1 1549   0.325   3.176   2.373
  446WAT     H2 1550   0.372   3.085   2.485
  447WAT      O 1551   1.472   0.667   4.030
  447WAT     H1 1552   1.472   0.747   3.977
  447WAT     H2 1553   1.537   0.683   4.098
  448WAT      O 1554   1.518   0.189   1.301
  448WAT     H1 1555   1.581   0.261   1.307
  448WAT     H2 1556   1.433   0.231   1.313
  449WAT      O 1557   4.145   0.240   2.395
  449WAT     H1 1558   4.163   0.298   2.321
  449WAT     H2 1559   4.194   0.160   2.376
  450WAT      O 1560   0.775   1.772   0.937
  450WAT     H1 1561   0.756   1.682   0.960
  450WAT     H2 1562   0.824   1.767   0.855
  451WAT      O 1563   3.271   1.635   1.911
  451WAT     H1 1564   3.327   1.620   1.988
  451WAT     H2 1565   3.324   1.686   1.851
  452WAT      O 1566   1.480   4.497   3.657
  452WAT     H1 1567   1.569   4.463   3.665
  452WAT     H2 1568   1.477   4.572   3.717
  453WAT      O 1569   0.327   1.794   4.755
  453WAT     H1 1570   0.378   1.752   4.824
  453WAT     H2 1571   0.266   1.852   4.802
  454WAT      O 1572   3.837   1.073   3.399
  454WAT     H1 1573   3.805   1.073   3.309
  454WAT     H2 1574   3.772   1.124   3.447
  455WAT      O 1575   1.700   3.925   2.342
  455WAT     H1 1576   1.610   3.898   2.322
  455WAT     H2 1577   1.690   3.998   2.403
  456WAT      O 1578   3.313   0.126   2.032
  456WAT     H1 1579   3.371   0.188   1.987
  456WAT     H2 1580   3.277   0.176   2.104
  457WAT      O 1581   0.505   1.413   0.058
  457WAT     H1 1582   0.438   1.465   0.013
  457WAT     H2 1583   0.582   1.419   0.003
  458WAT      O 1584   4.422   1.762   1.407
  458WAT     H1 1585   4.395   1.811   1.484
  458WAT     H2 1586   4.375   1.803   1.334
  459WAT      O 1587   1.278   1.864   4.590
  459WAT     H1 1588   1.280   1.956   4.562
  459WAT     H2 1589   1.307   1.817   4.512
  460WAT      O 1590   3.753   0.084   2.513
  460WAT     H1 1591   3.790   0.125   2.435
  460WAT     H2 1592   3.829   0.048   2.559
  461WAT      O 1593   2.994   1.455   0.992
  461WAT     H1 1594   3.008   1.547   0.967
  461WAT     H2 1595   3.074   1.432   1.041
  462WAT      O 1596   2.412   1.830   3.048
  462WAT     H1 1597   2.394   1.768   3.120
  462WAT     H2 1598   2.376   1.785   2.970
  463WAT      O 1599   3.444   1.379   1.506
  463WAT     H1 1600   3.511   1.336   1.558
  463WAT     H2 1601   3.361   1.351   1.545
  464WAT      O 1602   3.806   2.056   2.021
  464WAT     H1 1603   3.779   2.084   2.109
  464WAT     H2 1604   3.813   2.137   1.971
  465WAT      O 1605   4.314   2.097   4.479
  465WAT     H1 1606   4.234   2.138   4.510
  465WAT     H2 1607   4.289   2.007   4.459
  466WAT      O 1608   0.459   4.167   0.624
  466WAT     H1 1609   0.466   4.071   0.617
  466WAT     H2 1610   0.433   4.195   0.537
  467WAT      O 1611   2.312   4.489   1.260
  467WAT     H1 1612   2.350   4.407   1.231
  467WAT     H2 1613   2.220   4.468   1.277
  468WAT      O 1614   0.371   4.090   2.216
  468WAT     H1 1615   0.434   4.155   2.184
  468WAT     H2 1616   0.350   4.037   2.138
  469WAT      O 1617   2.356   2.041   3.971
  469WAT     H1 1618   2.382   2.001   3.888
  469WAT     H2 1619   2.409   2.122   3.975
  470WAT      O 1620   3.927   1.597   4.826
  470WAT     H1 1621   3.891   1.548   4.752
  470WAT     H2 1622   3.872   1.675   4.832
  471WAT      O 1623   1.129   2.564   4.652
  471WAT     H1 1624   1.208   2.575   4.599
  471WAT     H2 1625   1.161   2.541   4.739
  472WAT      O 1626   2.828   3.291   1.834
  472WAT     H1 1627   2.750   3.254   1.793
  472WAT     H2 1628   2.840   3.376   1.790
  473WAT      O 1629   3.260   4.765   5.169
  473WAT     H1 1630   3.237   4.823   5.097
  473WAT     H2 1631   3.225   4.808   5.247
  474WAT      O 1632   2.715   1.505   0.387
  474WAT     H1 1633   2.757   1.481   0.305
  474WAT     H2 1634   2.775   1.568   0.427
  475WAT      O 1635   4.332   3.842   1.116
  475WAT     H1 1636   4.361   3.758   1.151
  475WAT     H2 1637   4.386   3.856   1.038
  476WAT      O 1638   2.249   4.470   5.198
  476WAT     H1 1639   2.322   4.528   5.219
  476WAT     H2 1640   2.215   4.443   5.283
  477WAT      O 1641   0.784   0.141   4.074
  477WAT     H1 1642   0.784   0.057   4.028
  477WAT     H2 1643   0.803   0.119   4.165
  478WAT      O 1644   2.602   2.024   3.780
  478WAT     H1 1645   2.606   1.942   3.831
  478WAT     H2 1646   2.660   2.008   3.705
  479WAT      O 1647   1.339   2.953   3.964
  479WAT     H1 1648   1.328   2.880   4.024
  479WAT     H2 1649   1.358   2.913   3.880
  480WAT      O 1650   2.511   4.320   3.451
  480WAT     H1 1651   2.579   4.377   3.416
  480WAT     H2 1652   2.546   4.289   3.535
  481WAT      O 1653   1.523   2.360   4.756
  481WAT     H1 1654   1.555   2.295   4.819
  481WAT     H2 1655   1.585   2.433   4.761
  482WAT      O 1656   3.289   2.208   4.385
  482WAT     H1 1657   3.298   2.137   4.448
  482WAT     H2 1658   3.269   2.285   4.438
  483WAT      O 1659   3.040   4.475   2.153
  483WAT     H1 1660   2.979   4.520   2.095
  483WAT     H2 1661   2.989   4.457   2.232
  484WAT      O 1662   2.827   1.981   2.508
  484WAT     H1 1663   2.837   2.033   2.588
  484WAT     H2 1664   2.876   1.900   2.525
  485WAT      O 1665   1.760   3.169   1.634
  485WAT     H1 1666   1.729   3.214   1.555
  485WAT     H2 1667   1.832   3.115   1.604
  486WAT      O 1668   4.264   4.053   1.901
  486WAT     H1 1669   4.343   4.017   1.941
  486WAT     H2 1670   4.201   3.982   1.903
  487WAT      O 1671   2.858   5.129   0.794
  487WAT     H1 1672   2.801   5.205   0.805
  487WAT     H2 1673   2.869   5.121   0.699
  488WAT      O 1674   4.449   0.256   0.932
  488WAT     H1 1675   4.370   0.207   0.907
  488WAT     H2 1676   4.418   0.321   0.995
  489WAT      O 1677   0.373   0.703   1.280
  489WAT     H1 1678   0.438   0.752   1.330
  489WAT     H2 1679   0.418   0.624   1.252
  490WAT      O 1680   3.206   4.259   4.073
  490WAT     H1 1681   3.192   4.234   3.982
  490WAT     H2 1682   3.176   4.183   4.123
  491WAT      O 1683   0.831   0.570   1.091
  491WAT     H1 1684   0.860   0.579   1.000
  491WAT     H2 1685   0.844   0.476   1.110
  492WAT      O 1686   4.285   2.195   1.252
  492WAT     H1 1687   4.378   2.191   1.275
  492WAT     H2 1688   4.284   2.184   1.157
  493WAT      O 1689   3.597   0.159   3.564
  493WAT     H1 1690   3.656   0.164   3.640
  493WAT     H2 1691   3.643   0.207   3.495
  494WAT      O 1692   1.017   4.156   4.725
  494WAT     H1 1693   1.051   4.225   4.781
  494WAT     H2 1694   0.943   4.120   4.774
  495WAT      O 1695   2.655   1.563   3.219
  495WAT     H1 1696   2.586   1.626   3.240
  495WAT     H2 1697   2.733   1.616   3.206
  496WAT      O 1698   2.600   5.116   4.105
  496WAT     H1 1699   2.607   5.083   4.016
  496WAT     H2 1700   2.529   5.065   4.144
  497WAT      O 1701   3.558   2.587   2.792
  497WAT     H1 1702   3.516   2.577   2.877
  497WAT     H2 1703   3.547   2.680   2.770
  498WAT      O 1704   2.259   3.687   3.626
  498WAT     H1 1705   2.318   3.736   3.683
  498WAT     H2 1706   2.283   3.595   3.640
  499WAT      O 1707   2.607   4.144   1.115
  499WAT     H1 1708   2.676   4.199   1.150
  499WAT     H2 1709   2.648   4.059   1.100
  500WAT      O 1710   2.125   3.944   3.560
  500WAT     H1 1711   2.128   4.034   3.528
  500WAT     H2 1712   2.206   3.904   3.529
  501WAT      O 1713   1.907   1.351   0.718
  501WAT     H1 1714   1.871   1.284   0.776
  501WAT     H2 1715   1.836   1.373   0.658
  502WAT      O 1716   0.015   3.391   5.119
  502WAT     H1 1717  -0.054   3.325   5.121
  502WAT     H2 1718   0.096   3.342   5.131
  503WAT      O 1719   4.179   4.023   3.060
  503WAT     H1 1720   4.089   4.009   3.031
  503WAT     H2 1721   4.226   3.944   3.035
  504WAT      O 1722   2.639   1.139   3.807
  504WAT     H1 1723   2.581   1.159   3.733
  504WAT     H2 1724   2.611   1.198   3.876
  505WAT      O 1725   3.223   3.914   4.744
  505WAT     H1 1726   3.291   3.856   4.779
  505WAT     H2 1727   3.265   3.957   4.669
  506WAT      O 1728   3.989   2.300   2.215
  506WAT     H1 1729   3.911   2.246   2.225
  506WAT     H2 1730   4.024   2.307   2.304
  507WAT      O 1731   3.661   0.695   0.334
  507WAT     H1 1732   3.613   0.660   0.409
  507WAT     H2 1733   3.598   0.749   0.288
  508WAT      O 1734   0.491   5.122   1.839
  508WAT     H1 1735   0.578   5.094   1.870
  508WAT     H2 1736   0.458   5.046   1.791
  509WAT      O 1737   0.745   2.466   1.470
  509WAT     H1 1738   0.729   2.559   1.489
  509WAT     H2 1739   0.663   2.437   1.431
  510WAT      O 1740   1.237   4.434   0.214
  510WAT     H1 1741   1.178   4.491   0.165
  510WAT     H2 1742   1.232   4.350   0.167
  511WAT      O 1743   2.093   3.952   3.841
  511WAT     H1 1744   2.099   3.954   3.746
  511WAT     H2 1745   2.103   3.860   3.864
  512WAT      O 1746   3.127   4.816   4.727
  512WAT     H1 1747   3.044   4.830   4.681
  512WAT     H2 1748   3.135   4.721   4.732
  513WAT      O 1749   3.619   1.639   4.533
  513WAT     H1 1750   3.530   1.606   4.528
  513WAT     H2 1751   3.664   1.578   4.592
  514WAT      O 1752   2.684   0.945   1.656
  514WAT     H1 1753   2.771   0.979   1.674
  514WAT     H2 1754   2.678   0.942   1.560
  515WAT      O 1755   0.944   2.772   0.056
  515WAT     H1 1756   0.922   2.847   0.002
  515WAT     H2 1757   0.999   2.808   0.126
  516WAT      O 1758   0.230   1.715   2.024
  516WAT     H1 1759   0.137   1.693   2.032
  516WAT     H2 1760   0.275   1.645   2.070
  517WAT      O 1761   4.111   0.032   0.221
  517WAT     H1 1762   4.168  -0.041   0.199
  517WAT     H2 1763   4.023  -0.001   0.206
  518WAT      O 1764   0.800   2.650   3.960
  518WAT     H1 1765   0.725   2.684   3.911
  518WAT     H2 1766   0.792   2.689   4.047
  519WAT      O 1767   3.444   0.304   1.887
  519WAT     H1 1768   3.492   0.374   1.930
  519WAT     H2 1769   3.395   0.347   1.818
  520WAT      O 1770   3.921   0.835   1.740
  520WAT     H1 1771   3.999   0.782   1.727
  520WAT     H2 1772   3.858   0.777   1.780
  521WAT      O 1773   3.159   3.855   3.376
  521WAT     H1 1774   3.076   3.808   3.387
  521WAT     H2 1775   3.141   3.944   3.405
  522WAT      O 1776   1.920   2.255   1.445
  522WAT     H1 1777   1.845   2.293   1.400
  522WAT     H2 1778   1.884   2.183   1.496
  523WAT      O 1779   1.270   2.549   0.941
  523WAT     H1 1780   1.242   2.627   0.989
  523WAT     H2 1781   1.189   2.505   0.917
  524WAT      O 1782   2.264   4.044   1.697
  524WAT     H1 1783   2.215   4.007   1.624
  524WAT     H2 1784   2.261   4.139   1.682
  525WAT      O 1785   1.770   1.282   0.273
  525WAT     H1 1786   1.786   1.370   0.238
  525WAT     H2 1787   1.857   1.251   0.296
  526WAT      O 1788   2.788   0.386   4.025
  526WAT     H1 1789   2.873   0.427   4.041
  526WAT     H2 1790   2.791   0.360   3.933
  527WAT      O 1791   3.694   0.099   5.133
  527WAT     H1 1792   3.769   0.045   5.109
  527WAT     H2 1793   3.732   0.183   5.160
  528WAT      O 1794   0.794   2.782   0.702
  528WAT     H1 1795   0.814   2.813   0.613
  528WAT     H2 1796   0.865   2.818   0.756
  529WAT      O 1797   1.547   1.813   0.469
  529WAT     H1 1798   1.482   1.849   0.408
  529WAT     H2 1799   1.626   1.864   0.453
  530WAT      O 1800   0.656   1.458   4.170
  530WAT     H1 1801   0.658   1.369   4.135
  530WAT     H2 1802   0.651   1.514   4.093
  531WAT      O 1803   0.353   2.281   4.551
  531WAT     H1 1804   0.372   2.221   4.623
  531WAT     H2 1805   0.282   2.335   4.583
  532WAT      O 1806   4.410   4.511   3.384
  532WAT     H1 1807   4.398   4.418   3.398
  532WAT     H2 1808   4.333   4.537   3.332
  533WAT      O 1809   3.041   2.977   1.708
  533WAT     H1 1810   3.043   3.029   1.789
  533WAT     H2 1811   3.111   3.014   1.655
  534WAT      O 1812   2.018   3.883   2.562
  534WAT     H1 1813   1.986   3.971   2.581
  534WAT     H2 1814   1.998   3.870   2.470
  535WAT      O 1815   1.612   4.880   0.541
  535WAT     H1 1816   1.526   4.878   0.498
  535WAT     H2 1817   1.640   4.971   0.535
  536WAT      O 1818   1.608   1.903   4.906
  536WAT     H1 1819   1.581   1.823   4.862
  536WAT     H2 1820   1.700   1.915   4.881
  537WAT      O 1821   2.221   3.205   2.636
  537WAT     H1 1822   2.129   3.181   2.622
  537WAT     H2 1823   2.217   3.296   2.666
  538WAT      O 1824   0.599   4.589   2.319
  538WAT     H1 1825   0.612   4.660   2.382
  538WAT     H2 1826   0.680   4.587   2.268
  539WAT      O 1827   3.944   2.405   3.599
  539WAT     H1 1828   4.016   2.378   3.656
  539WAT     H2 1829   3.883   2.331   3.601
  540WAT      O 1830   1.787   4.053   5.091
  540WAT     H1 1831   1.881   4.046   5.075
  540WAT     H2 1832   1.778   4.126   5.152
  541WAT      O 1833   4.038   3.863   3.784
  541WAT     H1 1834   3.966   3.835   3.840
  541WAT     H2 1835   4.019   3.825   3.699
  542WAT      O 1836   4.341   4.400   4.733
  542WAT     H1 1837   4.391   4.465   4.783
  542WAT     H2 1838   4.280   4.451   4.680
  543WAT      O 1839   4.029   3.752   3.280
  543WAT     H1 1840   3.986   3.778   3.362
  543WAT     H2 1841   3.958   3.750   3.216
  544WAT      O 1842   3.415   0.250   3.741
  544WAT     H1 1843   3.464   0.188   3.688
  544WAT     H2 1844   3.464   0.332   3.734
  545WAT      O 1845   1.722   4.729   0.886
  545WAT     H1 1846   1.812   4.722   0.853
  545WAT     H2 1847   1.711   4.822   0.906
  546WAT      O 1848   2.779   1.530   4.832
  546WAT     H1 1849   2.812   1.594   4.894
  546WAT     H2 1850   2.829   1.451   4.852
  547WAT      O 1851   1.209   1.772   2.443
  547WAT     H1 1852   1.281   1.741   2.498
  547WAT     H2 1853   1.249   1.790   2.358
  548WAT      O 1854   1.388   2.265   1.953
  548WAT     H1 1855   1.460   2.208   1.929
  548WAT     H2 1856   1.420   2.354   1.935
  549WAT      O 1857   0.106   4.372   4.603
  549WAT     H1 1858   0.094   4.463   4.576
  549WAT     H2 1859   0.029   4.354   4.657
  550WAT      O 1860   3.545   1.961   2.192
  550WAT     H1 1861   3.553   1.961   2.097
  550WAT     H2 1862   3.498   1.880   2.213
  551WAT      O 1863   3.372   2.717   4.890
  551WAT     H1 1864   3.370   2.657   4.964
  551WAT     H2 1865   3.465   2.742   4.882
  552WAT      O 1866   2.716   3.486   0.065
  552WAT     H1 1867   2.730   3.524   0.152
  552WAT     H2 1868   2.776   3.535   0.008
  553WAT      O 1869   2.840   3.077   4.824
  553WAT     H1 1870   2.911   3.122   4.869
  553WAT     H2 1871   2.818   3.134   4.751
  554WAT      O 1872   1.621   2.537   3.136
  554WAT     H1 1873   1.608   2.466   3.200
  554WAT     H2 1874   1.685   2.594   3.177
  555WAT      O 1875   3.296   1.699   3.184
  555WAT     H1 1876   3.245   1.663   3.257
  555WAT     H2 1877   3.271   1.793   3.182
  556WAT      O 1878   1.096   4.108   3.329
  556WAT     H1 1879   1.146   4.184   3.300
  556WAT     H2 1880   1.116   4.101   3.423
  557WAT      O 1881   3.196   4.388   3.324
  557WAT     H1 1882   3.122   4.389   3.264
  557WAT     H2 1883   3.269   4.421   3.271
  558WAT      O 1884   1.776   4.701   3.169
  558WAT     H1 1885   1.758   4.655   3.087
  558WAT     H2 1886   1.807   4.633   3.228
  559WAT      O 1887   4.312   1.499   3.902
  559WAT     H1 1888   4.288   1.530   3.815
  559WAT     H2 1889   4.311   1.578   3.956
  560WAT      O 1890   1.906   4.412   0.479
  560WAT     H1 1891   1.878   4.497   0.444
  560WAT     H2 1892   1.884   4.416   0.572
  561WAT      O 1893   0.196   4.305   1.465
  561WAT     H1 1894   0.286   4.295   1.498
  561WAT     H2 1895   0.149   4.344   1.538
  562WAT      O 1896   4.508   0.428   0.101
  562WAT     H1 1897   4.578   0.382   0.146
  562WAT     H2 1898   4.460   0.360   0.054
  563WAT      O 1899   4.463   1.264   2.124
  563WAT     H1 1900   4.416   1.334   2.079
  563WAT     H2 1901   4.406   1.188   2.116
  564WAT      O 1902   3.030   1.599   1.352
  564WAT     H1 1903   3.040   1.693   1.346
  564WAT     H2 1904   2.989   1.584   1.438
  565WAT      O 1905   1.470   4.685   1.292
  565WAT     H1 1906   1.411   4.734   1.235
  565WAT     H2 1907   1.458   4.594   1.267
  566WAT      O 1908   1.902   2.144   5.096
  566WAT     H1 1909   1.826   2.202   5.093
  566WAT     H2 1910   1.974   2.202   5.126
  567WAT      O 1911   1.048   0.703   5.163
  567WAT     H1 1912   1.116   0.762   5.196
  567WAT     H2 1913   1.097   0.633   5.120
  568WAT      O 1914   1.954   0.482   4.309
  568WAT     H1 1915   1.986   0.565   4.345
  568WAT     H2 1916   2.018   0.459   4.241
  569WAT      O 1917   1.324   2.426   4.069
  569WAT     H1 1918   1.271   2.391   4.140
  569WAT     H2 1919   1.391   2.360   4.052
  570WAT      O 1920   4.247   2.465   4.392
  570WAT     H1 1921   4.333   2.473   4.433
  570WAT     H2 1922   4.256   2.387   4.336
  571WAT      O 1923   4.255   4.876   0.523
  571WAT     H1 1924   4.347   4.851   0.528
  571WAT     H2 1925   4.225   4.839   0.439
  572WAT      O 1926   3.447   0.537   3.403
  572WAT     H1 1927   3.522   0.574   3.356
  572WAT     H2 1928   3.386   0.610   3.413
  573WAT      O 1929   3.789   4.711   0.207
  573WAT     H1 1930   3.715   4.766   0.184
  573WAT     H2 1931   3.750   4.630   0.241
  574WAT      O 1932   2.855   5.049   4.283
  574WAT     H1 1933   2.823   4.959   4.272
  574WAT     H2 1934   2.828   5.094   4.204
  575WAT      O 1935   1.527   2.048   1.589
  575WAT     H1 1936   1.539   2.053   1.494
  575WAT     H2 1937   1.505   1.956   1.606
  576WAT      O 1938   2.260   2.017   0.260
  576WAT     H1 1939   2.235   2.056   0.176
  576WAT     H2 1940   2.232   2.081   0.326
  577WAT      O 1941   3.467   3.075   2.911
  577WAT     H1 1942   3.422   3.123   2.981
  577WAT     H2 1943   3.414   3.091   2.833
  578WAT      O 1944   4.241   1.719   2.035
  578WAT     H1 1945   4.196   1.790   1.988
  578WAT     H2 1946   4.191   1.708   2.116
  579WAT      O 1947   3.151   0.153   3.709
  579WAT     H1 1948   3.229   0.205   3.728
  579WAT     H2 1949   3.181   0.085   3.649
  580WAT      O 1950   1.025   4.757   4.587
  580WAT     H1 1951   1.033   4.669   4.624
  580WAT     H2 1952   0.966   4.746   4.512
  581WAT      O 1953   3.323   2.536   5.064
  581WAT     H1 1954   3.238   2.526   5.022
  581WAT     H2 1955   3.333   2.456   5.115
  582WAT      O 1956   1.377   3.536   3.082
  582WAT     H1 1957   1.466   3.566   3.062
  582WAT     H2 1958   1.356   3.577   3.165
  583WAT      O 1959   1.809   2.335   4.225
  583WAT     H1 1960   1.743   2.267   4.224
  583WAT     H2 1961   1.784   2.392   4.299
  584WAT      O 1962   0.718   2.221   2.085
  584WAT     H1 1963   0.637   2.268   2.102
  584WAT     H2 1964   0.776   2.246   2.157
  585WAT      O 1965   2.666   2.057   4.068
  585WAT     H1 1966   2.683   2.017   3.983
  585WAT     H2 1967   2.749   2.051   4.115
  586WAT      O 1968   2.870   0.238   2.478
  586WAT     H1 1969   2.830   0.187   2.549
  586WAT     H2 1970   2.957   0.261   2.512
  587WAT      O 1971   3.737   3.518   0.487
  587WAT     H1 1972   3.754   3.425   0.500
  587WAT     H2 1973   3.781   3.539   0.404
  588WAT      O 1974   3.969   1.863   1.164
  588WAT     H1 1975   3.985   1.951   1.201
  588WAT     H2 1976   3.940   1.880   1.075
  589WAT      O 1977   4.280   4.353   5.155
  589WAT     H1 1978   4.321   4.285   5.208
  589WAT     H2 1979   4.335   4.358   5.076
  590WAT      O 1980   2.658   0.247   4.210
  590WAT     H1 1981   2.724   0.301   4.165
  590WAT     H2 1982   2.674   0.158   4.177
  591WAT      O 1983   2.174   1.271   0.610
  591WAT     H1 1984   2.146   1.211   0.539
  591WAT     H2 1985   2.093   1.313   0.638
  592WAT      O 1986   2.350   0.642   5.217
  592WAT     H1 1987   2.382   0.552   5.206
  592WAT     H2 1988   2.260   0.632   5.247
  593WAT      O 1989   0.018   0.703   0.120
  593WAT     H1 1990  -0.003   0.612   0.096
  593WAT     H2 1991  -0.014   0.711   0.210
  594WAT      O 1992   4.130   2.034   0.241
  594WAT     H1 1993   4.052   2.036   0.186
  594WAT     H2 1994   4.201   2.067   0.185
  595WAT      O 1995   0.090   0.491   1.522
  595WAT     H1 1996   0.107   0.584   1.541
  595WAT     H2 1997   0.177   0.454   1.507
  596WAT      O 1998   2.938   4.523   0.877
  596WAT     H1 1999   2.990   4.443   0.870
  596WAT     H2 2000   2.957   4.556   0.965
  597WAT      O 2001   3.420   0.988   2.100
  597WAT     H1 2002   3.338   0.964   2.143
  597WAT     H2 2003   3.416   0.945   2.015
  598WAT      O 2004   1.484   1.478   5.209
  598WAT     H1 2005   1.575   1.481   5.180
  598WAT     H2 2006   1.458   1.386   5.203
  599WAT      O 2007   0.575   2.092   3.786
  599WAT     H1 2008   0.567   2.125   3.697
  599WAT     H2 2009   0.485   2.071   3.812
  600WAT      O 2010   3.544   3.124   4.861
  600WAT     H1 2011   3.463   3.128   4.811
  600WAT     H2 2012   3.583   3.212   4.849
  601WAT      O 2013   0.552   0.764   0.231
  601WAT     H1 2014   0.504   0.685   0.259
  601WAT     H2 2015   0.487   0.817   0.186
  602WAT      O 2016   2.374   4.879   5.217
  602WAT     H1 2017   2.376   4.856   5.310
  602WAT     H2 2018   2.296   4.935   5.208
  603WAT      O 2019   4.429   4.752   3.946
  603WAT     H1 2020   4.376   4.711   3.877
  603WAT     H2 2021   4.519   4.743   3.915
  604WAT      O 2022   3.584   3.817   1.442
  604WAT     H1 2023   3.630   3.895   1.413
  604WAT     H2 2024   3.502   3.817   1.392
  605WAT      O 2025   1.720   2.934   2.809
  605WAT     H1 2026   1.671   3.016   2.822
  605WAT     H2 2027   1.743   2.906   2.898
  606WAT      O 2028   2.461   4.724   4.645
  606WAT     H1 2029   2.504   4.639   4.631
  606WAT     H2 2030   2.473   4.741   4.739
  607WAT      O 2031   0.468   4.676   0.379
  607WAT     H1 2032   0.419   4.634   0.450
  607WAT     H2 2033   0.517   4.604   0.339
  608WAT      O 2034   3.995   2.340   1.068
  608WAT     H1 2035   4.004   2.281   1.144
  608WAT     H2 2036   3.932   2.295   1.011
  609WAT      O 2037   4.247   4.618   3.141
  609WAT     H1 2038   4.239   4.713   3.155
  609WAT     H2 2039   4.180   4.598   3.075
  610WAT      O 2040   1.356   0.783   1.350
  610WAT     H1 2041   1.277   0.733   1.328
  610WAT     H2 2042   1.421   0.752   1.288
  611WAT      O 2043   2.209   4.412   0.285
  611WAT     H1 2044   2.288   4.458   0.257
  611WAT     H2 2045   2.226   4.388   0.376
  612WAT      O 2046   3.807   2.267   0.044
  612WAT     H1 2047   3.726   2.302   0.080
  612WAT     H2 2048   3.858   2.344   0.018
  613WAT      O 2049   2.710   0.479   2.513
  613WAT     H1 2050   2.777   0.410   2.515
  613WAT     H2 2051   2.627   0.432   2.503
  614WAT      O 2052   2.619   4.936   1.223
  614WAT     H1 2053   2.624   4.959   1.130
  614WAT     H2 2054   2.527   4.950   1.246
  615WAT      O 2055   1.195   4.820   4.284
  615WAT     H1 2056   1.124   4.838   4.223
  615WAT     H2 2057   1.192   4.726   4.299
  616WAT      O 2058   4.296   1.359   4.790
  616WAT     H1 2059   4.232   1.367   4.719
  616WAT     H2 2060   4.371   1.317   4.750
  617WAT      O 2061   2.542   3.828   3.336
  617WAT     H1 2062   2.502   3.746   3.308
  617WAT     H2 2063   2.533   3.886   3.260
  618WAT      O 2064   3.840   2.914   3.586
  618WAT     H1 2065   3.778   2.878   3.649
  618WAT     H2 2066   3.800   2.998   3.559
  619WAT      O 2067   1.201   4.622   3.086
  619WAT     H1 2068   1.109   4.631   3.107
  619WAT     H2 2069   1.246   4.683   3.144
  620WAT      O 2070   2.234   4.156   4.194
  620WAT     H1 2071   2.150   4.130   4.156
  620WAT     H2 2072   2.296   4.090   4.163
  621WAT      O 2073   3.954   2.681   1.504
  621WAT     H1 2074   3.864   2.693   1.475
  621WAT     H2 2075   3.958   2.727   1.588
  622WAT      O 2076   2.439   1.071   4.934
  622WAT     H1 2077   2.458   0.999   4.994
  622WAT     H2 2078   2.508   1.067   4.868
  623WAT      O 2079   1.992   4.231   3.723
  623WAT     H1 2080   2.027   4.183   3.798
  623WAT     H2 2081   2.057   4.219   3.654
  624WAT      O 2082   4.016   2.636   2.859
  624WAT     H1 2083   4.106   2.640   2.827
  624WAT     H2 2084   3.981   2.556   2.821
  625WAT      O 2085   1.948   3.386   4.825
  625WAT     H1 2086   1.924   3.450   4.892
  625WAT     H2 2087   2.021   3.337   4.863
  626WAT      O 2088   0.905   2.696   4.249
  626WAT     H1 2089   0.949   2.635   4.308
  626WAT     H2 2090   0.969   2.766   4.234
  627WAT      O 2091   3.647   0.083   1.544
  627WAT     H1 2092   3.601   0.120   1.469
  627WAT     H2 2093   3.593   0.008   1.569
  628WAT      O 2094   0.976   4.191   4.099
  628WAT     H1 2095   0.895   4.206   4.050
  628WAT     H2 2096   0.980   4.263   4.161
  629WAT      O 2097   0.922   2.037   0.489
  629WAT     H1 2098   0.949   2.025   0.581
  629WAT     H2 2099   0.918   2.133   0.478
  630WAT      O 2100   1.640   1.242   2.620
  630WAT     H1 2101   1.662   1.324   2.664
  630WAT     H2 2102   1.545   1.241   2.618
  631WAT      O 2103   2.635   3.861   3.602
  631WAT     H1 2104   2.651   3.869   3.507
  631WAT     H2 2105   2.692   3.789   3.629
  632WAT      O 2106   1.128   1.672   1.628
  632WAT     H1 2107   1.093   1.757   1.601
  632WAT     H2 2108   1.067   1.607   1.592
  633WAT      O 2109   1.366   0.358   1.964
  633WAT     H1 2110   1.352   0.452   1.952
  633WAT     H2 2111   1.427   0.352   2.036
  634WAT      O 2112   3.140   1.333   4.447
  634WAT     H1 2113   3.134   1.422   4.480
  634WAT     H2 2114   3.187   1.284   4.515
  635WAT      O 2115   1.039   2.719   2.894
  635WAT     H1 2116   1.045   2.809   2.863
  635WAT     H2 2117   0.947   2.696   2.879
  636WAT      O 2118   2.405   3.049   0.727
  636WAT     H1 2119   2.434   3.097   0.804
  636WAT     H2 2120   2.388   3.116   0.661
  637WAT      O 2121   4.219   2.372   3.252
  637WAT     H1 2122   4.169   2.321   3.316
  637WAT     H2 2123   4.245   2.451   3.300
  638WAT      O 2124   1.791   4.641   3.529
  638WAT     H1 2125   1.802   4.595   3.612
  638WAT     H2 2126   1.814   4.576   3.463
  639WAT      O 2127   0.553   3.257   3.158
  639WAT     H1 2128   0.565   3.262   3.252
  639WAT     H2 2129   0.641   3.242   3.123
  640WAT      O 2130   3.788   3.763   5.205
  640WAT     H1 2131   3.770   3.676   5.169
  640WAT     H2 2132   3.884   3.769   5.205
  641WAT      O 2133   1.000   1.636   4.002
  641WAT     H1 2134   1.087   1.606   3.977
  641WAT     H2 2135   0.981   1.590   4.084
  642WAT      O 2136   3.189   0.028   1.794
  642WAT     H1 2137   3.211   0.093   1.861
  642WAT     H2 2138   3.152  -0.046   1.843
  643WAT      O 2139   3.752   0.073   0.340
  643WAT     H1 2140   3.657   0.067   0.352
  643WAT     H2 2141   3.775  -0.007   0.292
  644WAT      O 2142   1.012   4.829   0.501
  644WAT     H1 2143   0.927   4.810   0.463
  644WAT     H2 2144   1.020   4.767   0.573
  645WAT      O 2145   2.426   4.211   0.062
  645WAT     H1 2146   2.514   4.235   0.091
  645WAT     H2 2147   2.416   4.257  -0.021
  646WAT      O 2148   0.876   4.263   3.597
  646WAT     H1 2149   0.848   4.275   3.506
  646WAT     H2 2150   0.946   4.198   3.591
  647WAT      O 2151   2.311   3.847   5.188
  647WAT     H1 2152   2.303   3.760   5.149
  647WAT     H2 2153   2.223   3.885   5.182
  648WAT      O 2154   1.595   0.281   1.586
  648WAT     H1 2155   1.596   0.265   1.680
  648WAT     H2 2156   1.641   0.207   1.548
  649WAT      O 2157   3.838   4.339   4.810
  649WAT     H1 2158   3.893   4.284   4.753
  649WAT     H2 2159   3.781   4.276   4.855
  650WAT      O 2160   4.511   3.997   2.553
  650WAT     H1 2161   4.599   4.028   2.576
  650WAT     H2 2162   4.464   3.994   2.636
  651WAT      O 2163   2.868   1.633   4.143
  651WAT     H1 2164   2.802   1.630   4.213
  651WAT     H2 2165   2.951   1.642   4.189
  652WAT      O 2166   2.943   0.405   1.571
  652WAT     H1 2167   2.897   0.443   1.645
  652WAT     H2 2168   2.900   0.320   1.557
  653WAT      O 2169   4.227   3.118   3.627
  653WAT     H1 2170   4.164   3.094   3.560
  653WAT     H2 2171   4.176   3.123   3.708
  654WAT      O 2172   2.759   0.852   1.041
  654WAT     H1 2173   2.853   0.835   1.041
  654WAT     H2 2174   2.724   0.794   0.974
  655WAT      O 2175   0.136   0.747   4.228
  655WAT     H1 2176   0.053   0.705   4.252
  655WAT     H2 2177   0.112   0.838   4.206
  656WAT      O 2178   3.397   2.545   3.032
  656WAT     H1 2179   3.457   2.617   3.048
  656WAT     H2 2180   3.436   2.471   3.078
  657WAT      O 2181   2.555   1.754   3.842
  657WAT     H1 2182   2.550   1.738   3.936
  657WAT     H2 2183   2.601   1.678   3.808
  658WAT      O 2184   2.576   3.967   0.884
  658WAT     H1 2185   2.585   4.051   0.929
  658WAT     H2 2186   2.660   3.924   0.897
  659WAT      O 2187   3.767   0.787   3.437
  659WAT     H1 2188   3.707   0.823   3.502
  659WAT     H2 2189   3.771   0.852   3.368
  660WAT      O 2190   2.700   2.496   0.351
  660WAT     H1 2191   2.695   2.508   0.445
  660WAT     H2 2192   2.669   2.406   0.336
  661WAT      O 2193   3.885   4.546   1.537
  661WAT     H1 2194   3.802   4.502   1.519
  661WAT     H2 2195   3.888   4.555   1.632
  662WAT      O 2196   3.653   2.269   4.306
  662WAT     H1 2197   3.585   2.237   4.248
  662WAT     H2 2198   3.612   2.341   4.355
  663WAT      O 2199   2.962   1.425   3.538
  663WAT     H1 2200   2.981   1.340   3.499
  663WAT     H2 2201   2.928   1.405   3.625
  664WAT      O 2202   3.550   4.561   4.405
  664WAT     H1 2203   3.526   4.552   4.312
  664WAT     H2 2204   3.519   4.480   4.445
  665WAT      O 2205   1.465   4.946   4.705
  665WAT     H1 2206   1.557   4.935   4.680
  665WAT     H2 2207   1.421   4.970   4.623
  666WAT      O 2208   0.237   4.689   1.292
  666WAT     H1 2209   0.193   4.649   1.368
  666WAT     H2 2210   0.298   4.752   1.331
  667WAT      O 2211   2.072   0.909   0.018
  667WAT     H1 2212   2.063   0.815   0.033
  667WAT     H2 2213   1.983   0.943   0.029
  668WAT      O 2214   3.544   3.949   0.347
  668WAT     H1 2215   3.470   4.000   0.379
  668WAT     H2 2216   3.544   3.869   0.400
  669WAT      O 2217   1.975   4.783   1.944
  669WAT     H1 2218   1.985   4.803   1.851
  669WAT     H2 2219   2.065   4.782   1.978
  670WAT      O 2220   1.346   3.682   1.895
  670WAT     H1 2221   1.342   3.661   1.801
  670WAT     H2 2222   1.389   3.767   1.898
  671WAT      O 2223   0.354   2.966   5.093
  671WAT     H1 2224   0.398   3.006   5.168
  671WAT     H2 2225   0.422   2.959   5.026
  672WAT      O 2226   1.732   1.044   0.567
  672WAT     H1 2227   1.774   1.023   0.651
  672WAT     H2 2228   1.794   1.012   0.501
  673WAT      O 2229   2.079   2.947   5.084
  673WAT     H1 2230   2.022   3.012   5.042
  673WAT     H2 2231   2.047   2.942   5.174
  674WAT      O 2232   0.924   2.995   5.187
  674WAT     H1 2233   0.853   2.963   5.132
  674WAT     H2 2234   0.892   3.077   5.222
  675WAT      O 2235   0.407   3.258   5.014
  675WAT     H1 2236   0.370   3.205   5.085
  675WAT     H2 2237   0.355   3.233   4.938
  676WAT      O 2238   2.724   3.464   5.030
  676WAT     H1 2239   2.767   3.535   5.078
  676WAT     H2 2240   2.632   3.469   5.056
  677WAT      O 2241   0.789   3.775   2.264
  677WAT     H1 2242   0.733   3.754   2.189
  677WAT     H2 2243   0.848   3.844   2.232
  678WAT      O 2244   2.351   3.580   3.883
  678WAT     H1 2245   2.315   3.500   3.921
  678WAT     H2 2246   2.280   3.643   3.887
  679WAT      O 2247   2.251   4.685   4.262
  679WAT     H1 2248   2.295   4.601   4.250
  679WAT     H2 2249   2.162   4.662   4.289
  680WAT      O 2250   2.880   2.827   2.259
  680WAT     H1 2251   2.951   2.800   2.202
  680WAT     H2 2252   2.800   2.808   2.210
  681WAT      O 2253   0.973   2.458   4.416
  681WAT     H1 2254   0.986   2.485   4.506
  681WAT     H2 2255   1.051   2.406   4.394
  682WAT      O 2256   1.112   3.803   4.541
  682WAT     H1 2257   1.155   3.717   4.543
  682WAT     H2 2258   1.061   3.806   4.622
  683WAT      O 2259   1.798   2.124   4.440
  683WAT     H1 2260   1.861   2.066   4.482
  683WAT     H2 2261   1.816   2.115   4.346
  684WAT      O 2262   4.316   3.496   0.595
  684WAT     H1 2263   4.242   3.453   0.553
  684WAT     H2 2264   4.393   3.454   0.557
  685WAT      O 2265   0.291   0.700   3.329
  685WAT     H1 2266   0.348   0.633   3.291
  685WAT     H2 2267   0.312   0.698   3.423
  686WAT      O 2268   2.791   2.081   2.197
  686WAT     H1 2269   2.798   1.985   2.195
  686WAT     H2 2270   2.879   2.111   2.216
  687WAT      O 2271   1.062   1.935   1.548
  687WAT     H1 2272   0.982   1.971   1.584
  687WAT     H2 2273   1.133   1.984   1.588
  688WAT      O 2274   0.281   4.832   0.226
  688WAT     H1 2275   0.371   4.858   0.208
  688WAT     H2 2276   0.288   4.770   0.299
  689WAT      O 2277   0.071   3.004   3.891
  689WAT     H1 2278  -0.001   2.972   3.836
  689WAT     H2 2279   0.108   3.077   3.840
  690WAT      O 2280   2.372   2.114   0.624
  690WAT     H1 2281   2.288   2.141   0.586
  690WAT     H2 2282   2.415   2.064   0.555
  691WAT      O 2283   1.534   1.372   1.419
  691WAT     H1 2284   1.574   1.303   1.365
  691WAT     H2 2285   1.542   1.340   1.509
  692WAT      O 2286   2.422   4.279   0.853
  692WAT     H1 2287   2.383   4.351   0.803
  692WAT     H2 2288   2.515   4.301   0.860
  693WAT      O 2289   0.342   3.060   0.136
  693WAT     H1 2290   0.430   3.047   0.101
  693WAT     H2 2291   0.314   2.972   0.162
  694WAT      O 2292   2.692   1.665   4.384
  694WAT     H1 2293   2.632   1.715   4.439
  694WAT     H2 2294   2.650   1.580   4.372
  695WAT      O 2295   2.939   2.122   0.213
  695WAT     H1 2296   2.949   2.149   0.121
  695WAT     H2 2297   2.994   2.183   0.261
  696WAT      O 2298   2.822   3.895   1.576
  696WAT     H1 2299   2.844   3.831   1.508
  696WAT     H2 2300   2.905   3.914   1.619
  697WAT      O 2301   2.290   2.709   2.094
  697WAT     H1 2302   2.304   2.787   2.040
  697WAT     H2 2303   2.315   2.636   2.036
  698WAT      O 2304   0.513   0.906   1.410
  698WAT     H1 2305   0.492   0.991   1.369
  698WAT     H2 2306   0.601   0.919   1.447
  699WAT      O 2307   0.101   1.916   1.681
  699WAT     H1 2308   0.189   1.921   1.718
  699WAT     H2 2309   0.045   1.959   1.745
  700WAT      O 2310   4.069   4.262   4.539
  700WAT     H1 2311   4.007   4.333   4.524
  700WAT     H2 2312   4.130   4.266   4.464
  701WAT      O 2313   3.144   3.573   0.071
  701WAT     H1 2314   3.109   3.654   0.107
  701WAT     H2 2315   3.194   3.601  -0.006
  702WAT      O 2316   3.479   0.570   1.491
  702WAT     H1 2317   3.408   0.525   1.536
  702WAT     H2 2318   3.473   0.540   1.400
  703WAT      O 2319   1.711   4.272   4.285
  703WAT     H1 2320   1.617   4.253   4.284
  703WAT     H2 2321   1.719   4.352   4.233
  704WAT      O 2322   4.298   1.007   0.996
  704WAT     H1 2323   4.252   1.088   0.978
  704WAT     H2 2324   4.389   1.034   1.013
  705WAT      O 2325   2.624   4.634   2.487
  705WAT     H1 2326   2.571   4.587   2.423
  705WAT     H2 2327   2.710   4.643   2.445
  706WAT      O 2328   2.730   1.149   3.312
  706WAT     H1 2329   2.708   1.180   3.224
  706WAT     H2 2330   2.661   1.086   3.333
  707WAT      O 2331   0.816   1.209   4.719
  707WAT     H1 2332   0.833   1.123   4.757
  707WAT     H2 2333   0.786   1.192   4.630
  708WAT      O 2334   3.266   3.793   2.786
  708WAT     H1 2335   3.301   3.839   2.709
  708WAT     H2 2336   3.197   3.850   2.819
  709WAT      O 2337   0.282   1.817   5.122
  709WAT     H1 2338   0.363   1.853   5.087
  709WAT     H2 2339   0.240   1.777   5.045
  710WAT      O 2340   1.176   4.872   0.848
  710WAT     H1 2341   1.184   4.803   0.782
  710WAT     H2 2342   1.082   4.888   0.855
  711WAT      O 2343   3.071   3.065   2.851
  711WAT     H1 2344   3.125   2.989   2.870
  711WAT     H2 2345   3.090   3.084   2.759
  712WAT      O 2346   4.228   3.390   4.936
  712WAT     H1 2347   4.279   3.319   4.896
  712WAT     H2 2348   4.205   3.357   5.022
  713WAT      O 2349   3.771   4.806   4.259
  713WAT     H1 2350   3.710   4.867   4.216
  713WAT     H2 2351   3.716   4.757   4.320
  714WAT      O 2352   1.635   4.929   3.199
  714WAT     H1 2353   1.691   4.853   3.186
  714WAT     H2 2354   1.599   4.947   3.112
  715WAT      O 2355   0.017   4.060   2.273
  715WAT     H1 2356   0.042   4.088   2.361
  715WAT     H2 2357   0.033   3.966   2.272
  716WAT      O 2358   0.202   1.737   3.253
  716WAT     H1 2359   0.140   1.693   3.194
  716WAT     H2 2360   0.244   1.665   3.300
  717WAT      O 2361   2.632   4.785   2.999
  717WAT     H1 2362   2.627   4.702   3.047
  717WAT     H2 2363   2.634   4.759   2.907
  718WAT      O 2364   1.444   4.207   4.338
  718WAT     H1 2365   1.417   4.298   4.333
  718WAT     H2 2366   1.369   4.157   4.309
  719WAT      O 2367   3.604   0.651   0.808
  719WAT     H1 2368   3.582   0.701   0.887
  719WAT     H2 2369   3.657   0.711   0.756
  720WAT      O 2370   4.135   4.405   1.441
  720WAT     H1 2371   4.193   4.477   1.415
  720WAT     H2 2372   4.069   4.447   1.497
  721WAT      O 2373   2.067   3.441   0.034
  721WAT     H1 2374   2.044   3.489   0.113
  721WAT     H2 2375   2.147   3.483   0.002
  722WAT      O 2376   1.486   2.550   1.959
  722WAT     H1 2377   1.410   2.565   1.902
  722WAT     H2 2378   1.549   2.617   1.932
  723WAT      O 2379   1.760   2.758   1.334
  723WAT     H1 2380   1.786   2.850   1.330
  723WAT     H2 2381   1.667   2.760   1.359
  724WAT      O 2382   2.064   3.203   4.596
  724WAT     H1 2383   2.061   3.267   4.668
  724WAT     H2 2384   2.090   3.255   4.520
  725WAT      O 2385   4.227   0.879   1.244
  725WAT     H1 2386   4.267   0.927   1.171
  725WAT     H2 2387   4.299   0.826   1.278
  726WAT      O 2388   2.901   3.475   3.311
  726WAT     H1 2389   2.994   3.472   3.287
  726WAT     H2 2390   2.897   3.434   3.397
  727WAT      O 2391   0.090   3.833   5.045
  727WAT     H1 2392   0.017   3.773   5.031
  727WAT     H2 2393   0.057   3.918   5.018
  728WAT      O 2394   3.534   2.669   0.319
  728WAT     H1 2395   3.492   2.748   0.284
  728WAT     H2 2396   3.627   2.684   0.306
  729WAT      O 2397   4.317   1.422   1.982
  729WAT     H1 2398   4.350   1.392   1.897
  729WAT     H2 2399   4.318   1.518   1.976
  730WAT      O 2400   0.525   0.349   1.909
  730WAT     H1 2401   0.595   0.283   1.905
  730WAT     H2 2402   0.452   0.310   1.861
  731WAT      O 2403   4.290   2.884   0.965
  731WAT     H1 2404   4.380   2.852   0.966
  731WAT     H2 2405   4.263   2.880   1.056
  732WAT      O 2406   0.890   0.042   0.118
  732WAT     H1 2407   0.901   0.104   0.046
  732WAT     H2 2408   0.909  -0.043   0.080
  733WAT      O 2409   0.732   0.542   3.095
  733WAT     H1 2410   0.738   0.566   3.003
  733WAT     H2 2411   0.772   0.455   3.100
  734WAT      O 2412   3.602   3.373   1.691
  734WAT     H1 2413   3.693   3.367   1.718
  734WAT     H2 2414   3.605   3.418   1.607
  735WAT      O 2415   3.800   3.555   2.304
  735WAT     H1 2416   3.829   3.485   2.363
  735WAT     H2 2417   3.855   3.630   2.327
  736WAT      O 2418   2.444   2.452   1.018
  736WAT     H1 2419   2.356   2.488   1.007
  736WAT     H2 2420   2.502   2.524   0.993
  737WAT      O 2421   4.308   2.004   3.509
  737WAT     H1 2422   4.260   1.992   3.591
  737WAT     H2 2423   4.357   1.923   3.497
  738WAT      O 2424   0.822   0.204   0.865
  738WAT     H1 2425   0.913   0.188   0.840
  738WAT     H2 2426   0.775   0.205   0.781
  739WAT      O 2427   1.018   4.950   2.297
  739WAT     H1 2428   0.991   4.926   2.386
  739WAT     H2 2429   0.936   4.972   2.253
  740WAT      O 2430   4.123   1.616   3.349
  740WAT     H1 2431   4.049   1.646   3.402
  740WAT     H2 2432   4.132   1.524   3.372
  741WAT      O 2433   1.259   1.150   3.200
  741WAT     H1 2434   1.255   1.093   3.123
  741WAT     H2 2435   1.321   1.106   3.258
  742WAT      O 2436   3.458   2.208   3.025
  742WAT     H1 2437   3.459   2.266   2.948
  742WAT     H2 2438   3.480   2.265   3.098
  743WAT      O 2439   2.472   3.126   3.929
  743WAT     H1 2440   2.409   3.083   3.871
  743WAT     H2 2441   2.473   3.071   4.007
  744WAT      O 2442   0.214   3.350   4.101
  744WAT     H1 2443   0.152   3.395   4.044
  744WAT     H2 2444   0.219   3.405   4.180
  745WAT      O 2445   2.446   3.424   0.006
  745WAT     H1 2446   2.446   3.332  -0.020
  745WAT     H2 2447   2.538   3.444   0.023
  746WAT      O 2448   1.482   1.767   1.524
  746WAT     H1 2449   1.520   1.747   1.439
  746WAT     H2 2450   1.497   1.688   1.577
  747WAT      O 2451   0.266   3.562   0.161
  747WAT     H1 2452   0.295   3.480   0.200
  747WAT     H2 2453   0.314   3.568   0.079
  748WAT      O 2454   3.458   3.285   0.502
  748WAT     H1 2455   3.420   3.227   0.436
  748WAT     H2 2456   3.425   3.372   0.480
  749WAT      O 2457   1.397   5.097   1.657
  749WAT     H1 2458   1.359   5.087   1.570
  749WAT     H2 2459   1.362   5.179   1.690
  750WAT      O 2460   1.576   0.472   4.434
  750WAT     H1 2461   1.654   0.469   4.490
  750WAT     H2 2462   1.609   0.499   4.348
  751WAT      O 2463   1.509   1.395   4.872
  751WAT     H1 2464   1.445   1.340   4.918
  751WAT     H2 2465   1.512   1.359   4.783
  752WAT      O 2466   4.022   3.186   4.633
  752WAT     H1 2467   3.996   3.155   4.719
  752WAT     H2 2468   4.089   3.123   4.604
  753WAT      O 2469   4.071   5.106   1.247
  753WAT     H1 2470   4.057   5.200   1.249
  753WAT     H2 2471   4.019   5.072   1.320
  754WAT      O 2472   3.589   0.861   3.618
  754WAT     H1 2473   3.653   0.837   3.685
  754WAT     H2 2474   3.567   0.952   3.637
  755WAT      O 2475   4.227   4.227   1.216
  755WAT     H1 2476   4.303   4.247   1.161
  755WAT     H2 2477   4.248   4.267   1.301
  756WAT      O 2478   3.520   4.812   1.890
  756WAT     H1 2479   3.521   4.878   1.959
  756WAT     H2 2480   3.571   4.739   1.926
  757WAT      O 2481   2.200   5.035   0.176
  757WAT     H1 2482   2.167   5.045   0.265
  757WAT     H2 2483   2.273   4.973   0.184
  758WAT      O 2484   0.490   3.516   1.547
  758WAT     H1 2485   0.527   3.526   1.635
  758WAT     H2 2486   0.422   3.583   1.542
  759WAT      O 2487   0.249   1.180   2.072
  759WAT     H1 2488   0.271   1.088   2.054
  759WAT     H2 2489   0.163   1.176   2.115
  760WAT      O 2490   0.557   2.374   3.899
  760WAT     H1 2491   0.524   2.285   3.899
  760WAT     H2 2492   0.571   2.396   3.991
  761WAT      O 2493   3.204   1.009   1.455
  761WAT     H1 2494   3.154   1.024   1.374
  761WAT     H2 2495   3.254   1.090   1.468
  762WAT      O 2496   0.543   1.534   2.714
  762WAT     H1 2497   0.553   1.441   2.735
  762WAT     H2 2498   0.454   1.540   2.679
  763WAT      O 2499   2.277   2.436   1.254
  763WAT     H1 2500   2.305   2.528   1.261
  763WAT     H2 2501   2.354   2.391   1.219
  764WAT      O 2502   4.310   1.169   1.586
  764WAT     H1 2503   4.347   1.251   1.621
  764WAT     H2 2504   4.377   1.103   1.598
  765WAT      O 2505   0.652   0.072   0.234
  765WAT     H1 2506   0.638   0.163   0.207
  765WAT     H2 2507   0.742   0.054   0.207
  766WAT      O 2508   3.365   0.703   3.669
  766WAT     H1 2509   3.436   0.746   3.620
  766WAT     H2 2510   3.321   0.775   3.714
  767WAT      O 2511   1.749   3.303   0.234
  767WAT     H1 2512   1.726   3.287   0.143
  767WAT     H2 2513   1.725   3.395   0.249
  768WAT      O 2514   0.523   2.635   0.253
  768WAT     H1 2515   0.583   2.597   0.189
  768WAT     H2 2516   0.566   2.620   0.338
  769WAT      O 2517   3.508   1.369   2.292
  769WAT     H1 2518   3.504   1.429   2.366
  769WAT     H2 2519   3.497   1.422   2.215
  770WAT      O 2520   0.156   2.272   4.827
  770WAT     H1 2521   0.194   2.358   4.810
  770WAT     H2 2522   0.100   2.255   4.751
  771WAT      O 2523   2.639   4.670   2.750
  771WAT     H1 2524   2.628   4.593   2.805
  771WAT     H2 2525   2.611   4.643   2.663
  772WAT      O 2526   0.401   4.426   1.089
  772WAT     H1 2527   0.423   4.410   0.998
  772WAT     H2 2528   0.485   4.440   1.133
  773WAT      O 2529   4.292   2.914   3.425
  773WAT     H1 2530   4.364   2.976   3.407
  773WAT     H2 2531   4.237   2.959   3.488
  774WAT      O 2532   4.320   3.519   1.446
  774WAT     H1 2533   4.290   3.455   1.511
  774WAT     H2 2534   4.245   3.532   1.388
  775WAT      O 2535   3.979   0.176   3.884
  775WAT     H1 2536   4.062   0.222   3.891
  775WAT     H2 2537   3.990   0.098   3.939
  776WAT      O 2538   2.246   4.308   2.613
  776WAT     H1 2539   2.308   4.360   2.562
  776WAT     H2 2540   2.271   4.217   2.594
  777WAT      O 2541   2.870   2.554   0.151
  777WAT     H1 2542   2.801   2.518   0.208
  777WAT     H2 2543   2.883   2.643   0.182
  778WAT      O 2544   0.291   0.096   4.986
  778WAT     H1 2545   0.337   0.016   5.012
  778WAT     H2 2546   0.279   0.145   5.066
  779WAT      O 2547   0.465   4.201   1.335
  779WAT     H1 2548   0.380   4.238   1.311
  779WAT     H2 2549   0.484   4.238   1.421
  780WAT      O 2550   1.248   1.829   1.388
  780WAT     H1 2551   1.319   1.813   1.451
  780WAT     H2 2552   1.191   1.892   1.432
  781WAT      O 2553   1.143   2.011   4.934
  781WAT     H1 2554   1.157   2.066   5.012
  781WAT     H2 2555   1.143   2.073   4.861
  782WAT      O 2556   3.113   1.912   4.081
  782WAT     H1 2557   3.048   1.862   4.032
  782WAT     H2 2558   3.073   1.998   4.091
  783WAT      O 2559   4.287   2.838   3.134
  783WAT     H1 2560   4.374   2.871   3.110
  783WAT     H2 2561   4.294   2.742   3.124
  784WAT      O 2562   0.178   5.030   0.082
  784WAT     H1 2563   0.140   4.989   0.004
  784WAT     H2 2564   0.210   4.956   0.134
  785WAT      O 2565   1.415   1.912   0.922
  785WAT     H1 2566   1.382   1.933   1.009
  785WAT     H2 2567   1.449   1.823   0.931
  786WAT      O 2568   1.867   1.606   3.102
  786WAT     H1 2569   1.839   1.514   3.096
  786WAT     H2 2570   1.929   1.606   3.176
  787WAT      O 2571   1.958   3.931   2.288
  787WAT     H1 2572   1.865   3.916   2.307
  787WAT     H2 2573   1.984   3.854   2.237
  788WAT      O 2574   1.638   0.365   3.437
  788WAT     H1 2575   1.703   0.431   3.413
  788WAT     H2 2576   1.582   0.409   3.501
  789WAT      O 2577   0.255   4.849   0.583
  789WAT     H1 2578   0.284   4.888   0.666
  789WAT     H2 2579   0.315   4.775   0.569
  790WAT      O 2580   4.202   2.511   1.088
  790WAT     H1 2581   4.135   2.444   1.073
  790WAT     H2 2582   4.262   2.502   1.014
  791WAT      O 2583   3.863   3.486   0.166
  791WAT     H1 2584   3.846   3.439   0.085
  791WAT     H2 2585   3.819   3.570   0.154
  792WAT      O 2586   2.032   2.459   1.614
  792WAT     H1 2587   2.092   2.513   1.562
  792WAT     H2 2588   1.989   2.404   1.549
  793WAT      O 2589   3.677   3.323   0.744
  793WAT     H1 2590   3.593   3.366   0.760
  793WAT     H2 2591   3.672   3.241   0.792
  794WAT      O 2592   3.961   3.225   0.190
  794WAT     H1 2593   3.932   3.314   0.170
  794WAT     H2 2594   3.886   3.186   0.235
  795WAT      O 2595   0.084   1.070   3.292
  795WAT     H1 2596   0.144   1.044   3.222
  795WAT     H2 2597   0.029   1.137   3.254
  796WAT      O 2598   0.897   4.346   5.282
  796WAT     H1 2599   0.840   4.421   5.302
  796WAT     H2 2600   0.980   4.385   5.255
  797WAT      O 2601   3.805   1.750   2.525
  797WAT     H1 2602   3.818   1.665   2.480
  797WAT     H2 2603   3.894   1.777   2.550
  798WAT      O 2604   3.765   3.949   3.317
  798WAT     H1 2605   3.740   3.899   3.395
  798WAT     H2 2606   3.808   4.027   3.352
  799WAT      O 2607   0.318   1.147   2.470
  799WAT     H1 2608   0.293   1.129   2.561
  799WAT     H2 2609   0.292   1.068   2.423
  800WAT      O 2610   0.668   1.877   4.655
  800WAT     H1 2611   0.690   1.790   4.685
  800WAT     H2 2612   0.750   1.913   4.622
  801WAT      O 2613   2.484   1.445   0.135
  801WAT     H1 2614   2.549   1.501   0.090
  801WAT     H2 2615   2.453   1.499   0.207
  802WAT      O 2616   0.838   3.345   4.525
  802WAT     H1 2617   0.763   3.399   4.502
  802WAT     H2 2618   0.912   3.385   4.478
  803WAT      O 2619   3.698   3.825   3.758
  803WAT     H1 2620   3.653   3.834   3.674
  803WAT     H2 2621   3.684   3.910   3.801
  804WAT      O 2622   1.238   4.118   0.369
  804WAT     H1 2623   1.271   4.102   0.281
  804WAT     H2 2624   1.316   4.147   0.418
  805WAT      O 2625   0.169   2.515   4.417
  805WAT     H1 2626   0.100   2.510   4.484
  805WAT     H2 2627   0.121   2.531   4.336
  806WAT      O 2628   1.324   3.595   3.698
  806WAT     H1 2629   1.402   3.549   3.727
  806WAT     H2 2630   1.357   3.672   3.652
  807WAT      O 2631   4.408   1.758   3.506
  807WAT     H1 2632   4.375   1.692   3.568
  807WAT     H2 2633   4.492   1.785   3.543
  808WAT      O 2634   2.787   3.202   5.116
  808WAT     H1 2635   2.749   3.288   5.133
  808WAT     H2 2636   2.863   3.197   5.174
  809WAT      O 2637   3.907   4.881   3.881
  809WAT     H1 2638   3.945   4.952   3.932
  809WAT     H2 2639   3.916   4.908   3.790
  810WAT      O 2640   2.502   5.008   4.677
  810WAT     H1 2641   2.481   5.049   4.593
  810WAT     H2 2642   2.498   4.914   4.660
  811WAT      O 2643   1.884   4.942   2.954
  811WAT     H1 2644   1.789   4.953   2.956
  811WAT     H2 2645   1.899   4.853   2.986
  812WAT      O 2646   2.316   1.699   5.103
  812WAT     H1 2647   2.299   1.714   5.010
  812WAT     H2 2648   2.307   1.606   5.116
  813WAT      O 2649   3.473   1.735   2.339
  813WAT     H1 2650   3.493   1.669   2.404
  813WAT     H2 2651   3.389   1.771   2.367
  814WAT      O 2652   2.164   2.060   3.638
  814WAT     H1 2653   2.127   2.099   3.717
  814WAT     H2 2654   2.092   2.061   3.575
  815WAT      O 2655   4.050   4.864   1.433
  815WAT     H1 2656   4.120   4.918   1.396
  815WAT     H2 2657   4.022   4.912   1.512
  816WAT      O 2658   4.236   5.070   2.596
  816WAT     H1 2659   4.276   4.985   2.615
  816WAT     H2 2660   4.307   5.120   2.556
  817WAT      O 2661   3.554   0.225   1.306
  817WAT     H1 2662   3.524   0.304   1.259
  817WAT     H2 2663   3.616   0.184   1.246
  818WAT      O 2664   2.384   1.751   2.424
  818WAT     H1 2665   2.371   1.655   2.419
  818WAT     H2 2666   2.476   1.764   2.402
  819WAT      O 2667   4.461   3.853   3.563
  819WAT     H1 2668   4.396   3.826   3.497
  819WAT     H2 2669   4.411   3.860   3.644
  820WAT      O 2670   4.062   3.235   5.164
  820WAT     H1 2671   4.081   3.324   5.197
  820WAT     H2 2672   3.989   3.206   5.217
  821WAT      O 2673   4.233   3.767   1.760
  821WAT     H1 2674   4.188   3.698   1.710
  821WAT     H2 2675   4.168   3.797   1.823
  822WAT      O 2676   1.033   0.794   3.156
  822WAT     H1 2677   1.010   0.760   3.243
  822WAT     H2 2678   1.026   0.889   3.166
  823WAT      O 2679   4.158   0.555   0.168
  823WAT     H1 2680   4.176   0.544   0.075
  823WAT     H2 2681   4.112   0.476   0.194
  824WAT      O 2682   2.091   3.716   0.865
  824WAT     H1 2683   2.153   3.789   0.862
  824WAT     H2 2684   2.109   3.672   0.948
  825WAT      O 2685   4.313   1.586   4.381
  825WAT     H1 2686   4.401   1.619   4.363
  825WAT     H2 2687   4.270   1.583   4.296
  826WAT      O 2688   3.728   0.928   0.170
  826WAT     H1 2689   3.710   0.932   0.264
  826WAT     H2 2690   3.812   0.881   0.164
  827WAT      O 2691   3.508   4.772   4.076
  827WAT     H1 2692   3.522   4.756   3.983
  827WAT     H2 2693   3.521   4.686   4.117
  828WAT      O 2694   3.698   1.229   0.261
  828WAT     H1 2695   3.677   1.284   0.337
  828WAT     H2 2696   3.784   1.193   0.282
  829WAT      O 2697   1.004   1.284   0.916
  829WAT     H1 2698   1.006   1.188   0.917
  829WAT     H2 2699   0.994   1.308   1.008
  830WAT      O 2700   0.006   4.911   0.444
  830WAT     H1 2701   0.068   4.865   0.500
  830WAT     H2 2702   0.029   4.883   0.355
  831WAT      O 2703   0.482   0.783   2.383
  831WAT     H1 2704   0.529   0.743   2.310
  831WAT     H2 2705   0.405   0.823   2.343
  832WAT      O 2706   1.627   1.422   0.973
  832WAT     H1 2707   1.660   1.453   1.057
  832WAT     H2 2708   1.683   1.346   0.953
  833WAT      O 2709   1.830   2.004   4.794
  833WAT     H1 2710   1.870   1.998   4.707
  833WAT     H2 2711   1.825   2.097   4.812
  834WAT      O 2712   2.503   3.490   1.089
  834WAT     H1 2713   2.584   3.446   1.063
  834WAT     H2 2714   2.515   3.581   1.060
  835WAT      O 2715   0.615   0.996   3.885
  835WAT     H1 2716   0.627   1.067   3.948
  835WAT     H2 2717   0.585   0.922   3.939
  836WAT      O 2718   3.858   1.926   4.228
  836WAT     H1 2719   3.795   1.908   4.297
  836WAT     H2 2720   3.832   1.869   4.156
  837WAT      O 2721   3.834   0.324   0.438
  837WAT     H1 2722   3.925   0.297   0.455
  837WAT     H2 2723   3.799   0.253   0.383
  838WAT      O 2724   2.714   4.330   2.148
  838WAT     H1 2725   2.641   4.270   2.162
  838WAT     H2 2726   2.724   4.333   2.053
  839WAT      O 2727   0.865   0.886   2.686
  839WAT     H1 2728   0.955   0.916   2.696
  839WAT     H2 2729   0.842   0.908   2.596
  840WAT      O 2730   2.871   0.002   0.517
  840WAT     H1 2731   2.933   0.074   0.522
  840WAT     H2 2732   2.786   0.045   0.502
  841WAT      O 2733   2.209   1.540   1.122
  841WAT     H1 2734   2.138   1.603   1.112
  841WAT     H2 2735   2.279   1.589   1.166
  842WAT      O 2736   1.828   4.603   1.103
  842WAT     H1 2737   1.757   4.619   1.041
  842WAT     H2 2738   1.783   4.575   1.183
  843WAT      O 2739   2.259   3.023   2.922
  843WAT     H1 2740   2.346   2.997   2.951
  843WAT     H2 2741   2.270   3.044   2.829
  844WAT      O 2742   4.301   1.505   0.920
  844WAT     H1 2743   4.340   1.474   0.839
  844WAT     H2 2744   4.229   1.445   0.937
  845WAT      O 2745   2.310   4.378   3.090
  845WAT     H1 2746   2.344   4.447   3.033
  845WAT     H2 2747   2.313   4.299   3.035
  846WAT      O 2748   0.670   1.196   0.152
  846WAT     H1 2749   0.741   1.255   0.176
  846WAT     H2 2750   0.597   1.222   0.207
  847WAT      O 2751   3.341   0.790   3.353
  847WAT     H1 2752   3.257   0.821   3.319
  847WAT     H2 2753   3.403   0.810   3.284
  848WAT      O 2754   3.845   4.303   0.197
  848WAT     H1 2755   3.915   4.278   0.258
  848WAT     H2 2756   3.860   4.248   0.119
  849WAT      O 2757   1.122   4.535   2.154
  849WAT     H1 2758   1.173   4.604   2.110
  849WAT     H2 2759   1.105   4.471   2.085
  850WAT      O 2760   1.883   2.307   4.716
  850WAT     H1 2761   1.859   2.354   4.636
  850WAT     H2 2762   1.808   2.321   4.774
  851WAT      O 2763   3.752   4.942   2.406
  851WAT     H1 2764   3.744   4.985   2.321
  851WAT     H2 2765   3.717   5.005   2.469
  852WAT      O 2766   4.093   1.357   3.420
  852WAT     H1 2767   4.030   1.334   3.352
  852WAT     H2 2768   4.167   1.298   3.405
  853WAT      O 2769   1.998   1.307   3.672
  853WAT     H1 2770   2.093   1.314   3.686
  853WAT     H2 2771   1.961   1.382   3.716
  854WAT      O 2772   1.950   0.215   1.600
  854WAT     H1 2773   1.932   0.297   1.645
  854WAT     H2 2774   1.985   0.241   1.515
  855WAT      O 2775   1.485   1.695   4.757
  855WAT     H1 2776   1.491   1.609   4.715
  855WAT     H2 2777   1.477   1.757   4.684
  856WAT      O 2778   0.805   4.260   3.293
  856WAT     H1 2779   0.771   4.248   3.204
  856WAT     H2 2780   0.887   4.211   3.293
  857WAT      O 2781   1.609   4.101   2.530
  857WAT     H1 2782   1.519   4.091   2.562
  857WAT     H2 2783   1.603   4.171   2.465
  858WAT      O 2784   1.742   3.150   2.561
  858WAT     H1 2785   1.673   3.146   2.627
  858WAT     H2 2786   1.717   3.084   2.495
  859WAT      O 2787   1.936   4.204   4.417
  859WAT     H1 2788   1.905   4.129   4.468
  859WAT     H2 2789   1.859   4.232   4.367
  860WAT      O 2790   1.380   3.021   2.254
  860WAT     H1 2791   1.430   2.980   2.325
  860WAT     H2 2792   1.440   3.024   2.180
  861WAT      O 2793   3.665   3.729   4.122
  861WAT     H1 2794   3.702   3.667   4.185
  861WAT     H2 2795   3.740   3.754   4.067
  862WAT      O 2796   0.209   1.514   4.716
  862WAT     H1 2797   0.299   1.484   4.704
  862WAT     H2 2798   0.156   1.436   4.698
  863WAT      O 2799   0.740   4.513   3.707
  863WAT     H1 2800   0.811   4.466   3.665
  863WAT     H2 2801   0.776   4.541   3.792
  864WAT      O 2802   3.613   3.857   2.199
  864WAT     H1 2803   3.539   3.914   2.221
  864WAT     H2 2804   3.668   3.859   2.277
  865WAT      O 2805   3.989   4.001   4.539
  865WAT     H1 2806   3.990   4.097   4.546
  865WAT     H2 2807   3.977   3.984   4.446
  866WAT      O 2808   0.284   1.287   0.499
  866WAT     H1 2809   0.270   1.373   0.540
  866WAT     H2 2810   0.378   1.272   0.504
  867WAT      O 2811   3.395   0.185   4.520
  867WAT     H1 2812   3.333   0.169   4.592
  867WAT     H2 2813   3.354   0.144   4.444
  868WAT      O 2814   0.042   4.642   4.531
  868WAT     H1 2815   0.061   4.722   4.483
  868WAT     H2 2816  -0.029   4.601   4.482
  869WAT      O 2817   2.890   2.288   1.312
  869WAT     H1 2818   2.801   2.308   1.284
  869WAT     H2 2819   2.941   2.292   1.231
  870WAT      O 2820   0.010   4.159   3.740
  870WAT     H1 2821   0.030   4.232   3.683
  870WAT     H2 2822   0.011   4.082   3.683
  871WAT      O 2823   0.750   3.153   3.837
  871WAT     H1 2824   0.748   3.197   3.752
  871WAT     H2 2825   0.781   3.219   3.899
  872WAT      O 2826   3.116   1.172   0.519
  872WAT     H1 2827   3.022   1.152   0.516
  872WAT     H2 2828   3.146   1.132   0.600
  873WAT      O 2829   3.773   3.195   4.364
  873WAT     H1 2830   3.763   3.127   4.297
  873WAT     H2 2831   3.868   3.203   4.374
  874WAT      O 2832   3.395   3.282   3.363
  874WAT     H1 2833   3.344   3.344   3.416
  874WAT     H2 2834   3.485   3.291   3.394
  875WAT      O 2835   1.070   0.521   4.516
  875WAT     H1 2836   1.038   0.590   4.573
  875WAT     H2 2837   0.992   0.480   4.480
  876WAT      O 2838   4.198   4.023   4.182
  876WAT     H1 2839   4.236   3.982   4.259
  876WAT     H2 2840   4.273   4.044   4.126
  877WAT      O 2841   1.594   3.489   3.738
  877WAT     H1 2842   1.613   3.495   3.645
  877WAT     H2 2843   1.592   3.395   3.756
  878WAT      O 2844   4.047   3.597   1.409
  878WAT     H1 2845   4.019   3.688   1.404
  878WAT     H2 2846   4.038   3.574   1.501
  879WAT      O 2847   3.757   3.071   0.897
  879WAT     H1 2848   3.695   3.028   0.954
  879WAT     H2 2849   3.842   3.055   0.937
  880WAT      O 2850   3.929   3.540   2.045
  880WAT     H1 2851   3.932   3.629   2.009
  880WAT     H2 2852   3.876   3.548   2.124
  881WAT      O 2853   1.587   3.929   3.817
  881WAT     H1 2854   1.569   3.840   3.844
  881WAT     H2 2855   1.523   3.982   3.865
  882WAT      O 2856   0.054   3.768   4.081
  882WAT     H1 2857   0.137   3.723   4.097
  882WAT     H2 2858   0.036   3.754   3.989
  883WAT      O 2859   4.033   3.031   2.312
  883WAT     H1 2860   4.057   3.005   2.223
  883WAT     H2 2861   4.112   3.072   2.347
  884WAT      O 2862   0.452   0.077   2.637
  884WAT     H1 2863   0.525   0.054   2.694
  884WAT     H2 2864   0.397  -0.002   2.635
  885WAT      O 2865   3.151   4.761   0.256
  885WAT     H1 2866   3.123   4.765   0.348
  885WAT     H2 2867   3.204   4.682   0.251
  886WAT      O 2868   0.901   0.966   1.950
  886WAT     H1 2869   0.853   1.015   1.883
  886WAT     H2 2870   0.839   0.959   2.023
  887WAT      O 2871   1.776   1.419   1.907
  887WAT     H1 2872   1.806   1.474   1.979
  887WAT     H2 2873   1.686   1.448   1.891
  888WAT      O 2874   3.663   2.548   1.924
  888WAT     H1 2875   3.629   2.609   1.859
  888WAT     H2 2876   3.748   2.584   1.949
  889WAT      O 2877   3.983   4.793   3.608
  889WAT     H1 2878   3.943   4.777   3.523
  889WAT     H2 2879   4.012   4.707   3.638
  890WAT      O 2880   4.174   0.790   4.560
  890WAT     H1 2881   4.252   0.844   4.551
  890WAT     H2 2882   4.191   0.735   4.636
  891WAT      O 2883   1.804   3.596   0.968
  891WAT     H1 2884   1.884   3.645   0.946
  891WAT     H2 2885   1.803   3.522   0.907
  892WAT      O 2886   4.008   0.220   5.227
  892WAT     H1 2887   4.064   0.266   5.165
  892WAT     H2 2888   3.923   0.263   5.219
  893WAT      O 2889   3.263   0.595   4.195
  893WAT     H1 2890   3.264   0.522   4.133
  893WAT     H2 2891   3.209   0.564   4.268
  894WAT      O 2892   0.925   1.032   0.878
  894WAT     H1 2893   0.847   0.988   0.847
  894WAT     H2 2894   0.992   1.010   0.813
  895WAT      O 2895   3.453   3.140   2.122
  895WAT     H1 2896   3.386   3.182   2.176
  895WAT     H2 2897   3.531   3.136   2.177
  896WAT      O 2898   2.498   1.727   0.826
  896WAT     H1 2899   2.413   1.699   0.791
  896WAT     H2 2900   2.558   1.658   0.797
  897WAT      O 2901   0.122   4.320   3.565
  897WAT     H1 2902   0.066   4.295   3.491
  897WAT     H2 2903   0.126   4.415   3.560
  898WAT      O 2904   3.293   2.610   1.890
  898WAT     H1 2905   3.373   2.653   1.859
  898WAT     H2 2906   3.240   2.597   1.812
  899WAT      O 2907   1.548   2.530   5.152
  899WAT     H1 2908   1.610   2.598   5.128
  899WAT     H2 2909   1.464   2.576   5.162
  900WAT      O 2910   2.169   0.364   1.915
  900WAT     H1 2911   2.110   0.373   1.840
  900WAT     H2 2912   2.256   0.380   1.878
  901WAT      O 2913   4.473   1.636   2.601
  901WAT     H1 2914   4.528   1.711   2.624
  901WAT     H2 2915   4.493   1.570   2.667
  902WAT      O 2916   4.169   2.283   3.720
  902WAT     H1 2917   4.239   2.239   3.767
  902WAT     H2 2918   4.199   2.374   3.716
  903WAT      O 2919   2.613   1.284   0.536
  903WAT     H1 2920   2.659   1.218   0.484
  903WAT     H2 2921   2.663   1.364   0.522
  904WAT      O 2922   0.658   1.055   5.133
  904WAT     H1 2923   0.640   1.096   5.218
  904WAT     H2 2924   0.610   0.972   5.135
  905WAT      O 2925   1.537   0.926   4.819
  905WAT     H1 2926   1.538   0.902   4.727
  905WAT     H2 2927   1.608   0.989   4.827
  906WAT      O 2928   1.815   5.037   0.338
  906WAT     H1 2929   1.760   5.057   0.414
  906WAT     H2 2930   1.756   4.992   0.277
  907WAT      O 2931   2.706   0.745   3.992
  907WAT     H1 2932   2.782   0.800   4.012
  907WAT     H2 2933   2.666   0.728   4.077
  908WAT      O 2934   1.676   1.032   3.623
  908WAT     H1 2935   1.755   1.045   3.570
  908WAT     H2 2936   1.604   1.031   3.560
  909WAT      O 2937   1.854   0.058   4.013
  909WAT     H1 2938   1.769   0.095   4.039
  909WAT     H2 2939   1.852  -0.032   4.045
  910WAT      O 2940   1.933   1.636   2.646
  910WAT     H1 2941   2.020   1.601   2.624
  910WAT     H2 2942   1.949   1.727   2.671
  911WAT      O 2943   2.429   3.595   4.155
  911WAT     H1 2944   2.461   3.677   4.193
  911WAT     H2 2945   2.413   3.616   4.063
  912WAT      O 2946   4.107   0.826   2.036
  912WAT     H1 2947   4.080   0.767   1.965
  912WAT     H2 2948   4.036   0.889   2.043
  913WAT      O 2949   0.029   2.821   3.065
  913WAT     H1 2950   0.086   2.755   3.026
  913WAT     H2 2951   0.059   2.905   3.028
  914WAT      O 2952   2.496   3.659   0.421
  914WAT     H1 2953   2.435   3.591   0.392
  914WAT     H2 2954   2.445   3.713   0.482
  915WAT      O 2955   1.952   4.662   4.284
  915WAT     H1 2956   1.858   4.646   4.297
  915WAT     H2 2957   1.982   4.584   4.237
  916WAT      O 2958   4.045   4.343   5.269
  916WAT     H1 2959   4.042   4.261   5.317
  916WAT     H2 2960   4.128   4.340   5.221
  917WAT      O 2961   2.389   0.597   4.443
  917WAT     H1 2962   2.306   0.560   4.471
  917WAT     H2 2963   2.420   0.647   4.519
  918WAT      O 2964   1.345   4.930   3.949
  918WAT     H1 2965   1.402   4.987   3.899
  918WAT     H2 2966   1.306   4.986   4.016
  919WAT      O 2967   1.016   4.889   2.568
  919WAT     H1 2968   1.089   4.828   2.561
  919WAT     H2 2969   0.992   4.887   2.661
  920WAT      O 2970   3.937   2.820   1.748
  920WAT     H1 2971   3.848   2.853   1.759
  920WAT     H2 2972   3.961   2.786   1.835
  921WAT      O 2973   0.972   2.309   5.008
  921WAT     H1 2974   1.003   2.300   5.098
  921WAT     H2 2975   0.994   2.400   4.986
  922WAT      O 2976   2.374   0.813   0.114
  922WAT     H1 2977   2.373   0.754   0.039
  922WAT     H2 2978   2.422   0.890   0.084
  923WAT      O 2979   1.532   3.914   2.002
  923WAT     H1 2980   1.563   4.002   1.983
  923WAT     H2 2981   1.587   3.857   1.947
  924WAT      O 2982   1.282   1.734   0.289
  924WAT     H1 2983   1.259   1.814   0.242
  924WAT     H2 2984   1.344   1.689   0.230
  925WAT      O 2985   3.151   1.856   3.533
  925WAT     H1 2986   3.228   1.905   3.508
  925WAT     H2 2987   3.078   1.915   3.517
  926WAT      O 2988   0.270   3.780   3.180
  926WAT     H1 2989   0.253   3.854   3.122
  926WAT     H2 2990   0.271   3.818   3.268
  927WAT      O 2991   4.204   4.356   3.926
  927WAT     H1 2992   4.188   4.410   4.004
  927WAT     H2 2993   4.216   4.268   3.961
  928WAT      O 2994   2.703   1.291   1.233
  928WAT     H1 2995   2.722   1.383   1.216
  928WAT     H2 2996   2.630   1.271   1.174
  929WAT      O 2997   2.560   5.100   4.419
  929WAT     H1 2998   2.643   5.147   4.430
  929WAT     H2 2999   2.562   5.070   4.329
  930WAT      O 3000   3.978   0.144   1.764
  930WAT     H1 3001   4.073   0.155   1.764
  930WAT     H2 3002   3.964   0.053   1.739
  931WAT      O 3003   0.088   3.496   3.883
  931WAT     H1 3004   0.102   3.588   3.858
  931WAT     H2 3005   0.136   3.446   3.818
  932WAT      O 3006   2.345   1.156   2.499
  932WAT     H1 3007   2.294   1.075   2.497
  932WAT     H2 3008   2.355   1.182   2.407
  933WAT      O 3009   1.597   3.926   2.940
  933WAT     H1 3010   1.617   3.947   3.032
  933WAT     H2 3011   1.647   3.990   2.890
  934WAT      O 3012   3.829   3.266   2.006
  934WAT     H1 3013   3.875   3.346   2.029
  934WAT     H2 3014   3.841   3.258   1.911
  935WAT      O 3015   1.342   1.563   1.751
  935WAT     H1 3016   1.266   1.593   1.700
  935WAT     H2 3017   1.351   1.471   1.728
  936WAT      O 3018   0.005   4.005   0.176
  936WAT     H1 3019   0.060   4.041   0.246
  936WAT     H2 3020   0.035   3.914   0.167
  937WAT      O 3021   4.004   1.544   4.169
  937WAT     H1 3022   3.964   1.567   4.252
  937WAT     H2 3023   3.958   1.599   4.104
  938WAT      O 3024   1.908   3.161   5.015
  938WAT     H1 3025   1.812   3.159   5.008
  938WAT     H2 3026   1.927   3.242   5.061
  939WAT      O 3027   0.539   0.125   1.446
  939WAT     H1 3028   0.592   0.111   1.524
  939WAT     H2 3029   0.604   0.129   1.375
  940WAT      O 3030   1.358   0.882   4.355
  940WAT     H1 3031   1.320   0.797   4.334
  940WAT     H2 3032   1.421   0.864   4.424
  941WAT      O 3033   2.783   4.131   3.146
  941WAT     H1 3034   2.784   4.145   3.241
  941WAT     H2 3035   2.699   4.087   3.130
  942WAT      O 3036   3.535   1.521   3.197
  942WAT     H1 3037   3.480   1.442   3.193
  942WAT     H2 3038   3.475   1.591   3.221
  943WAT      O 3039   0.531   2.240   1.279
  943WAT     H1 3040   0.488   2.163   1.240
  943WAT     H2 3041   0.503   2.239   1.370
  944WAT      O 3042   2.388   2.689   1.289
  944WAT     H1 3043   2.371   2.742   1.212
  944WAT     H2 3044   2.471   2.721   1.323
  945WAT      O 3045   4.444   2.491   4.590
  945WAT     H1 3046   4.451   2.403   4.628
  945WAT     H2 3047   4.454   2.550   4.665
  946WAT      O 3048   2.055   3.434   1.567
  946WAT     H1 3049   2.068   3.357   1.510
  946WAT     H2 3050   2.031   3.397   1.652
  947WAT      O 3051   4.295   0.846   2.417
  947WAT     H1 3052   4.356   0.783   2.378
  947WAT     H2 3053   4.311   0.839   2.512
  948WAT      O 3054   4.478   0.100   5.108
  948WAT     H1 3055   4.408   0.131   5.166
  948WAT     H2 3056   4.558   0.130   5.150
  949WAT      O 3057   2.389   2.081   5.092
  949WAT     H1 3058   2.430   2.156   5.051
  949WAT     H2 3059   2.463   2.021   5.111
  950WAT      O 3060   2.092   4.686   3.985
  950WAT     H1 3061   2.156   4.660   4.051
  950WAT     H2 3062   2.129   4.765   3.946
  951WAT      O 3063   0.038   2.674   3.867
  951WAT     H1 3064   0.066   2.660   3.777
  951WAT     H2 3065   0.120   2.680   3.917
  952WAT      O 3066   1.212   1.624   3.585
  952WAT     H1 3067   1.140   1.561   3.579
  952WAT     H2 3068   1.289   1.571   3.606
  953WAT      O 3069   1.932   5.140   4.932
  953WAT     H1 3070   1.983   5.063   4.960
  953WAT     H2 3071   1.986   5.181   4.865
  954WAT      O 3072   1.532   3.117   0.678
  954WAT     H1 3073   1.612   3.087   0.636
  954WAT     H2 3074   1.511   3.200   0.632
  955WAT      O 3075   2.424   0.461   2.929
  955WAT     H1 3076   2.357   0.487   2.867
  955WAT     H2 3077   2.376   0.412   2.997
  956WAT      O 3078   1.391   0.610   5.299
  956WAT     H1 3079   1.410   0.516   5.305
  956WAT     H2 3080   1.407   0.632   5.208
  957WAT      O 3081   0.948   1.438   1.592
  957WAT     H1 3082   0.920   1.367   1.651
  957WAT     H2 3083   1.001   1.396   1.526
  958WAT      O 3084   2.641   1.061   2.128
  958WAT     H1 3085   2.584   1.113   2.070
  958WAT     H2 3086   2.582   0.995   2.165
  959WAT      O 3087   0.675   2.904   1.449
  959WAT     H1 3088   0.694   2.934   1.361
  959WAT     H2 3089   0.757   2.916   1.498
  960WAT      O 3090   3.273   2.884   1.409
  960WAT     H1 3091   3.278   2.953   1.473
  960WAT     H2 3092   3.180   2.860   1.404
  961WAT      O 3093   3.152   4.772   3.495
  961WAT     H1 3094   3.231   4.720   3.508
  961WAT     H2 3095   3.127   4.754   3.404
  962WAT      O 3096   0.581   3.715   2.054
  962WAT     H1 3097   0.498   3.735   2.097
  962WAT     H2 3098   0.580   3.620   2.042
  963WAT      O 3099   1.572   1.084   0.192
  963WAT     H1 3100   1.609   1.027   0.126
  963WAT     H2 3101   1.647   1.136   0.223
  964WAT      O 3102   0.393   3.744   0.686
  964WAT     H1 3103   0.332   3.805   0.645
  964WAT     H2 3104   0.421   3.788   0.766
  965WAT      O 3105   2.676   2.868   2.068
  965WAT     H1 3106   2.687   2.881   1.974
  965WAT     H2 3107   2.659   2.775   2.078
  966WAT      O 3108   3.142   2.867   0.328
  966WAT     H1 3109   3.218   2.857   0.270
  966WAT     H2 3110   3.177   2.907   0.407
  967WAT      O 3111   1.657   1.864   1.126
  967WAT     H1 3112   1.614   1.803   1.185
  967WAT     H2 3113   1.615   1.948   1.145
  968WAT      O 3114   0.556   0.631   0.590
  968WAT     H1 3115   0.501   0.702   0.558
  968WAT     H2 3116   0.497   0.575   0.641
  969WAT      O 3117   0.897   4.976   0.824
  969WAT     H1 3118   0.808   4.947   0.805
  969WAT     H2 3119   0.926   5.021   0.745
  970WAT      O 3120   3.996   2.679   3.179
  970WAT     H1 3121   3.953   2.763   3.177
  970WAT     H2 3122   4.021   2.662   3.088
  971WAT      O 3123   4.222   4.665   2.424
  971WAT     H1 3124   4.260   4.672   2.511
  971WAT     H2 3125   4.140   4.616   2.437
  972WAT      O 3126   3.308   2.074   5.150
  972WAT     H1 3127   3.311   2.160   5.194
  972WAT     H2 3128   3.293   2.097   5.057
  973WAT      O 3129   2.640   4.560   4.967
  973WAT     H1 3130   2.732   4.561   4.995
  973WAT     H2 3131   2.635   4.485   4.907
  974WAT      O 3132   4.019   4.516   3.794
  974WAT     H1 3133   3.961   4.459   3.744
  974WAT     H2 3134   4.079   4.456   3.838
  975WAT      O 3135   2.533   1.330   1.862
  975WAT     H1 3136   2.515   1.238   1.843
  975WAT     H2 3137   2.513   1.340   1.955
  976WAT      O 3138   1.391   3.445   4.042
  976WAT     H1 3139   1.333   3.455   3.967
  976WAT     H2 3140   1.373   3.357   4.075
  977WAT      O 3141   1.122   1.231   5.143
  977WAT     H1 3142   1.161   1.182   5.216
  977WAT     H2 3143   1.138   1.323   5.163
  978WAT      O 3144   4.382   3.242   4.040
  978WAT     H1 3145   4.435   3.179   3.991
  978WAT     H2 3146   4.292   3.221   4.014
  979WAT      O 3147   3.417   3.726   0.750
  979WAT     H1 3148   3.451   3.712   0.662
  979WAT     H2 3149   3.433   3.819   0.768
  980WAT      O 3150   0.056   1.967   2.125
  980WAT     H1 3151   0.118   1.997   2.191
  980WAT     H2 3152   0.041   1.875   2.147
  981WAT      O 3153   1.930   3.630   0.261
  981WAT     H1 3154   1.992   3.659   0.329
  981WAT     H2 3155   1.863   3.698   0.260
  982WAT      O 3156   2.068   2.140   0.048
  982WAT     H1 3157   2.019   2.064   0.018
  982WAT     H2 3158   2.150   2.136   0.000
  983WAT      O 3159   3.635   1.175   2.102
  983WAT     H1 3160   3.613   1.234   2.174
  983WAT     H2 3161   3.559   1.116   2.094
  984WAT      O 3162   0.211   1.524   0.827
  984WAT     H1 3163   0.300   1.545   0.854
  984WAT     H2 3164   0.156   1.591   0.866
  985WAT      O 3165   2.164   4.582   0.558
  985WAT     H1 3166   2.249   4.615   0.530
  985WAT     H2 3167   2.102   4.615   0.493
  986WAT      O 3168   4.129   2.543   4.709
  986WAT     H1 3169   4.209   2.512   4.752
  986WAT     H2 3170   4.113   2.479   4.640
  987WAT      O 3171   0.043   1.478   2.827
  987WAT     H1 3172   0.060   1.524   2.908
  987WAT     H2 3173   0.106   1.405   2.829
  988WAT      O 3174   0.317   2.015   3.861
  988WAT     H1 3175   0.266   1.942   3.827
  988WAT     H2 3176   0.268   2.094   3.836
  989WAT      O 3177   2.052   4.869   2.368
  989WAT     H1 3178   1.996   4.901   2.298
  989WAT     H2 3179   2.028   4.923   2.444
  990WAT      O 3180   0.837   2.067   1.626
  990WAT     H1 3181   0.778   2.116   1.683
  990WAT     H2 3182   0.857   2.127   1.554
  991WAT      O 3183   0.023   2.466   0.587
  991WAT     H1 3184   0.071   2.385   0.581
  991WAT     H2 3185   0.074   2.528   0.534
  992WAT      O 3186   3.054   1.053   2.987
  992WAT     H1 3187   2.973   1.035   3.034
  992WAT     H2 3188   3.036   1.027   2.897
  993WAT      O 3189   3.156   2.690   1.020
  993WAT     H1 3190   3.087   2.637   1.059
  993WAT     H2 3191   3.212   2.628   0.974
  994WAT      O 3192   2.324   2.959   1.456
  994WAT     H1 3193   2.250   2.946   1.397
  994WAT     H2 3194   2.362   3.043   1.427
  995WAT      O 3195   3.956   0.082   0.799
  995WAT     H1 3196   3.891   0.072   0.730
  995WAT     H2 3197   3.934   0.016   0.864
  996WAT      O 3198   1.899   4.416   2.992
  996WAT     H1 3199   1.826   4.473   2.968
  996WAT     H2 3200   1.976   4.470   2.981
  997WAT      O 3201   1.427   3.486   2.417
  997WAT     H1 3202   1.421   3.437   2.334
  997WAT     H2 3203   1.495   3.550   2.401
  998WAT      O 3204   0.519   0.031   4.827
  998WAT     H1 3205   0.463  -0.034   4.786
  998WAT     H2 3206   0.460   0.084   4.881
  999WAT      O 3207   4.182   4.311   4.291
  999WAT     H1 3208   4.161   4.395   4.251
  999WAT     H2 3209   4.137   4.247   4.237
 1000WAT      O 3210   2.314   3.835   0.528
 1000WAT     H1 3211   2.297   3.886   0.607
 1000WAT     H2 3212   2.295   3.895   0.456
 1001WAT      O 3213   0.210   2.367   0.005
 1001WAT     H1 3214   0.299   2.393   0.029
 1001WAT     H2 3215   0.196   2.283   0.050
 1002WAT      O 3216   4.276   2.112   0.903
 1002WAT     H1 3217   4.216   2.044   0.875
 1002WAT     H2 3218   4.350   2.107   0.842
 1003WAT      O 3219   0.955   1.333   1.172
 1003WAT     H1 3220   1.006   1.353   1.251
 1003WAT     H2 3221   0.864   1.340   1.199
 1004WAT      O 3222   2.190   4.448   4.437
 1004WAT     H1 3223   2.267   4.390   4.439
 1004WAT     H2 3224   2.197   4.499   4.518
 1005WAT      O 3225   3.441   3.667   0.131
 1005WAT     H1 3226   3.414   3.653   0.040
 1005WAT     H2 3227   3.397   3.748   0.156
 1006WAT      O 3228   1.858   2.243   3.262
 1006WAT     H1 3229   1.772   2.224   3.223
 1006WAT     H2 3230   1.845   2.327   3.309
 1007WAT      O 3231   3.280   1.918   0.774
 1007WAT     H1 3232   3.358   1.933   0.826
 1007WAT     H2 3233   3.290   1.827   0.742
 1008WAT      O 3234   1.566   3.185   0.953
 1008WAT     H1 3235   1.583   3.097   0.987
 1008WAT     H2 3236   1.541   3.170   0.861
 1009WAT      O 3237   3.308   3.414   2.568
 1009WAT     H1 3238   3.371   3.475   2.607
 1009WAT     H2 3239   3.223   3.450   2.592
 1010WAT      O 3240   1.668   4.021   3.178
 1010WAT     H1 3241   1.749   4.068   3.155
 1010WAT     H2 3242   1.692   3.971   3.256
 1011WAT      O 3243   1.244   2.911   3.367
 1011WAT     H1 3244   1.261   2.817   3.358
 1011WAT     H2 3245   1.161   2.914   3.415
 1012WAT      O 3246   0.770   4.941   4.902
 1012WAT     H1 3247   0.765   5.034   4.924
 1012WAT     H2 3248   0.827   4.938   4.825
 1013WAT      O 3249   3.527   3.547   2.238
 1013WAT     H1 3250   3.506   3.639   2.220
 1013WAT     H2 3251   3.620   3.549   2.263
 1014WAT      O 3252   4.282   2.354   0.086
 1014WAT     H1 3253   4.279   2.444   0.051
 1014WAT     H2 3254   4.274   2.366   0.181
 1015WAT      O 3255   3.551   2.747   3.047
 1015WAT     H1 3256   3.528   2.822   2.994
 1015WAT     H2 3257   3.639   2.765   3.078
 1016WAT      O 3258   2.596   4.196   2.702
 1016WAT     H1 3259   2.611   4.108   2.669
 1016WAT     H2 3260   2.601   4.251   2.623
 1017WAT      O 3261   0.328   0.627   0.168
 1017WAT     H1 3262   0.362   0.587   0.088
 1017WAT     H2 3263   0.279   0.557   0.211
 1018WAT      O 3264   4.205   0.515   0.833
 1018WAT     H1 3265   4.220   0.514   0.738
 1018WAT     H2 3266   4.218   0.607   0.857
 1019WAT      O 3267   2.191   1.412   3.400
 1019WAT     H1 3268   2.169   1.425   3.307
 1019WAT     H2 3269   2.168   1.321   3.418
 1020WAT      O 3270   3.378   4.358   4.429
 1020WAT     H1 3271   3.310   4.313   4.479
 1020WAT     H2 3272   3.452   4.298   4.429
 1021WAT      O 3273   0.299   1.570   0.265
 1021WAT     H1 3274   0.341   1.499   0.314
 1021WAT     H2 3275   0.334   1.561   0.176
 1022WAT      O 3276   2.711   0.462   4.564
 1022WAT     H1 3277   2.623   0.488   4.590
 1022WAT     H2 3278   2.739   0.529   4.502
 1023WAT      O 3279   2.034   1.353   5.240
 1023WAT     H1 3280   2.015   1.292   5.169
 1023WAT     H2 3281   2.101   1.412   5.204
 1024WAT      O 3282   0.446   0.978   1.712
 1024WAT     H1 3283   0.456   1.004   1.621
 1024WAT     H2 3284   0.390   1.045   1.751
 1025WAT      O 3285   0.238   3.418   0.965
 1025WAT     H1 3286   0.274   3.432   0.877
 1025WAT     H2 3287   0.150   3.386   0.951
 1026WAT      O 3288   0.456   2.701   3.078
 1026WAT     H1 3289   0.544   2.712   3.114
 1026WAT     H2 3290   0.398   2.714   3.153
 1027WAT      O 3291   0.276   0.153   3.415
 1027WAT     H1 3292   0.338   0.092   3.454
 1027WAT     H2 3293   0.305   0.163   3.324
 1028WAT      O 3294   1.030   1.356   4.430
 1028WAT     H1 3295   1.065   1.357   4.519
 1028WAT     H2 3296   1.070   1.278   4.390
 1029WAT      O 3297   0.283   2.433   4.131
 1029WAT     H1 3298   0.377   2.442   4.115
 1029WAT     H2 3299   0.277   2.400   4.221
 1030WAT      O 3300   1.825   2.025   0.773
 1030WAT     H1 3301   1.821   1.984   0.858
 1030WAT     H2 3302   1.899   1.982   0.728
 1031WAT      O 3303   1.232   0.079   0.470
 1031WAT     H1 3304   1.305   0.126   0.511
 1031WAT     H2 3305   1.254   0.075   0.377
 1032WAT      O 3306   2.949   4.118   0.610
 1032WAT     H1 3307   2.948   4.105   0.516
 1032WAT     H2 3308   2.869   4.076   0.641
 1033WAT      O 3309   0.724   2.625   1.149
 1033WAT     H1 3310   0.745   2.699   1.207
 1033WAT     H2 3311   0.642   2.590   1.184
 1034WAT      O 3312   2.001   0.823   3.362
 1034WAT     H1 3313   1.998   0.913   3.394
 1034WAT     H2 3314   2.009   0.770   3.441
 1035WAT      O 3315   2.370   5.023   1.943
 1035WAT     H1 3316   2.417   5.001   1.863
 1035WAT     H2 3317   2.439   5.046   2.006
 1036WAT      O 3318   1.860   0.193   3.457
 1036WAT     H1 3319   1.785   0.252   3.470
 1036WAT     H2 3320   1.936   0.250   3.460
 1037WAT      O 3321   0.823   1.643   2.805
 1037WAT     H1 3322   0.821   1.553   2.838
 1037WAT     H2 3323   0.902   1.649   2.751
 1038WAT      O 3324   0.979   2.017   0.734
 1038WAT     H1 3325   1.028   2.074   0.792
 1038WAT     H2 3326   0.994   1.928   0.768
 1039WAT      O 3327   3.711   0.100   1.109
 1039WAT     H1 3328   3.651   0.078   1.037
 1039WAT     H2 3329   3.766   0.170   1.075
 1040WAT      O 3330   3.507   4.276   4.034
 1040WAT     H1 3331   3.419   4.281   4.073
 1040WAT     H2 3332   3.492   4.273   3.940
 1041WAT      O 3333   2.896   3.581   2.908
 1041WAT     H1 3334   2.801   3.572   2.915
 1041WAT     H2 3335   2.918   3.650   2.970
 1042WAT      O 3336   3.651   2.426   4.587
 1042WAT     H1 3337   3.579   2.384   4.633
 1042WAT     H2 3338   3.624   2.518   4.580
 1043WAT      O 3339   1.747   5.024   4.661
 1043WAT     H1 3340   1.744   4.957   4.593
 1043WAT     H2 3341   1.796   5.096   4.622
 1044WAT      O 3342   3.767   2.207   4.710
 1044WAT     H1 3343   3.689   2.245   4.670
 1044WAT     H2 3344   3.806   2.154   4.640
 1045WAT      O 3345   4.521   4.951   5.109
 1045WAT     H1 3346   4.496   4.921   5.021
 1045WAT     H2 3347   4.484   5.039   5.116
 1046WAT      O 3348   3.042   1.942   0.491
 1046WAT     H1 3349   3.099   1.879   0.449
 1046WAT     H2 3350   3.101   2.008   0.527
 1047WAT      O 3351   1.194   0.144   0.987
 1047WAT     H1 3352   1.173   0.160   0.895
 1047WAT     H2 3353   1.130   0.078   1.015
 1048WAT      O 3354   0.715   0.010   2.712
 1048WAT     H1 3355   0.714   0.084   2.772
 1048WAT     H2 3356   0.807   0.000   2.688
 1049WAT      O 3357   4.411   1.405   0.018
 1049WAT     H1 3358   4.361   1.323   0.007
 1049WAT     H2 3359   4.347   1.466   0.055
 1050WAT      O 3360   1.658   3.965   1.135
 1050WAT     H1 3361   1.658   3.946   1.041
 1050WAT     H2 3362   1.674   4.059   1.141
 1051WAT      O 3363   4.211   1.698   2.296
 1051WAT     H1 3364   4.184   1.676   2.385
 1051WAT     H2 3365   4.306   1.685   2.296
 1052WAT      O 3366   2.890   0.288   3.226
 1052WAT     H1 3367   2.830   0.220   3.256
 1052WAT     H2 3368   2.838   0.340   3.164
 1053WAT      O 3369   0.710   4.565   0.754
 1053WAT     H1 3370   0.704   4.470   0.742
 1053WAT     H2 3371   0.620   4.593   0.772
 1054WAT      O 3372   3.140   0.544   3.516
 1054WAT     H1 3373   3.178   0.457   3.502
 1054WAT     H2 3374   3.212   0.598   3.547
 1055WAT      O 3375   3.790   1.432   4.667
 1055WAT     H1 3376   3.703   1.425   4.705
 1055WAT     H2 3377   3.803   1.350   4.620
 1056WAT      O 3378   1.302   0.202   1.758
 1056WAT     H1 3379   1.304   0.251   1.841
 1056WAT     H2 3380   1.379   0.234   1.710
 1057WAT      O 3381   1.599   1.883   3.068
 1057WAT     H1 3382   1.577   1.971   3.099
 1057WAT     H2 3383   1.530   1.827   3.103
 1058WAT      O 3384   4.275   3.972   5.000
 1058WAT     H1 3385   4.214   4.037   4.965
 1058WAT     H2 3386   4.283   3.907   4.930
 1059WAT      O 3387   2.358   4.594   3.783
 1059WAT     H1 3388   2.326   4.557   3.865
 1059WAT     H2 3389   2.294   4.662   3.761
 1060WAT      O 3390   3.800   4.420   0.748
 1060WAT     H1 3391   3.735   4.471   0.796
 1060WAT     H2 3392   3.827   4.477   0.676
 1061WAT      O 3393   2.083   0.347   3.267
 1061WAT     H1 3394   2.050   0.262   3.236
 1061WAT     H2 3395   2.166   0.358   3.221
 1062WAT      O 3396   2.391   4.669   0.439
 1062WAT     H1 3397   2.454   4.728   0.478
 1062WAT     H2 3398   2.443   4.614   0.380
 1063WAT      O 3399   3.002   4.526   0.611
 1063WAT     H1 3400   3.057   4.450   0.631
 1063WAT     H2 3401   2.961   4.548   0.695
 1064WAT      O 3402   3.286   4.204   0.972
 1064WAT     H1 3403   3.320   4.116   0.983
 1064WAT     H2 3404   3.339   4.259   1.029
 1065WAT      O 3405   3.586   1.563   2.059
 1065WAT     H1 3406   3.666   1.614   2.072
 1065WAT     H2 3407   3.578   1.557   1.964
 1066WAT      O 3408   4.299   4.590   0.052
 1066WAT     H1 3409   4.227   4.606  -0.009
 1066WAT     H2 3410   4.328   4.501   0.032
 1067WAT      O 3411   2.143   0.591   1.380
 1067WAT     H1 3412   2.105   0.506   1.360
 1067WAT     H2 3413   2.235   0.573   1.401
 1068WAT      O 3414   3.118   2.561   1.687
 1068WAT     H1 3415   3.148   2.497   1.623
 1068WAT     H2 3416   3.026   2.575   1.665
 1069WAT      O 3417   0.804   4.054   4.891
 1069WAT     H1 3418   0.724   4.040   4.941
 1069WAT     H2 3419   0.874   4.024   4.949
 1070WAT      O 3420   1.349   4.268   3.683
 1070WAT     H1 3421   1.411   4.338   3.661
 1070WAT     H2 3422   1.353   4.260   3.778
 1071WAT      O 3423   4.178   5.056   2.078
 1071WAT     H1 3424   4.173   5.144   2.115
 1071WAT     H2 3425   4.221   5.004   2.146
 1072WAT      O 3426   0.174   2.321   1.558
 1072WAT     H1 3427   0.154   2.344   1.649
 1072WAT     H2 3428   0.172   2.404   1.511
 1073WAT      O 3429   3.904   4.151   2.019
 1073WAT     H1 3430   3.958   4.120   1.945
 1073WAT     H2 3431   3.826   4.188   1.978
 1074WAT      O 3432   3.042   3.582   0.455
 1074WAT     H1 3433   3.045   3.667   0.499
 1074WAT     H2 3434   2.950   3.567   0.437
 1075WAT      O 3435   1.001   2.122   1.091
 1075WAT     H1 3436   0.988   2.030   1.118
 1075WAT     H2 3437   0.912   2.157   1.086
 1076WAT      O 3438   2.783   2.898   0.553
 1076WAT     H1 3439   2.747   2.866   0.636
 1076WAT     H2 3440   2.707   2.918   0.499
 1077WAT      O 3441   0.551   3.572   2.892
 1077WAT     H1 3442   0.536   3.651   2.840
 1077WAT     H2 3443   0.481   3.512   2.864
 1078WAT      O 3444   2.978   1.338   4.886
 1078WAT     H1 3445   3.027   1.257   4.882
 1078WAT     H2 3446   3.040   1.405   4.853
 1079WAT      O 3447   1.380   4.884   2.778
 1079WAT     H1 3448   1.316   4.886   2.850
 1079WAT     H2 3449   1.328   4.862   2.700
 1080WAT      O 3450   3.880   2.017   0.133
 1080WAT     H1 3451   3.874   1.975   0.047
 1080WAT     H2 3452   3.868   2.110   0.114
 1081WAT      O 3453   2.445   1.077   3.348
 1081WAT     H1 3454   2.463   1.106   3.437
 1081WAT     H2 3455   2.412   1.156   3.304
 1082WAT      O 3456   1.755   4.786   4.814
 1082WAT     H1 3457   1.736   4.877   4.794
 1082WAT     H2 3458   1.711   4.737   4.745
 1083WAT      O 3459   2.420   1.321   3.216
 1083WAT     H1 3460   2.418   1.416   3.221
 1083WAT     H2 3461   2.440   1.303   3.124
 1084WAT      O 3462   1.402   4.115   3.273
 1084WAT     H1 3463   1.465   4.076   3.213
 1084WAT     H2 3464   1.441   4.103   3.360
 1085WAT      O 3465   0.891   4.681   5.056
 1085WAT     H1 3466   0.809   4.649   5.094
 1085WAT     H2 3467   0.865   4.756   5.003
 1086WAT      O 3468   3.226   2.040   1.732
 1086WAT     H1 3469   3.224   2.086   1.648
 1086WAT     H2 3470   3.256   2.104   1.795
 1087WAT      O 3471   0.881   0.403   2.208
 1087WAT     H1 3472   0.976   0.413   2.207
 1087WAT     H2 3473   0.850   0.458   2.136
 1088WAT      O 3474   0.680   3.667   2.492
 1088WAT     H1 3475   0.674   3.698   2.402
 1088WAT     H2 3476   0.767   3.695   2.521
 1089WAT      O 3477   4.484   1.017   2.995
 1089WAT     H1 3478   4.469   0.935   3.043
 1089WAT     H2 3479   4.579   1.021   2.986
 1090WAT      O 3480   0.750   3.936   3.512
 1090WAT     H1 3481   0.734   3.868   3.446
 1090WAT     H2 3482   0.744   4.018   3.463
 1091WAT      O 3483   0.334   3.294   0.269
 1091WAT     H1 3484   0.406   3.312   0.329
 1091WAT     H2 3485   0.347   3.202   0.242
 1092WAT      O 3486   2.061   2.758   0.644
 1092WAT     H1 3487   2.108   2.838   0.667
 1092WAT     H2 3488   1.989   2.753   0.707
 1093WAT      O 3489   3.944   1.159   0.786
 1093WAT     H1 3490   3.891   1.106   0.846
 1093WAT     H2 3491   4.023   1.106   0.771
 1094WAT      O 3492   3.348   4.949   2.561
 1094WAT     H1 3493   3.279   4.928   2.499
 1094WAT     H2 3494   3.323   4.904   2.641
 1095WAT      O 3495   2.669   5.029   0.958
 1095WAT     H1 3496   2.628   4.954   0.915
 1095WAT     H2 3497   2.734   5.061   0.895
 1096WAT      O 3498   3.819   1.070   4.832
 1096WAT     H1 3499   3.841   1.005   4.765
 1096WAT     H2 3500   3.903   1.101   4.864
 1097WAT      O 3501   0.671   4.505   1.144
 1097WAT     H1 3502   0.756   4.461   1.135
 1097WAT     H2 3503   0.691   4.589   1.183
 1098WAT      O 3504   3.132   0.184   3.174
 1098WAT     H1 3505   3.193   0.193   3.247
 1098WAT     H2 3506   3.051   0.224   3.205
 1099WAT      O 3507   1.795   2.513   0.245
 1099WAT     H1 3508   1.736   2.450   0.205
 1099WAT     H2 3509   1.762   2.598   0.215
 1100WAT      O 3510   3.988   2.391   3.986
 1100WAT     H1 3511   4.029   2.476   3.968
 1100WAT     H2 3512   3.895   2.406   3.973
 1101WAT      O 3513   1.589   1.515   2.137
 1101WAT     H1 3514   1.678   1.545   2.115
 1101WAT     H2 3515   1.581   1.530   2.231
 1102WAT      O 3516   3.785   3.630   0.749
 1102WAT     H1 3517   3.768   3.582   0.668
 1102WAT     H2 3518   3.764   3.721   0.729
 1103WAT      O 3519   3.582   1.550   1.080
 1103WAT     H1 3520   3.553   1.474   1.128
 1103WAT     H2 3521   3.669   1.527   1.047
 1104WAT      O 3522   3.442   1.121   0.199
 1104WAT     H1 3523   3.375   1.188   0.216
 1104WAT     H2 3524   3.523   1.160   0.229
 1105WAT      O 3525   2.834   0.361   2.085
 1105WAT     H1 3526   2.858   0.413   2.162
 1105WAT     H2 3527   2.915   0.357   2.033
 1106WAT      O 3528   4.167   4.564   4.626
 1106WAT     H1 3529   4.075   4.556   4.600
 1106WAT     H2 3530   4.165   4.618   4.705
 1107WAT      O 3531   2.653   0.758   2.283
 1107WAT     H1 3532   2.721   0.782   2.219
 1107WAT     H2 3533   2.668   0.816   2.357
 1108WAT      O 3534   1.781   1.678   4.722
 1108WAT     H1 3535   1.850   1.744   4.722
 1108WAT     H2 3536   1.711   1.715   4.668
 1109WAT      O 3537   1.156   4.044   1.150
 1109WAT     H1 3538   1.232   4.025   1.204
 1109WAT     H2 3539   1.143   4.139   1.159
 1110WAT      O 3540   1.120   1.653   0.504
 1110WAT     H1 3541   1.149   1.686   0.418
 1110WAT     H2 3542   1.201   1.623   0.546
 1111WAT      O 3543   0.292   4.039   0.103
 1111WAT     H1 3544   0.316   3.994   0.022
 1111WAT     H2 3545   0.266   3.969   0.163
 1112WAT      O 3546   2.527   2.216   0.837
 1112WAT     H1 3547   2.462   2.248   0.900
 1112WAT     H2 3548   2.477   2.202   0.756
 1113WAT      O 3549   4.280   0.419   2.225
 1113WAT     H1 3550   4.302   0.352   2.160
 1113WAT     H2 3551   4.217   0.475   2.181
 1114WAT      O 3552   3.761   2.851   0.710
 1114WAT     H1 3553   3.805   2.907   0.772
 1114WAT     H2 3554   3.808   2.768   0.716
 1115WAT      O 3555   4.070   2.657   3.997
 1115WAT     H1 3556   4.162   2.682   3.984
 1115WAT     H2 3557   4.031   2.664   3.910
 1116WAT      O 3558   1.344   2.859   4.571
 1116WAT     H1 3559   1.309   2.805   4.642
 1116WAT     H2 3560   1.282   2.931   4.563
 1117WAT      O 3561   0.536   5.061   2.171
 1117WAT     H1 3562   0.502   5.150   2.167
 1117WAT     H2 3563   0.577   5.055   2.258
 1118WAT      O 3564   3.363   3.873   1.772
 1118WAT     H1 3565   3.345   3.795   1.719
 1118WAT     H2 3566   3.441   3.911   1.731
 1119WAT      O 3567   2.660   1.356   3.474
 1119WAT     H1 3568   2.706   1.432   3.436
 1119WAT     H2 3569   2.695   1.280   3.426
 1120WAT      O 3570   0.767   1.682   1.726
 1120WAT     H1 3571   0.770   1.692   1.821
 1120WAT     H2 3572   0.768   1.587   1.712
 1121WAT      O 3573   3.246   0.671   0.408
 1121WAT     H1 3574   3.302   0.745   0.385
 1121WAT     H2 3575   3.177   0.710   0.462
 1122WAT      O 3576   1.537   1.172   1.772
 1122WAT     H1 3577   1.530   1.241   1.840
 1122WAT     H2 3578   1.450   1.132   1.769
 1123WAT      O 3579   1.162   2.634   0.013
 1123WAT     H1 3580   1.198   2.611   0.099
 1123WAT     H2 3581   1.070   2.654   0.030
 1124WAT      O 3582   3.151   0.866   2.629
 1124WAT     H1 3583   3.063   0.861   2.666
 1124WAT     H2 3584   3.203   0.806   2.683
 1125WAT      O 3585   0.002   0.521   1.901
 1125WAT     H1 3586  -0.012   0.616   1.892
 1125WAT     H2 3587   0.027   0.509   1.992
 1126WAT      O 3588   3.219   3.928   1.992
 1126WAT     H1 3589   3.206   3.855   1.931
 1126WAT     H2 3590   3.311   3.951   1.983
 1127WAT      O 3591   2.876   0.557   2.267
 1127WAT     H1 3592   2.927   0.611   2.327
 1127WAT     H2 3593   2.796   0.535   2.315
 1128WAT      O 3594   1.205   1.452   0.859
 1128WAT     H1 3595   1.122   1.415   0.890
 1128WAT     H2 3596   1.189   1.547   0.857
 1129WAT      O 3597   1.929   3.105   1.951
 1129WAT     H1 3598   1.948   3.095   2.044
 1129WAT     H2 3599   1.973   3.032   1.909
 1130WAT      O 3600   0.830   1.649   4.644
 1130WAT     H1 3601   0.853   1.688   4.559
 1130WAT     H2 3602   0.771   1.577   4.623
 1131WAT      O 3603   3.261   2.792   3.191
 1131WAT     H1 3604   3.212   2.713   3.212
 1131WAT     H2 3605   3.345   2.760   3.158
 1132WAT      O 3606   2.996   0.517   3.005
 1132WAT     H1 3607   2.930   0.585   2.995
 1132WAT     H2 3608   3.019   0.518   3.098
 1133WAT      O 3609   1.533   1.014   1.091
 1133WAT     H1 3610   1.600   1.035   1.156
 1133WAT     H2 3611   1.520   0.919   1.100
 1134WAT      O 3612   4.347   4.994   3.493
 1134WAT     H1 3613   4.425   4.957   3.450
 1134WAT     H2 3614   4.381   5.035   3.573
 1135WAT      O 3615   0.980   0.601   1.512
 1135WAT     H1 3616   0.971   0.591   1.606
 1135WAT     H2 3617   0.959   0.515   1.476
 1136WAT      O 3618   0.777   2.258   0.414
 1136WAT     H1 3619   0.746   2.201   0.344
 1136WAT     H2 3620   0.701   2.274   0.469
 1137WAT      O 3621   2.873   0.598   3.609
 1137WAT     H1 3622   2.966   0.580   3.621
 1137WAT     H2 3623   2.828   0.537   3.668
 1138WAT      O 3624   0.881   4.528   3.941
 1138WAT     H1 3625   0.839   4.534   4.027
 1138WAT     H2 3626   0.959   4.475   3.955
 1139WAT      O 3627   3.035   2.531   4.975
 1139WAT     H1 3628   3.015   2.617   4.934
 1139WAT     H2 3629   2.988   2.533   5.058
 1140WAT      O 3630   0.691   0.589   3.629
 1140WAT     H1 3631   0.614   0.597   3.573
 1140WAT     H2 3632   0.656   0.583   3.718
 1141WAT      O 3633   0.785   5.037   4.252
 1141WAT     H1 3634   0.765   5.001   4.338
 1141WAT     H2 3635   0.724   4.993   4.193
 1142WAT      O 3636   3.532   4.837   0.505
 1142WAT     H1 3637   3.533   4.831   0.410
 1142WAT     H2 3638   3.569   4.754   0.535
 1143WAT      O 3639   0.621   3.407   0.092
 1143WAT     H1 3640   0.680   3.472   0.130
 1143WAT     H2 3641   0.567   3.457   0.031
 1144WAT      O 3642   2.967   0.117   2.857
 1144WAT     H1 3643   3.037   0.177   2.830
 1144WAT     H2 3644   2.980   0.105   2.951
 1145WAT      O 3645   0.459   3.248   2.852
 1145WAT     H1 3646   0.387   3.239   2.790
 1145WAT     H2 3647   0.416   3.264   2.936
 1146WAT      O 3648   1.163   3.534   3.895
 1146WAT     H1 3649   1.204   3.558   3.812
 1146WAT     H2 3650   1.110   3.610   3.918
 1147WAT      O 3651   2.261   1.655   3.830
 1147WAT     H1 3652   2.349   1.693   3.837
 1147WAT     H2 3653   2.217   1.681   3.911
 1148WAT      O 3654   2.449   1.665   4.747
 1148WAT     H1 3655   2.469   1.721   4.672
 1148WAT     H2 3656   2.510   1.693   4.815
 1149WAT      O 3657   2.341   3.421   0.689
 1149WAT     H1 3658   2.260   3.371   0.684
 1149WAT     H2 3659   2.387   3.402   0.607
 1150WAT      O 3660   0.148   1.836   2.764
 1150WAT     H1 3661   0.076   1.898   2.744
 1150WAT     H2 3662   0.204   1.885   2.825
 1151WAT      O 3663   0.141   0.487   0.827
 1151WAT     H1 3664   0.085   0.518   0.899
 1151WAT     H2 3665   0.081   0.445   0.766
 1152WAT      O 3666   2.699   3.983   0.639
 1152WAT     H1 3667   2.646   4.033   0.577
 1152WAT     H2 3668   2.643   3.974   0.717
 1153WAT      O 3669   0.348   3.633   1.164
 1153WAT     H1 3670   0.443   3.649   1.164
 1153WAT     H2 3671   0.334   3.573   1.091
 1154WAT      O 3672   2.228   3.852   1.904
 1154WAT     H1 3673   2.138   3.847   1.938
 1154WAT     H2 3674   2.233   3.940   1.866
 1155WAT      O 3675   0.697   4.237   1.945
 1155WAT     H1 3676   0.693   4.143   1.928
 1155WAT     H2 3677   0.633   4.252   2.014
 1156WAT      O 3678   4.090   3.376   1.059
 1156WAT     H1 3679   4.092   3.457   1.009
 1156WAT     H2 3680   3.999   3.346   1.053
 1157WAT      O 3681   1.295   3.024   0.784
 1157WAT     H1 3682   1.384   3.041   0.752
 1157WAT     H2 3683   1.251   3.108   0.778
 1158WAT      O 3684   0.617   2.011   0.929
 1158WAT     H1 3685   0.584   1.984   1.014
 1158WAT     H2 3686   0.663   1.933   0.895
 1159WAT      O 3687   1.589   0.906   3.844
 1159WAT     H1 3688   1.520   0.961   3.882
 1159WAT     H2 3689   1.624   0.959   3.772
 1160WAT      O 3690   0.172   4.544   0.817
 1160WAT     H1 3691   0.196   4.561   0.908
 1160WAT     H2 3692   0.093   4.596   0.803
 1161WAT      O 3693   2.984   2.147   4.102
 1161WAT     H1 3694   3.000   2.223   4.048
 1161WAT     H2 3695   2.944   2.181   4.182
 1162WAT      O 3696   1.216   4.191   4.535
 1162WAT     H1 3697   1.146   4.172   4.597
 1162WAT     H2 3698   1.297   4.172   4.583
 1163WAT      O 3699   4.012   1.037   1.368
 1163WAT     H1 3700   3.975   0.960   1.414
 1163WAT     H2 3701   4.100   1.007   1.342
 1164WAT      O 3702   4.375   1.392   0.666
 1164WAT     H1 3703   4.344   1.314   0.620
 1164WAT     H2 3704   4.425   1.441   0.600
 1165WAT      O 3705   2.642   2.874   0.773
 1165WAT     H1 3706   2.558   2.913   0.749
 1165WAT     H2 3707   2.671   2.925   0.849
 1166WAT      O 3708   2.116   2.033   4.925
 1166WAT     H1 3709   2.178   2.092   4.968
 1166WAT     H2 3710   2.030   2.061   4.956
 1167WAT      O 3711   4.267   0.739   0.928
 1167WAT     H1 3712   4.335   0.761   0.992
 1167WAT     H2 3713   4.306   0.764   0.844
 1168WAT      O 3714   2.140   0.353   2.183
 1168WAT     H1 3715   2.060   0.400   2.206
 1168WAT     H2 3716   2.143   0.354   2.087
 1169WAT      O 3717   3.157   0.452   0.292
 1169WAT     H1 3718   3.191   0.534   0.328
 1169WAT     H2 3719   3.222   0.386   0.315
 1170WAT      O 3720   4.289   2.316   2.756
 1170WAT     H1 3721   4.195   2.307   2.741
 1170WAT     H2 3722   4.310   2.249   2.821
 1171WAT      O 3723   1.475   4.541   4.864
 1171WAT     H1 3724   1.554   4.496   4.895
 1171WAT     H2 3725   1.439   4.482   4.797
 1172WAT      O 3726   3.478   4.119   3.395
 1172WAT     H1 3727   3.477   4.173   3.316
 1172WAT     H2 3728   3.387   4.118   3.424
 1173WAT      O 3729   4.514   1.149   2.550
 1173WAT     H1 3730   4.484   1.172   2.638
 1173WAT     H2 3731   4.436   1.111   2.508
 1174WAT      O 3732   0.064   5.131   1.794
 1174WAT     H1 3733   0.015   5.087   1.724
 1174WAT     H2 3734   0.061   5.223   1.771
 1175WAT      O 3735   0.515   2.328   3.116
 1175WAT     H1 3736   0.567   2.407   3.130
 1175WAT     H2 3737   0.514   2.286   3.202
 1176WAT      O 3738   4.069   5.132   5.103
 1176WAT     H1 3739   4.019   5.150   5.023
 1176WAT     H2 3740   4.046   5.203   5.163
 1177WAT      O 3741   3.212   1.075   0.781
 1177WAT     H1 3742   3.265   0.999   0.804
 1177WAT     H2 3743   3.271   1.150   0.796
 1178WAT      O 3744   1.752   2.470   1.341
 1178WAT     H1 3745   1.788   2.551   1.309
 1178WAT     H2 3746   1.714   2.492   1.426
 1179WAT      O 3747   3.176   1.984   2.186
 1179WAT     H1 3748   3.237   1.991   2.259
 1179WAT     H2 3749   3.124   2.064   2.189
 1180WAT      O 3750   3.488   4.132   3.093
 1180WAT     H1 3751   3.542   4.053   3.090
 1180WAT     H2 3752   3.415   4.112   3.035
 1181WAT      O 3753   1.460   4.049   0.603
 1181WAT     H1 3754   1.550   4.055   0.635
 1181WAT     H2 3755   1.418   3.987   0.662
 1182WAT      O 3756   0.170   2.107   4.398
 1182WAT     H1 3757   0.204   2.064   4.319
 1182WAT     H2 3758   0.243   2.161   4.429
 1183WAT      O 3759   3.826   3.636   4.404
 1183WAT     H1 3760   3.775   3.570   4.358
 1183WAT     H2 3761   3.823   3.610   4.496
 1184WAT      O 3762   2.786   4.360   1.160
 1184WAT     H1 3763   2.741   4.438   1.128
 1184WAT     H2 3764   2.849   4.393   1.224
 1185WAT      O 3765   1.716   3.670   4.920
 1185WAT     H1 3766   1.804   3.709   4.917
 1185WAT     H2 3767   1.677   3.706   5.000
 1186WAT      O 3768   3.891   2.913   0.392
 1186WAT     H1 3769   3.955   2.945   0.328
 1186WAT     H2 3770   3.934   2.925   0.477
 1187WAT      O 3771   0.044   2.207   0.827
 1187WAT     H1 3772   0.077   2.141   0.889
 1187WAT     H2 3773   0.013   2.155   0.752
 1188WAT      O 3774   1.770   4.252   5.264
 1188WAT     H1 3775   1.771   4.289   5.352
 1188WAT     H2 3776   1.835   4.302   5.215
 1189WAT      O 3777   3.756   2.242   0.921
 1189WAT     H1 3778   3.712   2.189   0.988
 1189WAT     H2 3779   3.691   2.308   0.897
 1190WAT      O 3780   0.347   0.983   3.299
 1190WAT     H1 3781   0.301   0.899   3.305
 1190WAT     H2 3782   0.439   0.959   3.282
 1191WAT      O 3783   0.761   5.130   4.565
 1191WAT     H1 3784   0.751   5.038   4.588
 1191WAT     H2 3785   0.854   5.141   4.548
 1192WAT      O 3786   1.287   1.935   1.149
 1192WAT     H1 3787   1.247   2.021   1.159
 1192WAT     H2 3788   1.270   1.890   1.232
 1193WAT      O 3789   0.548   3.917   0.504
 1193WAT     H1 3790   0.528   3.849   0.568
 1193WAT     H2 3791   0.554   3.870   0.421
 1194WAT      O 3792   2.068   0.593   0.216
 1194WAT     H1 3793   2.117   0.636   0.287
 1194WAT     H2 3794   2.123   0.518   0.192
 1195WAT      O 3795   2.306   0.848   3.004
 1195WAT     H1 3796   2.363   0.782   2.965
 1195WAT     H2 3797   2.230   0.800   3.034
 1196WAT      O 3798   2.097   4.252   4.715
 1196WAT     H1 3799   2.173   4.226   4.663
 1196WAT     H2 3800   2.024   4.251   4.653
 1197WAT      O 3801   0.524   2.761   5.234
 1197WAT     H1 3802   0.488   2.789   5.150
 1197WAT     H2 3803   0.506   2.667   5.236
 1198WAT      O 3804   0.631   1.699   4.035
 1198WAT     H1 3805   0.544   1.728   4.064
 1198WAT     H2 3806   0.690   1.722   4.106
 1199WAT      O 3807   2.481   2.748   1.572
 1199WAT     H1 3808   2.442   2.824   1.529
 1199WAT     H2 3809   2.561   2.781   1.612
 1200WAT      O 3810   3.731   0.492   3.481
 1200WAT     H1 3811   3.800   0.438   3.520
 1200WAT     H2 3812   3.772   0.577   3.467
 1201WAT      O 3813   4.238   0.690   4.819
 1201WAT     H1 3814   4.307   0.687   4.885
 1201WAT     H2 3815   4.201   0.602   4.819
 1202WAT      O 3816   2.812   1.596   1.970
 1202WAT     H1 3817   2.802   1.528   2.036
 1202WAT     H2 3818   2.879   1.561   1.910
 1203WAT      O 3819   4.518   3.309   0.175
 1203WAT     H1 3820   4.537   3.295   0.268
 1203WAT     H2 3821   4.467   3.391   0.174
 1204WAT      O 3822   2.145   0.923   0.584
 1204WAT     H1 3823   2.145   0.996   0.646
 1204WAT     H2 3824   2.107   0.959   0.504
 1205WAT      O 3825   1.760   1.948   0.353
 1205WAT     H1 3826   1.851   1.921   0.339
 1205WAT     H2 3827   1.711   1.909   0.281
 1206WAT      O 3828   4.518   0.278   0.661
 1206WAT     H1 3829   4.505   0.270   0.755
 1206WAT     H2 3830   4.485   0.195   0.625
 1207WAT      O 3831   1.299   3.580   4.728
 1207WAT     H1 3832   1.333   3.660   4.766
 1207WAT     H2 3833   1.315   3.513   4.794
 1208WAT      O 3834   0.346   3.173   2.012
 1208WAT     H1 3835   0.272   3.124   2.049
 1208WAT     H2 3836   0.420   3.114   2.024
 1209WAT      O 3837   1.677   1.241   3.859
 1209WAT     H1 3838   1.676   1.192   3.777
 1209WAT     H2 3839   1.770   1.248   3.881
 1210WAT      O 3840   3.889   2.977   3.145
 1210WAT     H1 3841   3.953   2.984   3.075
 1210WAT     H2 3842   3.942   2.972   3.225
 1211WAT      O 3843   2.016   0.945   4.056
 1211WAT     H1 3844   1.980   0.983   3.976
 1211WAT     H2 3845   2.110   0.943   4.041
 1212WAT      O 3846   1.598   0.111   0.103
 1212WAT     H1 3847   1.625   0.020   0.117
 1212WAT     H2 3848   1.541   0.107   0.027
 1213WAT      O 3849   1.067   0.162   0.755
 1213WAT     H1 3850   1.052   0.073   0.723
 1213WAT     H2 3851   1.060   0.217   0.677
 1214WAT      O 3852   2.903   2.558   4.042
 1214WAT     H1 3853   2.948   2.544   4.125
 1214WAT     H2 3854   2.938   2.640   4.008
 1215WAT      O 3855   0.368   3.234   3.496
 1215WAT     H1 3856   0.462   3.248   3.505
 1215WAT     H2 3857   0.328   3.309   3.541
 1216WAT      O 3858   2.435   3.568   2.440
 1216WAT     H1 3859   2.397   3.525   2.363
 1216WAT     H2 3860   2.529   3.570   2.421
 1217WAT      O 3861   2.778   3.371   2.653
 1217WAT     H1 3862   2.827   3.341   2.730
 1217WAT     H2 3863   2.692   3.396   2.688
 1218WAT      O 3864   1.399   3.308   2.200
 1218WAT     H1 3865   1.347   3.331   2.122
 1218WAT     H2 3866   1.368   3.222   2.225
 1219WAT      O 3867   0.978   2.996   2.862
 1219WAT     H1 3868   0.925   3.041   2.928
 1219WAT     H2 3869   0.994   3.062   2.795
 1220WAT      O 3870   4.440   4.606   1.503
 1220WAT     H1 3871   4.445   4.647   1.416
 1220WAT     H2 3872   4.352   4.626   1.534
 1221WAT      O 3873   0.553   4.013   3.706
 1221WAT     H1 3874   0.617   3.972   3.648
 1221WAT     H2 3875   0.555   4.106   3.683
 1222WAT      O 3876   1.833   4.557   3.968
 1222WAT     H1 3877   1.775   4.617   4.016
 1222WAT     H2 3878   1.921   4.591   3.984
 1223WAT      O 3879   2.789   1.274   4.523
 1223WAT     H1 3880   2.811   1.228   4.442
 1223WAT     H2 3881   2.871   1.280   4.571
 1224WAT      O 3882   2.686   2.847   4.964
 1224WAT     H1 3883   2.712   2.926   4.915
 1224WAT     H2 3884   2.641   2.793   4.899
 1225WAT      O 3885   0.380   4.265   0.372
 1225WAT     H1 3886   0.374   4.360   0.363
 1225WAT     H2 3887   0.402   4.234   0.284
 1226WAT      O 3888   2.567   2.768   4.184
 1226WAT     H1 3889   2.644   2.771   4.127
 1226WAT     H2 3890   2.517   2.846   4.162
 1227WAT      O 3891   0.476   0.772   5.119
 1227WAT     H1 3892   0.465   0.678   5.130
 1227WAT     H2 3893   0.476   0.807   5.208
 1228WAT      O 3894   0.667   1.104   2.073
 1228WAT     H1 3895   0.648   1.186   2.028
 1228WAT     H2 3896   0.629   1.037   2.017
 1229WAT      O 3897   2.940   0.299   3.531
 1229WAT     H1 3898   2.957   0.279   3.439
 1229WAT     H2 3899   3.015   0.261   3.578
 1230WAT      O 3900   3.314   2.531   1.254
 1230WAT     H1 3901   3.403   2.555   1.279
 1230WAT     H2 3902   3.322   2.447   1.209
 1231WAT      O 3903   0.900   3.844   0.166
 1231WAT     H1 3904   0.939   3.850   0.253
 1231WAT     H2 3905   0.876   3.934   0.144
 1232WAT      O 3906   1.191   1.629   1.981
 1232WAT     H1 3907   1.246   1.600   1.909
 1232WAT     H2 3908   1.126   1.686   1.940
 1233WAT      O 3909   0.289   4.941   2.177
 1233WAT     H1 3910   0.253   5.012   2.124
 1233WAT     H2 3911   0.384   4.949   2.167
 1234WAT      O 3912   4.065   0.898   4.130
 1234WAT     H1 3913   4.126   0.971   4.115
 1234WAT     H2 3914   4.022   0.884   4.046
 1235WAT      O 3915   0.121   2.904   0.850
 1235WAT     H1 3916   0.119   2.999   0.850
 1235WAT     H2 3917   0.116   2.880   0.757
 1236WAT      O 3918   1.595   4.409   0.908
 1236WAT     H1 3919   1.523   4.472   0.918
 1236WAT     H2 3920   1.552   4.324   0.907
 1237WAT      O 3921   3.378   2.319   5.264
 1237WAT     H1 3922   3.334   2.347   5.344
 1237WAT     H2 3923   3.466   2.358   5.269
 1238WAT      O 3924   2.502   0.320   2.441
 1238WAT     H1 3925   2.466   0.396   2.394
 1238WAT     H2 3926   2.462   0.245   2.399
 1239WAT      O 3927   3.625   2.963   1.114
 1239WAT     H1 3928   3.708   3.004   1.136
 1239WAT     H2 3929   3.560   3.011   1.165
 1240WAT      O 3930   3.936   3.994   4.244
 1240WAT     H1 3931   3.909   4.079   4.279
 1240WAT     H2 3932   4.023   4.011   4.206
 1241WAT      O 3933   4.449   4.702   1.247
 1241WAT     H1 3934   4.373   4.663   1.204
 1241WAT     H2 3935   4.524   4.659   1.207
 1242WAT      O 3936   1.304   2.821   2.063
 1242WAT     H1 3937   1.370   2.832   1.995
 1242WAT     H2 3938   1.325   2.887   2.128
 1243WAT      O 3939   4.147   0.942   4.875
 1243WAT     H1 3940   4.170   1.004   4.805
 1243WAT     H2 3941   4.160   0.856   4.837
 1244WAT      O 3942   2.660   2.532   4.432
 1244WAT     H1 3943   2.704   2.505   4.352
 1244WAT     H2 3944   2.609   2.610   4.406
 1245WAT      O 3945   1.293   0.336   1.318
 1245WAT     H1 3946   1.275   0.376   1.233
 1245WAT     H2 3947   1.222   0.272   1.330
 1246WAT      O 3948   3.858   4.239   4.300
 1246WAT     H1 3949   3.834   4.295   4.226
 1246WAT     H2 3950   3.822   4.284   4.376
 1247WAT      O 3951   3.916   2.605   4.856
 1247WAT     H1 3952   3.913   2.518   4.893
 1247WAT     H2 3953   3.995   2.605   4.801
 1248WAT      O 3954   1.210   2.571   3.707
 1248WAT     H1 3955   1.125   2.535   3.733
 1248WAT     H2 3956   1.192   2.662   3.684
 1249WAT      O 3957   0.639   3.970   1.948
 1249WAT     H1 3958   0.649   3.926   2.032
 1249WAT     H2 3959   0.630   3.899   1.885
 1250WAT      O 3960   0.887   1.211   2.197
 1250WAT     H1 3961   0.793   1.198   2.193
 1250WAT     H2 3962   0.907   1.274   2.127
 1251WAT      O 3963   2.710   0.556   1.866
 1251WAT     H1 3964   2.731   0.626   1.928
 1251WAT     H2 3965   2.706   0.477   1.919
 1252WAT      O 3966   4.084   1.458   1.697
 1252WAT     H1 3967   4.105   1.380   1.749
 1252WAT     H2 3968   4.167   1.504   1.687
 1253WAT      O 3969   1.249   2.130   1.636
 1253WAT     H1 3970   1.344   2.123   1.635
 1253WAT     H2 3971   1.231   2.223   1.641
 1254WAT      O 3972   1.635   1.304   0.514
 1254WAT     H1 3973   1.673   1.282   0.429
 1254WAT     H2 3974   1.665   1.234   0.572
 1255WAT      O 3975   3.594   0.833   4.572
 1255WAT     H1 3976   3.520   0.778   4.545
 1255WAT     H2 3977   3.666   0.770   4.587
 1256WAT      O 3978   0.869   4.810   3.866
 1256WAT     H1 3979   0.948   4.862   3.883
 1256WAT     H2 3980   0.901   4.720   3.855
 1257WAT      O 3981   4.454   3.250   4.314
 1257WAT     H1 3982   4.507   3.327   4.330
 1257WAT     H2 3983   4.413   3.267   4.229
 1258WAT      O 3984   0.054   1.837   4.137
 1258WAT     H1 3985   0.114   1.837   4.063
 1258WAT     H2 3986   0.020   1.926   4.140
 1259WAT      O 3987   1.307   2.533   0.267
 1259WAT     H1 3988   1.254   2.526   0.346
 1259WAT     H2 3989   1.396   2.521   0.297
 1260WAT      O 3990   1.711   4.596   2.930
 1260WAT     H1 3991   1.742   4.661   2.867
 1260WAT     H2 3992   1.622   4.575   2.901
 1261WAT      O 3993   1.619   3.410   4.353
 1261WAT     H1 3994   1.679   3.375   4.419
 1261WAT     H2 3995   1.547   3.347   4.350
 1262WAT      O 3996   2.137   5.066   3.375
 1262WAT     H1 3997   2.078   4.991   3.365
 1262WAT     H2 3998   2.090   5.139   3.335
 1263WAT      O 3999   3.300   3.143   0.330
 1263WAT     H1 4000   3.244   3.084   0.380
 1263WAT     H2 4001   3.239   3.201   0.283
 1264WAT      O 4002   3.529   4.825   0.226
 1264WAT     H1 4003   3.510   4.756   0.162
 1264WAT     H2 4004   3.463   4.892   0.209
 1265WAT      O 4005   2.378   4.273   4.500
 1265WAT     H1 4006   2.388   4.270   4.595
 1265WAT     H2 4007   2.324   4.197   4.479
 1266WAT      O 4008   2.384   1.272   4.574
 1266WAT     H1 4009   2.390   1.267   4.670
 1266WAT     H2 4010   2.312   1.215   4.551
 1267WAT      O 4011   1.736   1.129   4.800
 1267WAT     H1 4012   1.820   1.170   4.780
 1267WAT     H2 4013   1.678   1.159   4.730
 1268WAT      O 4014   3.195   5.057   0.722
 1268WAT     H1 4015   3.185   4.994   0.794
 1268WAT     H2 4016   3.233   5.134   0.763
 1269WAT      O 4017   3.480   4.930   3.484
 1269WAT     H1 4018   3.437   4.851   3.452
 1269WAT     H2 4019   3.547   4.950   3.418
 1270WAT      O 4020   3.419   3.791   4.873
 1270WAT     H1 4021   3.438   3.839   4.953
 1270WAT     H2 4022   3.499   3.797   4.821
 1271WAT      O 4023   0.216   4.500   2.974
 1271WAT     H1 4024   0.181   4.559   3.042
 1271WAT     H2 4025   0.153   4.428   2.971
 1272WAT      O 4026   1.471   4.030   4.058
 1272WAT     H1 4027   1.487   3.956   4.117
 1272WAT     H2 4028   1.387   4.065   4.086
 1273WAT      O 4029   2.869   2.787   1.846
 1273WAT     H1 4030   2.928   2.749   1.912
 1273WAT     H2 4031   2.923   2.796   1.768
 1274WAT      O 4032   1.742   2.628   3.683
 1274WAT     H1 4033   1.656   2.646   3.722
 1274WAT     H2 4034   1.741   2.532   3.668
 1275WAT      O 4035   1.279   1.232   4.929
 1275WAT     H1 4036   1.240   1.198   5.010
 1275WAT     H2 4037   1.217   1.298   4.898
 1276WAT      O 4038   0.693   0.009   5.153
 1276WAT     H1 4039   0.766   0.025   5.213
 1276WAT     H2 4040   0.724   0.043   5.069
 1277WAT      O 4041   3.436   0.066   5.184
 1277WAT     H1 4042   3.525   0.100   5.179
 1277WAT     H2 4043   3.411   0.051   5.093
 1278WAT      O 4044   1.325   0.407   4.580
 1278WAT     H1 4045   1.403   0.435   4.535
 1278WAT     H2 4046   1.255   0.463   4.545
 1279WAT      O 4047   0.710   2.117   0.197
 1279WAT     H1 4048   0.743   2.077   0.116
 1279WAT     H2 4049   0.623   2.150   0.174
 1280WAT      O 4050   4.507   0.034   0.511
 1280WAT     H1 4051   4.557   0.060   0.434
 1280WAT     H2 4052   4.495  -0.061   0.500
 1281WAT      O 4053   2.368   2.007   1.445
 1281WAT     H1 4054   2.333   1.994   1.357
 1281WAT     H2 4055   2.319   2.084   1.477
 1282WAT      O 4056   1.380   1.724   0.664
 1282WAT     H1 4057   1.444   1.755   0.600
 1282WAT     H2 4058   1.430   1.715   0.746
 1283WAT      O 4059   3.314   0.079   2.646
 1283WAT     H1 4060   3.400   0.121   2.647
 1283WAT     H2 4061   3.331  -0.012   2.623
 1284WAT      O 4062   1.746   3.140   3.723
 1284WAT     H1 4063   1.664   3.183   3.746
 1284WAT     H2 4064   1.814   3.203   3.742
 1285WAT      O 4065   3.951   3.885   4.787
 1285WAT     H1 4066   4.028   3.838   4.819
 1285WAT     H2 4067   3.981   3.926   4.705
 1286WAT      O 4068   0.336   2.563   1.891
 1286WAT     H1 4069   0.309   2.636   1.947
 1286WAT     H2 4070   0.256   2.536   1.846
 1287WAT      O 4071   2.788   4.622   1.509
 1287WAT     H1 4072   2.712   4.622   1.567
 1287WAT     H2 4073   2.752   4.637   1.421
 1288WAT      O 4074   0.495   0.480   4.407
 1288WAT     H1 4075   0.521   0.389   4.420
 1288WAT     H2 4076   0.434   0.498   4.479
 1289WAT      O 4077   2.017   4.292   5.111
 1289WAT     H1 4078   2.089   4.344   5.074
 1289WAT     H2 4079   2.019   4.312   5.204
 1290WAT      O 4080   0.110   1.152   3.630
 1290WAT     H1 4081   0.171   1.144   3.703
 1290WAT     H2 4082   0.164   1.147   3.552
 1291WAT      O 4083   0.042   1.762   0.859
 1291WAT     H1 4084   0.008   1.750   0.947
 1291WAT     H2 4085  -0.034   1.754   0.802
 1292WAT      O 4086   0.703   4.131   1.210
 1292WAT     H1 4087   0.724   4.056   1.265
 1292WAT     H2 4088   0.619   4.163   1.243
 1293WAT      O 4089   1.701   0.679   3.712
 1293WAT     H1 4090   1.683   0.750   3.774
 1293WAT     H2 4091   1.787   0.645   3.738
 1294WAT      O 4092   0.766   3.016   4.955
 1294WAT     H1 4093   0.847   3.014   4.903
 1294WAT     H2 4094   0.731   2.927   4.947
 1295WAT      O 4095   1.971   0.406   0.593
 1295WAT     H1 4096   1.927   0.405   0.677
 1295WAT     H2 4097   1.900   0.395   0.529
 1296WAT      O 4098   1.192   3.681   2.927
 1296WAT     H1 4099   1.279   3.642   2.933
 1296WAT     H2 4100   1.152   3.663   3.012
 1297WAT      O 4101   3.590   0.820   5.215
 1297WAT     H1 4102   3.641   0.847   5.291
 1297WAT     H2 4103   3.571   0.900   5.168
 1298WAT      O 4104   1.769   2.377   3.940
 1298WAT     H1 4105   1.807   2.354   4.025
 1298WAT     H2 4106   1.676   2.359   3.949
 1299WAT      O 4107   1.636   1.784   5.160
 1299WAT     H1 4108   1.627   1.826   5.074
 1299WAT     H2 4109   1.607   1.695   5.147
 1300WAT      O 4110   0.658   2.717   3.500
 1300WAT     H1 4111   0.597   2.644   3.490
 1300WAT     H2 4112   0.618   2.775   3.565
 1301WAT      O 4113   3.020   5.097   3.467
 1301WAT     H1 4114   2.957   5.112   3.537
 1301WAT     H2 4115   2.970   5.049   3.400
 1302WAT      O 4116   1.878   4.820   1.678
 1302WAT     H1 4117   1.788   4.820   1.712
 1302WAT     H2 4118   1.897   4.913   1.662
 1303WAT      O 4119   0.790   0.814   1.568
 1303WAT     H1 4120   0.747   0.800   1.484
 1303WAT     H2 4121   0.875   0.770   1.559
 1304WAT      O 4122   2.236   4.895   3.875
 1304WAT     H1 4123   2.187   4.923   3.798
 1304WAT     H2 4124   2.326   4.925   3.858
 1305WAT      O 4125   4.435   1.073   3.895
 1305WAT     H1 4126   4.456   1.162   3.926
 1305WAT     H2 4127   4.495   1.060   3.821
 1306WAT      O 4128   0.169   1.157   0.227
 1306WAT     H1 4129   0.184   1.195   0.315
 1306WAT     H2 4130   0.199   1.067   0.235
 1307WAT      O 4131   3.489   0.493   2.382
 1307WAT     H1 4132   3.499   0.403   2.349
 1307WAT     H2 4133   3.565   0.505   2.440
 1308WAT      O 4134   3.704   4.380   2.216
 1308WAT     H1 4135   3.625   4.360   2.166
 1308WAT     H2 4136   3.731   4.296   2.253
 1309WAT      O 4137   1.178   0.020   2.017
 1309WAT     H1 4138   1.209   0.051   2.102
 1309WAT     H2 4139   1.231  -0.058   2.000
 1310WAT      O 4140   0.237   0.176   0.918
 1310WAT     H1 4141   0.172   0.219   0.863
 1310WAT     H2 4142   0.250   0.237   0.991
 1311WAT      O 4143   4.406   1.946   3.864
 1311WAT     H1 4144   4.316   1.962   3.837
 1311WAT     H2 4145   4.411   1.981   3.953
 1312WAT      O 4146   0.948   4.103   0.757
 1312WAT     H1 4147   0.889   4.095   0.832
 1312WAT     H2 4148   0.892   4.091   0.681
 1313WAT      O 4149   1.036   1.442   3.560
 1313WAT     H1 4150   1.084   1.403   3.487
 1313WAT     H2 4151   1.018   1.369   3.618
 1314WAT      O 4152   2.645   1.777   2.367
 1314WAT     H1 4153   2.673   1.846   2.426
 1314WAT     H2 4154   2.721   1.760   2.312
 1315WAT      O 4155   2.278   1.294   2.016
 1315WAT     H1 4156   2.227   1.353   1.960
 1315WAT     H2 4157   2.310   1.350   2.087
 1316WAT      O 4158   1.817   2.460   3.407
 1316WAT     H1 4159   1.776   2.546   3.418
 1316WAT     H2 4160   1.814   2.420   3.494
 1317WAT      O 4161   2.623   3.795   4.568
 1317WAT     H1 4162   2.703   3.770   4.521
 1317WAT     H2 4163   2.652   3.862   4.630
 1318WAT      O 4164   2.376   4.238   5.073
 1318WAT     H1 4165   2.318   4.306   5.039
 1318WAT     H2 4166   2.355   4.160   5.020
 1319WAT      O 4167   1.351   0.927   2.241
 1319WAT     H1 4168   1.391   0.977   2.312
 1319WAT     H2 4169   1.348   0.988   2.168
 1320WAT      O 4170   4.224   2.288   2.032
 1320WAT     H1 4171   4.144   2.305   2.082
 1320WAT     H2 4172   4.277   2.233   2.090
 1321WAT      O 4173   0.592   1.023   0.425
 1321WAT     H1 4174   0.656   0.959   0.456
 1321WAT     H2 4175   0.585   1.007   0.331
 1322WAT      O 4176   3.933   2.433   4.523
 1322WAT     H1 4177   3.954   2.513   4.477
 1322WAT     H2 4178   3.839   2.440   4.544
 1323WAT      O 4179   1.651   1.474   4.236
 1323WAT     H1 4180   1.588   1.445   4.170
 1323WAT     H2 4181   1.735   1.472   4.191
 1324WAT      O 4182   0.479   3.531   5.196
 1324WAT     H1 4183   0.418   3.604   5.191
 1324WAT     H2 4184   0.446   3.468   5.132
 1325WAT      O 4185   2.690   1.192   5.175
 1325WAT     H1 4186   2.633   1.251   5.126
 1325WAT     H2 4187   2.764   1.245   5.202
 1326WAT      O 4188   2.204   1.557   2.770
 1326WAT     H1 4189   2.296   1.564   2.794
 1326WAT     H2 4190   2.197   1.471   2.728
 1327WAT      O 4191   1.622   4.421   4.565
 1327WAT     H1 4192   1.634   4.373   4.483
 1327WAT     H2 4193   1.704   4.409   4.612
 1328WAT      O 4194   4.275   1.387   2.924
 1328WAT     H1 4195   4.346   1.436   2.881
 1328WAT     H2 4196   4.231   1.453   2.978
 1329WAT      O 4197   1.373   3.820   3.556
 1329WAT     H1 4198   1.366   3.793   3.464
 1329WAT     H2 4199   1.426   3.900   3.554
 1330WAT      O 4200   3.480   4.990   2.084
 1330WAT     H1 4201   3.476   4.930   2.158
 1330WAT     H2 4202   3.443   5.071   2.117
 1331WAT      O 4203   3.055   3.157   5.206
 1331WAT     H1 4204   3.020   3.087   5.260
 1331WAT     H2 4205   3.108   3.209   5.266
 1332WAT      O 4206   3.947   3.854   1.418
 1332WAT     H1 4207   3.899   3.872   1.337
 1332WAT     H2 4208   4.036   3.885   1.401
 1333WAT      O 4209   1.677   1.244   4.423
 1333WAT     H1 4210   1.719   1.330   4.425
 1333WAT     H2 4211   1.732   1.189   4.480
 1334WAT      O 4212   3.169   0.524   2.481
 1334WAT     H1 4213   3.152   0.438   2.519
 1334WAT     H2 4214   3.216   0.572   2.549
 1335WAT      O 4215   3.581   2.112   1.112
 1335WAT     H1 4216   3.576   2.054   1.186
 1335WAT     H2 4217   3.535   2.191   1.142
 1336WAT      O 4218   2.168   0.732   5.000
 1336WAT     H1 4219   2.100   0.715   5.066
 1336WAT     H2 4220   2.246   0.688   5.034
 1337WAT      O 4221   4.246   3.461   2.297
 1337WAT     H1 4222   4.226   3.389   2.357
 1337WAT     H2 4223   4.224   3.540   2.346
 1338WAT      O 4224   1.569   2.326   3.294
 1338WAT     H1 4225   1.581   2.339   3.388
 1338WAT     H2 4226   1.543   2.235   3.285
 1339WAT      O 4227   0.282   2.555   0.514
 1339WAT     H1 4228   0.355   2.616   0.501
 1339WAT     H2 4229   0.276   2.506   0.431
 1340WAT      O 4230   0.267   4.074   3.611
 1340WAT     H1 4231   0.228   4.154   3.648
 1340WAT     H2 4232   0.329   4.046   3.678
 1341WAT      O 4233   2.762   3.908   0.055
 1341WAT     H1 4234   2.746   3.851   0.130
 1341WAT     H2 4235   2.712   3.988   0.075
 1342WAT      O 4236   0.829   4.395   2.943
 1342WAT     H1 4237   0.918   4.374   2.972
 1342WAT     H2 4238   0.773   4.336   2.993
 1343WAT      O 4239   1.013   3.561   1.972
 1343WAT     H1 4240   1.009   3.636   1.912
 1343WAT     H2 4241   0.983   3.487   1.921
 1344WAT      O 4242   0.255   2.720   3.279
 1344WAT     H1 4243   0.249   2.805   3.323
 1344WAT     H2 4244   0.164   2.690   3.272
 1345WAT      O 4245   1.985   3.197   1.390
 1345WAT     H1 4246   1.915   3.169   1.331
 1345WAT     H2 4247   1.978   3.141   1.466
 1346WAT      O 4248   3.566   4.970   1.647
 1346WAT     H1 4249   3.653   4.967   1.688
 1346WAT     H2 4250   3.506   4.944   1.717
 1347WAT      O 4251   2.232   4.066   4.924
 1347WAT     H1 4252   2.235   3.985   4.873
 1347WAT     H2 4253   2.205   4.133   4.861
 1348WAT      O 4254   3.528   1.103   3.764
 1348WAT     H1 4255   3.575   1.149   3.694
 1348WAT     H2 4256   3.568   1.137   3.844
 1349WAT      O 4257   1.831   4.773   2.739
 1349WAT     H1 4258   1.906   4.766   2.681
 1349WAT     H2 4259   1.830   4.864   2.767
 1350WAT      O 4260   1.368   4.422   2.155
 1350WAT     H1 4261   1.278   4.445   2.132
 1350WAT     H2 4262   1.363   4.331   2.181
 1351WAT      O 4263   1.092   3.153   1.162
 1351WAT     H1 4264   1.051   3.144   1.248
 1351WAT     H2 4265   1.019   3.162   1.101
 1352WAT      O 4266   2.906   2.125   3.164
 1352WAT     H1 4267   2.830   2.100   3.217
 1352WAT     H2 4268   2.933   2.210   3.199
 1353WAT      O 4269   4.354   4.122   0.002
 1353WAT     H1 4270   4.266   4.085   0.009
 1353WAT     H2 4271   4.406   4.073   0.065
 1354WAT      O 4272   0.322   2.979   3.404
 1354WAT     H1 4273   0.323   3.074   3.423
 1354WAT     H2 4274   0.346   2.939   3.487
 1355WAT      O 4275   4.298   2.590   2.814
 1355WAT     H1 4276   4.310   2.497   2.794
 1355WAT     H2 4277   4.288   2.591   2.910
 1356WAT      O 4278   3.846   2.821   4.602
 1356WAT     H1 4279   3.847   2.918   4.602
 1356WAT     H2 4280   3.936   2.796   4.580
 1357WAT      O 4281   3.627   2.571   4.123
 1357WAT     H1 4282   3.593   2.482   4.133
 1357WAT     H2 4283   3.722   2.559   4.122
 1358WAT      O 4284   2.943   4.429   1.371
 1358WAT     H1 4285   2.894   4.492   1.423
 1358WAT     H2 4286   2.957   4.355   1.430
 1359WAT      O 4287   2.174   0.991   1.078
 1359WAT     H1 4288   2.260   0.951   1.059
 1359WAT     H2 4289   2.158   0.971   1.170
 1360WAT      O 4290   2.934   4.033   5.132
 1360WAT     H1 4291   2.854   4.075   5.098
 1360WAT     H2 4292   2.906   3.945   5.156
 1361WAT      O 4293   2.201   0.060   1.219
 1361WAT     H1 4294   2.123   0.021   1.258
 1361WAT     H2 4295   2.192   0.041   1.125
 1362WAT      O 4296   2.931   4.670   1.954
 1362WAT     H1 4297   2.953   4.690   1.863
 1362WAT     H2 4298   3.003   4.706   2.005
 1363WAT      O 4299   4.349   3.835   2.397
 1363WAT     H1 4300   4.402   3.905   2.434
 1363WAT     H2 4301   4.298   3.801   2.471
 1364WAT      O 4302   2.014   2.421   0.094
 1364WAT     H1 4303   1.982   2.332   0.086
 1364WAT     H2 4304   1.947   2.466   0.146
 1365WAT      O 4305   3.568   2.386   0.809
 1365WAT     H1 4306   3.595   2.459   0.755
 1365WAT     H2 4307   3.488   2.354   0.767
 1366WAT      O 4308   4.079   4.996   3.413
 1366WAT     H1 4309   4.170   5.013   3.438
 1366WAT     H2 4310   4.037   4.967   3.494
 1367WAT      O 4311   3.952   3.726   2.449
 1367WAT     H1 4312   4.041   3.755   2.470
 1367WAT     H2 4313   3.896   3.798   2.476
 1368WAT      O 4314   2.008   4.818   3.296
 1368WAT     H1 4315   1.927   4.790   3.254
 1368WAT     H2 4316   2.069   4.745   3.281
 1369WAT      O 4317   4.021   1.257   2.835
 1369WAT     H1 4318   4.107   1.268   2.876
 1369WAT     H2 4319   4.031   1.177   2.782
 1370WAT      O 4320   3.284   4.797   3.204
 1370WAT     H1 4321   3.193   4.766   3.209
 1370WAT     H2 4322   3.276   4.892   3.195
 1371WAT      O 4323   3.093   3.123   2.564
 1371WAT     H1 4324   3.011   3.072   2.560
 1371WAT     H2 4325   3.067   3.213   2.545
 1372WAT      O 4326   2.357   0.030   5.102
 1372WAT     H1 4327   2.444   0.069   5.092
 1372WAT     H2 4328   2.334   0.046   5.194
 1373WAT      O 4329   3.382   1.180   3.427
 1373WAT     H1 4330   3.322   1.119   3.469
 1373WAT     H2 4331   3.327   1.229   3.367
 1374WAT      O 4332   2.991   0.431   0.611
 1374WAT     H1 4333   2.943   0.494   0.558
 1374WAT     H2 4334   2.954   0.440   0.699
 1375WAT      O 4335   0.484   4.152   4.092
 1375WAT     H1 4336   0.468   4.181   4.182
 1375WAT     H2 4337   0.492   4.233   4.042
 1376WAT      O 4338   4.171   4.742   0.310
 1376WAT     H1 4339   4.075   4.744   0.303
 1376WAT     H2 4340   4.199   4.682   0.241
 1377WAT      O 4341   3.582   4.090   2.632
 1377WAT     H1 4342   3.554   4.019   2.690
 1377WAT     H2 4343   3.506   4.107   2.576
 1378WAT      O 4344   1.271   0.800   0.893
 1378WAT     H1 4345   1.264   0.893   0.911
 1378WAT     H2 4346   1.218   0.787   0.814
 1379WAT      O 4347   3.332   0.045   4.868
 1379WAT     H1 4348   3.392   0.119   4.859
 1379WAT     H2 4349   3.281   0.046   4.787
 1380WAT      O 4350   3.319   1.758   4.681
 1380WAT     H1 4351   3.398   1.705   4.690
 1380WAT     H2 4352   3.249   1.696   4.664
 1381WAT      O 4353   0.543   4.273   3.616
 1381WAT     H1 4354   0.577   4.320   3.692
 1381WAT     H2 4355   0.542   4.338   3.546
 1382WAT      O 4356   0.312   0.414   3.556
 1382WAT     H1 4357   0.294   0.353   3.484
 1382WAT     H2 4358   0.399   0.449   3.535
 1383WAT      O 4359   1.719   1.774   4.027
 1383WAT     H1 4360   1.750   1.863   4.033
 1383WAT     H2 4361   1.623   1.781   4.027
 1384WAT      O 4362   2.652   3.380   4.703
 1384WAT     H1 4363   2.644   3.339   4.618
 1384WAT     H2 4364   2.610   3.465   4.693
 1385WAT      O 4365   0.724   1.229   3.991
 1385WAT     H1 4366   0.701   1.255   3.902
 1385WAT     H2 4367   0.804   1.178   3.982
 1386WAT      O 4368   3.323   2.199   1.271
 1386WAT     H1 4369   3.349   2.108   1.253
 1386WAT     H2 4370   3.406   2.243   1.288
 1387WAT      O 4371   1.662   1.555   3.513
 1387WAT     H1 4372   1.750   1.564   3.477
 1387WAT     H2 4373   1.605   1.550   3.437
 1388WAT      O 4374   4.423   1.942   2.422
 1388WAT     H1 4375   4.456   1.978   2.504
 1388WAT     H2 4376   4.328   1.952   2.428
 1389WAT      O 4377   0.802   2.546   0.029
 1389WAT     H1 4378   0.838   2.635   0.039
 1389WAT     H2 4379   0.851   2.493   0.092
 1390WAT      O 4380   3.843   1.103   1.705
 1390WAT     H1 4381   3.860   1.010   1.721
 1390WAT     H2 4382   3.833   1.109   1.610
 1391WAT      O 4383   2.883   4.472   0.256
 1391WAT     H1 4384   2.970   4.456   0.293
 1391WAT     H2 4385   2.885   4.563   0.227
 1392WAT      O 4386   0.443   1.630   4.971
 1392WAT     H1 4387   0.536   1.609   4.969
 1392WAT     H2 4388   0.398   1.547   4.983
 1393WAT      O 4389   0.854   3.475   0.466
 1393WAT     H1 4390   0.868   3.381   0.455
 1393WAT     H2 4391   0.941   3.513   0.468
 1394WAT      O 4392   4.202   0.882   3.396
 1394WAT     H1 4393   4.147   0.906   3.471
 1394WAT     H2 4394   4.238   0.796   3.419
 1395WAT      O 4395   2.823   1.750   3.713
 1395WAT     H1 4396   2.776   1.666   3.715
 1395WAT     H2 4397   2.833   1.770   3.620
 1396WAT      O 4398   3.812   2.262   1.438
 1396WAT     H1 4399   3.889   2.237   1.386
 1396WAT     H2 4400   3.842   2.255   1.529
 1397WAT      O 4401   0.287   1.788   4.474
 1397WAT     H1 4402   0.302   1.784   4.569
 1397WAT     H2 4403   0.193   1.778   4.464
 1398WAT      O 4404   3.700   0.165   4.515
 1398WAT     H1 4405   3.620   0.152   4.566
 1398WAT     H2 4406   3.668   0.194   4.429
 1399WAT      O 4407   3.061   0.131   5.099
 1399WAT     H1 4408   3.100   0.190   5.034
 1399WAT     H2 4409   3.095   0.161   5.183
 1400WAT      O 4410   2.523   1.155   0.209
 1400WAT     H1 4411   2.515   1.246   0.180
 1400WAT     H2 4412   2.447   1.111   0.173
 1401WAT      O 4413   3.986   3.028   0.637
 1401WAT     H1 4414   3.989   2.988   0.724
 1401WAT     H2 4415   4.069   3.004   0.597
 1402WAT      O 4416   0.167   4.309   3.925
 1402WAT     H1 4417   0.199   4.221   3.947
 1402WAT     H2 4418   0.082   4.294   3.885
 1403WAT      O 4419   1.833   0.260   1.096
 1403WAT     H1 4420   1.870   0.284   1.011
 1403WAT     H2 4421   1.861   0.169   1.110
 1404WAT      O 4422   0.150   4.531   1.099
 1404WAT     H1 4423   0.220   4.465   1.098
 1404WAT     H2 4424   0.182   4.598   1.158
 1405WAT      O 4425   1.555   1.547   2.384
 1405WAT     H1 4426   1.465   1.571   2.405
 1405WAT     H2 4427   1.597   1.534   2.469
 1406WAT      O 4428   4.391   4.621   4.181
 1406WAT     H1 4429   4.467   4.564   4.193
 1406WAT     H2 4430   4.415   4.676   4.106
 1407WAT      O 4431   0.304   2.802   2.226
 1407WAT     H1 4432   0.313   2.877   2.286
 1407WAT     H2 4433   0.393   2.788   2.192
 1408WAT      O 4434   0.481   1.601   2.966
 1408WAT     H1 4435   0.417   1.609   2.895
 1408WAT     H2 4436   0.555   1.553   2.927
 1409WAT      O 4437   1.903   1.538   4.071
 1409WAT     H1 4438   1.844   1.600   4.027
 1409WAT     H2 4439   1.989   1.580   4.063
 1410WAT      O 4440   2.516   0.992   5.249
 1410WAT     H1 4441   2.565   1.074   5.256
 1410WAT     H2 4442   2.583   0.926   5.234
 1411WAT      O 4443   2.939   2.864   4.061
 1411WAT     H1 4444   2.908   2.930   4.123
 1411WAT     H2 4445   2.860   2.839   4.012
 1412WAT      O 4446   2.862   1.303   3.773
 1412WAT     H1 4447   2.818   1.218   3.772
 1412WAT     H2 4448   2.831   1.346   3.853
 1413WAT      O 4449   3.878   1.234   4.479
 1413WAT     H1 4450   3.892   1.144   4.447
 1413WAT     H2 4451   3.843   1.280   4.403
 1414WAT      O 4452   1.946   3.646   4.137
 1414WAT     H1 4453   2.037   3.670   4.156
 1414WAT     H2 4454   1.894   3.711   4.184
 1415WAT      O 4455   0.958   2.465   3.842
 1415WAT     H1 4456   0.992   2.393   3.896
 1415WAT     H2 4457   0.893   2.508   3.897
 1416WAT      O 4458   2.906   4.407   2.887
 1416WAT     H1 4459   2.931   4.323   2.847
 1416WAT     H2 4460   2.905   4.468   2.814
 1417WAT      O 4461   2.536   0.780   5.045
 1417WAT     H1 4462   2.613   0.722   5.045
 1417WAT     H2 4463   2.471   0.732   5.096
 1418WAT      O 4464   0.829   2.417   4.139
 1418WAT     H1 4465   0.874   2.437   4.221
 1418WAT     H2 4466   0.747   2.466   4.144
 1419WAT      O 4467   1.566   2.111   3.646
 1419WAT     H1 4468   1.480   2.071   3.656
 1419WAT     H2 4469   1.611   2.057   3.583
 1420WAT      O 4470   0.289   2.781   2.638
 1420WAT     H1 4471   0.224   2.775   2.568
 1420WAT     H2 4472   0.355   2.841   2.604
 1421WAT      O 4473   2.191   0.960   1.787
 1421WAT     H1 4474   2.162   0.887   1.732
 1421WAT     H2 4475   2.278   0.935   1.817
 1422WAT      O 4476   4.437   2.010   1.884
 1422WAT     H1 4477   4.482   2.017   1.969
 1422WAT     H2 4478   4.402   2.097   1.868
 1423WAT      O 4479   3.434   1.534   0.345
 1423WAT     H1 4480   3.518   1.566   0.377
 1423WAT     H2 4481   3.407   1.468   0.408
 1424WAT      O 4482   1.295   2.976   2.828
 1424WAT     H1 4483   1.379   3.012   2.800
 1424WAT     H2 4484   1.230   3.034   2.789
 1425WAT      O 4485   1.968   5.107   1.296
 1425WAT     H1 4486   1.926   5.034   1.342
 1425WAT     H2 4487   1.914   5.120   1.218
 1426WAT      O 4488   0.290   4.458   0.213
 1426WAT     H1 4489   0.220   4.518   0.238
 1426WAT     H2 4490   0.248   4.397   0.152
 1427WAT      O 4491   4.188   1.652   4.876
 1427WAT     H1 4492   4.251   1.580   4.864
 1427WAT     H2 4493   4.103   1.612   4.858
 1428WAT      O 4494   1.892   0.925   5.048
 1428WAT     H1 4495   1.960   0.899   5.111
 1428WAT     H2 4496   1.857   0.840   5.017
 1429WAT      O 4497   2.201   4.188   0.657
 1429WAT     H1 4498   2.261   4.260   0.673
 1429WAT     H2 4499   2.227   4.154   0.572
 1430WAT      O 4500   1.491   3.096   1.379
 1430WAT     H1 4501   1.434   3.022   1.403
 1430WAT     H2 4502   1.435   3.173   1.389
 1431WAT      O 4503   2.528   4.530   5.270
 1431WAT     H1 4504   2.593   4.600   5.282
 1431WAT     H2 4505   2.552   4.489   5.186
 1432WAT      O 4506   3.583   1.718   3.700
 1432WAT     H1 4507   3.527   1.659   3.749
 1432WAT     H2 4508   3.640   1.757   3.767
 1433WAT      O 4509   3.204   0.352   0.997
 1433WAT     H1 4510   3.297   0.377   0.997
 1433WAT     H2 4511   3.204   0.262   0.965
 1434WAT      O 4512   1.314   2.709   5.086
 1434WAT     H1 4513   1.275   2.673   5.165
 1434WAT     H2 4514   1.332   2.801   5.108
 1435WAT      O 4515   2.444   0.968   0.976
 1435WAT     H1 4516   2.452   1.063   0.989
 1435WAT     H2 4517   2.535   0.935   0.978
 1436WAT      O 4518   0.779   4.742   4.414
 1436WAT     H1 4519   0.786   4.707   4.326
 1436WAT     H2 4520   0.689   4.775   4.420
 1437WAT      O 4521   0.402   0.201   0.591
 1437WAT     H1 4522   0.362   0.127   0.547
 1437WAT     H2 4523   0.460   0.162   0.656
 1438WAT      O 4524   2.216   0.102   0.022
 1438WAT     H1 4525   2.275   0.156   0.075
 1438WAT     H2 4526   2.201   0.024   0.076
 1439WAT      O 4527   1.375   4.169   4.980
 1439WAT     H1 4528   1.334   4.248   4.947
 1439WAT     H2 4529   1.405   4.123   4.902
 1440WAT      O 4530   2.437   1.938   1.861
 1440WAT     H1 4531   2.475   1.853   1.836
 1440WAT     H2 4532   2.479   1.958   1.945
 1441WAT      O 4533   3.750   3.924   2.455
 1441WAT     H1 4534   3.797   3.981   2.394
 1441WAT     H2 4535   3.708   3.984   2.516
 1442WAT      O 4536   1.506   4.607   3.414
 1442WAT     H1 4537   1.566   4.659   3.468
 1442WAT     H2 4538   1.440   4.575   3.475
 1443WAT      O 4539   2.976   0.456   0.078
 1443WAT     H1 4540   3.043   0.424   0.139
 1443WAT     H2 4541   3.026   0.478  -0.002
 1444WAT      O 4542   2.925   3.374   4.856
 1444WAT     H1 4543   2.905   3.401   4.766
 1444WAT     H2 4544   2.842   3.381   4.902
 1445WAT      O 4545   4.042   3.114   3.867
 1445WAT     H1 4546   4.017   3.036   3.916
 1445WAT     H2 4547   4.025   3.186   3.927
 1446WAT      O 4548   0.779   3.219   5.244
 1446WAT     H1 4549   0.782   3.255   5.155
 1446WAT     H2 4550   0.718   3.275   5.291
 1447WAT      O 4551   2.607   4.834   0.404
 1447WAT     H1 4552   2.698   4.807   0.419
 1447WAT     H2 4553   2.615   4.912   0.348
 1448WAT      O 4554   2.170   2.091   4.171
 1448WAT     H1 4555   2.205   2.177   4.149
 1448WAT     H2 4556   2.224   2.030   4.121
 1449WAT      O 4557   2.854   3.971   3.790
 1449WAT     H1 4558   2.904   3.890   3.787
 1449WAT     H2 4559   2.776   3.953   3.738
 1450WAT      O 4560   0.801   1.898   1.338
 1450WAT     H1 4561   0.859   1.946   1.397
 1450WAT     H2 4562   0.854   1.879   1.261
 1451WAT      O 4563   2.035   0.346   1.331
 1451WAT     H1 4564   1.978   0.306   1.265
 1451WAT     H2 4565   2.122   0.311   1.311
 1452WAT      O 4566   0.483   3.913   4.594
 1452WAT     H1 4567   0.437   3.989   4.629
 1452WAT     H2 4568   0.467   3.918   4.499
 1453WAT      O 4569   4.251   1.879   1.209
 1453WAT     H1 4570   4.235   1.958   1.262
 1453WAT     H2 4571   4.166   1.836   1.202
 1454WAT      O 4572   2.066   2.204   3.874
 1454WAT     H1 4573   2.052   2.262   3.950
 1454WAT     H2 4574   1.978   2.182   3.845
 1455WAT      O 4575   3.193   2.259   2.454
 1455WAT     H1 4576   3.225   2.295   2.537
 1455WAT     H2 4577   3.271   2.220   2.414
 1456WAT      O 4578   2.740   0.560   5.164
 1456WAT     H1 4579   2.806   0.628   5.168
 1456WAT     H2 4580   2.736   0.534   5.072
 1457WAT      O 4581   0.742   1.547   1.065
 1457WAT     H1 4582   0.786   1.468   1.037
 1457WAT     H2 4583   0.652   1.520   1.083
 1458WAT      O 4584   3.220   4.607   4.416
 1458WAT     H1 4585   3.224   4.551   4.494
 1458WAT     H2 4586   3.292   4.575   4.361
 1459WAT      O 4587   2.173   1.475   4.430
 1459WAT     H1 4588   2.120   1.553   4.447
 1459WAT     H2 4589   2.192   1.439   4.517
 1460WAT      O 4590   1.598   1.683   1.821
 1460WAT     H1 4591   1.571   1.704   1.910
 1460WAT     H2 4592   1.533   1.622   1.789
 1461WAT      O 4593   4.290   4.936   1.716
 1461WAT     H1 4594   4.249   4.888   1.788
 1461WAT     H2 4595   4.351   4.874   1.677
 1462WAT      O 4596   2.271   5.033   4.868
 1462WAT     H1 4597   2.294   5.065   4.955
 1462WAT     H2 4598   2.355   5.014   4.826
 1463WAT      O 4599   2.337   2.332   3.811
 1463WAT     H1 4600   2.333   2.316   3.717
 1463WAT     H2 4601   2.260   2.286   3.846
 1464WAT      O 4602   3.629   4.565   0.564
 1464WAT     H1 4603   3.579   4.496   0.607
 1464WAT     H2 4604   3.645   4.532   0.475
 1465WAT      O 4605   0.747   0.718   1.320
 1465WAT     H1 4606   0.729   0.642   1.377
 1465WAT     H2 4607   0.779   0.678   1.239
 1466WAT      O 4608   0.079   1.636   4.925
 1466WAT     H1 4609   0.054   1.550   4.956
 1466WAT     H2 4610   0.130   1.620   4.846
 1467WAT      O 4611   4.436   1.716   1.088
 1467WAT     H1 4612   4.371   1.665   1.040
 1467WAT     H2 4613   4.385   1.775   1.143
 1468WAT      O 4614   2.609   5.091   2.104
 1468WAT     H1 4615   2.689   5.041   2.087
 1468WAT     H2 4616   2.626   5.134   2.189
 1469WAT      O 4617   0.790   0.519   1.968
 1469WAT     H1 4618   0.739   0.585   1.919
 1469WAT     H2 4619   0.742   0.438   1.955
 1470WAT      O 4620   0.039   3.676   1.413
 1470WAT     H1 4621   0.002   3.742   1.472
 1470WAT     H2 4622  -0.035   3.618   1.394
 1471WAT      O 4623   4.338   4.172   0.394
 1471WAT     H1 4624   4.420   4.220   0.381
 1471WAT     H2 4625   4.366   4.085   0.422
 1472WAT      O 4626   4.443   4.018   2.806
 1472WAT     H1 4627   4.532   4.006   2.839
 1472WAT     H2 4628   4.388   3.972   2.869
 1473WAT      O 4629   3.404   1.512   4.469
 1473WAT     H1 4630   3.313   1.530   4.492
 1473WAT     H2 4631   3.400   1.461   4.389
 1474WAT      O 4632   1.333   0.501   2.694
 1474WAT     H1 4633   1.351   0.589   2.727
 1474WAT     H2 4634   1.253   0.510   2.643
 1475WAT      O 4635   4.275   3.796   3.845
 1475WAT     H1 4636   4.182   3.811   3.828
 1475WAT     H2 4637   4.283   3.700   3.853
 1476WAT      O 4638   4.066   1.029   2.676
 1476WAT     H1 4639   4.160   1.014   2.681
 1476WAT     H2 4640   4.046   1.027   2.582
 1477WAT      O 4641   0.595   2.779   4.552
 1477WAT     H1 4642   0.679   2.733   4.541
 1477WAT     H2 4643   0.540   2.742   4.482
 1478WAT      O 4644   1.442   0.314   3.211
 1478WAT     H1 4645   1.415   0.400   3.180
 1478WAT     H2 4646   1.513   0.332   3.273
 1479WAT      O 4647   1.704   0.511   1.928
 1479WAT     H1 4648   1.760   0.542   1.999
 1479WAT     H2 4649   1.658   0.589   1.897
 1480WAT      O 4650   2.382   0.358   1.160
 1480WAT     H1 4651   2.374   0.453   1.151
 1480WAT     H2 4652   2.363   0.324   1.073
 1481WAT      O 4653   3.905   3.445   2.787
 1481WAT     H1 4654   3.841   3.380   2.814
 1481WAT     H2 4655   3.989   3.412   2.821
 1482WAT      O 4656   1.930   3.377   2.174
 1482WAT     H1 4657   1.942   3.419   2.259
 1482WAT     H2 4658   1.843   3.337   2.180
 1483WAT      O 4659   0.410   2.988   1.328
 1483WAT     H1 4660   0.502   2.976   1.306
 1483WAT     H2 4661   0.408   2.988   1.424
 1484WAT      O 4662   4.037   0.826   3.163
 1484WAT     H1 4663   4.086   0.843   3.244
 1484WAT     H2 4664   4.102   0.836   3.093
 1485WAT      O 4665   4.473   4.621   4.793
 1485WAT     H1 4666   4.507   4.636   4.705
 1485WAT     H2 4667   4.412   4.694   4.808
 1486WAT      O 4668   4.098   0.437   4.827
 1486WAT     H1 4669   4.022   0.400   4.782
 1486WAT     H2 4670   4.096   0.398   4.914
 1487WAT      O 4671   1.349   1.234   2.566
 1487WAT     H1 4672   1.275   1.288   2.540
 1487WAT     H2 4673   1.330   1.209   2.656
 1488WAT      O 4674   2.382   1.320   1.498
 1488WAT     H1 4675   2.308   1.287   1.549
 1488WAT     H2 4676   2.354   1.310   1.407
 1489WAT      O 4677   2.550   3.449   2.792
 1489WAT     H1 4678   2.501   3.393   2.851
 1489WAT     H2 4679   2.487   3.514   2.762
 1490WAT      O 4680   1.741   0.606   1.581
 1490WAT     H1 4681   1.710   0.656   1.657
 1490WAT     H2 4682   1.669   0.547   1.560
 1491WAT      O 4683   2.046   2.838   2.902
 1491WAT     H1 4684   2.077   2.811   2.989
 1491WAT     H2 4685   2.074   2.930   2.895
 1492WAT      O 4686   1.355   4.862   2.296
 1492WAT     H1 4687   1.313   4.833   2.377
 1492WAT     H2 4688   1.321   4.951   2.282
 1493WAT      O 4689   4.264   0.170   1.778
 1493WAT     H1 4690   4.311   0.209   1.704
 1493WAT     H2 4691   4.308   0.086   1.793
 1494WAT      O 4692   4.426   1.257   1.131
 1494WAT     H1 4693   4.349   1.300   1.094
 1494WAT     H2 4694   4.498   1.280   1.072
 1495WAT      O 4695   1.371   4.444   1.242
 1495WAT     H1 4696   1.398   4.384   1.312
 1495WAT     H2 4697   1.367   4.389   1.164
 1496WAT      O 4698   0.317   4.516   4.776
 1496WAT     H1 4699   0.384   4.465   4.820
 1496WAT     H2 4700   0.242   4.515   4.837
 1497WAT      O 4701   2.445   3.687   3.025
 1497WAT     H1 4702   2.419   3.692   3.117
 1497WAT     H2 4703   2.458   3.594   3.009
 1498WAT      O 4704   3.744   2.001   3.405
 1498WAT     H1 4705   3.706   1.912   3.396
 1498WAT     H2 4706   3.765   2.007   3.498
 1499WAT      O 4707   3.516   5.047   0.665
 1499WAT     H1 4708   3.422   5.067   0.662
 1499WAT     H2 4709   3.524   4.965   0.616
 1500WAT      O 4710   3.020   1.995   0.917
 1500WAT     H1 4711   3.024   2.034   1.004
 1500WAT     H2 4712   3.104   2.020   0.877
 1501WAT      O 4713   1.946   1.537   3.385
 1501WAT     H1 4714   1.963   1.600   3.455
 1501WAT     H2 4715   2.000   1.461   3.408
 1502WAT      O 4716   3.797   0.283   0.918
 1502WAT     H1 4717   3.856   0.222   0.874
 1502WAT     H2 4718   3.852   0.359   0.938
 1503WAT      O 4719   0.062   0.280   1.766
 1503WAT     H1 4720   0.052   0.347   1.833
 1503WAT     H2 4721   0.057   0.328   1.683
 1504WAT      O 4722   1.854   4.058   1.489
 1504WAT     H1 4723   1.804   3.977   1.477
 1504WAT     H2 4724   1.941   4.027   1.517
 1505WAT      O 4725   0.518   0.910   1.965
 1505WAT     H1 4726   0.439   0.859   1.984
 1505WAT     H2 4727   0.519   0.920   1.870
 1506WAT      O 4728   0.769   2.252   1.152
 1506WAT     H1 4729   0.682   2.255   1.192
 1506WAT     H2 4730   0.768   2.320   1.085
 1507WAT      O 4731   3.865   0.216   2.298
 1507WAT     H1 4732   3.933   0.270   2.337
 1507WAT     H2 4733   3.828   0.270   2.228
 1508WAT      O 4734   2.548   3.231   1.745
 1508WAT     H1 4735   2.548   3.225   1.841
 1508WAT     H2 4736   2.460   3.202   1.720
 1509WAT      O 4737   2.931   0.447   4.732
 1509WAT     H1 4738   2.971   0.530   4.707
 1509WAT     H2 4739   2.852   0.441   4.678
 1510WAT      O 4740   0.310   3.167   1.081
 1510WAT     H1 4741   0.405   3.155   1.072
 1510WAT     H2 4742   0.292   3.252   1.040
 1511WAT      O 4743   2.249   0.866   4.399
 1511WAT     H1 4744   2.321   0.866   4.462
 1511WAT     H2 4745   2.280   0.813   4.326
 1512WAT      O 4746   1.540   3.544   1.079
 1512WAT     H1 4747   1.596   3.513   1.151
 1512WAT     H2 4748   1.601   3.580   1.015
 1513WAT      O 4749   2.137   1.698   4.082
 1513WAT     H1 4750   2.076   1.748   4.136
 1513WAT     H2 4751   2.210   1.678   4.141
 1514WAT      O 4752   3.114   5.038   3.145
 1514WAT     H1 4753   3.127   5.097   3.220
 1514WAT     H2 4754   3.137   5.092   3.069
 1515WAT      O 4755   3.926   0.570   0.497
 1515WAT     H1 4756   3.898   0.479   0.498
 1515WAT     H2 4757   3.861   0.616   0.442
 1516WAT      O 4758   1.987   3.315   4.051
 1516WAT     H1 4759   1.913   3.359   4.093
 1516WAT     H2 4760   1.999   3.235   4.103
 1517WAT      O 4761   3.827   4.746   1.346
 1517WAT     H1 4762   3.906   4.800   1.346
 1517WAT     H2 4763   3.843   4.680   1.414
 1518WAT      O 4764   2.383   4.849   0.193
 1518WAT     H1 4765   2.375   4.779   0.258
 1518WAT     H2 4766   2.462   4.897   0.218
 1519WAT      O 4767   2.640   2.876   1.740
 1519WAT     H1 4768   2.671   2.959   1.707
 1519WAT     H2 4769   2.718   2.835   1.780
 1520WAT      O 4770   3.369   2.592   0.849
 1520WAT     H1 4771   3.458   2.627   0.863
 1520WAT     H2 4772   3.332   2.651   0.783
 1521WAT      O 4773   0.270   5.058   1.094
 1521WAT     H1 4774   0.207   5.054   1.166
 1521WAT     H2 4775   0.254   5.144   1.053
 1522WAT      O 4776   4.322   2.577   1.968
 1522WAT     H1 4777   4.263   2.529   2.027
 1522WAT     H2 4778   4.281   2.568   1.881
 1523WAT      O 4779   0.351   0.128   3.127
 1523WAT     H1 4780   0.420   0.194   3.127
 1523WAT     H2 4781   0.331   0.114   3.034
 1524WAT      O 4782   3.236   3.395   2.036
 1524WAT     H1 4783   3.299   3.353   2.096
 1524WAT     H2 4784   3.182   3.450   2.093
 1525WAT      O 4785   4.446   0.339   5.010
 1525WAT     H1 4786   4.469   0.249   5.032
 1525WAT     H2 4787   4.529   0.382   4.995
 1526WAT      O 4788   0.304   1.895   1.850
 1526WAT     H1 4789   0.383   1.932   1.892
 1526WAT     H2 4790   0.272   1.830   1.913
 1527WAT      O 4791   0.350   2.046   4.140
 1527WAT     H1 4792   0.345   2.001   4.055
 1527WAT     H2 4793   0.387   2.131   4.120
 1528WAT      O 4794   0.443   2.246   1.530
 1528WAT     H1 4795   0.351   2.265   1.550
 1528WAT     H2 4796   0.491   2.276   1.607
 1529WAT      O 4797   3.751   2.893   2.100
 1529WAT     H1 4798   3.717   2.975   2.135
 1529WAT     H2 4799   3.674   2.847   2.064
 1530WAT      O 4800   3.396   3.714   3.408
 1530WAT     H1 4801   3.379   3.626   3.442
 1530WAT     H2 4802   3.310   3.753   3.398
 1531WAT      O 4803   3.688   2.793   1.469
 1531WAT     H1 4804   3.597   2.762   1.470
 1531WAT     H2 4805   3.680   2.887   1.464
 1532WAT      O 4806   3.444   3.933   4.036
 1532WAT     H1 4807   3.447   3.877   4.113
 1532WAT     H2 4808   3.534   3.930   4.001
 1533WAT      O 4809   2.433   2.723   3.014
 1533WAT     H1 4810   2.360   2.753   3.069
 1533WAT     H2 4811   2.510   2.732   3.071
 1534WAT      O 4812   0.710   2.061   2.655
 1534WAT     H1 4813   0.649   2.131   2.633
 1534WAT     H2 4814   0.665   1.981   2.630
 1535WAT      O 4815   0.152   0.281   4.837
 1535WAT     H1 4816   0.206   0.216   4.881
 1535WAT     H2 4817   0.120   0.237   4.758
 1536WAT      O 4818   0.549   1.941   2.944
 1536WAT     H1 4819   0.642   1.959   2.960
 1536WAT     H2 4820   0.548   1.892   2.862
 1537WAT      O 4821   0.576   3.760   1.141
 1537WAT     H1 4822   0.645   3.695   1.156
 1537WAT     H2 4823   0.620   3.845   1.150
 1538WAT      O 4824   3.278   3.819   3.815
 1538WAT     H1 4825   3.273   3.899   3.763
 1538WAT     H2 4826   3.372   3.805   3.827
 1539WAT      O 4827   0.145   1.433   1.885
 1539WAT     H1 4828   0.151   1.527   1.863
 1539WAT     H2 4829   0.160   1.430   1.979
 1540WAT      O 4830   3.790   1.379   2.731
 1540WAT     H1 4831   3.880   1.349   2.747
 1540WAT     H2 4832   3.790   1.471   2.762
 1541WAT      O 4833   1.233   3.151   3.714
 1541WAT     H1 4834   1.301   3.091   3.747
 1541WAT     H2 4835   1.151   3.115   3.745
 1542WAT      O 4836   0.554   1.831   1.195
 1542WAT     H1 4837   0.587   1.841   1.284
 1542WAT     H2 4838   0.625   1.787   1.148
 1543WAT      O 4839   1.700   3.841   1.411
 1543WAT     H1 4840   1.729   3.854   1.320
 1543WAT     H2 4841   1.623   3.785   1.403
 1544WAT      O 4842   4.076   4.818   0.839
 1544WAT     H1 4843   4.023   4.861   0.905
 1544WAT     H2 4844   4.019   4.749   0.804
 1545WAT      O 4845   1.122   0.779   2.357
 1545WAT     H1 4846   1.041   0.827   2.341
 1545WAT     H2 4847   1.189   0.828   2.309
 1546WAT      O 4848   3.505   0.096   3.297
 1546WAT     H1 4849   3.552   0.179   3.285
 1546WAT     H2 4850   3.496   0.087   3.392
 1547WAT      O 4851   4.314   3.417   3.312
 1547WAT     H1 4852   4.326   3.333   3.268
 1547WAT     H2 4853   4.223   3.442   3.293
 1548WAT      O 4854   2.818   3.359   2.380
 1548WAT     H1 4855   2.794   3.377   2.471
 1548WAT     H2 4856   2.803   3.265   2.369
 1549WAT      O 4857   0.126   4.769   2.328
 1549WAT     H1 4858   0.182   4.825   2.275
 1549WAT     H2 4859   0.079   4.715   2.264
 1550WAT      O 4860   2.374   3.914   1.072
 1550WAT     H1 4861   2.446   3.886   1.128
 1550WAT     H2 4862   2.416   3.935   0.988
 1551WAT      O 4863   0.734   5.012   1.702
 1551WAT     H1 4864   0.825   5.001   1.729
 1551WAT     H2 4865   0.729   5.102   1.670
 1552WAT      O 4866   2.500   2.148   4.274
 1552WAT     H1 4867   2.533   2.097   4.199
 1552WAT     H2 4868   2.429   2.201   4.237
 1553WAT      O 4869   1.014   0.452   0.054
 1553WAT     H1 4870   1.048   0.538   0.028
 1553WAT     H2 4871   0.976   0.467   0.140
 1554WAT      O 4872   3.196   2.569   2.851
 1554WAT     H1 4873   3.176   2.485   2.808
 1554WAT     H2 4874   3.273   2.550   2.905
 1555WAT      O 4875   1.695   4.682   0.123
 1555WAT     H1 4876   1.631   4.728   0.176
 1555WAT     H2 4877   1.647   4.659   0.043
 1556WAT      O 4878   0.996   3.130   0.303
 1556WAT     H1 4879   1.027   3.069   0.236
 1556WAT     H2 4880   1.067   3.134   0.367
 1557WAT      O 4881   4.023   0.426   1.025
 1557WAT     H1 4882   4.072   0.430   0.943
 1557WAT     H2 4883   3.995   0.516   1.040
 1558WAT      O 4884   3.680   1.491   3.985
 1558WAT     H1 4885   3.597   1.521   3.946
 1558WAT     H2 4886   3.689   1.400   3.956
 1559WAT      O 4887   1.254   5.116   2.285
 1559WAT     H1 4888   1.279   5.130   2.377
 1559WAT     H2 4889   1.174   5.064   2.290
 1560WAT      O 4890   4.481   0.376   2.390
 1560WAT     H1 4891   4.399   0.371   2.341
 1560WAT     H2 4892   4.470   0.451   2.449
 1561WAT      O 4893   0.819   4.663   2.158
 1561WAT     H1 4894   0.914   4.660   2.167
 1561WAT     H2 4895   0.804   4.712   2.077
 1562WAT      O 4896   2.133   1.048   0.823
 1562WAT     H1 4897   2.139   1.030   0.917
 1562WAT     H2 4898   2.173   1.134   0.812
 1563WAT      O 4899   0.149   3.570   3.042
 1563WAT     H1 4900   0.080   3.580   3.108
 1563WAT     H2 4901   0.210   3.641   3.061
 1564WAT      O 4902   3.569   2.313   1.357
 1564WAT     H1 4903   3.654   2.278   1.386
 1564WAT     H2 4904   3.591   2.394   1.315
 1565WAT      O 4905   0.475   1.495   4.375
 1565WAT     H1 4906   0.542   1.498   4.307
 1565WAT     H2 4907   0.522   1.475   4.455
 1566WAT      O 4908   0.974   3.742   1.762
 1566WAT     H1 4909   1.040   3.775   1.702
 1566WAT     H2 4910   0.927   3.820   1.792
 1567WAT      O 4911   1.723   2.040   3.970
 1567WAT     H1 4912   1.749   2.027   3.879
 1567WAT     H2 4913   1.638   2.084   3.966
 1568WAT      O 4914   0.796   2.076   2.895
 1568WAT     H1 4915   0.804   2.170   2.906
 1568WAT     H2 4916   0.763   2.066   2.805
 1569WAT      O 4917   1.001   1.816   1.821
 1569WAT     H1 4918   0.978   1.767   1.742
 1569WAT     H2 4919   0.954   1.899   1.814
 1570WAT      O 4920   1.502   1.031   0.809
 1570WAT     H1 4921   1.501   1.017   0.904
 1570WAT     H2 4922   1.442   1.104   0.795
 1571WAT      O 4923   1.599   2.966   2.095
 1571WAT     H1 4924   1.648   2.886   2.115
 1571WAT     H2 4925   1.611   2.978   2.000
 1572WAT      O 4926   4.505   5.041   0.891
 1572WAT     H1 4927   4.517   5.105   0.961
 1572WAT     H2 4928   4.418   5.059   0.856
 1573WAT      O 4929   1.816   0.648   3.080
 1573WAT     H1 4930   1.740   0.698   3.051
 1573WAT     H2 4931   1.866   0.630   3.000
 1574WAT      O 4932   1.671   1.170   5.110
 1574WAT     H1 4933   1.645   1.078   5.116
 1574WAT     H2 4934   1.702   1.180   5.020
 1575WAT      O 4935   2.010   0.623   2.531
 1575WAT     H1 4936   1.963   0.705   2.543
 1575WAT     H2 4937   1.949   0.555   2.558
 1576WAT      O 4938   1.036   5.074   0.603
 1576WAT     H1 4939   1.031   4.982   0.575
 1576WAT     H2 4940   1.102   5.113   0.546
 1577WAT      O 4941   3.820   3.817   2.825
 1577WAT     H1 4942   3.801   3.869   2.747
 1577WAT     H2 4943   3.750   3.752   2.828
 1578WAT      O 4944   2.146   4.825   1.282
 1578WAT     H1 4945   2.088   4.790   1.350
 1578WAT     H2 4946   2.092   4.824   1.202
 1579WAT      O 4947   4.122   2.768   4.551
 1579WAT     H1 4948   4.127   2.695   4.612
 1579WAT     H2 4949   4.203   2.763   4.501
 1580WAT      O 4950   3.308   1.646   0.707
 1580WAT     H1 4951   3.273   1.570   0.662
 1580WAT     H2 4952   3.401   1.627   0.717
 1581WAT      O 4953   4.109   0.137   3.571
 1581WAT     H1 4954   4.153   0.171   3.492
 1581WAT     H2 4955   4.160   0.173   3.643
 1582WAT      O 4956   1.426   0.053   4.259
 1582WAT     H1 4957   1.516   0.023   4.267
 1582WAT     H2 4958   1.433   0.148   4.250
 1583WAT      O 4959   0.302   2.660   3.962
 1583WAT     H1 4960   0.343   2.637   3.879
 1583WAT     H2 4961   0.312   2.579   4.015
 1584WAT      O 4962   2.130   1.803   1.098
 1584WAT     H1 4963   2.151   1.870   1.034
 1584WAT     H2 4964   2.046   1.829   1.134
 1585WAT      O 4965   2.874   1.206   1.027
 1585WAT     H1 4966   2.923   1.287   1.011
 1585WAT     H2 4967   2.823   1.225   1.106
 1586WAT      O 4968   1.554   4.372   0.523
 1586WAT     H1 4969   1.643   4.381   0.557
 1586WAT     H2 4970   1.545   4.278   0.506
 1587WAT      O 4971   1.411   1.186   5.245
 1587WAT     H1 4972   1.495   1.169   5.202
 1587WAT     H2 4973   1.422   1.152   5.334
 1588WAT      O 4974   0.569   3.741   3.397
 1588WAT     H1 4975   0.541   3.724   3.307
 1588WAT     H2 4976   0.616   3.661   3.423
 1589WAT      O 4977   0.379   1.038   4.217
 1589WAT     H1 4978   0.401   0.959   4.265
 1589WAT     H2 4979   0.332   1.007   4.140
 1590WAT      O 4980   3.945   1.652   1.856
 1590WAT     H1 4981   3.957   1.583   1.792
 1590WAT     H2 4982   3.971   1.614   1.940
 1591WAT      O 4983   3.183   0.849   4.526
 1591WAT     H1 4984   3.235   0.775   4.496
 1591WAT     H2 4985   3.244   0.904   4.575
 1592WAT      O 4986   2.541   2.084   0.132
 1592WAT     H1 4987   2.503   2.163   0.168
 1592WAT     H2 4988   2.469   2.020   0.133
 1593WAT      O 4989   0.349   2.037   1.219
 1593WAT     H1 4990   0.332   2.011   1.310
 1593WAT     H2 4991   0.417   1.975   1.189
 1594WAT      O 4992   2.081   3.407   4.390
 1594WAT     H1 4993   2.174   3.424   4.406
 1594WAT     H2 4994   2.043   3.493   4.373
 1595WAT      O 4995   2.404   0.065   2.401
 1595WAT     H1 4996   2.326   0.108   2.367
 1595WAT     H2 4997   2.394  -0.027   2.375
 1596WAT      O 4998   2.538   1.050   3.060
 1596WAT     H1 4999   2.514   1.086   3.146
 1596WAT     H2 5000   2.473   0.982   3.043
 1597WAT      O 5001   0.053   0.412   0.447
 1597WAT     H1 5002  -0.005   0.366   0.387
 1597WAT     H2 5003   0.025   0.383   0.534
 1598WAT      O 5004   3.408   2.160   1.915
 1598WAT     H1 5005   3.446   2.173   1.828
 1598WAT     H2 5006   3.454   2.081   1.949
 1599WAT      O 5007   2.102   2.025   1.628
 1599WAT     H1 5008   2.151   2.080   1.690
 1599WAT     H2 5009   2.152   1.945   1.623
 1600WAT      O 5010   1.315   0.109   3.589
 1600WAT     H1 5011   1.372   0.144   3.657
 1600WAT     H2 5012   1.315   0.014   3.605
 1601WAT      O 5013   2.119   0.122   2.336
 1601WAT     H1 5014   2.077   0.058   2.278
 1601WAT     H2 5015   2.121   0.203   2.285
 1602WAT      O 5016   0.252   2.116   2.248
 1602WAT     H1 5017   0.191   2.187   2.270
 1602WAT     H2 5018   0.321   2.123   2.314
 1603WAT      O 5019   2.432   2.325   0.173
 1603WAT     H1 5020   2.396   2.374   0.100
 1603WAT     H2 5021   2.379   2.351   0.248
 1604WAT      O 5022   2.111   2.412   0.804
 1604WAT     H1 5023   2.143   2.491   0.848
 1604WAT     H2 5024   2.169   2.401   0.728
 1605WAT      O 5025   1.008   3.958   1.942
 1605WAT     H1 5026   1.078   4.017   1.914
 1605WAT     H2 5027   1.025   3.943   2.034
 1606WAT      O 5028   0.049   0.185   3.918
 1606WAT     H1 5029   0.083   0.098   3.895
 1606WAT     H2 5030   0.044   0.231   3.834
 1607WAT      O 5031   0.315   0.376   0.401
 1607WAT     H1 5032   0.248   0.415   0.457
 1607WAT     H2 5033   0.361   0.314   0.458
 1608WAT      O 5034   2.578   1.051   1.324
 1608WAT     H1 5035   2.516   1.086   1.259
 1608WAT     H2 5036   2.639   1.123   1.338
 1609WAT      O 5037   2.312   4.816   0.690
 1609WAT     H1 5038   2.379   4.749   0.702
 1609WAT     H2 5039   2.360   4.899   0.697
 1610WAT      O 5040   2.568   0.853   3.631
 1610WAT     H1 5041   2.596   0.766   3.661
 1610WAT     H2 5042   2.586   0.912   3.705
 1611WAT      O 5043   1.621   0.453   2.854
 1611WAT     H1 5044   1.591   0.524   2.910
 1611WAT     H2 5045   1.684   0.405   2.908
 1612WAT      O 5046   1.409   0.859   3.305
 1612WAT     H1 5047   1.343   0.891   3.365
 1612WAT     H2 5048   1.482   0.833   3.362
 1613WAT      O 5049   2.310   3.688   3.276
 1613WAT     H1 5050   2.288   3.690   3.369
 1613WAT     H2 5051   2.234   3.725   3.233
 1614WAT      O 5052   0.211   2.288   3.211
 1614WAT     H1 5053   0.153   2.222   3.175
 1614WAT     H2 5054   0.283   2.294   3.148
 1615WAT      O 5055   1.913   1.292   3.965
 1615WAT     H1 5056   1.980   1.244   4.013
 1615WAT     H2 5057   1.922   1.382   3.995
 1616WAT      O 5058   1.669   2.285   5.169
 1616WAT     H1 5059   1.640   2.373   5.152
 1616WAT     H2 5060   1.664   2.275   5.264
 1617WAT      O 5061   1.364   1.280   0.206
 1617WAT     H1 5062   1.375   1.359   0.258
 1617WAT     H2 5063   1.422   1.215   0.246
 1618WAT      O 5064   0.113   4.749   5.237
 1618WAT     H1 5065   0.116   4.828   5.183
 1618WAT     H2 5066   0.115   4.677   5.174
 1619WAT      O 5067   0.460   4.745   0.756
 1619WAT     H1 5068   0.511   4.826   0.752
 1619WAT     H2 5069   0.434   4.736   0.848
 1620WAT      O 5070   1.972   3.623   1.836
 1620WAT     H1 5071   1.940   3.656   1.752
 1620WAT     H2 5072   1.919   3.545   1.853
 1621WAT      O 5073   3.854   2.168   2.852
 1621WAT     H1 5074   3.855   2.200   2.942
 1621WAT     H2 5075   3.834   2.074   2.859
 1622WAT      O 5076   3.824   5.005   4.554
 1622WAT     H1 5077   3.749   5.013   4.495
 1622WAT     H2 5078   3.807   5.068   4.624
 1623WAT      O 5079   2.730   0.331   0.016
 1623WAT     H1 5080   2.824   0.320   0.033
 1623WAT     H2 5081   2.724   0.411  -0.036
 1624WAT      O 5082   0.070   2.108   1.296
 1624WAT     H1 5083   0.096   2.081   1.208
 1624WAT     H2 5084   0.141   2.166   1.325
 1625WAT      O 5085   2.315   1.715   3.270
 1625WAT     H1 5086   2.278   1.750   3.351
 1625WAT     H2 5087   2.247   1.659   3.234
 1626WAT      O 5088   3.138   3.305   0.135
 1626WAT     H1 5089   3.159   3.396   0.116
 1626WAT     H2 5090   3.049   3.308   0.172
 1627WAT      O 5091   1.248   2.202   5.118
 1627WAT     H1 5092   1.185   2.236   5.181
 1627WAT     H2 5093   1.311   2.153   5.172
 1628WAT      O 5094   3.268   0.019   2.939
 1628WAT     H1 5095   3.268   0.046   2.848
 1628WAT     H2 5096   3.247   0.098   2.988
 1629WAT      O 5097   4.326   0.050   2.325
 1629WAT     H1 5098   4.329  -0.045   2.309
 1629WAT     H2 5099   4.402   0.084   2.279
 1630WAT      O 5100   4.296   3.358   2.654
 1630WAT     H1 5101   4.285   3.328   2.744
 1630WAT     H2 5102   4.208   3.384   2.626
 1631WAT      O 5103   1.112   0.270   2.446
 1631WAT     H1 5104   1.154   0.186   2.461
 1631WAT     H2 5105   1.118   0.283   2.351
 1632WAT      O 5106   1.212   4.070   4.140
 1632WAT     H1 5107   1.189   3.979   4.159
 1632WAT     H2 5108   1.128   4.115   4.138
 1633WAT      O 5109   1.890   0.340   2.949
 1633WAT     H1 5110   1.911   0.350   3.042
 1633WAT     H2 5111   1.938   0.410   2.906
 1634WAT      O 5112   2.850   3.797   5.005
 1634WAT     H1 5113   2.881   3.809   4.915
 1634WAT     H2 5114   2.756   3.817   5.001
 1635WAT      O 5115   3.852   2.673   3.449
 1635WAT     H1 5116   3.876   2.759   3.484
 1635WAT     H2 5117   3.925   2.616   3.475
 1636WAT      O 5118   1.722   0.083   2.700
 1636WAT     H1 5119   1.799   0.117   2.654
 1636WAT     H2 5120   1.702   0.001   2.655
 1637WAT      O 5121   0.407   2.341   2.075
 1637WAT     H1 5122   0.337   2.281   2.053
 1637WAT     H2 5123   0.392   2.418   2.018
 1638WAT      O 5124   0.702   0.935   1.148
 1638WAT     H1 5125   0.615   0.971   1.129
 1638WAT     H2 5126   0.685   0.860   1.205
 1639WAT      O 5127   4.051   0.689   3.817
 1639WAT     H1 5128   3.994   0.620   3.784
 1639WAT     H2 5129   4.093   0.651   3.894
 1640WAT      O 5130   2.812   1.705   3.429
 1640WAT     H1 5131   2.855   1.623   3.406
 1640WAT     H2 5132   2.877   1.772   3.411
 1641WAT      O 5133   1.612   0.635   0.699
 1641WAT     H1 5134   1.643   0.656   0.611
 1641WAT     H2 5135   1.533   0.689   0.709
 1642WAT      O 5136   1.366   3.308   1.109
 1642WAT     H1 5137   1.453   3.294   1.072
 1642WAT     H2 5138   1.372   3.276   1.199
 1643WAT      O 5139   0.693   2.070   4.029
 1643WAT     H1 5140   0.750   1.994   4.015
 1643WAT     H2 5141   0.629   2.066   3.958
 1644WAT      O 5142   2.832   2.556   1.562
 1644WAT     H1 5143   2.877   2.531   1.482
 1644WAT     H2 5144   2.850   2.650   1.571
 1645WAT      O 5145   3.609   0.039   1.877
 1645WAT     H1 5146   3.523   0.011   1.909
 1645WAT     H2 5147   3.599   0.133   1.862
 1646WAT      O 5148   0.521   1.928   4.445
 1646WAT     H1 5149   0.567   1.898   4.523
 1646WAT     H2 5150   0.441   1.876   4.442
 1647WAT      O 5151   1.515   0.352   5.139
 1647WAT     H1 5152   1.545   0.367   5.049
 1647WAT     H2 5153   1.537   0.261   5.157
 1648WAT      O 5154   3.327   1.975   4.527
 1648WAT     H1 5155   3.350   1.910   4.459
 1648WAT     H2 5156   3.333   1.926   4.609
 1649WAT      O 5157   3.778   2.143   2.301
 1649WAT     H1 5158   3.731   2.223   2.321
 1649WAT     H2 5159   3.747   2.080   2.366
 1650WAT      O 5160   3.447   3.164   4.200
 1650WAT     H1 5161   3.536   3.190   4.176
 1650WAT     H2 5162   3.409   3.133   4.119
 1651WAT      O 5163   1.803   1.817   3.747
 1651WAT     H1 5164   1.858   1.744   3.719
 1651WAT     H2 5165   1.765   1.788   3.829
 1652WAT      O 5166   2.884   0.598   0.321
 1652WAT     H1 5167   2.835   0.612   0.240
 1652WAT     H2 5168   2.925   0.512   0.309
 1653WAT      O 5169   1.244   1.139   4.433
 1653WAT     H1 5170   1.227   1.114   4.524
 1653WAT     H2 5171   1.259   1.055   4.388
 1654WAT      O 5172   1.502   4.269   0.251
 1654WAT     H1 5173   1.420   4.312   0.227
 1654WAT     H2 5174   1.557   4.340   0.285
 1655WAT      O 5175   0.232   4.020   3.936
 1655WAT     H1 5176   0.282   3.947   3.898
 1655WAT     H2 5177   0.247   4.012   4.030
 1656WAT      O 5178   1.373   2.452   1.270
 1656WAT     H1 5179   1.391   2.480   1.181
 1656WAT     H2 5180   1.331   2.367   1.260
 1657WAT      O 5181   3.437   2.230   3.653
 1657WAT     H1 5182   3.471   2.202   3.738
 1657WAT     H2 5183   3.397   2.315   3.671
 1658WAT      O 5184   0.903   1.412   2.017
 1658WAT     H1 5185   0.890   1.494   2.063
 1658WAT     H2 5186   0.837   1.412   1.947
 1659WAT      O 5187   0.990   4.308   0.370
 1659WAT     H1 5188   1.061   4.246   0.389
 1659WAT     H2 5189   1.022   4.357   0.294
 1660WAT      O 5190   0.907   0.711   0.262
 1660WAT     H1 5191   0.902   0.750   0.174
 1660WAT     H2 5192   0.865   0.626   0.253
 1661WAT      O 5193   3.205   2.374   0.965
 1661WAT     H1 5194   3.299   2.394   0.969
 1661WAT     H2 5195   3.174   2.419   0.886
 1662WAT      O 5196   1.047   3.379   0.142
 1662WAT     H1 5197   0.985   3.308   0.155
 1662WAT     H2 5198   1.094   3.386   0.226
 1663WAT      O 5199   3.364   3.527   0.381
 1663WAT     H1 5200   3.269   3.527   0.368
 1663WAT     H2 5201   3.400   3.535   0.293
 1664WAT      O 5202   4.164   3.424   4.507
 1664WAT     H1 5203   4.107   3.363   4.554
 1664WAT     H2 5204   4.247   3.378   4.498
 1665WAT      O 5205   3.630   4.774   3.840
 1665WAT     H1 5206   3.721   4.781   3.812
 1665WAT     H2 5207   3.594   4.862   3.829
 1666WAT      O 5208   2.818   3.724   4.025
 1666WAT     H1 5209   2.914   3.728   4.032
 1666WAT     H2 5210   2.802   3.706   3.932
 1667WAT      O 5211   0.787   1.895   3.276
 1667WAT     H1 5212   0.744   1.827   3.222
 1667WAT     H2 5213   0.844   1.846   3.335
 1668WAT      O 5214   3.134   0.197   4.036
 1668WAT     H1 5215   3.131   0.152   3.952
 1668WAT     H2 5216   3.072   0.150   4.091
 1669WAT      O 5217   0.411   0.862   0.541
 1669WAT     H1 5218   0.340   0.856   0.478
 1669WAT     H2 5219   0.476   0.918   0.498
 1670WAT      O 5220   3.774   2.559   5.141
 1670WAT     H1 5221   3.847   2.559   5.202
 1670WAT     H2 5222   3.793   2.489   5.080
 1671WAT      O 5223   1.121   1.623   1.280
 1671WAT     H1 5224   1.030   1.632   1.307
 1671WAT     H2 5225   1.168   1.685   1.337
 1672WAT      O 5226   0.991   5.069   1.807
 1672WAT     H1 5227   1.003   5.096   1.898
 1672WAT     H2 5228   1.058   5.002   1.792
 1673WAT      O 5229   0.550   4.987   3.738
 1673WAT     H1 5230   0.503   5.021   3.662
 1673WAT     H2 5231   0.546   4.892   3.729
 1674WAT      O 5232   2.591   3.240   2.021
 1674WAT     H1 5233   2.537   3.240   2.100
 1674WAT     H2 5234   2.676   3.276   2.050
 1675WAT      O 5235   3.843   0.558   1.943
 1675WAT     H1 5236   3.758   0.601   1.933
 1675WAT     H2 5237   3.828   0.468   1.916
 1676WAT      O 5238   1.906   2.801   4.105
 1676WAT     H1 5239   1.895   2.841   4.019
 1676WAT     H2 5240   1.846   2.727   4.104
 1677WAT      O 5241   0.715   2.500   4.687
 1677WAT     H1 5242   0.670   2.565   4.741
 1677WAT     H2 5243   0.697   2.417   4.730
 1678WAT      O 5244   0.570   2.834   4.080
 1678WAT     H1 5245   0.499   2.865   4.137
 1678WAT     H2 5246   0.552   2.876   3.996
 1679WAT      O 5247   4.108   1.370   4.568
 1679WAT     H1 5248   4.125   1.435   4.498
 1679WAT     H2 5249   4.017   1.344   4.555
 1680WAT      O 5250   1.863   1.448   1.118
 1680WAT     H1 5251   1.927   1.376   1.106
 1680WAT     H2 5252   1.871   1.499   1.038
 1681WAT      O 5253   1.040   4.554   1.280
 1681WAT     H1 5254   1.031   4.593   1.193
 1681WAT     H2 5255   1.102   4.611   1.326
 1682WAT      O 5256   4.205   4.901   5.073
 1682WAT     H1 5257   4.281   4.853   5.105
 1682WAT     H2 5258   4.198   4.976   5.132
 1683WAT      O 5259   1.389   1.448   0.472
 1683WAT     H1 5260   1.399   1.534   0.514
 1683WAT     H2 5261   1.474   1.405   0.482
 1684WAT      O 5262   2.399   0.255   0.174
 1684WAT     H1 5263   2.420   0.333   0.226
 1684WAT     H2 5264   2.459   0.188   0.206
 1685WAT      O 5265   0.179   1.889   3.523
 1685WAT     H1 5266   0.166   1.864   3.615
 1685WAT     H2 5267   0.210   1.808   3.481
 1686WAT      O 5268   1.438   3.882   2.256
 1686WAT     H1 5269   1.364   3.823   2.243
 1686WAT     H2 5270   1.467   3.904   2.167
 1687WAT      O 5271   3.668   0.729   1.608
 1687WAT     H1 5272   3.662   0.759   1.698
 1687WAT     H2 5273   3.577   0.710   1.582
 1688WAT      O 5274   1.488   1.484   3.303
 1688WAT     H1 5275   1.493   1.462   3.210
 1688WAT     H2 5276   1.503   1.402   3.348
 1689WAT      O 5277   3.443   3.998   1.101
 1689WAT     H1 5278   3.486   4.061   1.158
 1689WAT     H2 5279   3.430   3.921   1.157
 1690WAT      O 5280   2.744   4.461   3.614
 1690WAT     H1 5281   2.671   4.483   3.672
 1690WAT     H2 5282   2.807   4.417   3.671
 1691WAT      O 5283   1.728   5.024   5.247
 1691WAT     H1 5284   1.688   5.022   5.160
 1691WAT     H2 5285   1.821   5.039   5.229
 1692WAT      O 5286   4.033   0.772   2.312
 1692WAT     H1 5287   4.033   0.795   2.219
 1692WAT     H2 5288   4.120   0.797   2.342
 1693WAT      O 5289   0.038   1.042   0.980
 1693WAT     H1 5290   0.055   0.969   0.920
 1693WAT     H2 5291   0.069   1.119   0.933
 1694WAT      O 5292   2.853   4.960   3.304
 1694WAT     H1 5293   2.902   4.917   3.233
 1694WAT     H2 5294   2.793   5.019   3.259
 1695WAT      O 5295   0.501   0.935   2.607
 1695WAT     H1 5296   0.413   0.928   2.644
 1695WAT     H2 5297   0.504   0.869   2.538
 1696WAT      O 5298   1.853   4.948   4.080
 1696WAT     H1 5299   1.767   4.907   4.095
 1696WAT     H2 5300   1.871   4.933   3.987
 1697WAT      O 5301   0.610   1.810   3.517
 1697WAT     H1 5302   0.560   1.781   3.594
 1697WAT     H2 5303   0.682   1.748   3.511
 1698WAT      O 5304   3.619   2.774   3.348
 1698WAT     H1 5305   3.698   2.751   3.397
 1698WAT     H2 5306   3.548   2.733   3.396
 1699WAT      O 5307   1.439   0.651   2.433
 1699WAT     H1 5308   1.459   0.668   2.341
 1699WAT     H2 5309   1.346   0.630   2.433
 1700WAT      O 5310   2.471   3.108   1.005
 1700WAT     H1 5311   2.510   3.143   1.085
 1700WAT     H2 5312   2.408   3.175   0.977
 1701WAT      O 5313   2.995   2.867   5.248
 1701WAT     H1 5314   2.977   2.847   5.156
 1701WAT     H2 5315   3.066   2.808   5.272
 1702WAT      O 5316   2.459   1.797   4.499
 1702WAT     H1 5317   2.374   1.791   4.455
 1702WAT     H2 5318   2.469   1.892   4.519
 1703WAT      O 5319   3.543   0.012   0.919
 1703WAT     H1 5320   3.563  -0.040   0.841
 1703WAT     H2 5321   3.496  -0.048   0.977
 1704WAT      O 5322   0.914   1.534   4.253
 1704WAT     H1 5323   0.827   1.494   4.247
 1704WAT     H2 5324   0.962   1.478   4.312
 1705WAT      O 5325   0.705   3.699   5.109
 1705WAT     H1 5326   0.639   3.644   5.150
 1705WAT     H2 5327   0.758   3.639   5.057
 1706WAT      O 5328   1.540   1.501   4.517
 1706WAT     H1 5329   1.454   1.478   4.483
 1706WAT     H2 5330   1.600   1.484   4.444
 1707WAT      O 5331   1.676   2.689   2.704
 1707WAT     H1 5332   1.671   2.762   2.766
 1707WAT     H2 5333   1.590   2.687   2.663
 1708WAT      O 5334   2.108   1.057   0.345
 1708WAT     H1 5335   2.139   1.001   0.273
 1708WAT     H2 5336   2.113   1.146   0.311
 1709WAT      O 5337   2.348   0.291   2.661
 1709WAT     H1 5338   2.396   0.299   2.579
 1709WAT     H2 5339   2.416   0.274   2.727
 1710WAT      O 5340   3.635   3.741   1.014
 1710WAT     H1 5341   3.661   3.708   0.929
 1710WAT     H2 5342   3.562   3.685   1.040
 1711WAT      O 5343   4.281   3.156   2.410
 1711WAT     H1 5344   4.249   3.183   2.496
 1711WAT     H2 5345   4.375   3.142   2.423
 1712WAT      O 5346   2.430   4.306   4.764
 1712WAT     H1 5347   2.508   4.303   4.819
 1712WAT     H2 5348   2.363   4.344   4.820
 1713WAT      O 5349   3.312   2.979   3.398
 1713WAT     H1 5350   3.280   2.932   3.322
 1713WAT     H2 5351   3.324   3.070   3.367
 1714WAT      O 5352   3.595   1.896   3.928
 1714WAT     H1 5353   3.647   1.840   3.985
 1714WAT     H2 5354   3.506   1.859   3.934
 1715WAT      O 5355   0.796   2.993   2.568
 1715WAT     H1 5356   0.830   3.078   2.541
 1715WAT     H2 5357   0.787   2.945   2.486
 1716WAT      O 5358   4.322   0.940   2.678
 1716WAT     H1 5359   4.374   0.870   2.717
 1716WAT     H2 5360   4.353   1.020   2.722
 1717WAT      O 5361   1.232   2.635   1.870
 1717WAT     H1 5362   1.256   2.689   1.944
 1717WAT     H2 5363   1.137   2.628   1.876
 1718WAT      O 5364   1.084   1.451   3.056
 1718WAT     H1 5365   1.003   1.402   3.069
 1718WAT     H2 5366   1.095   1.455   2.961
 1719WAT      O 5367   0.752   3.756   0.819
 1719WAT     H1 5368   0.676   3.808   0.845
 1719WAT     H2 5369   0.796   3.735   0.901
 1720WAT      O 5370   1.850   3.228   0.602
 1720WAT     H1 5371   1.820   3.137   0.606
 1720WAT     H2 5372   1.896   3.234   0.518
 1721WAT      O 5373   1.739   4.136   1.863
 1721WAT     H1 5374   1.766   4.217   1.818
 1721WAT     H2 5375   1.761   4.151   1.954
 1722WAT      O 5376   3.271   3.105   1.582
 1722WAT     H1 5377   3.322   3.089   1.661
 1722WAT     H2 5378   3.264   3.201   1.577
 1723WAT      O 5379   1.786   1.725   4.291
 1723WAT     H1 5380   1.743   1.731   4.205
 1723WAT     H2 5381   1.768   1.637   4.323
 1724WAT      O 5382   3.835   3.353   1.022
 1724WAT     H1 5383   3.781   3.284   1.060
 1724WAT     H2 5384   3.819   3.346   0.928
 1725WAT      O 5385   2.644   0.143   0.508
 1725WAT     H1 5386   2.651   0.193   0.589
 1725WAT     H2 5387   2.551   0.121   0.500
 1726WAT      O 5388   2.301   0.525   4.848
 1726WAT     H1 5389   2.257   0.440   4.844
 1726WAT     H2 5390   2.236   0.583   4.887
 1727WAT      O 5391   4.152   1.600   3.085
 1727WAT     H1 5392   4.181   1.689   3.065
 1727WAT     H2 5393   4.131   1.603   3.178
 1728WAT      O 5394   1.952   1.931   2.764
 1728WAT     H1 5395   2.026   1.899   2.711
 1728WAT     H2 5396   1.979   2.017   2.795
 1729WAT      O 5397   2.901   4.461   4.831
 1729WAT     H1 5398   2.961   4.390   4.808
 1729WAT     H2 5399   2.959   4.530   4.865
 1730WAT      O 5400   3.885   1.778   2.143
 1730WAT     H1 5401   3.891   1.867   2.108
 1730WAT     H2 5402   3.871   1.790   2.237
 1731WAT      O 5403   3.875   4.725   4.574
 1731WAT     H1 5404   3.891   4.819   4.562
 1731WAT     H2 5405   3.826   4.720   4.657
 1732WAT      O 5406   1.665   2.397   0.907
 1732WAT     H1 5407   1.640   2.312   0.943
 1732WAT     H2 5408   1.746   2.419   0.953
 1733WAT      O 5409   2.423   3.359   2.245
 1733WAT     H1 5410   2.390   3.288   2.300
 1733WAT     H2 5411   2.359   3.366   2.175
 1734WAT      O 5412   2.823   4.141   2.873
 1734WAT     H1 5413   2.743   4.131   2.821
 1734WAT     H2 5414   2.792   4.141   2.964
 1735WAT      O 5415   0.217   2.677   2.947
 1735WAT     H1 5416   0.241   2.663   2.855
 1735WAT     H2 5417   0.301   2.683   2.993
 1736WAT      O 5418   3.564   2.815   4.138
 1736WAT     H1 5419   3.558   2.722   4.123
 1736WAT     H2 5420   3.500   2.834   4.206
 1737WAT      O 5421   3.088   3.607   4.992
 1737WAT     H1 5422   3.043   3.532   4.953
 1737WAT     H2 5423   3.083   3.674   4.924
 1738WAT      O 5424   2.547   2.084   2.527
 1738WAT     H1 5425   2.639   2.060   2.516
 1738WAT     H2 5426   2.544   2.177   2.510
 1739WAT      O 5427   1.221   2.191   1.352
 1739WAT     H1 5428   1.142   2.191   1.298
 1739WAT     H2 5429   1.188   2.183   1.442
 1740WAT      O 5430   0.773   0.813   0.474
 1740WAT     H1 5431   0.716   0.737   0.483
 1740WAT     H2 5432   0.821   0.798   0.392
 1741WAT      O 5433   3.438   1.545   3.876
 1741WAT     H1 5434   3.355   1.576   3.912
 1741WAT     H2 5435   3.413   1.488   3.803
 1742WAT      O 5436   3.026   1.278   1.379
 1742WAT     H1 5437   2.990   1.223   1.309
 1742WAT     H2 5438   3.000   1.367   1.356
 1743WAT      O 5439   3.773   0.348   5.234
 1743WAT     H1 5440   3.711   0.347   5.307
 1743WAT     H2 5441   3.772   0.438   5.203
 1744WAT      O 5442   2.705   4.030   4.352
 1744WAT     H1 5443   2.653   4.085   4.410
 1744WAT     H2 5444   2.762   3.980   4.411
 1745WAT      O 5445   4.031   3.540   3.647
 1745WAT     H1 5446   4.118   3.502   3.637
 1745WAT     H2 5447   4.006   3.518   3.737
 1746WAT      O 5448   3.965   4.069   5.025
 1746WAT     H1 5449   3.912   4.140   4.989
 1746WAT     H2 5450   3.944   3.993   4.970
 1747WAT      O 5451   0.950   1.646   3.287
 1747WAT     H1 5452   0.909   1.679   3.207
 1747WAT     H2 5453   1.044   1.652   3.269
 1748WAT      O 5454   2.722   0.236   0.777
 1748WAT     H1 5455   2.680   0.227   0.862
 1748WAT     H2 5456   2.757   0.325   0.776
 1749WAT      O 5457   3.179   2.830   2.929
 1749WAT     H1 5458   3.166   2.739   2.903
 1749WAT     H2 5459   3.211   2.825   3.019
 1750WAT      O 5460   0.409   4.649   0.021
 1750WAT     H1 5461   0.327   4.694   0.043
 1750WAT     H2 5462   0.437   4.609   0.104
 1751WAT      O 5463   3.396   5.041   0.103
 1751WAT     H1 5464   3.311   5.002   0.085
 1751WAT     H2 5465   3.412   5.100   0.030
 1752WAT      O 5466   0.446   2.584   3.738
 1752WAT     H1 5467   0.452   2.554   3.647
 1752WAT     H2 5468   0.512   2.531   3.785
 1753WAT      O 5469   1.058   2.656   4.964
 1753WAT     H1 5470   1.074   2.742   4.923
 1753WAT     H2 5471   1.131   2.646   5.025
 1754WAT      O 5472   3.292   0.798   0.902
 1754WAT     H1 5473   3.382   0.803   0.936
 1754WAT     H2 5474   3.289   0.716   0.854
 1755WAT      O 5475   1.343   1.757   2.186
 1755WAT     H1 5476   1.438   1.761   2.182
 1755WAT     H2 5477   1.319   1.695   2.118
 1756WAT      O 5478   0.274   2.201   5.051
 1756WAT     H1 5479   0.303   2.110   5.046
 1756WAT     H2 5480   0.237   2.219   4.964
 1757WAT      O 5481   0.383   1.731   0.796
 1757WAT     H1 5482   0.449   1.699   0.734
 1757WAT     H2 5483   0.303   1.738   0.744
 1758WAT      O 5484   0.895   2.226   1.392
 1758WAT     H1 5485   0.869   2.216   1.300
 1758WAT     H2 5486   0.849   2.304   1.421
 1759WAT      O 5487   1.795   0.556   4.576
 1759WAT     H1 5488   1.879   0.593   4.546
 1759WAT     H2 5489   1.805   0.550   4.671
 1760WAT      O 5490   0.775   0.668   5.093
 1760WAT     H1 5491   0.762   0.698   5.183
 1760WAT     H2 5492   0.863   0.698   5.071
 1761WAT      O 5493   2.234   1.919   5.258
 1761WAT     H1 5494   2.264   1.967   5.181
 1761WAT     H2 5495   2.235   1.827   5.231
 1762WAT      O 5496   1.546   1.668   0.872
 1762WAT     H1 5497   1.556   1.584   0.920
 1762WAT     H2 5498   1.636   1.691   0.846
 1763WAT      O 5499   2.319   3.930   0.200
 1763WAT     H1 5500   2.231   3.912   0.233
 1763WAT     H2 5501   2.311   3.925   0.105
 1764WAT      O 5502   0.234   0.916   2.681
 1764WAT     H1 5503   0.147   0.936   2.647
 1764WAT     H2 5504   0.245   0.823   2.665
 1765WAT      O 5505   1.293   3.008   1.068
 1765WAT     H1 5506   1.289   3.016   0.973
 1765WAT     H2 5507   1.217   3.058   1.099
 1766WAT      O 5508   1.883   4.141   2.627
 1766WAT     H1 5509   1.800   4.130   2.580
 1766WAT     H2 5510   1.915   4.227   2.600
 1767WAT      O 5511   1.445   4.488   2.952
 1767WAT     H1 5512   1.486   4.462   3.035
 1767WAT     H2 5513   1.381   4.554   2.977
 1768WAT      O 5514   2.676   3.478   3.125
 1768WAT     H1 5515   2.763   3.487   3.162
 1768WAT     H2 5516   2.621   3.450   3.198
 1769WAT      O 5517   0.806   3.928   1.372
 1769WAT     H1 5518   0.775   3.840   1.397
 1769WAT     H2 5519   0.853   3.959   1.449
 1770WAT      O 5520   3.538   1.655   4.840
 1770WAT     H1 5521   3.536   1.560   4.840
 1770WAT     H2 5522   3.569   1.678   4.927
 1771WAT      O 5523   3.781   3.291   5.256
 1771WAT     H1 5524   3.712   3.325   5.313
 1771WAT     H2 5525   3.740   3.220   5.207
 1772WAT      O 5526   3.696   4.199   0.630
 1772WAT     H1 5527   3.748   4.279   0.629
 1772WAT     H2 5528   3.713   4.161   0.716
 1773WAT      O 5529   1.382   3.202   4.361
 1773WAT     H1 5530   1.320   3.227   4.429
 1773WAT     H2 5531   1.331   3.205   4.280
 1774WAT      O 5532   3.863   1.900   0.382
 1774WAT     H1 5533   3.903   1.965   0.442
 1774WAT     H2 5534   3.852   1.948   0.300
 1775WAT      O 5535   0.247   0.616   5.037
 1775WAT     H1 5536   0.160   0.628   4.998
 1775WAT     H2 5537   0.307   0.621   4.963
 1776WAT      O 5538   3.170   0.116   4.653
 1776WAT     H1 5539   3.116   0.107   4.575
 1776WAT     H2 5540   3.115   0.166   4.714
 1777WAT      O 5541   4.290   0.180   0.008
 1777WAT     H1 5542   4.275   0.136   0.092
 1777WAT     H2 5543   4.203   0.183  -0.033
 1778WAT      O 5544   1.801   0.261   4.706
 1778WAT     H1 5545   1.828   0.217   4.625
 1778WAT     H2 5546   1.707   0.278   4.693
 1779WAT      O 5547   1.217   0.630   3.823
 1779WAT     H1 5548   1.173   0.577   3.756
 1779WAT     H2 5549   1.289   0.574   3.853
 1780WAT      O 5550   1.364   4.796   3.213
 1780WAT     H1 5551   1.459   4.792   3.209
 1780WAT     H2 5552   1.342   4.882   3.176
 1781WAT      O 5553   4.447   3.848   1.590
 1781WAT     H1 5554   4.493   3.922   1.630
 1781WAT     H2 5555   4.381   3.824   1.656
 1782WAT      O 5556   0.973   3.453   2.358
 1782WAT     H1 5557   0.973   3.512   2.434
 1782WAT     H2 5558   0.966   3.512   2.282
 1783WAT      O 5559   0.256   0.958   3.982
 1783WAT     H1 5560   0.228   0.869   3.965
 1783WAT     H2 5561   0.273   0.995   3.896
 1784WAT      O 5562   0.732   1.367   1.807
 1784WAT     H1 5563   0.661   1.336   1.863
 1784WAT     H2 5564   0.699   1.353   1.718
 1785WAT      O 5565   4.262   5.004   0.764
 1785WAT     H1 5566   4.200   4.938   0.795
 1785WAT     H2 5567   4.275   4.985   0.671
 1786WAT      O 5568   1.605   5.057   1.023
 1786WAT     H1 5569   1.534   5.087   1.079
 1786WAT     H2 5570   1.565   4.990   0.968
 1787WAT      O 5571   0.612   2.281   4.825
 1787WAT     H1 5572   0.531   2.243   4.790
 1787WAT     H2 5573   0.680   2.220   4.801
 1788WAT      O 5574   0.648   3.446   0.949
 1788WAT     H1 5575   0.715   3.392   0.907
 1788WAT     H2 5576   0.595   3.383   0.998
 1789WAT      O 5577   3.898   1.373   4.977
 1789WAT     H1 5578   3.812   1.333   4.969
 1789WAT     H2 5579   3.894   1.448   4.917
 1790WAT      O 5580   2.691   3.355   1.413
 1790WAT     H1 5581   2.711   3.430   1.358
 1790WAT     H2 5582   2.652   3.392   1.492
 1791WAT      O 5583   0.242   4.973   0.829
 1791WAT     H1 5584   0.264   5.000   0.918
 1791WAT     H2 5585   0.155   5.010   0.815
 1792WAT      O 5586   3.126   3.620   3.670
 1792WAT     H1 5587   3.038   3.633   3.704
 1792WAT     H2 5588   3.178   3.691   3.710
 1793WAT      O 5589   2.335   1.406   5.185
 1793WAT     H1 5590   2.289   1.331   5.222
 1793WAT     H2 5591   2.395   1.433   5.253
 1794WAT      O 5592   3.193   0.313   2.891
 1794WAT     H1 5593   3.283   0.304   2.922
 1794WAT     H2 5594   3.152   0.373   2.954
 1795WAT      O 5595   3.413   0.593   5.090
 1795WAT     H1 5596   3.453   0.632   5.013
 1795WAT     H2 5597   3.464   0.628   5.163
 1796WAT      O 5598   4.490   0.172   1.260
 1796WAT     H1 5599   4.440   0.118   1.199
 1796WAT     H2 5600   4.425   0.225   1.305
 1797WAT      O 5601   3.415   0.691   4.427
 1797WAT     H1 5602   3.360   0.663   4.353
 1797WAT     H2 5603   3.477   0.619   4.439
 1798WAT      O 5604   2.827   4.935   1.693
 1798WAT     H1 5605   2.897   4.875   1.718
 1798WAT     H2 5606   2.821   4.925   1.598
 1799WAT      O 5607   2.805   1.982   4.515
 1799WAT     H1 5608   2.875   1.964   4.578
 1799WAT     H2 5609   2.833   1.939   4.434
 1800WAT      O 5610   1.628   0.747   1.797
 1800WAT     H1 5611   1.607   0.808   1.868
 1800WAT     H2 5612   1.546   0.738   1.749
 1801WAT      O 5613   1.479   2.300   0.557
 1801WAT     H1 5614   1.555   2.242   0.553
 1801WAT     H2 5615   1.443   2.288   0.645
 1802WAT      O 5616   0.470   4.794   3.070
 1802WAT     H1 5617   0.502   4.710   3.037
 1802WAT     H2 5618   0.530   4.859   3.035
 1803WAT      O 5619   3.383   1.287   0.498
 1803WAT     H1 5620   3.431   1.206   0.516
 1803WAT     H2 5621   3.291   1.264   0.515
 1804WAT      O 5622   0.781   4.085   0.461
 1804WAT     H1 5623   0.767   4.131   0.378
 1804WAT     H2 5624   0.694   4.052   0.484
 1805WAT      O 5625   0.289   3.331   3.051
 1805WAT     H1 5626   0.371   3.335   3.100
 1805WAT     H2 5627   0.260   3.422   3.044
 1806WAT      O 5628   1.250   3.316   3.460
 1806WAT     H1 5629   1.338   3.352   3.451
 1806WAT     H2 5630   1.244   3.286   3.551
 1807WAT      O 5631   4.220   4.127   3.356
 1807WAT     H1 5632   4.164   4.191   3.401
 1807WAT     H2 5633   4.190   4.129   3.265
 1808WAT      O 5634   0.090   1.719   0.322
 1808WAT     H1 5635   0.162   1.656   0.311
 1808WAT     H2 5636   0.112   1.790   0.261
 1809WAT      O 5637   2.919   1.083   1.654
 1809WAT     H1 5638   2.868   1.159   1.624
 1809WAT     H2 5639   2.993   1.078   1.594
 1810WAT      O 5640   0.026   2.384   5.075
 1810WAT     H1 5641   0.055   2.385   5.167
 1810WAT     H2 5642   0.082   2.319   5.033
 1811WAT      O 5643   4.383   2.463   2.364
 1811WAT     H1 5644   4.427   2.471   2.279
 1811WAT     H2 5645   4.440   2.406   2.416
 1812WAT      O 5646   0.428   0.703   2.908
 1812WAT     H1 5647   0.497   0.647   2.873
 1812WAT     H2 5648   0.476   0.777   2.948
 1813WAT      O 5649   4.068   0.440   3.487
 1813WAT     H1 5650   4.117   0.427   3.406
 1813WAT     H2 5651   4.129   0.486   3.545
 1814WAT      O 5652   3.652   2.235   0.511
 1814WAT     H1 5653   3.611   2.288   0.580
 1814WAT     H2 5654   3.713   2.179   0.557
 1815WAT      O 5655   1.303   2.531   4.874
 1815WAT     H1 5656   1.389   2.491   4.856
 1815WAT     H2 5657   1.323   2.602   4.936
 1816WAT      O 5658   2.150   0.414   4.138
 1816WAT     H1 5659   2.242   0.437   4.155
 1816WAT     H2 5660   2.153   0.321   4.115
 1817WAT      O 5661   3.448   2.680   1.491
 1817WAT     H1 5662   3.406   2.595   1.499
 1817WAT     H2 5663   3.388   2.733   1.440
 1818WAT      O 5664   2.736   3.091   1.608
 1818WAT     H1 5665   2.656   3.140   1.629
 1818WAT     H2 5666   2.787   3.153   1.555
 1819WAT      O 5667   4.239   2.715   2.580
 1819WAT     H1 5668   4.306   2.732   2.514
 1819WAT     H2 5669   4.283   2.664   2.648
 1820WAT      O 5670   4.191   3.587   0.217
 1820WAT     H1 5671   4.170   3.675   0.247
 1820WAT     H2 5672   4.286   3.590   0.200
 1821WAT      O 5673   3.776   1.372   0.735
 1821WAT     H1 5674   3.840   1.301   0.753
 1821WAT     H2 5675   3.769   1.373   0.640
 1822WAT      O 5676   2.208   1.193   4.868
 1822WAT     H1 5677   2.273   1.124   4.878
 1822WAT     H2 5678   2.259   1.274   4.867
 1823WAT      O 5679   1.224   1.883   5.156
 1823WAT     H1 5680   1.200   1.922   5.071
 1823WAT     H2 5681   1.285   1.813   5.134
 1824WAT      O 5682   1.828   3.054   0.319
 1824WAT     H1 5683   1.899   2.990   0.309
 1824WAT     H2 5684   1.865   3.135   0.284
 1825WAT      O 5685   0.512   4.241   0.111
 1825WAT     H1 5686   0.471   4.157   0.131
 1825WAT     H2 5687   0.503   4.251   0.017
 1826WAT      O 5688   1.076   2.858   0.855
 1826WAT     H1 5689   1.049   2.901   0.774
 1826WAT     H2 5690   1.167   2.885   0.868
 1827WAT      O 5691   4.254   0.831   3.007
 1827WAT     H1 5692   4.271   0.899   2.942
 1827WAT     H2 5693   4.340   0.801   3.035
 1828WAT      O 5694   0.475   3.907   4.315
 1828WAT     H1 5695   0.513   3.827   4.279
 1828WAT     H2 5696   0.428   3.947   4.242
 1829WAT      O 5697   0.281   3.455   3.651
 1829WAT     H1 5698   0.319   3.511   3.719
 1829WAT     H2 5699   0.259   3.516   3.580
 1830WAT      O 5700   0.807   3.005   3.446
 1830WAT     H1 5701   0.808   2.913   3.475
 1830WAT     H2 5702   0.836   3.003   3.355
 1831WAT      O 5703   4.047   3.452   0.762
 1831WAT     H1 5704   3.962   3.496   0.768
 1831WAT     H2 5705   4.068   3.453   0.668
 1832WAT      O 5706   4.227   2.720   0.421
 1832WAT     H1 5707   4.175   2.799   0.405
 1832WAT     H2 5708   4.270   2.735   0.505
 1833WAT      O 5709   0.329   2.294   2.916
 1833WAT     H1 5710   0.410   2.306   2.967
 1833WAT     H2 5711   0.312   2.201   2.918
 1834WAT      O 5712   0.833   2.834   2.333
 1834WAT     H1 5713   0.883   2.794   2.262
 1834WAT     H2 5714   0.785   2.762   2.372
 1835WAT      O 5715   2.376   1.571   3.561
 1835WAT     H1 5716   2.330   1.505   3.508
 1835WAT     H2 5717   2.317   1.646   3.562
 1836WAT      O 5718   3.644   4.816   3.120
 1836WAT     H1 5719   3.732   4.852   3.131
 1836WAT     H2 5720   3.589   4.893   3.102
 1837WAT      O 5721   1.335   0.463   0.733
 1837WAT     H1 5722   1.285   0.466   0.815
 1837WAT     H2 5723   1.380   0.548   0.730
 1838WAT      O 5724   2.354   1.544   4.233
 1838WAT     H1 5725   2.439   1.508   4.263
 1838WAT     H2 5726   2.293   1.518   4.302
 1839WAT      O 5727   3.842   0.550   4.282
 1839WAT     H1 5728   3.831   0.526   4.374
 1839WAT     H2 5729   3.753   0.568   4.252
 1840WAT      O 5730   1.111   1.060   1.257
 1840WAT     H1 5731   1.075   0.987   1.206
 1840WAT     H2 5732   1.202   1.034   1.275
 1841WAT      O 5733   0.335   4.426   4.427
 1841WAT     H1 5734   0.252   4.391   4.459
 1841WAT     H2 5735   0.402   4.377   4.476
 1842WAT      O 5736   1.393   1.179   2.834
 1842WAT     H1 5737   1.320   1.119   2.825
 1842WAT     H2 5738   1.445   1.142   2.906
 1843WAT      O 5739   3.523   1.047   0.532
 1843WAT     H1 5740   3.529   1.053   0.627
 1843WAT     H2 5741   3.613   1.035   0.503
 1844WAT      O 5742   2.117   2.835   2.516
 1844WAT     H1 5743   2.103   2.927   2.540
 1844WAT     H2 5744   2.042   2.789   2.556
 1845WAT      O 5745   1.956   2.074   3.459
 1845WAT     H1 5746   1.925   2.148   3.407
 1845WAT     H2 5747   1.977   2.007   3.394
 1846WAT      O 5748   1.934   0.428   4.886
 1846WAT     H1 5749   1.909   0.365   4.819
 1846WAT     H2 5750   2.003   0.384   4.935
 1847WAT      O 5751   4.141   3.363   2.892
 1847WAT     H1 5752   4.151   3.418   2.969
 1847WAT     H2 5753   4.163   3.275   2.922
 1848WAT      O 5754   0.807   4.077   0.081
 1848WAT     H1 5755   0.822   4.163   0.042
 1848WAT     H2 5756   0.720   4.052   0.050
 1849WAT      O 5757   1.203   0.613   3.002
 1849WAT     H1 5758   1.117   0.653   2.986
 1849WAT     H2 5759   1.263   0.666   2.949
 1850WAT      O 5760   2.421   3.202   1.389
 1850WAT     H1 5761   2.370   3.281   1.377
 1850WAT     H2 5762   2.511   3.232   1.399
 1851WAT      O 5763   4.420   3.352   1.215
 1851WAT     H1 5764   4.458   3.269   1.245
 1851WAT     H2 5765   4.329   3.348   1.241
 1852WAT      O 5766   2.891   3.544   1.761
 1852WAT     H1 5767   2.925   3.560   1.673
 1852WAT     H2 5768   2.862   3.630   1.791
 1853WAT      O 5769   4.056   4.845   1.949
 1853WAT     H1 5770   4.097   4.921   1.991
 1853WAT     H2 5771   3.969   4.840   1.989
 1854WAT      O 5772   3.965   2.644   1.062
 1854WAT     H1 5773   3.972   2.717   1.124
 1854WAT     H2 5774   4.047   2.597   1.073
 1855WAT      O 5775   3.027   1.264   1.869
 1855WAT     H1 5776   3.070   1.277   1.954
 1855WAT     H2 5777   2.986   1.177   1.876
 1856WAT      O 5778   2.706   4.805   3.485
 1856WAT     H1 5779   2.728   4.870   3.418
 1856WAT     H2 5780   2.766   4.825   3.557
 1857WAT      O 5781   2.201   2.410   0.343
 1857WAT     H1 5782   2.171   2.354   0.270
 1857WAT     H2 5783   2.138   2.482   0.347
 1858WAT      O 5784   3.567   4.016   1.700
 1858WAT     H1 5785   3.564   4.081   1.630
 1858WAT     H2 5786   3.648   3.968   1.684
 1859WAT      O 5787   1.406   0.779   0.235
 1859WAT     H1 5788   1.463   0.844   0.195
 1859WAT     H2 5789   1.416   0.701   0.181
 1860WAT      O 5790   2.245   4.293   1.565
 1860WAT     H1 5791   2.217   4.368   1.513
 1860WAT     H2 5792   2.319   4.256   1.516
 1861WAT      O 5793   2.426   3.154   5.260
 1861WAT     H1 5794   2.488   3.094   5.219
 1861WAT     H2 5795   2.351   3.156   5.200
 1862WAT      O 5796   2.397   1.758   1.095
 1862WAT     H1 5797   2.302   1.761   1.081
 1862WAT     H2 5798   2.433   1.738   1.008
 1863WAT      O 5799   0.438   2.643   1.039
 1863WAT     H1 5800   0.509   2.650   0.975
 1863WAT     H2 5801   0.382   2.574   1.005
 1864WAT      O 5802   1.424   4.932   1.895
 1864WAT     H1 5803   1.405   4.986   1.819
 1864WAT     H2 5804   1.519   4.929   1.900
 1865WAT      O 5805   1.881   3.570   4.650
 1865WAT     H1 5806   1.943   3.519   4.702
 1865WAT     H2 5807   1.854   3.512   4.580
 1866WAT      O 5808   0.818   1.070   1.374
 1866WAT     H1 5809   0.807   1.040   1.284
 1866WAT     H2 5810   0.913   1.073   1.387
 1867WAT      O 5811   0.429   4.629   2.118
 1867WAT     H1 5812   0.383   4.704   2.154
 1867WAT     H2 5813   0.496   4.608   2.183
 1868WAT      O 5814   0.810   3.389   3.608
 1868WAT     H1 5815   0.891   3.401   3.559
 1868WAT     H2 5816   0.836   3.393   3.700
 1869WAT      O 5817   0.865   2.479   0.961
 1869WAT     H1 5818   0.859   2.471   0.866
 1869WAT     H2 5819   0.781   2.517   0.987
 1870WAT      O 5820   0.969   2.086   2.536
 1870WAT     H1 5821   1.033   2.041   2.592
 1870WAT     H2 5822   0.885   2.070   2.578
 1871WAT      O 5823   4.218   2.984   1.809
 1871WAT     H1 5824   4.154   3.005   1.876
 1871WAT     H2 5825   4.175   3.005   1.726
 1872WAT      O 5826   3.357   4.312   5.157
 1872WAT     H1 5827   3.408   4.357   5.089
 1872WAT     H2 5828   3.308   4.245   5.110
 1873WAT      O 5829   0.688   0.412   1.387
 1873WAT     H1 5830   0.632   0.413   1.465
 1873WAT     H2 5831   0.762   0.358   1.413
 1874WAT      O 5832   2.026   2.664   1.195
 1874WAT     H1 5833   1.972   2.743   1.186
 1874WAT     H2 5834   2.069   2.676   1.280
 1875WAT      O 5835   2.822   0.741   2.063
 1875WAT     H1 5836   2.825   0.665   2.120
 1875WAT     H2 5837   2.912   0.773   2.061
 1876WAT      O 5838   3.293   4.965   4.087
 1876WAT     H1 5839   3.358   4.897   4.101
 1876WAT     H2 5840   3.329   5.017   4.015
 1877WAT      O 5841   0.502   0.744   4.323
 1877WAT     H1 5842   0.459   0.788   4.397
 1877WAT     H2 5843   0.514   0.654   4.354
 1878WAT      O 5844   3.403   4.400   0.114
 1878WAT     H1 5845   3.425   4.490   0.088
 1878WAT     H2 5846   3.373   4.358   0.033
 1879WAT      O 5847   0.604   3.143   2.308
 1879WAT     H1 5848   0.690   3.149   2.350
 1879WAT     H2 5849   0.554   3.216   2.344
 1880WAT      O 5850   2.120   0.059   1.889
 1880WAT     H1 5851   2.197   0.014   1.924
 1880WAT     H2 5852   2.144   0.151   1.891
 1881WAT      O 5853   1.597   0.125   2.935
 1881WAT     H1 5854   1.654   0.106   2.861
 1881WAT     H2 5855   1.657   0.141   3.008
 1882WAT      O 5856   2.378   2.477   4.721
 1882WAT     H1 5857   2.370   2.381   4.722
 1882WAT     H2 5858   2.365   2.500   4.630
 1883WAT      O 5859   0.136   0.065   0.281
 1883WAT     H1 5860   0.219   0.071   0.329
 1883WAT     H2 5861   0.154   0.004   0.209
 1884WAT      O 5862   4.519   1.308   4.000
 1884WAT     H1 5863   4.475   1.370   3.942
 1884WAT     H2 5864   4.487   1.330   4.088
 1885WAT      O 5865   4.009   2.334   2.706
 1885WAT     H1 5866   3.944   2.380   2.653
 1885WAT     H2 5867   3.958   2.268   2.754
 1886WAT      O 5868   2.267   3.880   2.663
 1886WAT     H1 5869   2.289   3.955   2.608
 1886WAT     H2 5870   2.183   3.848   2.628
 1887WAT      O 5871   3.637   3.875   3.096
 1887WAT     H1 5872   3.700   3.903   3.163
 1887WAT     H2 5873   3.630   3.781   3.107
 1888WAT      O 5874   4.484   0.745   3.088
 1888WAT     H1 5875   4.548   0.705   3.028
 1888WAT     H2 5876   4.488   0.691   3.167
 1889WAT      O 5877   1.767   4.673   5.082
 1889WAT     H1 5878   1.676   4.674   5.110
 1889WAT     H2 5879   1.770   4.736   5.011
 1890WAT      O 5880   1.755   0.221   2.116
 1890WAT     H1 5881   1.767   0.177   2.200
 1890WAT     H2 5882   1.734   0.312   2.138
 1891WAT      O 5883   2.352   3.483   0.281
 1891WAT     H1 5884   2.358   3.479   0.185
 1891WAT     H2 5885   2.260   3.501   0.298
 1892WAT      O 5886   0.095   3.709   0.902
 1892WAT     H1 5887   0.049   3.646   0.956
 1892WAT     H2 5888   0.150   3.758   0.963
 1893WAT      O 5889   2.113   0.708   3.585
 1893WAT     H1 5890   2.161   0.789   3.601
 1893WAT     H2 5891   2.175   0.639   3.606
 1894WAT      O 5892   1.775   3.452   4.148
 1894WAT     H1 5893   1.706   3.467   4.213
 1894WAT     H2 5894   1.824   3.534   4.146
 1895WAT      O 5895   3.830   0.907   0.896
 1895WAT     H1 5896   3.843   0.872   0.808
 1895WAT     H2 5897   3.896   0.862   0.949
 1896WAT      O 5898   1.488   2.788   1.649
 1896WAT     H1 5899   1.562   2.765   1.705
 1896WAT     H2 5900   1.440   2.854   1.699
 1897WAT      O 5901   1.286   0.318   0.181
 1897WAT     H1 5902   1.225   0.366   0.125
 1897WAT     H2 5903   1.252   0.228   0.183
 1898WAT      O 5904   2.461   1.597   0.391
 1898WAT     H1 5905   2.555   1.586   0.374
 1898WAT     H2 5906   2.442   1.534   0.460
 1899WAT      O 5907   1.119   1.790   4.290
 1899WAT     H1 5908   1.077   1.744   4.218
 1899WAT     H2 5909   1.176   1.853   4.246
 1900WAT      O 5910   2.641   1.945   0.920
 1900WAT     H1 5911   2.599   2.021   0.880
 1900WAT     H2 5912   2.599   1.869   0.880
 1901WAT      O 5913   1.431   1.044   0.476
 1901WAT     H1 5914   1.453   0.991   0.399
 1901WAT     H2 5915   1.513   1.048   0.526
 1902WAT      O 5916   4.316   2.766   3.922
 1902WAT     H1 5917   4.309   2.820   3.844
 1902WAT     H2 5918   4.398   2.717   3.911
 1903WAT      O 5919   1.439   0.604   4.958
 1903WAT     H1 5920   1.356   0.563   4.982
 1903WAT     H2 5921   1.500   0.531   4.948
 1904WAT      O 5922   3.193   5.077   1.214
 1904WAT     H1 5923   3.144   5.099   1.293
 1904WAT     H2 5924   3.147   5.125   1.144
 1905WAT      O 5925   0.215   1.277   2.796
 1905WAT     H1 5926   0.307   1.301   2.791
 1905WAT     H2 5927   0.214   1.193   2.843
 1906WAT      O 5928   2.659   3.447   3.625
 1906WAT     H1 5929   2.622   3.416   3.708
 1906WAT     H2 5930   2.702   3.529   3.647
 1907WAT      O 5931   4.231   4.135   0.686
 1907WAT     H1 5932   4.283   4.203   0.727
 1907WAT     H2 5933   4.285   4.103   0.614
 1908WAT      O 5934   1.072   4.368   3.045
 1908WAT     H1 5935   1.108   4.432   3.107
 1908WAT     H2 5936   1.132   4.293   3.051
 1909WAT      O 5937   1.795   4.130   2.132
 1909WAT     H1 5938   1.747   4.164   2.208
 1909WAT     H2 5939   1.839   4.051   2.165
 1910WAT      O 5940   2.833   3.384   3.912
 1910WAT     H1 5941   2.848   3.473   3.882
 1910WAT     H2 5942   2.738   3.378   3.923
 1911WAT      O 5943   0.123   0.741   3.810
 1911WAT     H1 5944   0.135   0.646   3.819
 1911WAT     H2 5945   0.029   0.751   3.794
 1912WAT      O 5946   3.884   4.462   4.526
 1912WAT     H1 5947   3.876   4.558   4.530
 1912WAT     H2 5948   3.850   4.432   4.610
 1913WAT      O 5949   3.172   4.532   4.103
 1913WAT     H1 5950   3.170   4.437   4.091
 1913WAT     H2 5951   3.103   4.549   4.167
 1914WAT      O 5952   4.099   0.275   0.521
 1914WAT     H1 5953   4.125   0.228   0.600
 1914WAT     H2 5954   4.181   0.307   0.484
 1915WAT      O 5955   1.952   2.723   2.684
 1915WAT     H1 5956   1.981   2.755   2.770
 1915WAT     H2 5957   1.856   2.722   2.690
 1916WAT      O 5958   3.330   1.548   4.208
 1916WAT     H1 5959   3.333   1.547   4.112
 1916WAT     H2 5960   3.238   1.564   4.229
 1917WAT      O 5961   2.000   4.106   4.042
 1917WAT     H1 5962   2.022   4.039   3.977
 1917WAT     H2 5963   1.906   4.121   4.031
 1918WAT      O 5964   2.106   0.062   4.445
 1918WAT     H1 5965   2.194   0.100   4.449
 1918WAT     H2 5966   2.121  -0.029   4.422
 1919WAT      O 5967   0.891   1.704   4.888
 1919WAT     H1 5968   0.847   1.678   4.807
 1919WAT     H2 5969   0.984   1.688   4.871
 1920WAT      O 5970   4.369   1.159   0.207
 1920WAT     H1 5971   4.435   1.163   0.138
 1920WAT     H2 5972   4.415   1.117   0.281
 1921WAT      O 5973   3.248   0.428   4.673
 1921WAT     H1 5974   3.336   0.463   4.687
 1921WAT     H2 5975   3.226   0.388   4.757
 1922WAT      O 5976   2.891   1.906   5.234
 1922WAT     H1 5977   2.949   1.862   5.296
 1922WAT     H2 5978   2.941   1.982   5.206
 1923WAT      O 5979   1.092   4.170   1.480
 1923WAT     H1 5980   1.039   4.204   1.408
 1923WAT     H2 5981   1.046   4.091   1.509
 1924WAT      O 5982   2.675   0.734   2.684
 1924WAT     H1 5983   2.635   0.709   2.767
 1924WAT     H2 5984   2.697   0.650   2.642
 1925WAT      O 5985   4.257   4.939   0.152
 1925WAT     H1 5986   4.345   4.903   0.150
 1925WAT     H2 5987   4.206   4.874   0.201
 1926WAT      O 5988   0.508   2.471   1.706
 1926WAT     H1 5989   0.503   2.532   1.633
 1926WAT     H2 5990   0.447   2.505   1.771
 1927WAT      O 5991   1.638   2.647   4.504
 1927WAT     H1 5992   1.602   2.676   4.587
 1927WAT     H2 5993   1.652   2.727   4.454
 1928WAT      O 5994   0.346   3.925   5.151
 1928WAT     H1 5995   0.335   3.982   5.074
 1928WAT     H2 5996   0.303   3.843   5.127
 1929WAT      O 5997   3.412   1.162   2.470
 1929WAT     H1 5998   3.479   1.208   2.419
 1929WAT     H2 5999   3.426   1.192   2.560
 1930WAT      O 6000   3.802   1.462   2.432
 1930WAT     H1 6001   3.726   1.419   2.471
 1930WAT     H2 6002   3.833   1.402   2.365
 1931WAT      O 6003   2.978   2.452   4.273
 1931WAT     H1 6004   3.029   2.446   4.354
 1931WAT     H2 6005   2.915   2.380   4.279
 1932WAT      O 6006   0.667   4.912   3.347
 1932WAT     H1 6007   0.609   4.836   3.343
 1932WAT     H2 6008   0.716   4.900   3.429
 1933WAT      O 6009   0.070   0.810   0.635
 1933WAT     H1 6010   0.088   0.902   0.648
 1933WAT     H2 6011   0.127   0.764   0.697
 1934WAT      O 6012   0.522   2.872   4.803
 1934WAT     H1 6013   0.540   2.864   4.710
 1934WAT     H2 6014   0.531   2.782   4.837
 1935WAT      O 6015   4.160   0.785   1.564
 1935WAT     H1 6016   4.229   0.777   1.499
 1935WAT     H2 6017   4.173   0.710   1.622
 1936WAT      O 6018   2.510   4.415   2.844
 1936WAT     H1 6019   2.549   4.388   2.927
 1936WAT     H2 6020   2.530   4.344   2.783
 1937WAT      O 6021   1.737   0.811   4.068
 1937WAT     H1 6022   1.693   0.846   3.991
 1937WAT     H2 6023   1.799   0.879   4.094
 1938WAT      O 6024   3.497   0.567   2.053
 1938WAT     H1 6025   3.463   0.604   2.134
 1938WAT     H2 6026   3.422   0.567   1.993
 1939WAT      O 6027   0.624   0.866   4.874
 1939WAT     H1 6028   0.609   0.824   4.958
 1939WAT     H2 6029   0.547   0.921   4.860
 1940WAT      O 6030   2.204   2.250   1.437
 1940WAT     H1 6031   2.215   2.313   1.365
 1940WAT     H2 6032   2.110   2.233   1.439
 1941WAT      O 6033   1.120   2.242   3.334
 1941WAT     H1 6034   1.039   2.204   3.299
 1941WAT     H2 6035   1.092   2.292   3.410
 1942WAT      O 6036   2.930   4.354   2.378
 1942WAT     H1 6037   2.944   4.262   2.358
 1942WAT     H2 6038   2.838   4.370   2.358
 1943WAT      O 6039   1.603   3.805   0.430
 1943WAT     H1 6040   1.594   3.832   0.522
 1943WAT     H2 6041   1.557   3.873   0.381
 1944WAT      O 6042   0.114   1.784   3.758
 1944WAT     H1 6043   0.046   1.818   3.815
 1944WAT     H2 6044   0.123   1.692   3.783
 1945WAT      O 6045   0.275   1.300   3.914
 1945WAT     H1 6046   0.201   1.257   3.956
 1945WAT     H2 6047   0.306   1.236   3.849
 1946WAT      O 6048   3.074   4.994   5.055
 1946WAT     H1 6049   3.100   5.085   5.070
 1946WAT     H2 6050   2.986   4.987   5.091
 1947WAT      O 6051   3.935   1.816   4.545
 1947WAT     H1 6052   3.871   1.824   4.616
 1947WAT     H2 6053   3.936   1.902   4.503
 1948WAT      O 6054   4.172   0.203   2.071
 1948WAT     H1 6055   4.211   0.225   1.987
 1948WAT     H2 6056   4.085   0.244   2.069
 1949WAT      O 6057   1.632   0.431   4.891
 1949WAT     H1 6058   1.725   0.407   4.885
 1949WAT     H2 6059   1.588   0.365   4.837
 1950WAT      O 6060   1.245   0.733   4.796
 1950WAT     H1 6061   1.332   0.702   4.769
 1950WAT     H2 6062   1.263   0.784   4.876
 1951WAT      O 6063   4.454   0.401   4.726
 1951WAT     H1 6064   4.387   0.378   4.791
 1951WAT     H2 6065   4.537   0.380   4.768
 1952WAT      O 6066   4.022   2.233   5.084
 1952WAT     H1 6067   4.055   2.188   5.162
 1952WAT     H2 6068   4.083   2.209   5.014
 1953WAT      O 6069   3.568   0.169   2.679
 1953WAT     H1 6070   3.631   0.137   2.615
 1953WAT     H2 6071   3.605   0.145   2.764
 1954WAT      O 6072   1.537   0.272   3.722
 1954WAT     H1 6073   1.523   0.344   3.661
 1954WAT     H2 6074   1.629   0.279   3.748
 1955WAT      O 6075   1.146   3.516   0.420
 1955WAT     H1 6076   1.197   3.558   0.351
 1955WAT     H2 6077   1.189   3.541   0.501
 1956WAT      O 6078   1.090   1.573   0.132
 1956WAT     H1 6079   1.150   1.580   0.206
 1956WAT     H2 6080   1.140   1.524   0.067
 1957WAT      O 6081   3.766   0.612   5.181
 1957WAT     H1 6082   3.788   0.634   5.091
 1957WAT     H2 6083   3.717   0.688   5.213
 1958WAT      O 6084   3.464   0.006   0.341
 1958WAT     H1 6085   3.428  -0.058   0.403
 1958WAT     H2 6086   3.426  -0.020   0.256
 1959WAT      O 6087   2.432   3.800   4.360
 1959WAT     H1 6088   2.495   3.777   4.429
 1959WAT     H2 6089   2.478   3.863   4.305
 1960WAT      O 6090   2.723   2.551   0.655
 1960WAT     H1 6091   2.805   2.594   0.626
 1960WAT     H2 6092   2.752   2.484   0.716
 1961WAT      O 6093   1.320   3.675   1.618
 1961WAT     H1 6094   1.340   3.615   1.546
 1961WAT     H2 6095   1.237   3.716   1.594
 1962WAT      O 6096   4.057   0.227   1.212
 1962WAT     H1 6097   4.055   0.297   1.147
 1962WAT     H2 6098   4.028   0.268   1.294
 1963WAT      O 6099   3.620   0.915   4.305
 1963WAT     H1 6100   3.580   0.846   4.252
 1963WAT     H2 6101   3.605   0.887   4.396
 1964WAT      O 6102   4.419   0.178   2.807
 1964WAT     H1 6103   4.442   0.168   2.714
 1964WAT     H2 6104   4.333   0.219   2.806
 1965WAT      O 6105   1.764   4.231   3.401
 1965WAT     H1 6106   1.826   4.184   3.346
 1965WAT     H2 6107   1.751   4.173   3.476
 1966WAT      O 6108   2.817   1.788   0.564
 1966WAT     H1 6109   2.728   1.820   0.550
 1966WAT     H2 6110   2.873   1.857   0.529
 1967WAT      O 6111   3.840   1.324   1.949
 1967WAT     H1 6112   3.875   1.402   1.994
 1967WAT     H2 6113   3.770   1.292   2.007
 1968WAT      O 6114   2.237   3.813   4.684
 1968WAT     H1 6115   2.320   3.833   4.640
 1968WAT     H2 6116   2.185   3.768   4.617
 1969WAT      O 6117   1.557   3.432   1.784
 1969WAT     H1 6118   1.541   3.516   1.827
 1969WAT     H2 6119   1.651   3.416   1.797
 1970WAT      O 6120   2.233   1.850   4.328
 1970WAT     H1 6121   2.196   1.932   4.294
 1970WAT     H2 6122   2.164   1.814   4.384
 1971WAT      O 6123   2.869   3.245   0.132
 1971WAT     H1 6124   2.838   3.169   0.182
 1971WAT     H2 6125   2.792   3.301   0.123
 1972WAT      O 6126   1.251   4.986   3.049
 1972WAT     H1 6127   1.167   5.030   3.038
 1972WAT     H2 6128   1.316   5.056   3.044
 1973WAT      O 6129   1.986   1.429   1.363
 1973WAT     H1 6130   2.054   1.471   1.311
 1973WAT     H2 6131   1.904   1.449   1.316
 1974WAT      O 6132   4.174   4.647   1.591
 1974WAT     H1 6133   4.102   4.617   1.647
 1974WAT     H2 6134   4.133   4.711   1.533
 1975WAT      O 6135   0.121   3.797   1.175
 1975WAT     H1 6136   0.210   3.763   1.176
 1975WAT     H2 6137   0.083   3.768   1.258
 1976WAT      O 6138   4.229   2.937   2.718
 1976WAT     H1 6139   4.322   2.939   2.737
 1976WAT     H2 6140   4.217   2.860   2.661
 1977WAT      O 6141   1.273   3.337   4.573
 1977WAT     H1 6142   1.197   3.320   4.628
 1977WAT     H2 6143   1.314   3.414   4.613
 1978WAT      O 6144   2.940   2.179   5.209
 1978WAT     H1 6145   2.857   2.170   5.163
 1978WAT     H2 6146   3.005   2.193   5.140
 1979WAT      O 6147   2.718   1.318   3.092
 1979WAT     H1 6148   2.640   1.300   3.039
 1979WAT     H2 6149   2.699   1.400   3.137
 1980WAT      O 6150   3.139   3.770   4.058
 1980WAT     H1 6151   3.186   3.703   4.108
 1980WAT     H2 6152   3.191   3.780   3.978
 1981WAT      O 6153   3.128   1.728   3.789
 1981WAT     H1 6154   3.033   1.731   3.786
 1981WAT     H2 6155   3.156   1.770   3.708
 1982WAT      O 6156   1.638   1.607   2.888
 1982WAT     H1 6157   1.553   1.603   2.933
 1982WAT     H2 6158   1.700   1.632   2.957
 1983WAT      O 6159   4.518   4.740   0.814
 1983WAT     H1 6160   4.444   4.756   0.873
 1983WAT     H2 6161   4.564   4.823   0.810
 1984WAT      O 6162   1.611   3.502   0.626
 1984WAT     H1 6163   1.691   3.450   0.616
 1984WAT     H2 6164   1.640   3.581   0.671
 1985WAT      O 6165   4.510   1.041   0.437
 1985WAT     H1 6166   4.571   1.100   0.483
 1985WAT     H2 6167   4.551   0.955   0.440
 1986WAT      O 6168   1.302   4.810   1.122
 1986WAT     H1 6169   1.323   4.902   1.108
 1986WAT     H2 6170   1.211   4.802   1.092
 1987WAT      O 6171   0.385   4.986   4.686
 1987WAT     H1 6172   0.290   4.991   4.695
 1987WAT     H2 6173   0.399   4.953   4.597
 1988WAT      O 6174   2.440   0.234   4.639
 1988WAT     H1 6175   2.364   0.263   4.689
 1988WAT     H2 6176   2.515   0.266   4.689
 1989WAT      O 6177   2.072   2.927   1.265
 1989WAT     H1 6178   2.152   2.925   1.214
 1989WAT     H2 6179   2.052   3.021   1.274
 1990WAT      O 6180   4.438   3.253   2.063
 1990WAT     H1 6181   4.449   3.282   1.973
 1990WAT     H2 6182   4.343   3.256   2.078
 1991WAT      O 6183   4.407   2.859   4.517
 1991WAT     H1 6184   4.387   2.788   4.578
 1991WAT     H2 6185   4.502   2.865   4.517
 1992WAT      O 6186   1.763   0.073   3.176
 1992WAT     H1 6187   1.749   0.135   3.248
 1992WAT     H2 6188   1.725  -0.009   3.207
 1993WAT      O 6189   3.098   4.395   2.617
 1993WAT     H1 6190   3.137   4.479   2.592
 1993WAT     H2 6191   3.025   4.383   2.556
 1994WAT      O 6192   3.924   3.758   3.537
 1994WAT     H1 6193   3.974   3.677   3.551
 1994WAT     H2 6194   3.861   3.760   3.609
 1995WAT      O 6195   0.306   4.550   0.554
 1995WAT     H1 6196   0.274   4.541   0.644
 1995WAT     H2 6197   0.227   4.546   0.501
 1996WAT      O 6198   3.370   3.416   4.294
 1996WAT     H1 6199   3.288   3.400   4.248
 1996WAT     H2 6200   3.412   3.330   4.300
 1997WAT      O 6201   1.137   1.029   0.720
 1997WAT     H1 6202   1.203   1.071   0.775
 1997WAT     H2 6203   1.154   1.063   0.632
 1998WAT      O 6204   0.513   1.386   0.321
 1998WAT     H1 6205   0.512   1.403   0.226
 1998WAT     H2 6206   0.534   1.471   0.360
 1999WAT      O 6207   3.899   3.323   3.529
 1999WAT     H1 6208   3.963   3.262   3.492
 1999WAT     H2 6209   3.944   3.407   3.532
 2000WAT      O 6210   1.449   2.789   1.363
 2000WAT     H1 6211   1.463   2.805   1.456
 2000WAT     H2 6212   1.361   2.755   1.357
 2001WAT      O 6213   2.338   4.908   2.984
 2001WAT     H1 6214   2.274   4.979   2.975
 2001WAT     H2 6215   2.357   4.882   2.894
 2002WAT      O 6216   0.743   2.429   0.648
 2002WAT     H1 6217   0.740   2.342   0.691
 2002WAT     H2 6218   0.792   2.413   0.567
 2003WAT      O 6219   2.851   1.205   2.288
 2003WAT     H1 6220   2.789   1.142   2.251
 2003WAT     H2 6221   2.891   1.159   2.361
 2004WAT      O 6222   1.385   0.795   2.725
 2004WAT     H1 6223   1.383   0.764   2.635
 2004WAT     H2 6224   1.315   0.860   2.729
 2005WAT      O 6225   0.516   2.512   1.276
 2005WAT     H1 6226   0.477   2.426   1.274
 2005WAT     H2 6227   0.448   2.571   1.241
 2006WAT      O 6228   0.140   4.144   0.419
 2006WAT     H1 6229   0.106   4.225   0.457
 2006WAT     H2 6230   0.228   4.165   0.390
 2007WAT      O 6231   2.759   1.551   0.721
 2007WAT     H1 6232   2.783   1.600   0.642
 2007WAT     H2 6233   2.805   1.596   0.792
 2008WAT      O 6234   0.660   1.211   0.927
 2008WAT     H1 6235   0.733   1.150   0.942
 2008WAT     H2 6236   0.633   1.195   0.837
 2009WAT      O 6237   2.006   2.793   3.579
 2009WAT     H1 6238   2.054   2.791   3.661
 2009WAT     H2 6239   1.920   2.755   3.600
 2010WAT      O 6240   1.833   3.103   4.749
 2010WAT     H1 6241   1.814   3.156   4.826
 2010WAT     H2 6242   1.919   3.133   4.719
 2011WAT      O 6243   4.166   1.356   0.237
 2011WAT     H1 6244   4.238   1.303   0.205
 2011WAT     H2 6245   4.205   1.442   0.251
 2012WAT      O 6246   0.505   5.051   4.020
 2012WAT     H1 6247   0.575   4.993   4.050
 2012WAT     H2 6248   0.499   5.035   3.926
 2013WAT      O 6249   2.708   2.216   0.289
 2013WAT     H1 6250   2.642   2.164   0.242
 2013WAT     H2 6251   2.791   2.184   0.255
 2014WAT      O 6252   0.068   2.598   0.083
 2014WAT     H1 6253   0.136   2.666   0.069
 2014WAT     H2 6254   0.109   2.518   0.053
 2015WAT      O 6255   0.394   4.112   0.954
 2015WAT     H1 6256   0.299   4.105   0.961
 2015WAT     H2 6257   0.408   4.188   0.897
 2016WAT      O 6258   0.857   4.190   2.682
 2016WAT     H1 6259   0.907   4.149   2.752
 2016WAT     H2 6260   0.879   4.283   2.688
 2017WAT      O 6261   3.270   3.544   4.725
 2017WAT     H1 6262   3.283   3.610   4.793
 2017WAT     H2 6263   3.354   3.498   4.720
 2018WAT      O 6264   1.171   1.438   2.442
 2018WAT     H1 6265   1.153   1.445   2.349
 2018WAT     H2 6266   1.093   1.399   2.480
 2019WAT      O 6267   2.772   0.157   4.523
 2019WAT     H1 6268   2.722   0.234   4.497
 2019WAT     H2 6269   2.857   0.167   4.480
 2020WAT      O 6270   2.902   0.856   2.742
 2020WAT     H1 6271   2.887   0.933   2.796
 2020WAT     H2 6272   2.816   0.816   2.732
 2021WAT      O 6273   1.479   0.149   3.967
 2021WAT     H1 6274   1.460   0.171   4.059
 2021WAT     H2 6275   1.523   0.226   3.932
 2022WAT      O 6276   1.771   4.449   3.728
 2022WAT     H1 6277   1.799   4.502   3.803
 2022WAT     H2 6278   1.807   4.362   3.745
 2023WAT      O 6279   3.485   4.221   0.306
 2023WAT     H1 6280   3.541   4.152   0.271
 2023WAT     H2 6281   3.463   4.275   0.230
 2024WAT      O 6282   1.016   0.141   4.759
 2024WAT     H1 6283   1.058   0.217   4.798
 2024WAT     H2 6284   1.024   0.154   4.665
 2025WAT      O 6285   3.397   3.639   4.136
 2025WAT     H1 6286   3.487   3.662   4.109
 2025WAT     H2 6287   3.407   3.560   4.188
 2026WAT      O 6288   0.853   1.359   2.831
 2026WAT     H1 6289   0.873   1.294   2.765
 2026WAT     H2 6290   0.815   1.308   2.904
 2027WAT      O 6291   3.894   2.870   0.068
 2027WAT     H1 6292   3.980   2.911   0.070
 2027WAT     H2 6293   3.863   2.880  -0.022
 2028WAT      O 6294   2.693   4.286   4.856
 2028WAT     H1 6295   2.725   4.251   4.939
 2028WAT     H2 6296   2.746   4.365   4.841
 2029WAT      O 6297   2.749   1.475   3.953
 2029WAT     H1 6298   2.681   1.425   3.998
 2029WAT     H2 6299   2.791   1.527   4.022
 2030WAT      O 6300   2.095   0.703   3.126
 2030WAT     H1 6301   2.020   0.668   3.078
 2030WAT     H2 6302   2.060   0.729   3.211
 2031WAT      O 6303   0.526   3.952   3.122
 2031WAT     H1 6304   0.543   3.861   3.099
 2031WAT     H2 6305   0.525   3.953   3.218
 2032WAT      O 6306   0.439   2.863   3.638
 2032WAT     H1 6307   0.470   2.924   3.705
 2032WAT     H2 6308   0.407   2.788   3.687
 2033WAT      O 6309   2.675   2.393   4.670
 2033WAT     H1 6310   2.591   2.406   4.715
 2033WAT     H2 6311   2.661   2.432   4.583
 2034WAT      O 6312   2.578   3.555   1.543
 2034WAT     H1 6313   2.540   3.514   1.621
 2034WAT     H2 6314   2.637   3.623   1.578
 2035WAT      O 6315   3.757   0.971   3.130
 2035WAT     H1 6316   3.842   0.928   3.144
 2035WAT     H2 6317   3.775   1.042   3.070
 2036WAT      O 6318   1.233   0.539   0.972
 2036WAT     H1 6319   1.238   0.632   0.953
 2036WAT     H2 6320   1.163   0.531   1.038
 2037WAT      O 6321   3.642   4.057   1.344
 2037WAT     H1 6322   3.704   4.101   1.401
 2037WAT     H2 6323   3.693   4.030   1.268
 2038WAT      O 6324   0.530   2.518   2.287
 2038WAT     H1 6325   0.457   2.545   2.344
 2038WAT     H2 6326   0.503   2.434   2.251
 2039WAT      O 6327   0.059   2.393   1.029
 2039WAT     H1 6328   0.064   2.375   0.935
 2039WAT     H2 6329   0.025   2.312   1.066
 2040WAT      O 6330   3.578   2.393   2.163
 2040WAT     H1 6331   3.639   2.416   2.234
 2040WAT     H2 6332   3.620   2.426   2.084
 2041WAT      O 6333   4.057   2.197   4.551
 2041WAT     H1 6334   4.025   2.288   4.544
 2041WAT     H2 6335   3.983   2.143   4.524
 2042WAT      O 6336   2.624   4.590   3.856
 2042WAT     H1 6337   2.528   4.594   3.851
 2042WAT     H2 6338   2.642   4.501   3.887
 2043WAT      O 6339   1.968   4.078   1.031
 2043WAT     H1 6340   1.931   4.165   1.048
 2043WAT     H2 6341   2.011   4.054   1.112
 2044WAT      O 6342   3.240   5.020   0.432
 2044WAT     H1 6343   3.184   5.055   0.501
 2044WAT     H2 6344   3.233   4.925   0.441
 2045WAT      O 6345   1.788   3.037   4.490
 2045WAT     H1 6346   1.777   3.058   4.583
 2045WAT     H2 6347   1.700   3.017   4.459
 2046WAT      O 6348   3.295   1.223   4.151
 2046WAT     H1 6349   3.276   1.307   4.109
 2046WAT     H2 6350   3.216   1.170   4.135
 2047WAT      O 6351   1.955   4.702   0.346
 2047WAT     H1 6352   1.956   4.792   0.315
 2047WAT     H2 6353   1.882   4.699   0.408
 2048WAT      O 6354   0.988   3.884   3.262
 2048WAT     H1 6355   0.937   3.891   3.181
 2048WAT     H2 6356   1.024   3.971   3.276
 2049WAT      O 6357   2.997   3.753   3.122
 2049WAT     H1 6358   3.045   3.683   3.166
 2049WAT     H2 6359   2.935   3.785   3.188
 2050WAT      O 6360   4.290   4.134   4.716
 2050WAT     H1 6361   4.314   4.226   4.723
 2050WAT     H2 6362   4.195   4.135   4.700
 2051WAT      O 6363   4.420   4.037   4.002
 2051WAT     H1 6364   4.468   4.070   3.926
 2051WAT     H2 6365   4.477   3.972   4.041
 2052WAT      O 6366   2.763   4.427   4.401
 2052WAT     H1 6367   2.787   4.440   4.310
 2052WAT     H2 6368   2.673   4.458   4.407
 2053WAT      O 6369   0.381   0.897   4.529
 2053WAT     H1 6370   0.355   0.960   4.462
 2053WAT     H2 6371   0.374   0.945   4.611
 2054WAT      O 6372   1.049   2.099   2.120
 2054WAT     H1 6373   1.004   2.156   2.183
 2054WAT     H2 6374   1.002   2.015   2.125
 2055WAT      O 6375   3.455   0.304   3.016
 2055WAT     H1 6376   3.532   0.308   3.072
 2055WAT     H2 6377   3.472   0.231   2.957
 2056WAT      O 6378   1.753   0.467   2.593
 2056WAT     H1 6379   1.688   0.533   2.569
 2056WAT     H2 6380   1.716   0.423   2.669
 2057WAT      O 6381   0.352   0.657   4.086
 2057WAT     H1 6382   0.399   0.739   4.101
 2057WAT     H2 6383   0.266   0.671   4.125
 2058WAT      O 6384   3.575   2.597   3.736
 2058WAT     H1 6385   3.502   2.581   3.796
 2058WAT     H2 6386   3.542   2.663   3.675
 2059WAT      O 6387   1.126   2.298   0.639
 2059WAT     H1 6388   1.106   2.285   0.731
 2059WAT     H2 6389   1.173   2.219   0.613
 2060WAT      O 6390   1.261   1.576   3.915
 2060WAT     H1 6391   1.273   1.570   3.820
 2060WAT     H2 6392   1.319   1.507   3.949
 2061WAT      O 6393   1.028   1.379   0.464
 2061WAT     H1 6394   1.103   1.320   0.474
 2061WAT     H2 6395   1.066   1.466   0.462
 2062WAT      O 6396   2.437   0.387   2.185
 2062WAT     H1 6397   2.483   0.312   2.146
 2062WAT     H2 6398   2.344   0.361   2.184
 2063WAT      O 6399   3.077   1.652   4.324
 2063WAT     H1 6400   3.064   1.742   4.354
 2063WAT     H2 6401   3.097   1.604   4.405
 2064WAT      O 6402   2.006   2.105   1.065
 2064WAT     H1 6403   2.005   2.187   1.116
 2064WAT     H2 6404   1.999   2.036   1.130
 2065WAT      O 6405   1.136   1.992   2.715
 2065WAT     H1 6406   1.113   1.932   2.785
 2065WAT     H2 6407   1.217   1.958   2.677
 2066WAT      O 6408   2.785   0.020   3.666
 2066WAT     H1 6409   2.838  -0.030   3.728
 2066WAT     H2 6410   2.696   0.015   3.702
 2067WAT      O 6411   1.871   1.862   1.963
 2067WAT     H1 6412   1.841   1.859   1.872
 2067WAT     H2 6413   1.964   1.882   1.958
 2068WAT      O 6414   3.029   2.201   2.253
 2068WAT     H1 6415   3.083   2.276   2.232
 2068WAT     H2 6416   3.039   2.189   2.347
 2069WAT      O 6417   4.362   0.131   4.073
 2069WAT     H1 6418   4.297   0.199   4.054
 2069WAT     H2 6419   4.425   0.138   4.001
 2070WAT      O 6420   1.431   1.793   3.347
 2070WAT     H1 6421   1.354   1.798   3.291
 2070WAT     H2 6422   1.443   1.699   3.362
 2071WAT      O 6423   1.006   4.928   4.107
 2071WAT     H1 6424   1.074   4.992   4.128
 2071WAT     H2 6425   0.925   4.966   4.140
 2072WAT      O 6426   0.599   2.618   4.907
 2072WAT     H1 6427   0.547   2.569   4.970
 2072WAT     H2 6428   0.680   2.640   4.955
 2073WAT      O 6429   2.063   0.114   0.699
 2073WAT     H1 6430   2.107   0.198   0.693
 2073WAT     H2 6431   1.971   0.135   0.709
 2074WAT      O 6432   0.745   3.637   4.413
 2074WAT     H1 6433   0.838   3.622   4.428
 2074WAT     H2 6434   0.720   3.703   4.479
 2075WAT      O 6435   1.024   2.709   2.203
 2075WAT     H1 6436   0.990   2.643   2.142
 2075WAT     H2 6437   1.109   2.733   2.167
 2076WAT      O 6438   0.914   0.300   3.146
 2076WAT     H1 6439   0.942   0.225   3.199
 2076WAT     H2 6440   0.992   0.324   3.096
 2077WAT      O 6441   2.871   1.853   3.959
 2077WAT     H1 6442   2.843   1.785   4.020
 2077WAT     H2 6443   2.837   1.823   3.874
 2078WAT      O 6444   2.922   4.862   0.990
 2078WAT     H1 6445   2.848   4.852   0.930
 2078WAT     H2 6446   2.915   4.953   1.020
 2079WAT      O 6447   0.867   4.341   2.433
 2079WAT     H1 6448   0.897   4.306   2.349
 2079WAT     H2 6449   0.783   4.298   2.448
 2080WAT      O 6450   3.590   3.503   4.686
 2080WAT     H1 6451   3.684   3.520   4.685
 2080WAT     H2 6452   3.561   3.527   4.598
 2081WAT      O 6453   1.878   3.357   2.671
 2081WAT     H1 6454   1.918   3.309   2.743
 2081WAT     H2 6455   1.825   3.293   2.625
 2082WAT      O 6456   2.554   4.013   3.134
 2082WAT     H1 6457   2.480   4.068   3.158
 2082WAT     H2 6458   2.522   3.962   3.059
 2083WAT      O 6459   0.719   1.785   4.288
 2083WAT     H1 6460   0.644   1.827   4.331
 2083WAT     H2 6461   0.795   1.817   4.337
 2084WAT      O 6462   1.596   2.129   0.909
 2084WAT     H1 6463   1.651   2.093   0.839
 2084WAT     H2 6464   1.543   2.054   0.938
 2085WAT      O 6465   0.941   2.522   2.380
 2085WAT     H1 6466   0.857   2.567   2.395
 2085WAT     H2 6467   0.987   2.578   2.319
 2086WAT      O 6468   1.788   0.792   2.332
 2086WAT     H1 6469   1.731   0.773   2.407
 2086WAT     H2 6470   1.793   0.889   2.329
 2087WAT      O 6471   1.808   4.878   4.435
 2087WAT     H1 6472   1.888   4.848   4.392
 2087WAT     H2 6473   1.756   4.799   4.447
 2088WAT      O 6474   2.094   3.921   0.344
 2088WAT     H1 6475   2.043   3.868   0.404
 2088WAT     H2 6476   2.054   4.008   0.349
 2089WAT      O 6477   0.039   2.345   4.117
 2089WAT     H1 6478   0.133   2.366   4.120
 2089WAT     H2 6479  -0.003   2.417   4.164
 2090WAT      O 6480   2.135   3.242   0.664
 2090WAT     H1 6481   2.157   3.197   0.582
 2090WAT     H2 6482   2.091   3.175   0.716
 2091WAT      O 6483   2.703   2.826   3.935
 2091WAT     H1 6484   2.702   2.913   3.896
 2091WAT     H2 6485   2.673   2.768   3.864
 2092WAT      O 6486   1.237   0.859  -0.003
 2092WAT     H1 6487   1.290   0.794   0.043
 2092WAT     H2 6488   1.255   0.941   0.043
 2093WAT      O 6489   2.529   2.074   2.984
 2093WAT     H1 6490   2.586   2.001   2.959
 2093WAT     H2 6491   2.456   2.034   3.031
 2094WAT      O 6492   0.443   4.548   4.204
 2094WAT     H1 6493   0.382   4.622   4.200
 2094WAT     H2 6494   0.411   4.495   4.277
 2095WAT      O 6495   1.681   3.005   1.842
 2095WAT     H1 6496   1.749   3.052   1.889
 2095WAT     H2 6497   1.683   3.043   1.754
 2096WAT      O 6498   3.980   4.282   2.869
 2096WAT     H1 6499   3.897   4.285   2.821
 2096WAT     H2 6500   3.975   4.203   2.922
 2097WAT      O 6501   2.720   4.267   0.180
 2097WAT     H1 6502   2.752   4.227   0.099
 2097WAT     H2 6503   2.785   4.334   0.201
 2098WAT      O 6504   3.614   1.275   5.045
 2098WAT     H1 6505   3.576   1.353   5.086
 2098WAT     H2 6506   3.669   1.238   5.113
 2099WAT      O 6507   2.950   3.336   4.525
 2099WAT     H1 6508   2.986   3.251   4.499
 2099WAT     H2 6509   2.856   3.326   4.517
 2100WAT      O 6510   4.062   1.669   0.973
 2100WAT     H1 6511   4.077   1.665   1.067
 2100WAT     H2 6512   4.141   1.632   0.934
 2101WAT      O 6513   4.259   0.608   5.185
 2101WAT     H1 6514   4.334   0.662   5.157
 2101WAT     H2 6515   4.184   0.668   5.178
 2102WAT      O 6516   2.544   2.693   5.242
 2102WAT     H1 6517   2.515   2.780   5.213
 2102WAT     H2 6518   2.531   2.694   5.337
 2103WAT      O 6519   1.811   2.440   4.473
 2103WAT     H1 6520   1.730   2.491   4.484
 2103WAT     H2 6521   1.881   2.505   4.482
 2104WAT      O 6522   3.719   1.213   3.968
 2104WAT     H1 6523   3.803   1.200   3.925
 2104WAT     H2 6524   3.741   1.235   4.058
 2105WAT      O 6525   4.314   0.013   1.107
 2105WAT     H1 6526   4.282   0.041   1.021
 2105WAT     H2 6527   4.238  -0.023   1.151
 2106WAT      O 6528   3.679   3.811   4.783
 2106WAT     H1 6529   3.754   3.846   4.831
 2106WAT     H2 6530   3.716   3.744   4.725
 2107WAT      O 6531   3.685   3.061   5.098
 2107WAT     H1 6532   3.693   2.966   5.110
 2107WAT     H2 6533   3.632   3.071   5.019
 2108WAT      O 6534   0.096   3.828   0.495
 2108WAT     H1 6535   0.120   3.882   0.570
 2108WAT     H2 6536   0.093   3.739   0.530
 2109WAT      O 6537   1.458   0.511   1.483
 2109WAT     H1 6538   1.511   0.446   1.530
 2109WAT     H2 6539   1.397   0.458   1.432
 2110WAT      O 6540   2.244   0.892   2.594
 2110WAT     H1 6541   2.285   0.810   2.575
 2110WAT     H2 6542   2.169   0.897   2.534
 2111WAT      O 6543   0.546   4.479   4.927
 2111WAT     H1 6544   0.637   4.470   4.956
 2111WAT     H2 6545   0.538   4.570   4.901
 2112WAT      O 6546   0.357   0.473   5.241
 2112WAT     H1 6547   0.304   0.517   5.175
 2112WAT     H2 6548   0.413   0.413   5.191
 2113WAT      O 6549   0.509   2.664   1.519
 2113WAT     H1 6550   0.497   2.636   1.428
 2113WAT     H2 6551   0.582   2.727   1.514
 2114WAT      O 6552   1.096   0.111   1.310
 2114WAT     H1 6553   1.037   0.068   1.248
 2114WAT     H2 6554   1.069   0.079   1.396
 2115WAT      O 6555   1.090   0.733   1.288
 2115WAT     H1 6556   1.043   0.769   1.213
 2115WAT     H2 6557   1.026   0.676   1.331
 2116WAT      O 6558   0.084   3.380   2.273
 2116WAT     H1 6559   0.039   3.314   2.221
 2116WAT     H2 6560   0.156   3.411   2.217
 2117WAT      O 6561   0.779   1.586   2.435
 2117WAT     H1 6562   0.717   1.649   2.471
 2117WAT     H2 6563   0.752   1.501   2.472
 2118WAT      O 6564   1.405   2.787   0.142
 2118WAT     H1 6565   1.417   2.703   0.187
 2118WAT     H2 6566   1.398   2.852   0.212
 2119WAT      O 6567   3.387   1.988   3.428
 2119WAT     H1 6568   3.411   2.079   3.451
 2119WAT     H2 6569   3.447   1.933   3.479
 2120WAT      O 6570   0.012   0.712   0.396
 2120WAT     H1 6571   0.041   0.738   0.484
 2120WAT     H2 6572   0.053   0.627   0.381
 2121WAT      O 6573   3.513   0.581   2.853
 2121WAT     H1 6574   3.554   0.665   2.831
 2121WAT     H2 6575   3.562   0.549   2.929
 2122WAT      O 6576   0.966   2.675   1.754
 2122WAT     H1 6577   0.986   2.762   1.788
 2122WAT     H2 6578   0.956   2.621   1.833
 2123WAT      O 6579   4.297   0.382   0.372
 2123WAT     H1 6580   4.263   0.430   0.296
 2123WAT     H2 6581   4.308   0.292   0.342
 2124WAT      O 6582   3.595   2.848   2.751
 2124WAT     H1 6583   3.688   2.834   2.769
 2124WAT     H2 6584   3.578   2.939   2.778
 2125WAT      O 6585   1.154   2.811   0.405
 2125WAT     H1 6586   1.168   2.721   0.433
 2125WAT     H2 6587   1.228   2.860   0.441
 2126WAT      O 6588   3.998   1.203   3.896
 2126WAT     H1 6589   4.045   1.124   3.868
 2126WAT     H2 6590   4.059   1.246   3.956
 2127WAT      O 6591   4.288   0.442   3.703
 2127WAT     H1 6592   4.346   0.380   3.659
 2127WAT     H2 6593   4.323   0.528   3.678
 2128WAT      O 6594   4.467   0.530   3.251
 2128WAT     H1 6595   4.551   0.491   3.229
 2128WAT     H2 6596   4.485   0.584   3.328
 2129WAT      O 6597   3.393   0.724   2.316
 2129WAT     H1 6598   3.430   0.781   2.383
 2129WAT     H2 6599   3.421   0.636   2.342
 2130WAT      O 6600   3.670   0.318   3.282
 2130WAT     H1 6601   3.749   0.292   3.235
 2130WAT     H2 6602   3.700   0.381   3.347
 2131WAT      O 6603   4.169   3.391   2.033
 2131WAT     H1 6604   4.097   3.454   2.025
 2131WAT     H2 6605   4.224   3.426   2.103
 2132WAT      O 6606   3.264   0.948   3.786
 2132WAT     H1 6607   3.263   0.918   3.877
 2132WAT     H2 6608   3.329   1.019   3.784
 2133WAT      O 6609   0.501   2.265   3.409
 2133WAT     H1 6610   0.500   2.169   3.400
 2133WAT     H2 6611   0.411   2.287   3.432
 2134WAT      O 6612   1.677   2.261   0.140
 2134WAT     H1 6613   1.733   2.219   0.206
 2134WAT     H2 6614   1.591   2.222   0.155
 2135WAT      O 6615   3.448   2.943   0.235
 2135WAT     H1 6616   3.393   3.018   0.256
 2135WAT     H2 6617   3.500   2.929   0.315
 2136WAT      O 6618   2.172   1.969   1.990
 2136WAT     H1 6619   2.243   1.978   1.926
 2136WAT     H2 6620   2.217   1.949   2.073
 2137WAT      O 6621   3.479   4.649   0.011
 2137WAT     H1 6622   3.406   4.693  -0.033
 2137WAT     H2 6623   3.556   4.697  -0.019
 2138WAT      O 6624   3.586   2.227   3.429
 2138WAT     H1 6625   3.558   2.241   3.520
 2138WAT     H2 6626   3.632   2.143   3.431
 2139WAT      O 6627   0.670   3.240   1.885
 2139WAT     H1 6628   0.618   3.192   1.821
 2139WAT     H2 6629   0.626   3.223   1.969
 2140WAT      O 6630   1.564   4.481   1.963
 2140WAT     H1 6631   1.491   4.485   2.025
 2140WAT     H2 6632   1.625   4.548   1.995
 2141WAT      O 6633   2.278   2.795   0.108
 2141WAT     H1 6634   2.319   2.827   0.028
 2141WAT     H2 6635   2.349   2.754   0.157
 2142WAT      O 6636   2.050   2.859   0.281
 2142WAT     H1 6637   2.100   2.854   0.199
 2142WAT     H2 6638   2.032   2.768   0.304
 2143WAT      O 6639   4.173   4.082   3.837
 2143WAT     H1 6640   4.249   4.058   3.890
 2143WAT     H2 6641   4.146   4.001   3.795
 2144WAT      O 6642   0.722   2.798   3.137
 2144WAT     H1 6643   0.697   2.847   3.059
 2144WAT     H2 6644   0.789   2.852   3.179
 2145WAT      O 6645   2.363   4.054   2.479
 2145WAT     H1 6646   2.319   4.068   2.395
 2145WAT     H2 6647   2.455   4.047   2.457
 2146WAT      O 6648   1.204   3.565   2.572
 2146WAT     H1 6649   1.222   3.659   2.562
 2146WAT     H2 6650   1.266   3.522   2.512
 2147WAT      O 6651   3.558   4.834   1.401
 2147WAT     H1 6652   3.546   4.879   1.484
 2147WAT     H2 6653   3.648   4.802   1.403
 2148WAT      O 6654   0.144   4.545   3.322
 2148WAT     H1 6655   0.163   4.625   3.275
 2148WAT     H2 6656   0.053   4.553   3.349
 2149WAT      O 6657   0.911   1.882   4.441
 2149WAT     H1 6658   0.903   1.971   4.407
 2149WAT     H2 6659   0.981   1.841   4.390
 2150WAT      O 6660   1.485   2.091   1.316
 2150WAT     H1 6661   1.400   2.133   1.328
 2150WAT     H2 6662   1.537   2.156   1.269
 2151WAT      O 6663   1.044   5.070   1.099
 2151WAT     H1 6664   1.022   5.004   1.164
 2151WAT     H2 6665   0.983   5.055   1.027
 2152WAT      O 6666   3.195   5.051   2.170
 2152WAT     H1 6667   3.232   5.114   2.109
 2152WAT     H2 6668   3.117   5.095   2.205
 2153WAT      O 6669   4.006   1.439   5.279
 2153WAT     H1 6670   4.055   1.392   5.346
 2153WAT     H2 6671   4.008   1.383   5.202
 2154WAT      O 6672   2.344   0.357   3.165
 2154WAT     H1 6673   2.398   0.286   3.199
 2154WAT     H2 6674   2.358   0.429   3.227
 2155WAT      O 6675   3.505   2.393   1.061
 2155WAT     H1 6676   3.564   2.466   1.081
 2155WAT     H2 6677   3.509   2.384   0.966
 2156WAT      O 6678   3.291   0.873   5.066
 2156WAT     H1 6679   3.336   0.933   5.126
 2156WAT     H2 6680   3.256   0.805   5.123
 2157WAT      O 6681   3.368   4.523   1.388
 2157WAT     H1 6682   3.341   4.467   1.461
 2157WAT     H2 6683   3.331   4.609   1.409
 2158WAT      O 6684   1.151   1.905   3.534
 2158WAT     H1 6685   1.175   1.922   3.443
 2158WAT     H2 6686   1.161   1.811   3.546
 2159WAT      O 6687   4.003   4.941   4.343
 2159WAT     H1 6688   3.929   4.888   4.315
 2159WAT     H2 6689   3.972   4.986   4.422
 2160WAT      O 6690   2.910   2.825   0.203
 2160WAT     H1 6691   2.992   2.814   0.252
 2160WAT     H2 6692   2.937   2.851   0.115
 2161WAT      O 6693   2.302   0.925   3.670
 2161WAT     H1 6694   2.384   0.875   3.664
 2161WAT     H2 6695   2.330   1.017   3.677
 2162WAT      O 6696   1.740   2.508   4.867
 2162WAT     H1 6697   1.742   2.591   4.818
 2162WAT     H2 6698   1.798   2.523   4.942
 2163WAT      O 6699   0.449   1.228   4.910
 2163WAT     H1 6700   0.381   1.272   4.961
 2163WAT     H2 6701   0.506   1.188   4.976
 2164WAT      O 6702   4.338   3.170   3.187
 2164WAT     H1 6703   4.313   3.140   3.101
 2164WAT     H2 6704   4.434   3.170   3.186
 2165WAT      O 6705   3.560   5.018   3.729
 2165WAT     H1 6706   3.530   4.989   3.643
 2165WAT     H2 6707   3.604   5.102   3.712
 2166WAT      O 6708   1.702   4.097   0.696
 2166WAT     H1 6709   1.755   4.164   0.738
 2166WAT     H2 6710   1.744   4.014   0.719
 2167WAT      O 6711   1.748   2.727   2.144
 2167WAT     H1 6712   1.726   2.706   2.235
 2167WAT     H2 6713   1.833   2.683   2.129
 2168WAT      O 6714   0.683   1.956   2.235
 2168WAT     H1 6715   0.592   1.965   2.206
 2168WAT     H2 6716   0.726   2.034   2.200
 2169WAT      O 6717   2.882   4.405   5.186
 2169WAT     H1 6718   2.898   4.338   5.253
 2169WAT     H2 6719   2.969   4.441   5.168
 2170WAT      O 6720   4.241   2.530   1.715
 2170WAT     H1 6721   4.247   2.469   1.641
 2170WAT     H2 6722   4.311   2.592   1.699
 2171WAT      O 6723   3.891   2.426   0.353
 2171WAT     H1 6724   3.811   2.393   0.393
 2171WAT     H2 6725   3.865   2.506   0.310
 2172WAT      O 6726   4.048   3.746   5.136
 2172WAT     H1 6727   4.098   3.717   5.060
 2172WAT     H2 6728   4.080   3.834   5.154
 2173WAT      O 6729   2.869   2.643   4.571
 2173WAT     H1 6730   2.798   2.607   4.519
 2173WAT     H2 6731   2.946   2.591   4.547
 2174WAT      O 6732   4.360   1.946   4.783
 2174WAT     H1 6733   4.409   1.955   4.701
 2174WAT     H2 6734   4.275   1.912   4.756
 2175WAT      O 6735   4.475   0.260   3.677
 2175WAT     H1 6736   4.491   0.256   3.583
 2175WAT     H2 6737   4.457   0.169   3.702
 2176WAT      O 6738   3.673   4.229   1.891
 2176WAT     H1 6739   3.647   4.160   1.829
 2176WAT     H2 6740   3.592   4.274   1.912
 2177WAT      O 6741   3.974   3.737   4.097
 2177WAT     H1 6742   4.012   3.684   4.168
 2177WAT     H2 6743   3.967   3.825   4.134
 2178WAT      O 6744   2.473   3.326   0.450
 2178WAT     H1 6745   2.437   3.380   0.380
 2178WAT     H2 6746   2.497   3.242   0.408
 2179WAT      O 6747   1.157   3.064   2.399
 2179WAT     H1 6748   1.111   2.992   2.356
 2179WAT     H2 6749   1.244   3.064   2.357
 2180WAT      O 6750   3.521   3.706   0.507
 2180WAT     H1 6751   3.601   3.658   0.483
 2180WAT     H2 6752   3.450   3.655   0.469
 2181WAT      O 6753   0.378   0.710   3.589
 2181WAT     H1 6754   0.377   0.665   3.673
 2181WAT     H2 6755   0.409   0.798   3.609
 2182WAT      O 6756   2.988   4.710   1.693
 2182WAT     H1 6757   2.936   4.671   1.623
 2182WAT     H2 6758   3.079   4.688   1.670
 2183WAT      O 6759   1.298   4.656   3.991
 2183WAT     H1 6760   1.307   4.644   4.086
 2183WAT     H2 6761   1.317   4.748   3.976
 2184WAT      O 6762   3.759   3.199   3.776
 2184WAT     H1 6763   3.688   3.168   3.720
 2184WAT     H2 6764   3.825   3.232   3.716
 2185WAT      O 6765   1.218   0.895   3.492
 2185WAT     H1 6766   1.222   0.885   3.587
 2185WAT     H2 6767   1.128   0.920   3.474
 2186WAT      O 6768   1.962   3.796   5.038
 2186WAT     H1 6769   2.001   3.860   5.098
 2186WAT     H2 6770   1.973   3.835   4.952
 2187WAT      O 6771   2.478   3.510   1.983
 2187WAT     H1 6772   2.398   3.459   1.972
 2187WAT     H2 6773   2.549   3.448   1.969
 2188WAT      O 6774   0.983   3.614   1.026
 2188WAT     H1 6775   0.999   3.692   1.079
 2188WAT     H2 6776   1.071   3.583   1.003
 2189WAT      O 6777   3.606   1.185   1.810
 2189WAT     H1 6778   3.684   1.177   1.754
 2189WAT     H2 6779   3.641   1.193   1.898
 2190WAT      O 6780   2.128   2.342   5.095
 2190WAT     H1 6781   2.149   2.393   5.017
 2190WAT     H2 6782   2.171   2.388   5.167
 2191WAT      O 6783   1.507   0.827   5.086
 2191WAT     H1 6784   1.494   0.741   5.044
 2191WAT     H2 6785   1.477   0.890   5.020
 2192WAT      O 6786   0.887   4.934   1.288
 2192WAT     H1 6787   0.804   4.903   1.325
 2192WAT     H2 6788   0.932   4.976   1.362
 2193WAT      O 6789   0.963   0.147   0.372
 2193WAT     H1 6790   0.958   0.092   0.294
 2193WAT     H2 6791   1.045   0.120   0.414
 2194WAT      O 6792   2.308   4.613   2.849
 2194WAT     H1 6793   2.369   4.539   2.845
 2194WAT     H2 6794   2.357   4.687   2.814
 2195WAT      O 6795   3.804   4.418   5.099
 2195WAT     H1 6796   3.869   4.358   5.137
 2195WAT     H2 6797   3.846   4.451   5.020
 2196WAT      O 6798   1.755   2.358   3.665
 2196WAT     H1 6799   1.714   2.272   3.670
 2196WAT     H2 6800   1.819   2.358   3.735
 2197WAT      O 6801   0.913   1.315   0.224
 2197WAT     H1 6802   0.994   1.330   0.175
 2197WAT     H2 6803   0.933   1.346   0.312
 2198WAT      O 6804   3.818   4.879   2.056
 2198WAT     H1 6805   3.794   4.958   2.104
 2198WAT     H2 6806   3.780   4.807   2.106
 2199WAT      O 6807   0.632   2.240   5.091
 2199WAT     H1 6808   0.600   2.279   5.010
 2199WAT     H2 6809   0.725   2.222   5.074
 2200WAT      O 6810   3.823   4.450   4.124
 2200WAT     H1 6811   3.808   4.468   4.031
 2200WAT     H2 6812   3.872   4.525   4.156
 2201WAT      O 6813   0.933   0.949   3.441
 2201WAT     H1 6814   0.961   0.858   3.450
 2201WAT     H2 6815   0.895   0.971   3.526
 2202WAT      O 6816   0.295   3.276   4.585
 2202WAT     H1 6817   0.314   3.366   4.609
 2202WAT     H2 6818   0.377   3.229   4.596
 2203WAT      O 6819   0.984   4.483   2.741
 2203WAT     H1 6820   0.935   4.462   2.820
 2203WAT     H2 6821   0.921   4.529   2.685
 2204WAT      O 6822   3.196   4.116   5.051
 2204WAT     H1 6823   3.112   4.105   5.095
 2204WAT     H2 6824   3.209   4.035   5.002
 2205WAT      O 6825   1.506   0.264   4.730
 2205WAT     H1 6826   1.434   0.298   4.675
 2205WAT     H2 6827   1.475   0.179   4.760
 2206WAT      O 6828   3.936   0.121   4.908
 2206WAT     H1 6829   3.913   0.214   4.905
 2206WAT     H2 6830   3.985   0.106   4.828
 2207WAT      O 6831   2.123   5.095   2.954
 2207WAT     H1 6832   2.062   5.022   2.943
 2207WAT     H2 6833   2.082   5.168   2.909
 2208WAT      O 6834   0.674   2.993   1.194
 2208WAT     H1 6835   0.738   3.048   1.148
 2208WAT     H2 6836   0.636   2.938   1.126
 2209WAT      O 6837   1.439   2.648   2.930
 2209WAT     H1 6838   1.428   2.735   2.968
 2209WAT     H2 6839   1.502   2.604   2.987
 2210WAT      O 6840   0.160   1.386   0.058
 2210WAT     H1 6841   0.069   1.415   0.049
 2210WAT     H2 6842   0.156   1.317   0.125
 2211WAT      O 6843   1.599   0.407   1.158
 2211WAT     H1 6844   1.677   0.354   1.143
 2211WAT     H2 6845   1.529   0.359   1.116
 2212WAT      O 6846   1.719   2.387   1.769
 2212WAT     H1 6847   1.722   2.472   1.814
 2212WAT     H2 6848   1.675   2.406   1.686
 2213WAT      O 6849   0.706   4.164   0.939
 2213WAT     H1 6850   0.617   4.128   0.936
 2213WAT     H2 6851   0.726   4.170   1.033
 2214WAT      O 6852   0.099   3.588   0.642
 2214WAT     H1 6853   0.087   3.633   0.725
 2214WAT     H2 6854   0.162   3.518   0.662
 2215WAT      O 6855   0.657   1.255   1.542
 2215WAT     H1 6856   0.699   1.199   1.476
 2215WAT     H2 6857   0.637   1.336   1.495
 2216WAT      O 6858   2.306   2.896   1.108
 2216WAT     H1 6859   2.374   2.963   1.103
 2216WAT     H2 6860   2.298   2.863   1.019
 2217WAT      O 6861   3.436   1.942   1.292
 2217WAT     H1 6862   3.447   1.890   1.372
 2217WAT     H2 6863   3.416   1.877   1.224
 2218WAT      O 6864   0.662   1.058   2.781
 2218WAT     H1 6865   0.735   0.996   2.776
 2218WAT     H2 6866   0.599   1.024   2.717
 2219WAT      O 6867   4.286   2.537   3.638
 2219WAT     H1 6868   4.330   2.618   3.662
 2219WAT     H2 6869   4.250   2.554   3.551
 2220WAT      O 6870   0.289   2.906   4.063
 2220WAT     H1 6871   0.235   2.946   3.994
 2220WAT     H2 6872   0.310   2.819   4.030
 2221WAT      O 6873   1.385   3.947   1.287
 2221WAT     H1 6874   1.359   3.860   1.258
 2221WAT     H2 6875   1.479   3.951   1.269
 2222WAT      O 6876   2.331   4.512   0.757
 2222WAT     H1 6877   2.256   4.535   0.702
 2222WAT     H2 6878   2.306   4.541   0.845
 2223WAT      O 6879   0.222   3.272   0.003
 2223WAT     H1 6880   0.154   3.296   0.066
 2223WAT     H2 6881   0.271   3.202   0.047
 2224WAT      O 6882   0.499   3.023   3.849
 2224WAT     H1 6883   0.459   3.093   3.900
 2224WAT     H2 6884   0.588   3.055   3.831
 2225WAT      O 6885   1.308   4.784   4.880
 2225WAT     H1 6886   1.360   4.833   4.816
 2225WAT     H2 6887   1.361   4.706   4.898
 2226WAT      O 6888   4.103   4.048   0.042
 2226WAT     H1 6889   4.129   4.012   0.127
 2226WAT     H2 6890   4.011   4.024   0.032
 2227WAT      O 6891   2.138   0.414   5.254
 2227WAT     H1 6892   2.157   0.351   5.324
 2227WAT     H2 6893   2.133   0.361   5.174
 2228WAT      O 6894   0.272   1.405   1.375
 2228WAT     H1 6895   0.232   1.452   1.301
 2228WAT     H2 6896   0.220   1.326   1.384
 2229WAT      O 6897   2.155   3.615   0.425
 2229WAT     H1 6898   2.211   3.687   0.455
 2229WAT     H2 6899   2.093   3.602   0.497
 2230WAT      O 6900   0.165   2.898   4.533
 2230WAT     H1 6901   0.161   2.985   4.495
 2230WAT     H2 6902   0.187   2.913   4.625
 2231WAT      O 6903   1.226   0.890   5.035
 2231WAT     H1 6904   1.148   0.942   5.051
 2231WAT     H2 6905   1.282   0.907   5.111
 2232WAT      O 6906   3.005   5.031   3.995
 2232WAT     H1 6907   2.970   4.965   4.056
 2232WAT     H2 6908   3.095   5.003   3.978
 2233WAT      O 6909   2.028   2.677   4.629
 2233WAT     H1 6910   2.056   2.751   4.573
 2233WAT     H2 6911   2.088   2.607   4.608
 2234WAT      O 6912   1.699   4.522   1.322
 2234WAT     H1 6913   1.673   4.479   1.404
 2234WAT     H2 6914   1.626   4.579   1.300
 2235WAT      O 6915   2.834   1.752   2.912
 2235WAT     H1 6916   2.875   1.837   2.928
 2235WAT     H2 6917   2.850   1.704   2.993
 2236WAT      O 6918   0.639   3.336   2.608
 2236WAT     H1 6919   0.595   3.332   2.692
 2236WAT     H2 6920   0.733   3.330   2.629
 2237WAT      O 6921   0.946   3.731   2.812
 2237WAT     H1 6922   1.036   3.721   2.844
 2237WAT     H2 6923   0.955   3.755   2.720
 2238WAT      O 6924   1.395   3.279   2.991
 2238WAT     H1 6925   1.367   3.238   3.073
 2238WAT     H2 6926   1.374   3.372   3.002
 2239WAT      O 6927   1.993   3.930   4.806
 2239WAT     H1 6928   1.927   3.954   4.742
 2239WAT     H2 6929   2.071   3.908   4.755
 2240WAT      O 6930   2.141   1.304   2.980
 2240WAT     H1 6931   2.120   1.282   2.890
 2240WAT     H2 6932   2.140   1.221   3.027
 2241WAT      O 6933   2.894   4.777   0.203
 2241WAT     H1 6934   2.986   4.756   0.219
 2241WAT     H2 6935   2.868   4.829   0.280
 2242WAT      O 6936   1.105   4.623   0.068
 2242WAT     H1 6937   1.139   4.699   0.116
 2242WAT     H2 6938   1.013   4.619   0.093
 2243WAT      O 6939   2.002   2.679   2.002
 2243WAT     H1 6940   2.070   2.712   2.061
 2243WAT     H2 6941   2.039   2.600   1.964
 2244WAT      O 6942   2.442   5.055   0.676
 2244WAT     H1 6943   2.429   5.116   0.603
 2244WAT     H2 6944   2.488   5.106   0.742
 2245WAT      O 6945   0.079   4.437   4.167
 2245WAT     H1 6946   0.107   4.382   4.093
 2245WAT     H2 6947   0.088   4.380   4.243
 2246WAT      O 6948   1.824   4.014   4.614
 2246WAT     H1 6949   1.779   3.933   4.636
 2246WAT     H2 6950   1.776   4.082   4.661
 2247WAT      O 6951   2.479   4.196   1.396
 2247WAT     H1 6952   2.535   4.163   1.466
 2247WAT     H2 6953   2.534   4.260   1.351
 2248WAT      O 6954   3.881   0.953   4.407
 2248WAT     H1 6955   3.942   0.891   4.367
 2248WAT     H2 6956   3.801   0.943   4.356
 2249WAT      O 6957   1.506   3.223   3.836
 2249WAT     H1 6958   1.413   3.205   3.841
 2249WAT     H2 6959   1.531   3.247   3.926
 2250WAT      O 6960   3.153   4.458   0.287
 2250WAT     H1 6961   3.193   4.421   0.365
 2250WAT     H2 6962   3.219   4.446   0.218
 2251WAT      O 6963   1.840   3.918   3.437
 2251WAT     H1 6964   1.773   3.926   3.505
 2251WAT     H2 6965   1.923   3.918   3.485
 2252WAT      O 6966   2.985   0.692   4.648
 2252WAT     H1 6967   3.073   0.726   4.629
 2252WAT     H2 6968   2.946   0.757   4.706
 2253WAT      O 6969   1.856   0.869   0.279
 2253WAT     H1 6970   1.825   0.790   0.236
 2253WAT     H2 6971   1.870   0.931   0.207
 2254WAT      O 6972   0.934   3.467   1.440
 2254WAT     H1 6973   0.869   3.409   1.401
 2254WAT     H2 6974   0.905   3.479   1.531
 2255WAT      O 6975   3.619   1.735   5.100
 2255WAT     H1 6976   3.710   1.714   5.120
 2255WAT     H2 6977   3.605   1.820   5.141
 2256WAT      O 6978   2.409   4.547   2.064
 2256WAT     H1 6979   2.460   4.590   1.995
 2256WAT     H2 6980   2.327   4.521   2.021
 2257WAT      O 6981   1.986   1.198   1.091
 2257WAT     H1 6982   2.049   1.126   1.095
 2257WAT     H2 6983   1.909   1.165   1.136
 2258WAT      O 6984   0.933   1.032   3.985
 2258WAT     H1 6985   0.937   0.946   4.029
 2258WAT     H2 6986   1.019   1.070   4.001
 2259WAT      O 6987   1.793   0.327   3.855
 2259WAT     H1 6988   1.847   0.298   3.928
 2259WAT     H2 6989   1.844   0.398   3.815
 2260WAT      O 6990   1.379   0.035   4.836
 2260WAT     H1 6991   1.374  -0.052   4.796
 2260WAT     H2 6992   1.297   0.044   4.884
 2261WAT      O 6993   3.161   0.084   0.232
 2261WAT     H1 6994   3.205   0.022   0.291
 2261WAT     H2 6995   3.118   0.146   0.291
 2262WAT      O 6996   3.000   0.762   0.509
 2262WAT     H1 6997   2.981   0.856   0.498
 2262WAT     H2 6998   2.959   0.720   0.434
 2263WAT      O 6999   2.635   4.111   1.583
 2263WAT     H1 7000   2.588   4.084   1.662
 2263WAT     H2 7001   2.704   4.045   1.573
 2264WAT      O 7002   2.049   0.662   4.532
 2264WAT     H1 7003   2.113   0.686   4.599
 2264WAT     H2 7004   2.080   0.702   4.452
 2265WAT      O 7005   3.586   2.203   2.667
 2265WAT     H1 7006   3.594   2.149   2.745
 2265WAT     H2 7007   3.623   2.150   2.596
 2266WAT      O 7008   0.410   3.032   0.482
 2266WAT     H1 7009   0.449   3.084   0.553
 2266WAT     H2 7010   0.432   2.943   0.504
 2267WAT      O 7011   0.596   1.800   1.546
 2267WAT     H1 7012   0.635   1.761   1.624
 2267WAT     H2 7013   0.651   1.876   1.526
 2268WAT      O 7014   3.294   0.594   1.852
 2268WAT     H1 7015   3.298   0.523   1.788
 2268WAT     H2 7016   3.242   0.662   1.809
 2269WAT      O 7017   2.212   1.820   4.814
 2269WAT     H1 7018   2.164   1.886   4.862
 2269WAT     H2 7019   2.300   1.856   4.803
 2270WAT      O 7020   2.121   0.982   2.858
 2270WAT     H1 7021   2.142   1.065   2.814
 2270WAT     H2 7022   2.205   0.937   2.866
 2271WAT      O 7023   0.773   0.409   5.009
 2271WAT     H1 7024   0.832   0.424   4.935
 2271WAT     H2 7025   0.755   0.496   5.043
 2272WAT      O 7026   0.559   1.813   2.696
 2272WAT     H1 7027   0.555   1.722   2.727
 2272WAT     H2 7028   0.530   1.808   2.605
 2273WAT      O 7029   1.452   2.121   0.187
 2273WAT     H1 7030   1.453   2.122   0.283
 2273WAT     H2 7031   1.374   2.170   0.164
 2274WAT      O 7032   0.741   3.517   3.329
 2274WAT     H1 7033   0.834   3.498   3.340
 2274WAT     H2 7034   0.697   3.434   3.348
 2275WAT      O 7035   4.404   0.718   1.375
 2275WAT     H1 7036   4.419   0.623   1.390
 2275WAT     H2 7037   4.484   0.747   1.333
 2276WAT      O 7038   0.148   2.365   2.310
 2276WAT     H1 7039   0.209   2.433   2.339
 2276WAT     H2 7040   0.114   2.397   2.226
 2277WAT      O 7041   0.863   2.834   0.427
 2277WAT     H1 7042   0.957   2.838   0.409
 2277WAT     H2 7043   0.834   2.926   0.414
 2278WAT      O 7044   0.267   1.438   2.419
 2278WAT     H1 7045   0.177   1.407   2.421
 2278WAT     H2 7046   0.318   1.366   2.454
 2279WAT      O 7047   1.662   3.265   5.285
 2279WAT     H1 7048   1.619   3.318   5.217
 2279WAT     H2 7049   1.598   3.196   5.306
 2280WAT      O 7050   3.535   2.210   1.661
 2280WAT     H1 7051   3.462   2.270   1.643
 2280WAT     H2 7052   3.585   2.209   1.579
 2281WAT      O 7053   1.891   3.098   4.216
 2281WAT     H1 7054   1.840   3.105   4.297
 2281WAT     H2 7055   1.861   3.018   4.175
 2282WAT      O 7056   2.926   3.392   3.594
 2282WAT     H1 7057   2.832   3.403   3.605
 2282WAT     H2 7058   2.964   3.469   3.637
 2283WAT      O 7059   3.194   1.402   5.208
 2283WAT     H1 7060   3.269   1.405   5.148
 2283WAT     H2 7061   3.191   1.488   5.247
 2284WAT      O 7062   0.258   2.709   1.619
 2284WAT     H1 7063   0.345   2.736   1.590
 2284WAT     H2 7064   0.218   2.669   1.541
 2285WAT      O 7065   2.496   1.073   1.813
 2285WAT     H1 7066   2.476   0.994   1.863
 2285WAT     H2 7067   2.547   1.040   1.738
 2286WAT      O 7068   3.069   0.188   0.507
 2286WAT     H1 7069   3.160   0.215   0.498
 2286WAT     H2 7070   3.024   0.265   0.542
 2287WAT      O 7071   4.383   4.371   0.791
 2287WAT     H1 7072   4.396   4.352   0.884
 2287WAT     H2 7073   4.340   4.456   0.790
 2288WAT      O 7074   2.904   4.788   3.663
 2288WAT     H1 7075   2.907   4.693   3.669
 2288WAT     H2 7076   2.985   4.812   3.617
 2289WAT      O 7077   1.226   2.416   1.642
 2289WAT     H1 7078   1.172   2.454   1.572
 2289WAT     H2 7079   1.213   2.473   1.717
 2290WAT      O 7080   2.568   3.840   5.146
 2290WAT     H1 7081   2.473   3.846   5.160
 2290WAT     H2 7082   2.604   3.822   5.233
 2291WAT      O 7083   3.117   4.280   1.980
 2291WAT     H1 7084   3.123   4.349   2.046
 2291WAT     H2 7085   3.023   4.265   1.970
 2292WAT      O 7086   0.979   3.726   3.950
 2292WAT     H1 7087   0.940   3.753   3.866
 2292WAT     H2 7088   0.939   3.785   4.014
 2293WAT      O 7089   2.951   2.693   0.639
 2293WAT     H1 7090   2.906   2.758   0.585
 2293WAT     H2 7091   2.933   2.721   0.729
 2294WAT      O 7092   1.902   1.601   2.090
 2294WAT     H1 7093   1.874   1.682   2.047
 2294WAT     H2 7094   1.996   1.599   2.077
 2295WAT      O 7095   2.923   1.409   5.165
 2295WAT     H1 7096   3.017   1.406   5.185
 2295WAT     H2 7097   2.920   1.406   5.069
 2296WAT      O 7098   2.906   1.498   2.490
 2296WAT     H1 7099   2.830   1.553   2.468
 2296WAT     H2 7100   2.889   1.415   2.444
 2297WAT      O 7101   1.679   1.531   2.622
 2297WAT     H1 7102   1.649   1.563   2.707
 2297WAT     H2 7103   1.768   1.563   2.614
 2298WAT      O 7104   4.279   1.675   1.723
 2298WAT     H1 7105   4.240   1.761   1.741
 2298WAT     H2 7106   4.357   1.672   1.779
 2299WAT      O 7107   3.146   3.785   0.881
 2299WAT     H1 7108   3.226   3.755   0.925
 2299WAT     H2 7109   3.075   3.750   0.935
 2300WAT      O 7110   4.481   3.578   0.159
 2300WAT     H1 7111   4.562   3.617   0.192
 2300WAT     H2 7112   4.470   3.617   0.072
 2301WAT      O 7113   4.178   3.922   0.252
 2301WAT     H1 7114   4.104   3.873   0.288
 2301WAT     H2 7115   4.239   3.932   0.325
 2302WAT      O 7116   1.874   3.486   2.426
 2302WAT     H1 7117   1.916   3.471   2.511
 2302WAT     H2 7118   1.781   3.495   2.446
 2303WAT      O 7119   4.225   2.111   5.277
 2303WAT     H1 7120   4.314   2.096   5.245
 2303WAT     H2 7121   4.229   2.199   5.317
 2304WAT      O 7122   2.868   2.334   0.544
 2304WAT     H1 7123   2.787   2.313   0.497
 2304WAT     H2 7124   2.879   2.262   0.606
 2305WAT      O 7125   0.036   0.255   3.410
 2305WAT     H1 7126   0.003   0.239   3.322
 2305WAT     H2 7127   0.121   0.213   3.413
 2306WAT      O 7128   0.973   0.880   1.102
 2306WAT     H1 7129   1.001   0.910   1.016
 2306WAT     H2 7130   0.888   0.921   1.116
 2307WAT      O 7131   1.565   1.640   1.299
 2307WAT     H1 7132   1.593   1.554   1.329
 2307WAT     H2 7133   1.485   1.623   1.249
 2308WAT      O 7134   1.848   3.819   3.748
 2308WAT     H1 7135   1.753   3.812   3.742
 2308WAT     H2 7136   1.864   3.861   3.833
 2309WAT      O 7137   3.474   4.511   4.133
 2309WAT     H1 7138   3.507   4.424   4.112
 2309WAT     H2 7139   3.379   4.505   4.122
 2310WAT      O 7140   2.952   3.588   1.512
 2310WAT     H1 7141   2.992   3.527   1.449
 2310WAT     H2 7142   2.879   3.627   1.464
 2311WAT      O 7143   0.462   1.553   1.851
 2311WAT     H1 7144   0.537   1.604   1.883
 2311WAT     H2 7145   0.389   1.614   1.853
 2312WAT      O 7146   3.399   3.469   0.814
 2312WAT     H1 7147   3.377   3.562   0.819
 2312WAT     H2 7148   3.351   3.437   0.737
 2313WAT      O 7149   2.146   4.601   2.392
 2313WAT     H1 7150   2.103   4.686   2.400
 2313WAT     H2 7151   2.116   4.567   2.307
 2314WAT      O 7152   4.330   3.887   0.493
 2314WAT     H1 7153   4.421   3.863   0.508
 2314WAT     H2 7154   4.279   3.818   0.535
 2315WAT      O 7155   1.909   4.181   3.166
 2315WAT     H1 7156   1.988   4.144   3.127
 2315WAT     H2 7157   1.904   4.270   3.131
 2316WAT      O 7158   3.803   4.708   4.831
 2316WAT     H1 7159   3.737   4.772   4.857
 2316WAT     H2 7160   3.767   4.624   4.857
 2317WAT      O 7161   0.962   0.075   3.747
 2317WAT     H1 7162   0.994  -0.015   3.743
 2317WAT     H2 7163   0.871   0.070   3.716
 2318WAT      O 7164   3.719   3.621   1.757
 2318WAT     H1 7165   3.702   3.660   1.843
 2318WAT     H2 7166   3.648   3.559   1.745
 2319WAT      O 7167   3.651   1.974   2.471
 2319WAT     H1 7168   3.695   1.893   2.499
 2319WAT     H2 7169   3.596   1.945   2.397
 2320WAT      O 7170   2.162   0.841   4.763
 2320WAT     H1 7171   2.070   0.869   4.764
 2320WAT     H2 7172   2.172   0.791   4.843
 2321WAT      O 7173   0.846   0.785   4.416
 2321WAT     H1 7174   0.767   0.835   4.437
 2321WAT     H2 7175   0.888   0.770   4.501
 2322WAT      O 7176   0.884   4.949   3.149
 2322WAT     H1 7177   0.942   5.001   3.205
 2322WAT     H2 7178   0.801   4.945   3.197
 2323WAT      O 7179   1.832   0.625   0.126
 2323WAT     H1 7180   1.923   0.613   0.153
 2323WAT     H2 7181   1.808   0.544   0.082
 2324WAT      O 7182   0.654   1.649   0.318
 2324WAT     H1 7183   0.728   1.698   0.355
 2324WAT     H2 7184   0.686   1.622   0.232
 2325WAT      O 7185   1.329   2.650   3.394
 2325WAT     H1 7186   1.409   2.683   3.356
 2325WAT     H2 7187   1.356   2.572   3.443
 2326WAT      O 7188   0.781   3.196   0.416
 2326WAT     H1 7189   0.712   3.200   0.350
 2326WAT     H2 7190   0.861   3.177   0.365
 2327WAT      O 7191   1.897   4.468   4.610
 2327WAT     H1 7192   1.961   4.468   4.540
 2327WAT     H2 7193   1.945   4.501   4.686
 2328WAT      O 7194   1.018   3.934   0.436
 2328WAT     H1 7195   1.096   3.983   0.409
 2328WAT     H2 7196   0.954   4.002   0.457
 2329WAT      O 7197   3.238   4.916   4.470
 2329WAT     H1 7198   3.225   4.892   4.562
 2329WAT     H2 7199   3.203   4.841   4.421
 2330WAT      O 7200   2.722   4.096   2.339
 2330WAT     H1 7201   2.748   4.097   2.247
 2330WAT     H2 7202   2.680   4.010   2.351
 2331WAT      O 7203   0.622   3.925   5.214
 2331WAT     H1 7204   0.539   3.949   5.174
 2331WAT     H2 7205   0.647   3.843   5.172
 2332WAT      O 7206   2.074   4.684   3.571
 2332WAT     H1 7207   1.989   4.715   3.540
 2332WAT     H2 7208   2.094   4.739   3.646
 2333WAT      O 7209   0.538   3.722   4.122
 2333WAT     H1 7210   0.589   3.641   4.108
 2333WAT     H2 7211   0.566   3.780   4.051
 2334WAT      O 7212   1.946   3.498   5.086
 2334WAT     H1 7213   1.976   3.482   5.176
 2334WAT     H2 7214   1.934   3.593   5.082
 2335WAT      O 7215   2.644   3.486   0.746
 2335WAT     H1 7216   2.551   3.464   0.744
 2335WAT     H2 7217   2.657   3.539   0.668
 2336WAT      O 7218   2.988   2.930   1.329
 2336WAT     H1 7219   2.967   3.009   1.378
 2336WAT     H2 7220   2.996   2.959   1.239
 2337WAT      O 7221   2.783   2.202   2.695
 2337WAT     H1 7222   2.833   2.181   2.774
 2337WAT     H2 7223   2.835   2.270   2.652
 2338WAT      O 7224   4.500   2.703   3.327
 2338WAT     H1 7225   4.479   2.673   3.239
 2338WAT     H2 7226   4.444   2.781   3.339
 2339WAT      O 7227   0.069   3.090   1.177
 2339WAT     H1 7228   0.162   3.094   1.155
 2339WAT     H2 7229   0.061   3.011   1.231
 2340WAT      O 7230   3.062   0.007   0.990
 2340WAT     H1 7231   3.005   0.004   0.913
 2340WAT     H2 7232   3.142   0.049   0.959
 2341WAT      O 7233   2.528   1.290   3.998
 2341WAT     H1 7234   2.549   1.244   4.079
 2341WAT     H2 7235   2.434   1.275   3.986
 2342WAT      O 7236   3.128   4.775   0.859
 2342WAT     H1 7237   3.057   4.820   0.904
 2342WAT     H2 7238   3.126   4.686   0.894
 2343WAT      O 7239   2.285   0.169   3.560
 2343WAT     H1 7240   2.276   0.081   3.596
 2343WAT     H2 7241   2.302   0.154   3.467
 2344WAT      O 7242   1.273   1.044   1.654
 2344WAT     H1 7243   1.356   1.014   1.616
 2344WAT     H2 7244   1.211   0.973   1.634
 2345WAT      O 7245   3.752   5.100   2.183
 2345WAT     H1 7246   3.795   5.184   2.198
 2345WAT     H2 7247   3.699   5.114   2.104
 2346WAT      O 7248   3.862   2.852   2.765
 2346WAT     H1 7249   3.847   2.850   2.670
 2346WAT     H2 7250   3.925   2.781   2.781
 2347WAT      O 7251   2.443   0.341   0.659
 2347WAT     H1 7252   2.509   0.404   0.631
 2347WAT     H2 7253   2.373   0.351   0.595
 2348WAT      O 7254   3.399   2.406   2.660
 2348WAT     H1 7255   3.449   2.325   2.646
 2348WAT     H2 7256   3.464   2.469   2.690
 2349WAT      O 7257   1.975   1.231   4.713
 2349WAT     H1 7258   2.054   1.193   4.754
 2349WAT     H2 7259   1.975   1.323   4.740
 2350WAT      O 7260   2.138   4.571   3.299
 2350WAT     H1 7261   2.206   4.534   3.243
 2350WAT     H2 7262   2.160   4.540   3.387
 2351WAT      O 7263   0.519   3.881   0.898
 2351WAT     H1 7264   0.509   3.827   0.976
 2351WAT     H2 7265   0.460   3.955   0.913
 2352WAT      O 7266   0.299   1.195   1.795
 2352WAT     H1 7267   0.361   1.239   1.738
 2352WAT     H2 7268   0.244   1.264   1.831
 2353WAT      O 7269   1.998   4.214   1.696
 2353WAT     H1 7270   2.047   4.261   1.628
 2353WAT     H2 7271   1.917   4.187   1.653
 2354WAT      O 7272   0.370   4.667   4.543
 2354WAT     H1 7273   0.366   4.634   4.632
 2354WAT     H2 7274   0.334   4.596   4.489
 2355WAT      O 7275   3.202   1.541   2.439
 2355WAT     H1 7276   3.169   1.578   2.357
 2355WAT     H2 7277   3.124   1.508   2.484
 2356WAT      O 7278   2.009   1.899   4.607
 2356WAT     H1 7279   2.064   1.972   4.584
 2356WAT     H2 7280   2.052   1.859   4.683
 2357WAT      O 7281   4.195   3.327   1.742
 2357WAT     H1 7282   4.176   3.330   1.836
 2357WAT     H2 7283   4.115   3.291   1.703
 2358WAT      O 7284   4.080   1.984   1.465
 2358WAT     H1 7285   4.018   1.913   1.490
 2358WAT     H2 7286   4.165   1.952   1.494
 2359WAT      O 7287   1.720   4.905   3.471
 2359WAT     H1 7288   1.676   4.929   3.389
 2359WAT     H2 7289   1.761   4.821   3.453
 2360WAT      O 7290   1.238   1.386   3.370
 2360WAT     H1 7291   1.231   1.350   3.282
 2360WAT     H2 7292   1.296   1.461   3.360
 2361WAT      O 7293   1.554   3.052   0.278
 2361WAT     H1 7294   1.644   3.076   0.301
 2361WAT     H2 7295   1.519   3.010   0.356
 2362WAT      O 7296   2.522   3.401   3.329
 2362WAT     H1 7297   2.545   3.423   3.420
 2362WAT     H2 7298   2.476   3.317   3.336
 2363WAT      O 7299   1.256   1.558   4.423
 2363WAT     H1 7300   1.190   1.619   4.389
 2363WAT     H2 7301   1.234   1.548   4.516
 2364WAT      O 7302   4.222   3.006   1.252
 2364WAT     H1 7303   4.243   3.098   1.238
 2364WAT     H2 7304   4.295   2.973   1.306
 2365WAT      O 7305   3.637   4.487   0.284
 2365WAT     H1 7306   3.566   4.425   0.267
 2365WAT     H2 7307   3.717   4.437   0.271
 2366WAT      O 7308   1.205   1.484   5.223
 2366WAT     H1 7309   1.299   1.494   5.239
 2366WAT     H2 7310   1.189   1.532   5.142
 2367WAT      O 7311   2.244   3.347   2.032
 2367WAT     H1 7312   2.181   3.405   2.074
 2367WAT     H2 7313   2.199   3.262   2.028
 2368WAT      O 7314   3.089   2.454   0.742
 2368WAT     H1 7315   3.009   2.419   0.704
 2368WAT     H2 7316   3.083   2.549   0.728
 2369WAT      O 7317   0.077   4.913   3.433
 2369WAT     H1 7318   0.167   4.880   3.435
 2369WAT     H2 7319   0.075   4.975   3.360
 2370WAT      O 7320   3.813   2.874   4.064
 2370WAT     H1 7321   3.733   2.850   4.110
 2370WAT     H2 7322   3.879   2.879   4.132
 2371WAT      O 7323   1.332   4.872   0.366
 2371WAT     H1 7324   1.372   4.788   0.343
 2371WAT     H2 7325   1.248   4.850   0.406
 2372WAT      O 7326   2.615   0.222   2.001
 2372WAT     H1 7327   2.615   0.131   2.031
 2372WAT     H2 7328   2.690   0.262   2.044
 2373WAT      O 7329   0.920   2.696   3.432
 2373WAT     H1 7330   0.832   2.702   3.470
 2373WAT     H2 7331   0.907   2.656   3.346
 2374WAT      O 7332   2.150   1.119   4.514
 2374WAT     H1 7333   2.067   1.111   4.561
 2374WAT     H2 7334   2.163   1.031   4.476
 2375WAT      O 7335   2.055   3.677   1.462
 2375WAT     H1 7336   2.000   3.660   1.385
 2375WAT     H2 7337   2.080   3.590   1.493
 2376WAT      O 7338   0.322   3.744   1.469
 2376WAT     H1 7339   0.235   3.708   1.452
 2376WAT     H2 7340   0.372   3.724   1.390
 2377WAT      O 7341   3.530   4.904   2.760
 2377WAT     H1 7342   3.606   4.863   2.718
 2377WAT     H2 7343   3.493   4.962   2.692
 2378WAT      O 7344   3.349   4.528   3.125
 2378WAT     H1 7345   3.365   4.476   3.047
 2378WAT     H2 7346   3.339   4.618   3.092
 2379WAT      O 7347   3.838   0.739   4.942
 2379WAT     H1 7348   3.833   0.814   4.883
 2379WAT     H2 7349   3.918   0.752   4.992
 2380WAT      O 7350   2.509   0.127   2.800
 2380WAT     H1 7351   2.429   0.076   2.786
 2380WAT     H2 7352   2.503   0.155   2.891
 2381WAT      O 7353   0.613   2.872   0.957
 2381WAT     H1 7354   0.652   2.788   0.935
 2381WAT     H2 7355   0.524   2.867   0.922
 2382WAT      O 7356   0.161   2.255   0.527
 2382WAT     H1 7357   0.249   2.240   0.495
 2382WAT     H2 7358   0.152   2.196   0.602
 2383WAT      O 7359   2.053   4.864   4.978
 2383WAT     H1 7360   2.132   4.915   4.966
 2383WAT     H2 7361   2.056   4.836   5.069
 2384WAT      O 7362   3.110   2.522   4.497
 2384WAT     H1 7363   3.152   2.525   4.583
 2384WAT     H2 7364   3.142   2.598   4.450
 2385WAT      O 7365   3.331   0.258   0.398
 2385WAT     H1 7366   3.394   0.325   0.423
 2385WAT     H2 7367   3.385   0.180   0.381
 2386WAT      O 7368   1.035   5.013   5.000
 2386WAT     H1 7369   1.062   5.008   4.908
 2386WAT     H2 7370   0.945   4.983   5.000
 2387WAT      O 7371   3.335   3.163   2.685
 2387WAT     H1 7372   3.247   3.146   2.652
 2387WAT     H2 7373   3.354   3.253   2.655
 2388WAT      O 7374   3.664   3.549   3.846
 2388WAT     H1 7375   3.751   3.525   3.878
 2388WAT     H2 7376   3.678   3.629   3.796
 2389WAT      O 7377   0.644   4.240   3.059
 2389WAT     H1 7378   0.608   4.153   3.076
 2389WAT     H2 7379   0.572   4.288   3.018
 2390WAT      O 7380   1.308   3.296   1.444
 2390WAT     H1 7381   1.265   3.218   1.478
 2390WAT     H2 7382   1.236   3.346   1.404
 2391WAT      O 7383   0.360   1.632   3.468
 2391WAT     H1 7384   0.324   1.545   3.488
 2391WAT     H2 7385   0.397   1.662   3.551
 2392WAT      O 7386   0.539   1.991   3.336
 2392WAT     H1 7387   0.613   1.977   3.276
 2392WAT     H2 7388   0.555   1.931   3.408
 2393WAT      O 7389   4.110   4.731   4.853
 2393WAT     H1 7390   4.017   4.756   4.856
 2393WAT     H2 7391   4.131   4.707   4.943
 2394WAT      O 7392   1.333   4.995   4.439
 2394WAT     H1 7393   1.270   4.951   4.382
 2394WAT     H2 7394   1.399   5.030   4.380
 2395WAT      O 7395   2.587   1.130   2.641
 2395WAT     H1 7396   2.554   1.057   2.693
 2395WAT     H2 7397   2.515   1.150   2.580
 2396WAT      O 7398   3.450   3.130   1.211
 2396WAT     H1 7399   3.373   3.074   1.212
 2396WAT     H2 7400   3.436   3.189   1.136
 2397WAT      O 7401   2.495   4.982   1.527
 2397WAT     H1 7402   2.426   4.997   1.462
 2397WAT     H2 7403   2.569   4.949   1.475
 2398WAT      O 7404   1.233   4.789   3.478
 2398WAT     H1 7405   1.202   4.702   3.502
 2398WAT     H2 7406   1.282   4.776   3.397
 2399WAT      O 7407   2.776   4.754   0.790
 2399WAT     H1 7408   2.818   4.680   0.834
 2399WAT     H2 7409   2.700   4.715   0.746
 2400WAT      O 7410   1.701   0.719   0.444
 2400WAT     H1 7411   1.785   0.764   0.432
 2400WAT     H2 7412   1.642   0.762   0.382
 2401WAT      O 7413   0.840   2.110   4.857
 2401WAT     H1 7414   0.885   2.056   4.792
 2401WAT     H2 7415   0.907   2.170   4.888
 2402WAT      O 7416   2.319   4.124   0.401
 2402WAT     H1 7417   2.306   4.064   0.328
 2402WAT     H2 7418   2.413   4.141   0.402
 2403WAT      O 7419   1.054   1.241   1.853
 2403WAT     H1 7420   1.008   1.307   1.905
 2403WAT     H2 7421   0.990   1.170   1.841
 2404WAT      O 7422   3.165   2.190   4.659
 2404WAT     H1 7423   3.135   2.115   4.710
 2404WAT     H2 7424   3.092   2.209   4.600
 2405WAT      O 7425   2.742   2.975   1.014
 2405WAT     H1 7426   2.748   3.069   1.033
 2405WAT     H2 7427   2.664   2.946   1.061
 2406WAT      O 7428   2.073   4.689   1.540
 2406WAT     H1 7429   1.996   4.722   1.585
 2406WAT     H2 7430   2.143   4.749   1.564
 2407WAT      O 7431   2.623   3.235   2.993
 2407WAT     H1 7432   2.647   3.296   3.062
 2407WAT     H2 7433   2.665   3.270   2.914
 2408WAT      O 7434   0.036   0.167   3.146
 2408WAT     H1 7435   0.059   0.099   3.083
 2408WAT     H2 7436   0.095   0.239   3.126
 2409WAT      O 7437   4.442   1.859   5.031
 2409WAT     H1 7438   4.413   1.882   4.943
 2409WAT     H2 7439   4.488   1.775   5.020
 2410WAT      O 7440   2.544   1.762   3.488
 2410WAT     H1 7441   2.635   1.739   3.470
 2410WAT     H2 7442   2.503   1.679   3.513
 2411WAT      O 7443   3.771   1.498   3.367
 2411WAT     H1 7444   3.693   1.507   3.312
 2411WAT     H2 7445   3.842   1.481   3.305
 2412WAT      O 7446   0.013   1.678   3.012
 2412WAT     H1 7447  -0.062   1.729   3.041
 2412WAT     H2 7448   0.070   1.741   2.968
 2413WAT      O 7449   1.760   1.068   1.249
 2413WAT     H1 7450   1.821   1.109   1.310
 2413WAT     H2 7451   1.752   0.978   1.279
 2414WAT      O 7452   1.447   0.675   2.168
 2414WAT     H1 7453   1.422   0.669   2.076
 2414WAT     H2 7454   1.416   0.761   2.196
 2415WAT      O 7455   1.364   5.092   1.180
 2415WAT     H1 7456   1.403   5.172   1.213
 2415WAT     H2 7457   1.273   5.116   1.161
 2416WAT      O 7458   1.882   3.618   1.243
 2416WAT     H1 7459   1.819   3.554   1.276
 2416WAT     H2 7460   1.872   3.615   1.148
 2417WAT      O 7461   3.524   4.552   3.617
 2417WAT     H1 7462   3.525   4.580   3.525
 2417WAT     H2 7463   3.585   4.611   3.661
 2418WAT      O 7464   0.436   1.669   2.486
 2418WAT     H1 7465   0.397   1.587   2.452
 2418WAT     H2 7466   0.391   1.738   2.440
 2419WAT      O 7467   0.378   0.365   2.899
 2419WAT     H1 7468   0.382   0.419   2.819
 2419WAT     H2 7469   0.322   0.291   2.875
 2420WAT      O 7470   3.283   4.238   2.296
 2420WAT     H1 7471   3.195   4.234   2.258
 2420WAT     H2 7472   3.295   4.331   2.318
 2421WAT      O 7473   4.151   2.017   2.441
 2421WAT     H1 7474   4.115   1.975   2.362
 2421WAT     H2 7475   4.124   2.109   2.433
 2422WAT      O 7476   3.961   1.002   2.431
 2422WAT     H1 7477   3.975   0.923   2.379
 2422WAT     H2 7478   3.972   1.074   2.369
 2423WAT      O 7479   3.127   0.477   4.400
 2423WAT     H1 7480   3.153   0.447   4.487
 2423WAT     H2 7481   3.074   0.406   4.365
 2424WAT      O 7482   2.031   1.484   4.800
 2424WAT     H1 7483   1.991   1.521   4.878
 2424WAT     H2 7484   2.122   1.469   4.825
 2425WAT      O 7485   2.295   2.014   3.220
 2425WAT     H1 7486   2.224   2.034   3.159
 2425WAT     H2 7487   2.324   1.926   3.193
 2426WAT      O 7488   1.508   1.129   4.237
 2426WAT     H1 7489   1.479   1.050   4.280
 2426WAT     H2 7490   1.564   1.172   4.302
 2427WAT      O 7491   3.117   0.930   1.931
 2427WAT     H1 7492   3.138   0.912   2.022
 2427WAT     H2 7493   3.027   0.962   1.932
 2428WAT      O 7494   2.569   4.936   1.785
 2428WAT     H1 7495   2.661   4.941   1.759
 2428WAT     H2 7496   2.521   4.950   1.703
 2429WAT      O 7497   3.119   3.137   4.456
 2429WAT     H1 7498   3.121   3.064   4.519
 2429WAT     H2 7499   3.182   3.200   4.492
 2430WAT      O 7500   3.657   5.036   4.111
 2430WAT     H1 7501   3.600   5.025   4.035
 2430WAT     H2 7502   3.599   5.023   4.187
 2431WAT      O 7503   2.780   4.687   5.277
 2431WAT     H1 7504   2.849   4.632   5.240
 2431WAT     H2 7505   2.818   4.725   5.356
 2432WAT      O 7506   2.323   0.577   3.345
 2432WAT     H1 7507   2.331   0.573   3.440
 2432WAT     H2 7508   2.330   0.670   3.324
 2433WAT      O 7509   3.797   2.074   4.472
 2433WAT     H1 7510   3.725   2.023   4.438
 2433WAT     H2 7511   3.774   2.164   4.449
 2434WAT      O 7512   3.567   0.565   3.985
 2434WAT     H1 7513   3.488   0.510   3.988
 2434WAT     H2 7514   3.584   0.577   3.892
 2435WAT      O 7515   0.314   4.409   2.554
 2435WAT     H1 7516   0.365   4.489   2.555
 2435WAT     H2 7517   0.227   4.436   2.585
 2436WAT      O 7518   4.047   4.366   0.553
 2436WAT     H1 7519   4.083   4.310   0.621
 2436WAT     H2 7520   4.045   4.311   0.474
 2437WAT      O 7521   0.407   4.768   1.024
 2437WAT     H1 7522   0.400   4.696   1.086
 2437WAT     H2 7523   0.327   4.818   1.036
 2438WAT      O 7524   4.429   1.402   1.715
 2438WAT     H1 7525   4.519   1.415   1.747
 2438WAT     H2 7526   4.421   1.461   1.641
 2439WAT      O 7527   0.795   0.074   4.913
 2439WAT     H1 7528   0.877   0.087   4.865
 2439WAT     H2 7529   0.727   0.104   4.852
 2440WAT      O 7530   0.201   0.660   2.598
 2440WAT     H1 7531   0.178   0.586   2.654
 2440WAT     H2 7532   0.171   0.634   2.511
 2441WAT      O 7533   0.927   0.346   2.815
 2441WAT     H1 7534   0.900   0.437   2.816
 2441WAT     H2 7535   1.011   0.345   2.861
 2442WAT      O 7536   3.122   0.851   0.107
 2442WAT     H1 7537   3.157   0.771   0.147
 2442WAT     H2 7538   3.101   0.908   0.181
 2443WAT      O 7539   0.258   0.015   1.366
 2443WAT     H1 7540   0.335   0.068   1.387
 2443WAT     H2 7541   0.185   0.077   1.371
 2444WAT      O 7542   4.330   3.169   5.131
 2444WAT     H1 7543   4.331   3.075   5.114
 2444WAT     H2 7544   4.239   3.189   5.149
 2445WAT      O 7545   1.172   1.731   0.839
 2445WAT     H1 7546   1.187   1.797   0.908
 2445WAT     H2 7547   1.236   1.754   0.771
 2446WAT      O 7548   1.078   4.338   1.962
 2446WAT     H1 7549   1.103   4.381   1.880
 2446WAT     H2 7550   1.119   4.251   1.956
 2447WAT      O 7551   2.545   2.314   2.819
 2447WAT     H1 7552   2.627   2.279   2.786
 2447WAT     H2 7553   2.503   2.239   2.862
 2448WAT      O 7554   1.721   0.998   2.763
 2448WAT     H1 7555   1.696   1.037   2.847
 2448WAT     H2 7556   1.685   1.057   2.697
 2449WAT      O 7557   4.428   0.699   2.191
 2449WAT     H1 7558   4.416   0.713   2.097
 2449WAT     H2 7559   4.414   0.605   2.202
 2450WAT      O 7560   1.991   1.566   0.883
 2450WAT     H1 7561   1.957   1.497   0.826
 2450WAT     H2 7562   2.081   1.580   0.852
 2451WAT      O 7563   2.349   2.040   1.152
 2451WAT     H1 7564   2.274   2.054   1.095
 2451WAT     H2 7565   2.371   1.948   1.138
 2452WAT      O 7566   0.305   5.109   0.508
 2452WAT     H1 7567   0.244   5.097   0.581
 2452WAT     H2 7568   0.338   5.020   0.490
 2453WAT      O 7569   1.995   1.596   3.738
 2453WAT     H1 7570   1.998   1.646   3.655
 2453WAT     H2 7571   2.087   1.591   3.765
 2454WAT      O 7572   4.022   5.007   1.676
 2454WAT     H1 7573   3.963   4.966   1.739
 2454WAT     H2 7574   4.109   4.974   1.700
 2455WAT      O 7575   2.683   3.607   2.313
 2455WAT     H1 7576   2.753   3.641   2.368
 2455WAT     H2 7577   2.709   3.518   2.293
 2456WAT      O 7578   4.028   3.044   2.054
 2456WAT     H1 7579   3.936   3.051   2.080
 2456WAT     H2 7580   4.060   3.135   2.051
 2457WAT      O 7581   4.127   1.827   0.500
 2457WAT     H1 7582   4.166   1.862   0.420
 2457WAT     H2 7583   4.068   1.758   0.471
 2458WAT      O 7584   3.186   0.660   1.434
 2458WAT     H1 7585   3.164   0.723   1.504
 2458WAT     H2 7586   3.103   0.619   1.412
 2459WAT      O 7587   2.946   0.695   2.510
 2459WAT     H1 7588   3.017   0.631   2.510
 2459WAT     H2 7589   2.949   0.734   2.598
 2460WAT      O 7590   4.499   4.947   4.131
 2460WAT     H1 7591   4.413   4.986   4.149
 2460WAT     H2 7592   4.483   4.886   4.059
 2461WAT      O 7593   1.292   0.114   3.314
 2461WAT     H1 7594   1.297   0.122   3.410
 2461WAT     H2 7595   1.348   0.184   3.281
 2462WAT      O 7596   1.475   2.913   5.196
 2462WAT     H1 7597   1.563   2.880   5.176
 2462WAT     H2 7598   1.452   2.870   5.278
 2463WAT      O 7599   4.324   3.514   3.845
 2463WAT     H1 7600   4.406   3.464   3.853
 2463WAT     H2 7601   4.276   3.469   3.775
 2464WAT      O 7602   3.512   1.941   0.922
 2464WAT     H1 7603   3.539   2.017   0.973
 2464WAT     H2 7604   3.495   1.873   0.987
 2465WAT      O 7605   0.661   0.572   2.809
 2465WAT     H1 7606   0.741   0.620   2.789
 2465WAT     H2 7607   0.618   0.561   2.724
 2466WAT      O 7608   1.664   3.898   1.729
 2466WAT     H1 7609   1.704   3.985   1.740
 2466WAT     H2 7610   1.728   3.849   1.678
 2467WAT      O 7611   2.856   1.018   5.050
 2467WAT     H1 7612   2.800   1.088   5.083
 2467WAT     H2 7613   2.874   0.964   5.127
 2468WAT      O 7614   0.271   2.937   1.744
 2468WAT     H1 7615   0.255   2.847   1.714
 2468WAT     H2 7616   0.201   2.989   1.703
 2469WAT      O 7617   0.110   3.370   0.439
 2469WAT     H1 7618   0.129   3.461   0.457
 2469WAT     H2 7619   0.195   3.331   0.418
 2470WAT      O 7620   3.721   2.443   2.647
 2470WAT     H1 7621   3.679   2.360   2.674
 2470WAT     H2 7622   3.693   2.508   2.711
 2471WAT      O 7623   0.745   3.682   1.448
 2471WAT     H1 7624   0.742   3.626   1.371
 2471WAT     H2 7625   0.736   3.622   1.522
 2472WAT      O 7626   0.132   0.811   5.201
 2472WAT     H1 7627   0.207   0.755   5.180
 2472WAT     H2 7628   0.091   0.768   5.276
 2473WAT      O 7629   3.622   2.781   5.113
 2473WAT     H1 7630   3.681   2.708   5.133
 2473WAT     H2 7631   3.619   2.784   5.017
 2474WAT      O 7632   3.270   3.067   2.332
 2474WAT     H1 7633   3.227   3.061   2.417
 2474WAT     H2 7634   3.307   3.155   2.331
 2475WAT      O 7635   2.620   4.535   3.126
 2475WAT     H1 7636   2.697   4.519   3.181
 2475WAT     H2 7637   2.547   4.538   3.187
 2476WAT      O 7638   3.726   3.136   0.280
 2476WAT     H1 7639   3.656   3.071   0.289
 2476WAT     H2 7640   3.709   3.200   0.350
 2477WAT      O 7641   4.167   1.111   4.668
 2477WAT     H1 7642   4.187   1.086   4.578
 2477WAT     H2 7643   4.097   1.176   4.659
 2478WAT      O 7644   4.000   3.331   4.078
 2478WAT     H1 7645   4.008   3.280   4.158
 2478WAT     H2 7646   4.062   3.403   4.089
 2479WAT      O 7647   0.239   0.754   1.562
 2479WAT     H1 7648   0.309   0.722   1.504
 2479WAT     H2 7649   0.229   0.846   1.540
 2480WAT      O 7650   2.591   4.310   2.429
 2480WAT     H1 7651   2.627   4.236   2.379
 2480WAT     H2 7652   2.552   4.366   2.362
 2481WAT      O 7653   3.079   2.469   2.180
 2481WAT     H1 7654   3.051   2.548   2.133
 2481WAT     H2 7655   3.161   2.443   2.138
 2482WAT      O 7656   4.061   4.188   0.320
 2482WAT     H1 7657   4.148   4.162   0.350
 2482WAT     H2 7658   4.007   4.110   0.333
 2483WAT      O 7659   1.811   3.366   1.865
 2483WAT     H1 7660   1.825   3.288   1.812
 2483WAT     H2 7661   1.847   3.343   1.951
 2484WAT      O 7662   0.406   2.229   0.872
 2484WAT     H1 7663   0.495   2.200   0.894
 2484WAT     H2 7664   0.360   2.149   0.846
 2485WAT      O 7665   2.920   3.055   4.278
 2485WAT     H1 7666   2.996   3.067   4.334
 2485WAT     H2 7667   2.905   3.142   4.239
 2486WAT      O 7668   1.248   2.001   1.884
 2486WAT     H1 7669   1.257   2.058   1.807
 2486WAT     H2 7670   1.197   1.928   1.852
 2487WAT      O 7671   0.652   3.590   0.612
 2487WAT     H1 7672   0.694   3.643   0.680
 2487WAT     H2 7673   0.725   3.554   0.562
 2488WAT      O 7674   1.250   4.252   0.010
 2488WAT     H1 7675   1.344   4.244  -0.005
 2488WAT     H2 7676   1.210   4.203  -0.061
 2489WAT      O 7677   4.502   1.673   2.079
 2489WAT     H1 7678   4.506   1.642   2.169
 2489WAT     H2 7679   4.412   1.704   2.067
 2490WAT      O 7680   3.395   1.334   1.934
 2490WAT     H1 7681   3.451   1.402   1.971
 2490WAT     H2 7682   3.447   1.294   1.865
 2491WAT      O 7683   0.796   4.807   3.592
 2491WAT     H1 7684   0.840   4.820   3.676
 2491WAT     H2 7685   0.727   4.743   3.612
 2492WAT      O 7686   3.423   1.037   4.655
 2492WAT     H1 7687   3.469   0.974   4.600
 2492WAT     H2 7688   3.484   1.057   4.725
 2493WAT      O 7689   2.963   2.060   3.804
 2493WAT     H1 7690   2.935   2.001   3.875
 2493WAT     H2 7691   3.023   2.121   3.846
 2494WAT      O 7692   2.885   3.318   4.181
 2494WAT     H1 7693   2.876   3.316   4.086
 2494WAT     H2 7694   2.822   3.385   4.210
 2495WAT      O 7695   3.897   4.102   2.293
 2495WAT     H1 7696   3.977   4.141   2.327
 2495WAT     H2 7697   3.908   4.104   2.198
 2496WAT      O 7698   2.916   2.300   4.559
 2496WAT     H1 7699   2.829   2.261   4.572
 2496WAT     H2 7700   2.914   2.380   4.611
 2497WAT      O 7701   2.449   3.845   3.817
 2497WAT     H1 7702   2.490   3.865   3.733
 2497WAT     H2 7703   2.478   3.756   3.838
 2498WAT      O 7704   1.686   2.728   1.847
 2498WAT     H1 7705   1.712   2.727   1.940
 2498WAT     H2 7706   1.749   2.788   1.807
 2499WAT      O 7707   2.495   4.613   3.392
 2499WAT     H1 7708   2.549   4.682   3.431
 2499WAT     H2 7709   2.448   4.657   3.321
 2500WAT      O 7710   1.529   2.183   4.226
 2500WAT     H1 7711   1.438   2.157   4.213
 2500WAT     H2 7712   1.529   2.232   4.308
 2501WAT      O 7713   1.167   1.748   4.837
 2501WAT     H1 7714   1.217   1.767   4.758
 2501WAT     H2 7715   1.184   1.823   4.894
 2502WAT      O 7716   2.212   0.578   3.934
 2502WAT     H1 7717   2.156   0.516   3.981
 2502WAT     H2 7718   2.272   0.523   3.884
 2503WAT      O 7719   3.738   3.216   2.869
 2503WAT     H1 7720   3.809   3.162   2.901
 2503WAT     H2 7721   3.660   3.183   2.913
 2504WAT      O 7722   1.987   4.375   2.582
 2504WAT     H1 7723   2.080   4.359   2.596
 2504WAT     H2 7724   1.964   4.443   2.646
 2505WAT      O 7725   3.367   3.969   2.282
 2505WAT     H1 7726   3.283   3.936   2.314
 2505WAT     H2 7727   3.347   4.058   2.252
 2506WAT      O 7728   0.606   2.643   0.819
 2506WAT     H1 7729   0.587   2.571   0.760
 2506WAT     H2 7730   0.671   2.696   0.772
 2507WAT      O 7731   0.117   4.613   0.316
 2507WAT     H1 7732   0.066   4.611   0.397
 2507WAT     H2 7733   0.062   4.661   0.254
 2508WAT      O 7734   2.745   3.703   1.351
 2508WAT     H1 7735   2.788   3.706   1.266
 2508WAT     H2 7736   2.654   3.727   1.333
 2509WAT      O 7737   1.623   3.663   2.465
 2509WAT     H1 7738   1.686   3.724   2.428
 2509WAT     H2 7739   1.617   3.689   2.557
 2510WAT      O 7740   1.358   2.224   0.810
 2510WAT     H1 7741   1.427   2.184   0.863
 2510WAT     H2 7742   1.360   2.316   0.833
 2511WAT      O 7743   2.243   1.771   0.420
 2511WAT     H1 7744   2.315   1.708   0.429
 2511WAT     H2 7745   2.280   1.843   0.370
 2512WAT      O 7746   1.233   3.051   1.562
 2512WAT     H1 7747   1.286   2.998   1.621
 2512WAT     H2 7748   1.149   3.005   1.557
 2513WAT      O 7749   2.326   1.453   4.851
 2513WAT     H1 7750   2.395   1.442   4.917
 2513WAT     H2 7751   2.362   1.518   4.790
 2514WAT      O 7752   1.216   0.650   4.271
 2514WAT     H1 7753   1.175   0.570   4.303
 2514WAT     H2 7754   1.224   0.637   4.177
 2515WAT      O 7755   1.169   3.006   0.102
 2515WAT     H1 7756   1.264   3.002   0.113
 2515WAT     H2 7757   1.155   2.993   0.008
 2516WAT      O 7758   0.234   3.656   4.418
 2516WAT     H1 7759   0.323   3.633   4.443
 2516WAT     H2 7760   0.232   3.645   4.323
 2517WAT      O 7761   0.701   3.026   4.293
 2517WAT     H1 7762   0.735   2.952   4.243
 2517WAT     H2 7763   0.609   3.005   4.309
 2518WAT      O 7764   2.384   2.952   2.014
 2518WAT     H1 7765   2.366   2.934   1.921
 2518WAT     H2 7766   2.479   2.947   2.022
 2519WAT      O 7767   2.452   1.445   2.341
 2519WAT     H1 7768   2.539   1.405   2.331
 2519WAT     H2 7769   2.452   1.517   2.278
 2520WAT      O 7770   4.245   0.543   3.040
 2520WAT     H1 7771   4.318   0.532   3.100
 2520WAT     H2 7772   4.221   0.636   3.049
 2521WAT      O 7773   0.569   4.681   1.839
 2521WAT     H1 7774   0.532   4.623   1.905
 2521WAT     H2 7775   0.494   4.728   1.802
 2522WAT      O 7776   0.149   0.703   2.320
 2522WAT     H1 7777   0.187   0.634   2.265
 2522WAT     H2 7778   0.056   0.703   2.298
 2523WAT      O 7779   3.083   3.909   1.259
 2523WAT     H1 7780   3.033   3.975   1.212
 2523WAT     H2 7781   3.049   3.825   1.228
 2524WAT      O 7782   2.874   4.722   2.412
 2524WAT     H1 7783   2.856   4.814   2.394
 2524WAT     H2 7784   2.898   4.720   2.505
 2525WAT      O 7785   3.271   4.034   2.620
 2525WAT     H1 7786   3.284   4.127   2.598
 2525WAT     H2 7787   3.235   3.996   2.540
 2526WAT      O 7788   2.020   4.666   5.193
 2526WAT     H1 7789   1.950   4.624   5.143
 2526WAT     H2 7790   2.053   4.598   5.251
 2527WAT      O 7791   1.697   4.972   1.896
 2527WAT     H1 7792   1.698   5.008   1.808
 2527WAT     H2 7793   1.762   5.023   1.945
 2528WAT      O 7794   1.465   3.936   0.907
 2528WAT     H1 7795   1.386   3.887   0.932
 2528WAT     H2 7796   1.497   3.973   0.989
 2529WAT      O 7797   3.999   4.616   5.283
 2529WAT     H1 7798   4.013   4.522   5.274
 2529WAT     H2 7799   3.907   4.625   5.306
 2530WAT      O 7800   3.541   0.758   1.067
 2530WAT     H1 7801   3.632   0.754   1.098
 2530WAT     H2 7802   3.492   0.792   1.141
 2531WAT      O 7803   2.916   2.800   0.895
 2531WAT     H1 7804   2.986   2.768   0.952
 2531WAT     H2 7805   2.870   2.865   0.947
 2532WAT      O 7806   3.339   4.062   4.267
 2532WAT     H1 7807   3.368   4.016   4.188
 2532WAT     H2 7808   3.418   4.106   4.299
 2533WAT      O 7809   3.437   0.873   0.327
 2533WAT     H1 7810   3.431   0.925   0.407
 2533WAT     H2 7811   3.447   0.938   0.257
 2534WAT      O 7812   3.166   4.852   1.973
 2534WAT     H1 7813   3.238   4.826   1.916
 2534WAT     H2 7814   3.206   4.909   2.039
 2535WAT      O 7815   3.110   1.498   0.251
 2535WAT     H1 7816   3.193   1.544   0.239
 2535WAT     H2 7817   3.084   1.517   0.341
 2536WAT      O 7818   1.742   0.939   3.303
 2536WAT     H1 7819   1.739   0.854   3.348
 2536WAT     H2 7820   1.820   0.935   3.247
 2537WAT      O 7821   0.555   1.535   1.403
 2537WAT     H1 7822   0.476   1.537   1.349
 2537WAT     H2 7823   0.570   1.627   1.426
 2538WAT      O 7824   2.931   1.637   3.180
 2538WAT     H1 7825   2.979   1.583   3.243
 2538WAT     H2 7826   2.978   1.721   3.180
 2539WAT      O 7827   4.060   3.686   2.826
 2539WAT     H1 7828   4.033   3.601   2.789
 2539WAT     H2 7829   3.980   3.738   2.825
 2540WAT      O 7830   3.456   3.102   0.744
 2540WAT     H1 7831   3.503   3.143   0.671
 2540WAT     H2 7832   3.526   3.077   0.806
 2541WAT      O 7833   4.312   3.389   0.870
 2541WAT     H1 7834   4.218   3.374   0.870
 2541WAT     H2 7835   4.340   3.364   0.781
 2542WAT      O 7836   2.631   2.657   0.963
 2542WAT     H1 7837   2.726   2.643   0.972
 2542WAT     H2 7838   2.623   2.729   0.899
 2543WAT      O 7839   1.616   4.967   1.534
 2543WAT     H1 7840   1.676   5.033   1.568
 2543WAT     H2 7841   1.537   4.977   1.587
 2544WAT      O 7842   4.172   3.257   1.295
 2544WAT     H1 7843   4.152   3.304   1.214
 2544WAT     H2 7844   4.096   3.201   1.310
 2545WAT      O 7845   2.074   4.151   1.950
 2545WAT     H1 7846   1.988   4.170   1.989
 2545WAT     H2 7847   2.067   4.182   1.860
 2546WAT      O 7848   2.464   1.318   2.950
 2546WAT     H1 7849   2.452   1.234   2.905
 2546WAT     H2 7850   2.379   1.361   2.942
 2547WAT      O 7851   3.314   0.224   1.475
 2547WAT     H1 7852   3.405   0.233   1.445
 2547WAT     H2 7853   3.262   0.241   1.397
 2548WAT      O 7854   2.210   1.489   2.470
 2548WAT     H1 7855   2.141   1.475   2.405
 2548WAT     H2 7856   2.289   1.455   2.429
 2549WAT      O 7857   4.048   2.891   4.270
 2549WAT     H1 7858   4.131   2.870   4.228
 2549WAT     H2 7859   4.043   2.832   4.345
 2550WAT      O 7860   0.241   1.836   0.529
 2550WAT     H1 7861   0.298   1.821   0.454
 2550WAT     H2 7862   0.159   1.793   0.506
 2551WAT      O 7863   3.943   3.515   3.904
 2551WAT     H1 7864   3.958   3.581   3.971
 2551WAT     H2 7865   3.941   3.432   3.951
 2552WAT      O 7866   3.072   4.283   4.774
 2552WAT     H1 7867   3.095   4.219   4.841
 2552WAT     H2 7868   3.115   4.253   4.695
 2553WAT      O 7869   1.121   0.557   2.519
 2553WAT     H1 7870   1.089   0.481   2.470
 2553WAT     H2 7871   1.128   0.626   2.454
 2554WAT      O 7872   2.824   0.871   1.350
 2554WAT     H1 7873   2.823   0.795   1.408
 2554WAT     H2 7874   2.804   0.835   1.264
 2555WAT      O 7875   1.112   1.310   1.408
 2555WAT     H1 7876   1.120   1.231   1.357
 2555WAT     H2 7877   1.185   1.307   1.470
 2556WAT      O 7878   3.476   2.746   0.039
 2556WAT     H1 7879   3.509   2.778  -0.044
 2556WAT     H2 7880   3.498   2.814   0.102
 2557WAT      O 7881   0.891   0.772   3.879
 2557WAT     H1 7882   0.919   0.720   3.803
 2557WAT     H2 7883   0.880   0.708   3.949
 2558WAT      O 7884   3.545   0.986   1.478
 2558WAT     H1 7885   3.575   1.075   1.463
 2558WAT     H2 7886   3.618   0.943   1.522
 2559WAT      O 7887   1.204   2.296   4.269
 2559WAT     H1 7888   1.132   2.253   4.223
 2559WAT     H2 7889   1.217   2.245   4.348
 2560WAT      O 7890   3.290   3.123   4.718
 2560WAT     H1 7891   3.231   3.170   4.776
 2560WAT     H2 7892   3.314   3.188   4.651
 2561WAT      O 7893   0.101   0.431   2.136
 2561WAT     H1 7894   0.070   0.363   2.196
 2561WAT     H2 7895   0.192   0.408   2.118
 2562WAT      O 7896   3.389   4.583   2.015
 2562WAT     H1 7897   3.353   4.611   1.931
 2562WAT     H2 7898   3.480   4.562   1.997
 2563WAT      O 7899   3.709   1.032   1.158
 2563WAT     H1 7900   3.740   0.946   1.127
 2563WAT     H2 7901   3.615   1.021   1.167
 2564WAT      O 7902   0.993   4.055   5.108
 2564WAT     H1 7903   0.967   4.034   5.198
 2564WAT     H2 7904   1.085   4.030   5.104
 2565WAT      O 7905   3.499   4.676   3.357
 2565WAT     H1 7906   3.422   4.653   3.305
 2565WAT     H2 7907   3.567   4.694   3.293
 2566WAT      O 7908   0.168   3.271   2.738
 2566WAT     H1 7909   0.108   3.295   2.667
 2566WAT     H2 7910   0.201   3.355   2.770
 2567WAT      O 7911   2.035   0.299   0.249
 2567WAT     H1 7912   1.956   0.319   0.299
 2567WAT     H2 7913   2.017   0.214   0.208
 2568WAT      O 7914   0.989   1.889   2.921
 2568WAT     H1 7915   0.956   1.811   2.966
 2568WAT     H2 7916   0.916   1.949   2.920
 2569WAT      O 7917   2.001   1.086   1.905
 2569WAT     H1 7918   2.085   1.054   1.871
 2569WAT     H2 7919   1.947   1.097   1.827
 2570WAT      O 7920   0.754   0.818   0.038
 2570WAT     H1 7921   0.806   0.893   0.069
 2570WAT     H2 7922   0.693   0.800   0.109
 2571WAT      O 7923   2.325   3.097   1.702
 2571WAT     H1 7924   2.235   3.123   1.685
 2571WAT     H2 7925   2.344   3.032   1.634
 2572WAT      O 7926   1.442   2.993   4.879
 2572WAT     H1 7927   1.413   2.951   4.960
 2572WAT     H2 7928   1.362   3.031   4.843
 2573WAT      O 7929   3.777   0.747   1.188
 2573WAT     H1 7930   3.796   0.766   1.280
 2573WAT     H2 7931   3.862   0.723   1.151
 2574WAT      O 7932   2.468   0.448   4.159
 2574WAT     H1 7933   2.511   0.533   4.168
 2574WAT     H2 7934   2.525   0.387   4.207
 2575WAT      O 7935   1.581   4.990   2.937
 2575WAT     H1 7936   1.528   4.960   2.863
 2575WAT     H2 7937   1.572   5.085   2.936
 2576WAT      O 7938   1.039   4.076   2.490
 2576WAT     H1 7939   1.121   4.124   2.497
 2576WAT     H2 7940   0.980   4.119   2.551
 2577WAT      O 7941   2.371   3.633   2.699
 2577WAT     H1 7942   2.345   3.725   2.699
 2577WAT     H2 7943   2.388   3.613   2.607
 2578WAT      O 7944   3.602   0.435   2.635
 2578WAT     H1 7945   3.564   0.349   2.650
 2578WAT     H2 7946   3.564   0.491   2.703
 2579WAT      O 7947   4.244   4.893   3.194
 2579WAT     H1 7948   4.316   4.957   3.190
 2579WAT     H2 7949   4.186   4.927   3.262
 2580WAT      O 7950   1.939   4.360   1.063
 2580WAT     H1 7951   1.945   4.365   1.158
 2580WAT     H2 7952   1.933   4.451   1.034
 2581WAT      O 7953   2.801   4.788   4.198
 2581WAT     H1 7954   2.764   4.718   4.145
 2581WAT     H2 7955   2.871   4.745   4.248
 2582WAT      O 7956   0.510   4.257   4.580
 2582WAT     H1 7957   0.558   4.217   4.508
 2582WAT     H2 7958   0.573   4.317   4.620
 2583WAT      O 7959   4.360   4.876   4.834
 2583WAT     H1 7960   4.275   4.875   4.878
 2583WAT     H2 7961   4.342   4.917   4.749
 2584WAT      O 7962   2.207   4.643   4.656
 2584WAT     H1 7963   2.127   4.690   4.679
 2584WAT     H2 7964   2.277   4.706   4.673
 2585WAT      O 7965   3.248   3.014   0.579
 2585WAT     H1 7966   3.306   3.038   0.650
 2585WAT     H2 7967   3.188   3.088   0.569
 2586WAT      O 7968   0.352   0.416   4.183
 2586WAT     H1 7969   0.398   0.412   4.267
 2586WAT     H2 7970   0.343   0.509   4.165
 2587WAT      O 7971   1.658   3.213   4.065
 2587WAT     H1 7972   1.686   3.304   4.067
 2587WAT     H2 7973   1.726   3.164   4.111
 2588WAT      O 7974   0.085   4.034   1.695
 2588WAT     H1 7975   0.172   4.016   1.661
 2588WAT     H2 7976   0.100   4.093   1.770
 2589WAT      O 7977   0.754   4.422   0.424
 2589WAT     H1 7978   0.740   4.428   0.518
 2589WAT     H2 7979   0.840   4.381   0.415
 2590WAT      O 7980   1.863   1.478   1.599
 2590WAT     H1 7981   1.859   1.397   1.649
 2590WAT     H2 7982   1.920   1.458   1.525
 2591WAT      O 7983   1.540   2.883   3.253
 2591WAT     H1 7984   1.522   2.959   3.308
 2591WAT     H2 7985   1.458   2.865   3.208
 2592WAT      O 7986   4.449   0.082   4.372
 2592WAT     H1 7987   4.442   0.148   4.440
 2592WAT     H2 7988   4.435   0.130   4.290
 2593WAT      O 7989   0.742   0.700   3.330
 2593WAT     H1 7990   0.746   0.647   3.251
 2593WAT     H2 7991   0.797   0.653   3.393
 2594WAT      O 7992   3.786   1.078   0.522
 2594WAT     H1 7993   3.842   1.006   0.549
 2594WAT     H2 7994   3.809   1.149   0.582
 2595WAT      O 7995   1.449   4.073   1.725
 2595WAT     H1 7996   1.424   4.077   1.633
 2595WAT     H2 7997   1.508   3.998   1.730
 2596WAT      O 7998   0.534   4.817   4.399
 2596WAT     H1 7999   0.479   4.866   4.337
 2596WAT     H2 8000   0.472   4.762   4.447
 2597WAT      O 8001   4.314   3.926   4.407
 2597WAT     H1 8002   4.377   3.900   4.473
 2597WAT     H2 8003   4.229   3.916   4.449
 2598WAT      O 8004   2.953   3.175   1.421
 2598WAT     H1 8005   2.957   3.247   1.358
 2598WAT     H2 8006   3.038   3.176   1.465
 2599WAT      O 8007   2.616   2.064   1.167
 2599WAT     H1 8008   2.627   2.021   1.082
 2599WAT     H2 8009   2.521   2.073   1.178
 2600WAT      O 8010   3.720   3.130   4.633
 2600WAT     H1 8011   3.720   3.147   4.538
 2600WAT     H2 8012   3.802   3.169   4.664
 2601WAT      O 8013   3.236   2.493   4.155
 2601WAT     H1 8014   3.276   2.492   4.242
 2601WAT     H2 8015   3.143   2.479   4.172
 2602WAT      O 8016   2.396   0.833   1.907
 2602WAT     H1 8017   2.412   0.773   1.834
 2602WAT     H2 8018   2.391   0.777   1.983
 2603WAT      O 8019   2.685   3.221   1.154
 2603WAT     H1 8020   2.743   3.287   1.116
 2603WAT     H2 8021   2.710   3.218   1.247
 2604WAT      O 8022   0.279   1.597   2.786
 2604WAT     H1 8023   0.223   1.672   2.765
 2604WAT     H2 8024   0.220   1.537   2.831
 2605WAT      O 8025   2.335   3.314   3.005
 2605WAT     H1 8026   2.283   3.234   3.010
 2605WAT     H2 8027   2.422   3.288   3.036
 2606WAT      O 8028   0.110   2.337   1.884
 2606WAT     H1 8029   0.032   2.294   1.849
 2606WAT     H2 8030   0.077   2.387   1.958
 2607WAT      O 8031   0.940   0.946   5.111
 2607WAT     H1 8032   0.859   0.935   5.161
 2607WAT     H2 8033   0.992   0.869   5.132
 2608WAT      O 8034   3.546   0.894   2.502
 2608WAT     H1 8035   3.466   0.945   2.486
 2608WAT     H2 8036   3.614   0.960   2.514
 2609WAT      O 8037   0.206   5.017   2.536
 2609WAT     H1 8038   0.148   4.949   2.571
 2609WAT     H2 8039   0.260   4.972   2.471
 2610WAT      O 8040   1.844   4.363   4.898
 2610WAT     H1 8041   1.906   4.427   4.863
 2610WAT     H2 8042   1.894   4.312   4.962
 2611WAT      O 8043   3.944   1.177   1.107
 2611WAT     H1 8044   3.983   1.175   1.194
 2611WAT     H2 8045   3.853   1.153   1.121
 2612WAT      O 8046   3.047   3.045   1.106
 2612WAT     H1 8047   3.047   3.104   1.030
 2612WAT     H2 8048   3.135   3.009   1.109
 2613WAT      O 8049   3.187   1.445   1.175
 2613WAT     H1 8050   3.171   1.501   1.250
 2613WAT     H2 8051   3.267   1.397   1.197
 2614WAT      O 8052   1.327   1.692   2.899
 2614WAT     H1 8053   1.390   1.698   2.828
 2614WAT     H2 8054   1.263   1.627   2.869
 2615WAT      O 8055   2.610   1.972   0.443
 2615WAT     H1 8056   2.650   1.951   0.359
 2615WAT     H2 8057   2.650   2.057   0.468
 2616WAT      O 8058   2.314   2.871   0.436
 2616WAT     H1 8059   2.372   2.821   0.494
 2616WAT     H2 8060   2.242   2.811   0.416
 2617WAT      O 8061   4.432   1.251   3.147
 2617WAT     H1 8062   4.447   1.186   3.078
 2617WAT     H2 8063   4.403   1.330   3.101
 2618WAT      O 8064   0.239   1.545   0.565
 2618WAT     H1 8065   0.152   1.577   0.540
 2618WAT     H2 8066   0.235   1.534   0.660
 2619WAT      O 8067   2.864   4.566   3.973
 2619WAT     H1 8068   2.784   4.607   3.942
 2619WAT     H2 8069   2.917   4.553   3.895
 2620WAT      O 8070   1.873   0.688   1.352
 2620WAT     H1 8071   1.968   0.678   1.361
 2620WAT     H2 8072   1.839   0.674   1.440
 2621WAT      O 8073   4.449   3.557   1.045
 2621WAT     H1 8074   4.384   3.510   0.993
 2621WAT     H2 8075   4.482   3.492   1.107
 2622WAT      O 8076   3.690   1.571   1.513
 2622WAT     H1 8077   3.606   1.531   1.489
 2622WAT     H2 8078   3.755   1.514   1.473
 2623WAT      O 8079   2.681   4.343   0.864
 2623WAT     H1 8080   2.704   4.364   0.955
 2623WAT     H2 8081   2.693   4.426   0.817
 2624WAT      O 8082   3.629   4.442   1.498
 2624WAT     H1 8083   3.574   4.378   1.544
 2624WAT     H2 8084   3.566   4.497   1.450
 2625WAT      O 8085   1.489   0.938   1.929
 2625WAT     H1 8086   1.545   1.010   1.900
 2625WAT     H2 8087   1.405   0.979   1.947
 2626WAT      O 8088   3.723   2.997   1.722
 2626WAT     H1 8089   3.785   3.070   1.716
 2626WAT     H2 8090   3.644   3.029   1.678
 2627WAT      O 8091   3.979   2.099   3.897
 2627WAT     H1 8092   3.986   2.195   3.904
 2627WAT     H2 8093   3.966   2.069   3.987
 2628WAT      O 8094   3.131   3.534   0.731
 2628WAT     H1 8095   3.109   3.535   0.638
 2628WAT     H2 8096   3.137   3.626   0.756
 2629WAT      O 8097   3.038   4.568   1.138
 2629WAT     H1 8098   3.034   4.546   1.231
 2629WAT     H2 8099   3.131   4.588   1.122
 2630WAT      O 8100   2.774   4.032   2.069
 2630WAT     H1 8101   2.741   4.101   2.011
 2630WAT     H2 8102   2.724   3.954   2.045
 2631WAT      O 8103   0.701   1.958   0.633
 2631WAT     H1 8104   0.767   1.961   0.563
 2631WAT     H2 8105   0.638   2.025   0.609
 2632WAT      O 8106   3.387   3.346   5.127
 2632WAT     H1 8107   3.431   3.353   5.042
 2632WAT     H2 8108   3.313   3.288   5.110
 2633WAT      O 8109   3.124   2.239   1.487
 2633WAT     H1 8110   3.037   2.260   1.452
 2633WAT     H2 8111   3.172   2.202   1.413
 2634WAT      O 8112   2.816   3.824   0.459
 2634WAT     H1 8113   2.766   3.854   0.535
 2634WAT     H2 8114   2.860   3.903   0.426
 2635WAT      O 8115   3.370   4.757   2.933
 2635WAT     H1 8116   3.427   4.813   2.880
 2635WAT     H2 8117   3.326   4.818   2.992
 2636WAT      O 8118   1.242   3.421   2.005
 2636WAT     H1 8119   1.156   3.461   2.015
 2636WAT     H2 8120   1.300   3.494   1.985
 2637WAT      O 8121   3.246   3.958   0.427
 2637WAT     H1 8122   3.308   3.999   0.487
 2637WAT     H2 8123   3.196   3.897   0.482
 2638WAT      O 8124   3.901   0.856   4.678
 2638WAT     H1 8125   3.879   0.882   4.588
 2638WAT     H2 8126   3.996   0.866   4.682
 2639WAT      O 8127   0.524   4.704   3.744
 2639WAT     H1 8128   0.466   4.666   3.811
 2639WAT     H2 8129   0.587   4.634   3.725
 2640WAT      O 8130   2.995   2.335   3.886
 2640WAT     H1 8131   2.995   2.355   3.792
 2640WAT     H2 8132   2.950   2.410   3.926
 2641WAT      O 8133   1.150   4.332   4.889
 2641WAT     H1 8134   1.159   4.401   4.824
 2641WAT     H2 8135   1.144   4.378   4.973
 2642WAT      O 8136   3.258   4.448   3.595
 2642WAT     H1 8137   3.345   4.488   3.592
 2642WAT     H2 8138   3.239   4.427   3.504
 2643WAT      O 8139   0.022   1.689   4.358
 2643WAT     H1 8140   0.043   1.731   4.275
 2643WAT     H2 8141   0.094   1.629   4.375
 2644WAT      O 8142   3.644   0.800   1.891
 2644WAT     H1 8143   3.660   0.828   1.981
 2644WAT     H2 8144   3.577   0.858   1.858
 2645WAT      O 8145   1.763   2.978   3.937
 2645WAT     H1 8146   1.736   3.031   3.863
 2645WAT     H2 8147   1.714   2.897   3.928
 2646WAT      O 8148   0.596   0.807   4.084
 2646WAT     H1 8149   0.632   0.720   4.070
 2646WAT     H2 8150   0.580   0.811   4.178
 2647WAT      O 8151   2.605   1.425   2.688
 2647WAT     H1 8152   2.604   1.336   2.652
 2647WAT     H2 8153   2.677   1.423   2.751
 2648WAT      O 8154   3.077   1.599   2.210
 2648WAT     H1 8155   3.045   1.511   2.189
 2648WAT     H2 8156   3.069   1.647   2.128
 2649WAT      O 8157   3.645   3.558   1.474
 2649WAT     H1 8158   3.710   3.546   1.405
 2649WAT     H2 8159   3.627   3.652   1.474
 2650WAT      O 8160   3.460   3.634   4.475
 2650WAT     H1 8161   3.375   3.677   4.475
 2650WAT     H2 8162   3.473   3.607   4.385
 2651WAT      O 8163   2.194   2.640   0.951
 2651WAT     H1 8164   2.143   2.638   1.032
 2651WAT     H2 8165   2.188   2.729   0.920
 2652WAT      O 8166   1.927   0.060   0.164
 2652WAT     H1 8167   1.912   0.002   0.239
 2652WAT     H2 8168   1.872   0.025   0.095
 2653WAT      O 8169   3.891   4.663   0.619
 2653WAT     H1 8170   3.796   4.655   0.605
 2653WAT     H2 8171   3.913   4.750   0.584
 2654WAT      O 8172   4.347   3.760   0.754
 2654WAT     H1 8173   4.335   3.671   0.721
 2654WAT     H2 8174   4.404   3.750   0.830
 2655WAT      O 8175   4.506   4.619   0.554
 2655WAT     H1 8176   4.412   4.616   0.572
 2655WAT     H2 8177   4.545   4.651   0.635
 2656WAT      O 8178   1.063   0.759   0.681
 2656WAT     H1 8179   1.078   0.772   0.588
 2656WAT     H2 8180   1.075   0.846   0.720
 2657WAT      O 8181   1.822   1.455   4.545
 2657WAT     H1 8182   1.781   1.540   4.557
 2657WAT     H2 8183   1.898   1.455   4.604
 2658WAT      O 8184   2.109   2.947   4.478
 2658WAT     H1 8185   2.185   2.969   4.533
 2658WAT     H2 8186   2.046   3.017   4.498
 2659WAT      O 8187   0.565   2.355   0.064
 2659WAT     H1 8188   0.551   2.308  -0.017
 2659WAT     H2 8189   0.655   2.390   0.057
 2660WAT      O 8190   4.503   0.464   4.053
 2660WAT     H1 8191   4.571   0.479   3.987
 2660WAT     H2 8192   4.431   0.425   4.004
 2661WAT      O 8193   2.941   2.735   3.679
 2661WAT     H1 8194   2.957   2.700   3.591
 2661WAT     H2 8195   2.983   2.821   3.678
 2662WAT      O 8196   3.427   1.060   5.235
 2662WAT     H1 8197   3.500   1.107   5.275
 2662WAT     H2 8198   3.360   1.057   5.303
 2663WAT      O 8199   3.500   1.735   2.984
 2663WAT     H1 8200   3.424   1.702   3.032
 2663WAT     H2 8201   3.567   1.747   3.051
 2664WAT      O 8202   2.244   2.526   4.505
 2664WAT     H1 8203   2.197   2.454   4.462
 2664WAT     H2 8204   2.286   2.574   4.433
 2665WAT      O 8205   2.342   4.937   2.349
 2665WAT     H1 8206   2.400   4.862   2.334
 2665WAT     H2 8207   2.255   4.899   2.362
 2666WAT      O 8208   3.182   1.011   3.545
 2666WAT     H1 8209   3.209   0.977   3.630
 2666WAT     H2 8210   3.168   0.933   3.491
 2667WAT      O 8211   3.777   1.866   1.734
 2667WAT     H1 8212   3.814   1.790   1.778
 2667WAT     H2 8213   3.854   1.916   1.706
 2668WAT      O 8214   4.439   2.121   0.200
 2668WAT     H1 8215   4.457   2.213   0.220
 2668WAT     H2 8216   4.472   2.108   0.111
 2669WAT      O 8217   0.991   1.988   4.676
 2669WAT     H1 8218   0.976   1.967   4.584
 2669WAT     H2 8219   1.060   1.928   4.703
 2670WAT      O 8220   0.489   0.136   4.263
 2670WAT     H1 8221   0.513   0.085   4.185
 2670WAT     H2 8222   0.399   0.164   4.246
 2671WAT      O 8223   2.338   3.713   1.522
 2671WAT     H1 8224   2.339   3.673   1.608
 2671WAT     H2 8225   2.249   3.746   1.511
 2672WAT      O 8226   3.281   4.505   2.260
 2672WAT     H1 8227   3.192   4.501   2.224
 2672WAT     H2 8228   3.333   4.544   2.190
 2673WAT      O 8229   3.326   4.589   1.071
 2673WAT     H1 8230   3.404   4.620   1.023
 2673WAT     H2 8231   3.353   4.506   1.109
 2674WAT      O 8232   4.038   3.012   1.572
 2674WAT     H1 8233   3.979   3.083   1.597
 2674WAT     H2 8234   3.996   2.932   1.606
 2675WAT      O 8235   1.300   3.183   3.207
 2675WAT     H1 8236   1.296   3.238   3.285
 2675WAT     H2 8237   1.310   3.094   3.241
 2676WAT      O 8238   0.810   3.240   1.582
 2676WAT     H1 8239   0.798   3.299   1.657
 2676WAT     H2 8240   0.723   3.228   1.546
 2677WAT      O 8241   2.114   1.561   0.256
 2677WAT     H1 8242   2.168   1.626   0.303
 2677WAT     H2 8243   2.080   1.610   0.181
 2678WAT      O 8244   1.847   2.023   1.571
 2678WAT     H1 8245   1.827   1.939   1.615
 2678WAT     H2 8246   1.943   2.021   1.561
 2679WAT      O 8247   0.879   3.206   2.453
 2679WAT     H1 8248   0.878   3.301   2.437
 2679WAT     H2 8249   0.968   3.179   2.432
 2680WAT      O 8250   0.299   2.736   1.251
 2680WAT     H1 8251   0.340   2.720   1.167
 2680WAT     H2 8252   0.329   2.825   1.275
 2681WAT      O 8253   3.286   1.784   5.141
 2681WAT     H1 8254   3.284   1.879   5.158
 2681WAT     H2 8255   3.301   1.744   5.227
 2682WAT      O 8256   0.428   3.474   0.754
 2682WAT     H1 8257   0.498   3.465   0.819
 2682WAT     H2 8258   0.439   3.562   0.718
 2683WAT      O 8259   0.036   4.339   0.570
 2683WAT     H1 8260   0.029   4.429   0.539
 2683WAT     H2 8261  -0.019   4.337   0.649
 2684WAT      O 8262   0.505   1.311   1.960
 2684WAT     H1 8263   0.428   1.255   1.953
 2684WAT     H2 8264   0.473   1.399   1.935
 2685WAT      O 8265   2.164   4.001   1.228
 2685WAT     H1 8266   2.222   3.941   1.182
 2685WAT     H2 8267   2.210   4.085   1.227
 2686WAT      O 8268   1.753   2.775   0.404
 2686WAT     H1 8269   1.661   2.756   0.418
 2686WAT     H2 8270   1.758   2.805   0.313
 2687WAT      O 8271   0.704   3.652   0.227
 2687WAT     H1 8272   0.729   3.627   0.316
 2687WAT     H2 8273   0.762   3.725   0.206
 2688WAT      O 8274   4.166   1.344   4.080
 2688WAT     H1 8275   4.117   1.409   4.130
 2688WAT     H2 8276   4.218   1.396   4.018
 2689WAT      O 8277   2.389   2.202   4.725
 2689WAT     H1 8278   2.454   2.160   4.669
 2689WAT     H2 8279   2.431   2.208   4.811
 2690WAT      O 8280   0.999   1.859   1.095
 2690WAT     H1 8281   1.060   1.787   1.095
 2690WAT     H2 8282   0.917   1.823   1.060
 2691WAT      O 8283   4.178   2.183   4.816
 2691WAT     H1 8284   4.126   2.156   4.740
 2691WAT     H2 8285   4.259   2.131   4.808
 2692WAT      O 8286   0.347   4.183   3.143
 2692WAT     H1 8287   0.404   4.107   3.154
 2692WAT     H2 8288   0.366   4.237   3.220
 2693WAT      O 8289   0.445   4.830   2.615
 2693WAT     H1 8290   0.437   4.735   2.612
 2693WAT     H2 8291   0.515   4.847   2.678
 2694WAT      O 8292   1.819   2.762   0.826
 2694WAT     H1 8293   1.730   2.734   0.809
 2694WAT     H2 8294   1.856   2.696   0.883
 2695WAT      O 8295   0.613   2.187   4.423
 2695WAT     H1 8296   0.594   2.094   4.434
 2695WAT     H2 8297   0.547   2.232   4.476
 2696WAT      O 8298   0.125   1.502   3.767
 2696WAT     H1 8299   0.078   1.433   3.720
 2696WAT     H2 8300   0.201   1.458   3.805
 2697WAT      O 8301   2.267   3.569   5.176
 2697WAT     H1 8302   2.232   3.526   5.098
 2697WAT     H2 8303   2.336   3.510   5.207
 2698WAT      O 8304   2.918   4.705   2.685
 2698WAT     H1 8305   2.822   4.706   2.694
 2698WAT     H2 8306   2.946   4.785   2.728
 2699WAT      O 8307   3.067   1.501   1.774
 2699WAT     H1 8308   3.142   1.547   1.810
 2699WAT     H2 8309   3.076   1.410   1.805
 2700WAT      O 8310   0.997   1.675   2.602
 2700WAT     H1 8311   0.925   1.647   2.544
 2700WAT     H2 8312   1.050   1.732   2.548
 2701WAT      O 8313   1.051   1.246   3.777
 2701WAT     H1 8314   1.091   1.215   3.858
 2701WAT     H2 8315   0.967   1.200   3.772
 2702WAT      O 8316   1.343   4.512   4.593
 2702WAT     H1 8317   1.311   4.513   4.503
 2702WAT     H2 8318   1.427   4.467   4.588
 2703WAT      O 8319   2.905   3.821   4.444
 2703WAT     H1 8320   2.934   3.738   4.406
 2703WAT     H2 8321   2.986   3.872   4.455
 2704WAT      O 8322   3.448   1.304   0.819
 2704WAT     H1 8323   3.474   1.382   0.868
 2704WAT     H2 8324   3.408   1.337   0.739
 2705WAT      O 8325   0.803   0.981   3.089
 2705WAT     H1 8326   0.843   0.897   3.065
 2705WAT     H2 8327   0.721   0.955   3.133
 2706WAT      O 8328   0.543   3.236   0.654
 2706WAT     H1 8329   0.578   3.264   0.569
 2706WAT     H2 8330   0.511   3.318   0.694
 2707WAT      O 8331   0.795   1.731   3.068
 2707WAT     H1 8332   0.716   1.701   3.113
 2707WAT     H2 8333   0.783   1.702   2.977
 2708WAT      O 8334   2.129   1.034   3.133
 2708WAT     H1 8335   2.179   0.962   3.173
 2708WAT     H2 8336   2.130   1.014   3.040
 2709WAT      O 8337   0.642   3.247   3.435
 2709WAT     H1 8338   0.695   3.291   3.502
 2709WAT     H2 8339   0.685   3.163   3.422
 2710WAT      O 8340   3.246   1.872   2.484
 2710WAT     H1 8341   3.298   1.862   2.563
 2710WAT     H2 8342   3.171   1.923   2.511
 2711WAT      O 8343   3.370   3.796   1.272
 2711WAT     H1 8344   3.370   3.700   1.276
 2711WAT     H2 8345   3.279   3.820   1.283
 2712WAT      O 8346   3.234   0.313   2.295
 2712WAT     H1 8347   3.199   0.401   2.307
 2712WAT     H2 8348   3.308   0.307   2.355
 2713WAT      O 8349   2.029   1.879   0.616
 2713WAT     H1 8350   2.063   1.843   0.534
 2713WAT     H2 8351   1.948   1.830   0.631
 2714WAT      O 8352   1.970   0.366   0.887
 2714WAT     H1 8353   2.050   0.331   0.927
 2714WAT     H2 8354   1.975   0.460   0.904
 2715WAT      O 8355   0.855   0.400   0.289
 2715WAT     H1 8356   0.888   0.311   0.303
 2715WAT     H2 8357   0.845   0.436   0.377
 2716WAT      O 8358   3.072   2.725   2.045
 2716WAT     H1 8359   3.118   2.804   2.073
 2716WAT     H2 8360   3.126   2.689   1.975
 2717WAT      O 8361   3.223   0.489   5.254
 2717WAT     H1 8362   3.297   0.514   5.199
 2717WAT     H2 8363   3.237   0.396   5.273
 2718WAT      O 8364   3.721   1.613   0.080
 2718WAT     H1 8365   3.815   1.627   0.066
 2718WAT     H2 8366   3.684   1.702   0.086
 2719WAT      O 8367   0.343   1.872   1.470
 2719WAT     H1 8368   0.410   1.831   1.526
 2719WAT     H2 8369   0.260   1.846   1.510
 2720WAT      O 8370   2.205   2.041   0.884
 2720WAT     H1 8371   2.250   2.087   0.812
 2720WAT     H2 8372   2.126   2.094   0.899
 2721WAT      O 8373   2.295   1.018   2.246
 2721WAT     H1 8374   2.322   0.935   2.208
 2721WAT     H2 8375   2.223   0.996   2.305
 2722WAT      O 8376   1.451   4.231   2.857
 2722WAT     H1 8377   1.427   4.323   2.869
 2722WAT     H2 8378   1.545   4.229   2.874
 2723WAT      O 8379   4.290   1.170   3.365
 2723WAT     H1 8380   4.328   1.193   3.280
 2723WAT     H2 8381   4.308   1.077   3.374
 2724WAT      O 8382   3.336   1.019   3.031
 2724WAT     H1 8383   3.341   1.068   2.949
 2724WAT     H2 8384   3.242   1.008   3.047
 2725WAT      O 8385   3.620   3.610   2.902
 2725WAT     H1 8386   3.549   3.636   2.960
 2725WAT     H2 8387   3.577   3.568   2.828
 2726WAT      O 8388   3.654   2.562   1.224
 2726WAT     H1 8389   3.749   2.546   1.226
 2726WAT     H2 8390   3.644   2.649   1.188
 2727WAT      O 8391   4.022   4.532   2.957
 2727WAT     H1 8392   3.948   4.551   3.015
 2727WAT     H2 8393   4.007   4.442   2.928
 2728WAT      O 8394   1.813   3.314   4.506
 2728WAT     H1 8395   1.788   3.222   4.514
 2728WAT     H2 8396   1.909   3.312   4.496
 2729WAT      O 8397   3.921   0.735   1.425
 2729WAT     H1 8398   3.853   0.703   1.484
 2729WAT     H2 8399   3.997   0.749   1.481
 2730WAT      O 8400   1.642   1.913   2.778
 2730WAT     H1 8401   1.709   1.843   2.778
 2730WAT     H2 8402   1.629   1.933   2.870
 2731WAT      O 8403   1.399   1.272   0.822
 2731WAT     H1 8404   1.333   1.338   0.806
 2731WAT     H2 8405   1.474   1.321   0.856
 2732WAT      O 8406   1.668   0.236   4.187
 2732WAT     H1 8407   1.591   0.285   4.214
 2732WAT     H2 8408   1.727   0.241   4.262
 2733WAT      O 8409   2.534   2.011   2.112
 2733WAT     H1 8410   2.471   2.081   2.126
 2733WAT     H2 8411   2.611   2.038   2.162
 2734WAT      O 8412   1.807   0.393   0.389
 2734WAT     H1 8413   1.720   0.371   0.354
 2734WAT     H2 8414   1.806   0.488   0.397
 2735WAT      O 8415   1.595   5.004   0.196
 2735WAT     H1 8416   1.501   4.989   0.201
 2735WAT     H2 8417   1.616   4.999   0.103
 2736WAT      O 8418   3.714   0.146   3.807
 2736WAT     H1 8419   3.686   0.215   3.867
 2736WAT     H2 8420   3.804   0.127   3.833
 2737WAT      O 8421   1.019   0.699   3.424
 2737WAT     H1 8422   1.008   0.630   3.489
 2737WAT     H2 8423   1.111   0.725   3.432
 2738WAT      O 8424   1.851   4.288   1.347
 2738WAT     H1 8425   1.889   4.202   1.363
 2738WAT     H2 8426   1.768   4.287   1.395
 2739WAT      O 8427   3.212   2.719   0.019
 2739WAT     H1 8428   3.305   2.733   0.034
 2739WAT     H2 8429   3.203   2.623   0.008
 2740WAT      O 8430   2.916   0.796   5.236
 2740WAT     H1 8431   2.992   0.815   5.291
 2740WAT     H2 8432   2.842   0.800   5.297
 2741WAT      O 8433   4.248   1.093   4.119
 2741WAT     H1 8434   4.313   1.081   4.049
 2741WAT     H2 8435   4.227   1.186   4.118
 2742WAT      O 8436   0.864   4.365   4.305
 2742WAT     H1 8437   0.953   4.347   4.336
 2742WAT     H2 8438   0.811   4.370   4.385
 2743WAT      O 8439   3.731   1.679   0.444
 2743WAT     H1 8440   3.677   1.738   0.497
 2743WAT     H2 8441   3.801   1.735   0.410
 2744WAT      O 8442   2.615   3.319   4.461
 2744WAT     H1 8443   2.626   3.371   4.382
 2744WAT     H2 8444   2.624   3.228   4.431
 2745WAT      O 8445   0.068   3.133   1.613
 2745WAT     H1 8446   0.051   3.173   1.698
 2745WAT     H2 8447  -0.004   3.163   1.557
 2746WAT      O 8448   2.943   0.537   1.299
 2746WAT     H1 8449   2.967   0.480   1.373
 2746WAT     H2 8450   2.851   0.558   1.315
 2747WAT      O 8451   0.803   4.341   4.999
 2747WAT     H1 8452   0.818   4.336   5.093
 2747WAT     H2 8453   0.795   4.250   4.971
 2748WAT      O 8454   3.717   0.367   2.113
 2748WAT     H1 8455   3.733   0.351   2.020
 2748WAT     H2 8456   3.729   0.461   2.124
 2749WAT      O 8457   3.949   0.750   0.161
 2749WAT     H1 8458   3.897   0.692   0.105
 2749WAT     H2 8459   3.968   0.697   0.239
 2750WAT      O 8460   2.343   3.877   4.080
 2750WAT     H1 8461   2.437   3.883   4.095
 2750WAT     H2 8462   2.333   3.888   3.985
 2751WAT      O 8463   3.212   5.106   1.538
 2751WAT     H1 8464   3.231   5.177   1.477
 2751WAT     H2 8465   3.212   5.148   1.624
 2752WAT      O 8466   3.773   0.315   1.851
 2752WAT     H1 8467   3.856   0.273   1.832
 2752WAT     H2 8468   3.728   0.319   1.767
 2753WAT      O 8469   2.620   2.433   4.082
 2753WAT     H1 8470   2.625   2.378   4.004
 2753WAT     H2 8471   2.707   2.472   4.089
 2754WAT      O 8472   3.471   4.196   1.526
 2754WAT     H1 8473   3.526   4.151   1.462
 2754WAT     H2 8474   3.382   4.184   1.494
 2755WAT      O 8475   0.065   1.284   0.842
 2755WAT     H1 8476   0.000   1.333   0.792
 2755WAT     H2 8477   0.145   1.336   0.835
 2756WAT      O 8478   0.548   2.628   2.839
 2756WAT     H1 8479   0.515   2.647   2.926
 2756WAT     H2 8480   0.609   2.699   2.820
 2757WAT      O 8481   3.112   4.324   0.798
 2757WAT     H1 8482   3.106   4.251   0.736
 2757WAT     H2 8483   3.188   4.303   0.852
 2758WAT      O 8484   3.146   1.479   2.786
 2758WAT     H1 8485   3.157   1.396   2.739
 2758WAT     H2 8486   3.128   1.455   2.876
 2759WAT      O 8487   0.406   3.174   4.058
 2759WAT     H1 8488   0.369   3.090   4.087
 2759WAT     H2 8489   0.334   3.235   4.067
 2760WAT      O 8490   0.639   3.457   2.116
 2760WAT     H1 8491   0.729   3.428   2.103
 2760WAT     H2 8492   0.609   3.411   2.194
 2761WAT      O 8493   1.249   4.150   3.041
 2761WAT     H1 8494   1.333   4.164   2.999
 2761WAT     H2 8495   1.270   4.100   3.121
 2762WAT      O 8496   1.762   1.484   5.219
 2762WAT     H1 8497   1.847   1.441   5.229
 2762WAT     H2 8498   1.756   1.502   5.125
 2763WAT      O 8499   2.807   4.944   1.415
 2763WAT     H1 8500   2.758   4.954   1.334
 2763WAT     H2 8501   2.892   4.908   1.387
 2764WAT      O 8502   4.110   3.690   4.581
 2764WAT     H1 8503   4.142   3.608   4.543
 2764WAT     H2 8504   4.098   3.748   4.506
 2765WAT      O 8505   0.259   1.323   5.059
 2765WAT     H1 8506   0.272   1.337   5.153
 2765WAT     H2 8507   0.164   1.333   5.047
 2766WAT      O 8508   3.212   2.758   4.393
 2766WAT     H1 8509   3.253   2.827   4.340
 2766WAT     H2 8510   3.133   2.798   4.428
 2767WAT      O 8511   3.807   3.872   1.655
 2767WAT     H1 8512   3.766   3.789   1.678
 2767WAT     H2 8513   3.843   3.859   1.567
 2768WAT      O 8514   1.798   3.431   3.500
 2768WAT     H1 8515   1.847   3.509   3.475
 2768WAT     H2 8516   1.863   3.361   3.504
 2769WAT      O 8517   0.587   1.761   5.298
 2769WAT     H1 8518   0.665   1.728   5.253
 2769WAT     H2 8519   0.514   1.721   5.251
 2770WAT      O 8520   0.378   0.323   2.523
 2770WAT     H1 8521   0.401   0.231   2.540
 2770WAT     H2 8522   0.332   0.321   2.439
 2771WAT      O 8523   0.661   2.622   0.495
 2771WAT     H1 8524   0.737   2.676   0.481
 2771WAT     H2 8525   0.690   2.557   0.560
 2772WAT      O 8526   3.811   0.369   4.896
 2772WAT     H1 8527   3.803   0.434   4.826
 2772WAT     H2 8528   3.794   0.418   4.976
 2773WAT      O 8529   4.477   4.757   0.154
 2773WAT     H1 8530   4.543   4.769   0.087
 2773WAT     H2 8531   4.409   4.705   0.112
 2774WAT      O 8532   4.501   3.606   3.273
 2774WAT     H1 8533   4.459   3.693   3.268
 2774WAT     H2 8534   4.434   3.550   3.311
 2775WAT      O 8535   3.787   4.631   2.213
 2775WAT     H1 8536   3.740   4.548   2.212
 2775WAT     H2 8537   3.852   4.621   2.282
 2776WAT      O 8538   2.019   3.790   4.520
 2776WAT     H1 8539   1.980   3.870   4.484
 2776WAT     H2 8540   1.945   3.730   4.529
 2777WAT      O 8541   1.184   1.074   0.158
 2777WAT     H1 8542   1.163   1.052   0.249
 2777WAT     H2 8543   1.238   1.153   0.166
 2778WAT      O 8544   3.157   4.932   0.060
 2778WAT     H1 8545   3.074   4.968   0.032
 2778WAT     H2 8546   3.138   4.890   0.144
 2779WAT      O 8547   2.640   0.097   5.062
 2779WAT     H1 8548   2.704   0.116   4.993
 2779WAT     H2 8549   2.606   0.011   5.039
 2780WAT      O 8550   2.310   0.640   1.182
 2780WAT     H1 8551   2.378   0.708   1.189
 2780WAT     H2 8552   2.261   0.647   1.264
 2781WAT      O 8553   0.482   3.100   1.738
 2781WAT     H1 8554   0.416   3.042   1.775
 2781WAT     H2 8555   0.434   3.156   1.678
 2782WAT      O 8556   2.821   1.785   1.008
 2782WAT     H1 8557   2.744   1.836   0.984
 2782WAT     H2 8558   2.889   1.852   1.022
 2783WAT      O 8559   3.695   3.470   4.259
 2783WAT     H1 8560   3.724   3.388   4.298
 2783WAT     H2 8561   3.636   3.445   4.189
 2784WAT      O 8562   4.381   0.309   4.484
 2784WAT     H1 8563   4.436   0.331   4.560
 2784WAT     H2 8564   4.404   0.374   4.418
 2785WAT      O 8565   4.092   0.968   3.800
 2785WAT     H1 8566   4.086   1.007   3.713
 2785WAT     H2 8567   4.049   0.883   3.792
 2786WAT      O 8568   1.875   0.464   2.276
 2786WAT     H1 8569   1.872   0.516   2.197
 2786WAT     H2 8570   1.874   0.528   2.347
 2787WAT      O 8571   0.267   4.124   4.959
 2787WAT     H1 8572   0.172   4.121   4.953
 2787WAT     H2 8573   0.297   4.138   4.869
 2788WAT      O 8574   2.272   1.356   4.022
 2788WAT     H1 8575   2.319   1.435   4.051
 2788WAT     H2 8576   2.238   1.318   4.103
 2789WAT      O 8577   2.707   4.057   4.646
 2789WAT     H1 8578   2.794   4.093   4.629
 2789WAT     H2 8579   2.665   4.122   4.701
 2790WAT      O 8580   0.283   4.854   4.991
 2790WAT     H1 8581   0.359   4.805   4.959
 2790WAT     H2 8582   0.316   4.904   5.065
 2791WAT      O 8583   3.283   2.544   4.707
 2791WAT     H1 8584   3.341   2.470   4.724
 2791WAT     H2 8585   3.300   2.604   4.780
 2792WAT      O 8586   0.782   3.284   2.995
 2792WAT     H1 8587   0.764   3.332   2.914
 2792WAT     H2 8588   0.870   3.313   3.021
 2793WAT      O 8589   4.158   0.269   2.697
 2793WAT     H1 8590   4.075   0.307   2.727
 2793WAT     H2 8591   4.154   0.275   2.602
 2794WAT      O 8592   0.135   0.110   4.633
 2794WAT     H1 8593   0.170   0.111   4.544
 2794WAT     H2 8594   0.130   0.018   4.656
 2795WAT      O 8595   4.304   2.888   0.139
 2795WAT     H1 8596   4.279   2.964   0.193
 2795WAT     H2 8597   4.388   2.914   0.101
 2796WAT      O 8598   3.523   0.249   2.259
 2796WAT     H1 8599   3.581   0.283   2.191
 2796WAT     H2 8600   3.574   0.183   2.304
 2797WAT      O 8601   0.471   0.071   0.832
 2797WAT     H1 8602   0.386   0.078   0.875
 2797WAT     H2 8603   0.532   0.118   0.889
 2798WAT      O 8604   4.096   3.182   3.378
 2798WAT     H1 8605   4.041   3.221   3.311
 2798WAT     H2 8606   4.185   3.209   3.356
 2799WAT      O 8607   2.082   4.439   1.359
 2799WAT     H1 8608   2.041   4.515   1.401
 2799WAT     H2 8609   2.020   4.368   1.372
 2800WAT      O 8610   2.407   2.491   5.103
 2800WAT     H1 8611   2.468   2.518   5.172
 2800WAT     H2 8612   2.415   2.559   5.037
 2801WAT      O 8613   3.681   1.761   3.166
 2801WAT     H1 8614   3.671   1.669   3.143
 2801WAT     H2 8615   3.703   1.761   3.259
 2802WAT      O 8616   2.297   4.420   4.098
 2802WAT     H1 8617   2.330   4.334   4.072
 2802WAT     H2 8618   2.207   4.403   4.127
 2803WAT      O 8619   1.721   2.758   5.105
 2803WAT     H1 8620   1.734   2.820   5.033
 2803WAT     H2 8621   1.804   2.709   5.110
 2804WAT      O 8622   0.390   3.025   3.087
 2804WAT     H1 8623   0.378   2.989   3.174
 2804WAT     H2 8624   0.440   3.107   3.102
 2805WAT      O 8625   0.625   4.017   2.671
 2805WAT     H1 8626   0.691   4.084   2.690
 2805WAT     H2 8627   0.623   4.011   2.576
 2806WAT      O 8628   3.582   4.550   5.029
 2806WAT     H1 8629   3.577   4.624   5.090
 2806WAT     H2 8630   3.654   4.497   5.063
 2807WAT      O 8631   1.367   2.084   0.463
 2807WAT     H1 8632   1.390   2.038   0.544
 2807WAT     H2 8633   1.393   2.175   0.478
 2808WAT      O 8634   3.132   1.213   3.760
 2808WAT     H1 8635   3.117   1.126   3.727
 2808WAT     H2 8636   3.045   1.244   3.788
 2809WAT      O 8637   2.621   1.972   5.194
 2809WAT     H1 8638   2.706   1.942   5.226
 2809WAT     H2 8639   2.586   2.025   5.265
 2810WAT      O 8640   2.936   1.380   2.120
 2810WAT     H1 8641   3.025   1.351   2.101
 2810WAT     H2 8642   2.898   1.307   2.169
 2811WAT      O 8643   0.334   2.515   0.782
 2811WAT     H1 8644   0.270   2.544   0.716
 2811WAT     H2 8645   0.328   2.419   0.779
 2812WAT      O 8646   3.733   3.127   2.237
 2812WAT     H1 8647   3.786   3.141   2.315
 2812WAT     H2 8648   3.762   3.195   2.176
 2813WAT      O 8649   0.458   1.165   1.314
 2813WAT     H1 8650   0.438   1.241   1.368
 2813WAT     H2 8651   0.376   1.147   1.267
 2814WAT      O 8652   0.561   3.032   5.265
 2814WAT     H1 8653   0.649   3.065   5.244
 2814WAT     H2 8654   0.573   2.939   5.276
 2815WAT      O 8655   1.497   2.844   1.082
 2815WAT     H1 8656   1.433   2.912   1.062
 2815WAT     H2 8657   1.489   2.831   1.177
 2816WAT      O 8658   2.386   0.600   1.506
 2816WAT     H1 8659   2.442   0.639   1.573
 2816WAT     H2 8660   2.423   0.514   1.491
 2817WAT      O 8661   0.316   3.452   2.133
 2817WAT     H1 8662   0.375   3.480   2.202
 2817WAT     H2 8663   0.347   3.365   2.109
 2818WAT      O 8664   2.027   1.718   4.423
 2818WAT     H1 8665   1.941   1.716   4.380
 2818WAT     H2 8666   2.014   1.777   4.498
 2819WAT      O 8667   1.962   3.339   3.787
 2819WAT     H1 8668   1.972   3.330   3.881
 2819WAT     H2 8669   1.949   3.432   3.772
 2820WAT      O 8670   3.463   4.296   2.099
 2820WAT     H1 8671   3.408   4.289   2.176
 2820WAT     H2 8672   3.415   4.249   2.031
 2821WAT      O 8673   3.921   2.647   3.779
 2821WAT     H1 8674   3.923   2.569   3.724
 2821WAT     H2 8675   3.833   2.646   3.818
 2822WAT      O 8676   1.168   3.479   1.274
 2822WAT     H1 8677   1.088   3.466   1.325
 2822WAT     H2 8678   1.161   3.414   1.203
 2823WAT      O 8679   3.559   4.779   4.567
 2823WAT     H1 8680   3.560   4.707   4.504
 2823WAT     H2 8681   3.540   4.737   4.651
 2824WAT      O 8682   1.512   2.053   3.254
 2824WAT     H1 8683   1.441   1.994   3.278
 2824WAT     H2 8684   1.585   2.025   3.310
 2825WAT      O 8685   4.492   2.585   4.243
 2825WAT     H1 8686   4.416   2.604   4.298
 2825WAT     H2 8687   4.525   2.671   4.217
 2826WAT      O 8688   2.525   4.579   1.639
 2826WAT     H1 8689   2.504   4.501   1.690
 2826WAT     H2 8690   2.448   4.594   1.585
 2827WAT      O 8691   2.228   4.813   2.035
 2827WAT     H1 8692   2.288   4.748   2.071
 2827WAT     H2 8693   2.285   4.872   1.984
 2828WAT      O 8694   1.061   3.332   4.773
 2828WAT     H1 8695   1.072   3.384   4.852
 2828WAT     H2 8696   0.982   3.367   4.732
 2829WAT      O 8697   3.093   3.820   0.604
 2829WAT     H1 8698   3.116   3.825   0.697
 2829WAT     H2 8699   3.027   3.888   0.592
 2830WAT      O 8700   1.016   0.846   4.192
 2830WAT     H1 8701   0.933   0.805   4.217
 2830WAT     H2 8702   1.070   0.839   4.270
 2831WAT      O 8703   1.877   2.273   0.439
 2831WAT     H1 8704   1.809   2.243   0.500
 2831WAT     H2 8705   1.906   2.358   0.475
 2832WAT      O 8706   0.756   4.260   3.908
 2832WAT     H1 8707   0.686   4.293   3.963
 2832WAT     H2 8708   0.765   4.326   3.839
 2833WAT      O 8709   2.792   2.366   0.845
 2833WAT     H1 8710   2.839   2.287   0.819
 2833WAT     H2 8711   2.701   2.339   0.852
 2834WAT      O 8712   0.094   1.009   1.788
 2834WAT     H1 8713   0.082   1.024   1.694
 2834WAT     H2 8714   0.147   1.083   1.817
 2835WAT      O 8715   1.105   0.807   2.005
 2835WAT     H1 8716   1.025   0.856   1.992
 2835WAT     H2 8717   1.168   0.871   2.039
 2836WAT      O 8718   0.516   4.710   3.329
 2836WAT     H1 8719   0.470   4.735   3.248
 2836WAT     H2 8720   0.534   4.617   3.318
 2837WAT      O 8721   0.800   4.610   0.058
 2837WAT     H1 8722   0.739   4.638  -0.010
 2837WAT     H2 8723   0.744   4.566   0.123
 2838WAT      O 8724   2.501   3.786   1.974
 2838WAT     H1 8725   2.519   3.692   1.976
 2838WAT     H2 8726   2.406   3.792   1.971
 2839WAT      O 8727   1.037   2.841   2.629
 2839WAT     H1 8728   1.050   2.913   2.692
 2839WAT     H2 8729   1.015   2.886   2.547
 2840WAT      O 8730   2.908   3.630   5.227
 2840WAT     H1 8731   2.989   3.583   5.246
 2840WAT     H2 8732   2.926   3.680   5.148
 2841WAT      O 8733   4.421   0.803   1.921
 2841WAT     H1 8734   4.489   0.869   1.909
 2841WAT     H2 8735   4.340   0.846   1.893
 2842WAT      O 8736   0.860   4.815   2.903
 2842WAT     H1 8737   0.866   4.884   2.969
 2842WAT     H2 8738   0.949   4.783   2.893
 2843WAT      O 8739   3.644   2.742   4.829
 2843WAT     H1 8740   3.690   2.669   4.868
 2843WAT     H2 8741   3.709   2.785   4.772
 2844WAT      O 8742   3.964   1.522   2.110
 2844WAT     H1 8743   3.916   1.601   2.134
 2844WAT     H2 8744   4.046   1.527   2.159
 2845WAT      O 8745   0.127   2.555   1.397
 2845WAT     H1 8746   0.041   2.550   1.356
 2845WAT     H2 8747   0.176   2.616   1.343
 2846WAT      O 8748   2.094   5.110   0.439
 2846WAT     H1 8749   2.011   5.132   0.397
 2846WAT     H2 8750   2.076   5.119   0.532
 2847WAT      O 8751   0.556   0.453   0.932
 2847WAT     H1 8752   0.480   0.451   0.874
 2847WAT     H2 8753   0.557   0.366   0.972
 2848WAT      O 8754   0.704   3.272   4.946
 2848WAT     H1 8755   0.609   3.268   4.944
 2848WAT     H2 8756   0.732   3.182   4.925
 2849WAT      O 8757   1.006   3.396   3.056
 2849WAT     H1 8758   1.015   3.487   3.083
 2849WAT     H2 8759   1.089   3.355   3.081
 2850WAT      O 8760   3.912   1.021   2.022
 2850WAT     H1 8761   3.832   0.981   2.055
 2850WAT     H2 8762   3.887   1.060   1.938
 2851WAT      O 8763   0.029   4.853   1.587
 2851WAT     H1 8764   0.004   4.766   1.557
 2851WAT     H2 8765   0.006   4.911   1.514
 2852WAT      O 8766   0.169   1.425   3.371
 2852WAT     H1 8767   0.083   1.465   3.357
 2852WAT     H2 8768   0.154   1.333   3.359
 2853WAT      O 8769   0.111   4.265   0.061
 2853WAT     H1 8770   0.148   4.176   0.061
 2853WAT     H2 8771   0.019   4.252   0.041
 2854WAT      O 8772   1.090   0.349   4.232
 2854WAT     H1 8773   1.003   0.364   4.269
 2854WAT     H2 8774   1.073   0.301   4.151
 2855WAT      O 8775   0.005   1.351   2.374
 2855WAT     H1 8776   0.005   1.284   2.442
 2855WAT     H2 8777  -0.019   1.305   2.294
 2856WAT      O 8778   3.187   3.367   1.566
 2856WAT     H1 8779   3.205   3.461   1.572
 2856WAT     H2 8780   3.165   3.342   1.656
 2857WAT      O 8781   0.079   4.850   2.848
 2857WAT     H1 8782   0.075   4.822   2.756
 2857WAT     H2 8783   0.025   4.786   2.894
 2858WAT      O 8784   2.904   1.244   4.238
 2858WAT     H1 8785   2.979   1.284   4.283
 2858WAT     H2 8786   2.944   1.180   4.178
 2859WAT      O 8787   1.913   1.913   5.300
 2859WAT     H1 8788   1.820   1.890   5.303
 2859WAT     H2 8789   1.928   1.945   5.211
 2860WAT      O 8790   1.872   5.129   1.049
 2860WAT     H1 8791   1.916   5.083   0.977
 2860WAT     H2 8792   1.779   5.116   1.033
 2861WAT      O 8793   3.033   4.831   1.267
 2861WAT     H1 8794   3.073   4.903   1.217
 2861WAT     H2 8795   2.987   4.779   1.201
 2862WAT      O 8796   1.722   4.106   3.630
 2862WAT     H1 8797   1.679   4.058   3.701
 2862WAT     H2 8798   1.812   4.116   3.659
 2863WAT      O 8799   3.915   1.584   4.421
 2863WAT     H1 8800   3.912   1.662   4.476
 2863WAT     H2 8801   3.839   1.534   4.447
 2864WAT      O 8802   3.134   3.943   4.431
 2864WAT     H1 8803   3.208   3.988   4.391
 2864WAT     H2 8804   3.167   3.854   4.448
 2865WAT      O 8805   4.182   1.686   2.579
 2865WAT     H1 8806   4.266   1.676   2.624
 2865WAT     H2 8807   4.138   1.757   2.626
 2866WAT      O 8808   0.704   4.284   0.684
 2866WAT     H1 8809   0.716   4.252   0.773
 2866WAT     H2 8810   0.638   4.227   0.646
 2867WAT      O 8811   2.789   0.480   0.838
 2867WAT     H1 8812   2.858   0.484   0.905
 2867WAT     H2 8813   2.748   0.566   0.842
 2868WAT      O 8814   3.215   4.235   3.774
 2868WAT     H1 8815   3.292   4.179   3.760
 2868WAT     H2 8816   3.225   4.305   3.710
 2869WAT      O 8817   2.039   5.063   1.647
 2869WAT     H1 8818   2.080   5.126   1.707
 2869WAT     H2 8819   2.031   5.111   1.565
 2870WAT      O 8820   2.434   4.729   4.912
 2870WAT     H1 8821   2.511   4.678   4.938
 2870WAT     H2 8822   2.374   4.722   4.987
 2871WAT      O 8823   0.163   3.931   2.868
 2871WAT     H1 8824   0.244   3.958   2.825
 2871WAT     H2 8825   0.138   3.850   2.823
 2872WAT      O 8826   0.191   2.362   3.470
 2872WAT     H1 8827   0.119   2.308   3.501
 2872WAT     H2 8828   0.199   2.341   3.377
 2873WAT      O 8829   0.810   4.861   0.258
 2873WAT     H1 8830   0.762   4.812   0.325
 2873WAT     H2 8831   0.801   4.808   0.179
 2874WAT      O 8832   0.905   1.636   2.188
 2874WAT     H1 8833   0.857   1.632   2.271
 2874WAT     H2 8834   0.930   1.728   2.181
 2875WAT      O 8835   4.346   3.185   1.490
 2875WAT     H1 8836   4.289   3.216   1.420
 2875WAT     H2 8837   4.285   3.150   1.555
 2876WAT      O 8838   4.343   3.043   0.742
 2876WAT     H1 8839   4.312   2.992   0.818
 2876WAT     H2 8840   4.425   3.082   0.772
 2877WAT      O 8841   1.449   1.413   4.001
 2877WAT     H1 8842   1.502   1.337   3.975
 2877WAT     H2 8843   1.402   1.384   4.079
 2878WAT      O 8844   1.381   4.138   1.476
 2878WAT     H1 8845   1.288   4.151   1.495
 2878WAT     H2 8846   1.383   4.072   1.407
 2879WAT      O 8847   4.244   4.300   2.994
 2879WAT     H1 8848   4.240   4.208   3.021
 2879WAT     H2 8849   4.174   4.309   2.929
 2880WAT      O 8850   4.513   4.322   2.933
 2880WAT     H1 8851   4.419   4.313   2.945
 2880WAT     H2 8852   4.551   4.254   2.989
 2881WAT      O 8853   0.898   4.403   1.006
 2881WAT     H1 8854   0.941   4.443   0.931
 2881WAT     H2 8855   0.822   4.358   0.970
 2882WAT      O 8856   1.797   0.596   1.092
 2882WAT     H1 8857   1.721   0.550   1.129
 2882WAT     H2 8858   1.830   0.649   1.164
 2883WAT      O 8859   2.675   0.742   0.811
 2883WAT     H1 8860   2.716   0.803   0.750
 2883WAT     H2 8861   2.585   0.735   0.781
 2884WAT      O 8862   0.520   0.935   3.004
 2884WAT     H1 8863   0.565   0.981   2.933
 2884WAT     H2 8864   0.501   1.004   3.068
 2885WAT      O 8865   0.674   0.230   4.462
 2885WAT     H1 8866   0.600   0.196   4.412
 2885WAT     H2 8867   0.722   0.153   4.491
 2886WAT      O 8868   2.332   3.474   1.330
 2886WAT     H1 8869   2.395   3.496   1.262
 2886WAT     H2 8870   2.349   3.537   1.400
 2887WAT      O 8871   0.195   3.839   3.452
 2887WAT     H1 8872   0.216   3.922   3.495
 2887WAT     H2 8873   0.102   3.825   3.472
 2888WAT      O 8874   3.458   1.502   5.115
 2888WAT     H1 8875   3.498   1.459   5.191
 2888WAT     H2 8876   3.498   1.590   5.112
 2889WAT      O 8877   0.222   2.923   4.799
 2889WAT     H1 8878   0.315   2.913   4.823
 2889WAT     H2 8879   0.192   2.998   4.850
 2890WAT      O 8880   3.632   2.693   4.495
 2890WAT     H1 8881   3.709   2.712   4.549
 2890WAT     H2 8882   3.576   2.769   4.504
 2891WAT      O 8883   4.110   3.515   4.253
 2891WAT     H1 8884   4.107   3.458   4.330
 2891WAT     H2 8885   4.184   3.574   4.270
 2892WAT      O 8886   3.463   1.521   2.515
 2892WAT     H1 8887   3.368   1.524   2.504
 2892WAT     H2 8888   3.477   1.464   2.590
 2893WAT      O 8889   2.457   1.913   2.750
 2893WAT     H1 8890   2.503   1.981   2.701
 2893WAT     H2 8891   2.399   1.873   2.686
 2894WAT      O 8892   2.585   4.963   5.029
 2894WAT     H1 8893   2.509   4.942   5.082
 2894WAT     H2 8894   2.614   4.880   4.993
 2895WAT      O 8895   4.089   3.392   0.458
 2895WAT     H1 8896   4.015   3.342   0.492
 2895WAT     H2 8897   4.096   3.365   0.366
 2896WAT      O 8898   4.255   1.057   2.125
 2896WAT     H1 8899   4.240   0.962   2.115
 2896WAT     H2 8900   4.203   1.097   2.056
 2897WAT      O 8901   1.130   0.825   1.574
 2897WAT     H1 8902   1.081   0.743   1.567
 2897WAT     H2 8903   1.154   0.846   1.484
 2898WAT      O 8904   3.364   3.263   3.079
 2898WAT     H1 8905   3.382   3.267   3.173
 2898WAT     H2 8906   3.341   3.353   3.055
 2899WAT      O 8907   4.286   4.801   4.401
 2899WAT     H1 8908   4.320   4.742   4.334
 2899WAT     H2 8909   4.194   4.814   4.376
 2900WAT      O 8910   3.856   3.051   1.184
 2900WAT     H1 8911   3.912   2.975   1.188
 2900WAT     H2 8912   3.893   3.111   1.250
 2901WAT      O 8913   1.509   1.152   2.354
 2901WAT     H1 8914   1.591   1.175   2.396
 2901WAT     H2 8915   1.441   1.192   2.408
 2902WAT      O 8916   0.787   2.380   2.929
 2902WAT     H1 8917   0.707   2.341   2.964
 2902WAT     H2 8918   0.822   2.433   3.002
 2903WAT      O 8919   1.562   4.341   1.481
 2903WAT     H1 8920   1.579   4.347   1.575
 2903WAT     H2 8921   1.482   4.289   1.474
 2904WAT      O 8922   0.505   2.001   5.071
 2904WAT     H1 8923   0.572   1.942   5.036
 2904WAT     H2 8924   0.551   2.084   5.081
 2905WAT      O 8925   3.152   3.554   3.216
 2905WAT     H1 8926   3.127   3.508   3.136
 2905WAT     H2 8927   3.233   3.600   3.193
 2906WAT      O 8928   3.202   2.884   3.937
 2906WAT     H1 8929   3.123   2.893   3.990
 2906WAT     H2 8930   3.170   2.853   3.852
 2907WAT      O 8931   0.309   0.498   4.628
 2907WAT     H1 8932   0.244   0.452   4.680
 2907WAT     H2 8933   0.354   0.555   4.690
 2908WAT      O 8934   4.042   4.053   2.600
 2908WAT     H1 8935   4.052   4.114   2.527
 2908WAT     H2 8936   3.994   4.102   2.667
 2909WAT      O 8937   4.021   2.156   1.276
 2909WAT     H1 8938   4.043   2.116   1.360
 2909WAT     H2 8939   4.105   2.189   1.243
 2910WAT      O 8940   2.166   3.757   4.239
 2910WAT     H1 8941   2.210   3.768   4.323
 2910WAT     H2 8942   2.224   3.800   4.176
 2911WAT      O 8943   1.303   3.559   0.654
 2911WAT     H1 8944   1.386   3.607   0.657
 2911WAT     H2 8945   1.283   3.540   0.745
 2912WAT      O 8946   4.229   0.969   1.791
 2912WAT     H1 8947   4.174   1.042   1.817
 2912WAT     H2 8948   4.195   0.941   1.706
 2913WAT      O 8949   0.368   0.427   2.120
 2913WAT     H1 8950   0.406   0.429   2.032
 2913WAT     H2 8951   0.434   0.471   2.174
 2914WAT      O 8952   2.580   1.061   4.703
 2914WAT     H1 8953   2.594   1.139   4.648
 2914WAT     H2 8954   2.556   0.991   4.642
 2915WAT      O 8955   2.220   0.679   0.472
 2915WAT     H1 8956   2.180   0.639   0.549
 2915WAT     H2 8957   2.228   0.771   0.497
 2916WAT      O 8958   3.644   0.116   2.954
 2916WAT     H1 8959   3.629   0.026   2.981
 2916WAT     H2 8960   3.728   0.139   2.993
 2917WAT      O 8961   2.593   0.220   1.013
 2917WAT     H1 8962   2.586   0.127   1.034
 2917WAT     H2 8963   2.557   0.264   1.090
 2918WAT      O 8964   0.896   4.234   2.148
 2918WAT     H1 8965   0.970   4.273   2.102
 2918WAT     H2 8966   0.826   4.232   2.083
 2919WAT      O 8967   2.816   1.455   2.832
 2919WAT     H1 8968   2.900   1.435   2.872
 2919WAT     H2 8969   2.799   1.547   2.854
 2920WAT      O 8970   1.020   2.866   1.522
 2920WAT     H1 8971   1.081   2.835   1.455
 2920WAT     H2 8972   1.021   2.796   1.589
 2921WAT      O 8973   4.104   1.323   1.413
 2921WAT     H1 8974   4.055   1.242   1.423
 2921WAT     H2 8975   4.179   1.313   1.472
 2922WAT      O 8976   4.079   3.472   2.551
 2922WAT     H1 8977   4.016   3.540   2.576
 2922WAT     H2 8978   4.026   3.398   2.523
 2923WAT      O 8979   0.596   1.659   0.622
 2923WAT     H1 8980   0.554   1.649   0.537
 2923WAT     H2 8981   0.652   1.737   0.611
 2924WAT      O 8982   2.942   4.724   4.965
 2924WAT     H1 8983   2.875   4.784   4.932
 2924WAT     H2 8984   3.020   4.778   4.976
 2925WAT      O 8985   0.255   4.732   4.194
 2925WAT     H1 8986   0.183   4.732   4.257
 2925WAT     H2 8987   0.293   4.819   4.200
 2926WAT      O 8988   1.994   1.844   0.258
 2926WAT     H1 8989   2.084   1.870   0.275
 2926WAT     H2 8990   1.982   1.856   0.164
 2927WAT      O 8991   4.096   3.845   1.982
 2927WAT     H1 8992   4.003   3.865   1.975
 2927WAT     H2 8993   4.119   3.871   2.072
 2928WAT      O 8994   0.751   3.835   4.609
 2928WAT     H1 8995   0.668   3.857   4.651
 2928WAT     H2 8996   0.780   3.916   4.567
 2929WAT      O 8997   2.831   0.992   3.941
 2929WAT     H1 8998   2.739   1.005   3.964
 2929WAT     H2 8999   2.829   0.971   3.847
 2930WAT      O 9000   4.422   2.086   4.110
 2930WAT     H1 9001   4.499   2.143   4.107
 2930WAT     H2 9002   4.351   2.142   4.140
 2931WAT      O 9003   4.262   3.386   3.600
 2931WAT     H1 9004   4.295   3.297   3.611
 2931WAT     H2 9005   4.287   3.411   3.511
 2932WAT      O 9006   2.465   1.597   2.858
 2932WAT     H1 9007   2.525   1.670   2.876
 2932WAT     H2 9008   2.515   1.538   2.802
 2933WAT      O 9009   3.253   1.262   4.686
 2933WAT     H1 9010   3.314   1.196   4.653
 2933WAT     H2 9011   3.265   1.259   4.781
 2934WAT      O 9012   4.147   2.273   2.436
 2934WAT     H1 9013   4.220   2.327   2.409
 2934WAT     H2 9014   4.142   2.283   2.531
 2935WAT      O 9015   3.167   1.626   3.412
 2935WAT     H1 9016   3.127   1.551   3.456
 2935WAT     H2 9017   3.170   1.695   3.479
 2936WAT      O 9018   1.592   2.533   1.563
 2936WAT     H1 9019   1.546   2.607   1.604
 2936WAT     H2 9020   1.529   2.498   1.501
 2937WAT      O 9021   1.052   2.943   4.178
 2937WAT     H1 9022   1.100   2.907   4.102
 2937WAT     H2 9023   1.039   3.035   4.158
 2938WAT      O 9024   2.310   3.014   4.648
 2938WAT     H1 9025   2.271   2.958   4.715
 2938WAT     H2 9026   2.270   3.100   4.664
 2939WAT      O 9027   4.461   2.070   2.686
 2939WAT     H1 9028   4.421   2.040   2.767
 2939WAT     H2 9029   4.486   2.161   2.702
 2940WAT      O 9030   3.559   1.938   1.925
 2940WAT     H1 9031   3.513   1.882   1.861
 2940WAT     H2 9032   3.650   1.936   1.896
 2941WAT      O 9033   1.304   3.823   2.521
 2941WAT     H1 9034   1.311   3.890   2.589
 2941WAT     H2 9035   1.349   3.861   2.446
 2942WAT      O 9036   0.846   1.324   0.676
 2942WAT     H1 9037   0.917   1.320   0.612
 2942WAT     H2 9038   0.890   1.320   0.761
 2943WAT      O 9039   1.805   0.693   4.887
 2943WAT     H1 9040   1.722   0.678   4.931
 2943WAT     H2 9041   1.845   0.606   4.881
 2944WAT      O 9042   0.442   1.909   2.108
 2944WAT     H1 9043   0.396   1.992   2.107
 2944WAT     H2 9044   0.373   1.844   2.124
 2945WAT      O 9045   2.134   2.135   0.494
 2945WAT     H1 9046   2.064   2.184   0.452
 2945WAT     H2 9047   2.090   2.058   0.530
 2946WAT      O 9048   1.847   3.953   0.204
 2946WAT     H1 9049   1.875   4.018   0.269
 2946WAT     H2 9050   1.924   3.936   0.151
 2947WAT      O 9051   2.310   0.274   1.388
 2947WAT     H1 9052   2.283   0.186   1.359
 2947WAT     H2 9053   2.348   0.314   1.310
 2948WAT      O 9054   1.762   2.850   3.071
 2948WAT     H1 9055   1.809   2.768   3.085
 2948WAT     H2 9056   1.695   2.852   3.139
 2949WAT      O 9057   0.754   0.114   1.278
 2949WAT     H1 9058   0.789   0.188   1.227
 2949WAT     H2 9059   0.767   0.038   1.221
 2950WAT      O 9060   0.893   3.140   0.978
 2950WAT     H1 9061   0.831   3.101   0.916
 2950WAT     H2 9062   0.970   3.160   0.924
 2951WAT      O 9063   2.467   0.383   3.885
 2951WAT     H1 9064   2.415   0.303   3.890
 2951WAT     H2 9065   2.482   0.409   3.976
 2952WAT      O 9066   1.357   3.879   3.062
 2952WAT     H1 9067   1.295   3.836   3.002
 2952WAT     H2 9068   1.429   3.906   3.005
 2953WAT      O 9069   3.453   5.057   3.103
 2953WAT     H1 9070   3.398   5.099   3.036
 2953WAT     H2 9071   3.461   5.124   3.171
 2954WAT      O 9072   2.544   2.321   3.524
 2954WAT     H1 9073   2.606   2.272   3.578
 2954WAT     H2 9074   2.478   2.259   3.497
 2955WAT      O 9075   2.377   0.798   0.757
 2955WAT     H1 9076   2.282   0.790   0.743
 2955WAT     H2 9077   2.384   0.849   0.838
 2956WAT      O 9078   3.979   1.172   0.309
 2956WAT     H1 9079   4.046   1.236   0.288
 2956WAT     H2 9080   3.961   1.185   0.402
 2957WAT      O 9081   0.933   0.255   3.532
 2957WAT     H1 9082   0.988   0.213   3.598
 2957WAT     H2 9083   0.956   0.212   3.450
 2958WAT      O 9084   4.303   4.468   2.174
 2958WAT     H1 9085   4.377   4.522   2.202
 2958WAT     H2 9086   4.342   4.386   2.146
 2959WAT      O 9087   3.318   4.359   0.488
 2959WAT     H1 9088   3.357   4.377   0.573
 2959WAT     H2 9089   3.380   4.300   0.445
 2960WAT      O 9090   0.310   0.353   1.408
 2960WAT     H1 9091   0.380   0.406   1.371
 2960WAT     H2 9092   0.354   0.292   1.467
 2961WAT      O 9093   0.454   2.940   4.310
 2961WAT     H1 9094   0.387   3.001   4.342
 2961WAT     H2 9095   0.414   2.854   4.315
 2962WAT      O 9096   4.263   5.090   2.889
 2962WAT     H1 9097   4.263   5.123   2.799
 2962WAT     H2 9098   4.180   5.044   2.897
 2963WAT      O 9099   2.602   0.518   0.514
 2963WAT     H1 9100   2.563   0.523   0.426
 2963WAT     H2 9101   2.688   0.560   0.504
 2964WAT      O 9102   4.066   1.198   1.840
 2964WAT     H1 9103   3.999   1.226   1.903
 2964WAT     H2 9104   4.016   1.166   1.765
 2965WAT      O 9105   3.838   2.352   4.952
 2965WAT     H1 9106   3.817   2.287   4.886
 2965WAT     H2 9107   3.896   2.307   5.013
 2966WAT      O 9108   4.454   1.527   3.303
 2966WAT     H1 9109   4.373   1.521   3.353
 2966WAT     H2 9110   4.467   1.622   3.290
 2967WAT      O 9111   4.036   2.910   0.883
 2967WAT     H1 9112   4.009   2.819   0.891
 2967WAT     H2 9113   4.122   2.913   0.926
 2968WAT      O 9114   2.078   1.291   0.211
 2968WAT     H1 9115   2.093   1.377   0.250
 2968WAT     H2 9116   2.077   1.308   0.117
 2969WAT      O 9117   3.850   0.227   3.105
 2969WAT     H1 9118   3.903   0.151   3.128
 2969WAT     H2 9119   3.910   0.282   3.053
 2970WAT      O 9120   1.156   2.169   0.322
 2970WAT     H1 9121   1.218   2.137   0.388
 2970WAT     H2 9122   1.169   2.110   0.247
 2971WAT      O 9123   0.127   1.060   0.693
 2971WAT     H1 9124   0.221   1.068   0.710
 2971WAT     H2 9125   0.092   1.149   0.709
 2972WAT      O 9126   1.412   4.111   4.708
 2972WAT     H1 9127   1.502   4.125   4.678
 2972WAT     H2 9128   1.405   4.015   4.716
 2973WAT      O 9129   0.544   3.548   1.806
 2973WAT     H1 9130   0.499   3.628   1.833
 2973WAT     H2 9131   0.480   3.478   1.820
 2974WAT      O 9132   0.940   4.676   3.157
 2974WAT     H1 9133   0.853   4.663   3.119
 2974WAT     H2 9134   0.955   4.770   3.149
 2975WAT      O 9135   4.436   0.747   5.045
 2975WAT     H1 9136   4.481   0.718   4.965
 2975WAT     H2 9137   4.499   0.806   5.087
 2976WAT      O 9138   2.365   1.612   1.530
 2976WAT     H1 9139   2.434   1.637   1.469
 2976WAT     H2 9140   2.367   1.515   1.529
 2977WAT      O 9141   0.460   1.354   4.675
 2977WAT     H1 9142   0.419   1.303   4.606
 2977WAT     H2 9143   0.458   1.297   4.752
 2978WAT      O 9144   0.927   0.070   2.917
 2978WAT     H1 9145   0.930   0.155   2.875
 2978WAT     H2 9146   0.843   0.069   2.964
 2979WAT      O 9147   2.558   5.017   3.202
 2979WAT     H1 9148   2.506   4.937   3.208
 2979WAT     H2 9149   2.575   5.028   3.108
 2980WAT      O 9150   4.287   3.812   2.933
 2980WAT     H1 9151   4.197   3.792   2.907
 2980WAT     H2 9152   4.342   3.761   2.874
 2981WAT      O 9153   2.635   2.897   1.350
 2981WAT     H1 9154   2.715   2.884   1.299
 2981WAT     H2 9155   2.665   2.903   1.441
 2982WAT      O 9156   1.456   3.854   4.856
 2982WAT     H1 9157   1.503   3.839   4.938
 2982WAT     H2 9158   1.523   3.849   4.788
 2983WAT      O 9159   0.618   4.674   5.140
 2983WAT     H1 9160   0.593   4.725   5.063
 2983WAT     H2 9161   0.535   4.649   5.181
 2984WAT      O 9162   2.852   0.988   4.767
 2984WAT     H1 9163   2.765   1.024   4.753
 2984WAT     H2 9164   2.857   0.971   4.861
 2985WAT      O 9165   1.640   2.835   4.766
 2985WAT     H1 9166   1.705   2.894   4.726
 2985WAT     H2 9167   1.571   2.894   4.797
 2986WAT      O 9168   3.054   0.473   1.922
 2986WAT     H1 9169   3.004   0.549   1.891
 2986WAT     H2 9170   3.146   0.501   1.914
 2987WAT      O 9171   3.505   3.982   0.840
 2987WAT     H1 9172   3.492   3.972   0.934
 2987WAT     H2 9173   3.594   3.950   0.824
 2988WAT      O 9174   4.465   2.822   1.311
 2988WAT     H1 9175   4.488   2.795   1.222
 2988WAT     H2 9176   4.411   2.751   1.344
 2989WAT      O 9177   3.601   4.386   3.125
 2989WAT     H1 9178   3.541   4.458   3.104
 2989WAT     H2 9179   3.564   4.310   3.080
 2990WAT      O 9180   0.296   3.507   2.506
 2990WAT     H1 9181   0.212   3.463   2.508
 2990WAT     H2 9182   0.275   3.600   2.498
 2991WAT      O 9183   0.286   3.515   2.780
 2991WAT     H1 9184   0.315   3.546   2.694
 2991WAT     H2 9185   0.236   3.588   2.816
 2992WAT      O 9186   3.823   2.478   3.247
 2992WAT     H1 9187   3.887   2.538   3.208
 2992WAT     H2 9188   3.805   2.516   3.333
 2993WAT      O 9189   1.187   3.022   5.094
 2993WAT     H1 9190   1.200   3.077   5.017
 2993WAT     H2 9191   1.093   3.025   5.111
 2994WAT      O 9192   3.906   0.335   4.594
 2994WAT     H1 9193   3.831   0.278   4.575
 2994WAT     H2 9194   3.976   0.300   4.540
 2995WAT      O 9195   0.840   0.442   4.356
 2995WAT     H1 9196   0.780   0.516   4.344
 2995WAT     H2 9197   0.786   0.374   4.396
 2996WAT      O 9198   2.828   1.807   1.527
 2996WAT     H1 9199   2.843   1.715   1.543
 2996WAT     H2 9200   2.872   1.852   1.600
 2997WAT      O 9201   3.156   4.139   0.250
 2997WAT     H1 9202   3.205   4.214   0.283
 2997WAT     H2 9203   3.196   4.063   0.292
 2998WAT      O 9204   3.938   2.701   2.023
 2998WAT     H1 9205   3.896   2.771   2.074
 2998WAT     H2 9206   4.017   2.680   2.072
 2999WAT      O 9207   1.789   1.557   0.192
 2999WAT     H1 9208   1.784   1.544   0.097
 2999WAT     H2 9209   1.880   1.583   0.208
 3000WAT      O 9210   3.552   1.370   4.788
 3000WAT     H1 9211   3.466   1.346   4.755
 3000WAT     H2 9212   3.565   1.315   4.865
 3001WAT      O 9213   3.877   2.248   3.112
 3001WAT     H1 9214   3.841   2.331   3.146
 3001WAT     H2 9215   3.904   2.200   3.190
 3002WAT      O 9216   3.549   2.164   3.895
 3002WAT     H1 9217   3.579   2.077   3.919
 3002WAT     H2 9218   3.508   2.197   3.975
 3003WAT      O 9219   4.073   3.489   5.275
 3003WAT     H1 9220   4.110   3.508   5.361
 3003WAT     H2 9221   4.052   3.575   5.239
 3004WAT      O 9222   0.653   2.872   1.795
 3004WAT     H1 9223   0.635   2.930   1.721
 3004WAT     H2 9224   0.608   2.911   1.869
 3005WAT      O 9225   0.480   2.080   4.711
 3005WAT     H1 9226   0.429   2.047   4.785
 3005WAT     H2 9227   0.530   2.004   4.681
 3006WAT      O 9228   0.492   0.939   3.592
 3006WAT     H1 9229   0.498   0.948   3.496
 3006WAT     H2 9230   0.583   0.938   3.621
 3007WAT      O 9231   0.017   2.158   3.503
 3007WAT     H1 9232  -0.070   2.121   3.508
 3007WAT     H2 9233   0.076   2.084   3.518
 3008WAT      O 9234   2.108   4.651   2.657
 3008WAT     H1 9235   2.174   4.607   2.711
 3008WAT     H2 9236   2.136   4.634   2.567
 3009WAT      O 9237   1.619   0.282   2.439
 3009WAT     H1 9238   1.684   0.338   2.481
 3009WAT     H2 9239   1.551   0.270   2.505
 3010WAT      O 9240   3.862   0.282   3.588
 3010WAT     H1 9241   3.937   0.279   3.529
 3010WAT     H2 9242   3.883   0.219   3.656
 3011WAT      O 9243   3.582   0.236   4.209
 3011WAT     H1 9244   3.512   0.265   4.150
 3011WAT     H2 9245   3.662   0.250   4.159
 3012WAT      O 9246   1.518   1.216   4.658
 3012WAT     H1 9247   1.447   1.153   4.667
 3012WAT     H2 9248   1.542   1.213   4.566
 3013WAT      O 9249   2.670   0.116   1.588
 3013WAT     H1 9250   2.614   0.053   1.634
 3013WAT     H2 9251   2.757   0.100   1.623
 3014WAT      O 9252   3.948   3.307   3.188
 3014WAT     H1 9253   3.869   3.274   3.147
 3014WAT     H2 9254   3.967   3.389   3.142
 3015WAT      O 9255   1.812   3.846   4.261
 3015WAT     H1 9256   1.847   3.919   4.210
 3015WAT     H2 9257   1.728   3.878   4.293
 3016WAT      O 9258   2.407   2.293   1.603
 3016WAT     H1 9259   2.333   2.294   1.541
 3016WAT     H2 9260   2.474   2.345   1.559
 3017WAT      O 9261   1.450   0.244   2.654
 3017WAT     H1 9262   1.492   0.239   2.740
 3017WAT     H2 9263   1.416   0.334   2.650
 3018WAT      O 9264   2.172   3.091   2.132
 3018WAT     H1 9265   2.243   3.034   2.101
 3018WAT     H2 9266   2.198   3.114   2.221
 3019WAT      O 9267   0.665   1.326   3.747
 3019WAT     H1 9268   0.679   1.419   3.742
 3019WAT     H2 9269   0.571   1.313   3.731
 3020WAT      O 9270   2.311   3.105   2.377
 3020WAT     H1 9271   2.299   3.137   2.466
 3020WAT     H2 9272   2.395   3.061   2.379
 3021WAT      O 9273   2.537   1.396   4.366
 3021WAT     H1 9274   2.478   1.356   4.431
 3021WAT     H2 9275   2.619   1.409   4.414
 3022WAT      O 9276   0.097   4.868   1.853
 3022WAT     H1 9277   0.087   4.964   1.855
 3022WAT     H2 9278   0.068   4.843   1.765
 3023WAT      O 9279   3.934   4.145   1.249
 3023WAT     H1 9280   3.919   4.062   1.204
 3023WAT     H2 9281   4.017   4.177   1.213
 3024WAT      O 9282   1.163   0.002   2.770
 3024WAT     H1 9283   1.082  -0.015   2.817
 3024WAT     H2 9284   1.228   0.016   2.838
 3025WAT      O 9285   2.265   1.813   3.537
 3025WAT     H1 9286   2.245   1.892   3.586
 3025WAT     H2 9287   2.360   1.817   3.522
 3026WAT      O 9288   0.175   3.190   4.864
 3026WAT     H1 9289   0.206   3.196   4.774
 3026WAT     H2 9290   0.083   3.216   4.859
 3027WAT      O 9291   2.434   1.610   2.109
 3027WAT     H1 9292   2.392   1.695   2.127
 3027WAT     H2 9293   2.498   1.629   2.041
 3028WAT      O 9294   1.851   0.522   3.318
 3028WAT     H1 9295   1.944   0.505   3.306
 3028WAT     H2 9296   1.820   0.548   3.230
 3029WAT      O 9297   4.213   1.739   5.136
 3029WAT     H1 9298   4.287   1.784   5.095
 3029WAT     H2 9299   4.167   1.698   5.064
 3030WAT      O 9300   4.006   2.826   1.259
 3030WAT     H1 9301   4.086   2.878   1.267
 3030WAT     H2 9302   3.987   2.798   1.348
 3031WAT      O 9303   3.364   4.170   1.879
 3031WAT     H1 9304   3.352   4.091   1.827
 3031WAT     H2 9305   3.275   4.198   1.902
 3032WAT      O 9306   0.605   4.044   2.411
 3032WAT     H1 9307   0.566   4.128   2.386
 3032WAT     H2 9308   0.554   3.979   2.363
 3033WAT      O 9309   2.241   1.632   0.762
 3033WAT     H1 9310   2.174   1.682   0.717
 3033WAT     H2 9311   2.287   1.586   0.692
 3034WAT      O 9312   1.108   0.441   4.825
 3034WAT     H1 9313   1.154   0.452   4.742
 3034WAT     H2 9314   1.092   0.530   4.856
 3035WAT      O 9315   1.879   0.232   4.392
 3035WAT     H1 9316   1.889   0.327   4.382
 3035WAT     H2 9317   1.967   0.201   4.411
 3036WAT      O 9318   3.645   2.067   5.207
 3036WAT     H1 9319   3.699   2.133   5.252
 3036WAT     H2 9320   3.555   2.097   5.218
 3037WAT      O 9321   3.096   1.037   1.179
 3037WAT     H1 9322   3.060   0.950   1.157
 3037WAT     H2 9323   3.050   1.096   1.121
 3038WAT      O 9324   0.116   4.986   4.736
 3038WAT     H1 9325   0.030   4.947   4.730
 3038WAT     H2 9326   0.147   4.965   4.824
 3039WAT      O 9327   1.574   4.744   4.057
 3039WAT     H1 9328   1.507   4.807   4.080
 3039WAT     H2 9329   1.531   4.685   3.995
 3040WAT      O 9330   4.418   1.304   3.568
 3040WAT     H1 9331   4.487   1.248   3.604
 3040WAT     H2 9332   4.383   1.254   3.494
 3041WAT      O 9333   3.809   3.938   0.820
 3041WAT     H1 9334   3.785   4.024   0.856
 3041WAT     H2 9335   3.904   3.937   0.820
 3042WAT      O 9336   0.989   5.012   3.418
 3042WAT     H1 9337   0.944   4.963   3.487
 3042WAT     H2 9338   1.073   4.967   3.409
 3043WAT      O 9339   1.195   4.842   5.136
 3043WAT     H1 9340   1.135   4.911   5.107
 3043WAT     H2 9341   1.237   4.812   5.055
 3044WAT      O 9342   0.610   1.193   0.642
 3044WAT     H1 9343   0.697   1.234   0.645
 3044WAT     H2 9344   0.609   1.146   0.559
 3045WAT      O 9345   0.994   5.138   1.521
 3045WAT     H1 9346   1.032   5.061   1.563
 3045WAT     H2 9347   0.992   5.205   1.589
 3046WAT      O 9348   0.266   1.475   2.146
 3046WAT     H1 9349   0.269   1.486   2.241
 3046WAT     H2 9350   0.285   1.383   2.132
 3047WAT      O 9351   1.603   3.990   4.336
 3047WAT     H1 9352   1.567   3.938   4.409
 3047WAT     H2 9353   1.559   4.074   4.343
 3048WAT      O 9354   0.050   1.032   4.805
 3048WAT     H1 9355   0.031   1.109   4.752
 3048WAT     H2 9356  -0.023   1.027   4.867
 3049WAT      O 9357   1.871   3.712   3.069
 3049WAT     H1 9358   1.884   3.758   2.986
 3049WAT     H2 9359   1.796   3.655   3.053
 3050WAT      O 9360   3.404   2.708   3.530
 3050WAT     H1 9361   3.377   2.663   3.450
 3050WAT     H2 9362   3.358   2.792   3.528
 3051WAT      O 9363   2.649   2.687   4.756
 3051WAT     H1 9364   2.710   2.637   4.703
 3051WAT     H2 9365   2.611   2.623   4.816
 3052WAT      O 9366   4.481   1.498   4.586
 3052WAT     H1 9367   4.416   1.521   4.520
 3052WAT     H2 9368   4.544   1.568   4.585
 3053WAT      O 9369   2.695   0.627   1.393
 3053WAT     H1 9370   2.642   0.668   1.325
 3053WAT     H2 9371   2.633   0.575   1.444
 3054WAT      O 9372   3.086   1.827   1.963
 3054WAT     H1 9373   3.154   1.788   1.909
 3054WAT     H2 9374   3.134   1.883   2.025
 3055WAT      O 9375   4.317   2.563   3.076
 3055WAT     H1 9376   4.272   2.492   3.123
 3055WAT     H2 9377   4.405   2.528   3.060
 3056WAT      O 9378   1.717   4.643   2.114
 3056WAT     H1 9379   1.668   4.614   2.191
 3056WAT     H2 9380   1.757   4.726   2.142
 3057WAT      O 9381   2.301   2.190   1.822
 3057WAT     H1 9382   2.337   2.229   1.743
 3057WAT     H2 9383   2.357   2.115   1.838
 3058WAT      O 9384   4.131   2.519   2.155
 3058WAT     H1 9385   4.143   2.524   2.250
 3058WAT     H2 9386   4.069   2.447   2.142
 3059WAT      O 9387   2.641   2.983   5.219
 3059WAT     H1 9388   2.678   3.067   5.192
 3059WAT     H2 9389   2.657   2.925   5.145
 3060WAT      O 9390   1.649   2.897   3.640
 3060WAT     H1 9391   1.638   2.845   3.719
 3060WAT     H2 9392   1.643   2.986   3.670
 3061WAT      O 9393   2.310   1.350   3.752
 3061WAT     H1 9394   2.289   1.346   3.846
 3061WAT     H2 9395   2.358   1.432   3.744
 3062WAT      O 9396   0.548   0.718   0.955
 3062WAT     H1 9397   0.642   0.733   0.955
 3062WAT     H2 9398   0.540   0.621   0.956
 3063WAT      O 9399   0.679   3.243   4.123
 3063WAT     H1 9400   0.705   3.173   4.182
 3063WAT     H2 9401   0.585   3.231   4.110
 3064WAT      O 9402   4.165   1.909   4.110
 3064WAT     H1 9403   4.105   1.895   4.183
 3064WAT     H2 9404   4.212   1.990   4.134
 3065WAT      O 9405   4.056   1.400   3.725
 3065WAT     H1 9406   4.035   1.324   3.779
 3065WAT     H2 9407   4.007   1.386   3.643
 3066WAT      O 9408   3.013   2.663   3.426
 3066WAT     H1 9409   3.018   2.571   3.399
 3066WAT     H2 9410   2.993   2.710   3.346
 3067WAT      O 9411   1.975   3.558   0.631
 3067WAT     H1 9412   2.034   3.577   0.703
 3067WAT     H2 9413   1.988   3.465   0.612
 3068WAT      O 9414   3.026   0.103   2.264
 3068WAT     H1 9415   3.081   0.180   2.277
 3068WAT     H2 9416   2.952   0.117   2.323
 3069WAT      O 9417   1.570   3.451   4.833
 3069WAT     H1 9418   1.618   3.524   4.872
 3069WAT     H2 9419   1.637   3.398   4.791
 3070WAT      O 9420   0.934   0.632   2.772
 3070WAT     H1 9421   0.907   0.722   2.757
 3070WAT     H2 9422   0.993   0.612   2.699
 3071WAT      O 9423   1.663   1.192   3.301
 3071WAT     H1 9424   1.714   1.111   3.313
 3071WAT     H2 9425   1.597   1.188   3.371
 3072WAT      O 9426   2.028   5.004   2.641
 3072WAT     H1 9427   2.121   4.980   2.648
 3072WAT     H2 9428   2.015   5.069   2.710
 3073WAT      O 9429   1.202   0.515   5.080
 3073WAT     H1 9430   1.243   0.465   5.151
 3073WAT     H2 9431   1.176   0.447   5.017
 3074WAT      O 9432   4.473   3.685   4.492
 3074WAT     H1 9433   4.566   3.681   4.468
 3074WAT     H2 9434   4.426   3.665   4.412
 3075WAT      O 9435   1.611   0.196   1.848
 3075WAT     H1 9436   1.645   0.234   1.928
 3075WAT     H2 9437   1.555   0.123   1.877
 3076WAT      O 9438   0.189   3.806   0.221
 3076WAT     H1 9439   0.172   3.810   0.315
 3076WAT     H2 9440   0.211   3.715   0.204
 3077WAT      O 9441   1.676   3.526   2.758
 3077WAT     H1 9442   1.749   3.486   2.711
 3077WAT     H2 9443   1.601   3.471   2.736
 3078WAT      O 9444   1.009   2.224   4.104
 3078WAT     H1 9445   0.952   2.300   4.090
 3078WAT     H2 9446   0.960   2.169   4.165
 3079WAT      O 9447   1.596   5.034   2.570
 3079WAT     H1 9448   1.505   5.042   2.598
 3079WAT     H2 9449   1.597   4.958   2.512
 3080WAT      O 9450   0.797   0.474   0.543
 3080WAT     H1 9451   0.778   0.385   0.572
 3080WAT     H2 9452   0.723   0.526   0.574
 3081WAT      O 9453   3.583   4.297   3.734
 3081WAT     H1 9454   3.676   4.317   3.728
 3081WAT     H2 9455   3.539   4.378   3.705
 3082WAT      O 9456   4.161   3.910   2.232
 3082WAT     H1 9457   4.238   3.887   2.283
 3082WAT     H2 9458   4.087   3.887   2.288
 3083WAT      O 9459   3.032   2.393   0.318
 3083WAT     H1 9460   2.972   2.432   0.253
 3083WAT     H2 9461   2.976   2.377   0.394
 3084WAT      O 9462   3.069   1.093   4.050
 3084WAT     H1 9463   2.984   1.063   4.018
 3084WAT     H2 9464   3.127   1.017   4.032
 3085WAT      O 9465   4.481   2.664   5.057
 3085WAT     H1 9466   4.526   2.582   5.073
 3085WAT     H2 9467   4.534   2.729   5.103
 3086WAT      O 9468   1.898   2.722   1.605
 3086WAT     H1 9469   1.837   2.706   1.533
 3086WAT     H2 9470   1.938   2.637   1.622
 3087WAT      O 9471   4.041   1.624   3.891
 3087WAT     H1 9472   4.079   1.578   3.966
 3087WAT     H2 9473   4.029   1.557   3.824
 3088WAT      O 9474   1.495   2.564   3.722
 3088WAT     H1 9475   1.507   2.498   3.655
 3088WAT     H2 9476   1.403   2.591   3.713
 3089WAT      O 9477   2.207   2.909   0.838
 3089WAT     H1 9478   2.149   2.978   0.869
 3089WAT     H2 9479   2.270   2.953   0.781
 3090WAT      O 9480   0.145   5.071   3.944
 3090WAT     H1 9481   0.140   5.006   4.014
 3090WAT     H2 9482   0.129   5.021   3.864
 3091WAT      O 9483   3.244   5.136   4.300
 3091WAT     H1 9484   3.239   5.076   4.225
 3091WAT     H2 9485   3.236   5.079   4.376
 3092WAT      O 9486   0.587   4.446   3.319
 3092WAT     H1 9487   0.667   4.394   3.321
 3092WAT     H2 9488   0.517   4.383   3.340
 3093WAT      O 9489   1.181   0.182   4.465
 3093WAT     H1 9490   1.239   0.146   4.397
 3093WAT     H2 9491   1.225   0.262   4.494
 3094WAT      O 9492   3.776   3.494   5.078
 3094WAT     H1 9493   3.799   3.418   5.131
 3094WAT     H2 9494   3.845   3.499   5.012
 3095WAT      O 9495   2.146   2.668   1.444
 3095WAT     H1 9496   2.237   2.683   1.419
 3095WAT     H2 9497   2.133   2.722   1.521
 3096WAT      O 9498   4.095   3.937   0.830
 3096WAT     H1 9499   4.125   3.850   0.801
 3096WAT     H2 9500   4.146   3.998   0.777
 3097WAT      O 9501   2.875   1.647   4.600
 3097WAT     H1 9502   2.820   1.626   4.526
 3097WAT     H2 9503   2.825   1.619   4.677
 3098WAT      O 9504   2.676   0.212   4.783
 3098WAT     H1 9505   2.755   0.176   4.823
 3098WAT     H2 9506   2.678   0.180   4.693
 3099WAT      O 9507   2.935   0.998   4.514
 3099WAT     H1 9508   3.011   0.942   4.503
 3099WAT     H2 9509   2.916   0.996   4.607
 3100WAT      O 9510   1.303   4.726   2.028
 3100WAT     H1 9511   1.308   4.763   2.116
 3100WAT     H2 9512   1.352   4.787   1.973
 3101WAT      O 9513   3.332   3.841   3.108
 3101WAT     H1 9514   3.381   3.911   3.150
 3101WAT     H2 9515   3.256   3.827   3.164
 3102WAT      O 9516   4.321   3.141   2.919
 3102WAT     H1 9517   4.309   3.090   2.839
 3102WAT     H2 9518   4.396   3.197   2.901
 3103WAT      O 9519   3.038   3.993   4.175
 3103WAT     H1 9520   3.052   3.913   4.126
 3103WAT     H2 9521   3.076   3.976   4.261
 3104WAT      O 9522   1.941   0.238   2.533
 3104WAT     H1 9523   1.961   0.162   2.480
 3104WAT     H2 9524   1.930   0.309   2.470
 3105WAT      O 9525   1.063   3.421   4.364
 3105WAT     H1 9526   1.114   3.488   4.317
 3105WAT     H2 9527   1.129   3.373   4.414
 3106WAT      O 9528   1.510   3.380   5.104
 3106WAT     H1 9529   1.442   3.419   5.159
 3106WAT     H2 9530   1.502   3.424   5.020
 3107WAT      O 9531   2.832   4.965   5.195
 3107WAT     H1 9532   2.750   4.975   5.145
 3107WAT     H2 9533   2.817   4.889   5.251
 3108WAT      O 9534   0.086   2.613   3.606
 3108WAT     H1 9535   0.156   2.551   3.587
 3108WAT     H2 9536   0.035   2.617   3.525
 3109WAT      O 9537   2.290   1.860   2.200
 3109WAT     H1 9538   2.368   1.915   2.195
 3109WAT     H2 9539   2.297   1.817   2.285
 3110WAT      O 9540   0.147   2.824   0.577
 3110WAT     H1 9541   0.216   2.756   0.579
 3110WAT     H2 9542   0.077   2.785   0.525
 3111WAT      O 9543   3.036   4.539   3.726
 3111WAT     H1 9544   3.072   4.616   3.771
 3111WAT     H2 9545   3.112   4.484   3.708
 3112WAT      O 9546   2.176   3.122   4.175
 3112WAT     H1 9547   2.171   3.028   4.154
 3112WAT     H2 9548   2.123   3.130   4.254
 3113WAT      O 9549   3.166   4.827   2.341
 3113WAT     H1 9550   3.107   4.769   2.293
 3113WAT     H2 9551   3.165   4.909   2.291
 3114WAT      O 9552   4.418   2.077   0.639
 3114WAT     H1 9553   4.355   2.149   0.628
 3114WAT     H2 9554   4.423   2.037   0.552
 3115WAT      O 9555   2.301   0.156   3.880
 3115WAT     H1 9556   2.226   0.112   3.840
 3115WAT     H2 9557   2.278   0.160   3.973
 3116WAT      O 9558   3.566   0.367   0.109
 3116WAT     H1 9559   3.480   0.326   0.114
 3116WAT     H2 9560   3.586   0.391   0.200
 3117WAT      O 9561   4.029   3.087   2.629
 3117WAT     H1 9562   4.103   3.029   2.647
 3117WAT     H2 9563   3.962   3.060   2.693
 3118WAT      O 9564   1.841   2.079   3.701
 3118WAT     H1 9565   1.862   2.086   3.608
 3118WAT     H2 9566   1.822   1.985   3.714
 3119WAT      O 9567   0.240   1.452   3.067
 3119WAT     H1 9568   0.326   1.494   3.074
 3119WAT     H2 9569   0.205   1.453   3.156
 3120WAT      O 9570   0.776   1.415   3.311
 3120WAT     H1 9571   0.845   1.389   3.372
 3120WAT     H2 9572   0.797   1.504   3.286
 3121WAT      O 9573   2.154   4.232   0.063
 3121WAT     H1 9574   2.246   4.209   0.051
 3121WAT     H2 9575   2.150   4.271   0.151
 3122WAT      O 9576   1.694   4.283   2.353
 3122WAT     H1 9577   1.672   4.363   2.305
 3122WAT     H2 9578   1.775   4.305   2.399
 3123WAT      O 9579   4.295   0.748   4.320
 3123WAT     H1 9580   4.224   0.779   4.264
 3123WAT     H2 9581   4.259   0.752   4.409
 3124WAT      O 9582   2.559   0.639   3.804
 3124WAT     H1 9583   2.566   0.547   3.827
 3124WAT     H2 9584   2.623   0.683   3.860
 3125WAT      O 9585   0.867   3.743   3.665
 3125WAT     H1 9586   0.946   3.741   3.610
 3125WAT     H2 9587   0.813   3.812   3.626
 3126WAT      O 9588   0.732   2.812   2.778
 3126WAT     H1 9589   0.693   2.887   2.821
 3126WAT     H2 9590   0.775   2.848   2.700
 3127WAT      O 9591   0.118   3.096   2.178
 3127WAT     H1 9592   0.047   3.133   2.127
 3127WAT     H2 9593   0.077   3.065   2.259
 3128WAT      O 9594   4.432   3.635   5.062
 3128WAT     H1 9595   4.402   3.669   5.146
 3128WAT     H2 9596   4.440   3.541   5.076
 3129WAT      O 9597   1.365   4.069   2.652
 3129WAT     H1 9598   1.390   4.103   2.739
 3129WAT     H2 9599   1.314   4.140   2.613
 3130WAT      O 9600   0.194   2.000   3.211
 3130WAT     H1 9601   0.190   1.906   3.234
 3130WAT     H2 9602   0.261   2.037   3.268
 3131WAT      O 9603   4.347   2.556   1.314
 3131WAT     H1 9604   4.293   2.516   1.382
 3131WAT     H2 9605   4.298   2.542   1.233
 3132WAT      O 9606   0.225   3.649   1.941
 3132WAT     H1 9607   0.243   3.571   1.993
 3132WAT     H2 9608   0.279   3.717   1.981
 3133WAT      O 9609   1.978   4.602   4.857
 3133WAT     H1 9610   1.891   4.642   4.855
 3133WAT     H2 9611   2.034   4.669   4.897
 3134WAT      O 9612   3.296   2.370   2.047
 3134WAT     H1 9613   3.323   2.288   2.006
 3134WAT     H2 9614   3.304   2.436   1.978
 3135WAT      O 9615   3.139   0.279   1.282
 3135WAT     H1 9616   3.047   0.296   1.302
 3135WAT     H2 9617   3.149   0.304   1.191
 3136WAT      O 9618   4.215   1.186   0.525
 3136WAT     H1 9619   4.190   1.113   0.581
 3136WAT     H2 9620   4.252   1.146   0.447
 3137WAT      O 9621   1.258   0.034   0.199
 3137WAT     H1 9622   1.202   0.034   0.121
 3137WAT     H2 9623   1.305  -0.049   0.194
 3138WAT      O 9624   2.806   0.723   4.442
 3138WAT     H1 9625   2.873   0.704   4.508
 3138WAT     H2 9626   2.843   0.796   4.392
 3139WAT      O 9627   4.380   2.252   1.827
 3139WAT     H1 9628   4.333   2.289   1.901
 3139WAT     H2 9629   4.346   2.299   1.751
 3140WAT      O 9630   1.193   4.523   3.544
 3140WAT     H1 9631   1.164   4.484   3.462
 3140WAT     H2 9632   1.242   4.453   3.588
 3141WAT      O 9633   1.225   1.065   0.985
 3141WAT     H1 9634   1.264   1.152   0.976
 3141WAT     H2 9635   1.157   1.077   1.051
 3142WAT      O 9636   2.041   4.955   5.258
 3142WAT     H1 9637   2.012   4.865   5.272
 3142WAT     H2 9638   2.075   4.983   5.343
 3143WAT      O 9639   1.534   3.422   1.512
 3143WAT     H1 9640   1.446   3.390   1.491
 3143WAT     H2 9641   1.544   3.402   1.605
 3144WAT      O 9642   1.923   1.153   1.472
 3144WAT     H1 9643   1.897   1.166   1.563
 3144WAT     H2 9644   2.005   1.202   1.463
 3145WAT      O 9645   1.914   1.083   3.487
 3145WAT     H1 9646   1.943   1.137   3.414
 3145WAT     H2 9647   1.935   1.133   3.565
 3146WAT      O 9648   1.314   3.189   4.084
 3146WAT     H1 9649   1.219   3.187   4.095
 3146WAT     H2 9650   1.334   3.107   4.039
 3147WAT      O 9651   2.894   4.207   4.494
 3147WAT     H1 9652   2.862   4.151   4.423
 3147WAT     H2 9653   2.846   4.289   4.484
 3148WAT      O 9654   1.370   0.422   3.931
 3148WAT     H1 9655   1.413   0.497   3.972
 3148WAT     H2 9656   1.435   0.386   3.872
 3149WAT      O 9657   4.097   1.693   1.519
 3149WAT     H1 9658   4.140   1.688   1.604
 3149WAT     H2 9659   4.017   1.642   1.528
 3150WAT      O 9660   2.949   4.177   0.064
 3150WAT     H1 9661   3.038   4.149   0.085
 3150WAT     H2 9662   2.923   4.120  -0.008
 3151WAT      O 9663   4.244   2.809   2.072
 3151WAT     H1 9664   4.272   2.721   2.051
 3151WAT     H2 9665   4.226   2.850   1.986
 3152WAT      O 9666   3.922   3.110   4.903
 3152WAT     H1 9667   3.845   3.129   4.957
 3152WAT     H2 9668   3.978   3.057   4.960
 3153WAT      O 9669   3.852   3.599   3.082
 3153WAT     H1 9670   3.776   3.602   3.141
 3153WAT     H2 9671   3.814   3.611   2.995
 3154WAT      O 9672   1.455   4.888   0.839
 3154WAT     H1 9673   1.451   4.962   0.778
 3154WAT     H2 9674   1.366   4.881   0.873
 3155WAT      O 9675   0.741   3.520   4.120
 3155WAT     H1 9676   0.730   3.426   4.133
 3155WAT     H2 9677   0.758   3.555   4.207
 3156WAT      O 9678   0.986   0.734   4.669
 3156WAT     H1 9679   0.951   0.802   4.728
 3156WAT     H2 9680   1.081   0.744   4.676
 3157WAT      O 9681   2.677   0.435   3.069
 3157WAT     H1 9682   2.648   0.370   3.133
 3157WAT     H2 9683   2.607   0.437   3.004
 3158WAT      O 9684   1.741   0.035   0.580
 3158WAT     H1 9685   1.686   0.112   0.565
 3158WAT     H2 9686   1.718   0.007   0.669
 3159WAT      O 9687   2.214   0.564   0.941
 3159WAT     H1 9688   2.200   0.639   0.883
 3159WAT     H2 9689   2.246   0.603   1.023
 3160WAT      O 9690   0.216   3.607   5.110
 3160WAT     H1 9691   0.152   3.535   5.109
 3160WAT     H2 9692   0.172   3.679   5.064
 3161WAT      O 9693   0.313   4.997   2.826
 3161WAT     H1 9694   0.336   4.935   2.757
 3161WAT     H2 9695   0.235   4.960   2.867
 3162WAT      O 9696   1.393   3.667   1.256
 3162WAT     H1 9697   1.431   3.635   1.175
 3162WAT     H2 9698   1.307   3.625   1.260
 3163WAT      O 9699   2.148   4.931   4.406
 3163WAT     H1 9700   2.198   4.850   4.412
 3163WAT     H2 9701   2.117   4.934   4.316
 3164WAT      O 9702   0.136   1.968   4.895
 3164WAT     H1 9703   0.085   1.902   4.941
 3164WAT     H2 9704   0.080   1.997   4.823
 3165WAT      O 9705   2.610   3.935   2.605
 3165WAT     H1 9706   2.610   3.896   2.517
 3165WAT     H2 9707   2.613   3.859   2.664
 3166WAT      O 9708   3.636   4.552   0.897
 3166WAT     H1 9709   3.607   4.643   0.908
 3166WAT     H2 9710   3.643   4.518   0.986
 3167WAT      O 9711   1.045   2.370   3.544
 3167WAT     H1 9712   1.031   2.352   3.637
 3167WAT     H2 9713   1.004   2.456   3.530
 3168WAT      O 9714   1.660   1.170   2.134
 3168WAT     H1 9715   1.602   1.152   2.208
 3168WAT     H2 9716   1.628   1.252   2.098
 3169WAT      O 9717   1.457   3.071   3.427
 3169WAT     H1 9718   1.470   3.117   3.510
 3169WAT     H2 9719   1.378   3.019   3.441
 3170WAT      O 9720   0.891   1.682   0.718
 3170WAT     H1 9721   0.868   1.609   0.661
 3170WAT     H2 9722   0.986   1.691   0.711
 3171WAT      O 9723   3.436   4.804   2.289
 3171WAT     H1 9724   3.477   4.732   2.336
 3171WAT     H2 9725   3.345   4.776   2.277
 3172WAT      O 9726   0.334   4.013   2.684
 3172WAT     H1 9727   0.326   4.059   2.601
 3172WAT     H2 9728   0.416   4.044   2.721
 3173WAT      O 9729   3.278   1.729   2.771
 3173WAT     H1 9730   3.232   1.646   2.782
 3173WAT     H2 9731   3.363   1.716   2.812
 3174WAT      O 9732   3.067   1.928   2.820
 3174WAT     H1 9733   3.020   1.879   2.753
 3174WAT     H2 9734   3.153   1.886   2.825
 3175WAT      O 9735   2.749   3.250   0.589
 3175WAT     H1 9736   2.672   3.201   0.557
 3175WAT     H2 9737   2.712   3.316   0.647
 3176WAT      O 9738   0.747   2.475   2.680
 3176WAT     H1 9739   0.674   2.519   2.722
 3176WAT     H2 9740   0.800   2.442   2.752
 3177WAT      O 9741   1.394   2.399   3.542
 3177WAT     H1 9742   1.308   2.425   3.574
 3177WAT     H2 9743   1.391   2.302   3.540
 3178WAT      O 9744   3.263   0.293   3.423
 3178WAT     H1 9745   3.306   0.220   3.469
 3178WAT     H2 9746   3.327   0.365   3.428
 3179WAT      O 9747   0.177   1.790   2.379
 3179WAT     H1 9748   0.104   1.843   2.413
 3179WAT     H2 9749   0.137   1.709   2.348
 3180WAT      O 9750   1.443   1.790   3.970
 3180WAT     H1 9751   1.438   1.831   3.884
 3180WAT     H2 9752   1.366   1.734   3.974
 3181WAT      O 9753   2.968   4.049   2.662
 3181WAT     H1 9754   3.052   4.073   2.702
 3181WAT     H2 9755   2.902   4.086   2.721
 3182WAT      O 9756   2.007   1.761   3.531
 3182WAT     H1 9757   2.006   1.803   3.444
 3182WAT     H2 9758   2.090   1.788   3.570
 3183WAT      O 9759   1.928   4.141   0.416
 3183WAT     H1 9760   1.886   4.081   0.478
 3183WAT     H2 9761   1.891   4.227   0.438
 3184WAT      O 9762   3.971   3.553   1.677
 3184WAT     H1 9763   3.882   3.590   1.678
 3184WAT     H2 9764   3.957   3.459   1.685
 3185WAT      O 9765   3.104   1.409   0.704
 3185WAT     H1 9766   3.057   1.387   0.784
 3185WAT     H2 9767   3.117   1.323   0.661
 3186WAT      O 9768   4.087   0.548   4.140
 3186WAT     H1 9769   4.008   0.556   4.193
 3186WAT     H2 9770   4.154   0.518   4.202
 3187WAT      O 9771   2.325   2.848   5.152
 3187WAT     H1 9772   2.365   2.788   5.089
 3187WAT     H2 9773   2.240   2.870   5.113
 3188WAT      O 9774   3.874   0.958   2.850
 3188WAT     H1 9775   3.860   0.863   2.860
 3188WAT     H2 9776   3.932   0.965   2.775
 3189WAT      O 9777   0.481   4.256   5.138
 3189WAT     H1 9778   0.526   4.287   5.059
 3189WAT     H2 9779   0.407   4.206   5.105
 3190WAT      O 9780   2.128   4.982   4.121
 3190WAT     H1 9781   2.174   4.968   4.038
 3190WAT     H2 9782   2.042   4.942   4.108
 3191WAT      O 9783   2.705   3.071   3.750
 3191WAT     H1 9784   2.683   3.157   3.786
 3191WAT     H2 9785   2.800   3.071   3.747
 3192WAT      O 9786   3.924   0.515   2.350
 3192WAT     H1 9787   3.905   0.495   2.442
 3192WAT     H2 9788   3.960   0.604   2.352
 3193WAT      O 9789   2.017   4.787   1.012
 3193WAT     H1 9790   2.005   4.809   0.920
 3193WAT     H2 9791   1.965   4.708   1.025
 3194WAT      O 9792   2.943   4.666   4.402
 3194WAT     H1 9793   2.902   4.585   4.430
 3194WAT     H2 9794   3.033   4.641   4.378
 3195WAT      O 9795   3.913   4.892   5.222
 3195WAT     H1 9796   3.985   4.926   5.168
 3195WAT     H2 9797   3.947   4.809   5.256
 3196WAT      O 9798   4.134   2.191   3.450
 3196WAT     H1 9799   4.128   2.210   3.544
 3196WAT     H2 9800   4.195   2.117   3.444
 3197WAT      O 9801   1.655   2.258   1.216
 3197WAT     H1 9802   1.725   2.236   1.154
 3197WAT     H2 9803   1.680   2.341   1.253
 3198WAT      O 9804   1.655   3.775   0.719
 3198WAT     H1 9805   1.598   3.808   0.788
 3198WAT     H2 9806   1.744   3.786   0.754
 3199WAT      O 9807   0.008   1.249   1.369
 3199WAT     H1 9808  -0.020   1.326   1.420
 3199WAT     H2 9809  -0.040   1.255   1.287
 3200WAT      O 9810   2.077   0.376   3.524
 3200WAT     H1 9811   2.145   0.325   3.568
 3200WAT     H2 9812   2.098   0.369   3.431
 3201WAT      O 9813   2.093   3.939   1.493
 3201WAT     H1 9814   2.132   3.972   1.413
 3201WAT     H2 9815   2.085   3.845   1.479
 3202WAT      O 9816   0.019   2.210   4.607
 3202WAT     H1 9817   0.071   2.186   4.531
 3202WAT     H2 9818  -0.072   2.203   4.577
 3203WAT      O 9819   1.337   2.983   1.831
 3203WAT     H1 9820   1.244   2.972   1.852
 3203WAT     H2 9821   1.352   3.077   1.833
 3204WAT      O 9822   3.683   1.626   2.810
 3204WAT     H1 9823   3.620   1.655   2.875
 3204WAT     H2 9824   3.664   1.678   2.732
 3205WAT      O 9825   3.575   0.386   0.399
 3205WAT     H1 9826   3.561   0.468   0.447
 3205WAT     H2 9827   3.670   0.374   0.399
 3206WAT      O 9828   1.327   4.245   0.991
 3206WAT     H1 9829   1.244   4.250   1.038
 3206WAT     H2 9830   1.302   4.227   0.901
 3207WAT      O 9831   1.769   2.771   0.130
 3207WAT     H1 9832   1.759   2.864   0.112
 3207WAT     H2 9833   1.834   2.741   0.066
 3208WAT      O 9834   4.349   0.466   2.657
 3208WAT     H1 9835   4.311   0.380   2.639
 3208WAT     H2 9836   4.275   0.519   2.686
 3209WAT      O 9837   3.079   1.933   4.413
 3209WAT     H1 9838   3.148   1.968   4.470
 3209WAT     H2 9839   3.082   1.988   4.335
 3210WAT      O 9840   1.554   0.741   1.140
 3210WAT     H1 9841   1.569   0.700   1.055
 3210WAT     H2 9842   1.606   0.687   1.201
 3211WAT      O 9843   1.681   5.069   4.299
 3211WAT     H1 9844   1.724   5.010   4.361
 3211WAT     H2 9845   1.746   5.137   4.280
 3212WAT      O 9846   3.765   0.002   0.614
 3212WAT     H1 9847   3.763   0.030   0.523
 3212WAT     H2 9848   3.676  -0.029   0.632
 3213WAT      O 9849   0.517   0.220   1.077
 3213WAT     H1 9850   0.543   0.137   1.118
 3213WAT     H2 9851   0.452   0.258   1.136
 3214WAT      O 9852   1.599   3.843   5.084
 3214WAT     H1 9853   1.667   3.911   5.091
 3214WAT     H2 9854   1.549   3.851   5.165
 3215WAT      O 9855   0.860   1.239   5.123
 3215WAT     H1 9856   0.943   1.195   5.103
 3215WAT     H2 9857   0.794   1.170   5.117
 3216WAT      O 9858   4.227   4.561   0.599
 3216WAT     H1 9859   4.168   4.486   0.593
 3216WAT     H2 9860   4.173   4.636   0.574
 3217WAT      O 9861   1.410   3.305   2.622
 3217WAT     H1 9862   1.330   3.351   2.648
 3217WAT     H2 9863   1.431   3.341   2.536
 3218WAT      O 9864   1.372   2.884   3.700
 3218WAT     H1 9865   1.302   2.840   3.652
 3218WAT     H2 9866   1.445   2.886   3.639
 3219WAT      O 9867   3.755   3.831   1.964
 3219WAT     H1 9868   3.732   3.913   1.921
 3219WAT     H2 9869   3.711   3.834   2.049
 3220WAT      O 9870   3.940   5.088   4.083
 3220WAT     H1 9871   3.971   5.042   4.161
 3220WAT     H2 9872   3.846   5.099   4.098
 3221WAT      O 9873   1.322   0.093   2.979
 3221WAT     H1 9874   1.302   0.142   3.060
 3221WAT     H2 9875   1.412   0.118   2.959
 3222WAT      O 9876   1.559   5.084   3.832
 3222WAT     H1 9877   1.644   5.116   3.802
 3222WAT     H2 9878   1.524   5.155   3.887
 3223WAT      O 9879   3.692   0.883   2.152
 3223WAT     H1 9880   3.737   0.848   2.228
 3223WAT     H2 9881   3.599   0.886   2.177
 3224WAT      O 9882   0.812   1.081   1.717
 3224WAT     H1 9883   0.780   1.157   1.668
 3224WAT     H2 9884   0.795   1.007   1.658
 3225WAT      O 9885   1.870   0.925   0.792
 3225WAT     H1 9886   1.962   0.949   0.784
 3225WAT     H2 9887   1.872   0.830   0.805
 3226WAT      O 9888   2.338   3.452   4.362
 3226WAT     H1 9889   2.408   3.387   4.364
 3226WAT     H2 9890   2.356   3.503   4.283
 3227WAT      O 9891   2.551   0.719   1.718
 3227WAT     H1 9892   2.600   0.801   1.709
 3227WAT     H2 9893   2.616   0.655   1.747
 3228WAT      O 9894   3.818   4.182   1.511
 3228WAT     H1 9895   3.867   4.222   1.583
 3228WAT     H2 9896   3.884   4.169   1.442
 3229WAT      O 9897   1.125   4.577   4.761
 3229WAT     H1 9898   1.150   4.651   4.817
 3229WAT     H2 9899   1.195   4.573   4.695
 3230WAT      O 9900   3.293   5.120   3.538
 3230WAT     H1 9901   3.355   5.059   3.500
 3230WAT     H2 9902   3.207   5.087   3.512
 3231WAT      O 9903   0.713   1.485   5.104
 3231WAT     H1 9904   0.787   1.521   5.055
 3231WAT     H2 9905   0.742   1.399   5.133
 3232WAT      O 9906   1.007   1.343   4.843
 3232WAT     H1 9907   0.942   1.295   4.791
 3232WAT     H2 9908   0.969   1.349   4.931
 3233WAT      O 9909   1.261   4.001   5.135
 3233WAT     H1 9910   1.309   4.062   5.078
 3233WAT     H2 9911   1.326   3.973   5.199
 3234WAT      O 9912   1.714   4.649   0.473
 3234WAT     H1 9913   1.681   4.733   0.501
 3234WAT     H2 9914   1.641   4.588   0.483
 3235WAT      O 9915   0.980   4.787   1.078
 3235WAT     H1 9916   0.898   4.784   1.029
 3235WAT     H2 9917   0.959   4.837   1.158
 3236WAT      O 9918   2.429   0.373   1.842
 3236WAT     H1 9919   2.492   0.400   1.776
 3236WAT     H2 9920   2.482   0.338   1.913
 3237WAT      O 9921   3.035   0.785   1.010
 3237WAT     H1 9922   3.115   0.816   0.967
 3237WAT     H2 9923   3.038   0.690   1.001
 3238WAT      O 9924   0.075   1.560   1.485
 3238WAT     H1 9925   0.131   1.528   1.414
 3238WAT     H2 9926   0.018   1.626   1.444
 3239WAT      O 9927   0.541   4.569   2.655
 3239WAT     H1 9928   0.632   4.555   2.628
 3239WAT     H2 9929   0.546   4.587   2.749
 3240WAT      O 9930   4.315   4.917   2.282
 3240WAT     H1 9931   4.386   4.866   2.244
 3240WAT     H2 9932   4.258   4.853   2.323
 3241WAT      O 9933   3.839   4.069   5.298
 3241WAT     H1 9934   3.859   4.046   5.208
 3241WAT     H2 9935   3.744   4.065   5.304
 3242WAT      O 9936   1.804   1.785   1.700
 3242WAT     H1 9937   1.729   1.748   1.746
 3242WAT     H2 9938   1.863   1.711   1.685
 3243WAT      O 9939   2.583   0.364   3.357
 3243WAT     H1 9940   2.636   0.444   3.350
 3243WAT     H2 9941   2.554   0.363   3.448
 3244WAT      O 9942   4.205   0.100   0.889
 3244WAT     H1 9943   4.125   0.140   0.854
 3244WAT     H2 9944   4.211   0.016   0.845
 3245WAT      O 9945   0.856   3.071   4.497
 3245WAT     H1 9946   0.804   3.055   4.418
 3245WAT     H2 9947   0.867   3.167   4.497
 3246WAT      O 9948   3.901   4.787   2.590
 3246WAT     H1 9949   3.846   4.842   2.534
 3246WAT     H2 9950   3.930   4.716   2.533
 3247WAT      O 9951   2.628   4.114   5.075
 3247WAT     H1 9952   2.606   4.021   5.084
 3247WAT     H2 9953   2.548   4.159   5.105
 3248WAT      O 9954   2.658   0.134   3.113
 3248WAT     H1 9955   2.687   0.054   3.067
 3248WAT     H2 9956   2.622   0.102   3.196
 3249WAT      O 9957   1.216   2.004   3.280
 3249WAT     H1 9958   1.185   2.093   3.302
 3249WAT     H2 9959   1.214   2.001   3.184
 3250WAT      O 9960   3.158   0.838   1.673
 3250WAT     H1 9961   3.146   0.894   1.750
 3250WAT     H2 9962   3.173   0.899   1.601
 3251WAT      O 9963   3.812   4.565   3.142
 3251WAT     H1 9964   3.754   4.489   3.148
 3251WAT     H2 9965   3.755   4.638   3.117
 3252WAT      O 9966   1.589   2.108   1.868
 3252WAT     H1 9967   1.679   2.140   1.875
 3252WAT     H2 9968   1.573   2.100   1.774
 3253WAT      O 9969   3.836   1.370   1.661
 3253WAT     H1 9970   3.924   1.406   1.669
 3253WAT     H2 9971   3.834   1.297   1.723
 3254WAT      O 9972   4.059   2.866   4.983
 3254WAT     H1 9973   4.076   2.780   5.021
 3254WAT     H2 9974   3.993   2.850   4.916
 3255WAT      O 9975   1.336   2.840   4.272
 3255WAT     H1 9976   1.427   2.852   4.300
 3255WAT     H2 9977   1.284   2.868   4.347
 3256WAT      O 9978   0.419   2.511   5.105
 3256WAT     H1 9979   0.342   2.556   5.141
 3256WAT     H2 9980   0.395   2.418   5.109
 3257WAT      O 9981   1.524   2.903   2.451
 3257WAT     H1 9982   1.466   2.886   2.526
 3257WAT     H2 9983   1.576   2.822   2.443
 3258WAT      O 9984   2.400   4.390   1.812
 3258WAT     H1 9985   2.371   4.346   1.732
 3258WAT     H2 9986   2.320   4.403   1.863
 3259WAT      O 9987   3.105   3.251   1.805
 3259WAT     H1 9988   3.141   3.304   1.876
 3259WAT     H2 9989   3.013   3.275   1.802
 3260WAT      O 9990   0.806   0.200   1.919
 3260WAT     H1 9991   0.887   0.242   1.950
 3260WAT     H2 9992   0.800   0.121   1.972
 3261WAT      O 9993   2.046   1.208   2.142
 3261WAT     H1 9994   2.141   1.203   2.139
 3261WAT     H2 9995   2.018   1.183   2.054
 3262WAT      O 9996   1.800   0.374   0.005
 3262WAT     H1 9997   1.734   0.305   0.016
 3262WAT     H2 9998   1.880   0.337   0.042
 3263WAT      O 9999   0.468   1.998   0.069
 3263WAT     H110000   0.514   1.915   0.056
 3263WAT     H210001   0.474   2.043  -0.015
 3264WAT      O10002   2.146   3.076   0.461
 3264WAT     H110003   2.188   2.992   0.437
 3264WAT     H210004   2.131   3.120   0.377
 3265WAT      O10005   3.337   3.635   1.624
 3265WAT     H110006   3.364   3.583   1.700
 3265WAT     H210007   3.382   3.595   1.550
 3266WAT      O10008   0.653   1.310   1.190
 3266WAT     H110009   0.640   1.287   1.098
 3266WAT     H210010   0.633   1.229   1.238
 3267WAT      O10011   1.208   2.701   4.081
 3267WAT     H110012   1.243   2.613   4.093
 3267WAT     H210013   1.251   2.753   4.149
 3268WAT      O10014   3.403   1.281   3.119
 3268WAT     H110015   3.321   1.275   3.169
 3268WAT     H210016   3.428   1.192   3.103
 3269WAT      O10017   1.880   1.705   1.422
 3269WAT     H110018   1.809   1.754   1.463
 3269WAT     H210019   1.869   1.614   1.451
 3270WAT      O10020   0.524   0.322   5.054
 3270WAT     H110021   0.615   0.347   5.068
 3270WAT     H210022   0.528   0.246   4.996
 3271WAT      O10023   0.517   1.484   0.803
 3271WAT     H110024   0.548   1.560   0.752
 3271WAT     H210025   0.590   1.422   0.801
 3272WAT      O10026   4.334   4.994   4.580
 3272WAT     H110027   4.354   5.073   4.529
 3272WAT     H210028   4.331   4.924   4.515
 3273WAT      O10029   2.283   0.756   4.144
 3273WAT     H110030   2.267   0.685   4.082
 3273WAT     H210031   2.264   0.835   4.094
 3274WAT      O10032   3.265   0.389   1.678
 3274WAT     H110033   3.268   0.322   1.611
 3274WAT     H210034   3.176   0.424   1.674
 3275WAT      O10035   2.586   3.205   4.931
 3275WAT     H110036   2.671   3.181   4.967
 3275WAT     H210037   2.605   3.272   4.866
 3276WAT      O10038   1.274   1.308   1.664
 3276WAT     H110039   1.193   1.313   1.716
 3276WAT     H210040   1.294   1.215   1.657
 3277WAT      O10041   1.067   2.295   0.902
 3277WAT     H110042   0.984   2.339   0.922
 3277WAT     H210043   1.084   2.241   0.979
 3278WAT      O10044   1.383   0.318   4.195
 3278WAT     H110045   1.298   0.347   4.230
 3278WAT     H210046   1.381   0.346   4.103
 3279WAT      O10047   3.803   3.991   0.481
 3279WAT     H110048   3.713   3.982   0.449
 3279WAT     H210049   3.793   4.030   0.568
 3280WAT      O10050   0.796   3.545   1.689
 3280WAT     H110051   0.854   3.611   1.727
 3280WAT     H210052   0.720   3.542   1.747
 3281WAT      O10053   4.166   0.998   0.764
 3281WAT     H110054   4.219   1.014   0.842
 3281WAT     H210055   4.200   0.916   0.728
 3282WAT      O10056   0.552   2.280   2.575
 3282WAT     H110057   0.617   2.347   2.591
 3282WAT     H210058   0.473   2.311   2.619
 3283WAT      O10059   2.623   2.196   3.225
 3283WAT     H110060   2.620   2.288   3.201
 3283WAT     H210061   2.585   2.150   3.149
 3284WAT      O10062   1.987   4.567   2.125
 3284WAT     H110063   1.902   4.572   2.168
 3284WAT     H210064   1.989   4.645   2.069
 3285WAT      O10065   4.169   1.212   5.241
 3285WAT     H110066   4.105   1.146   5.268
 3285WAT     H210067   4.162   1.215   5.146
 3286WAT      O10068   0.496   3.002   2.628
 3286WAT     H110069   0.501   3.051   2.710
 3286WAT     H210070   0.588   2.995   2.599
 3287WAT      O10071   1.380   2.499   4.544
 3287WAT     H110072   1.470   2.499   4.512
 3287WAT     H210073   1.377   2.430   4.609
 3288WAT      O10074   2.991   1.346   3.013
 3288WAT     H110075   2.906   1.331   3.054
 3288WAT     H210076   3.021   1.259   2.987
 3289WAT      O10077   3.424   2.261   4.734
 3289WAT     H110078   3.357   2.241   4.669
 3289WAT     H210079   3.426   2.183   4.790
 3290WAT      O10080   1.095   4.512   5.106
 3290WAT     H110081   1.020   4.563   5.076
 3290WAT     H210082   1.119   4.552   5.190
 3291WAT      O10083   0.469   3.541   4.509
 3291WAT     H110084   0.561   3.545   4.483
 3291WAT     H210085   0.467   3.585   4.594
 3292WAT      O10086   3.016   2.874   4.561
 3292WAT     H110087   3.064   2.885   4.643
 3292WAT     H210088   2.961   2.798   4.575
 3293WAT      O10089   1.599   3.567   0.266
 3293WAT     H110090   1.539   3.626   0.220
 3293WAT     H210091   1.632   3.620   0.339
 3294WAT      O10092   1.336   4.987   3.670
 3294WAT     H110093   1.315   4.899   3.638
 3294WAT     H210094   1.428   4.984   3.692
 3295WAT      O10095   3.122   0.326   4.910
 3295WAT     H110096   3.045   0.355   4.862
 3295WAT     H210097   3.148   0.401   4.963
 3296WAT      O10098   1.415   3.232   1.883
 3296WAT     H110099   1.355   3.299   1.916
 3296WAT     H210100   1.471   3.280   1.822
 3297WAT      O10101   3.674   3.163   4.068
 3297WAT     H110102   3.678   3.070   4.052
 3297WAT     H210103   3.720   3.202   3.994
 3298WAT      O10104   2.377   1.443   0.601
 3298WAT     H110105   2.454   1.389   0.589
 3298WAT     H210106   2.303   1.382   0.603
 3299WAT      O10107   3.611   2.554   0.597
 3299WAT     H110108   3.600   2.647   0.617
 3299WAT     H210109   3.590   2.546   0.504
 3300WAT      O10110   0.255   0.309   0.140
 3300WAT     H110111   0.321   0.351   0.085
 3300WAT     H210112   0.285   0.325   0.230
 3301WAT      O10113   4.190   3.740   4.844
 3301WAT     H110114   4.186   3.727   4.749
 3301WAT     H210115   4.245   3.669   4.876
 3302WAT      O10116   0.177   0.122   5.254
 3302WAT     H110117   0.181   0.194   5.318
 3302WAT     H210118   0.180   0.043   5.308
 3303WAT      O10119   4.334   3.681   4.251
 3303WAT     H110120   4.325   3.776   4.258
 3303WAT     H210121   4.384   3.667   4.171
 3304WAT      O10122   3.678   0.394   1.566
 3304WAT     H110123   3.629   0.315   1.542
 3304WAT     H210124   3.626   0.466   1.528
 3305WAT      O10125   0.812   2.684   5.069
 3305WAT     H110126   0.808   2.634   5.150
 3305WAT     H210127   0.900   2.669   5.035
 3306WAT      O10128   1.450   0.276   0.953
 3306WAT     H110129   1.430   0.339   0.884
 3306WAT     H210130   1.368   0.230   0.968
 3307WAT      O10131   0.022   0.750   1.032
 3307WAT     H110132   0.099   0.741   0.976
 3307WAT     H210133   0.055   0.790   1.112
 3308WAT      O10134   0.560   4.426   4.006
 3308WAT     H110135   0.522   4.476   4.078
 3308WAT     H210136   0.530   4.471   3.927
 3309WAT      O10137   1.188   3.937   0.696
 3309WAT     H110138   1.153   3.886   0.622
 3309WAT     H210139   1.116   3.995   0.720
 3310WAT      O10140   2.610   4.682   1.289
 3310WAT     H110141   2.527   4.683   1.336
 3310WAT     H210142   2.632   4.775   1.277
 3311WAT      O10143   3.369   0.341   4.017
 3311WAT     H110144   3.399   0.291   3.941
 3311WAT     H210145   3.281   0.308   4.034
 3312WAT      O10146   2.638   1.793   4.959
 3312WAT     H110147   2.636   1.859   5.027
 3312WAT     H210148   2.728   1.761   4.959
 3313WAT      O10149   0.631   0.288   3.475
 3313WAT     H110150   0.725   0.298   3.488
 3313WAT     H210151   0.596   0.271   3.563
 3314WAT      O10152   0.965   2.398   0.245
 3314WAT     H110153   1.039   2.360   0.291
 3314WAT     H210154   0.892   2.391   0.306
 3315WAT      O10155   0.295   3.607   4.126
 3315WAT     H110156   0.380   3.644   4.150
 3315WAT     H210157   0.311   3.562   4.043
 3316WAT      O10158   2.266   4.662   1.007
 3316WAT     H110159   2.193   4.722   0.998
 3316WAT     H210160   2.248   4.614   1.088
 3317WAT      O10161   0.955   0.357   1.434
 3317WAT     H110162   0.986   0.295   1.500
 3317WAT     H210163   0.962   0.310   1.351
 3318WAT      O10164   2.570   2.892   4.561
 3318WAT     H110165   2.595   2.825   4.625
 3318WAT     H210166   2.503   2.944   4.605
 3319WAT      O10167   1.482   0.969   1.478
 3319WAT     H110168   1.423   0.903   1.440
 3319WAT     H210169   1.568   0.927   1.480
 3320WAT      O10170   2.740   0.616   3.382
 3320WAT     H110171   2.709   0.706   3.379
 3320WAT     H210172   2.764   0.601   3.474
 3321WAT      O10173   3.628   3.604   3.239
 3321WAT     H110174   3.624   3.514   3.271
 3321WAT     H210175   3.599   3.657   3.314
 3322WAT      O10176   1.379   0.587   3.225
 3322WAT     H110177   1.374   0.677   3.256
 3322WAT     H210178   1.290   0.566   3.198
 3323WAT      O10179   2.837   1.176   2.749
 3323WAT     H110180   2.822   1.268   2.772
 3323WAT     H210181   2.757   1.150   2.705
 3324WAT      O10182   3.102   3.434   0.983
 3324WAT     H110183   3.127   3.478   0.902
 3324WAT     H210184   3.049   3.499   1.030
 3325WAT      O10185   3.899   4.026   2.983
 3325WAT     H110186   3.879   3.958   2.919
 3325WAT     H210187   3.816   4.071   2.999
 3326WAT      O10188   0.797   4.678   1.687
 3326WAT     H110189   0.803   4.595   1.640
 3326WAT     H210190   0.724   4.667   1.747
 3327WAT      O10191   0.141   1.063   1.527
 3327WAT     H110192   0.100   1.114   1.459
 3327WAT     H210193   0.206   1.121   1.567
 3328WAT      O10194   2.228   0.054   0.922
 3328WAT     H110195   2.168   0.061   0.847
 3328WAT     H210196   2.272   0.139   0.925
 3329WAT      O10197   2.021   3.182   0.092
 3329WAT     H110198   2.019   3.276   0.078
 3329WAT     H210199   2.103   3.166   0.139
 3330WAT      O10200   3.381   4.365   2.924
 3330WAT     H110201   3.319   4.309   2.971
 3330WAT     H210202   3.375   4.335   2.833
 3331WAT      O10203   1.217   3.777   2.130
 3331WAT     H110204   1.127   3.749   2.113
 3331WAT     H210205   1.268   3.734   2.062
 3332WAT      O10206   1.758   0.027   1.687
 3332WAT     H110207   1.833   0.082   1.663
 3332WAT     H210208   1.717   0.072   1.761
 3333WAT      O10209   3.758   0.754   3.807
 3333WAT     H110210   3.723   0.668   3.782
 3333WAT     H210211   3.848   0.735   3.834
 3334WAT      O10212   2.804   2.321   4.923
 3334WAT     H110213   2.811   2.414   4.945
 3334WAT     H210214   2.776   2.321   4.832
 3335WAT      O10215   0.538   1.211   3.101
 3335WAT     H110216   0.492   1.281   3.145
 3335WAT     H210217   0.630   1.236   3.104
 3336WAT      O10218   2.085   2.339   4.419
 3336WAT     H110219   2.130   2.279   4.359
 3336WAT     H210220   1.996   2.345   4.384
 3337WAT      O10221   2.523   2.274   4.969
 3337WAT     H110222   2.482   2.346   5.016
 3337WAT     H210223   2.615   2.299   4.961
 3338WAT      O10224   0.089   4.082   1.119
 3338WAT     H110225   0.093   3.986   1.123
 3338WAT     H210226   0.067   4.109   1.209
 3339WAT      O10227   4.036   4.419   2.209
 3339WAT     H110228   4.008   4.395   2.120
 3339WAT     H210229   4.128   4.446   2.198
 3340WAT      O10230   0.467   0.516   3.231
 3340WAT     H110231   0.513   0.432   3.233
 3340WAT     H210232   0.525   0.574   3.180
 3341WAT      O10233   0.191   4.263   1.826
 3341WAT     H110234   0.140   4.291   1.751
 3341WAT     H210235   0.231   4.343   1.859
 3342WAT      O10236   0.911   1.042   0.115
 3342WAT     H110237   1.000   1.070   0.094
 3342WAT     H210238   0.870   1.119   0.156
 3343WAT      O10239   3.352   5.104   3.879
 3343WAT     H110240   3.298   5.147   3.813
 3343WAT     H210241   3.434   5.085   3.833
 3344WAT      O10242   1.785   2.438   0.672
 3344WAT     H110243   1.725   2.439   0.747
 3344WAT     H210244   1.865   2.479   0.704
 3345WAT      O10245   3.877   5.115   1.456
 3345WAT     H110246   3.803   5.175   1.466
 3345WAT     H210247   3.899   5.090   1.546
 3346WAT      O10248   3.570   2.383   3.207
 3346WAT     H110249   3.647   2.438   3.192
 3346WAT     H210250   3.597   2.321   3.274
 3347WAT      O10251   0.649   0.341   3.935
 3347WAT     H110252   0.568   0.307   3.898
 3347WAT     H210253   0.696   0.264   3.965
 3348WAT      O10254   0.541   3.157   4.598
 3348WAT     H110255   0.633   3.182   4.609
 3348WAT     H210256   0.543   3.068   4.565
 3349WAT      O10257   1.188   1.185   4.009
 3349WAT     H110258   1.280   1.178   3.981
 3349WAT     H210259   1.190   1.244   4.083
 3350WAT      O10260   2.988   3.179   3.766
 3350WAT     H110261   3.019   3.235   3.835
 3350WAT     H210262   2.963   3.238   3.695
 3351WAT      O10263   3.028   1.949   4.730
 3351WAT     H110264   3.036   1.859   4.698
 3351WAT     H210265   3.009   1.939   4.823
 3352WAT      O10266   3.981   1.196   2.262
 3352WAT     H110267   3.957   1.211   2.170
 3352WAT     H210268   4.058   1.251   2.276
 3353WAT      O10269   2.363   4.687   1.445
 3353WAT     H110270   2.307   4.760   1.419
 3353WAT     H210271   2.348   4.620   1.378
 3354WAT      O10272   3.902   3.288   2.487
 3354WAT     H110273   3.812   3.269   2.515
 3354WAT     H210274   3.951   3.209   2.510
 3355WAT      O10275   3.925   4.549   2.430
 3355WAT     H110276   3.968   4.484   2.375
 3355WAT     H210277   3.834   4.519   2.437
 3356WAT      O10278   3.342   4.658   1.746
 3356WAT     H110279   3.412   4.708   1.786
 3356WAT     H210280   3.329   4.699   1.660
 3357WAT      O10281   3.224   4.653   2.641
 3357WAT     H110282   3.232   4.652   2.736
 3357WAT     H210283   3.137   4.690   2.625
 3358WAT      O10284   2.927   0.102   1.398
 3358WAT     H110285   2.846   0.052   1.393
 3358WAT     H210286   2.963   0.080   1.484
 3359WAT      O10287   1.850   1.091   0.062
 3359WAT     H110288   1.829   1.109  -0.029
 3359WAT     H210289   1.899   1.169   0.091
 3360WAT      O10290   2.700   0.107   3.419
 3360WAT     H110291   2.732   0.072   3.502
 3360WAT     H210292   2.611   0.138   3.438
 3361WAT      O10293   0.664   0.254   4.732
 3361WAT     H110294   0.668   0.270   4.638
 3361WAT     H210295   0.613   0.173   4.741
 3362WAT      O10296   0.006   3.031   0.108
 3362WAT     H110297   0.049   3.029   0.193
 3362WAT     H210298   0.008   3.123   0.083
 3363WAT      O10299   3.645   1.864   4.383
 3363WAT     H110300   3.653   1.784   4.435
 3363WAT     H210301   3.552   1.867   4.358
 3364WAT      O10302   4.378   3.801   5.273
 3364WAT     H110303   4.373   3.869   5.205
 3364WAT     H210304   4.318   3.831   5.341
 3365WAT      O10305   0.343   3.779   2.185
 3365WAT     H110306   0.248   3.769   2.182
 3365WAT     H210307   0.362   3.802   2.276
 3366WAT      O10308   3.279   4.409   1.659
 3366WAT     H110309   3.345   4.369   1.715
 3366WAT     H210310   3.282   4.502   1.682
 3367WAT      O10311   2.121   4.030   3.028
 3367WAT     H110312   2.192   4.087   2.999
 3367WAT     H210313   2.061   4.026   2.953
 3368WAT      O10314   1.798   1.742   0.629
 3368WAT     H110315   1.723   1.731   0.570
 3368WAT     H210316   1.760   1.762   0.714
 3369WAT      O10317   4.140   1.261   0.959
 3369WAT     H110318   4.067   1.249   1.019
 3369WAT     H210319   4.101   1.261   0.872
 3370WAT      O10320   0.012   2.681   0.360
 3370WAT     H110321   0.014   2.636   0.276
 3370WAT     H210322  -0.074   2.723   0.362
 3371WAT      O10323   3.260   3.351   4.552
 3371WAT     H110324   3.289   3.396   4.473
 3371WAT     H210325   3.241   3.421   4.614
 3372WAT      O10326   1.858   4.902   2.159
 3372WAT     H110327   1.857   4.994   2.132
 3372WAT     H210328   1.876   4.854   2.078
 3373WAT      O10329   3.094   1.918   5.000
 3373WAT     H110330   3.165   1.873   5.045
 3373WAT     H210331   3.129   2.004   4.977
 3374WAT      O10332   3.713   3.726   0.174
 3374WAT     H110333   3.624   3.694   0.164
 3374WAT     H210334   3.730   3.776   0.094
 3375WAT      O10335   0.937   1.905   2.282
 3375WAT     H110336   0.842   1.915   2.285
 3375WAT     H210337   0.968   1.952   2.358
 3376WAT      O10338   1.002   1.198   3.335
 3376WAT     H110339   1.093   1.173   3.315
 3376WAT     H210340   0.966   1.120   3.379
 3377WAT      O10341   2.717   4.873   4.779
 3377WAT     H110342   2.772   4.854   4.703
 3377WAT     H210343   2.659   4.943   4.749
 3378WAT      O10344   4.292   2.287   1.558
 3378WAT     H110345   4.358   2.224   1.526
 3378WAT     H210346   4.223   2.230   1.595
 3379WAT      O10347   0.010   3.189   0.903
 3379WAT     H110348   0.032   3.150   0.987
 3379WAT     H210349  -0.042   3.268   0.926
 3380WAT      O10350   2.144   2.860   4.814
 3380WAT     H110351   2.063   2.834   4.770
 3380WAT     H210352   2.118   2.880   4.904
 3381WAT      O10353   2.618   2.959   2.709
 3381WAT     H110354   2.666   2.877   2.715
 3381WAT     H210355   2.570   2.965   2.792
 3382WAT      O10356   1.891   3.802   2.820
 3382WAT     H110357   1.932   3.768   2.740
 3382WAT     H210358   1.808   3.839   2.790
 3383WAT      O10359   3.832   1.474   1.007
 3383WAT     H110360   3.901   1.540   1.010
 3383WAT     H210361   3.846   1.428   0.924
 3384WAT      O10362   4.488   1.573   0.511
 3384WAT     H110363   4.516   1.607   0.427
 3384WAT     H210364   4.442   1.646   0.553
 3385WAT      O10365   3.405   1.744   1.080
 3385WAT     H110366   3.337   1.691   1.038
 3385WAT     H210367   3.485   1.692   1.073
 3386WAT      O10368   4.419   2.667   1.559
 3386WAT     H110369   4.509   2.643   1.537
 3386WAT     H210370   4.427   2.748   1.609
 3387WAT      O10371   2.864   1.040   1.946
 3387WAT     H110372   2.806   1.045   2.022
 3387WAT     H210373   2.810   1.071   1.873
 3388WAT      O10374   1.253   1.087   1.967
 3388WAT     H110375   1.233   1.086   1.874
 3388WAT     H210376   1.195   1.155   2.003
 3389WAT      O10377   3.875   1.433   1.326
 3389WAT     H110378   3.864   1.409   1.234
 3389WAT     H210379   3.957   1.392   1.353
 3390WAT      O10380   4.462   4.981   1.304
 3390WAT     H110381   4.438   4.902   1.254
 3390WAT     H210382   4.461   5.051   1.240
 3391WAT      O10383   4.364   4.476   4.460
 3391WAT     H110384   4.293   4.494   4.522
 3391WAT     H210385   4.320   4.443   4.382
 3392WAT      O10386   2.520   2.728   0.216
 3392WAT     H110387   2.530   2.692   0.304
 3392WAT     H210388   2.586   2.798   0.211
 3393WAT      O10389   3.973   2.616   2.407
 3393WAT     H110390   4.062   2.634   2.436
 3393WAT     H210391   3.923   2.693   2.433
 3394WAT      O10392   2.877   1.376   0.143
 3394WAT     H110393   2.953   1.405   0.193
 3394WAT     H210394   2.902   1.392   0.052
 3395WAT      O10395   3.037   1.750   0.123
 3395WAT     H110396   3.029   1.653   0.128
 3395WAT     H210397   3.092   1.772   0.198
 3396WAT      O10398   3.161   0.915   2.212
 3396WAT     H110399   3.188   0.833   2.255
 3396WAT     H210400   3.149   0.977   2.285
 3397WAT      O10401   4.295   4.204   2.129
 3397WAT     H110402   4.359   4.133   2.135
 3397WAT     H210403   4.240   4.180   2.054
 3398WAT      O10404   3.907   1.686   5.123
 3398WAT     H110405   3.931   1.646   5.040
 3398WAT     H210406   3.930   1.620   5.189
 3399WAT      O10407   2.641   1.418   1.625
 3399WAT     H110408   2.607   1.379   1.707
 3399WAT     H210409   2.577   1.392   1.559
 3400WAT      O10410   0.648   4.114   4.362
 3400WAT     H110411   0.737   4.100   4.396
 3400WAT     H210412   0.611   4.026   4.357
 3401WAT      O10413   1.488   4.613   5.251
 3401WAT     H110414   1.519   4.534   5.208
 3401WAT     H210415   1.399   4.592   5.280
 3402WAT      O10416   0.779   0.938   3.685
 3402WAT     H110417   0.812   0.874   3.748
 3402WAT     H210418   0.716   0.991   3.736
 3403WAT      O10419   3.131   1.093   4.991
 3403WAT     H110420   3.044   1.052   4.998
 3403WAT     H210421   3.192   1.020   5.000
 3404WAT      O10422   3.974   2.044   3.271
 3404WAT     H110423   4.032   2.086   3.336
 3404WAT     H210424   3.887   2.051   3.310
 3405WAT      O10425   3.605   1.866   0.659
 3405WAT     H110426   3.696   1.898   0.654
 3405WAT     H210427   3.571   1.906   0.738
 3406WAT      O10428   1.915   4.229   0.764
 3406WAT     H110429   1.937   4.219   0.856
 3406WAT     H210430   1.999   4.232   0.719
 3407WAT      O10431   3.406   0.946   1.846
 3407WAT     H110432   3.422   1.040   1.832
 3407WAT     H210433   3.313   0.935   1.826
 3408WAT      O10434   1.489   0.399   2.207
 3408WAT     H110435   1.521   0.489   2.202
 3408WAT     H210436   1.528   0.364   2.287
 3409WAT      O10437   0.347   4.590   1.613
 3409WAT     H110438   0.389   4.656   1.557
 3409WAT     H210439   0.397   4.510   1.598
 3410WAT      O10440   1.537   4.394   4.030
 3410WAT     H110441   1.487   4.456   4.083
 3410WAT     H210442   1.486   4.314   4.032
 3411WAT      O10443   0.914   0.316   1.082
 3411WAT     H110444   0.991   0.260   1.069
 3411WAT     H210445   0.848   0.281   1.022
 3412WAT      O10446   2.643   4.155   4.061
 3412WAT     H110447   2.732   4.191   4.055
 3412WAT     H210448   2.609   4.191   4.143
 3413WAT      O10449   0.909   1.887   3.996
 3413WAT     H110450   0.914   1.899   3.901
 3413WAT     H210451   0.937   1.797   4.009
 3414WAT      O10452   3.596   1.379   0.003
 3414WAT     H110453   3.637   1.310   0.055
 3414WAT     H210454   3.641   1.458   0.029
 3415WAT      O10455   0.031   5.108   2.939
 3415WAT     H110456   0.048   5.020   2.906
 3415WAT     H210457  -0.047   5.136   2.892
 3416WAT      O10458   0.056   2.504   3.099
 3416WAT     H110459   0.102   2.420   3.108
 3416WAT     H210460   0.100   2.548   3.027
 3417WAT      O10461   1.900   3.809   0.502
 3417WAT     H110462   1.907   3.725   0.547
 3417WAT     H210463   1.806   3.826   0.498
 3418WAT      O10464   1.987   1.182   5.031
 3418WAT     H110465   2.058   1.167   4.968
 3418WAT     H210466   1.930   1.106   5.019
 3419WAT      O10467   2.841   2.097   0.692
 3419WAT     H110468   2.933   2.071   0.693
 3419WAT     H210469   2.802   2.053   0.767
 3420WAT      O10470   1.780   1.351   3.117
 3420WAT     H110471   1.697   1.372   3.074
 3420WAT     H210472   1.758   1.290   3.186
 3421WAT      O10473   1.908   0.885   4.729
 3421WAT     H110474   1.895   0.794   4.757
 3421WAT     H210475   1.854   0.936   4.789
 3422WAT      O10476   3.526   1.944   0.363
 3422WAT     H110477   3.584   2.015   0.339
 3422WAT     H210478   3.558   1.915   0.449
 3423WAT      O10479   1.966   1.239   2.542
 3423WAT     H110480   1.872   1.257   2.529
 3423WAT     H210481   2.009   1.320   2.512
 3424WAT      O10482   1.981   4.661   0.778
 3424WAT     H110483   1.943   4.581   0.742
 3424WAT     H210484   2.010   4.711   0.702
 3425WAT      O10485   3.654   4.514   2.648
 3425WAT     H110486   3.586   4.505   2.582
 3425WAT     H210487   3.654   4.608   2.670
 3426WAT      O10488   0.584   1.147   2.366
 3426WAT     H110489   0.519   1.136   2.296
 3426WAT     H210490   0.533   1.142   2.447
 3427WAT      O10491   3.037   4.716   3.236
 3427WAT     H110492   2.984   4.661   3.293
 3427WAT     H210493   3.029   4.675   3.149
 3428WAT      O10494   3.138   1.540   4.609
 3428WAT     H110495   3.183   1.517   4.690
 3428WAT     H210496   3.049   1.563   4.637
 3429WAT      O10497   4.353   3.183   4.808
 3429WAT     H110498   4.302   3.118   4.758
 3429WAT     H210499   4.372   3.141   4.891
 3430WAT      O10500   3.497   0.583   0.562
 3430WAT     H110501   3.410   0.596   0.524
 3430WAT     H210502   3.487   0.610   0.653
 3431WAT      O10503   0.861   0.230   5.227
 3431WAT     H110504   0.815   0.259   5.148
 3431WAT     H210505   0.902   0.310   5.261
 3432WAT      O10506   2.765   0.100   2.682
 3432WAT     H110507   2.688   0.126   2.734
 3432WAT     H210508   2.834   0.085   2.747
 3433WAT      O10509   3.602   3.973   5.106
 3433WAT     H110510   3.648   3.894   5.136
 3433WAT     H210511   3.578   4.019   5.187
 3434WAT      O10512   0.222   0.875   0.306
 3434WAT     H110513   0.132   0.851   0.328
 3434WAT     H210514   0.256   0.800   0.256
 3435WAT      O10515   0.105   4.185   0.853
 3435WAT     H110516   0.066   4.267   0.825
 3435WAT     H210517   0.070   4.170   0.941
 3436WAT      O10518   2.970   4.200   3.644
 3436WAT     H110519   2.919   4.134   3.692
 3436WAT     H210520   3.044   4.219   3.701
 3437WAT      O10521   2.352   4.748   3.214
 3437WAT     H110522   2.267   4.752   3.258
 3437WAT     H210523   2.339   4.795   3.132
 3438WAT      O10524   0.826   3.881   3.016
 3438WAT     H110525   0.848   3.807   2.960
 3438WAT     H210526   0.730   3.883   3.017
 3439WAT      O10527   2.781   2.235   4.300
 3439WAT     H110528   2.688   2.230   4.277
 3439WAT     H210529   2.785   2.203   4.390
 3440WAT      O10530   2.788   3.957   1.062
 3440WAT     H110531   2.835   3.874   1.056
 3440WAT     H210532   2.853   4.023   1.038
 3441WAT      O10533   2.888   3.760   2.651
 3441WAT     H110534   2.911   3.849   2.679
 3441WAT     H210535   2.818   3.733   2.710
 3442WAT      O10536   2.518   1.626   1.313
 3442WAT     H110537   2.602   1.603   1.272
 3442WAT     H210538   2.467   1.665   1.242
 3443WAT      O10539   2.069   0.185   5.093
 3443WAT     H110540   2.023   0.110   5.055
 3443WAT     H210541   2.135   0.147   5.150
 3444WAT      O10542   1.412   1.405   3.021
 3444WAT     H110543   1.326   1.405   3.061
 3444WAT     H210544   1.411   1.331   2.960
 3445WAT      O10545   2.671   2.399   1.197
 3445WAT     H110546   2.639   2.433   1.280
 3445WAT     H210547   2.604   2.425   1.133
 3446WAT      O10548   2.496   4.551   4.430
 3446WAT     H110549   2.449   4.627   4.466
 3446WAT     H210550   2.439   4.477   4.451
 3447WAT      O10551   3.564   0.200   4.887
 3447WAT     H110552   3.576   0.294   4.874
 3447WAT     H210553   3.596   0.184   4.976
 3448WAT      O10554   0.782   1.178   4.459
 3448WAT     H110555   0.754   1.172   4.367
 3448WAT     H210556   0.876   1.195   4.455
 3449WAT      O10557   3.999   1.007   0.045
 3449WAT     H110558   3.963   1.073   0.105
 3449WAT     H210559   4.019   0.932   0.101
 3450WAT      O10560   4.495   4.415   4.974
 3450WAT     H110561   4.568   4.440   5.031
 3450WAT     H210562   4.493   4.484   4.907
 3451WAT      O10563   4.347   2.894   5.026
 3451WAT     H110564   4.368   2.805   5.048
 3451WAT     H210565   4.251   2.894   5.015
 3452WAT      O10566   0.102   4.304   2.117
 3452WAT     H110567   0.077   4.217   2.147
 3452WAT     H210568   0.077   4.306   2.024
 3453WAT      O10569   4.055   3.870   1.096
 3453WAT     H110570   4.081   3.889   1.006
 3453WAT     H210571   4.138   3.851   1.140
 3454WAT      O10572   2.921   4.156   3.993
 3454WAT     H110573   2.888   4.106   3.918
 3454WAT     H210574   2.969   4.092   4.045
 3455WAT      O10575   0.640   5.012   0.766
 3455WAT     H110576   0.642   5.037   0.673
 3455WAT     H210577   0.563   5.055   0.801
 3456WAT      O10578   3.676   4.610   1.972
 3456WAT     H110579   3.733   4.612   2.049
 3456WAT     H210580   3.735   4.592   1.899
 3457WAT      O10581   2.198   1.223   1.651
 3457WAT     H110582   2.202   1.136   1.689
 3457WAT     H210583   2.170   1.280   1.723
 3458WAT      O10584   2.263   2.722   1.741
 3458WAT     H110585   2.247   2.630   1.764
 3458WAT     H210586   2.333   2.719   1.676
 3459WAT      O10587   3.172   3.200   0.826
 3459WAT     H110588   3.152   3.229   0.736
 3459WAT     H210589   3.150   3.276   0.880
 3460WAT      O10590   2.326   3.299   4.995
 3460WAT     H110591   2.297   3.354   4.922
 3460WAT     H210592   2.413   3.269   4.969
 3461WAT      O10593   0.304   2.548   2.417
 3461WAT     H110594   0.297   2.638   2.446
 3461WAT     H210595   0.308   2.498   2.499
 3462WAT      O10596   3.412   2.235   4.128
 3462WAT     H110597   3.375   2.180   4.196
 3462WAT     H210598   3.352   2.309   4.122
 3463WAT      O10599   1.039   0.224   1.674
 3463WAT     H110600   0.996   0.246   1.757
 3463WAT     H210601   1.128   0.201   1.699
 3464WAT      O10602   0.738   4.408   1.569
 3464WAT     H110603   0.781   4.384   1.487
 3464WAT     H210604   0.781   4.354   1.635
 3465WAT      O10605   3.654   4.139   4.867
 3465WAT     H110606   3.646   4.077   4.939
 3465WAT     H210607   3.650   4.085   4.788
 3466WAT      O10608   2.743   0.372   3.731
 3466WAT     H110609   2.796   0.304   3.689
 3466WAT     H210610   2.658   0.367   3.687
 3467WAT      O10611   0.789   4.818   1.921
 3467WAT     H110612   0.704   4.776   1.931
 3467WAT     H210613   0.820   4.790   1.835
 3468WAT      O10614   2.184   5.056   3.640
 3468WAT     H110615   2.179   5.042   3.546
 3468WAT     H210616   2.102   5.102   3.661
 3469WAT      O10617   3.238   4.110   1.401
 3469WAT     H110618   3.196   4.031   1.367
 3469WAT     H210619   3.167   4.162   1.439
 3470WAT      O10620   2.090   2.916   1.821
 3470WAT     H110621   2.162   2.863   1.787
 3470WAT     H210622   2.037   2.854   1.872
 3471WAT      O10623   2.536   4.694   1.883
 3471WAT     H110624   2.539   4.659   1.794
 3471WAT     H210625   2.545   4.789   1.872
 3472WAT      O10626   2.844   1.818   2.158
 3472WAT     H110627   2.831   1.754   2.088
 3472WAT     H210628   2.937   1.843   2.153
 3473WAT      O10629   3.136   3.218   4.964
 3473WAT     H110630   3.106   3.174   5.043
 3473WAT     H210631   3.063   3.274   4.939
 3474WAT      O10632   1.170   4.497   0.799
 3474WAT     H110633   1.254   4.538   0.818
 3474WAT     H210634   1.191   4.405   0.784
 3475WAT      O10635   0.815   1.024   2.419
 3475WAT     H110636   0.852   1.052   2.336
 3475WAT     H210637   0.721   1.042   2.411
 3476WAT      O10638   2.016   1.037   3.780
 3476WAT     H110639   2.080   0.975   3.744
 3476WAT     H210640   2.047   1.123   3.751
 3477WAT      O10641   3.279   0.143   0.866
 3477WAT     H110642   3.312   0.207   0.803
 3477WAT     H210643   3.358   0.100   0.901
 3478WAT      O10644   1.783   3.359   0.848
 3478WAT     H110645   1.713   3.311   0.893
 3478WAT     H210646   1.803   3.306   0.771
 3479WAT      O10647   3.496   0.460   1.186
 3479WAT     H110648   3.501   0.555   1.175
 3479WAT     H210649   3.515   0.424   1.100
 3480WAT      O10650   1.070   0.282   1.941
 3480WAT     H110651   1.140   0.348   1.939
 3480WAT     H210652   1.113   0.202   1.971
 3481WAT      O10653   3.513   3.137   3.639
 3481WAT     H110654   3.472   3.085   3.570
 3481WAT     H210655   3.462   3.116   3.718
 3482WAT      O10656   1.025   3.674   0.001
 3482WAT     H110657   0.965   3.737   0.041
 3482WAT     H210658   0.984   3.589   0.018
 3483WAT      O10659   1.184   1.505   4.702
 3483WAT     H110660   1.111   1.468   4.752
 3483WAT     H210661   1.210   1.583   4.752
 3484WAT      O10662   1.393   0.695   1.666
 3484WAT     H110663   1.404   0.620   1.607
 3484WAT     H210664   1.320   0.744   1.630
 3485WAT      O10665   1.011   2.562   1.490
 3485WAT     H110666   0.949   2.502   1.448
 3485WAT     H210667   0.970   2.584   1.574
 3486WAT      O10668   1.770   2.977   0.628
 3486WAT     H110669   1.777   2.918   0.554
 3486WAT     H210670   1.785   2.920   0.705
 3487WAT      O10671   0.306   4.496   1.871
 3487WAT     H110672   0.319   4.564   1.805
 3487WAT     H210673   0.343   4.533   1.951
 3488WAT      O10674   1.661   3.222   2.150
 3488WAT     H110675   1.649   3.128   2.141
 3488WAT     H210676   1.571   3.257   2.157
 3489WAT      O10677   3.129   1.675   0.902
 3489WAT     H110678   3.178   1.659   0.821
 3489WAT     H210679   3.102   1.765   0.896
 3490WAT      O10680   0.325   2.717   4.396
 3490WAT     H110681   0.294   2.787   4.455
 3490WAT     H210682   0.270   2.643   4.416
 3491WAT      O10683   4.069   1.616   0.326
 3491WAT     H110684   3.999   1.553   0.306
 3491WAT     H210685   4.077   1.669   0.247
 3492WAT      O10686   0.891   4.071   4.475
 3492WAT     H110687   0.953   4.077   4.402
 3492WAT     H210688   0.930   4.126   4.544
 3493WAT      O10689   0.151   2.775   2.021
 3493WAT     H110690   0.154   2.854   1.966
 3493WAT     H210691   0.221   2.788   2.085
 3494WAT      O10692   2.279   5.118   2.634
 3494WAT     H110693   2.324   5.149   2.555
 3494WAT     H210694   2.228   5.193   2.664
 3495WAT      O10695   1.185   3.075   4.799
 3495WAT     H110696   1.113   3.015   4.777
 3495WAT     H210697   1.153   3.161   4.773
 3496WAT      O10698   1.318   3.666   0.115
 3496WAT     H110699   1.225   3.678   0.135
 3496WAT     H210700   1.320   3.597   0.049
 3497WAT      O10701   2.627   4.191   0.421
 3497WAT     H110702   2.682   4.262   0.454
 3497WAT     H210703   2.642   4.191   0.326
 3498WAT      O10704   2.653   3.746   2.817
 3498WAT     H110705   2.603   3.770   2.895
 3498WAT     H210706   2.643   3.650   2.811
 3499WAT      O10707   3.140   2.965   2.125
 3499WAT     H110708   3.192   2.995   2.200
 3499WAT     H210709   3.123   3.044   2.075
 3500WAT      O10710   3.300   4.099   2.923
 3500WAT     H110711   3.291   4.094   2.827
 3500WAT     H210712   3.256   4.020   2.955
 3501WAT      O10713   0.021   3.025   3.401
 3501WAT     H110714   0.066   3.080   3.336
 3501WAT     H210715   0.089   2.969   3.437
 3502WAT      O10716   4.123   4.158   1.552
 3502WAT     H110717   4.131   4.238   1.500
 3502WAT     H210718   4.156   4.089   1.495
 3503WAT      O10719   3.202   4.724   3.901
 3503WAT     H110720   3.285   4.765   3.923
 3503WAT     H210721   3.184   4.665   3.974
 3504WAT      O10722   2.039   0.098   3.189
 3504WAT     H110723   1.951   0.060   3.195
 3504WAT     H210724   2.070   0.070   3.103
 3505WAT      O10725   3.929   0.673   2.933
 3505WAT     H110726   3.973   0.708   3.010
 3505WAT     H210727   3.847   0.637   2.967
 3506WAT      O10728   2.827   4.991   2.493
 3506WAT     H110729   2.783   5.006   2.577
 3506WAT     H210730   2.793   5.059   2.435
 3507WAT      O10731   4.510   2.021   5.224
 3507WAT     H110732   4.548   2.089   5.168
 3507WAT     H210733   4.478   1.955   5.162
 3508WAT      O10734   1.414   2.944   0.478
 3508WAT     H110735   1.428   2.885   0.552
 3508WAT     H210736   1.383   3.025   0.518
 3509WAT      O10737   3.844   3.260   0.550
 3509WAT     H110738   3.773   3.273   0.613
 3509WAT     H210739   3.906   3.203   0.596
 3510WAT      O10740   4.515   4.130   1.377
 3510WAT     H110741   4.475   4.087   1.452
 3510WAT     H210742   4.588   4.180   1.414
 3511WAT      O10743   4.177   1.790   0.123
 3511WAT     H110744   4.185   1.885   0.140
 3511WAT     H210745   4.220   1.777   0.039
 3512WAT      O10746   1.807   3.024   0.014
 3512WAT     H110747   1.890   3.031   0.062
 3512WAT     H210748   1.770   3.111   0.013
 3513WAT      O10749   3.584   4.177   4.302
 3513WAT     H110750   3.664   4.135   4.331
 3513WAT     H210751   3.608   4.224   4.222
 3514WAT      O10752   3.954   0.333   1.484
 3514WAT     H110753   3.983   0.246   1.512
 3514WAT     H210754   3.865   0.341   1.519
 3515WAT      O10755   2.049   4.418   4.211
 3515WAT     H110756   2.102   4.415   4.291
 3515WAT     H210757   1.988   4.345   4.220
 3516WAT      O10758   4.017   1.885   2.696
 3516WAT     H110759   4.035   1.978   2.691
 3516WAT     H210760   3.955   1.875   2.767
 3517WAT      O10761   3.217   1.535   4.877
 3517WAT     H110762   3.280   1.489   4.932
 3517WAT     H210763   3.241   1.629   4.885
 3518WAT      O10764   2.096   0.070   4.714
 3518WAT     H110765   2.082   0.055   4.620
 3518WAT     H210766   2.160   0.004   4.739
 3519WAT      O10767   1.774   4.461   0.711
 3519WAT     H110768   1.795   4.382   0.762
 3519WAT     H210769   1.705   4.504   0.761
 3520WAT      O10770   3.040   0.571   3.273
 3520WAT     H110771   2.953   0.555   3.309
 3520WAT     H210772   3.100   0.545   3.343
 3521WAT      O10773   4.513   1.399   5.055
 3521WAT     H110774   4.458   1.341   5.003
 3521WAT     H210775   4.476   1.393   5.143
 3522WAT      O10776   4.311   1.860   3.052
 3522WAT     H110777   4.368   1.931   3.084
 3522WAT     H210778   4.239   1.905   3.009
 3523WAT      O10779   4.044   0.754   1.076
 3523WAT     H110780   4.089   0.810   1.140
 3523WAT     H210781   4.103   0.751   1.001
 3524WAT      O10782   4.197   1.949   1.745
 3524WAT     H110783   4.259   1.979   1.812
 3524WAT     H210784   4.128   2.015   1.745
 3525WAT      O10785   1.082   3.151   2.665
 3525WAT     H110786   1.139   3.167   2.590
 3525WAT     H210787   1.040   3.235   2.681
 3526WAT      O10788   1.956   0.507   3.736
 3526WAT     H110789   2.014   0.583   3.740
 3526WAT     H210790   1.985   0.458   3.659
 3527WAT      O10791   4.239   5.035   4.178
 3527WAT     H110792   4.191   5.030   4.261
 3527WAT     H210793   4.253   5.129   4.165
 3528WAT      O10794   0.754   0.207   2.324
 3528WAT     H110795   0.785   0.283   2.275
 3528WAT     H210796   0.778   0.226   2.415
 3529WAT      O10797   2.972   3.423   1.281
 3529WAT     H110798   3.064   3.425   1.255
 3529WAT     H210799   2.933   3.498   1.237
 3530WAT      O10800   0.717   5.071   2.432
 3530WAT     H110801   0.702   5.075   2.526
 3530WAT     H210802   0.716   5.163   2.404
 3531WAT      O10803   1.120   4.723   2.865
 3531WAT     H110804   1.150   4.688   2.949
 3531WAT     H210805   1.088   4.646   2.817
 3532WAT      O10806   1.728   1.540   4.954
 3532WAT     H110807   1.655   1.484   4.929
 3532WAT     H210808   1.745   1.594   4.878
 3533WAT      O10809   0.541   5.069   3.038
 3533WAT     H110810   0.470   5.060   2.975
 3533WAT     H210811   0.513   5.140   3.096
 3534WAT      O10812   0.708   0.872   0.740
 3534WAT     H110813   0.741   0.860   0.651
 3534WAT     H210814   0.635   0.811   0.746
 3535WAT      O10815   3.510   2.754   1.766
 3535WAT     H110816   3.585   2.800   1.728
 3535WAT     H210817   3.459   2.725   1.690
 3536WAT      O10818   2.165   2.489   1.840
 3536WAT     H110819   2.217   2.413   1.866
 3536WAT     H210820   2.091   2.452   1.792
 3537WAT      O10821   2.808   0.979   3.061
 3537WAT     H110822   2.783   0.892   3.091
 3537WAT     H210823   2.726   1.021   3.036
 3538WAT      O10824   2.877   4.899   0.438
 3538WAT     H110825   2.954   4.871   0.490
 3538WAT     H210826   2.870   4.993   0.455
 3539WAT      O10827   2.337   2.332   4.151
 3539WAT     H110828   2.409   2.381   4.113
 3539WAT     H210829   2.288   2.397   4.202
 3540WAT      O10830   3.927   4.879   3.088
 3540WAT     H110831   3.963   4.859   3.001
 3540WAT     H210832   3.929   4.975   3.092
 3541WAT      O10833   0.167   3.050   2.901
 3541WAT     H110834   0.182   3.130   2.851
 3541WAT     H210835   0.249   3.036   2.948
 3542WAT      O10836   0.056   0.797   3.399
 3542WAT     H110837   0.135   0.755   3.365
 3542WAT     H210838   0.084   0.885   3.423
 3543WAT      O10839   3.363   1.817   4.298
 3543WAT     H110840   3.285   1.844   4.250
 3543WAT     H210841   3.382   1.729   4.265
 3544WAT      O10842   2.453   0.403   5.200
 3544WAT     H110843   2.539   0.426   5.166
 3544WAT     H210844   2.471   0.343   5.272
 3545WAT      O10845   2.496   0.310   3.609
 3545WAT     H110846   2.428   0.252   3.573
 3545WAT     H210847   2.486   0.302   3.703
 3546WAT      O10848   2.570   0.913   0.560
 3546WAT     H110849   2.543   1.004   0.578
 3546WAT     H210850   2.501   0.859   0.599
 3547WAT      O10851   3.824   1.896   2.892
 3547WAT     H110852   3.731   1.912   2.911
 3547WAT     H210853   3.844   1.813   2.935
 3548WAT      O10854   1.623   4.867   2.359
 3548WAT     H110855   1.544   4.871   2.305
 3548WAT     H210856   1.695   4.868   2.296
 3549WAT      O10857   0.675   3.830   1.701
 3549WAT     H110858   0.584   3.807   1.717
 3549WAT     H210859   0.693   3.796   1.613
 3550WAT      O10860   0.347   4.353   3.371
 3550WAT     H110861   0.304   4.327   3.452
 3550WAT     H210862   0.293   4.424   3.336
 3551WAT      O10863   1.245   0.946   3.046
 3551WAT     H110864   1.202   0.862   3.061
 3551WAT     H210865   1.226   0.968   2.954
 3552WAT      O10866   0.011   1.902   4.553
 3552WAT     H110867  -0.005   1.974   4.493
 3552WAT     H210868   0.007   1.823   4.498
 3553WAT      O10869   1.027   4.071   2.858
 3553WAT     H110870   0.958   4.018   2.900
 3553WAT     H210871   1.101   4.065   2.917
 3554WAT      O10872   1.148   4.892   1.694
 3554WAT     H110873   1.132   4.799   1.677
 3554WAT     H210874   1.237   4.895   1.730
 3555WAT      O10875   4.435   3.903   4.744
 3555WAT     H110876   4.388   3.976   4.705
 3555WAT     H210877   4.527   3.922   4.725
 3556WAT      O10878   4.151   1.952   3.736
 3556WAT     H110879   4.084   2.010   3.771
 3556WAT     H210880   4.149   1.875   3.793
 3557WAT      O10881   0.938   2.966   3.182
 3557WAT     H110882   1.011   2.905   3.173
 3557WAT     H210883   0.979   3.051   3.196
 3558WAT      O10884   3.445   4.068   0.596
 3558WAT     H110885   3.518   4.127   0.580
 3558WAT     H210886   3.460   4.034   0.685
 3559WAT      O10887   2.408   4.533   2.333
 3559WAT     H110888   2.314   4.538   2.350
 3559WAT     H210889   2.415   4.524   2.238
 3560WAT      O10890   4.063   0.490   2.102
 3560WAT     H110891   3.989   0.535   2.061
 3560WAT     H210892   4.037   0.480   2.193
 3561WAT      O10893   3.027   0.102   4.408
 3561WAT     H110894   2.974   0.026   4.384
 3561WAT     H210895   3.101   0.100   4.347
 3562WAT      O10896   3.819   4.388   3.645
 3562WAT     H110897   3.883   4.335   3.599
 3562WAT     H210898   3.756   4.413   3.577
 3563WAT      O10899   3.245   0.839   4.049
 3563WAT     H110900   3.337   0.862   4.067
 3563WAT     H210901   3.230   0.759   4.099
 3564WAT      O10902   1.018   0.593   1.809
 3564WAT     H110903   1.047   0.677   1.845
 3564WAT     H210904   0.959   0.558   1.876
 3565WAT      O10905   3.176   4.128   3.445
 3565WAT     H110906   3.095   4.126   3.496
 3565WAT     H210907   3.168   4.208   3.392
 3566WAT      O10908   0.390   2.827   0.799
 3566WAT     H110909   0.369   2.736   0.824
 3566WAT     H210910   0.318   2.879   0.834
 3567WAT      O10911   0.475   4.327   1.573
 3567WAT     H110912   0.568   4.350   1.563
 3567WAT     H210913   0.465   4.310   1.667
 3568WAT      O10914   3.190   1.278   2.087
 3568WAT     H110915   3.270   1.315   2.049
 3568WAT     H210916   3.216   1.254   2.176
 3569WAT      O10917   0.121   2.834   5.163
 3569WAT     H110918   0.096   2.874   5.246
 3569WAT     H210919   0.196   2.884   5.132
 3570WAT      O10920   0.095   4.084   3.091
 3570WAT     H110921   0.180   4.122   3.113
 3570WAT     H210922   0.110   4.036   3.010
 3571WAT      O10923   2.831   4.232   1.877
 3571WAT     H110924   2.839   4.198   1.787
 3571WAT     H210925   2.818   4.326   1.865
 3572WAT      O10926   3.197   4.790   1.498
 3572WAT     H110927   3.148   4.811   1.418
 3572WAT     H210928   3.232   4.875   1.526
 3573WAT      O10929   0.191   0.171   2.829
 3573WAT     H110930   0.224   0.110   2.763
 3573WAT     H210931   0.103   0.139   2.849
 3574WAT      O10932   3.607   2.721   0.952
 3574WAT     H110933   3.580   2.804   0.992
 3574WAT     H210934   3.670   2.745   0.885
 3575WAT      O10935   2.663   2.037   3.477
 3575WAT     H110936   2.642   2.102   3.411
 3575WAT     H210937   2.586   1.978   3.479
 3576WAT      O10938   2.023   4.498   0.120
 3576WAT     H110939   1.950   4.537   0.168
 3576WAT     H210940   2.082   4.466   0.189
 3577WAT      O10941   1.869   4.497   3.322
 3577WAT     H110942   1.964   4.499   3.338
 3577WAT     H210943   1.841   4.410   3.350
 3578WAT      O10944   0.137   2.013   0.995
 3578WAT     H110945   0.128   1.925   0.957
 3578WAT     H210946   0.201   2.002   1.065
 3579WAT      O10947   2.278   1.093   0.030
 3579WAT     H110948   2.353   1.065  -0.024
 3579WAT     H210949   2.216   1.020   0.023
 3580WAT      O10950   3.366   2.374   1.554
 3580WAT     H110951   3.274   2.352   1.544
 3580WAT     H210952   3.408   2.338   1.476
 3581WAT      O10953   1.538   3.001   4.444
 3581WAT     H110954   1.470   2.957   4.495
 3581WAT     H210955   1.505   3.090   4.432
 3582WAT      O10956   0.545   2.715   2.100
 3582WAT     H110957   0.576   2.667   2.022
 3582WAT     H210958   0.541   2.648   2.168
 3583WAT      O10959   1.973   3.115   2.894
 3583WAT     H110960   2.002   3.194   2.940
 3583WAT     H210961   1.910   3.075   2.954
 3584WAT      O10962   2.954   0.681   1.753
 3584WAT     H110963   2.867   0.720   1.740
 3584WAT     H210964   3.012   0.734   1.698
 3585WAT      O10965   0.784   1.908   5.026
 3585WAT     H110966   0.816   1.975   4.968
 3585WAT     H210967   0.816   1.826   4.988
 3586WAT      O10968   2.014   2.189   2.056
 3586WAT     H110969   2.080   2.121   2.060
 3586WAT     H210970   1.978   2.183   1.968
 3587WAT      O10971   4.428   0.053   1.543
 3587WAT     H110972   4.429   0.143   1.509
 3587WAT     H210973   4.457  -0.001   1.469
 3588WAT      O10974   3.350   1.995   4.888
 3588WAT     H110975   3.444   2.013   4.892
 3588WAT     H210976   3.343   1.912   4.842
 3589WAT      O10977   2.884   3.005   2.488
 3589WAT     H110978   2.877   2.972   2.399
 3589WAT     H210979   2.794   3.005   2.521
 3590WAT      O10980   4.144   0.611   2.732
 3590WAT     H110981   4.161   0.645   2.820
 3590WAT     H210982   4.051   0.627   2.718
 3591WAT      O10983   3.430   0.789   1.311
 3591WAT     H110984   3.348   0.749   1.342
 3591WAT     H210985   3.460   0.843   1.384
 3592WAT      O10986   1.561   2.771   3.879
 3592WAT     H110987   1.545   2.769   3.973
 3592WAT     H210988   1.519   2.692   3.846
 3593WAT      O10989   1.415   4.598   0.870
 3593WAT     H110990   1.456   4.595   0.783
 3593WAT     H210991   1.432   4.687   0.902
 3594WAT      O10992   1.079   4.871   0.203
 3594WAT     H110993   1.005   4.914   0.161
 3594WAT     H210994   1.054   4.865   0.296
 3595WAT      O10995   4.132   4.561   3.405
 3595WAT     H110996   4.050   4.610   3.391
 3595WAT     H210997   4.193   4.600   3.343
 3596WAT      O10998   4.320   1.691   4.100
 3596WAT     H110999   4.406   1.724   4.125
 3596WAT     H211000   4.269   1.770   4.080
 3597WAT      O11001   0.372   2.445   2.683
 3597WAT     H111002   0.342   2.384   2.750
 3597WAT     H211003   0.420   2.512   2.732
 3598WAT      O11004   0.672   1.452   4.553
 3598WAT     H111005   0.610   1.426   4.622
 3598WAT     H211006   0.700   1.370   4.514
 3599WAT      O11007   0.360   4.478   3.829
 3599WAT     H111008   0.314   4.411   3.879
 3599WAT     H211009   0.302   4.496   3.755
 3600WAT      O11010   4.302   2.628   0.036
 3600WAT     H111011   4.395   2.607   0.050
 3600WAT     H211012   4.291   2.716   0.072
 3601WAT      O11013   1.046   3.222   4.162
 3601WAT     H111014   1.039   3.288   4.232
 3601WAT     H211015   1.010   3.267   4.085
 3602WAT      O11016   2.689   2.972   0.179
 3602WAT     H111017   2.681   2.964   0.084
 3602WAT     H211018   2.775   2.936   0.199
 3603WAT      O11019   0.999   1.231   2.584
 3603WAT     H111020   1.046   1.152   2.615
 3603WAT     H211021   0.943   1.198   2.514
 3604WAT      O11022   2.677   4.571   1.050
 3604WAT     H111023   2.664   4.628   0.974
 3604WAT     H211024   2.636   4.618   1.123
 3605WAT      O11025   2.732   4.441   0.468
 3605WAT     H111026   2.781   4.467   0.390
 3605WAT     H211027   2.790   4.464   0.541
 3606WAT      O11028   4.462   4.332   1.090
 3606WAT     H111029   4.526   4.274   1.131
 3606WAT     H211030   4.512   4.412   1.070
 3607WAT      O11031   3.648   3.243   2.589
 3607WAT     H111032   3.651   3.246   2.685
 3607WAT     H211033   3.578   3.183   2.568
 3608WAT      O11034   3.798   3.906   1.152
 3608WAT     H111035   3.875   3.873   1.106
 3608WAT     H211036   3.724   3.867   1.105
 3609WAT      O11037   0.593   4.495   0.203
 3609WAT     H111038   0.552   4.431   0.146
 3609WAT     H211039   0.623   4.444   0.279
 3610WAT      O11040   2.473   3.576   4.602
 3610WAT     H111041   2.536   3.648   4.608
 3610WAT     H211042   2.438   3.583   4.513
 3611WAT      O11043   3.237   2.505   0.447
 3611WAT     H111044   3.215   2.597   0.463
 3611WAT     H211045   3.159   2.467   0.406
 3612WAT      O11046   3.171   1.060   2.457
 3612WAT     H111047   3.180   0.984   2.516
 3612WAT     H211048   3.253   1.107   2.467
 3613WAT      O11049   2.245   1.267   0.936
 3613WAT     H111050   2.227   1.361   0.947
 3613WAT     H211051   2.200   1.226   1.010
 3614WAT      O11052   3.946   1.353   3.180
 3614WAT     H111053   3.886   1.290   3.140
 3614WAT     H211054   3.997   1.387   3.106
 3615WAT      O11055   1.263   1.343   4.243
 3615WAT     H111056   1.253   1.412   4.309
 3615WAT     H211057   1.301   1.268   4.290
 3616WAT      O11058   3.648   4.056   3.920
 3616WAT     H111059   3.606   4.139   3.940
 3616WAT     H211060   3.741   4.072   3.933
 3617WAT      O11061   1.124   2.805   3.592
 3617WAT     H111062   1.048   2.763   3.552
 3617WAT     H211063   1.088   2.873   3.649
 3618WAT      O11064   0.328   3.219   1.559
 3618WAT     H111065   0.313   3.299   1.509
 3618WAT     H211066   0.245   3.172   1.555
 3619WAT      O11067   2.320   3.325   0.936
 3619WAT     H111068   2.345   3.373   0.857
 3619WAT     H211069   2.336   3.386   1.008
 3620WAT      O11070   3.318   3.604   5.175
 3620WAT     H111071   3.338   3.511   5.160
 3620WAT     H211072   3.271   3.631   5.096
 3621WAT      O11073   3.040   0.579   5.034
 3621WAT     H111074   3.008   0.662   5.069
 3621WAT     H211075   3.106   0.551   5.097
 3622WAT      O11076   2.261   3.617   1.753
 3622WAT     H111077   2.171   3.584   1.746
 3622WAT     H211078   2.253   3.698   1.803
 3623WAT      O11079   0.358   1.129   3.737
 3623WAT     H111080   0.434   1.070   3.733
 3623WAT     H211081   0.342   1.152   3.647
 3624WAT      O11082   1.032   5.102   4.498
 3624WAT     H111083   1.090   5.028   4.479
 3624WAT     H211084   1.083   5.180   4.474
 3625WAT      O11085   2.362   0.150   4.404
 3625WAT     H111086   2.431   0.084   4.407
 3625WAT     H211087   2.380   0.207   4.479
 3626WAT      O11088   1.346   1.581   1.147
 3626WAT     H111089   1.320   1.543   1.063
 3626WAT     H211090   1.265   1.591   1.196
 3627WAT      O11091   3.101   1.177   2.687
 3627WAT     H111092   3.108   1.180   2.592
 3627WAT     H211093   3.007   1.182   2.705
 3628WAT      O11094   1.559   2.531   0.384
 3628WAT     H111095   1.580   2.500   0.472
 3628WAT     H211096   1.642   2.559   0.347
 3629WAT      O11097   2.107   1.702   1.881
 3629WAT     H111098   2.137   1.709   1.790
 3629WAT     H211099   2.151   1.772   1.927
 3630WAT      O11100   3.317   4.968   1.007
 3630WAT     H111101   3.284   4.989   1.094
 3630WAT     H211102   3.271   4.888   0.982
 3631WAT      O11103   3.945   4.714   4.062
 3631WAT     H111104   3.935   4.768   3.983
 3631WAT     H211105   3.888   4.755   4.126
 3632WAT      O11106   3.760   0.556   4.689
 3632WAT     H111107   3.815   0.484   4.658
 3632WAT     H211108   3.817   0.632   4.687
 3633WAT      O11109   0.548   2.202   0.555
 3633WAT     H111110   0.498   2.217   0.636
 3633WAT     H211111   0.484   2.216   0.485
 3634WAT      O11112   0.157   1.235   4.379
 3634WAT     H111113   0.217   1.170   4.341
 3634WAT     H211114   0.094   1.254   4.309
 3635WAT      O11115   1.485   4.311   5.199
 3635WAT     H111116   1.455   4.274   5.116
 3635WAT     H211117   1.572   4.272   5.212
 3636WAT      O11118   1.466   3.321   0.476
 3636WAT     H111119   1.506   3.390   0.528
 3636WAT     H211120   1.495   3.339   0.386
 3637WAT      O11121   0.148   3.012   0.361
 3637WAT     H111122   0.237   3.038   0.338
 3637WAT     H211123   0.158   2.966   0.445
 3638WAT      O11124   3.767   4.188   0.900
 3638WAT     H111125   3.798   4.274   0.874
 3638WAT     H211126   3.729   4.201   0.987
 3639WAT      O11127   1.427   0.820   0.668
 3639WAT     H111128   1.346   0.862   0.641
 3639WAT     H211129   1.475   0.889   0.714
 3640WAT      O11130   2.520   3.064   0.372
 3640WAT     H111131   2.452   2.997   0.377
 3640WAT     H211132   2.577   3.035   0.301
 3641WAT      O11133   0.673   2.210   1.798
 3641WAT     H111134   0.640   2.296   1.772
 3641WAT     H211135   0.689   2.220   1.892
 3642WAT      O11136   2.132   3.543   1.163
 3642WAT     H111137   2.049   3.547   1.211
 3642WAT     H211138   2.196   3.516   1.229
 3643WAT      O11139   2.025   2.617   0.392
 3643WAT     H111140   2.027   2.636   0.486
 3643WAT     H211141   1.935   2.589   0.375
 3644WAT      O11142   3.838   2.857   2.441
 3644WAT     H111143   3.759   2.860   2.387
 3644WAT     H211144   3.896   2.923   2.403
 3645WAT      O11145   0.462   5.035   5.196
 3645WAT     H111146   0.541   5.084   5.173
 3645WAT     H211147   0.481   4.998   5.282
 3646WAT      O11148   3.122   0.290   2.613
 3646WAT     H111149   3.170   0.211   2.587
 3646WAT     H211150   3.155   0.309   2.701
 3647WAT      O11151   3.815   2.681   0.250
 3647WAT     H111152   3.848   2.697   0.162
 3647WAT     H211153   3.831   2.762   0.297
 3648WAT      O11154   2.715   0.823   0.126
 3648WAT     H111155   2.769   0.875   0.184
 3648WAT     H211156   2.650   0.781   0.184
 3649WAT      O11157   3.064   4.083   2.159
 3649WAT     H111158   3.108   4.020   2.102
 3649WAT     H211159   2.975   4.090   2.124
 3650WAT      O11160   4.221   1.833   4.493
 3650WAT     H111161   4.268   1.751   4.489
 3650WAT     H211162   4.128   1.808   4.499
 3651WAT      O11163   3.678   4.774   5.150
 3651WAT     H111164   3.649   4.826   5.075
 3651WAT     H211165   3.760   4.813   5.177
 3652WAT      O11166   2.553   1.669   5.243
 3652WAT     H111167   2.618   1.737   5.225
 3652WAT     H211168   2.470   1.708   5.219
 3653WAT      O11169   0.808   1.968   3.716
 3653WAT     H111170   0.730   2.015   3.744
 3653WAT     H211171   0.774   1.896   3.662
 3654WAT      O11172   1.233   1.655   3.153
 3654WAT     H111173   1.268   1.675   3.067
 3654WAT     H211174   1.164   1.590   3.135
 3655WAT      O11175   0.009   1.244   4.644
 3655WAT     H111176  -0.022   1.331   4.620
 3655WAT     H211177   0.061   1.216   4.568
 3656WAT      O11178   0.218   0.692   1.843
 3656WAT     H111179   0.184   0.602   1.845
 3656WAT     H211180   0.226   0.712   1.750
 3657WAT      O11181   2.320   4.196   3.819
 3657WAT     H111182   2.292   4.110   3.850
 3657WAT     H211183   2.239   4.248   3.818
 3658WAT      O11184   0.649   1.182   4.230
 3658WAT     H111185   0.563   1.142   4.241
 3658WAT     H211186   0.660   1.188   4.136
 3659WAT      O11187   3.720   1.127   5.268
 3659WAT     H111188   3.803   1.104   5.226
 3659WAT     H211189   3.717   1.073   5.347
 3660WAT      O11190   4.421   1.955   0.409
 3660WAT     H111191   4.460   1.873   0.378
 3660WAT     H211192   4.428   2.014   0.334
 3661WAT      O11193   3.946   3.833   0.319
 3661WAT     H111194   3.878   3.782   0.275
 3661WAT     H211195   3.900   3.882   0.387
 3662WAT      O11196   0.850   0.969   4.813
 3662WAT     H111197   0.894   0.996   4.894
 3662WAT     H211198   0.765   0.936   4.843
 3663WAT      O11199   3.452   4.004   4.555
 3663WAT     H111200   3.543   3.975   4.558
 3663WAT     H211201   3.424   3.986   4.466
 3664WAT      O11202   0.322   2.379   1.094
 3664WAT     H111203   0.351   2.326   1.019
 3664WAT     H211204   0.228   2.390   1.079
 3665WAT      O11205   1.125   1.488   2.780
 3665WAT     H111206   1.088   1.412   2.736
 3665WAT     H211207   1.078   1.561   2.743
 3666WAT      O11208   1.696   4.166   4.784
 3666WAT     H111209   1.668   4.127   4.867
 3666WAT     H211210   1.742   4.246   4.809
 3667WAT      O11211   3.537   4.805   0.964
 3667WAT     H111212   3.594   4.844   1.029
 3667WAT     H211213   3.463   4.865   0.957
 3668WAT      O11214   4.066   3.172   4.317
 3668WAT     H111215   4.069   3.091   4.266
 3668WAT     H211216   4.116   3.150   4.397
 3669WAT      O11217   1.140   4.318   4.319
 3669WAT     H111218   1.219   4.367   4.298
 3669WAT     H211219   1.161   4.273   4.401
 3670WAT      O11220   1.981   1.231   3.292
 3670WAT     H111221   1.918   1.284   3.241
 3670WAT     H211222   2.036   1.189   3.226
 3671WAT      O11223   1.093   4.663   3.756
 3671WAT     H111224   1.168   4.660   3.816
 3671WAT     H211225   1.119   4.608   3.683
 3672WAT      O11226   0.889   2.228   2.311
 3672WAT     H111227   0.889   2.322   2.320
 3672WAT     H211228   0.916   2.196   2.397
 3673WAT      O11229   0.451   0.597   4.846
 3673WAT     H111230   0.518   0.532   4.863
 3673WAT     H211231   0.499   0.679   4.834
 3674WAT      O11232   2.534   0.348   1.531
 3674WAT     H111233   2.473   0.310   1.468
 3674WAT     H211234   2.592   0.275   1.555
 3675WAT      O11235   3.082   2.241   4.964
 3675WAT     H111236   3.134   2.255   4.885
 3675WAT     H211237   3.016   2.309   4.962
 3676WAT      O11238   4.205   2.266   4.153
 3676WAT     H111239   4.126   2.235   4.197
 3676WAT     H211240   4.172   2.318   4.080
 3677WAT      O11241   0.951   2.544   2.000
 3677WAT     H111242   0.862   2.525   1.970
 3677WAT     H211243   1.000   2.463   1.987
 3678WAT      O11244   0.239   1.017   2.929
 3678WAT     H111245   0.251   0.981   2.841
 3678WAT     H211246   0.313   0.981   2.979
 3679WAT      O11247   0.202   4.498   5.131
 3679WAT     H111248   0.193   4.441   5.207
 3679WAT     H211249   0.288   4.539   5.142
 3680WAT      O11250   3.151   3.409   4.144
 3680WAT     H111251   3.070   3.362   4.126
 3680WAT     H211252   3.199   3.404   4.061
 3681WAT      O11253   0.160   2.209   3.755
 3681WAT     H111254   0.098   2.209   3.681
 3681WAT     H211255   0.131   2.281   3.810
 3682WAT      O11256   4.109   1.215   4.963
 3682WAT     H111257   4.176   1.254   4.906
 3682WAT     H211258   4.037   1.278   4.961
 3683WAT      O11259   4.515   4.116   4.958
 3683WAT     H111260   4.428   4.078   4.972
 3683WAT     H211261   4.497   4.207   4.933
 3684WAT      O11262   3.046   3.507   2.224
 3684WAT     H111263   2.990   3.429   2.234
 3684WAT     H211264   3.006   3.572   2.282
 3685WAT      O11265   3.291   2.926   1.145
 3685WAT     H111266   3.268   2.865   1.076
 3685WAT     H211267   3.286   2.874   1.226
 3686WAT      O11268   0.045   2.763   2.461
 3686WAT     H111269   0.003   2.679   2.446
 3686WAT     H211270  -0.009   2.826   2.412
 3687WAT      O11271   0.095   0.453   2.770
 3687WAT     H111272   0.108   0.359   2.779
 3687WAT     H211273   0.002   0.463   2.751
 3688WAT      O11274   3.379   1.656   0.084
 3688WAT     H111275   3.449   1.722   0.082
 3688WAT     H211276   3.409   1.591   0.147
 3689WAT      O11277   1.149   0.823   0.420
 3689WAT     H111278   1.204   0.836   0.342
 3689WAT     H211279   1.063   0.800   0.385
 3690WAT      O11280   4.147   4.544   4.159
 3690WAT     H111281   4.229   4.588   4.182
 3690WAT     H211282   4.088   4.616   4.133
 3691WAT      O11283   2.052   0.759   1.601
 3691WAT     H111284   1.992   0.741   1.672
 3691WAT     H211285   2.082   0.674   1.570
 3692WAT      O11286   3.927   0.222   4.246
 3692WAT     H111287   3.930   0.137   4.203
 3692WAT     H211288   3.974   0.209   4.328
 3693WAT      O11289   0.676   3.022   2.955
 3693WAT     H111290   0.585   3.029   2.984
 3693WAT     H211291   0.711   3.110   2.963
 3694WAT      O11292   2.559   3.367   3.874
 3694WAT     H111293   2.480   3.412   3.844
 3694WAT     H211294   2.530   3.279   3.895
 3695WAT      O11295   1.119   2.747   3.147
 3695WAT     H111296   1.080   2.740   3.060
 3695WAT     H211297   1.140   2.656   3.171
 3696WAT      O11298   1.875   2.177   1.818
 3696WAT     H111299   1.870   2.137   1.731
 3696WAT     H211300   1.827   2.260   1.809
 3697WAT      O11301   1.017   0.106   3.292
 3697WAT     H111302   1.109   0.127   3.303
 3697WAT     H211303   1.008   0.019   3.331
 3698WAT      O11304   0.880   4.025   1.608
 3698WAT     H111305   0.804   3.982   1.647
 3698WAT     H211306   0.890   4.106   1.658
 3699WAT      O11307   0.848   2.107   4.282
 3699WAT     H111308   0.778   2.156   4.326
 3699WAT     H211309   0.804   2.061   4.210
 3700WAT      O11310   1.185   1.412   2.115
 3700WAT     H111311   1.090   1.402   2.119
 3700WAT     H211312   1.199   1.497   2.072
 3701WAT      O11313   0.040   2.512   2.077
 3701WAT     H111314   0.090   2.595   2.076
 3701WAT     H211315  -0.047   2.537   2.048
 3702WAT      O11316   1.749   3.114   1.265
 3702WAT     H111317   1.734   3.065   1.184
 3702WAT     H211318   1.674   3.091   1.320
 3703WAT      O11319   0.945   0.521   3.603
 3703WAT     H111320   0.849   0.528   3.606
 3703WAT     H211321   0.961   0.428   3.586
 3704WAT      O11322   0.859   4.267   1.757
 3704WAT     H111323   0.797   4.266   1.830
 3704WAT     H211324   0.945   4.270   1.798
 3705WAT      O11325   4.281   3.834   3.346
 3705WAT     H111326   4.203   3.801   3.301
 3705WAT     H211327   4.284   3.926   3.323
 3706WAT      O11328   4.399   1.320   4.289
 3706WAT     H111329   4.369   1.251   4.350
 3706WAT     H211330   4.335   1.389   4.299
 3707WAT      O11331   3.258   1.777   0.344
 3707WAT     H111332   3.313   1.854   0.350
 3707WAT     H211333   3.319   1.704   0.352
 3708WAT      O11334   4.357   1.570   0.218
 3708WAT     H111335   4.421   1.619   0.269
 3708WAT     H211336   4.289   1.635   0.198
 3709WAT      O11337   0.006   2.728   1.065
 3709WAT     H111338  -0.020   2.641   1.036
 3709WAT     H211339   0.088   2.746   1.020
 3710WAT      O11340   1.888   0.448   1.737
 3710WAT     H111341   1.840   0.506   1.678
 3710WAT     H211342   1.837   0.449   1.818
 3711WAT      O11343   2.354   0.095   0.483
 3711WAT     H111344   2.328   0.186   0.499
 3711WAT     H211345   2.277   0.055   0.442
 3712WAT      O11346   2.373   4.882   2.714
 3712WAT     H111347   2.455   4.878   2.665
 3712WAT     H211348   2.335   4.967   2.691
 3713WAT      O11349   4.311   4.255   1.746
 3713WAT     H111350   4.308   4.176   1.799
 3713WAT     H211351   4.248   4.241   1.676
 3714WAT      O11352   4.018   0.388   2.961
 3714WAT     H111353   4.108   0.416   2.976
 3714WAT     H211354   3.966   0.469   2.969
 3715WAT      O11355   1.187   2.728   1.344
 3715WAT     H111356   1.160   2.748   1.254
 3715WAT     H211357   1.128   2.656   1.370
 3716WAT      O11358   0.037   3.098   2.500
 3716WAT     H111359   0.033   3.030   2.566
 3716WAT     H211360   0.130   3.104   2.477
 3717WAT      O11361   1.127   4.519   2.414
 3717WAT     H111362   1.114   4.518   2.320
 3717WAT     H211363   1.047   4.480   2.450
 3718WAT      O11364   1.829   1.228   1.722
 3718WAT     H111365   1.738   1.208   1.701
 3718WAT     H211366   1.825   1.269   1.809
 3719WAT      O11367   2.066   4.875   0.598
 3719WAT     H111368   2.154   4.857   0.632
 3719WAT     H211369   2.080   4.943   0.533
 3720WAT      O11370   0.528   0.548   2.559
 3720WAT     H111371   0.462   0.610   2.529
 3720WAT     H211372   0.482   0.464   2.565
 3721WAT      O11373   2.752   3.584   0.302
 3721WAT     H111374   2.666   3.615   0.332
 3721WAT     H211375   2.807   3.662   0.304
 3722WAT      O11376   1.282   0.064   2.529
 3722WAT     H111377   1.228   0.046   2.607
 3722WAT     H211378   1.343   0.132   2.558
 3723WAT      O11379   0.949   3.996   2.251
 3723WAT     H111380   0.934   4.082   2.213
 3723WAT     H211381   0.983   4.013   2.339
 3724WAT      O11382   0.563   2.567   4.155
 3724WAT     H111383   0.585   2.562   4.248
 3724WAT     H211384   0.585   2.656   4.130
 3725WAT      O11385   2.498   4.793   0.963
 3725WAT     H111386   2.460   4.813   0.877
 3725WAT     H211387   2.428   4.748   1.010
 3726WAT      O11388   0.457   0.951   0.051
 3726WAT     H111389   0.457   1.023   0.114
 3726WAT     H211390   0.417   0.987  -0.028
 3727WAT      O11391   0.217   3.110   4.350
 3727WAT     H111392   0.238   3.193   4.394
 3727WAT     H211393   0.169   3.135   4.272
 3728WAT      O11394   3.570   1.852   0.094
 3728WAT     H111395   3.585   1.928   0.038
 3728WAT     H211396   3.544   1.889   0.179
 3729WAT      O11397   3.303   3.559   2.942
 3729WAT     H111398   3.290   3.646   2.903
 3729WAT     H211399   3.249   3.501   2.889
 3730WAT      O11400   0.519   3.352   1.194
 3730WAT     H111401   0.440   3.385   1.237
 3730WAT     H211402   0.563   3.299   1.260
 3731WAT      O11403   2.656   3.062   4.364
 3731WAT     H111404   2.636   2.979   4.409
 3731WAT     H211405   2.748   3.055   4.338
 3732WAT      O11406   2.248   0.254   4.837
 3732WAT     H111407   2.297   0.194   4.893
 3732WAT     H211408   2.183   0.198   4.794
 3733WAT      O11409   1.587   3.190   2.802
 3733WAT     H111410   1.541   3.199   2.886
 3733WAT     H211411   1.533   3.240   2.741
 3734WAT      O11412   4.391   0.683   3.589
 3734WAT     H111413   4.377   0.732   3.670
 3734WAT     H211414   4.467   0.725   3.548
 3735WAT      O11415   0.585   0.525   2.299
 3735WAT     H111416   0.678   0.543   2.287
 3735WAT     H211417   0.576   0.508   2.393
 3736WAT      O11418   1.485   0.522   3.589
 3736WAT     H111419   1.435   0.583   3.534
 3736WAT     H211420   1.529   0.579   3.653
 3737WAT      O11421   1.241   1.225   0.545
 3737WAT     H111422   1.311   1.162   0.529
 3737WAT     H211423   1.285   1.310   0.548
 3738WAT      O11424   1.453   4.081   3.527
 3738WAT     H111425   1.417   4.163   3.559
 3738WAT     H211426   1.547   4.088   3.543
 3739WAT      O11427   0.580   0.265   3.215
 3739WAT     H111428   0.667   0.239   3.184
 3739WAT     H211429   0.590   0.274   3.310
 3740WAT      O11430   2.347   4.245   1.123
 3740WAT     H111431   2.425   4.189   1.123
 3740WAT     H211432   2.333   4.266   1.030
 3741WAT      O11433   2.465   0.942   2.768
 3741WAT     H111434   2.498   0.860   2.805
 3741WAT     H211435   2.399   0.915   2.704
 3742WAT      O11436   1.977   2.564   3.877
 3742WAT     H111437   1.955   2.655   3.852
 3742WAT     H211438   1.894   2.518   3.876
 3743WAT      O11439   4.093   5.122   4.663
 3743WAT     H111440   4.182   5.098   4.690
 3743WAT     H211441   4.057   5.042   4.624
 3744WAT      O11442   0.383   3.821   3.822
 3744WAT     H111443   0.431   3.738   3.823
 3744WAT     H211444   0.440   3.881   3.773
 3745WAT      O11445   4.426   2.202   3.222
 3745WAT     H111446   4.472   2.202   3.306
 3745WAT     H211447   4.353   2.262   3.235
 3746WAT      O11448   4.381   1.790   0.649
 3746WAT     H111449   4.406   1.879   0.621
 3746WAT     H211450   4.285   1.790   0.642
 3747WAT      O11451   0.649   3.652   3.811
 3747WAT     H111452   0.711   3.595   3.765
 3747WAT     H211453   0.689   3.739   3.808
 3748WAT      O11454   0.424   4.333   2.919
 3748WAT     H111455   0.349   4.392   2.911
 3748WAT     H211456   0.398   4.270   2.987
 3749WAT      O11457   3.370   1.114   2.793
 3749WAT     H111458   3.437   1.182   2.793
 3749WAT     H211459   3.291   1.159   2.760
 3750WAT      O11460   1.643   0.768   2.574
 3750WAT     H111461   1.550   0.757   2.553
 3750WAT     H211462   1.644   0.827   2.649
 3751WAT      O11463   4.339   2.743   0.664
 3751WAT     H111464   4.298   2.821   0.704
 3751WAT     H211465   4.323   2.673   0.726
 3752WAT      O11466   4.177   0.363   5.091
 3752WAT     H111467   4.269   0.354   5.066
 3752WAT     H211468   4.172   0.447   5.137
 3753WAT      O11469   3.525   1.185   4.272
 3753WAT     H111470   3.539   1.090   4.280
 3753WAT     H211471   3.438   1.192   4.232
 3754WAT      O11472   1.136   0.068   5.172
 3754WAT     H111473   1.132   0.000   5.105
 3754WAT     H211474   1.044   0.094   5.185
 3755WAT      O11475   2.593   3.874   4.134
 3755WAT     H111476   2.642   3.916   4.205
 3755WAT     H211477   2.660   3.849   4.070
 3756WAT      O11478   0.159   0.627   2.951
 3756WAT     H111479   0.132   0.560   2.890
 3756WAT     H211480   0.254   0.631   2.941
 3757WAT      O11481   4.293   4.793   2.764
 3757WAT     H111482   4.263   4.706   2.740
 3757WAT     H211483   4.351   4.779   2.839
 3758WAT      O11484   1.435   1.198   3.453
 3758WAT     H111485   1.394   1.173   3.535
 3758WAT     H211486   1.375   1.262   3.414
 3759WAT      O11487   3.004   0.512   1.019
 3759WAT     H111488   2.995   0.530   1.113
 3759WAT     H211489   3.068   0.442   1.014
 3760WAT      O11490   2.237   0.143   4.146
 3760WAT     H111491   2.195   0.057   4.142
 3760WAT     H211492   2.258   0.155   4.238
 3761WAT      O11493   1.157   0.315   2.963
 3761WAT     H111494   1.222   0.253   2.931
 3761WAT     H211495   1.200   0.401   2.957
 3762WAT      O11496   4.126   0.574   1.736
 3762WAT     H111497   4.184   0.574   1.813
 3762WAT     H211498   4.091   0.485   1.733
 3763WAT      O11499   1.194   0.477   2.214
 3763WAT     H111500   1.277   0.442   2.181
 3763WAT     H211501   1.208   0.571   2.219
 3764WAT      O11502   0.888   3.923   4.121
 3764WAT     H111503   0.931   4.008   4.113
 3764WAT     H211504   0.812   3.929   4.062
 3765WAT      O11505   3.963   4.977   1.031
 3765WAT     H111506   3.893   4.939   1.085
 3765WAT     H211507   4.015   5.028   1.092
 3766WAT      O11508   2.753   4.478   1.892
 3766WAT     H111509   2.823   4.542   1.901
 3766WAT     H211510   2.672   4.529   1.899
 3767WAT      O11511   0.150   0.755   4.532
 3767WAT     H111512   0.238   0.791   4.542
 3767WAT     H211513   0.156   0.696   4.457
 3768WAT      O11514   2.968   2.795   4.951
 3768WAT     H111515   2.880   2.801   4.914
 3768WAT     H211516   3.023   2.847   4.892
 3769WAT      O11517   2.143   0.965   1.353
 3769WAT     H111518   2.148   0.998   1.443
 3769WAT     H211519   2.114   0.874   1.362
 3770WAT      O11520   1.642   1.876   4.582
 3770WAT     H111521   1.628   1.967   4.607
 3770WAT     H211522   1.677   1.880   4.493
 3771WAT      O11523   3.102   3.800   1.581
 3771WAT     H111524   3.193   3.781   1.557
 3771WAT     H211525   3.052   3.729   1.541
 3772WAT      O11526   1.364   1.939   3.703
 3772WAT     H111527   1.371   1.866   3.643
 3772WAT     H211528   1.272   1.942   3.729
 3773WAT      O11529   0.930   3.789   2.511
 3773WAT     H111530   0.893   3.783   2.422
 3773WAT     H211531   0.993   3.861   2.506
 3774WAT      O11532   0.039   4.465   2.671
 3774WAT     H111533   0.051   4.447   2.764
 3774WAT     H211534  -0.026   4.402   2.642
 3775WAT      O11535   4.234   4.276   3.649
 3775WAT     H111536   4.217   4.191   3.690
 3775WAT     H211537   4.255   4.334   3.722
 3776WAT      O11538   2.246   3.108   0.211
 3776WAT     H111539   2.329   3.153   0.197
 3776WAT     H211540   2.267   3.015   0.202
 3777WAT      O11541   1.340   4.968   1.424
 3777WAT     H111542   1.425   4.932   1.448
 3777WAT     H211543   1.348   4.989   1.331
 3778WAT      O11544   3.384   2.938   4.317
 3778WAT     H111545   3.416   2.940   4.407
 3778WAT     H211546   3.393   3.026   4.285
 3779WAT      O11547   2.080   0.701   0.737
 3779WAT     H111548   2.045   0.767   0.676
 3779WAT     H211549   2.004   0.649   0.762
 3780WAT      O11550   2.758   3.435   0.999
 3780WAT     H111551   2.741   3.456   0.907
 3780WAT     H211552   2.815   3.506   1.029
 3781WAT      O11553   3.631   4.574   1.182
 3781WAT     H111554   3.547   4.616   1.200
 3781WAT     H211555   3.689   4.606   1.251
 3782WAT      O11556   4.206   4.543   2.717
 3782WAT     H111557   4.200   4.450   2.694
 3782WAT     H211558   4.165   4.548   2.804
 3783WAT      O11559   1.686   1.915   3.457
 3783WAT     H111560   1.744   1.866   3.516
 3783WAT     H211561   1.622   1.850   3.428
 3784WAT      O11562   0.191   4.730   3.140
 3784WAT     H111563   0.271   4.766   3.102
 3784WAT     H211564   0.131   4.804   3.145
 3785WAT      O11565   1.637   5.109   4.965
 3785WAT     H111566   1.729   5.135   4.957
 3785WAT     H211567   1.611   5.084   4.876
 3786WAT      O11568   4.496   2.689   4.783
 3786WAT     H111569   4.490   2.663   4.875
 3786WAT     H211570   4.564   2.756   4.782
 3787WAT      O11571   3.387   0.305   0.706
 3787WAT     H111572   3.356   0.395   0.699
 3787WAT     H211573   3.482   0.312   0.697
 3788WAT      O11574   3.775   0.366   4.052
 3788WAT     H111575   3.840   0.343   4.118
 3788WAT     H211576   3.746   0.454   4.077
 3789WAT      O11577   2.586   3.893   0.299
 3789WAT     H111578   2.561   3.819   0.355
 3789WAT     H211579   2.503   3.925   0.264
 3790WAT      O11580   2.386   0.032   3.357
 3790WAT     H111581   2.458  -0.012   3.312
 3790WAT     H211582   2.315  -0.032   3.357
 3791WAT      O11583   0.189   4.727   3.915
 3791WAT     H111584   0.242   4.660   3.873
 3791WAT     H211585   0.198   4.710   4.009
 3792WAT      O11586   0.376   1.692   4.181
 3792WAT     H111587   0.338   1.761   4.236
 3792WAT     H211588   0.394   1.619   4.242
 3793WAT      O11589   3.380   1.050   1.221
 3793WAT     H111590   3.286   1.050   1.204
 3793WAT     H211591   3.400   0.959   1.246
 3794WAT      O11592   1.453   1.337   1.984
 3794WAT     H111593   1.363   1.328   2.014
 3794WAT     H211594   1.494   1.396   2.048
 3795WAT      O11595   1.902   2.513   0.941
 3795WAT     H111596   1.930   2.531   1.031
 3795WAT     H211597   1.957   2.440   0.913
 3796WAT      O11598   1.624   1.898   0.108
 3796WAT     H111599   1.614   1.866   0.019
 3796WAT     H211600   1.545   1.948   0.125
 3797WAT      O11601   0.414   2.563   3.452
 3797WAT     H111602   0.331   2.516   3.462
 3797WAT     H211603   0.391   2.643   3.405
 3798WAT      O11604   3.110   4.786   0.543
 3798WAT     H111605   3.088   4.695   0.561
 3798WAT     H211606   3.138   4.822   0.627
 3799WAT      O11607   4.200   0.585   0.548
 3799WAT     H111608   4.263   0.539   0.493
 3799WAT     H211609   4.123   0.596   0.494
 3800WAT      O11610   2.018   0.131   2.764
 3800WAT     H111611   1.981   0.203   2.814
 3800WAT     H211612   2.048   0.171   2.682
 3801WAT      O11613   2.506   4.902   3.856
 3801WAT     H111614   2.586   4.849   3.856
 3801WAT     H211615   2.532   4.984   3.815
 3802WAT      O11616   3.954   5.098   2.649
 3802WAT     H111617   3.955   5.005   2.672
 3802WAT     H211618   4.030   5.109   2.592
 3803WAT      O11619   1.040   2.793   3.883
 3803WAT     H111620   0.973   2.725   3.875
 3803WAT     H211621   1.099   2.762   3.952
 3804WAT      O11622   1.993   0.635   5.171
 3804WAT     H111623   2.030   0.560   5.215
 3804WAT     H211624   1.903   0.641   5.205
 3805WAT      O11625   2.196   3.431   2.791
 3805WAT     H111626   2.225   3.415   2.881
 3805WAT     H211627   2.245   3.508   2.763
 3806WAT      O11628   4.491   4.208   3.360
 3806WAT     H111629   4.404   4.177   3.335
 3806WAT     H211630   4.550   4.169   3.295
 3807WAT      O11631   4.046   0.830   5.113
 3807WAT     H111632   4.083   0.873   5.037
 3807WAT     H211633   4.019   0.902   5.170
 3808WAT      O11634   2.868   0.925   3.671
 3808WAT     H111635   2.842   0.927   3.579
 3808WAT     H211636   2.898   0.834   3.684
 3809WAT      O11637   1.220   3.582   4.228
 3809WAT     H111638   1.276   3.555   4.155
 3809WAT     H211639   1.224   3.677   4.228
 3810WAT      O11640   4.202   2.979   0.480
 3810WAT     H111641   4.260   2.998   0.553
 3810WAT     H211642   4.208   3.056   0.423
 3811WAT      O11643   3.803   1.741   4.045
 3811WAT     H111644   3.762   1.655   4.037
 3811WAT     H211645   3.862   1.745   3.970
 3812WAT      O11646   4.338   2.170   2.974
 3812WAT     H111647   4.387   2.179   3.056
 3812WAT     H211648   4.257   2.124   2.999
 3813WAT      O11649   1.357   3.707   3.289
 3813WAT     H111650   1.364   3.790   3.243
 3813WAT     H211651   1.447   3.680   3.306
 3814WAT      O11652   0.251   0.742   0.848
 3814WAT     H111653   0.228   0.662   0.800
 3814WAT     H211654   0.325   0.716   0.904
 3815WAT      O11655   1.005   3.392   2.701
 3815WAT     H111656   1.038   3.477   2.671
 3815WAT     H211657   0.927   3.413   2.751
 3816WAT      O11658   3.490   0.505   4.747
 3816WAT     H111659   3.469   0.593   4.777
 3816WAT     H211660   3.574   0.514   4.703
 3817WAT      O11661   3.701   2.391   3.873
 3817WAT     H111662   3.653   2.439   3.806
 3817WAT     H211663   3.650   2.311   3.884
 3818WAT      O11664   4.233   4.727   3.750
 3818WAT     H111665   4.162   4.682   3.795
 3818WAT     H211666   4.189   4.778   3.681
 3819WAT      O11667   2.272   3.951   0.781
 3819WAT     H111668   2.301   3.980   0.868
 3819WAT     H211669   2.240   4.031   0.739
 3820WAT      O11670   2.627   0.851   3.368
 3820WAT     H111671   2.616   0.867   3.462
 3820WAT     H211672   2.546   0.884   3.329
 3821WAT      O11673   4.191   3.808   2.597
 3821WAT     H111674   4.165   3.900   2.599
 3821WAT     H211675   4.150   3.769   2.675
 3822WAT      O11676   1.516   0.292   0.316
 3822WAT     H111677   1.555   0.221   0.265
 3822WAT     H211678   1.424   0.293   0.288
 3823WAT      O11679   2.085   3.804   3.182
 3823WAT     H111680   2.006   3.778   3.133
 3823WAT     H211681   2.112   3.886   3.141
 3824WAT      O11682   3.312   3.468   3.538
 3824WAT     H111683   3.355   3.443   3.620
 3824WAT     H211684   3.224   3.493   3.563
 3825WAT      O11685   0.866   4.499   4.764
 3825WAT     H111686   0.839   4.457   4.846
 3825WAT     H211687   0.957   4.523   4.779
 3826WAT      O11688   3.790   2.275   1.886
 3826WAT     H111689   3.814   2.367   1.877
 3826WAT     H211690   3.703   2.268   1.845
 3827WAT      O11691   2.291   4.195   2.873
 3827WAT     H111692   2.346   4.117   2.864
 3827WAT     H211693   2.283   4.229   2.784
 3828WAT      O11694   0.422   0.282   3.800
 3828WAT     H111695   0.366   0.270   3.877
 3828WAT     H211696   0.361   0.310   3.731
 3829WAT      O11697   2.354   2.702   4.894
 3829WAT     H111698   2.283   2.743   4.844
 3829WAT     H211699   2.390   2.636   4.836
 3830WAT      O11700   1.112   2.308   1.960
 3830WAT     H111701   1.082   2.227   2.003
 3830WAT     H211702   1.205   2.294   1.944
 3831WAT      O11703   2.145   1.739   1.596
 3831WAT     H111704   2.073   1.696   1.549
 3831WAT     H211705   2.222   1.688   1.575
 3832WAT      O11706   1.995   3.616   3.691
 3832WAT     H111707   2.077   3.638   3.646
 3832WAT     H211708   1.948   3.699   3.696
 3833WAT      O11709   1.827   1.055   2.320
 3833WAT     H111710   1.774   1.073   2.243
 3833WAT     H211711   1.912   1.096   2.301
 3834WAT      O11712   0.940   2.940   4.739
 3834WAT     H111713   0.927   3.011   4.675
 3834WAT     H211714   0.912   2.860   4.694
 3835WAT      O11715   3.677   0.595   3.116
 3835WAT     H111716   3.670   0.540   3.194
 3835WAT     H211717   3.608   0.660   3.126
 3836WAT      O11718   3.185   1.304   3.277
 3836WAT     H111719   3.158   1.366   3.208
 3836WAT     H211720   3.103   1.271   3.313
 3837WAT      O11721   4.245   3.943   1.378
 3837WAT     H111722   4.263   3.932   1.285
 3837WAT     H211723   4.313   3.893   1.422
 3838WAT      O11724   4.281   2.412   4.960
 3838WAT     H111725   4.368   2.383   4.989
 3838WAT     H211726   4.248   2.339   4.908
 3839WAT      O11727   0.612   0.939   3.328
 3839WAT     H111728   0.646   0.851   3.345
 3839WAT     H211729   0.687   0.996   3.345
 3840WAT      O11730   2.797   4.956   3.862
 3840WAT     H111731   2.875   4.989   3.907
 3840WAT     H211732   2.828   4.879   3.814
 3841WAT      O11733   3.989   4.617   1.796
 3841WAT     H111734   4.042   4.547   1.836
 3841WAT     H211735   4.011   4.695   1.846
 3842WAT      O11736   3.926   0.833   0.666
 3842WAT     H111737   3.901   0.748   0.629
 3842WAT     H211738   4.008   0.856   0.623
 3843WAT      O11739   4.279   0.248   3.371
 3843WAT     H111740   4.282   0.190   3.294
 3843WAT     H211741   4.371   0.266   3.390
 3844WAT      O11742   0.450   4.013   3.401
 3844WAT     H111743   0.383   4.040   3.464
 3844WAT     H211744   0.490   3.935   3.439
 3845WAT      O11745   1.589   4.526   2.311
 3845WAT     H111746   1.545   4.559   2.388
 3845WAT     H211747   1.519   4.489   2.257
 3846WAT      O11748   0.201   4.576   3.625
 3846WAT     H111749   0.228   4.625   3.547
 3846WAT     H211750   0.113   4.609   3.644
 3847WAT      O11751   0.279   1.997   2.943
 3847WAT     H111752   0.372   1.977   2.941
 3847WAT     H211753   0.254   1.987   3.035
 3848WAT      O11754   1.196   4.220   0.739
 3848WAT     H111755   1.115   4.172   0.755
 3848WAT     H211756   1.234   4.179   0.661
 3849WAT      O11757   1.632   3.847   2.683
 3849WAT     H111758   1.612   3.929   2.637
 3849WAT     H211759   1.575   3.848   2.760
 3850WAT      O11760   3.417   3.260   0.966
 3850WAT     H111761   3.346   3.199   0.946
 3850WAT     H211762   3.402   3.334   0.908
 3851WAT      O11763   1.490   1.597   0.184
 3851WAT     H111764   1.526   1.567   0.101
 3851WAT     H211765   1.563   1.590   0.246
 3852WAT      O11766   3.620   1.558   1.796
 3852WAT     H111767   3.714   1.547   1.806
 3852WAT     H211768   3.609   1.591   1.707
 3853WAT      O11769   2.894   2.498   1.066
 3853WAT     H111770   2.880   2.447   0.986
 3853WAT     H211771   2.821   2.475   1.123
 3854WAT      O11772   1.289   1.142   3.672
 3854WAT     H111773   1.199   1.150   3.703
 3854WAT     H211774   1.327   1.073   3.728
 3855WAT      O11775   1.536   2.651   0.884
 3855WAT     H111776   1.490   2.717   0.937
 3855WAT     H211777   1.496   2.569   0.910
 3856WAT      O11778   2.176   1.223   2.725
 3856WAT     H111779   2.242   1.208   2.657
 3856WAT     H211780   2.093   1.205   2.682
 3857WAT      O11781   1.411   3.865   4.509
 3857WAT     H111782   1.404   3.772   4.487
 3857WAT     H211783   1.321   3.895   4.515
 3858WAT      O11784   3.543   0.394   0.934
 3858WAT     H111785   3.620   0.337   0.936
 3858WAT     H211786   3.579   0.481   0.917
 3859WAT      O11787   1.162   2.554   0.532
 3859WAT     H111788   1.142   2.463   0.555
 3859WAT     H211789   1.174   2.597   0.617
 3860WAT      O11790   1.237   3.320   5.230
 3860WAT     H111791   1.278   3.234   5.237
 3860WAT     H211792   1.188   3.329   5.312
 3861WAT      O11793   4.095   2.081   3.031
 3861WAT     H111794   4.059   2.054   3.116
 3861WAT     H211795   4.025   2.131   2.990
 3862WAT      O11796   4.334   2.525   0.819
 3862WAT     H111797   4.299   2.438   0.830
 3862WAT     H211798   4.413   2.513   0.765
 3863WAT      O11799   1.461   0.243   0.603
 3863WAT     H111800   1.427   0.321   0.646
 3863WAT     H211801   1.497   0.275   0.520
 3864WAT      O11802   0.408   4.866   1.419
 3864WAT     H111803   0.379   4.954   1.394
 3864WAT     H211804   0.500   4.876   1.441
 3865WAT      O11805   4.433   5.125   3.712
 3865WAT     H111806   4.368   5.078   3.764
 3865WAT     H211807   4.506   5.063   3.704
 3866WAT      O11808   1.563   4.353   1.748
 3866WAT     H111809   1.520   4.272   1.774
 3866WAT     H211810   1.571   4.404   1.829
 3867WAT      O11811   2.902   1.015   0.513
 3867WAT     H111812   2.849   1.065   0.452
 3867WAT     H211813   2.866   1.037   0.599
 3868WAT      O11814   4.456   4.610   3.628
 3868WAT     H111815   4.376   4.656   3.653
 3868WAT     H211816   4.441   4.586   3.536
 3869WAT      O11817   0.254   4.135   2.451
 3869WAT     H111818   0.239   4.226   2.476
 3869WAT     H211819   0.292   4.140   2.363
 3870WAT      O11820   3.343   1.275   4.966
 3870WAT     H111821   3.407   1.246   5.031
 3870WAT     H211822   3.268   1.218   4.979
 3871WAT      O11823   0.339   3.572   3.411
 3871WAT     H111824   0.374   3.659   3.431
 3871WAT     H211825   0.283   3.587   3.335
 3872WAT      O11826   2.074   0.930   2.394
 3872WAT     H111827   2.003   0.955   2.453
 3872WAT     H211828   2.031   0.921   2.309
 3873WAT      O11829   0.305   3.486   4.788
 3873WAT     H111830   0.372   3.553   4.802
 3873WAT     H211831   0.222   3.533   4.799
 3874WAT      O11832   1.625   4.267   1.147
 3874WAT     H111833   1.625   4.327   1.072
 3874WAT     H211834   1.692   4.303   1.206
 3875WAT      O11835   0.225   0.893   2.000
 3875WAT     H111836   0.241   0.806   1.964
 3875WAT     H211837   0.176   0.938   1.931
 3876WAT      O11838   3.188   3.702   4.516
 3876WAT     H111839   3.203   3.662   4.601
 3876WAT     H211840   3.136   3.637   4.467
 3877WAT      O11841   3.989   2.565   0.014
 3877WAT     H111842   4.026   2.628   0.078
 3877WAT     H211843   4.043   2.577  -0.064
 3878WAT      O11844   3.570   1.004   4.915
 3878WAT     H111845   3.656   1.012   4.875
 3878WAT     H211846   3.574   1.060   4.992
 3879WAT      O11847   0.531   0.442   1.615
 3879WAT     H111848   0.527   0.534   1.640
 3879WAT     H211849   0.479   0.397   1.681
 3880WAT      O11850   2.545   2.969   2.444
 3880WAT     H111851   2.581   2.956   2.532
 3880WAT     H211852   2.491   2.891   2.430
 3881WAT      O11853   1.735   4.177   4.011
 3881WAT     H111854   1.708   4.269   4.014
 3881WAT     H211855   1.664   4.130   4.054
 3882WAT      O11856   3.957   2.440   1.653
 3882WAT     H111857   4.033   2.479   1.697
 3882WAT     H211858   3.937   2.503   1.582
 3883WAT      O11859   4.429   4.656   2.946
 3883WAT     H111860   4.389   4.647   3.033
 3883WAT     H211861   4.450   4.566   2.920
 3884WAT      O11862   3.301   2.482   3.689
 3884WAT     H111863   3.322   2.552   3.628
 3884WAT     H211864   3.304   2.523   3.776
 3885WAT      O11865   2.116   2.483   4.841
 3885WAT     H111866   2.041   2.449   4.792
 3885WAT     H211867   2.190   2.472   4.781
 3886WAT      O11868   3.558   4.017   0.080
 3886WAT     H111869   3.464   4.005   0.070
 3886WAT     H211870   3.580   3.967   0.159
 3887WAT      O11871   2.368   0.703   2.466
 3887WAT     H111872   2.310   0.658   2.404
 3887WAT     H211873   2.441   0.732   2.412
 3888WAT      O11874   0.425   3.497   3.912
 3888WAT     H111875   0.451   3.405   3.912
 3888WAT     H211876   0.498   3.543   3.870
 3889WAT      O11877   0.087   3.239   3.205
 3889WAT     H111878   0.077   3.310   3.268
 3889WAT     H211879   0.165   3.262   3.154
 3890WAT      O11880   0.516   1.275   2.835
 3890WAT     H111881   0.580   1.211   2.804
 3890WAT     H211882   0.485   1.241   2.918
 3891WAT      O11883   2.975   1.895   1.723
 3891WAT     H111884   3.046   1.954   1.749
 3891WAT     H211885   2.973   1.827   1.792
 3892WAT      O11886   2.604   1.320   0.803
 3892WAT     H111887   2.600   1.292   0.712
 3892WAT     H211888   2.661   1.397   0.802
 3893WAT      O11889   0.996   3.421   3.438
 3893WAT     H111890   1.079   3.378   3.418
 3893WAT     H211891   1.021   3.509   3.466
 3894WAT      O11892   1.356   1.590   2.593
 3894WAT     H111893   1.415   1.517   2.614
 3894WAT     H211894   1.273   1.547   2.573
 3895WAT      O11895   3.532   0.839   4.043
 3895WAT     H111896   3.583   0.916   4.019
 3895WAT     H211897   3.573   0.766   3.996
 3896WAT      O11898   3.337   2.519   3.351
 3896WAT     H111899   3.259   2.466   3.366
 3896WAT     H211900   3.401   2.458   3.314
 3897WAT      O11901   3.256   0.561   0.772
 3897WAT     H111902   3.184   0.541   0.713
 3897WAT     H211903   3.218   0.556   0.860
 3898WAT      O11904   2.978   1.761   2.600
 3898WAT     H111905   2.976   1.685   2.657
 3898WAT     H211906   3.005   1.728   2.515
 3899WAT      O11907   0.209   1.508   4.392
 3899WAT     H111908   0.191   1.415   4.386
 3899WAT     H211909   0.303   1.512   4.409
 3900WAT      O11910   3.427   0.771   4.814
 3900WAT     H111911   3.335   0.778   4.838
 3900WAT     H211912   3.467   0.851   4.847
 3901WAT      O11913   3.793   2.081   0.692
 3901WAT     H111914   3.887   2.093   0.678
 3901WAT     H211915   3.774   2.135   0.769
 3902WAT      O11916   0.623   3.942   3.987
 3902WAT     H111917   0.593   4.000   4.057
 3902WAT     H211918   0.610   3.992   3.907
 3903WAT      O11919   0.328   4.800   3.498
 3903WAT     H111920   0.392   4.780   3.430
 3903WAT     H211921   0.371   4.773   3.580
 3904WAT      O11922   2.905   3.734   3.429
 3904WAT     H111923   2.884   3.660   3.373
 3904WAT     H211924   2.877   3.707   3.516
 3905WAT      O11925   0.884   0.270   2.562
 3905WAT     H111926   0.887   0.312   2.648
 3905WAT     H211927   0.966   0.295   2.520
 3906WAT      O11928   2.397   3.929   2.901
 3906WAT     H111929   2.365   3.923   2.811
 3906WAT     H211930   2.389   3.840   2.935
 3907WAT      O11931   0.482   5.121   3.485
 3907WAT     H111932   0.420   5.065   3.439
 3907WAT     H211933   0.568   5.090   3.457
 3908WAT      O11934   1.238   3.711   5.120
 3908WAT     H111935   1.250   3.796   5.076
 3908WAT     H211936   1.162   3.724   5.177
 3909WAT      O11937   3.345   1.356   3.672
 3909WAT     H111938   3.269   1.314   3.715
 3909WAT     H211939   3.338   1.328   3.581
 3910WAT      O11940   2.556   2.483   1.468
 3910WAT     H111941   2.518   2.567   1.492
 3910WAT     H211942   2.645   2.485   1.504
 3911WAT      O11943   2.707   3.103   2.270
 3911WAT     H111944   2.697   3.031   2.206
 3911WAT     H211945   2.639   3.085   2.335
 3912WAT      O11946   0.065   0.629   4.809
 3912WAT     H111947   0.103   0.675   4.734
 3912WAT     H211948   0.000   0.570   4.771
 3913WAT      O11949   0.235   0.006   1.999
 3913WAT     H111950   0.179   0.012   1.921
 3913WAT     H211951   0.324   0.007   1.963
 3914WAT      O11952   1.270   4.115   2.217
 3914WAT     H111953   1.187   4.092   2.258
 3914WAT     H211954   1.333   4.052   2.254
 3915WAT      O11955   2.881   1.522   1.577
 3915WAT     H111956   2.803   1.471   1.595
 3915WAT     H211957   2.943   1.498   1.646
 3916WAT      O11958   3.928   4.932   0.543
 3916WAT     H111959   4.011   4.976   0.558
 3916WAT     H211960   3.863   4.990   0.582
 3917WAT      O11961   2.383   2.223   2.178
 3917WAT     H111962   2.364   2.275   2.100
 3917WAT     H211963   2.348   2.275   2.251
 3918WAT      O11964   1.875   0.660   2.100
 3918WAT     H111965   1.845   0.719   2.169
 3918WAT     H211966   1.959   0.698   2.072
 3919WAT      O11967   4.036   4.321   3.459
 3919WAT     H111968   4.053   4.406   3.418
 3919WAT     H211969   4.106   4.312   3.524
 3920WAT      O11970   3.565   1.053   0.802
 3920WAT     H111971   3.645   1.044   0.853
 3920WAT     H211972   3.525   1.134   0.835
 3921WAT      O11973   1.625   0.849   0.050
 3921WAT     H111974   1.601   0.870  -0.040
 3921WAT     H211975   1.669   0.764   0.045
 3922WAT      O11976   4.076   0.948   0.461
 3922WAT     H111977   4.123   0.879   0.411
 3922WAT     H211978   4.046   1.008   0.394
 3923WAT      O11979   0.073   4.864   4.363
 3923WAT     H111980   0.032   4.886   4.280
 3923WAT     H211981   0.114   4.946   4.392
 3924WAT      O11982   3.418   3.753   2.474
 3924WAT     H111983   3.359   3.679   2.466
 3924WAT     H211984   3.401   3.807   2.397
 3925WAT      O11985   0.787   3.497   2.818
 3925WAT     H111986   0.700   3.520   2.851
 3925WAT     H211987   0.841   3.574   2.837
 3926WAT      O11988   4.303   2.308   0.565
 3926WAT     H111989   4.376   2.370   0.569
 3926WAT     H211990   4.248   2.341   0.493
 3927WAT      O11991   0.583   2.977   2.051
 3927WAT     H111992   0.571   2.883   2.066
 3927WAT     H211993   0.607   3.011   2.137
 3928WAT      O11994   0.500   4.319   2.147
 3928WAT     H111995   0.540   4.342   2.231
 3928WAT     H211996   0.412   4.355   2.153
 3929WAT      O11997   0.135   1.563   1.206
 3929WAT     H111998   0.199   1.604   1.149
 3929WAT     H211999   0.052   1.603   1.184
 3930WAT      O12000   1.632   3.607   3.273
 3930WAT     H112001   1.720   3.606   3.309
 3930WAT     H212002   1.642   3.574   3.183
 3931WAT      O12003   0.324   3.376   1.835
 3931WAT     H112004   0.325   3.300   1.894
 3931WAT     H212005   0.231   3.394   1.820
 3932WAT      O12006   3.097   2.953   3.657
 3932WAT     H112007   3.064   3.021   3.716
 3932WAT     H212008   3.141   3.003   3.587
 3933WAT      O12009   3.750   1.130   2.535
 3933WAT     H112010   3.820   1.088   2.484
 3933WAT     H212011   3.796   1.185   2.599
 3934WAT      O12012   0.504   3.400   2.382
 3934WAT     H112013   0.428   3.431   2.432
 3934WAT     H212014   0.575   3.396   2.445
 3935WAT      O12015   1.246   4.122   1.911
 3935WAT     H112016   1.298   4.078   1.844
 3935WAT     H212017   1.304   4.125   1.988
 3936WAT      O12018   2.995   1.182   3.404
 3936WAT     H112019   3.045   1.106   3.432
 3936WAT     H212020   2.909   1.149   3.382
 3937WAT      O12021   3.552   1.997   2.868
 3937WAT     H112022   3.511   1.910   2.880
 3937WAT     H212023   3.509   2.053   2.933
 3938WAT      O12024   1.919   2.021   4.203
 3938WAT     H112025   1.864   2.040   4.127
 3938WAT     H212026   2.004   2.061   4.182
 3939WAT      O12027   2.364   4.177   3.258
 3939WAT     H112028   2.419   4.215   3.325
 3939WAT     H212029   2.344   4.249   3.198
 3940WAT      O12030   1.397   1.908   2.674
 3940WAT     H112031   1.487   1.919   2.704
 3940WAT     H212032   1.406   1.886   2.581
 3941WAT      O12033   1.969   2.996   1.583
 3941WAT     H112034   1.958   2.903   1.566
 3941WAT     H212035   2.019   2.999   1.665
 3942WAT      O12036   3.403   4.298   4.844
 3942WAT     H112037   3.461   4.373   4.830
 3942WAT     H212038   3.457   4.221   4.825
 3943WAT      O12039   0.883   3.417   3.882
 3943WAT     H112040   0.841   3.489   3.929
 3943WAT     H212041   0.976   3.438   3.884
 3944WAT      O12042   3.951   2.166   4.233
 3944WAT     H112043   3.882   2.232   4.239
 3944WAT     H212044   3.904   2.084   4.215
 3945WAT      O12045   3.687   0.774   2.732
 3945WAT     H112046   3.722   0.858   2.762
 3945WAT     H212047   3.629   0.796   2.659
 3946WAT      O12048   1.929   2.587   5.052
 3946WAT     H112049   1.981   2.539   4.986
 3946WAT     H212050   1.994   2.617   5.115
 3947WAT      O12051   4.333   4.243   2.614
 3947WAT     H112052   4.257   4.210   2.567
 3947WAT     H212053   4.367   4.167   2.661
 3948WAT      O12054   3.583   2.477   5.293
 3948WAT     H112055   3.634   2.529   5.231
 3948WAT     H212056   3.530   2.542   5.340
 3949WAT      O12057   1.153   4.386   1.706
 3949WAT     H112058   1.139   4.310   1.650
 3949WAT     H212059   1.209   4.444   1.654
 3950WAT      O12060   3.473   3.137   1.833
 3950WAT     H112061   3.538   3.196   1.795
 3950WAT     H212062   3.480   3.151   1.927
 3951WAT      O12063   0.488   0.472   1.223
 3951WAT     H112064   0.550   0.448   1.291
 3951WAT     H212065   0.542   0.486   1.145
 3952WAT      O12066   0.433   1.856   0.317
 3952WAT     H112067   0.450   1.926   0.254
 3952WAT     H212068   0.489   1.784   0.288
 3953WAT      O12069   2.905   0.079   1.698
 3953WAT     H112070   2.889  -0.015   1.690
 3953WAT     H212071   2.992   0.085   1.739
 3954WAT      O12072   4.293   1.077   4.400
 3954WAT     H112073   4.262   1.068   4.310
 3954WAT     H212074   4.356   1.007   4.411
 3955WAT      O12075   4.139   1.922   0.793
 3955WAT     H112076   4.121   1.843   0.843
 3955WAT     H212077   4.101   1.905   0.707
 3956WAT      O12078   0.478   0.189   2.227
 3956WAT     H112079   0.445   0.271   2.191
 3956WAT     H212080   0.569   0.208   2.250
 3957WAT      O12081   1.570   0.833   4.557
 3957WAT     H112082   1.606   0.744   4.569
 3957WAT     H212083   1.644   0.884   4.526
 3958WAT      O12084   3.401   3.490   1.831
 3958WAT     H112085   3.447   3.418   1.789
 3958WAT     H212086   3.335   3.447   1.886
 3959WAT      O12087   3.079   0.869   3.282
 3959WAT     H112088   3.022   0.894   3.210
 3959WAT     H212089   3.080   0.772   3.278
 3960WAT      O12090   4.115   1.600   1.221
 3960WAT     H112091   4.166   1.554   1.288
 3960WAT     H212092   4.054   1.655   1.270
 3961WAT      O12093   1.062   4.959   3.719
 3961WAT     H112094   1.155   4.977   3.731
 3961WAT     H212095   1.060   4.874   3.673
 3962WAT      O12096   3.149   4.510   5.170
 3962WAT     H112097   3.184   4.599   5.159
 3962WAT     H212098   3.224   4.453   5.153
 3963WAT      O12099   4.289   1.530   3.608
 3963WAT     H112100   4.344   1.453   3.596
 3963WAT     H212101   4.202   1.494   3.627
 3964WAT      O12102   0.312   5.004   3.217
 3964WAT     H112103   0.370   4.958   3.156
 3964WAT     H212104   0.326   5.097   3.197
 3965WAT      O12105   1.242   1.990   3.005
 3965WAT     H112106   1.299   1.922   2.968
 3965WAT     H212107   1.156   1.972   2.967
 3966WAT      O12108   1.333   0.652   1.927
 3966WAT     H112109   1.362   0.673   1.838
 3966WAT     H212110   1.253   0.703   1.938
 3967WAT      O12111   0.701   4.764   0.484
 3967WAT     H112112   0.608   4.744   0.470
 3967WAT     H212113   0.715   4.746   0.577
 3968WAT      O12114   3.426   2.206   2.274
 3968WAT     H112115   3.435   2.273   2.207
 3968WAT     H212116   3.451   2.123   2.230
 3969WAT      O12117   3.856   3.586   4.679
 3969WAT     H112118   3.883   3.522   4.745
 3969WAT     H212119   3.924   3.653   4.682
 3970WAT      O12120   1.013   4.952   4.750
 3970WAT     H112121   1.035   5.020   4.686
 3970WAT     H212122   1.011   4.871   4.699
 3971WAT      O12123   0.564   1.682   3.243
 3971WAT     H112124   0.523   1.712   3.323
 3971WAT     H212125   0.491   1.666   3.183
 3972WAT      O12126   1.523   3.381   3.476
 3972WAT     H112127   1.525   3.451   3.412
 3972WAT     H212128   1.615   3.352   3.483
 3973WAT      O12129   1.648   3.801   4.628
 3973WAT     H112130   1.570   3.786   4.574
 3973WAT     H212131   1.672   3.714   4.659
 3974WAT      O12132   3.754   4.272   2.712
 3974WAT     H112133   3.721   4.362   2.706
 3974WAT     H212134   3.694   4.220   2.658
 3975WAT      O12135   4.337   0.810   3.832
 3975WAT     H112136   4.246   0.835   3.814
 3975WAT     H212137   4.381   0.890   3.858
 3976WAT      O12138   4.177   4.440   1.918
 3976WAT     H112139   4.243   4.470   1.980
 3976WAT     H212140   4.223   4.379   1.861
 3977WAT      O12141   0.974   4.664   0.726
 3977WAT     H112142   1.034   4.592   0.744
 3977WAT     H212143   0.887   4.628   0.742
 3978WAT      O12144   0.313   2.034   0.714
 3978WAT     H112145   0.265   1.978   0.653
 3978WAT     H212146   0.391   1.982   0.736
 3979WAT      O12147   1.580   2.616   4.182
 3979WAT     H112148   1.485   2.615   4.184
 3979WAT     H212149   1.607   2.535   4.225
 3980WAT      O12150   2.708   0.441   4.910
 3980WAT     H112151   2.795   0.451   4.871
 3980WAT     H212152   2.675   0.359   4.875
 3981WAT      O12153   3.044   3.830   0.155
 3981WAT     H112154   2.975   3.825   0.090
 3981WAT     H212155   3.000   3.862   0.234
 3982WAT      O12156   2.908   4.054   0.350
 3982WAT     H112157   2.973   4.105   0.301
 3982WAT     H212158   2.824   4.083   0.316
 3983WAT      O12159   1.449   2.726   0.616
 3983WAT     H112160   1.438   2.647   0.563
 3983WAT     H212161   1.470   2.693   0.704
 3984WAT      O12162   2.721   3.756   1.778
 3984WAT     H112163   2.724   3.819   1.707
 3984WAT     H212164   2.668   3.798   1.846
 3985WAT      O12165   4.088   1.080   3.560
 3985WAT     H112166   4.165   1.124   3.525
 3985WAT     H212167   4.023   1.086   3.491
 3986WAT      O12168   0.740   2.419   3.707
 3986WAT     H112169   0.680   2.404   3.779
 3986WAT     H212170   0.823   2.443   3.749
 3987WAT      O12171   0.825   1.640   3.539
 3987WAT     H112172   0.897   1.600   3.492
 3987WAT     H212173   0.837   1.613   3.630
 3988WAT      O12174   0.930   4.934   5.281
 3988WAT     H112175   0.853   4.893   5.242
 3988WAT     H212176   1.004   4.890   5.238
 3989WAT      O12177   1.207   4.711   1.430
 3989WAT     H112178   1.228   4.801   1.405
 3989WAT     H212179   1.281   4.660   1.396
 3990WAT      O12180   3.332   3.117   3.847
 3990WAT     H112181   3.269   3.185   3.872
 3990WAT     H212182   3.299   3.037   3.886
 3991WAT      O12183   1.343   2.860   3.087
 3991WAT     H112184   1.313   2.924   3.021
 3991WAT     H212185   1.263   2.814   3.113
 3992WAT      O12186   1.150   0.224   3.960
 3992WAT     H112187   1.209   0.282   3.912
 3992WAT     H212188   1.089   0.192   3.894
 3993WAT      O12189   1.905   4.970   0.802
 3993WAT     H112190   1.951   4.938   0.724
 3993WAT     H212191   1.861   5.050   0.773
 3994WAT      O12192   0.570   0.710   1.703
 3994WAT     H112193   0.626   0.777   1.662
 3994WAT     H212194   0.493   0.758   1.733
 3995WAT      O12195   0.101   4.728   2.591
 3995WAT     H112196   0.102   4.738   2.496
 3995WAT     H212197   0.065   4.641   2.606
 3996WAT      O12198   0.231   0.421   3.172
 3996WAT     H112199   0.316   0.452   3.204
 3996WAT     H212200   0.226   0.452   3.082
 3997WAT      O12201   3.372   4.343   1.195
 3997WAT     H112202   3.365   4.404   1.269
 3997WAT     H212203   3.334   4.262   1.228
 3998WAT      O12204   1.799   4.900   1.329
 3998WAT     H112205   1.761   4.888   1.242
 3998WAT     H212206   1.728   4.936   1.382
 3999WAT      O12207   3.562   3.403   4.931
 3999WAT     H112208   3.619   3.442   4.997
 3999WAT     H212209   3.574   3.458   4.853
 4000WAT      O12210   0.433   4.379   0.811
 4000WAT     H112211   0.452   4.337   0.727
 4000WAT     H212212   0.340   4.401   0.806
 4001WAT      O12213   2.043   2.090   3.113
 4001WAT     H112214   1.977   2.141   3.160
 4001WAT     H212215   2.030   2.112   3.021
 4002WAT      O12216   3.615   2.096   4.896
 4002WAT     H112217   3.635   2.153   4.970
 4002WAT     H212218   3.673   2.125   4.826
 4003WAT      O12219   2.290   1.037   4.130
 4003WAT     H112220   2.274   1.121   4.169
 4003WAT     H212221   2.376   1.010   4.164
 4004WAT      O12222   2.435   0.664   2.146
 4004WAT     H112223   2.410   0.578   2.178
 4004WAT     H212224   2.524   0.677   2.179
 4005WAT      O12225   2.056   2.531   4.157
 4005WAT     H112226   2.085   2.617   4.187
 4005WAT     H212227   2.015   2.548   4.072
   4.51943   5.13906   5.29634
