Generic title t= 10000.00000 step= 5000000
12227
    1ILE      N    1   1.671   1.201   1.752
    1ILE     H1    2   1.595   1.149   1.709
    1ILE     H2    3   1.734   1.135   1.795
    1ILE     H3    4   1.720   1.251   1.681
    1ILE     CA    5   1.611   1.305   1.849
    1ILE     HA    6   1.549   1.371   1.788
    1ILE     CB    7   1.519   1.257   1.958
    1ILE     HB    8   1.474   1.336   2.017
    1ILE    CG2    9   1.402   1.190   1.894
    1ILE   HG21   10   1.329   1.170   1.972
    1ILE   HG22   11   1.356   1.247   1.813
    1ILE   HG23   12   1.433   1.090   1.863
    1ILE    CG1   13   1.599   1.162   2.052
    1ILE   HG12   14   1.692   1.211   2.084
    1ILE   HG13   15   1.630   1.069   2.007
    1ILE    CD1   16   1.533   1.128   2.186
    1ILE   HD11   17   1.442   1.070   2.172
    1ILE   HD12   18   1.602   1.059   2.235
    1ILE   HD13   19   1.514   1.218   2.243
    1ILE      C   20   1.719   1.405   1.895
    1ILE      O   21   1.833   1.371   1.902
    2LEU      N   22   1.681   1.530   1.917
    2LEU      H   23   1.582   1.550   1.917
    2LEU     CA   24   1.769   1.639   1.967
    2LEU     HA   25   1.862   1.628   1.912
    2LEU     CB   26   1.699   1.767   1.938
    2LEU    HB2   27   1.603   1.761   1.989
    2LEU    HB3   28   1.747   1.851   1.990
    2LEU     CG   29   1.673   1.810   1.795
    2LEU     HG   30   1.621   1.731   1.738
    2LEU    CD1   31   1.572   1.923   1.809
    2LEU   HD11   32   1.489   1.888   1.871
    2LEU   HD12   33   1.619   2.013   1.847
    2LEU   HD13   34   1.540   1.948   1.708
    2LEU    CD2   35   1.800   1.846   1.719
    2LEU   HD21   36   1.853   1.932   1.762
    2LEU   HD22   37   1.872   1.766   1.711
    2LEU   HD23   38   1.766   1.880   1.621
    2LEU      C   39   1.809   1.636   2.118
    2LEU      O   40   1.768   1.562   2.201
    3ARG      N   41   1.904   1.729   2.152
    3ARG      H   42   1.940   1.793   2.083
    3ARG     CA   43   1.960   1.749   2.286
    3ARG     HA   44   1.908   1.688   2.361
    3ARG     CB   45   2.101   1.697   2.281
    3ARG    HB2   46   2.151   1.740   2.195
    3ARG    HB3   47   2.156   1.725   2.371
    3ARG     CG   48   2.110   1.543   2.274
    3ARG    HG2   49   2.067   1.509   2.368
    3ARG    HG3   50   2.060   1.514   2.181
    3ARG     CD   51   2.257   1.484   2.265
    3ARG    HD2   52   2.306   1.520   2.174
    3ARG    HD3   53   2.307   1.537   2.346
    3ARG     NE   54   2.267   1.338   2.269
    3ARG     HE   55   2.301   1.292   2.186
    3ARG     CZ   56   2.265   1.262   2.377
    3ARG    NH1   57   2.253   1.296   2.502
    3ARG   HH11   58   2.259   1.394   2.527
    3ARG   HH12   59   2.253   1.228   2.578
    3ARG    NH2   60   2.273   1.136   2.363
    3ARG   HH21   61   2.274   1.092   2.272
    3ARG   HH22   62   2.266   1.076   2.444
    3ARG      C   63   1.943   1.899   2.319
    3ARG      O   64   1.952   1.986   2.235
    4TRP      N   65   1.925   1.928   2.449
    4TRP      H   66   1.930   1.850   2.511
    4TRP     CA   67   1.890   2.067   2.502
    4TRP     HA   68   1.921   2.131   2.419
    4TRP     CB   69   1.736   2.082   2.506
    4TRP    HB2   70   1.693   2.006   2.571
    4TRP    HB3   71   1.719   2.185   2.538
    4TRP     CG   72   1.660   2.083   2.374
    4TRP    CD1   73   1.653   2.184   2.288
    4TRP    HD1   74   1.709   2.276   2.297
    4TRP    NE1   75   1.564   2.153   2.188
    4TRP    HE1   76   1.544   2.208   2.106
    4TRP    CE2   77   1.500   2.035   2.211
    4TRP    CZ2   78   1.398   1.966   2.143
    4TRP    HZ2   79   1.345   2.015   2.062
    4TRP    CH2   80   1.369   1.831   2.177
    4TRP    HH2   81   1.294   1.769   2.132
    4TRP    CZ3   82   1.436   1.776   2.289
    4TRP    HZ3   83   1.396   1.688   2.341
    4TRP    CE3   84   1.524   1.856   2.369
    4TRP    HE3   85   1.582   1.800   2.443
    4TRP    CD2   86   1.561   1.984   2.323
    4TRP      C   87   1.959   2.103   2.638
    4TRP      O   88   1.982   2.022   2.726
    5PRO      N   89   2.011   2.222   2.651
    5PRO     CD   90   2.031   2.326   2.549
    5PRO    HD2   91   1.938   2.359   2.503
    5PRO    HD3   92   2.103   2.282   2.480
    5PRO     CG   93   2.095   2.442   2.620
    5PRO    HG2   94   2.013   2.498   2.666
    5PRO    HG3   95   2.150   2.510   2.555
    5PRO     CB   96   2.180   2.375   2.725
    5PRO    HB2   97   2.211   2.433   2.811
    5PRO    HB3   98   2.272   2.339   2.678
    5PRO     CA   99   2.087   2.261   2.766
    5PRO     HA  100   2.155   2.185   2.803
    5PRO      C  101   1.999   2.301   2.883
    5PRO      O  102   1.936   2.407   2.883
    6TRP      N  103   1.999   2.221   2.989
    6TRP      H  104   2.050   2.134   2.985
    6TRP     CA  105   1.931   2.243   3.119
    6TRP     HA  106   1.844   2.306   3.102
    6TRP     CB  107   1.873   2.109   3.176
    6TRP    HB2  108   1.799   2.136   3.251
    6TRP    HB3  109   1.808   2.060   3.104
    6TRP     CG  110   1.974   2.017   3.227
    6TRP    CD1  111   2.045   1.928   3.154
    6TRP    HD1  112   2.028   1.903   3.050
    6TRP    NE1  113   2.151   1.879   3.230
    6TRP    HE1  114   2.225   1.823   3.190
    6TRP    CE2  115   2.161   1.945   3.346
    6TRP    CZ2  116   2.253   1.941   3.454
    6TRP    HZ2  117   2.331   1.866   3.454
    6TRP    CH2  118   2.230   2.019   3.571
    6TRP    HH2  119   2.304   2.007   3.649
    6TRP    CZ3  120   2.114   2.093   3.585
    6TRP    HZ3  121   2.090   2.135   3.682
    6TRP    CE3  122   2.023   2.103   3.478
    6TRP    HE3  123   1.940   2.172   3.488
    6TRP    CD2  124   2.050   2.030   3.355
    6TRP      C  125   2.016   2.310   3.226
    6TRP      O  126   1.958   2.378   3.313
    7TRP      N  127   2.152   2.312   3.222
    7TRP      H  128   2.195   2.261   3.146
    7TRP     CA  129   2.235   2.406   3.301
    7TRP     HA  130   2.201   2.415   3.404
    7TRP     CB  131   2.375   2.342   3.299
    7TRP    HB2  132   2.444   2.387   3.371
    7TRP    HB3  133   2.361   2.239   3.329
    7TRP     CG  134   2.431   2.334   3.162
    7TRP    CD1  135   2.511   2.433   3.109
    7TRP    HD1  136   2.532   2.527   3.158
    7TRP    NE1  137   2.546   2.400   2.982
    7TRP    HE1  138   2.587   2.466   2.917
    7TRP    CE2  139   2.490   2.281   2.943
    7TRP    CZ2  140   2.498   2.209   2.817
    7TRP    HZ2  141   2.545   2.255   2.731
    7TRP    CH2  142   2.432   2.088   2.809
    7TRP    HH2  143   2.436   2.030   2.717
    7TRP    CZ3  144   2.369   2.035   2.925
    7TRP    HZ3  145   2.327   1.936   2.936
    7TRP    CE3  146   2.365   2.106   3.044
    7TRP    HE3  147   2.302   2.065   3.122
    7TRP    CD2  148   2.420   2.236   3.057
    7TRP      C  149   2.229   2.552   3.248
    7TRP      O  150   2.220   2.582   3.124
    8PRO      N  151   2.238   2.649   3.346
    8PRO     CD  152   2.263   2.634   3.487
    8PRO    HD2  153   2.370   2.615   3.497
    8PRO    HD3  154   2.197   2.561   3.534
    8PRO     CG  155   2.232   2.763   3.558
    8PRO    HG2  156   2.315   2.804   3.616
    8PRO    HG3  157   2.148   2.750   3.627
    8PRO     CB  158   2.193   2.865   3.445
    8PRO    HB2  159   2.247   2.959   3.442
    8PRO    HB3  160   2.085   2.880   3.448
    8PRO     CA  161   2.232   2.793   3.311
    8PRO     HA  162   2.150   2.804   3.241
    8PRO      C  163   2.363   2.841   3.242
    8PRO      O  164   2.474   2.813   3.294
    9TRP      N  165   2.354   2.906   3.123
    9TRP      H  166   2.261   2.928   3.089
    9TRP     CA  167   2.474   2.962   3.058
    9TRP     HA  168   2.532   2.988   3.147
    9TRP     CB  169   2.558   2.853   2.981
    9TRP    HB2  170   2.653   2.895   2.951
    9TRP    HB3  171   2.595   2.784   3.057
    9TRP     CG  172   2.501   2.770   2.868
    9TRP    CD1  173   2.420   2.661   2.877
    9TRP    HD1  174   2.387   2.618   2.970
    9TRP    NE1  175   2.398   2.614   2.749
    9TRP    HE1  176   2.343   2.533   2.723
    9TRP    CE2  177   2.446   2.699   2.652
    9TRP    CZ2  178   2.441   2.694   2.515
    9TRP    HZ2  179   2.393   2.609   2.468
    9TRP    CH2  180   2.515   2.786   2.441
    9TRP    HH2  181   2.529   2.770   2.335
    9TRP    CZ3  182   2.578   2.893   2.507
    9TRP    HZ3  183   2.619   2.972   2.444
    9TRP    CE3  184   2.573   2.895   2.646
    9TRP    HE3  185   2.615   2.980   2.697
    9TRP    CD2  186   2.517   2.794   2.726
    9TRP      C  187   2.451   3.083   2.967
    9TRP      O  188   2.350   3.098   2.894
   10ARG      N  189   2.547   3.182   2.969
   10ARG      H  190   2.630   3.180   3.028
   10ARG     CA  191   2.526   3.306   2.891
   10ARG     HA  192   2.425   3.346   2.891
   10ARG     CB  193   2.609   3.418   2.952
   10ARG    HB2  194   2.588   3.412   3.058
   10ARG    HB3  195   2.715   3.404   2.928
   10ARG     CG  196   2.579   3.559   2.899
   10ARG    HG2  197   2.633   3.590   2.810
   10ARG    HG3  198   2.472   3.573   2.884
   10ARG     CD  199   2.619   3.665   3.004
   10ARG    HD2  200   2.587   3.627   3.101
   10ARG    HD3  201   2.725   3.683   3.017
   10ARG     NE  202   2.544   3.791   2.981
   10ARG     HE  203   2.481   3.810   2.904
   10ARG     CZ  204   2.560   3.896   3.056
   10ARG    NH1  205   2.652   3.907   3.152
   10ARG   HH11  206   2.703   3.824   3.176
   10ARG   HH12  207   2.670   3.991   3.206
   10ARG    NH2  208   2.487   4.008   3.045
   10ARG   HH21  209   2.421   4.021   2.969
   10ARG   HH22  210   2.506   4.087   3.105
   10ARG      C  211   2.548   3.286   2.742
   10ARG      O  212   2.653   3.246   2.697
   11ARG      N  213   2.447   3.329   2.666
   11ARG      H  214   2.366   3.370   2.711
   11ARG     CA  215   2.459   3.330   2.512
   11ARG     HA  216   2.521   3.252   2.470
   11ARG     CB  217   2.314   3.318   2.449
   11ARG    HB2  218   2.245   3.378   2.509
   11ARG    HB3  219   2.308   3.371   2.354
   11ARG     CG  220   2.270   3.173   2.440
   11ARG    HG2  221   2.168   3.166   2.403
   11ARG    HG3  222   2.339   3.120   2.375
   11ARG     CD  223   2.273   3.095   2.575
   11ARG    HD2  224   2.378   3.070   2.589
   11ARG    HD3  225   2.225   3.144   2.660
   11ARG     NE  226   2.218   2.957   2.558
   11ARG     HE  227   2.214   2.925   2.463
   11ARG     CZ  228   2.165   2.882   2.650
   11ARG    NH1  229   2.182   2.898   2.777
   11ARG   HH11  230   2.253   2.961   2.811
   11ARG   HH12  231   2.138   2.831   2.839
   11ARG    NH2  232   2.093   2.780   2.622
   11ARG   HH21  233   2.079   2.762   2.524
   11ARG   HH22  234   2.043   2.734   2.697
   11ARG      C  235   2.516   3.465   2.464
   11ARG      O  236   2.496   3.564   2.535
   12LYS      N  237   2.574   3.482   2.348
   12LYS      H  238   2.560   3.404   2.285
   12LYS     CA  239   2.626   3.603   2.295
   12LYS     HA  240   2.669   3.669   2.370
   12LYS     CB  241   2.733   3.587   2.190
   12LYS    HB2  242   2.706   3.499   2.131
   12LYS    HB3  243   2.735   3.669   2.118
   12LYS     CG  244   2.866   3.557   2.269
   12LYS    HG2  245   2.894   3.642   2.331
   12LYS    HG3  246   2.848   3.473   2.337
   12LYS     CD  247   2.972   3.518   2.163
   12LYS    HD2  248   2.931   3.451   2.087
   12LYS    HD3  249   3.002   3.610   2.112
   12LYS     CE  250   3.092   3.449   2.231
   12LYS    HE2  251   3.062   3.364   2.292
   12LYS    HE3  252   3.157   3.401   2.157
   12LYS     NZ  253   3.156   3.556   2.307
   12LYS    HZ1  254   3.088   3.600   2.367
   12LYS    HZ2  255   3.231   3.520   2.365
   12LYS    HZ3  256   3.185   3.618   2.233
   12LYS      C  257   2.508   3.694   2.250
   12LYS      O  258   2.442   3.655   2.151
   13NHE      N  259   2.480   3.807   2.313
   13NHE    HN1  260   2.542   3.842   2.385
   13NHE    HN2  261   2.396   3.862   2.305
   14Cl-    Cl-  262   3.417   4.169   3.864
   15Cl-    Cl-  263   0.303   2.209   1.174
   16Cl-    Cl-  264   2.913   3.147   1.841
   17Cl-    Cl-  265   0.964   1.852   3.979
   18Cl-    Cl-  266   4.253   4.149   3.762
   19WAT      O  267   2.338   1.602   5.004
   19WAT     H1  268   2.268   1.585   4.941
   19WAT     H2  269   2.342   1.698   5.009
   20WAT      O  270   3.400   2.760   2.167
   20WAT     H1  271   3.336   2.722   2.107
   20WAT     H2  272   3.348   2.811   2.229
   21WAT      O  273   3.660   5.060   0.084
   21WAT     H1  274   3.600   5.073   0.010
   21WAT     H2  275   3.628   5.120   0.151
   22WAT      O  276   4.270   2.259   0.521
   22WAT     H1  277   4.319   2.256   0.603
   22WAT     H2  278   4.241   2.169   0.507
   23WAT      O  279   2.570   4.277   1.013
   23WAT     H1  280   2.643   4.215   1.021
   23WAT     H2  281   2.493   4.227   1.036
   24WAT      O  282   1.308   4.014   0.487
   24WAT     H1  283   1.287   4.018   0.581
   24WAT     H2  284   1.373   4.082   0.475
   25WAT      O  285   3.913   3.826   2.761
   25WAT     H1  286   3.984   3.804   2.701
   25WAT     H2  287   3.841   3.769   2.735
   26WAT      O  288   0.356   3.737   2.017
   26WAT     H1  289   0.265   3.726   1.987
   26WAT     H2  290   0.348   3.780   2.101
   27WAT      O  291   2.413   0.788   0.252
   27WAT     H1  292   2.461   0.839   0.187
   27WAT     H2  293   2.463   0.706   0.258
   28WAT      O  294   4.081   0.915   2.256
   28WAT     H1  295   4.132   0.834   2.243
   28WAT     H2  296   4.003   0.885   2.304
   29WAT      O  297   3.212   3.585   4.477
   29WAT     H1  298   3.248   3.516   4.533
   29WAT     H2  299   3.285   3.612   4.422
   30WAT      O  300   2.248   2.055   2.129
   30WAT     H1  301   2.167   2.106   2.124
   30WAT     H2  302   2.317   2.118   2.109
   31WAT      O  303   1.687   2.384   3.665
   31WAT     H1  304   1.623   2.431   3.612
   31WAT     H2  305   1.687   2.295   3.629
   32WAT      O  306   2.561   5.098   5.127
   32WAT     H1  307   2.492   5.132   5.183
   32WAT     H2  308   2.641   5.110   5.178
   33WAT      O  309   3.091   1.076   4.472
   33WAT     H1  310   3.008   1.034   4.450
   33WAT     H2  311   3.117   1.119   4.391
   34WAT      O  312   4.198   2.162   3.476
   34WAT     H1  313   4.165   2.073   3.487
   34WAT     H2  314   4.266   2.170   3.542
   35WAT      O  315   2.833   1.113   2.416
   35WAT     H1  316   2.905   1.086   2.474
   35WAT     H2  317   2.864   1.194   2.376
   36WAT      O  318   3.071   0.267   4.189
   36WAT     H1  319   3.125   0.277   4.268
   36WAT     H2  320   3.134   0.262   4.117
   37WAT      O  321   3.771   5.034   5.079
   37WAT     H1  322   3.761   4.944   5.047
   37WAT     H2  323   3.686   5.055   5.118
   38WAT      O  324   2.136   4.554   0.627
   38WAT     H1  325   2.165   4.465   0.606
   38WAT     H2  326   2.122   4.552   0.722
   39WAT      O  327   2.528   3.678   4.009
   39WAT     H1  328   2.604   3.716   3.964
   39WAT     H2  329   2.564   3.642   4.090
   40WAT      O  330   1.269   2.726   2.628
   40WAT     H1  331   1.201   2.754   2.566
   40WAT     H2  332   1.299   2.808   2.668
   41WAT      O  333   2.628   2.444   2.263
   41WAT     H1  334   2.557   2.407   2.211
   41WAT     H2  335   2.671   2.506   2.205
   42WAT      O  336   0.216   0.354   3.351
   42WAT     H1  337   0.178   0.341   3.265
   42WAT     H2  338   0.247   0.267   3.377
   43WAT      O  339   3.812   2.652   4.966
   43WAT     H1  340   3.786   2.702   4.888
   43WAT     H2  341   3.871   2.585   4.932
   44WAT      O  342   1.005   4.681   0.555
   44WAT     H1  343   0.946   4.736   0.606
   44WAT     H2  344   1.071   4.741   0.520
   45WAT      O  345   3.447   5.067   2.818
   45WAT     H1  346   3.540   5.057   2.798
   45WAT     H2  347   3.420   5.146   2.770
   46WAT      O  348   2.384   3.281   0.825
   46WAT     H1  349   2.364   3.346   0.758
   46WAT     H2  350   2.467   3.310   0.863
   47WAT      O  351   1.449   4.065   2.806
   47WAT     H1  352   1.485   4.049   2.719
   47WAT     H2  353   1.449   3.979   2.848
   48WAT      O  354   0.106   2.140   3.045
   48WAT     H1  355   0.046   2.065   3.040
   48WAT     H2  356   0.189   2.106   3.009
   49WAT      O  357   4.023   2.084   4.794
   49WAT     H1  358   3.984   2.004   4.826
   49WAT     H2  359   4.101   2.056   4.746
   50WAT      O  360   1.655   2.529   2.236
   50WAT     H1  361   1.589   2.461   2.252
   50WAT     H2  362   1.702   2.537   2.319
   51WAT      O  363   0.675   1.300   0.062
   51WAT     H1  364   0.582   1.279   0.051
   51WAT     H2  365   0.674   1.391   0.094
   52WAT      O  366   3.627   2.901   2.185
   52WAT     H1  367   3.551   2.844   2.177
   52WAT     H2  368   3.686   2.873   2.115
   53WAT      O  369   2.205   0.165   2.804
   53WAT     H1  370   2.178   0.132   2.889
   53WAT     H2  371   2.130   0.216   2.773
   54WAT      O  372   0.504   3.675   2.652
   54WAT     H1  373   0.426   3.658   2.704
   54WAT     H2  374   0.524   3.767   2.669
   55WAT      O  375   2.277   4.063   0.794
   55WAT     H1  376   2.338   4.019   0.734
   55WAT     H2  377   2.267   4.003   0.867
   56WAT      O  378   3.867   3.564   1.975
   56WAT     H1  379   3.874   3.636   1.912
   56WAT     H2  380   3.927   3.589   2.045
   57WAT      O  381   0.668   4.941   3.766
   57WAT     H1  382   0.737   4.913   3.827
   57WAT     H2  383   0.716   4.963   3.685
   58WAT      O  384   2.765   2.199   1.046
   58WAT     H1  385   2.699   2.259   1.081
   58WAT     H2  386   2.813   2.169   1.122
   59WAT      O  387   1.386   1.052   3.029
   59WAT     H1  388   1.318   1.004   2.982
   59WAT     H2  389   1.338   1.115   3.084
   60WAT      O  390   2.442   4.748   1.834
   60WAT     H1  391   2.391   4.690   1.777
   60WAT     H2  392   2.462   4.824   1.780
   61WAT      O  393   0.884   1.248   4.779
   61WAT     H1  394   0.915   1.302   4.706
   61WAT     H2  395   0.946   1.266   4.849
   62WAT      O  396   4.284   1.389   1.569
   62WAT     H1  397   4.283   1.475   1.609
   62WAT     H2  398   4.201   1.350   1.594
   63WAT      O  399   1.197   4.855   4.373
   63WAT     H1  400   1.164   4.868   4.462
   63WAT     H2  401   1.290   4.834   4.385
   64WAT      O  402   0.511   3.098   4.795
   64WAT     H1  403   0.450   3.031   4.825
   64WAT     H2  404   0.474   3.180   4.825
   65WAT      O  405   0.559   4.215   3.739
   65WAT     H1  406   0.617   4.175   3.674
   65WAT     H2  407   0.554   4.151   3.810
   66WAT      O  408   1.544   2.985   0.742
   66WAT     H1  409   1.575   2.972   0.831
   66WAT     H2  410   1.538   3.081   0.731
   67WAT      O  411   2.329   1.526   5.260
   67WAT     H1  412   2.358   1.560   5.176
   67WAT     H2  413   2.408   1.487   5.298
   68WAT      O  414   0.155   5.005   1.897
   68WAT     H1  415   0.124   4.958   1.975
   68WAT     H2  416   0.250   5.004   1.905
   69WAT      O  417   0.452   2.817   0.594
   69WAT     H1  418   0.456   2.729   0.556
   69WAT     H2  419   0.468   2.803   0.687
   70WAT      O  420   1.778   2.987   5.095
   70WAT     H1  421   1.850   2.925   5.094
   70WAT     H2  422   1.723   2.962   5.169
   71WAT      O  423   3.439   4.134   1.241
   71WAT     H1  424   3.475   4.087   1.166
   71WAT     H2  425   3.347   4.110   1.242
   72WAT      O  426   4.131   3.117   0.989
   72WAT     H1  427   4.148   3.070   1.070
   72WAT     H2  428   4.203   3.092   0.931
   73WAT      O  429   3.493   2.891   3.337
   73WAT     H1  430   3.484   2.972   3.385
   73WAT     H2  431   3.546   2.913   3.260
   74WAT      O  432   2.790   4.347   3.341
   74WAT     H1  433   2.831   4.261   3.328
   74WAT     H2  434   2.779   4.353   3.436
   75WAT      O  435   0.393   2.168   3.750
   75WAT     H1  436   0.339   2.153   3.673
   75WAT     H2  437   0.349   2.240   3.796
   76WAT      O  438   2.698   4.113   1.676
   76WAT     H1  439   2.636   4.149   1.613
   76WAT     H2  440   2.751   4.052   1.626
   77WAT      O  441   1.538   4.558   0.483
   77WAT     H1  442   1.471   4.573   0.550
   77WAT     H2  443   1.620   4.550   0.531
   78WAT      O  444   4.296   2.743   0.255
   78WAT     H1  445   4.290   2.818   0.313
   78WAT     H2  446   4.281   2.667   0.312
   79WAT      O  447   2.052   4.898   4.046
   79WAT     H1  448   2.106   4.830   4.006
   79WAT     H2  449   2.084   4.980   4.006
   80WAT      O  450   3.965   2.509   4.769
   80WAT     H1  451   4.025   2.483   4.839
   80WAT     H2  452   3.956   2.430   4.715
   81WAT      O  453   2.033   0.010   1.549
   81WAT     H1  454   1.963  -0.046   1.516
   81WAT     H2  455   2.095   0.017   1.477
   82WAT      O  456   2.734   1.617   4.570
   82WAT     H1  457   2.685   1.582   4.495
   82WAT     H2  458   2.744   1.542   4.628
   83WAT      O  459   0.929   1.766   1.114
   83WAT     H1  460   0.880   1.711   1.052
   83WAT     H2  461   0.862   1.818   1.158
   84WAT      O  462   1.135   2.457   1.971
   84WAT     H1  463   1.103   2.435   1.883
   84WAT     H2  464   1.069   2.516   2.007
   85WAT      O  465   1.196   4.267   4.652
   85WAT     H1  466   1.259   4.208   4.609
   85WAT     H2  467   1.143   4.301   4.581
   86WAT      O  468   1.350   4.254   3.330
   86WAT     H1  469   1.272   4.288   3.286
   86WAT     H2  470   1.393   4.332   3.366
   87WAT      O  471   1.049   0.049   2.269
   87WAT     H1  472   1.038   0.126   2.325
   87WAT     H2  473   1.063  -0.024   2.330
   88WAT      O  474   1.369   0.392   0.254
   88WAT     H1  475   1.437   0.438   0.303
   88WAT     H2  476   1.385   0.300   0.273
   89WAT      O  477   0.037   3.231   5.117
   89WAT     H1  478  -0.041   3.185   5.085
   89WAT     H2  479   0.108   3.167   5.107
   90WAT      O  480   3.405   4.230   0.416
   90WAT     H1  481   3.418   4.273   0.331
   90WAT     H2  482   3.424   4.138   0.399
   91WAT      O  483   2.404   2.677   4.122
   91WAT     H1  484   2.375   2.660   4.032
   91WAT     H2  485   2.359   2.611   4.175
   92WAT      O  486   2.486   4.999   4.509
   92WAT     H1  487   2.509   5.062   4.440
   92WAT     H2  488   2.450   4.924   4.462
   93WAT      O  489   1.956   5.019   2.206
   93WAT     H1  490   1.981   5.009   2.114
   93WAT     H2  491   1.933   4.930   2.234
   94WAT      O  492   4.436   3.426   3.084
   94WAT     H1  493   4.350   3.452   3.115
   94WAT     H2  494   4.477   3.508   3.056
   95WAT      O  495   2.495   4.893   4.948
   95WAT     H1  496   2.537   4.947   5.015
   95WAT     H2  497   2.566   4.865   4.891
   96WAT      O  498   4.174   1.771   2.927
   96WAT     H1  499   4.106   1.705   2.908
   96WAT     H2  500   4.244   1.721   2.968
   97WAT      O  501   0.779   2.219   2.371
   97WAT     H1  502   0.866   2.242   2.339
   97WAT     H2  503   0.791   2.204   2.465
   98WAT      O  504   1.404   0.977   5.174
   98WAT     H1  505   1.420   0.960   5.267
   98WAT     H2  506   1.444   0.902   5.129
   99WAT      O  507   0.562   0.395   1.079
   99WAT     H1  508   0.482   0.446   1.072
   99WAT     H2  509   0.533   0.304   1.072
  100WAT      O  510   4.388   1.095   5.286
  100WAT     H1  511   4.475   1.119   5.255
  100WAT     H2  512   4.351   1.175   5.321
  101WAT      O  513   1.155   0.301   2.435
  101WAT     H1  514   1.242   0.263   2.423
  101WAT     H2  515   1.130   0.277   2.523
  102WAT      O  516   2.145   3.890   2.416
  102WAT     H1  517   2.113   3.924   2.333
  102WAT     H2  518   2.109   3.802   2.422
  103WAT      O  519   0.837   3.344   4.937
  103WAT     H1  520   0.754   3.375   4.973
  103WAT     H2  521   0.858   3.405   4.867
  104WAT      O  522   1.470   0.260   1.257
  104WAT     H1  523   1.426   0.175   1.253
  104WAT     H2  524   1.558   0.242   1.223
  105WAT      O  525   2.835   4.744   0.624
  105WAT     H1  526   2.904   4.788   0.574
  105WAT     H2  527   2.844   4.652   0.601
  106WAT      O  528   1.829   4.638   3.806
  106WAT     H1  529   1.908   4.685   3.832
  106WAT     H2  530   1.773   4.642   3.883
  107WAT      O  531   1.646   4.706   4.057
  107WAT     H1  532   1.576   4.655   4.017
  107WAT     H2  533   1.657   4.668   4.144
  108WAT      O  534   0.833   4.024   4.715
  108WAT     H1  535   0.914   4.034   4.765
  108WAT     H2  536   0.849   4.072   4.634
  109WAT      O  537   2.708   3.284   1.649
  109WAT     H1  538   2.775   3.248   1.708
  109WAT     H2  539   2.717   3.379   1.657
  110WAT      O  540   1.498   3.335   0.218
  110WAT     H1  541   1.487   3.327   0.313
  110WAT     H2  542   1.452   3.259   0.182
  111WAT      O  543   0.652   2.449   1.833
  111WAT     H1  544   0.619   2.506   1.763
  111WAT     H2  545   0.579   2.441   1.894
  112WAT      O  546   4.281   1.618   4.141
  112WAT     H1  547   4.351   1.675   4.173
  112WAT     H2  548   4.264   1.649   4.052
  113WAT      O  549   2.428   1.763   3.236
  113WAT     H1  550   2.410   1.717   3.154
  113WAT     H2  551   2.405   1.698   3.304
  114WAT      O  552   2.331   3.052   3.759
  114WAT     H1  553   2.334   3.085   3.848
  114WAT     H2  554   2.273   2.975   3.763
  115WAT      O  555   4.011   4.380   3.440
  115WAT     H1  556   3.968   4.423   3.514
  115WAT     H2  557   4.105   4.387   3.459
  116WAT      O  558   3.471   1.530   1.780
  116WAT     H1  559   3.483   1.464   1.848
  116WAT     H2  560   3.553   1.579   1.778
  117WAT      O  561   1.493   1.448   4.240
  117WAT     H1  562   1.576   1.497   4.234
  117WAT     H2  563   1.426   1.517   4.238
  118WAT      O  564   2.605   0.328   3.484
  118WAT     H1  565   2.557   0.257   3.527
  118WAT     H2  566   2.566   0.408   3.518
  119WAT      O  567   2.762   0.339   0.168
  119WAT     H1  568   2.699   0.277   0.201
  119WAT     H2  569   2.746   0.344   0.074
  120WAT      O  570   3.822   1.681   2.783
  120WAT     H1  571   3.880   1.647   2.851
  120WAT     H2  572   3.874   1.678   2.703
  121WAT      O  573   0.500   3.991   2.732
  121WAT     H1  574   0.468   3.920   2.788
  121WAT     H2  575   0.596   3.985   2.738
  122WAT      O  576   3.975   1.455   1.529
  122WAT     H1  577   3.975   1.389   1.599
  122WAT     H2  578   3.920   1.417   1.460
  123WAT      O  579   3.234   0.120   4.914
  123WAT     H1  580   3.219   0.036   4.870
  123WAT     H2  581   3.169   0.121   4.985
  124WAT      O  582   3.549   3.587   4.976
  124WAT     H1  583   3.569   3.605   4.885
  124WAT     H2  584   3.462   3.546   4.974
  125WAT      O  585   2.230   1.402   3.994
  125WAT     H1  586   2.166   1.342   4.032
  125WAT     H2  587   2.177   1.470   3.952
  126WAT      O  588   0.709   1.010   3.600
  126WAT     H1  589   0.617   0.987   3.608
  126WAT     H2  590   0.738   1.026   3.690
  127WAT      O  591   2.780   1.010   1.677
  127WAT     H1  592   2.721   1.063   1.624
  127WAT     H2  593   2.867   1.044   1.659
  128WAT      O  594   3.100   4.750   1.065
  128WAT     H1  595   3.053   4.710   1.139
  128WAT     H2  596   3.051   4.830   1.046
  129WAT      O  597   2.204   0.658   4.203
  129WAT     H1  598   2.221   0.741   4.158
  129WAT     H2  599   2.283   0.606   4.188
  130WAT      O  600   1.104   0.160   1.552
  130WAT     H1  601   1.027   0.130   1.601
  130WAT     H2  602   1.082   0.140   1.461
  131WAT      O  603   3.428   0.283   2.109
  131WAT     H1  604   3.450   0.311   2.020
  131WAT     H2  605   3.492   0.214   2.129
  132WAT      O  606   2.480   1.411   2.747
  132WAT     H1  607   2.528   1.484   2.784
  132WAT     H2  608   2.544   1.366   2.691
  133WAT      O  609   1.740   2.830   2.771
  133WAT     H1  610   1.719   2.889   2.699
  133WAT     H2  611   1.751   2.744   2.728
  134WAT      O  612   2.943   2.443   0.485
  134WAT     H1  613   2.906   2.426   0.398
  134WAT     H2  614   3.026   2.488   0.467
  135WAT      O  615   0.157   0.456   2.207
  135WAT     H1  616   0.087   0.457   2.142
  135WAT     H2  617   0.115   0.420   2.286
  136WAT      O  618   0.297   2.590   0.779
  136WAT     H1  619   0.336   2.658   0.834
  136WAT     H2  620   0.371   2.534   0.755
  137WAT      O  621   4.284   0.439   1.136
  137WAT     H1  622   4.370   0.456   1.097
  137WAT     H2  623   4.237   0.522   1.126
  138WAT      O  624   0.829   5.021   0.931
  138WAT     H1  625   0.780   5.052   1.007
  138WAT     H2  626   0.920   5.031   0.956
  139WAT      O  627   2.194   4.253   3.624
  139WAT     H1  628   2.161   4.163   3.623
  139WAT     H2  629   2.182   4.282   3.714
  140WAT      O  630   1.475   2.968   4.114
  140WAT     H1  631   1.381   2.956   4.105
  140WAT     H2  632   1.494   3.047   4.063
  141WAT      O  633   4.498   3.419   4.775
  141WAT     H1  634   4.471   3.487   4.713
  141WAT     H2  635   4.582   3.453   4.810
  142WAT      O  636   0.944   3.014   0.897
  142WAT     H1  637   0.883   3.087   0.886
  142WAT     H2  638   1.031   3.053   0.883
  143WAT      O  639   3.165   3.696   1.091
  143WAT     H1  640   3.212   3.697   1.007
  143WAT     H2  641   3.234   3.706   1.157
  144WAT      O  642   3.500   0.241   3.128
  144WAT     H1  643   3.547   0.286   3.197
  144WAT     H2  644   3.409   0.240   3.157
  145WAT      O  645   0.981   2.933   1.859
  145WAT     H1  646   0.888   2.912   1.849
  145WAT     H2  647   0.983   3.028   1.870
  146WAT      O  648   1.626   1.328   0.161
  146WAT     H1  649   1.694   1.382   0.202
  146WAT     H2  650   1.582   1.285   0.234
  147WAT      O  651   2.236   5.117   3.518
  147WAT     H1  652   2.242   5.203   3.476
  147WAT     H2  653   2.144   5.109   3.544
  148WAT      O  654   3.121   0.586   4.312
  148WAT     H1  655   3.209   0.596   4.275
  148WAT     H2  656   3.062   0.617   4.244
  149WAT      O  657   0.382   2.138   2.938
  149WAT     H1  658   0.462   2.092   2.914
  149WAT     H2  659   0.406   2.231   2.934
  150WAT      O  660   3.869   0.558   5.146
  150WAT     H1  661   3.957   0.566   5.110
  150WAT     H2  662   3.862   0.632   5.207
  151WAT      O  663   2.171   2.934   5.288
  151WAT     H1  664   2.151   2.952   5.379
  151WAT     H2  665   2.202   3.016   5.252
  152WAT      O  666   2.067   4.003   3.649
  152WAT     H1  667   2.108   3.963   3.726
  152WAT     H2  668   1.975   4.012   3.673
  153WAT      O  669   1.930   2.536   3.603
  153WAT     H1  670   1.843   2.495   3.605
  153WAT     H2  671   1.984   2.474   3.555
  154WAT      O  672   4.115   0.188   4.413
  154WAT     H1  673   4.117   0.250   4.485
  154WAT     H2  674   4.179   0.221   4.350
  155WAT      O  675   1.280   3.475   0.702
  155WAT     H1  676   1.260   3.533   0.775
  155WAT     H2  677   1.372   3.490   0.683
  156WAT      O  678   3.012   2.433   5.164
  156WAT     H1  679   2.932   2.433   5.216
  156WAT     H2  680   2.984   2.410   5.076
  157WAT      O  681   4.455   0.387   4.333
  157WAT     H1  682   4.434   0.308   4.286
  157WAT     H2  683   4.538   0.418   4.297
  158WAT      O  684   0.007   2.316   1.906
  158WAT     H1  685  -0.064   2.289   1.963
  158WAT     H2  686  -0.010   2.271   1.823
  159WAT      O  687   2.312   1.858   0.482
  159WAT     H1  688   2.284   1.879   0.570
  159WAT     H2  689   2.278   1.769   0.467
  160WAT      O  690   0.136   0.313   1.143
  160WAT     H1  691   0.208   0.301   1.206
  160WAT     H2  692   0.125   0.408   1.137
  161WAT      O  693   3.134   5.079   0.791
  161WAT     H1  694   3.051   5.103   0.833
  161WAT     H2  695   3.127   5.114   0.703
  162WAT      O  696   3.205   0.443   2.167
  162WAT     H1  697   3.216   0.502   2.241
  162WAT     H2  698   3.293   0.410   2.149
  163WAT      O  699   4.308   1.513   4.702
  163WAT     H1  700   4.379   1.457   4.733
  163WAT     H2  701   4.351   1.594   4.677
  164WAT      O  702   3.134   0.304   0.909
  164WAT     H1  703   3.125   0.385   0.960
  164WAT     H2  704   3.220   0.310   0.869
  165WAT      O  705   1.729   0.821   4.183
  165WAT     H1  706   1.663   0.767   4.226
  165WAT     H2  707   1.795   0.760   4.153
  166WAT      O  708   0.976   0.953   2.823
  166WAT     H1  709   0.884   0.958   2.849
  166WAT     H2  710   0.974   0.911   2.737
  167WAT      O  711   4.280   0.429   2.350
  167WAT     H1  712   4.255   0.369   2.420
  167WAT     H2  713   4.376   0.425   2.348
  168WAT      O  714   0.692   1.080   4.664
  168WAT     H1  715   0.742   1.004   4.693
  168WAT     H2  716   0.743   1.155   4.695
  169WAT      O  717   0.490   0.514   4.570
  169WAT     H1  718   0.432   0.441   4.592
  169WAT     H2  719   0.444   0.560   4.499
  170WAT      O  720   3.660   0.824   4.128
  170WAT     H1  721   3.667   0.882   4.053
  170WAT     H2  722   3.672   0.882   4.204
  171WAT      O  723   0.030   4.628   5.106
  171WAT     H1  724  -0.056   4.662   5.084
  171WAT     H2  725   0.014   4.562   5.174
  172WAT      O  726   2.036   1.465   0.438
  172WAT     H1  727   2.101   1.484   0.371
  172WAT     H2  728   1.952   1.481   0.395
  173WAT      O  729   2.497   3.814   0.355
  173WAT     H1  730   2.435   3.863   0.300
  173WAT     H2  731   2.490   3.724   0.323
  174WAT      O  732   3.826   2.669   4.312
  174WAT     H1  733   3.736   2.649   4.336
  174WAT     H2  734   3.879   2.613   4.368
  175WAT      O  735   1.215   2.345   1.046
  175WAT     H1  736   1.232   2.309   0.959
  175WAT     H2  737   1.299   2.340   1.091
  176WAT      O  738   3.393   2.070   1.296
  176WAT     H1  739   3.345   2.049   1.376
  176WAT     H2  740   3.465   2.007   1.294
  177WAT      O  741   2.054   2.954   0.754
  177WAT     H1  742   2.002   2.893   0.702
  177WAT     H2  743   2.143   2.945   0.721
  178WAT      O  744   2.791   0.737   3.652
  178WAT     H1  745   2.818   0.660   3.703
  178WAT     H2  746   2.761   0.699   3.569
  179WAT      O  747   3.011   3.637   3.675
  179WAT     H1  748   3.044   3.547   3.673
  179WAT     H2  749   3.032   3.668   3.763
  180WAT      O  750   4.069   4.676   3.846
  180WAT     H1  751   4.111   4.613   3.905
  180WAT     H2  752   4.014   4.729   3.904
  181WAT      O  753   0.776   2.396   0.275
  181WAT     H1  754   0.787   2.412   0.181
  181WAT     H2  755   0.865   2.387   0.308
  182WAT      O  756   3.756   0.277   4.740
  182WAT     H1  757   3.719   0.318   4.662
  182WAT     H2  758   3.708   0.319   4.813
  183WAT      O  759   0.906   0.081   1.919
  183WAT     H1  760   0.904   0.059   2.013
  183WAT     H2  761   0.966   0.015   1.882
  184WAT      O  762   2.471   3.194   3.558
  184WAT     H1  763   2.491   3.270   3.613
  184WAT     H2  764   2.405   3.146   3.607
  185WAT      O  765   1.914   2.298   1.831
  185WAT     H1  766   1.880   2.227   1.886
  185WAT     H2  767   1.883   2.276   1.743
  186WAT      O  768   0.701   1.953   1.752
  186WAT     H1  769   0.617   1.933   1.710
  186WAT     H2  770   0.697   2.047   1.771
  187WAT      O  771   0.162   0.996   4.136
  187WAT     H1  772   0.098   0.948   4.190
  187WAT     H2  773   0.235   0.935   4.127
  188WAT      O  774   2.687   0.362   5.206
  188WAT     H1  775   2.606   0.314   5.193
  188WAT     H2  776   2.709   0.397   5.119
  189WAT      O  777   4.331   2.591   3.981
  189WAT     H1  778   4.270   2.531   4.024
  189WAT     H2  779   4.386   2.624   4.052
  190WAT      O  780   2.134   3.000   2.186
  190WAT     H1  781   2.185   2.970   2.111
  190WAT     H2  782   2.137   3.096   2.180
  191WAT      O  783   3.437   1.336   0.333
  191WAT     H1  784   3.499   1.372   0.270
  191WAT     H2  785   3.403   1.414   0.379
  192WAT      O  786   3.738   1.269   1.053
  192WAT     H1  787   3.689   1.351   1.063
  192WAT     H2  788   3.725   1.244   0.962
  193WAT      O  789   0.281   3.802   0.221
  193WAT     H1  790   0.185   3.804   0.224
  193WAT     H2  791   0.307   3.893   0.203
  194WAT      O  792   0.474   3.313   3.382
  194WAT     H1  793   0.500   3.402   3.356
  194WAT     H2  794   0.434   3.324   3.468
  195WAT      O  795   1.939   2.570   3.921
  195WAT     H1  796   1.911   2.590   3.832
  195WAT     H2  797   1.865   2.595   3.976
  196WAT      O  798   4.111   1.175   1.642
  196WAT     H1  799   4.021   1.152   1.619
  196WAT     H2  800   4.165   1.115   1.592
  197WAT      O  801   4.308   0.811   5.189
  197WAT     H1  802   4.394   0.770   5.200
  197WAT     H2  803   4.326   0.896   5.151
  198WAT      O  804   0.000   4.544   0.762
  198WAT     H1  805   0.072   4.531   0.700
  198WAT     H2  806  -0.041   4.626   0.735
  199WAT      O  807   0.902   3.564   4.778
  199WAT     H1  808   0.820   3.588   4.735
  199WAT     H2  809   0.969   3.615   4.732
  200WAT      O  810   4.074   0.446   0.733
  200WAT     H1  811   4.097   0.380   0.799
  200WAT     H2  812   3.978   0.444   0.730
  201WAT      O  813   3.965   3.960   1.420
  201WAT     H1  814   3.886   3.912   1.446
  201WAT     H2  815   3.956   4.045   1.462
  202WAT      O  816   2.269   4.736   4.892
  202WAT     H1  817   2.190   4.790   4.890
  202WAT     H2  818   2.339   4.799   4.911
  203WAT      O  819   3.068   2.480   1.312
  203WAT     H1  820   3.073   2.391   1.278
  203WAT     H2  821   3.127   2.480   1.388
  204WAT      O  822   1.195   1.800   1.469
  204WAT     H1  823   1.130   1.760   1.411
  204WAT     H2  824   1.150   1.803   1.554
  205WAT      O  825   3.398   4.822   4.407
  205WAT     H1  826   3.351   4.772   4.473
  205WAT     H2  827   3.490   4.800   4.420
  206WAT      O  828   3.878   1.103   2.625
  206WAT     H1  829   3.830   1.033   2.582
  206WAT     H2  830   3.964   1.066   2.644
  207WAT      O  831   0.986   4.889   2.005
  207WAT     H1  832   1.006   4.961   2.066
  207WAT     H2  833   1.023   4.917   1.922
  208WAT      O  834   3.259   1.226   1.482
  208WAT     H1  835   3.315   1.198   1.410
  208WAT     H2  836   3.291   1.313   1.506
  209WAT      O  837   0.849   0.106   3.568
  209WAT     H1  838   0.777   0.161   3.535
  209WAT     H2  839   0.818   0.016   3.555
  210WAT      O  840   2.832   4.966   1.825
  210WAT     H1  841   2.911   4.961   1.878
  210WAT     H2  842   2.781   4.889   1.849
  211WAT      O  843   0.239   5.042   4.829
  211WAT     H1  844   0.188   5.020   4.907
  211WAT     H2  845   0.189   5.004   4.757
  212WAT      O  846   2.196   4.678   5.295
  212WAT     H1  847   2.109   4.668   5.333
  212WAT     H2  848   2.206   4.602   5.239
  213WAT      O  849   2.882   1.765   0.355
  213WAT     H1  850   2.822   1.744   0.426
  213WAT     H2  851   2.953   1.813   0.397
  214WAT      O  852   1.782   4.056   2.109
  214WAT     H1  853   1.873   4.079   2.090
  214WAT     H2  854   1.786   3.997   2.184
  215WAT      O  855   2.165   3.092   0.254
  215WAT     H1  856   2.100   3.141   0.204
  215WAT     H2  857   2.115   3.024   0.299
  216WAT      O  858   4.488   2.532   1.419
  216WAT     H1  859   4.526   2.477   1.487
  216WAT     H2  860   4.418   2.479   1.381
  217WAT      O  861   3.716   1.004   3.566
  217WAT     H1  862   3.781   1.046   3.623
  217WAT     H2  863   3.714   0.912   3.595
  218WAT      O  864   1.001   3.688   3.108
  218WAT     H1  865   0.985   3.650   3.022
  218WAT     H2  866   1.096   3.677   3.121
  219WAT      O  867   2.300   5.114   4.656
  219WAT     H1  868   2.389   5.109   4.620
  219WAT     H2  869   2.271   5.023   4.662
  220WAT      O  870   1.458   3.888   2.367
  220WAT     H1  871   1.552   3.870   2.365
  220WAT     H2  872   1.420   3.824   2.307
  221WAT      O  873   1.656   1.795   4.431
  221WAT     H1  874   1.698   1.773   4.348
  221WAT     H2  875   1.563   1.777   4.415
  222WAT      O  876   3.231   3.058   5.302
  222WAT     H1  877   3.201   2.971   5.275
  222WAT     H2  878   3.294   3.084   5.235
  223WAT      O  879   0.597   3.635   3.730
  223WAT     H1  880   0.519   3.621   3.784
  223WAT     H2  881   0.635   3.548   3.720
  224WAT      O  882   0.314   0.275   2.976
  224WAT     H1  883   0.285   0.367   2.975
  224WAT     H2  884   0.247   0.227   2.927
  225WAT      O  885   3.560   0.402   0.145
  225WAT     H1  886   3.603   0.456   0.211
  225WAT     H2  887   3.597   0.433   0.062
  226WAT      O  888   2.796   4.500   1.270
  226WAT     H1  889   2.724   4.563   1.277
  226WAT     H2  890   2.875   4.555   1.265
  227WAT      O  891   3.873   4.037   0.655
  227WAT     H1  892   3.919   4.113   0.690
  227WAT     H2  893   3.790   4.073   0.621
  228WAT      O  894   3.019   4.508   0.973
  228WAT     H1  895   3.021   4.604   0.976
  228WAT     H2  896   3.104   4.481   1.007
  229WAT      O  897   1.180   4.701   2.441
  229WAT     H1  898   1.124   4.630   2.409
  229WAT     H2  899   1.256   4.698   2.383
  230WAT      O  900   4.383   2.675   0.658
  230WAT     H1  901   4.471   2.685   0.694
  230WAT     H2  902   4.335   2.752   0.688
  231WAT      O  903   2.094   5.139   0.046
  231WAT     H1  904   2.034   5.212   0.036
  231WAT     H2  905   2.044   5.073   0.094
  232WAT      O  906   1.593   3.379   1.663
  232WAT     H1  907   1.581   3.345   1.574
  232WAT     H2  908   1.555   3.467   1.661
  233WAT      O  909   2.554   0.984   1.880
  233WAT     H1  910   2.572   0.918   1.946
  233WAT     H2  911   2.631   0.983   1.823
  234WAT      O  912   0.080   0.225   3.738
  234WAT     H1  913   0.061   0.234   3.644
  234WAT     H2  914   0.175   0.216   3.742
  235WAT      O  915   0.189   3.771   4.599
  235WAT     H1  916   0.126   3.699   4.588
  235WAT     H2  917   0.137   3.842   4.636
  236WAT      O  918   0.443   1.706   4.037
  236WAT     H1  919   0.426   1.614   4.018
  236WAT     H2  920   0.468   1.743   3.952
  237WAT      O  921   3.163   2.775   2.845
  237WAT     H1  922   3.122   2.691   2.828
  237WAT     H2  923   3.228   2.785   2.776
  238WAT      O  924   3.524   0.578   0.764
  238WAT     H1  925   3.611   0.542   0.743
  238WAT     H2  926   3.491   0.612   0.681
  239WAT      O  927   1.375   1.771   3.771
  239WAT     H1  928   1.413   1.748   3.686
  239WAT     H2  929   1.321   1.848   3.754
  240WAT      O  930   1.052   1.274   2.599
  240WAT     H1  931   1.044   1.274   2.695
  240WAT     H2  932   1.006   1.194   2.573
  241WAT      O  933   2.238   0.160   1.120
  241WAT     H1  934   2.247   0.249   1.150
  241WAT     H2  935   2.317   0.143   1.068
  242WAT      O  936   0.306   3.444   1.793
  242WAT     H1  937   0.272   3.478   1.710
  242WAT     H2  938   0.399   3.466   1.791
  243WAT      O  939   4.243   1.067   3.986
  243WAT     H1  940   4.318   1.116   3.954
  243WAT     H2  941   4.175   1.132   4.001
  244WAT      O  942   3.313   2.497   1.480
  244WAT     H1  943   3.343   2.476   1.392
  244WAT     H2  944   3.321   2.415   1.529
  245WAT      O  945   2.465   0.660   1.839
  245WAT     H1  946   2.487   0.731   1.901
  245WAT     H2  947   2.399   0.609   1.885
  246WAT      O  948   0.257   2.573   1.254
  246WAT     H1  949   0.314   2.500   1.277
  246WAT     H2  950   0.227   2.607   1.338
  247WAT      O  951   4.129   3.681   3.661
  247WAT     H1  952   4.078   3.602   3.643
  247WAT     H2  953   4.173   3.700   3.578
  248WAT      O  954   2.719   1.604   4.045
  248WAT     H1  955   2.759   1.520   4.025
  248WAT     H2  956   2.726   1.612   4.140
  249WAT      O  957   0.599   4.015   0.846
  249WAT     H1  958   0.684   4.052   0.824
  249WAT     H2  959   0.536   4.072   0.803
  250WAT      O  960   1.415   2.001   0.634
  250WAT     H1  961   1.505   1.984   0.661
  250WAT     H2  962   1.378   2.054   0.704
  251WAT      O  963   3.379   0.849   3.362
  251WAT     H1  964   3.318   0.907   3.314
  251WAT     H2  965   3.385   0.889   3.449
  252WAT      O  966   0.792   1.036   4.393
  252WAT     H1  967   0.803   1.129   4.373
  252WAT     H2  968   0.737   1.034   4.472
  253WAT      O  969   2.306   4.619   3.549
  253WAT     H1  970   2.393   4.588   3.573
  253WAT     H2  971   2.265   4.543   3.507
  254WAT      O  972   3.970   2.541   3.200
  254WAT     H1  973   4.024   2.519   3.124
  254WAT     H2  974   3.885   2.502   3.182
  255WAT      O  975   3.372   2.919   0.996
  255WAT     H1  976   3.291   2.968   1.009
  255WAT     H2  977   3.439   2.971   1.039
  256WAT      O  978   3.313   3.952   4.470
  256WAT     H1  979   3.380   4.016   4.448
  256WAT     H2  980   3.309   3.953   4.565
  257WAT      O  981   1.560   3.729   3.623
  257WAT     H1  982   1.572   3.821   3.602
  257WAT     H2  983   1.647   3.697   3.646
  258WAT      O  984   4.348   4.333   2.875
  258WAT     H1  985   4.390   4.250   2.901
  258WAT     H2  986   4.266   4.334   2.924
  259WAT      O  987   2.156   2.841   1.431
  259WAT     H1  988   2.102   2.880   1.499
  259WAT     H2  989   2.196   2.764   1.472
  260WAT      O  990   4.246   1.933   4.710
  260WAT     H1  991   4.183   1.866   4.683
  260WAT     H2  992   4.297   1.950   4.632
  261WAT      O  993   2.470   0.609   1.554
  261WAT     H1  994   2.436   0.520   1.568
  261WAT     H2  995   2.448   0.655   1.634
  262WAT      O  996   4.186   0.188   2.472
  262WAT     H1  997   4.243   0.165   2.546
  262WAT     H2  998   4.208   0.124   2.404
  263WAT      O  999   1.197   5.099   0.204
  263WAT     H1 1000   1.183   5.152   0.125
  263WAT     H2 1001   1.292   5.085   0.206
  264WAT      O 1002   4.315   0.321   3.639
  264WAT     H1 1003   4.250   0.291   3.575
  264WAT     H2 1004   4.278   0.295   3.724
  265WAT      O 1005   2.951   4.069   3.037
  265WAT     H1 1006   2.877   4.095   2.981
  265WAT     H2 1007   3.017   4.037   2.975
  266WAT      O 1008   0.620   0.775   1.760
  266WAT     H1 1009   0.592   0.709   1.825
  266WAT     H2 1010   0.711   0.752   1.742
  267WAT      O 1011   4.465   3.923   1.780
  267WAT     H1 1012   4.515   3.842   1.791
  267WAT     H2 1013   4.509   3.970   1.709
  268WAT      O 1014   2.106   2.532   0.724
  268WAT     H1 1015   2.049   2.590   0.673
  268WAT     H2 1016   2.185   2.584   0.740
  269WAT      O 1017   0.067   2.452   2.295
  269WAT     H1 1018   0.092   2.479   2.383
  269WAT     H2 1019   0.151   2.444   2.248
  270WAT      O 1020   4.277   4.497   0.504
  270WAT     H1 1021   4.367   4.501   0.474
  270WAT     H2 1022   4.224   4.512   0.425
  271WAT      O 1023   0.942   3.936   1.086
  271WAT     H1 1024   0.962   3.942   0.992
  271WAT     H2 1025   0.864   3.881   1.090
  272WAT      O 1026   1.839   3.421   0.949
  272WAT     H1 1027   1.866   3.401   0.859
  272WAT     H2 1028   1.827   3.335   0.990
  273WAT      O 1029   4.276   5.012   4.718
  273WAT     H1 1030   4.284   5.088   4.774
  273WAT     H2 1031   4.188   5.019   4.680
  274WAT      O 1032   3.638   4.938   0.593
  274WAT     H1 1033   3.650   4.872   0.525
  274WAT     H2 1034   3.544   4.937   0.611
  275WAT      O 1035   0.772   3.872   2.106
  275WAT     H1 1036   0.725   3.823   2.173
  275WAT     H2 1037   0.778   3.812   2.032
  276WAT      O 1038   2.191   1.072   1.587
  276WAT     H1 1039   2.189   0.991   1.534
  276WAT     H2 1040   2.283   1.096   1.588
  277WAT      O 1041   1.742   4.232   5.277
  277WAT     H1 1042   1.804   4.163   5.300
  277WAT     H2 1043   1.734   4.226   5.181
  278WAT      O 1044   4.058   0.449   0.288
  278WAT     H1 1045   4.089   0.484   0.205
  278WAT     H2 1046   4.043   0.527   0.343
  279WAT      O 1047   0.717   2.886   1.725
  279WAT     H1 1048   0.732   2.947   1.653
  279WAT     H2 1049   0.622   2.873   1.726
  280WAT      O 1050   3.043   1.498   3.487
  280WAT     H1 1051   2.966   1.522   3.538
  280WAT     H2 1052   3.034   1.547   3.406
  281WAT      O 1053   0.070   4.633   2.874
  281WAT     H1 1054   0.013   4.627   2.950
  281WAT     H2 1055   0.154   4.662   2.910
  282WAT      O 1056   4.244   4.032   5.109
  282WAT     H1 1057   4.277   4.063   5.025
  282WAT     H2 1058   4.303   4.071   5.174
  283WAT      O 1059   0.254   0.063   0.208
  283WAT     H1 1060   0.236  -0.028   0.183
  283WAT     H2 1061   0.225   0.115   0.134
  284WAT      O 1062   3.330   0.525   1.530
  284WAT     H1 1063   3.273   0.448   1.517
  284WAT     H2 1064   3.321   0.545   1.623
  285WAT      O 1065   3.605   3.094   3.501
  285WAT     H1 1066   3.630   3.180   3.469
  285WAT     H2 1067   3.637   3.092   3.591
  286WAT      O 1068   1.758   4.221   4.342
  286WAT     H1 1069   1.683   4.162   4.339
  286WAT     H2 1070   1.722   4.304   4.372
  287WAT      O 1071   3.813   4.665   1.372
  287WAT     H1 1072   3.819   4.590   1.313
  287WAT     H2 1073   3.862   4.639   1.450
  288WAT      O 1074   0.118   1.145   5.235
  288WAT     H1 1075   0.170   1.063   5.238
  288WAT     H2 1076   0.129   1.177   5.145
  289WAT      O 1077   0.507   3.021   1.427
  289WAT     H1 1078   0.423   3.049   1.391
  289WAT     H2 1079   0.526   2.939   1.383
  290WAT      O 1080   3.204   2.754   3.295
  290WAT     H1 1081   3.204   2.669   3.250
  290WAT     H2 1082   3.224   2.818   3.227
  291WAT      O 1083   4.251   0.538   4.825
  291WAT     H1 1084   4.173   0.508   4.777
  291WAT     H2 1085   4.324   0.512   4.769
  292WAT      O 1086   4.327   0.323   3.074
  292WAT     H1 1087   4.302   0.379   3.001
  292WAT     H2 1088   4.350   0.239   3.034
  293WAT      O 1089   2.533   0.209   4.953
  293WAT     H1 1090   2.494   0.127   4.984
  293WAT     H2 1091   2.458   0.265   4.933
  294WAT      O 1092   2.943   3.576   0.260
  294WAT     H1 1093   2.985   3.561   0.175
  294WAT     H2 1094   2.906   3.491   0.283
  295WAT      O 1095   1.360   4.581   2.201
  295WAT     H1 1096   1.416   4.658   2.191
  295WAT     H2 1097   1.309   4.578   2.121
  296WAT      O 1098   1.491   2.325   1.140
  296WAT     H1 1099   1.448   2.242   1.163
  296WAT     H2 1100   1.491   2.326   1.045
  297WAT      O 1101   1.774   3.303   1.416
  297WAT     H1 1102   1.867   3.280   1.419
  297WAT     H2 1103   1.773   3.399   1.410
  298WAT      O 1104   2.034   1.729   0.124
  298WAT     H1 1105   1.942   1.705   0.112
  298WAT     H2 1106   2.075   1.652   0.163
  299WAT      O 1107   0.709   2.629   2.656
  299WAT     H1 1108   0.699   2.627   2.751
  299WAT     H2 1109   0.787   2.576   2.639
  300WAT      O 1110   2.000   3.436   2.985
  300WAT     H1 1111   1.969   3.496   2.917
  300WAT     H2 1112   2.070   3.386   2.943
  301WAT      O 1113   3.522   3.867   3.821
  301WAT     H1 1114   3.512   3.951   3.866
  301WAT     H2 1115   3.605   3.832   3.855
  302WAT      O 1116   3.494   4.696   5.139
  302WAT     H1 1117   3.564   4.712   5.076
  302WAT     H2 1118   3.428   4.763   5.119
  303WAT      O 1119   0.011   1.857   1.171
  303WAT     H1 1120   0.024   1.876   1.078
  303WAT     H2 1121   0.072   1.786   1.190
  304WAT      O 1122   3.147   3.733   2.910
  304WAT     H1 1123   3.190   3.799   2.964
  304WAT     H2 1124   3.191   3.651   2.932
  305WAT      O 1125   2.110   0.859   3.221
  305WAT     H1 1126   2.054   0.810   3.280
  305WAT     H2 1127   2.172   0.904   3.278
  306WAT      O 1128   1.501   1.113   1.541
  306WAT     H1 1129   1.460   1.132   1.457
  306WAT     H2 1130   1.449   1.040   1.577
  307WAT      O 1131   0.116   2.533   4.421
  307WAT     H1 1132   0.164   2.616   4.414
  307WAT     H2 1133   0.048   2.550   4.486
  308WAT      O 1134   1.611   1.366   0.868
  308WAT     H1 1135   1.593   1.282   0.827
  308WAT     H2 1136   1.660   1.345   0.947
  309WAT      O 1137   3.944   0.548   2.080
  309WAT     H1 1138   3.992   0.466   2.093
  309WAT     H2 1139   3.995   0.612   2.127
  310WAT      O 1140   1.906   3.182   1.047
  310WAT     H1 1141   1.973   3.176   1.115
  310WAT     H2 1142   1.864   3.096   1.047
  311WAT      O 1143   3.365   1.506   1.535
  311WAT     H1 1144   3.407   1.516   1.621
  311WAT     H2 1145   3.284   1.556   1.542
  312WAT      O 1146   2.583   1.563   1.559
  312WAT     H1 1147   2.585   1.524   1.646
  312WAT     H2 1148   2.612   1.494   1.500
  313WAT      O 1149   2.826   3.297   4.249
  313WAT     H1 1150   2.895   3.339   4.300
  313WAT     H2 1151   2.836   3.204   4.267
  314WAT      O 1152   1.950   0.671   0.148
  314WAT     H1 1153   2.016   0.739   0.133
  314WAT     H2 1154   1.995   0.607   0.203
  315WAT      O 1155   3.594   1.165   4.759
  315WAT     H1 1156   3.544   1.083   4.772
  315WAT     H2 1157   3.677   1.136   4.723
  316WAT      O 1158   4.206   3.441   0.445
  316WAT     H1 1159   4.237   3.393   0.368
  316WAT     H2 1160   4.113   3.419   0.451
  317WAT      O 1161   2.746   2.003   4.347
  317WAT     H1 1162   2.779   1.979   4.434
  317WAT     H2 1163   2.823   2.037   4.301
  318WAT      O 1164   3.101   2.022   3.245
  318WAT     H1 1165   3.144   2.084   3.304
  318WAT     H2 1166   3.056   2.077   3.181
  319WAT      O 1167   4.271   0.344   1.413
  319WAT     H1 1168   4.284   0.382   1.326
  319WAT     H2 1169   4.223   0.263   1.396
  320WAT      O 1170   3.513   2.674   1.097
  320WAT     H1 1171   3.523   2.681   1.002
  320WAT     H2 1172   3.440   2.733   1.118
  321WAT      O 1173   3.385   4.506   0.716
  321WAT     H1 1174   3.320   4.438   0.733
  321WAT     H2 1175   3.369   4.572   0.784
  322WAT      O 1176   0.221   1.363   3.304
  322WAT     H1 1177   0.283   1.328   3.240
  322WAT     H2 1178   0.258   1.340   3.388
  323WAT      O 1179   1.519   2.356   0.881
  323WAT     H1 1180   1.456   2.318   0.820
  323WAT     H2 1181   1.534   2.445   0.848
  324WAT      O 1182   0.975   4.440   4.782
  324WAT     H1 1183   0.945   4.401   4.864
  324WAT     H2 1184   1.068   4.417   4.777
  325WAT      O 1185   1.873   0.387   2.401
  325WAT     H1 1186   1.922   0.331   2.339
  325WAT     H2 1187   1.886   0.344   2.486
  326WAT      O 1188   4.058   2.599   0.084
  326WAT     H1 1189   4.119   2.526   0.099
  326WAT     H2 1190   4.090   2.641   0.004
  327WAT      O 1191   0.316   2.170   5.238
  327WAT     H1 1192   0.401   2.128   5.229
  327WAT     H2 1193   0.277   2.128   5.314
  328WAT      O 1194   1.502   1.442   4.556
  328WAT     H1 1195   1.574   1.424   4.496
  328WAT     H2 1196   1.434   1.379   4.531
  329WAT      O 1197   2.408   0.260   4.382
  329WAT     H1 1198   2.337   0.275   4.445
  329WAT     H2 1199   2.486   0.252   4.437
  330WAT      O 1200   1.651   2.335   3.940
  330WAT     H1 1201   1.699   2.374   3.866
  330WAT     H2 1202   1.559   2.353   3.921
  331WAT      O 1203   3.114   4.363   3.606
  331WAT     H1 1204   3.207   4.376   3.623
  331WAT     H2 1205   3.109   4.349   3.511
  332WAT      O 1206   0.187   4.260   5.216
  332WAT     H1 1207   0.267   4.295   5.255
  332WAT     H2 1208   0.217   4.204   5.145
  333WAT      O 1209   0.475   4.366   0.513
  333WAT     H1 1210   0.522   4.445   0.539
  333WAT     H2 1211   0.539   4.315   0.462
  334WAT      O 1212   3.979   3.156   4.362
  334WAT     H1 1213   3.929   3.075   4.371
  334WAT     H2 1214   3.963   3.204   4.443
  335WAT      O 1215   0.923   0.632   4.188
  335WAT     H1 1216   0.864   0.691   4.236
  335WAT     H2 1217   0.912   0.657   4.096
  336WAT      O 1218   0.380   0.431   2.675
  336WAT     H1 1219   0.412   0.362   2.617
  336WAT     H2 1220   0.285   0.418   2.678
  337WAT      O 1221   1.014   4.309   3.886
  337WAT     H1 1222   0.972   4.294   3.801
  337WAT     H2 1223   1.038   4.222   3.916
  338WAT      O 1224   0.059   3.396   0.081
  338WAT     H1 1225   0.032   3.371  -0.007
  338WAT     H2 1226  -0.018   3.441   0.118
  339WAT      O 1227   1.280   0.213   3.713
  339WAT     H1 1228   1.284   0.303   3.679
  339WAT     H2 1229   1.204   0.174   3.670
  340WAT      O 1230   2.651   2.606   1.959
  340WAT     H1 1231   2.686   2.657   1.886
  340WAT     H2 1232   2.567   2.648   1.979
  341WAT      O 1233   3.858   3.269   2.627
  341WAT     H1 1234   3.954   3.271   2.625
  341WAT     H2 1235   3.834   3.198   2.568
  342WAT      O 1236   4.459   2.749   1.631
  342WAT     H1 1237   4.528   2.777   1.690
  342WAT     H2 1238   4.505   2.719   1.552
  343WAT      O 1239   0.203   4.571   3.888
  343WAT     H1 1240   0.223   4.664   3.879
  343WAT     H2 1241   0.287   4.527   3.880
  344WAT      O 1242   1.432   3.027   2.999
  344WAT     H1 1243   1.344   3.051   3.027
  344WAT     H2 1244   1.421   2.942   2.955
  345WAT      O 1245   0.334   4.749   1.938
  345WAT     H1 1246   0.289   4.754   1.853
  345WAT     H2 1247   0.401   4.682   1.926
  346WAT      O 1248   0.053   4.236   0.627
  346WAT     H1 1249   0.083   4.206   0.713
  346WAT     H2 1250   0.075   4.330   0.625
  347WAT      O 1251   0.933   3.996   1.896
  347WAT     H1 1252   0.912   3.931   1.829
  347WAT     H2 1253   0.867   3.983   1.964
  348WAT      O 1254   4.450   5.095   2.695
  348WAT     H1 1255   4.360   5.079   2.666
  348WAT     H2 1256   4.490   5.009   2.700
  349WAT      O 1257   0.018   0.780   4.312
  349WAT     H1 1258  -0.009   0.716   4.377
  349WAT     H2 1259   0.109   0.800   4.332
  350WAT      O 1260   2.879   1.841   4.534
  350WAT     H1 1261   2.830   1.757   4.539
  350WAT     H2 1262   2.949   1.823   4.471
  351WAT      O 1263   2.542   3.808   4.525
  351WAT     H1 1264   2.612   3.871   4.511
  351WAT     H2 1265   2.565   3.764   4.607
  352WAT      O 1266   1.977   4.602   0.419
  352WAT     H1 1267   2.038   4.595   0.491
  352WAT     H2 1268   2.027   4.574   0.342
  353WAT      O 1269   3.159   1.992   2.527
  353WAT     H1 1270   3.174   1.984   2.621
  353WAT     H2 1271   3.118   2.078   2.515
  354WAT      O 1272   1.096   2.643   2.250
  354WAT     H1 1273   1.125   2.703   2.181
  354WAT     H2 1274   1.125   2.683   2.332
  355WAT      O 1275   1.463   2.892   4.859
  355WAT     H1 1276   1.503   2.815   4.819
  355WAT     H2 1277   1.373   2.891   4.827
  356WAT      O 1278   3.957   2.919   2.107
  356WAT     H1 1279   3.893   2.903   2.038
  356WAT     H2 1280   4.020   2.980   2.066
  357WAT      O 1281   1.460   4.883   1.535
  357WAT     H1 1282   1.540   4.836   1.509
  357WAT     H2 1283   1.390   4.820   1.524
  358WAT      O 1284   2.771   2.261   1.773
  358WAT     H1 1285   2.856   2.305   1.776
  358WAT     H2 1286   2.782   2.192   1.708
  359WAT      O 1287   0.098   2.034   4.721
  359WAT     H1 1288   0.089   1.976   4.645
  359WAT     H2 1289   0.018   2.086   4.720
  360WAT      O 1290   3.918   5.026   3.739
  360WAT     H1 1291   3.991   5.060   3.791
  360WAT     H2 1292   3.947   4.938   3.712
  361WAT      O 1293   1.732   3.255   5.151
  361WAT     H1 1294   1.725   3.160   5.141
  361WAT     H2 1295   1.732   3.288   5.062
  362WAT      O 1296   3.094   3.484   0.613
  362WAT     H1 1297   3.023   3.424   0.635
  362WAT     H2 1298   3.142   3.440   0.544
  363WAT      O 1299   0.297   0.303   0.638
  363WAT     H1 1300   0.316   0.213   0.612
  363WAT     H2 1301   0.234   0.295   0.710
  364WAT      O 1302   2.312   1.854   0.954
  364WAT     H1 1303   2.385   1.792   0.955
  364WAT     H2 1304   2.307   1.882   0.863
  365WAT      O 1305   0.152   3.378   0.480
  365WAT     H1 1306   0.073   3.341   0.440
  365WAT     H2 1307   0.215   3.383   0.409
  366WAT      O 1308   2.902   3.634   2.825
  366WAT     H1 1309   2.918   3.540   2.816
  366WAT     H2 1310   2.984   3.668   2.861
  367WAT      O 1311   0.258   4.704   4.971
  367WAT     H1 1312   0.191   4.678   5.034
  367WAT     H2 1313   0.288   4.622   4.932
  368WAT      O 1314   3.094   0.683   0.141
  368WAT     H1 1315   3.176   0.724   0.112
  368WAT     H2 1316   3.117   0.591   0.156
  369WAT      O 1317   4.393   4.361   3.966
  369WAT     H1 1318   4.438   4.433   3.922
  369WAT     H2 1319   4.361   4.306   3.895
  370WAT      O 1320   1.780   1.514   0.297
  370WAT     H1 1321   1.705   1.543   0.349
  370WAT     H2 1322   1.785   1.577   0.225
  371WAT      O 1323   3.247   0.067   1.476
  371WAT     H1 1324   3.315   0.133   1.458
  371WAT     H2 1325   3.166   0.109   1.446
  372WAT      O 1326   1.054   4.411   4.464
  372WAT     H1 1327   1.022   4.454   4.384
  372WAT     H2 1328   0.975   4.380   4.508
  373WAT      O 1329   3.687   2.430   4.091
  373WAT     H1 1330   3.655   2.515   4.118
  373WAT     H2 1331   3.702   2.439   3.997
  374WAT      O 1332   1.340   0.405   5.109
  374WAT     H1 1333   1.369   0.471   5.172
  374WAT     H2 1334   1.329   0.326   5.160
  375WAT      O 1335   1.994   4.672   4.490
  375WAT     H1 1336   1.945   4.712   4.417
  375WAT     H2 1337   2.038   4.746   4.532
  376WAT      O 1338   1.072   0.494   1.891
  376WAT     H1 1339   1.137   0.565   1.889
  376WAT     H2 1340   1.120   0.416   1.864
  377WAT      O 1341   1.586   0.382   3.291
  377WAT     H1 1342   1.567   0.471   3.320
  377WAT     H2 1343   1.501   0.344   3.275
  378WAT      O 1344   2.704   0.757   4.702
  378WAT     H1 1345   2.772   0.824   4.689
  378WAT     H2 1346   2.725   0.716   4.786
  379WAT      O 1347   3.404   3.710   0.180
  379WAT     H1 1348   3.336   3.659   0.224
  379WAT     H2 1349   3.483   3.656   0.188
  380WAT      O 1350   0.264   2.412   1.886
  380WAT     H1 1351   0.169   2.425   1.896
  380WAT     H2 1352   0.279   2.322   1.913
  381WAT      O 1353   1.127   4.240   4.188
  381WAT     H1 1354   1.109   4.178   4.119
  381WAT     H2 1355   1.089   4.201   4.267
  382WAT      O 1356   2.085   1.622   4.256
  382WAT     H1 1357   2.045   1.627   4.343
  382WAT     H2 1358   2.114   1.711   4.238
  383WAT      O 1359   1.006   1.023   0.272
  383WAT     H1 1360   1.060   0.951   0.305
  383WAT     H2 1361   0.918   0.987   0.266
  384WAT      O 1362   3.032   0.206   1.770
  384WAT     H1 1363   3.079   0.125   1.787
  384WAT     H2 1364   2.951   0.198   1.820
  385WAT      O 1365   3.453   0.703   2.213
  385WAT     H1 1366   3.545   0.698   2.237
  385WAT     H2 1367   3.407   0.658   2.285
  386WAT      O 1368   1.840   1.789   4.931
  386WAT     H1 1369   1.762   1.744   4.964
  386WAT     H2 1370   1.896   1.799   5.008
  387WAT      O 1371   0.099   1.060   2.107
  387WAT     H1 1372   0.087   0.964   2.114
  387WAT     H2 1373   0.011   1.093   2.089
  388WAT      O 1374   0.440   3.274   1.138
  388WAT     H1 1375   0.521   3.258   1.091
  388WAT     H2 1376   0.371   3.262   1.072
  389WAT      O 1377   1.261   3.713   0.915
  389WAT     H1 1378   1.250   3.802   0.950
  389WAT     H2 1379   1.326   3.673   0.972
  390WAT      O 1380   3.324   4.845   0.417
  390WAT     H1 1381   3.355   4.839   0.327
  390WAT     H2 1382   3.369   4.774   0.463
  391WAT      O 1383   2.336   4.102   4.958
  391WAT     H1 1384   2.241   4.116   4.966
  391WAT     H2 1385   2.367   4.104   5.049
  392WAT      O 1386   1.336   4.155   3.855
  392WAT     H1 1387   1.310   4.224   3.795
  392WAT     H2 1388   1.407   4.193   3.906
  393WAT      O 1389   1.145   2.762   1.993
  393WAT     H1 1390   1.076   2.829   1.990
  393WAT     H2 1391   1.196   2.777   1.914
  394WAT      O 1392   4.283   0.362   4.563
  394WAT     H1 1393   4.341   0.347   4.638
  394WAT     H2 1394   4.342   0.369   4.488
  395WAT      O 1395   3.075   3.025   4.788
  395WAT     H1 1396   3.115   2.939   4.808
  395WAT     H2 1397   3.102   3.081   4.860
  396WAT      O 1398   3.317   2.254   5.153
  396WAT     H1 1399   3.358   2.167   5.143
  396WAT     H2 1400   3.231   2.235   5.189
  397WAT      O 1401   4.457   1.698   3.578
  397WAT     H1 1402   4.441   1.646   3.656
  397WAT     H2 1403   4.545   1.675   3.549
  398WAT      O 1404   3.675   1.815   4.256
  398WAT     H1 1405   3.647   1.898   4.296
  398WAT     H2 1406   3.654   1.825   4.163
  399WAT      O 1407   1.135   4.279   0.350
  399WAT     H1 1408   1.223   4.275   0.387
  399WAT     H2 1409   1.082   4.322   0.418
  400WAT      O 1410   1.629   5.067   3.191
  400WAT     H1 1411   1.713   5.061   3.145
  400WAT     H2 1412   1.595   5.154   3.168
  401WAT      O 1413   0.893   5.095   2.837
  401WAT     H1 1414   0.971   5.050   2.871
  401WAT     H2 1415   0.870   5.157   2.906
  402WAT      O 1416   2.350   3.753   0.014
  402WAT     H1 1417   2.433   3.708   0.028
  402WAT     H2 1418   2.302   3.744   0.096
  403WAT      O 1419   4.089   1.159   4.846
  403WAT     H1 1420   4.066   1.093   4.911
  403WAT     H2 1421   4.120   1.234   4.897
  404WAT      O 1422   1.290   4.992   0.631
  404WAT     H1 1423   1.354   5.047   0.585
  404WAT     H2 1424   1.244   4.946   0.561
  405WAT      O 1425   1.046   2.029   0.897
  405WAT     H1 1426   1.018   2.004   0.809
  405WAT     H2 1427   0.981   2.093   0.926
  406WAT      O 1428   2.722   4.901   4.645
  406WAT     H1 1429   2.637   4.936   4.618
  406WAT     H2 1430   2.744   4.950   4.724
  407WAT      O 1431   1.463   1.662   4.744
  407WAT     H1 1432   1.493   1.593   4.684
  407WAT     H2 1433   1.535   1.672   4.806
  408WAT      O 1434   2.706   1.826   1.367
  408WAT     H1 1435   2.636   1.794   1.309
  408WAT     H2 1436   2.679   1.915   1.390
  409WAT      O 1437   2.104   1.187   3.044
  409WAT     H1 1438   2.139   1.254   2.987
  409WAT     H2 1439   2.149   1.201   3.128
  410WAT      O 1440   2.162   3.399   1.306
  410WAT     H1 1441   2.087   3.340   1.319
  410WAT     H2 1442   2.208   3.363   1.230
  411WAT      O 1443   1.906   0.267   2.665
  411WAT     H1 1444   1.877   0.180   2.693
  411WAT     H2 1445   1.889   0.323   2.741
  412WAT      O 1446   0.364   0.254   3.711
  412WAT     H1 1447   0.418   0.326   3.743
  412WAT     H2 1448   0.410   0.175   3.738
  413WAT      O 1449   1.656   1.684   2.771
  413WAT     H1 1450   1.568   1.673   2.733
  413WAT     H2 1451   1.683   1.595   2.794
  414WAT      O 1452   4.038   2.151   2.674
  414WAT     H1 1453   4.034   2.110   2.760
  414WAT     H2 1454   3.997   2.237   2.686
  415WAT      O 1455   1.099   1.749   0.218
  415WAT     H1 1456   1.086   1.720   0.308
  415WAT     H2 1457   1.055   1.834   0.214
  416WAT      O 1458   1.724   1.437   2.865
  416WAT     H1 1459   1.744   1.375   2.796
  416WAT     H2 1460   1.683   1.385   2.934
  417WAT      O 1461   4.517   1.585   2.837
  417WAT     H1 1462   4.524   1.490   2.851
  417WAT     H2 1463   4.608   1.615   2.832
  418WAT      O 1464   1.373   3.633   2.165
  418WAT     H1 1465   1.280   3.652   2.160
  418WAT     H2 1466   1.388   3.568   2.097
  419WAT      O 1467   1.522   2.802   1.453
  419WAT     H1 1468   1.445   2.778   1.401
  419WAT     H2 1469   1.514   2.749   1.533
  420WAT      O 1470   1.290   3.055   1.836
  420WAT     H1 1471   1.222   3.030   1.899
  420WAT     H2 1472   1.251   3.035   1.750
  421WAT      O 1473   1.299   1.000   4.281
  421WAT     H1 1474   1.210   0.967   4.291
  421WAT     H2 1475   1.288   1.095   4.271
  422WAT      O 1476   1.948   0.525   0.695
  422WAT     H1 1477   1.885   0.454   0.708
  422WAT     H2 1478   2.030   0.481   0.671
  423WAT      O 1479   0.134   0.573   1.820
  423WAT     H1 1480   0.127   0.566   1.725
  423WAT     H2 1481   0.201   0.508   1.844
  424WAT      O 1482   2.034   4.761   3.533
  424WAT     H1 1483   1.990   4.681   3.561
  424WAT     H2 1484   2.126   4.747   3.556
  425WAT      O 1485   2.066   4.499   4.113
  425WAT     H1 1486   2.159   4.515   4.130
  425WAT     H2 1487   2.049   4.414   4.155
  426WAT      O 1488   1.073   0.173   0.777
  426WAT     H1 1489   1.141   0.112   0.805
  426WAT     H2 1490   1.022   0.190   0.856
  427WAT      O 1491   3.996   2.967   0.249
  427WAT     H1 1492   3.930   3.033   0.227
  427WAT     H2 1493   3.948   2.884   0.250
  428WAT      O 1494   3.563   0.341   2.846
  428WAT     H1 1495   3.635   0.402   2.828
  428WAT     H2 1496   3.559   0.337   2.942
  429WAT      O 1497   3.727   3.015   3.755
  429WAT     H1 1498   3.696   2.943   3.810
  429WAT     H2 1499   3.771   2.972   3.681
  430WAT      O 1500   2.903   4.612   4.190
  430WAT     H1 1501   2.919   4.647   4.278
  430WAT     H2 1502   2.841   4.541   4.204
  431WAT      O 1503   3.392   4.697   3.075
  431WAT     H1 1504   3.425   4.643   3.147
  431WAT     H2 1505   3.418   4.786   3.098
  432WAT      O 1506   0.775   4.566   1.215
  432WAT     H1 1507   0.730   4.552   1.298
  432WAT     H2 1508   0.708   4.603   1.158
  433WAT      O 1509   1.511   4.446   3.442
  433WAT     H1 1510   1.477   4.474   3.527
  433WAT     H2 1511   1.475   4.510   3.380
  434WAT      O 1512   0.570   3.041   3.357
  434WAT     H1 1513   0.511   3.114   3.377
  434WAT     H2 1514   0.607   3.063   3.271
  435WAT      O 1515   4.288   3.171   3.079
  435WAT     H1 1516   4.240   3.095   3.046
  435WAT     H2 1517   4.371   3.169   3.032
  436WAT      O 1518   3.115   0.184   2.198
  436WAT     H1 1519   3.098   0.178   2.292
  436WAT     H2 1520   3.156   0.270   2.186
  437WAT      O 1521   3.946   5.013   2.368
  437WAT     H1 1522   3.992   4.982   2.291
  437WAT     H2 1523   3.918   5.101   2.346
  438WAT      O 1524   3.395   1.111   2.764
  438WAT     H1 1525   3.326   1.079   2.706
  438WAT     H2 1526   3.350   1.172   2.821
  439WAT      O 1527   4.379   4.530   1.480
  439WAT     H1 1528   4.426   4.490   1.407
  439WAT     H2 1529   4.368   4.622   1.454
  440WAT      O 1530   0.828   1.266   2.143
  440WAT     H1 1531   0.768   1.331   2.181
  440WAT     H2 1532   0.794   1.251   2.055
  441WAT      O 1533   2.801   3.059   4.787
  441WAT     H1 1534   2.895   3.048   4.794
  441WAT     H2 1535   2.770   2.977   4.748
  442WAT      O 1536   3.125   0.909   3.232
  442WAT     H1 1537   3.090   0.999   3.224
  442WAT     H2 1538   3.061   0.855   3.187
  443WAT      O 1539   3.200   2.198   1.979
  443WAT     H1 1540   3.278   2.239   2.015
  443WAT     H2 1541   3.150   2.168   2.055
  444WAT      O 1542   2.072   2.254   4.400
  444WAT     H1 1543   2.011   2.181   4.411
  444WAT     H2 1544   2.031   2.309   4.333
  445WAT      O 1545   2.399   0.571   5.006
  445WAT     H1 1546   2.406   0.645   4.946
  445WAT     H2 1547   2.351   0.606   5.081
  446WAT      O 1548   4.094   2.419   1.006
  446WAT     H1 1549   4.084   2.351   1.073
  446WAT     H2 1550   4.049   2.384   0.929
  447WAT      O 1551   1.611   3.885   1.970
  447WAT     H1 1552   1.668   3.924   2.037
  447WAT     H2 1553   1.536   3.945   1.966
  448WAT      O 1554   1.297   3.361   3.318
  448WAT     H1 1555   1.213   3.330   3.352
  448WAT     H2 1556   1.339   3.401   3.394
  449WAT      O 1557   3.246   2.915   4.989
  449WAT     H1 1558   3.334   2.877   4.992
  449WAT     H2 1559   3.188   2.839   4.989
  450WAT      O 1560   4.128   0.476   3.242
  450WAT     H1 1561   4.222   0.471   3.223
  450WAT     H2 1562   4.090   0.402   3.196
  451WAT      O 1563   0.973   2.081   1.404
  451WAT     H1 1564   1.002   2.086   1.495
  451WAT     H2 1565   0.918   2.003   1.400
  452WAT      O 1566   4.167   4.396   1.392
  452WAT     H1 1567   4.245   4.432   1.434
  452WAT     H2 1568   4.171   4.429   1.302
  453WAT      O 1569   0.710   0.988   2.892
  453WAT     H1 1570   0.715   1.073   2.935
  453WAT     H2 1571   0.733   0.925   2.961
  454WAT      O 1572   0.999   3.030   2.228
  454WAT     H1 1573   1.006   3.112   2.180
  454WAT     H2 1574   0.933   2.979   2.182
  455WAT      O 1575   1.292   1.283   3.843
  455WAT     H1 1576   1.230   1.352   3.820
  455WAT     H2 1577   1.250   1.202   3.814
  456WAT      O 1578   0.385   2.575   0.243
  456WAT     H1 1579   0.447   2.542   0.308
  456WAT     H2 1580   0.436   2.635   0.189
  457WAT      O 1581   1.472   2.091   0.366
  457WAT     H1 1582   1.489   2.076   0.459
  457WAT     H2 1583   1.377   2.078   0.357
  458WAT      O 1584   3.266   0.620   5.028
  458WAT     H1 1585   3.333   0.612   5.096
  458WAT     H2 1586   3.230   0.532   5.018
  459WAT      O 1587   0.046   4.133   4.416
  459WAT     H1 1588   0.103   4.210   4.419
  459WAT     H2 1589  -0.042   4.169   4.405
  460WAT      O 1590   1.090   3.145   1.515
  460WAT     H1 1591   1.150   3.115   1.446
  460WAT     H2 1592   1.003   3.126   1.481
  461WAT      O 1593   4.367   4.325   4.444
  461WAT     H1 1594   4.276   4.331   4.413
  461WAT     H2 1595   4.413   4.394   4.396
  462WAT      O 1596   1.995   3.594   1.080
  462WAT     H1 1597   2.075   3.562   1.037
  462WAT     H2 1598   1.924   3.544   1.039
  463WAT      O 1599   0.615   4.040   1.121
  463WAT     H1 1600   0.589   4.033   1.029
  463WAT     H2 1601   0.674   4.116   1.123
  464WAT      O 1602   0.055   2.231   0.558
  464WAT     H1 1603   0.005   2.206   0.635
  464WAT     H2 1604   0.053   2.326   0.558
  465WAT      O 1605   1.250   2.854   0.988
  465WAT     H1 1606   1.209   2.895   1.064
  465WAT     H2 1607   1.215   2.765   0.987
  466WAT      O 1608   3.018   1.083   1.575
  466WAT     H1 1609   3.007   1.040   1.490
  466WAT     H2 1610   3.096   1.139   1.564
  467WAT      O 1611   4.321   5.131   5.079
  467WAT     H1 1612   4.253   5.066   5.098
  467WAT     H2 1613   4.286   5.181   5.005
  468WAT      O 1614   3.673   1.325   1.898
  468WAT     H1 1615   3.604   1.287   1.844
  468WAT     H2 1616   3.647   1.306   1.988
  469WAT      O 1617   0.791   1.386   3.647
  469WAT     H1 1618   0.848   1.422   3.715
  469WAT     H2 1619   0.705   1.381   3.688
  470WAT      O 1620   0.163   0.083   4.590
  470WAT     H1 1621   0.164   0.088   4.685
  470WAT     H2 1622   0.106   0.009   4.570
  471WAT      O 1623   4.130   0.441   4.249
  471WAT     H1 1624   4.225   0.443   4.255
  471WAT     H2 1625   4.103   0.532   4.261
  472WAT      O 1626   0.492   3.806   3.297
  472WAT     H1 1627   0.434   3.809   3.373
  472WAT     H2 1628   0.475   3.888   3.251
  473WAT      O 1629   0.246   2.543   2.979
  473WAT     H1 1630   0.241   2.537   3.075
  473WAT     H2 1631   0.167   2.500   2.947
  474WAT      O 1632   2.199   3.217   1.591
  474WAT     H1 1633   2.125   3.245   1.645
  474WAT     H2 1634   2.250   3.296   1.576
  475WAT      O 1635   1.227   4.598   1.674
  475WAT     H1 1636   1.151   4.590   1.617
  475WAT     H2 1637   1.293   4.541   1.633
  476WAT      O 1638   2.652   5.000   2.104
  476WAT     H1 1639   2.724   5.062   2.117
  476WAT     H2 1640   2.684   4.941   2.035
  477WAT      O 1641   1.011   1.473   0.141
  477WAT     H1 1642   1.018   1.567   0.126
  477WAT     H2 1643   0.943   1.464   0.208
  478WAT      O 1644   0.602   3.136   0.197
  478WAT     H1 1645   0.589   3.096   0.111
  478WAT     H2 1646   0.530   3.102   0.250
  479WAT      O 1647   1.472   2.799   2.846
  479WAT     H1 1648   1.472   2.707   2.874
  479WAT     H2 1649   1.565   2.819   2.832
  480WAT      O 1650   4.403   2.223   4.672
  480WAT     H1 1651   4.322   2.247   4.626
  480WAT     H2 1652   4.392   2.257   4.760
  481WAT      O 1653   1.703   3.519   2.572
  481WAT     H1 1654   1.663   3.606   2.575
  481WAT     H2 1655   1.655   3.473   2.503
  482WAT      O 1656   3.988   2.908   2.520
  482WAT     H1 1657   3.961   2.817   2.510
  482WAT     H2 1658   4.022   2.913   2.609
  483WAT      O 1659   0.057   4.014   4.699
  483WAT     H1 1660   0.056   4.036   4.606
  483WAT     H2 1661   0.146   4.033   4.728
  484WAT      O 1662   2.863   3.324   4.957
  484WAT     H1 1663   2.819   3.290   4.879
  484WAT     H2 1664   2.934   3.378   4.922
  485WAT      O 1665   1.182   1.523   3.772
  485WAT     H1 1666   1.263   1.570   3.795
  485WAT     H2 1667   1.167   1.546   3.681
  486WAT      O 1668   0.490   0.015   3.764
  486WAT     H1 1669   0.565  -0.043   3.773
  486WAT     H2 1670   0.416  -0.044   3.746
  487WAT      O 1671   2.593   2.516   4.608
  487WAT     H1 1672   2.528   2.446   4.619
  487WAT     H2 1673   2.643   2.514   4.690
  488WAT      O 1674   2.296   1.047   2.647
  488WAT     H1 1675   2.369   0.987   2.640
  488WAT     H2 1676   2.225   0.994   2.685
  489WAT      O 1677   0.209   4.946   0.137
  489WAT     H1 1678   0.267   4.904   0.073
  489WAT     H2 1679   0.128   4.895   0.133
  490WAT      O 1680   1.939   3.227   0.181
  490WAT     H1 1681   1.874   3.292   0.153
  490WAT     H2 1682   1.888   3.148   0.198
  491WAT      O 1683   0.810   0.591   2.027
  491WAT     H1 1684   0.900   0.566   2.007
  491WAT     H2 1685   0.818   0.655   2.098
  492WAT      O 1686   2.631   1.966   1.889
  492WAT     H1 1687   2.537   1.980   1.883
  492WAT     H2 1688   2.656   1.937   1.802
  493WAT      O 1689   0.050   2.211   1.380
  493WAT     H1 1690  -0.011   2.240   1.311
  493WAT     H2 1691   0.135   2.208   1.337
  494WAT      O 1692   3.670   1.865   0.856
  494WAT     H1 1693   3.594   1.807   0.852
  494WAT     H2 1694   3.738   1.820   0.806
  495WAT      O 1695   1.892   4.809   0.929
  495WAT     H1 1696   1.924   4.755   1.002
  495WAT     H2 1697   1.797   4.812   0.941
  496WAT      O 1698   2.949   4.925   2.229
  496WAT     H1 1699   2.892   5.001   2.217
  496WAT     H2 1700   2.986   4.909   2.143
  497WAT      O 1701   0.349   1.617   1.633
  497WAT     H1 1702   0.265   1.594   1.592
  497WAT     H2 1703   0.326   1.634   1.725
  498WAT      O 1704   2.686   0.519   4.975
  498WAT     H1 1705   2.596   0.551   4.972
  498WAT     H2 1706   2.740   0.596   4.988
  499WAT      O 1707   2.998   3.932   3.827
  499WAT     H1 1708   3.069   3.881   3.787
  499WAT     H2 1709   3.014   3.925   3.921
  500WAT      O 1710   1.408   2.458   2.094
  500WAT     H1 1711   1.407   2.436   2.187
  500WAT     H2 1712   1.315   2.456   2.068
  501WAT      O 1713   1.435   0.742   3.771
  501WAT     H1 1714   1.341   0.731   3.784
  501WAT     H2 1715   1.470   0.653   3.776
  502WAT      O 1716   2.568   4.874   2.531
  502WAT     H1 1717   2.521   4.922   2.599
  502WAT     H2 1718   2.576   4.785   2.564
  503WAT      O 1719   3.059   4.226   1.352
  503WAT     H1 1720   3.119   4.194   1.285
  503WAT     H2 1721   2.976   4.239   1.307
  504WAT      O 1722   4.042   1.077   3.674
  504WAT     H1 1723   4.068   1.004   3.731
  504WAT     H2 1724   3.977   1.126   3.725
  505WAT      O 1725   3.404   1.556   2.530
  505WAT     H1 1726   3.407   1.612   2.608
  505WAT     H2 1727   3.496   1.535   2.513
  506WAT      O 1728   2.190   1.399   2.811
  506WAT     H1 1729   2.285   1.405   2.825
  506WAT     H2 1730   2.179   1.411   2.717
  507WAT      O 1731   4.438   0.522   0.280
  507WAT     H1 1732   4.359   0.548   0.329
  507WAT     H2 1733   4.506   0.512   0.347
  508WAT      O 1734   2.216   1.095   0.316
  508WAT     H1 1735   2.309   1.109   0.333
  508WAT     H2 1736   2.207   1.109   0.222
  509WAT      O 1737   3.001   4.768   2.876
  509WAT     H1 1738   3.000   4.710   2.952
  509WAT     H2 1739   3.092   4.799   2.871
  510WAT      O 1740   1.730   0.118   3.859
  510WAT     H1 1741   1.662   0.184   3.850
  510WAT     H2 1742   1.683   0.038   3.884
  511WAT      O 1743   0.867   3.861   1.649
  511WAT     H1 1744   0.926   3.921   1.604
  511WAT     H2 1745   0.829   3.807   1.579
  512WAT      O 1746   2.544   2.372   1.910
  512WAT     H1 1747   2.572   2.463   1.912
  512WAT     H2 1748   2.623   2.323   1.885
  513WAT      O 1749   0.449   2.574   3.924
  513WAT     H1 1750   0.490   2.523   3.854
  513WAT     H2 1751   0.482   2.663   3.912
  514WAT      O 1752   0.021   3.973   0.781
  514WAT     H1 1753   0.034   3.946   0.872
  514WAT     H2 1754   0.019   3.890   0.733
  515WAT      O 1755   3.178   1.673   4.788
  515WAT     H1 1756   3.171   1.767   4.791
  515WAT     H2 1757   3.271   1.655   4.805
  516WAT      O 1758   1.648   3.039   3.603
  516WAT     H1 1759   1.654   3.041   3.698
  516WAT     H2 1760   1.739   3.046   3.573
  517WAT      O 1761   0.524   4.348   4.168
  517WAT     H1 1762   0.481   4.327   4.251
  517WAT     H2 1763   0.521   4.443   4.163
  518WAT      O 1764   2.265   0.344   4.938
  518WAT     H1 1765   2.297   0.413   4.997
  518WAT     H2 1766   2.223   0.280   4.996
  519WAT      O 1767   3.677   3.995   3.308
  519WAT     H1 1768   3.602   4.045   3.341
  519WAT     H2 1769   3.743   4.003   3.377
  520WAT      O 1770   0.552   0.221   3.086
  520WAT     H1 1771   0.462   0.242   3.061
  520WAT     H2 1772   0.607   0.268   3.024
  521WAT      O 1773   0.392   0.542   1.451
  521WAT     H1 1774   0.485   0.535   1.430
  521WAT     H2 1775   0.378   0.632   1.476
  522WAT      O 1776   3.557   3.574   4.701
  522WAT     H1 1777   3.473   3.527   4.695
  522WAT     H2 1778   3.608   3.541   4.627
  523WAT      O 1779   1.630   3.963   1.440
  523WAT     H1 1780   1.578   4.011   1.504
  523WAT     H2 1781   1.716   4.005   1.443
  524WAT      O 1782   4.292   0.663   1.811
  524WAT     H1 1783   4.342   0.606   1.752
  524WAT     H2 1784   4.201   0.653   1.783
  525WAT      O 1785   4.191   4.168   2.256
  525WAT     H1 1786   4.172   4.081   2.291
  525WAT     H2 1787   4.130   4.180   2.183
  526WAT      O 1788   3.569   2.646   5.130
  526WAT     H1 1789   3.551   2.581   5.198
  526WAT     H2 1790   3.642   2.609   5.081
  527WAT      O 1791   4.071   1.731   3.612
  527WAT     H1 1792   4.146   1.731   3.553
  527WAT     H2 1793   3.997   1.754   3.556
  528WAT      O 1794   3.301   2.834   4.517
  528WAT     H1 1795   3.332   2.889   4.589
  528WAT     H2 1796   3.206   2.834   4.527
  529WAT      O 1797   1.866   1.044   0.030
  529WAT     H1 1798   1.928   1.116   0.027
  529WAT     H2 1799   1.886   0.991  -0.047
  530WAT      O 1800   4.349   1.047   3.724
  530WAT     H1 1801   4.369   0.968   3.676
  530WAT     H2 1802   4.292   1.020   3.795
  531WAT      O 1803   4.045   2.465   4.137
  531WAT     H1 1804   4.002   2.530   4.081
  531WAT     H2 1805   4.022   2.381   4.098
  532WAT      O 1806   3.692   0.072   2.801
  532WAT     H1 1807   3.647   0.153   2.825
  532WAT     H2 1808   3.755   0.098   2.734
  533WAT      O 1809   1.303   1.251   4.486
  533WAT     H1 1810   1.258   1.327   4.523
  533WAT     H2 1811   1.297   1.184   4.554
  534WAT      O 1812   1.529   1.217   4.947
  534WAT     H1 1813   1.536   1.249   5.037
  534WAT     H2 1814   1.448   1.165   4.946
  535WAT      O 1815   3.571   0.566   4.090
  535WAT     H1 1816   3.601   0.658   4.086
  535WAT     H2 1817   3.566   0.540   3.998
  536WAT      O 1818   0.294   3.727   1.041
  536WAT     H1 1819   0.249   3.672   0.977
  536WAT     H2 1820   0.381   3.741   1.004
  537WAT      O 1821   1.949   2.180   0.146
  537WAT     H1 1822   1.876   2.132   0.185
  537WAT     H2 1823   1.953   2.262   0.196
  538WAT      O 1824   4.454   1.520   4.974
  538WAT     H1 1825   4.443   1.532   5.068
  538WAT     H2 1826   4.464   1.609   4.939
  539WAT      O 1827   1.781   0.390   1.669
  539WAT     H1 1828   1.717   0.390   1.598
  539WAT     H2 1829   1.729   0.398   1.749
  540WAT      O 1830   2.651   1.149   3.783
  540WAT     H1 1831   2.745   1.158   3.801
  540WAT     H2 1832   2.640   1.056   3.765
  541WAT      O 1833   4.249   4.197   0.248
  541WAT     H1 1834   4.222   4.212   0.339
  541WAT     H2 1835   4.271   4.285   0.216
  542WAT      O 1836   2.381   2.025   1.814
  542WAT     H1 1837   2.353   2.116   1.821
  542WAT     H2 1838   2.330   1.990   1.740
  543WAT      O 1839   3.926   4.211   1.495
  543WAT     H1 1840   3.865   4.280   1.520
  543WAT     H2 1841   4.008   4.256   1.478
  544WAT      O 1842   3.273   3.417   0.002
  544WAT     H1 1843   3.278   3.335  -0.047
  544WAT     H2 1844   3.363   3.439   0.022
  545WAT      O 1845   4.274   0.097   1.980
  545WAT     H1 1846   4.364   0.081   2.009
  545WAT     H2 1847   4.265   0.047   1.899
  546WAT      O 1848   4.376   0.724   2.642
  546WAT     H1 1849   4.363   0.806   2.687
  546WAT     H2 1850   4.293   0.678   2.649
  547WAT      O 1851   0.140   1.338   0.624
  547WAT     H1 1852   0.158   1.411   0.565
  547WAT     H2 1853   0.225   1.299   0.642
  548WAT      O 1854   0.392   3.547   4.606
  548WAT     H1 1855   0.386   3.468   4.552
  548WAT     H2 1856   0.358   3.521   4.691
  549WAT      O 1857   0.569   3.347   4.225
  549WAT     H1 1858   0.554   3.255   4.207
  549WAT     H2 1859   0.615   3.348   4.309
  550WAT      O 1860   1.188   2.976   4.185
  550WAT     H1 1861   1.141   3.056   4.209
  550WAT     H2 1862   1.137   2.905   4.225
  551WAT      O 1863   0.846   4.241   3.007
  551WAT     H1 1864   0.914   4.272   2.946
  551WAT     H2 1865   0.858   4.147   3.010
  552WAT      O 1866   3.987   4.980   4.695
  552WAT     H1 1867   3.941   5.059   4.723
  552WAT     H2 1868   3.918   4.917   4.674
  553WAT      O 1869   3.893   4.723   0.250
  553WAT     H1 1870   3.837   4.745   0.325
  553WAT     H2 1871   3.880   4.795   0.189
  554WAT      O 1872   2.224   0.395   2.369
  554WAT     H1 1873   2.272   0.323   2.326
  554WAT     H2 1874   2.159   0.423   2.304
  555WAT      O 1875   2.442   4.453   0.764
  555WAT     H1 1876   2.426   4.411   0.679
  555WAT     H2 1877   2.488   4.387   0.815
  556WAT      O 1878   2.582   0.892   0.064
  556WAT     H1 1879   2.526   0.911  -0.011
  556WAT     H2 1880   2.657   0.844   0.027
  557WAT      O 1881   0.205   0.454   3.606
  557WAT     H1 1882   0.172   0.426   3.521
  557WAT     H2 1883   0.255   0.379   3.638
  558WAT      O 1884   2.709   4.362   3.901
  558WAT     H1 1885   2.792   4.315   3.893
  558WAT     H2 1886   2.720   4.441   3.848
  559WAT      O 1887   0.667   3.539   2.800
  559WAT     H1 1888   0.607   3.584   2.739
  559WAT     H2 1889   0.610   3.501   2.866
  560WAT      O 1890   1.876   4.815   2.840
  560WAT     H1 1891   1.963   4.796   2.804
  560WAT     H2 1892   1.838   4.729   2.857
  561WAT      O 1893   4.375   1.897   4.494
  561WAT     H1 1894   4.450   1.892   4.436
  561WAT     H2 1895   4.300   1.905   4.436
  562WAT      O 1896   0.716   3.780   5.275
  562WAT     H1 1897   0.802   3.767   5.316
  562WAT     H2 1898   0.663   3.707   5.307
  563WAT      O 1899   4.373   4.740   1.306
  563WAT     H1 1900   4.425   4.815   1.276
  563WAT     H2 1901   4.346   4.696   1.226
  564WAT      O 1902   0.687   1.023   1.070
  564WAT     H1 1903   0.780   1.046   1.060
  564WAT     H2 1904   0.661   0.993   0.983
  565WAT      O 1905   1.775   4.261   4.028
  565WAT     H1 1906   1.786   4.173   4.064
  565WAT     H2 1907   1.681   4.274   4.023
  566WAT      O 1908   3.682   3.399   5.096
  566WAT     H1 1909   3.705   3.324   5.041
  566WAT     H2 1910   3.639   3.460   5.036
  567WAT      O 1911   1.981   3.710   2.030
  567WAT     H1 1912   2.043   3.710   1.958
  567WAT     H2 1913   1.897   3.687   1.990
  568WAT      O 1914   2.954   2.361   4.913
  568WAT     H1 1915   3.002   2.387   4.834
  568WAT     H2 1916   2.881   2.422   4.918
  569WAT      O 1917   2.424   2.079   5.290
  569WAT     H1 1918   2.463   1.991   5.293
  569WAT     H2 1919   2.333   2.066   5.314
  570WAT      O 1920   1.094   5.006   3.705
  570WAT     H1 1921   1.098   5.037   3.615
  570WAT     H2 1922   1.076   4.912   3.698
  571WAT      O 1923   3.576   1.009   1.855
  571WAT     H1 1924   3.536   0.988   1.771
  571WAT     H2 1925   3.505   1.000   1.918
  572WAT      O 1926   0.554   1.126   4.170
  572WAT     H1 1927   0.510   1.157   4.250
  572WAT     H2 1928   0.561   1.205   4.116
  573WAT      O 1929   1.201   2.243   2.459
  573WAT     H1 1930   1.229   2.249   2.551
  573WAT     H2 1931   1.193   2.149   2.443
  574WAT      O 1932   2.031   1.257   0.044
  574WAT     H1 1933   2.031   1.343   0.001
  574WAT     H2 1934   2.123   1.239   0.062
  575WAT      O 1935   3.573   3.336   3.257
  575WAT     H1 1936   3.653   3.315   3.304
  575WAT     H2 1937   3.577   3.431   3.245
  576WAT      O 1938   0.833   3.077   0.546
  576WAT     H1 1939   0.855   3.120   0.629
  576WAT     H2 1940   0.740   3.056   0.554
  577WAT      O 1941   1.349   2.500   4.516
  577WAT     H1 1942   1.337   2.483   4.609
  577WAT     H2 1943   1.442   2.520   4.508
  578WAT      O 1944   3.179   4.050   1.202
  578WAT     H1 1945   3.206   4.013   1.118
  578WAT     H2 1946   3.092   4.013   1.217
  579WAT      O 1947   3.430   2.209   3.439
  579WAT     H1 1948   3.503   2.160   3.478
  579WAT     H2 1949   3.424   2.289   3.491
  580WAT      O 1950   2.454   1.520   0.325
  580WAT     H1 1951   2.451   1.504   0.419
  580WAT     H2 1952   2.507   1.599   0.317
  581WAT      O 1953   1.451   3.292   0.475
  581WAT     H1 1954   1.476   3.199   0.483
  581WAT     H2 1955   1.407   3.312   0.557
  582WAT      O 1956   3.852   0.137   4.391
  582WAT     H1 1957   3.814   0.221   4.365
  582WAT     H2 1958   3.943   0.155   4.412
  583WAT      O 1959   4.404   0.395   0.821
  583WAT     H1 1960   4.319   0.351   0.813
  583WAT     H2 1961   4.382   0.485   0.846
  584WAT      O 1962   2.138   2.865   5.022
  584WAT     H1 1963   2.159   2.878   5.114
  584WAT     H2 1964   2.199   2.922   4.975
  585WAT      O 1965   1.298   0.698   4.350
  585WAT     H1 1966   1.220   0.660   4.389
  585WAT     H2 1967   1.271   0.787   4.325
  586WAT      O 1968   2.991   1.382   2.627
  586WAT     H1 1969   2.910   1.433   2.624
  586WAT     H2 1970   3.035   1.402   2.544
  587WAT      O 1971   1.168   2.135   4.223
  587WAT     H1 1972   1.243   2.165   4.274
  587WAT     H2 1973   1.203   2.118   4.136
  588WAT      O 1974   1.211   1.960   2.410
  588WAT     H1 1975   1.281   1.950   2.345
  588WAT     H2 1976   1.242   1.914   2.487
  589WAT      O 1977   0.973   4.270   1.685
  589WAT     H1 1978   0.955   4.301   1.773
  589WAT     H2 1979   0.942   4.179   1.684
  590WAT      O 1980   2.548   3.299   0.235
  590WAT     H1 1981   2.518   3.242   0.306
  590WAT     H2 1982   2.552   3.241   0.159
  591WAT      O 1983   0.521   4.006   2.469
  591WAT     H1 1984   0.510   4.021   2.563
  591WAT     H2 1985   0.575   4.080   2.439
  592WAT      O 1986   4.379   1.915   3.983
  592WAT     H1 1987   4.423   1.836   4.013
  592WAT     H2 1988   4.291   1.886   3.959
  593WAT      O 1989   1.648   0.522   3.701
  593WAT     H1 1990   1.699   0.441   3.695
  593WAT     H2 1991   1.701   0.581   3.754
  594WAT      O 1992   2.520   3.039   1.916
  594WAT     H1 1993   2.575   3.116   1.900
  594WAT     H2 1994   2.432   3.064   1.887
  595WAT      O 1995   3.004   3.557   4.885
  595WAT     H1 1996   2.981   3.561   4.792
  595WAT     H2 1997   2.967   3.638   4.922
  596WAT      O 1998   0.281   2.952   0.927
  596WAT     H1 1999   0.253   3.044   0.914
  596WAT     H2 2000   0.257   2.934   1.018
  597WAT      O 2001   0.082   4.236   2.594
  597WAT     H1 2002   0.043   4.319   2.622
  597WAT     H2 2003   0.116   4.197   2.675
  598WAT      O 2004   2.539   2.870   1.584
  598WAT     H1 2005   2.505   2.782   1.568
  598WAT     H2 2006   2.462   2.919   1.613
  599WAT      O 2007   0.052   0.806   4.666
  599WAT     H1 2008   0.119   0.754   4.711
  599WAT     H2 2009  -0.014   0.742   4.640
  600WAT      O 2010   3.163   4.503   2.456
  600WAT     H1 2011   3.180   4.511   2.362
  600WAT     H2 2012   3.135   4.591   2.482
  601WAT      O 2013   2.142   2.360   1.381
  601WAT     H1 2014   2.094   2.415   1.443
  601WAT     H2 2015   2.150   2.415   1.302
  602WAT      O 2016   4.444   1.313   2.453
  602WAT     H1 2017   4.429   1.330   2.360
  602WAT     H2 2018   4.406   1.389   2.497
  603WAT      O 2019   3.040   2.106   4.725
  603WAT     H1 2020   2.990   2.070   4.652
  603WAT     H2 2021   3.037   2.200   4.713
  604WAT      O 2022   3.688   1.678   1.690
  604WAT     H1 2023   3.782   1.681   1.673
  604WAT     H2 2024   3.658   1.769   1.681
  605WAT      O 2025   3.748   0.968   0.343
  605WAT     H1 2026   3.756   1.060   0.317
  605WAT     H2 2027   3.756   0.970   0.439
  606WAT      O 2028   3.921   0.272   2.402
  606WAT     H1 2029   3.914   0.267   2.307
  606WAT     H2 2030   4.013   0.248   2.420
  607WAT      O 2031   1.027   4.639   2.134
  607WAT     H1 2032   1.013   4.726   2.095
  607WAT     H2 2033   1.051   4.584   2.059
  608WAT      O 2034   4.268   1.089   1.245
  608WAT     H1 2035   4.259   0.994   1.229
  608WAT     H2 2036   4.194   1.129   1.199
  609WAT      O 2037   1.358   4.871   1.994
  609WAT     H1 2038   1.422   4.857   2.064
  609WAT     H2 2039   1.375   4.960   1.964
  610WAT      O 2040   2.834   3.156   3.009
  610WAT     H1 2041   2.872   3.239   3.039
  610WAT     H2 2042   2.842   3.159   2.914
  611WAT      O 2043   2.857   0.387   4.021
  611WAT     H1 2044   2.939   0.364   4.065
  611WAT     H2 2045   2.813   0.446   4.081
  612WAT      O 2046   4.317   3.567   4.120
  612WAT     H1 2047   4.244   3.529   4.168
  612WAT     H2 2048   4.372   3.492   4.097
  613WAT      O 2049   3.419   5.069   3.659
  613WAT     H1 2050   3.331   5.061   3.694
  613WAT     H2 2051   3.436   4.986   3.615
  614WAT      O 2052   4.214   1.486   2.265
  614WAT     H1 2053   4.193   1.571   2.226
  614WAT     H2 2054   4.301   1.465   2.232
  615WAT      O 2055   3.686   5.024   4.086
  615WAT     H1 2056   3.630   5.098   4.061
  615WAT     H2 2057   3.642   4.947   4.051
  616WAT      O 2058   1.973   2.984   1.897
  616WAT     H1 2059   1.986   3.075   1.925
  616WAT     H2 2060   1.899   2.954   1.950
  617WAT      O 2061   3.616   0.711   1.872
  617WAT     H1 2062   3.639   0.803   1.869
  617WAT     H2 2063   3.522   0.709   1.854
  618WAT      O 2064   4.102   2.578   3.662
  618WAT     H1 2065   4.093   2.510   3.728
  618WAT     H2 2066   4.155   2.539   3.593
  619WAT      O 2067   1.368   4.293   2.160
  619WAT     H1 2068   1.277   4.289   2.187
  619WAT     H2 2069   1.390   4.387   2.163
  620WAT      O 2070   0.872   5.017   1.466
  620WAT     H1 2071   0.912   5.084   1.411
  620WAT     H2 2072   0.844   4.949   1.404
  621WAT      O 2073   0.368   4.014   1.598
  621WAT     H1 2074   0.336   3.936   1.552
  621WAT     H2 2075   0.414   3.979   1.674
  622WAT      O 2076   2.797   4.217   1.940
  622WAT     H1 2077   2.768   4.305   1.916
  622WAT     H2 2078   2.768   4.162   1.868
  623WAT      O 2079   1.979   1.808   3.751
  623WAT     H1 2080   1.890   1.780   3.728
  623WAT     H2 2081   1.988   1.892   3.708
  624WAT      O 2082   2.739   4.420   4.967
  624WAT     H1 2083   2.795   4.439   5.042
  624WAT     H2 2084   2.721   4.506   4.928
  625WAT      O 2085   1.320   2.095   0.894
  625WAT     H1 2086   1.229   2.065   0.892
  625WAT     H2 2087   1.348   2.081   0.984
  626WAT      O 2088   1.972   0.935   4.520
  626WAT     H1 2089   2.016   0.971   4.444
  626WAT     H2 2090   2.043   0.915   4.581
  627WAT      O 2091   1.500   3.727   4.668
  627WAT     H1 2092   1.564   3.754   4.602
  627WAT     H2 2093   1.534   3.644   4.702
  628WAT      O 2094   1.027   4.086   4.410
  628WAT     H1 2095   0.976   4.048   4.339
  628WAT     H2 2096   0.962   4.126   4.468
  629WAT      O 2097   2.906   1.456   0.750
  629WAT     H1 2098   2.991   1.473   0.789
  629WAT     H2 2099   2.925   1.430   0.660
  630WAT      O 2100   1.744   2.160   0.555
  630WAT     H1 2101   1.668   2.212   0.580
  630WAT     H2 2102   1.748   2.166   0.459
  631WAT      O 2103   0.286   3.369   3.176
  631WAT     H1 2104   0.249   3.294   3.127
  631WAT     H2 2105   0.351   3.330   3.233
  632WAT      O 2106   3.209   0.729   1.269
  632WAT     H1 2107   3.294   0.691   1.288
  632WAT     H2 2108   3.154   0.704   1.344
  633WAT      O 2109   0.242   3.606   4.836
  633WAT     H1 2110   0.216   3.684   4.787
  633WAT     H2 2111   0.289   3.641   4.912
  634WAT      O 2112   2.404   0.994   3.894
  634WAT     H1 2113   2.321   1.014   3.850
  634WAT     H2 2114   2.457   1.073   3.881
  635WAT      O 2115   2.744   0.681   4.435
  635WAT     H1 2116   2.727   0.760   4.385
  635WAT     H2 2117   2.715   0.701   4.524
  636WAT      O 2118   2.228   4.698   2.306
  636WAT     H1 2119   2.323   4.710   2.309
  636WAT     H2 2120   2.193   4.758   2.372
  637WAT      O 2121   3.358   1.373   4.652
  637WAT     H1 2122   3.332   1.300   4.707
  637WAT     H2 2123   3.415   1.425   4.707
  638WAT      O 2124   2.283   2.893   0.625
  638WAT     H1 2125   2.370   2.925   0.650
  638WAT     H2 2126   2.292   2.869   0.533
  639WAT      O 2127   4.093   2.717   1.841
  639WAT     H1 2128   4.130   2.801   1.812
  639WAT     H2 2129   4.168   2.658   1.846
  640WAT      O 2130   0.303   1.840   4.696
  640WAT     H1 2131   0.317   1.777   4.767
  640WAT     H2 2132   0.243   1.905   4.732
  641WAT      O 2133   0.377   4.697   3.307
  641WAT     H1 2134   0.361   4.620   3.360
  641WAT     H2 2135   0.300   4.752   3.320
  642WAT      O 2136   0.033   4.872   4.327
  642WAT     H1 2137  -0.057   4.902   4.308
  642WAT     H2 2138   0.044   4.888   4.420
  643WAT      O 2139   1.059   4.088   2.440
  643WAT     H1 2140   1.037   4.013   2.494
  643WAT     H2 2141   1.153   4.100   2.454
  644WAT      O 2142   3.248   2.117   1.523
  644WAT     H1 2143   3.196   2.043   1.556
  644WAT     H2 2144   3.304   2.142   1.596
  645WAT      O 2145   1.943   3.609   2.778
  645WAT     H1 2146   1.872   3.570   2.728
  645WAT     H2 2147   1.904   3.684   2.823
  646WAT      O 2148   0.575   2.100   4.824
  646WAT     H1 2149   0.671   2.096   4.819
  646WAT     H2 2150   0.545   2.030   4.767
  647WAT      O 2151   2.504   3.563   0.229
  647WAT     H1 2152   2.519   3.469   0.233
  647WAT     H2 2153   2.564   3.595   0.162
  648WAT      O 2154   3.134   2.458   2.750
  648WAT     H1 2155   3.091   2.434   2.832
  648WAT     H2 2156   3.194   2.385   2.733
  649WAT      O 2157   1.944   2.936   1.234
  649WAT     H1 2158   2.002   2.875   1.280
  649WAT     H2 2159   1.857   2.895   1.240
  650WAT      O 2160   1.199   4.496   3.947
  650WAT     H1 2161   1.149   4.567   3.989
  650WAT     H2 2162   1.132   4.435   3.916
  651WAT      O 2163   1.016   1.414   0.503
  651WAT     H1 2164   1.070   1.341   0.474
  651WAT     H2 2165   0.949   1.374   0.558
  652WAT      O 2166   2.732   2.884   5.062
  652WAT     H1 2167   2.663   2.872   4.996
  652WAT     H2 2168   2.805   2.921   5.014
  653WAT      O 2169   0.363   1.280   0.323
  653WAT     H1 2170   0.408   1.218   0.267
  653WAT     H2 2171   0.291   1.231   0.363
  654WAT      O 2172   0.440   2.884   5.212
  654WAT     H1 2173   0.463   2.834   5.291
  654WAT     H2 2174   0.376   2.829   5.167
  655WAT      O 2175   3.173   1.854   3.017
  655WAT     H1 2176   3.153   1.892   3.102
  655WAT     H2 2177   3.259   1.813   3.028
  656WAT      O 2178   3.526   0.318   3.555
  656WAT     H1 2179   3.447   0.280   3.593
  656WAT     H2 2180   3.498   0.403   3.523
  657WAT      O 2181   2.676   3.873   0.616
  657WAT     H1 2182   2.717   3.891   0.701
  657WAT     H2 2183   2.725   3.927   0.554
  658WAT      O 2184   1.683   3.117   4.890
  658WAT     H1 2185   1.591   3.090   4.893
  658WAT     H2 2186   1.729   3.057   4.947
  659WAT      O 2187   0.599   4.864   1.114
  659WAT     H1 2188   0.539   4.793   1.092
  659WAT     H2 2189   0.542   4.938   1.136
  660WAT      O 2190   4.405   2.543   3.132
  660WAT     H1 2191   4.484   2.595   3.119
  660WAT     H2 2192   4.337   2.590   3.084
  661WAT      O 2193   3.800   2.800   4.052
  661WAT     H1 2194   3.818   2.752   4.132
  661WAT     H2 2195   3.866   2.769   3.990
  662WAT      O 2196   0.193   2.817   2.151
  662WAT     H1 2197   0.269   2.811   2.093
  662WAT     H2 2198   0.231   2.813   2.239
  663WAT      O 2199   3.190   0.960   0.335
  663WAT     H1 2200   3.098   0.945   0.313
  663WAT     H2 2201   3.222   0.875   0.364
  664WAT      O 2202   3.808   1.452   4.184
  664WAT     H1 2203   3.799   1.481   4.275
  664WAT     H2 2204   3.719   1.428   4.158
  665WAT      O 2205   2.273   3.152   1.880
  665WAT     H1 2206   2.241   3.220   1.820
  665WAT     H2 2207   2.267   3.191   1.967
  666WAT      O 2208   1.921   0.336   3.648
  666WAT     H1 2209   1.969   0.257   3.670
  666WAT     H2 2210   1.894   0.372   3.733
  667WAT      O 2211   3.956   4.529   0.878
  667WAT     H1 2212   4.049   4.544   0.896
  667WAT     H2 2213   3.944   4.435   0.893
  668WAT      O 2214   0.377   0.816   1.512
  668WAT     H1 2215   0.462   0.844   1.545
  668WAT     H2 2216   0.370   0.856   1.425
  669WAT      O 2217   2.750   3.408   3.280
  669WAT     H1 2218   2.658   3.429   3.300
  669WAT     H2 2219   2.798   3.438   3.357
  670WAT      O 2220   2.440   4.636   3.228
  670WAT     H1 2221   2.349   4.638   3.256
  670WAT     H2 2222   2.452   4.549   3.190
  671WAT      O 2223   1.320   3.103   1.298
  671WAT     H1 2224   1.278   3.033   1.247
  671WAT     H2 2225   1.414   3.088   1.286
  672WAT      O 2226   2.467   2.216   2.123
  672WAT     H1 2227   2.534   2.152   2.146
  672WAT     H2 2228   2.506   2.266   2.051
  673WAT      O 2229   3.623   4.720   4.051
  673WAT     H1 2230   3.670   4.638   4.064
  673WAT     H2 2231   3.536   4.703   4.087
  674WAT      O 2232   3.527   0.258   2.469
  674WAT     H1 2233   3.460   0.300   2.415
  674WAT     H2 2234   3.601   0.318   2.466
  675WAT      O 2235   2.227   2.912   4.460
  675WAT     H1 2236   2.156   2.971   4.485
  675WAT     H2 2237   2.254   2.871   4.542
  676WAT      O 2238   3.621   1.264   4.071
  676WAT     H1 2239   3.655   1.205   4.138
  676WAT     H2 2240   3.567   1.208   4.015
  677WAT      O 2241   0.273   3.373   0.262
  677WAT     H1 2242   0.359   3.384   0.220
  677WAT     H2 2243   0.212   3.372   0.189
  678WAT      O 2244   1.657   3.879   0.491
  678WAT     H1 2245   1.635   3.920   0.575
  678WAT     H2 2246   1.734   3.825   0.511
  679WAT      O 2247   2.521   0.285   1.140
  679WAT     H1 2248   2.596   0.331   1.103
  679WAT     H2 2249   2.475   0.352   1.192
  680WAT      O 2250   2.065   0.902   2.712
  680WAT     H1 2251   2.078   0.892   2.807
  680WAT     H2 2252   2.076   0.813   2.678
  681WAT      O 2253   2.229   0.461   2.615
  681WAT     H1 2254   2.142   0.490   2.640
  681WAT     H2 2255   2.221   0.436   2.523
  682WAT      O 2256   4.421   4.727   3.217
  682WAT     H1 2257   4.402   4.813   3.179
  682WAT     H2 2258   4.345   4.706   3.271
  683WAT      O 2259   1.824   0.968   3.537
  683WAT     H1 2260   1.919   0.968   3.544
  683WAT     H2 2261   1.800   0.875   3.535
  684WAT      O 2262   3.042   0.909   2.791
  684WAT     H1 2263   3.051   0.884   2.700
  684WAT     H2 2264   2.995   0.994   2.787
  685WAT      O 2265   0.626   4.615   0.599
  685WAT     H1 2266   0.568   4.674   0.646
  685WAT     H2 2267   0.650   4.663   0.520
  686WAT      O 2268   3.409   2.422   1.218
  686WAT     H1 2269   3.478   2.357   1.205
  686WAT     H2 2270   3.439   2.499   1.169
  687WAT      O 2271   1.094   1.874   4.288
  687WAT     H1 2272   1.024   1.846   4.228
  687WAT     H2 2273   1.121   1.960   4.257
  688WAT      O 2274   4.477   1.249   1.730
  688WAT     H1 2275   4.431   1.313   1.677
  688WAT     H2 2276   4.412   1.218   1.793
  689WAT      O 2277   0.089   2.533   0.555
  689WAT     H1 2278   0.160   2.555   0.615
  689WAT     H2 2279   0.049   2.618   0.533
  690WAT      O 2280   4.307   4.968   4.274
  690WAT     H1 2281   4.231   4.914   4.299
  690WAT     H2 2282   4.275   5.023   4.202
  691WAT      O 2283   3.608   4.290   1.371
  691WAT     H1 2284   3.554   4.342   1.431
  691WAT     H2 2285   3.547   4.227   1.332
  692WAT      O 2286   2.826   0.332   2.177
  692WAT     H1 2287   2.834   0.420   2.141
  692WAT     H2 2288   2.910   0.290   2.157
  693WAT      O 2289   3.431   2.899   4.295
  693WAT     H1 2290   3.372   2.916   4.222
  693WAT     H2 2291   3.373   2.871   4.366
  694WAT      O 2292   0.603   4.810   1.595
  694WAT     H1 2293   0.531   4.865   1.626
  694WAT     H2 2294   0.602   4.820   1.500
  695WAT      O 2295   3.141   4.956   4.008
  695WAT     H1 2296   3.199   4.903   4.061
  695WAT     H2 2297   3.092   5.009   4.071
  696WAT      O 2298   0.913   2.502   3.161
  696WAT     H1 2299   0.928   2.410   3.139
  696WAT     H2 2300   0.848   2.499   3.231
  697WAT      O 2301   0.615   2.917   2.061
  697WAT     H1 2302   0.692   2.868   2.089
  697WAT     H2 2303   0.651   2.992   2.014
  698WAT      O 2304   3.028   2.165   0.609
  698WAT     H1 2305   3.016   2.259   0.596
  698WAT     H2 2306   3.091   2.159   0.681
  699WAT      O 2307   0.545   2.050   5.121
  699WAT     H1 2308   0.546   1.959   5.151
  699WAT     H2 2309   0.515   2.044   5.030
  700WAT      O 2310   3.532   1.257   3.386
  700WAT     H1 2311   3.477   1.325   3.428
  700WAT     H2 2312   3.470   1.201   3.341
  701WAT      O 2313   4.150   4.879   1.377
  701WAT     H1 2314   4.099   4.865   1.297
  701WAT     H2 2315   4.228   4.826   1.366
  702WAT      O 2316   1.529   4.725   1.830
  702WAT     H1 2317   1.578   4.686   1.902
  702WAT     H2 2318   1.460   4.776   1.873
  703WAT      O 2319   4.328   1.057   2.050
  703WAT     H1 2320   4.335   1.001   1.974
  703WAT     H2 2321   4.326   0.997   2.125
  704WAT      O 2322   2.543   0.987   0.857
  704WAT     H1 2323   2.473   0.938   0.812
  704WAT     H2 2324   2.515   0.991   0.948
  705WAT      O 2325   2.329   4.611   4.022
  705WAT     H1 2326   2.363   4.687   4.067
  705WAT     H2 2327   2.389   4.540   4.045
  706WAT      O 2328   3.965   2.960   3.226
  706WAT     H1 2329   4.054   2.925   3.220
  706WAT     H2 2330   3.930   2.921   3.306
  707WAT      O 2331   2.241   1.875   2.657
  707WAT     H1 2332   2.167   1.922   2.695
  707WAT     H2 2333   2.263   1.923   2.577
  708WAT      O 2334   0.180   4.778   4.720
  708WAT     H1 2335   0.085   4.771   4.719
  708WAT     H2 2336   0.207   4.723   4.794
  709WAT      O 2337   0.192   1.444   4.964
  709WAT     H1 2338   0.101   1.470   4.947
  709WAT     H2 2339   0.185   1.362   5.011
  710WAT      O 2340   1.141   3.655   4.606
  710WAT     H1 2341   1.167   3.622   4.692
  710WAT     H2 2342   1.222   3.692   4.569
  711WAT      O 2343   1.302   1.185   1.351
  711WAT     H1 2344   1.366   1.188   1.280
  711WAT     H2 2345   1.281   1.277   1.368
  712WAT      O 2346   3.852   0.471   1.394
  712WAT     H1 2347   3.826   0.555   1.355
  712WAT     H2 2348   3.831   0.405   1.327
  713WAT      O 2349   1.094   2.302   1.293
  713WAT     H1 2350   1.107   2.283   1.200
  713WAT     H2 2351   1.056   2.222   1.330
  714WAT      O 2352   4.102   0.685   1.066
  714WAT     H1 2353   4.011   0.657   1.060
  714WAT     H2 2354   4.114   0.744   0.993
  715WAT      O 2355   1.000   4.054   5.112
  715WAT     H1 2356   1.022   4.060   5.020
  715WAT     H2 2357   1.064   3.993   5.149
  716WAT      O 2358   3.449   0.927   1.124
  716WAT     H1 2359   3.464   0.834   1.142
  716WAT     H2 2360   3.400   0.928   1.042
  717WAT      O 2361   1.827   3.651   0.255
  717WAT     H1 2362   1.776   3.653   0.173
  717WAT     H2 2363   1.786   3.581   0.306
  718WAT      O 2364   1.936   4.627   0.086
  718WAT     H1 2365   1.893   4.542   0.075
  718WAT     H2 2366   1.884   4.671   0.154
  719WAT      O 2367   3.666   0.630   3.240
  719WAT     H1 2368   3.757   0.645   3.268
  719WAT     H2 2369   3.651   0.537   3.257
  720WAT      O 2370   1.164   2.326   3.975
  720WAT     H1 2371   1.133   2.358   4.059
  720WAT     H2 2372   1.129   2.237   3.969
  721WAT      O 2373   3.020   1.193   4.886
  721WAT     H1 2374   3.047   1.277   4.921
  721WAT     H2 2375   3.015   1.207   4.791
  722WAT      O 2376   0.864   2.767   4.074
  722WAT     H1 2377   0.844   2.674   4.066
  722WAT     H2 2378   0.933   2.772   4.140
  723WAT      O 2379   3.172   0.406   4.899
  723WAT     H1 2380   3.117   0.379   4.826
  723WAT     H2 2381   3.171   0.332   4.960
  724WAT      O 2382   3.681   3.257   1.304
  724WAT     H1 2383   3.657   3.327   1.364
  724WAT     H2 2384   3.718   3.190   1.362
  725WAT      O 2385   0.898   4.715   3.536
  725WAT     H1 2386   0.868   4.641   3.589
  725WAT     H2 2387   0.823   4.774   3.532
  726WAT      O 2388   3.132   4.280   1.598
  726WAT     H1 2389   3.082   4.362   1.605
  726WAT     H2 2390   3.100   4.239   1.518
  727WAT      O 2391   0.426   3.928   5.250
  727WAT     H1 2392   0.452   3.957   5.337
  727WAT     H2 2393   0.505   3.888   5.214
  728WAT      O 2394   1.708   1.017   4.001
  728WAT     H1 2395   1.693   0.948   4.066
  728WAT     H2 2396   1.639   1.082   4.019
  729WAT      O 2397   2.754   3.671   3.544
  729WAT     H1 2398   2.715   3.590   3.576
  729WAT     H2 2399   2.841   3.674   3.584
  730WAT      O 2400   1.150   0.667   2.461
  730WAT     H1 2401   1.125   0.611   2.387
  730WAT     H2 2402   1.245   0.660   2.465
  731WAT      O 2403   1.438   2.377   2.338
  731WAT     H1 2404   1.371   2.309   2.354
  731WAT     H2 2405   1.469   2.400   2.426
  732WAT      O 2406   1.070   0.849   3.779
  732WAT     H1 2407   1.061   0.892   3.694
  732WAT     H2 2408   1.101   0.760   3.758
  733WAT      O 2409   2.070   3.308   0.509
  733WAT     H1 2410   2.031   3.315   0.421
  733WAT     H2 2411   2.025   3.234   0.549
  734WAT      O 2412   3.298   2.243   2.672
  734WAT     H1 2413   3.388   2.223   2.647
  734WAT     H2 2414   3.263   2.160   2.704
  735WAT      O 2415   2.266   3.824   1.173
  735WAT     H1 2416   2.342   3.772   1.146
  735WAT     H2 2417   2.238   3.784   1.255
  736WAT      O 2418   0.071   3.713   3.635
  736WAT     H1 2419   0.058   3.625   3.671
  736WAT     H2 2420  -0.016   3.742   3.610
  737WAT      O 2421   4.375   3.821   3.538
  737WAT     H1 2422   4.429   3.900   3.541
  737WAT     H2 2423   4.296   3.848   3.491
  738WAT      O 2424   0.351   2.292   0.401
  738WAT     H1 2425   0.280   2.353   0.380
  738WAT     H2 2426   0.308   2.223   0.452
  739WAT      O 2427   4.135   3.771   1.321
  739WAT     H1 2428   4.077   3.695   1.330
  739WAT     H2 2429   4.078   3.846   1.334
  740WAT      O 2430   0.297   5.057   2.899
  740WAT     H1 2431   0.298   5.032   2.991
  740WAT     H2 2432   0.390   5.064   2.875
  741WAT      O 2433   0.586   4.563   5.279
  741WAT     H1 2434   0.629   4.644   5.252
  741WAT     H2 2435   0.498   4.590   5.305
  742WAT      O 2436   3.121   4.368   2.760
  742WAT     H1 2437   3.194   4.311   2.736
  742WAT     H2 2438   3.145   4.453   2.723
  743WAT      O 2439   4.157   3.201   2.652
  743WAT     H1 2440   4.196   3.271   2.704
  743WAT     H2 2441   4.207   3.201   2.570
  744WAT      O 2442   2.618   3.586   0.877
  744WAT     H1 2443   2.710   3.598   0.903
  744WAT     H2 2444   2.618   3.597   0.782
  745WAT      O 2445   4.190   2.577   2.441
  745WAT     H1 2446   4.201   2.540   2.353
  745WAT     H2 2447   4.118   2.640   2.431
  746WAT      O 2448   2.015   0.535   5.088
  746WAT     H1 2449   2.094   0.568   5.044
  746WAT     H2 2450   2.029   0.558   5.180
  747WAT      O 2451   2.078   3.368   4.574
  747WAT     H1 2452   1.992   3.343   4.610
  747WAT     H2 2453   2.111   3.289   4.532
  748WAT      O 2454   2.838   3.190   0.052
  748WAT     H1 2455   2.753   3.148   0.043
  748WAT     H2 2456   2.860   3.182   0.145
  749WAT      O 2457   1.264   0.456   2.872
  749WAT     H1 2458   1.339   0.400   2.849
  749WAT     H2 2459   1.279   0.480   2.963
  750WAT      O 2460   1.267   1.272   3.469
  750WAT     H1 2461   1.182   1.279   3.514
  750WAT     H2 2462   1.317   1.346   3.501
  751WAT      O 2463   1.308   2.346   5.023
  751WAT     H1 2464   1.369   2.322   5.093
  751WAT     H2 2465   1.312   2.272   4.962
  752WAT      O 2466   0.427   4.521   4.896
  752WAT     H1 2467   0.515   4.556   4.886
  752WAT     H2 2468   0.426   4.442   4.842
  753WAT      O 2469   2.932   2.930   2.303
  753WAT     H1 2470   2.885   2.897   2.227
  753WAT     H2 2471   2.869   2.924   2.375
  754WAT      O 2472   3.349   3.992   5.210
  754WAT     H1 2473   3.407   4.025   5.141
  754WAT     H2 2474   3.360   3.897   5.207
  755WAT      O 2475   1.220   5.085   2.932
  755WAT     H1 2476   1.212   5.044   2.846
  755WAT     H2 2477   1.179   5.171   2.921
  756WAT      O 2478   1.201   0.875   2.939
  756WAT     H1 2479   1.183   0.780   2.947
  756WAT     H2 2480   1.122   0.909   2.897
  757WAT      O 2481   2.022   0.990   4.117
  757WAT     H1 2482   1.962   1.037   4.060
  757WAT     H2 2483   1.983   0.997   4.204
  758WAT      O 2484   4.105   2.925   1.221
  758WAT     H1 2485   4.119   2.843   1.174
  758WAT     H2 2486   4.011   2.942   1.212
  759WAT      O 2487   3.314   4.196   2.696
  759WAT     H1 2488   3.359   4.203   2.780
  759WAT     H2 2489   3.382   4.167   2.635
  760WAT      O 2490   2.561   2.280   0.676
  760WAT     H1 2491   2.512   2.220   0.732
  760WAT     H2 2492   2.636   2.308   0.729
  761WAT      O 2493   2.174   0.701   2.021
  761WAT     H1 2494   2.210   0.619   1.989
  761WAT     H2 2495   2.174   0.759   1.944
  762WAT      O 2496   3.738   4.408   1.670
  762WAT     H1 2497   3.810   4.445   1.720
  762WAT     H2 2498   3.676   4.481   1.659
  763WAT      O 2499   1.256   0.601   3.106
  763WAT     H1 2500   1.188   0.545   3.145
  763WAT     H2 2501   1.264   0.675   3.166
  764WAT      O 2502   3.026   4.642   1.329
  764WAT     H1 2503   3.053   4.677   1.415
  764WAT     H2 2504   3.109   4.631   1.282
  765WAT      O 2505   2.629   0.803   2.063
  765WAT     H1 2506   2.699   0.737   2.062
  765WAT     H2 2507   2.577   0.780   2.140
  766WAT      O 2508   0.783   5.004   3.480
  766WAT     H1 2509   0.804   5.033   3.391
  766WAT     H2 2510   0.711   4.942   3.469
  767WAT      O 2511   1.339   2.989   3.380
  767WAT     H1 2512   1.341   3.053   3.451
  767WAT     H2 2513   1.385   3.031   3.308
  768WAT      O 2514   2.252   3.862   3.809
  768WAT     H1 2515   2.257   3.846   3.903
  768WAT     H2 2516   2.343   3.874   3.782
  769WAT      O 2517   3.726   5.006   1.635
  769WAT     H1 2518   3.716   4.993   1.541
  769WAT     H2 2519   3.706   4.920   1.673
  770WAT      O 2520   1.856   4.424   1.553
  770WAT     H1 2521   1.873   4.406   1.646
  770WAT     H2 2522   1.775   4.376   1.535
  771WAT      O 2523   0.488   1.673   2.021
  771WAT     H1 2524   0.572   1.717   2.005
  771WAT     H2 2525   0.435   1.695   1.944
  772WAT      O 2526   1.553   3.095   2.229
  772WAT     H1 2527   1.493   3.025   2.254
  772WAT     H2 2528   1.628   3.049   2.191
  773WAT      O 2529   1.139   0.338   4.271
  773WAT     H1 2530   1.112   0.351   4.180
  773WAT     H2 2531   1.218   0.285   4.266
  774WAT      O 2532   3.989   1.259   4.057
  774WAT     H1 2533   3.921   1.284   4.119
  774WAT     H2 2534   3.941   1.233   3.978
  775WAT      O 2535   2.833   4.558   2.989
  775WAT     H1 2536   2.861   4.498   2.919
  775WAT     H2 2537   2.737   4.551   2.989
  776WAT      O 2538   1.723   0.389   5.270
  776WAT     H1 2539   1.724   0.482   5.293
  776WAT     H2 2540   1.733   0.387   5.175
  777WAT      O 2541   3.432   1.859   1.597
  777WAT     H1 2542   3.356   1.840   1.651
  777WAT     H2 2543   3.469   1.938   1.636
  778WAT      O 2544   1.734   2.166   0.914
  778WAT     H1 2545   1.684   2.100   0.962
  778WAT     H2 2546   1.672   2.238   0.902
  779WAT      O 2547   1.687   0.683   3.292
  779WAT     H1 2548   1.668   0.739   3.216
  779WAT     H2 2549   1.781   0.691   3.304
  780WAT      O 2550   3.772   4.478   4.069
  780WAT     H1 2551   3.839   4.445   4.009
  780WAT     H2 2552   3.773   4.417   4.143
  781WAT      O 2553   3.994   3.674   4.985
  781WAT     H1 2554   4.055   3.685   5.057
  781WAT     H2 2555   4.040   3.618   4.923
  782WAT      O 2556   1.374   0.022   1.232
  782WAT     H1 2557   1.309  -0.033   1.275
  782WAT     H2 2558   1.401  -0.029   1.155
  783WAT      O 2559   1.382   3.471   3.991
  783WAT     H1 2560   1.386   3.565   3.971
  783WAT     H2 2561   1.396   3.466   4.085
  784WAT      O 2562   4.350   3.226   2.456
  784WAT     H1 2563   4.444   3.210   2.466
  784WAT     H2 2564   4.318   3.151   2.405
  785WAT      O 2565   0.023   0.499   4.891
  785WAT     H1 2566   0.017   0.523   4.983
  785WAT     H2 2567   0.085   0.561   4.854
  786WAT      O 2568   4.501   3.672   2.983
  786WAT     H1 2569   4.458   3.751   3.017
  786WAT     H2 2570   4.592   3.699   2.968
  787WAT      O 2571   3.461   2.029   5.103
  787WAT     H1 2572   3.485   1.942   5.072
  787WAT     H2 2573   3.497   2.088   5.037
  788WAT      O 2574   2.861   3.033   3.997
  788WAT     H1 2575   2.840   3.060   3.907
  788WAT     H2 2576   2.791   3.070   4.051
  789WAT      O 2577   0.766   2.558   4.416
  789WAT     H1 2578   0.720   2.476   4.433
  789WAT     H2 2579   0.859   2.534   4.419
  790WAT      O 2580   3.567   3.881   4.125
  790WAT     H1 2581   3.472   3.871   4.136
  790WAT     H2 2582   3.581   3.976   4.125
  791WAT      O 2583   1.519   4.135   0.373
  791WAT     H1 2584   1.562   4.077   0.309
  791WAT     H2 2585   1.521   4.221   0.332
  792WAT      O 2586   2.754   4.683   2.213
  792WAT     H1 2587   2.815   4.611   2.233
  792WAT     H2 2588   2.789   4.757   2.262
  793WAT      O 2589   2.495   4.854   3.443
  793WAT     H1 2590   2.451   4.782   3.398
  793WAT     H2 2591   2.585   4.823   3.455
  794WAT      O 2592   2.321   1.586   1.037
  794WAT     H1 2593   2.364   1.504   1.061
  794WAT     H2 2594   2.229   1.575   1.063
  795WAT      O 2595   1.635   4.216   2.328
  795WAT     H1 2596   1.541   4.230   2.331
  795WAT     H2 2597   1.650   4.170   2.246
  796WAT      O 2598   0.346   1.474   2.967
  796WAT     H1 2599   0.327   1.384   2.993
  796WAT     H2 2600   0.325   1.477   2.874
  797WAT      O 2601   2.540   1.840   5.190
  797WAT     H1 2602   2.597   1.831   5.266
  797WAT     H2 2603   2.590   1.802   5.117
  798WAT      O 2604   2.133   3.603   2.504
  798WAT     H1 2605   2.206   3.584   2.564
  798WAT     H2 2606   2.066   3.539   2.527
  799WAT      O 2607   2.028   1.896   4.130
  799WAT     H1 2608   2.015   1.984   4.096
  799WAT     H2 2609   1.940   1.865   4.151
  800WAT      O 2610   1.550   1.888   0.062
  800WAT     H1 2611   1.474   1.858   0.112
  800WAT     H2 2612   1.513   1.919  -0.021
  801WAT      O 2613   2.235   0.060   3.075
  801WAT     H1 2614   2.302   0.106   3.125
  801WAT     H2 2615   2.283  -0.003   3.021
  802WAT      O 2616   3.658   3.894   1.447
  802WAT     H1 2617   3.650   3.958   1.517
  802WAT     H2 2618   3.657   3.946   1.366
  803WAT      O 2619   2.981   2.873   5.215
  803WAT     H1 2620   2.886   2.890   5.218
  803WAT     H2 2621   3.018   2.958   5.186
  804WAT      O 2622   2.139   3.741   1.787
  804WAT     H1 2623   2.220   3.739   1.839
  804WAT     H2 2624   2.145   3.822   1.737
  805WAT      O 2625   3.168   5.012   3.742
  805WAT     H1 2626   3.096   4.967   3.698
  805WAT     H2 2627   3.163   4.981   3.833
  806WAT      O 2628   1.162   0.741   1.958
  806WAT     H1 2629   1.106   0.811   1.926
  806WAT     H2 2630   1.188   0.769   2.046
  807WAT      O 2631   3.024   1.256   3.629
  807WAT     H1 2632   2.952   1.203   3.595
  807WAT     H2 2633   3.019   1.336   3.578
  808WAT      O 2634   4.050   3.421   2.151
  808WAT     H1 2635   3.995   3.409   2.074
  808WAT     H2 2636   4.016   3.358   2.215
  809WAT      O 2637   3.390   0.999   3.014
  809WAT     H1 2638   3.456   0.931   3.031
  809WAT     H2 2639   3.391   1.010   2.919
  810WAT      O 2640   1.027   0.281   3.427
  810WAT     H1 2641   0.978   0.336   3.488
  810WAT     H2 2642   0.999   0.193   3.446
  811WAT      O 2643   0.636   0.484   1.336
  811WAT     H1 2644   0.606   0.479   1.245
  811WAT     H2 2645   0.650   0.578   1.351
  812WAT      O 2646   3.325   1.159   3.231
  812WAT     H1 2647   3.325   1.090   3.164
  812WAT     H2 2648   3.245   1.142   3.281
  813WAT      O 2649   1.324   2.046   1.478
  813WAT     H1 2650   1.263   1.982   1.442
  813WAT     H2 2651   1.278   2.086   1.552
  814WAT      O 2652   4.330   1.838   1.619
  814WAT     H1 2653   4.365   1.897   1.552
  814WAT     H2 2654   4.235   1.848   1.613
  815WAT      O 2655   2.636   3.185   4.464
  815WAT     H1 2656   2.667   3.236   4.539
  815WAT     H2 2657   2.575   3.244   4.419
  816WAT      O 2658   3.023   3.416   3.880
  816WAT     H1 2659   2.943   3.398   3.929
  816WAT     H2 2660   3.053   3.331   3.849
  817WAT      O 2661   0.037   2.581   5.146
  817WAT     H1 2662  -0.045   2.564   5.101
  817WAT     H2 2663   0.057   2.500   5.193
  818WAT      O 2664   3.107   5.000   3.047
  818WAT     H1 2665   3.037   5.017   2.984
  818WAT     H2 2666   3.166   4.940   3.001
  819WAT      O 2667   0.492   1.231   3.461
  819WAT     H1 2668   0.502   1.165   3.528
  819WAT     H2 2669   0.496   1.182   3.378
  820WAT      O 2670   2.461   4.366   2.081
  820WAT     H1 2671   2.367   4.352   2.072
  820WAT     H2 2672   2.493   4.289   2.128
  821WAT      O 2673   0.699   3.186   1.984
  821WAT     H1 2674   0.792   3.207   1.979
  821WAT     H2 2675   0.666   3.241   2.055
  822WAT      O 2676   0.366   0.820   4.066
  822WAT     H1 2677   0.454   0.847   4.043
  822WAT     H2 2678   0.363   0.727   4.043
  823WAT      O 2679   1.975   2.820   4.782
  823WAT     H1 2680   2.049   2.792   4.727
  823WAT     H2 2681   2.016   2.863   4.857
  824WAT      O 2682   4.466   3.785   4.212
  824WAT     H1 2683   4.421   3.707   4.178
  824WAT     H2 2684   4.442   3.855   4.152
  825WAT      O 2685   3.590   1.599   3.647
  825WAT     H1 2686   3.647   1.526   3.623
  825WAT     H2 2687   3.624   1.629   3.731
  826WAT      O 2688   3.232   2.694   1.652
  826WAT     H1 2689   3.274   2.655   1.728
  826WAT     H2 2690   3.243   2.630   1.582
  827WAT      O 2691   1.017   0.053   1.326
  827WAT     H1 2692   1.081   0.021   1.264
  827WAT     H2 2693   0.943   0.081   1.273
  828WAT      O 2694   4.409   2.209   0.765
  828WAT     H1 2695   4.458   2.277   0.810
  828WAT     H2 2696   4.355   2.169   0.833
  829WAT      O 2697   2.053   4.134   1.365
  829WAT     H1 2698   2.001   4.065   1.406
  829WAT     H2 2699   2.022   4.136   1.274
  830WAT      O 2700   3.859   4.114   2.266
  830WAT     H1 2701   3.767   4.114   2.238
  830WAT     H2 2702   3.909   4.101   2.186
  831WAT      O 2703   2.723   1.086   5.235
  831WAT     H1 2704   2.819   1.083   5.236
  831WAT     H2 2705   2.697   1.047   5.319
  832WAT      O 2706   3.114   3.951   4.928
  832WAT     H1 2707   3.188   3.958   4.867
  832WAT     H2 2708   3.135   3.875   4.982
  833WAT      O 2709   1.285   3.505   1.450
  833WAT     H1 2710   1.371   3.541   1.428
  833WAT     H2 2711   1.280   3.513   1.545
  834WAT      O 2712   2.476   2.174   1.222
  834WAT     H1 2713   2.511   2.258   1.192
  834WAT     H2 2714   2.395   2.163   1.172
  835WAT      O 2715   0.862   2.210   0.941
  835WAT     H1 2716   0.799   2.263   0.891
  835WAT     H2 2717   0.820   2.196   1.026
  836WAT      O 2718   3.648   3.799   4.590
  836WAT     H1 2719   3.729   3.752   4.571
  836WAT     H2 2720   3.597   3.737   4.642
  837WAT      O 2721   1.202   3.524   2.631
  837WAT     H1 2722   1.246   3.496   2.550
  837WAT     H2 2723   1.205   3.619   2.628
  838WAT      O 2724   1.417   0.681   1.899
  838WAT     H1 2725   1.473   0.706   1.973
  838WAT     H2 2726   1.330   0.709   1.925
  839WAT      O 2727   3.596   0.246   0.401
  839WAT     H1 2728   3.593   0.153   0.377
  839WAT     H2 2729   3.666   0.252   0.466
  840WAT      O 2730   4.226   4.951   0.667
  840WAT     H1 2731   4.150   5.009   0.680
  840WAT     H2 2732   4.190   4.863   0.678
  841WAT      O 2733   1.991   3.421   3.552
  841WAT     H1 2734   2.052   3.488   3.582
  841WAT     H2 2735   2.033   3.338   3.574
  842WAT      O 2736   2.204   3.702   3.067
  842WAT     H1 2737   2.225   3.772   3.128
  842WAT     H2 2738   2.240   3.731   2.983
  843WAT      O 2739   2.197   4.415   3.408
  843WAT     H1 2740   2.121   4.432   3.353
  843WAT     H2 2741   2.174   4.339   3.460
  844WAT      O 2742   3.787   2.297   5.077
  844WAT     H1 2743   3.715   2.324   5.020
  844WAT     H2 2744   3.858   2.358   5.055
  845WAT      O 2745   1.032   1.077   5.281
  845WAT     H1 2746   1.115   1.125   5.287
  845WAT     H2 2747   0.998   1.077   5.370
  846WAT      O 2748   1.453   3.900   1.212
  846WAT     H1 2749   1.452   3.808   1.185
  846WAT     H2 2750   1.525   3.906   1.275
  847WAT      O 2751   0.561   5.020   4.675
  847WAT     H1 2752   0.523   5.077   4.608
  847WAT     H2 2753   0.489   4.963   4.702
  848WAT      O 2754   1.102   1.306   2.085
  848WAT     H1 2755   1.081   1.283   1.994
  848WAT     H2 2756   1.018   1.308   2.130
  849WAT      O 2757   0.154   0.420   3.929
  849WAT     H1 2758   0.120   0.342   3.885
  849WAT     H2 2759   0.090   0.489   3.909
  850WAT      O 2760   1.709   4.664   2.080
  850WAT     H1 2761   1.793   4.686   2.120
  850WAT     H2 2762   1.688   4.578   2.116
  851WAT      O 2763   0.532   2.788   3.428
  851WAT     H1 2764   0.568   2.876   3.425
  851WAT     H2 2765   0.496   2.774   3.340
  852WAT      O 2766   2.855   0.742   4.987
  852WAT     H1 2767   2.945   0.757   5.016
  852WAT     H2 2768   2.827   0.828   4.954
  853WAT      O 2769   1.610   1.453   3.326
  853WAT     H1 2770   1.658   1.387   3.375
  853WAT     H2 2771   1.669   1.480   3.256
  854WAT      O 2772   3.209   2.396   3.801
  854WAT     H1 2773   3.198   2.343   3.880
  854WAT     H2 2774   3.122   2.400   3.762
  855WAT      O 2775   0.186   1.983   4.989
  855WAT     H1 2776   0.221   2.063   5.029
  855WAT     H2 2777   0.163   2.007   4.900
  856WAT      O 2778   2.179   0.918   1.838
  856WAT     H1 2779   2.212   0.970   1.764
  856WAT     H2 2780   2.135   0.844   1.797
  857WAT      O 2781   4.199   1.352   2.776
  857WAT     H1 2782   4.159   1.323   2.694
  857WAT     H2 2783   4.170   1.287   2.841
  858WAT      O 2784   3.717   4.178   0.187
  858WAT     H1 2785   3.746   4.265   0.162
  858WAT     H2 2786   3.789   4.143   0.239
  859WAT      O 2787   1.130   1.408   5.212
  859WAT     H1 2788   1.072   1.421   5.287
  859WAT     H2 2789   1.218   1.407   5.249
  860WAT      O 2790   3.266   4.868   2.860
  860WAT     H1 2791   3.317   4.788   2.850
  860WAT     H2 2792   3.323   4.938   2.827
  861WAT      O 2793   1.045   2.513   3.819
  861WAT     H1 2794   1.121   2.568   3.837
  861WAT     H2 2795   1.078   2.424   3.827
  862WAT      O 2796   1.454   1.402   3.640
  862WAT     H1 2797   1.432   1.375   3.729
  862WAT     H2 2798   1.491   1.323   3.599
  863WAT      O 2799   0.495   0.149   4.763
  863WAT     H1 2800   0.550   0.208   4.815
  863WAT     H2 2801   0.416   0.137   4.815
  864WAT      O 2802   2.174   0.808   1.474
  864WAT     H1 2803   2.113   0.811   1.400
  864WAT     H2 2804   2.119   0.785   1.549
  865WAT      O 2805   1.817   2.129   1.998
  865WAT     H1 2806   1.847   2.038   1.999
  865WAT     H2 2807   1.748   2.133   2.063
  866WAT      O 2808   3.927   4.656   3.068
  866WAT     H1 2809   3.932   4.564   3.095
  866WAT     H2 2810   3.958   4.656   2.978
  867WAT      O 2811   3.892   0.264   5.139
  867WAT     H1 2812   3.965   0.264   5.202
  867WAT     H2 2813   3.880   0.357   5.118
  868WAT      O 2814   3.311   1.415   2.002
  868WAT     H1 2815   3.378   1.382   2.062
  868WAT     H2 2816   3.242   1.350   2.005
  869WAT      O 2817   3.457   4.493   2.315
  869WAT     H1 2818   3.476   4.459   2.402
  869WAT     H2 2819   3.496   4.581   2.314
  870WAT      O 2820   1.545   2.599   0.792
  870WAT     H1 2821   1.501   2.663   0.848
  870WAT     H2 2822   1.539   2.636   0.704
  871WAT      O 2823   1.278   1.821   2.640
  871WAT     H1 2824   1.334   1.747   2.617
  871WAT     H2 2825   1.334   1.879   2.691
  872WAT      O 2826   0.268   0.660   4.780
  872WAT     H1 2827   0.285   0.566   4.774
  872WAT     H2 2828   0.355   0.699   4.794
  873WAT      O 2829   0.365   0.433   1.716
  873WAT     H1 2830   0.387   0.469   1.630
  873WAT     H2 2831   0.426   0.476   1.776
  874WAT      O 2832   1.521   2.133   3.111
  874WAT     H1 2833   1.433   2.094   3.115
  874WAT     H2 2834   1.515   2.212   3.165
  875WAT      O 2835   3.796   0.479   2.979
  875WAT     H1 2836   3.764   0.568   2.978
  875WAT     H2 2837   3.774   0.446   3.067
  876WAT      O 2838   1.855   2.772   3.224
  876WAT     H1 2839   1.866   2.847   3.282
  876WAT     H2 2840   1.867   2.807   3.136
  877WAT      O 2841   1.167   4.801   5.201
  877WAT     H1 2842   1.237   4.795   5.135
  877WAT     H2 2843   1.157   4.712   5.233
  878WAT      O 2844   2.571   4.129   3.875
  878WAT     H1 2845   2.626   4.081   3.937
  878WAT     H2 2846   2.589   4.221   3.893
  879WAT      O 2847   1.982   1.148   4.752
  879WAT     H1 2848   2.001   1.089   4.679
  879WAT     H2 2849   1.913   1.205   4.719
  880WAT      O 2850   1.521   1.458   1.290
  880WAT     H1 2851   1.491   1.545   1.320
  880WAT     H2 2852   1.457   1.432   1.225
  881WAT      O 2853   2.917   0.839   0.293
  881WAT     H1 2854   2.827   0.818   0.271
  881WAT     H2 2855   2.969   0.783   0.234
  882WAT      O 2856   2.155   1.902   0.702
  882WAT     H1 2857   2.070   1.946   0.711
  882WAT     H2 2858   2.134   1.809   0.704
  883WAT      O 2859   0.395   4.480   1.641
  883WAT     H1 2860   0.404   4.518   1.728
  883WAT     H2 2861   0.447   4.399   1.645
  884WAT      O 2862   4.454   3.181   0.886
  884WAT     H1 2863   4.518   3.184   0.816
  884WAT     H2 2864   4.504   3.201   0.965
  885WAT      O 2865   2.197   3.610   4.450
  885WAT     H1 2866   2.173   3.588   4.360
  885WAT     H2 2867   2.143   3.551   4.503
  886WAT      O 2868   3.560   3.472   0.044
  886WAT     H1 2869   3.606   3.453  -0.038
  886WAT     H2 2870   3.568   3.391   0.095
  887WAT      O 2871   0.080   1.530   1.598
  887WAT     H1 2872   0.030   1.558   1.675
  887WAT     H2 2873   0.114   1.444   1.622
  888WAT      O 2874   4.076   3.513   1.401
  888WAT     H1 2875   4.132   3.541   1.473
  888WAT     H2 2876   4.084   3.417   1.400
  889WAT      O 2877   1.303   3.131   3.733
  889WAT     H1 2878   1.241   3.187   3.780
  889WAT     H2 2879   1.333   3.184   3.660
  890WAT      O 2880   3.501   1.844   0.456
  890WAT     H1 2881   3.427   1.826   0.514
  890WAT     H2 2882   3.462   1.889   0.381
  891WAT      O 2883   1.536   1.629   3.560
  891WAT     H1 2884   1.580   1.611   3.477
  891WAT     H2 2885   1.502   1.545   3.589
  892WAT      O 2886   0.257   4.997   4.221
  892WAT     H1 2887   0.195   4.936   4.260
  892WAT     H2 2888   0.338   4.946   4.214
  893WAT      O 2889   2.280   0.640   3.279
  893WAT     H1 2890   2.314   0.551   3.263
  893WAT     H2 2891   2.207   0.648   3.218
  894WAT      O 2892   1.558   0.869   0.100
  894WAT     H1 2893   1.612   0.829   0.032
  894WAT     H2 2894   1.617   0.930   0.145
  895WAT      O 2895   1.027   0.303   0.537
  895WAT     H1 2896   1.041   0.270   0.625
  895WAT     H2 2897   1.023   0.225   0.482
  896WAT      O 2898   3.086   4.618   5.117
  896WAT     H1 2899   3.112   4.579   5.033
  896WAT     H2 2900   3.031   4.552   5.158
  897WAT      O 2901   1.066   0.497   2.257
  897WAT     H1 2902   1.078   0.421   2.315
  897WAT     H2 2903   0.979   0.484   2.218
  898WAT      O 2904   0.124   1.846   1.623
  898WAT     H1 2905   0.117   1.777   1.557
  898WAT     H2 2906   0.111   1.928   1.576
  899WAT      O 2907   3.465   1.198   4.448
  899WAT     H1 2908   3.432   1.267   4.504
  899WAT     H2 2909   3.433   1.118   4.488
  900WAT      O 2910   1.635   2.377   5.194
  900WAT     H1 2911   1.587   2.453   5.162
  900WAT     H2 2912   1.717   2.413   5.227
  901WAT      O 2913   2.467   5.044   2.712
  901WAT     H1 2914   2.397   5.110   2.712
  901WAT     H2 2915   2.523   5.069   2.785
  902WAT      O 2916   1.649   4.199   3.582
  902WAT     H1 2917   1.601   4.279   3.562
  902WAT     H2 2918   1.718   4.227   3.642
  903WAT      O 2919   3.418   3.782   2.738
  903WAT     H1 2920   3.367   3.713   2.780
  903WAT     H2 2921   3.508   3.749   2.739
  904WAT      O 2922   2.699   1.862   0.577
  904WAT     H1 2923   2.674   1.943   0.532
  904WAT     H2 2924   2.745   1.891   0.655
  905WAT      O 2925   1.998   0.719   2.314
  905WAT     H1 2926   1.958   0.640   2.277
  905WAT     H2 2927   2.079   0.690   2.354
  906WAT      O 2928   4.071   1.941   1.602
  906WAT     H1 2929   3.992   1.899   1.635
  906WAT     H2 2930   4.043   2.028   1.575
  907WAT      O 2931   0.560   3.025   3.980
  907WAT     H1 2932   0.521   3.074   3.908
  907WAT     H2 2933   0.556   2.934   3.952
  908WAT      O 2934   2.442   1.465   0.593
  908WAT     H1 2935   2.374   1.464   0.661
  908WAT     H2 2936   2.514   1.415   0.632
  909WAT      O 2937   4.159   2.778   4.851
  909WAT     H1 2938   4.141   2.868   4.878
  909WAT     H2 2939   4.172   2.784   4.756
  910WAT      O 2940   1.204   2.452   1.482
  910WAT     H1 2941   1.298   2.436   1.476
  910WAT     H2 2942   1.165   2.395   1.416
  911WAT      O 2943   1.240   4.977   1.339
  911WAT     H1 2944   1.170   4.956   1.400
  911WAT     H2 2945   1.266   4.893   1.301
  912WAT      O 2946   0.594   2.552   0.420
  912WAT     H1 2947   0.631   2.604   0.491
  912WAT     H2 2948   0.667   2.498   0.390
  913WAT      O 2949   0.811   1.629   1.546
  913WAT     H1 2950   0.732   1.583   1.577
  913WAT     H2 2951   0.881   1.565   1.560
  914WAT      O 2952   3.870   1.578   0.028
  914WAT     H1 2953   3.816   1.655   0.044
  914WAT     H2 2954   3.952   1.614  -0.006
  915WAT      O 2955   3.455   3.655   1.238
  915WAT     H1 2956   3.535   3.702   1.213
  915WAT     H2 2957   3.458   3.653   1.334
  916WAT      O 2958   3.486   1.240   1.708
  916WAT     H1 2959   3.502   1.155   1.665
  916WAT     H2 2960   3.395   1.236   1.736
  917WAT      O 2961   3.966   3.847   0.476
  917WAT     H1 2962   3.927   3.921   0.523
  917WAT     H2 2963   3.993   3.787   0.546
  918WAT      O 2964   4.465   2.684   3.512
  918WAT     H1 2965   4.470   2.666   3.606
  918WAT     H2 2966   4.435   2.602   3.473
  919WAT      O 2967   2.138   1.961   1.293
  919WAT     H1 2968   2.219   1.915   1.316
  919WAT     H2 2969   2.088   1.899   1.241
  920WAT      O 2970   3.945   5.057   0.334
  920WAT     H1 2971   3.938   5.153   0.341
  920WAT     H2 2972   4.016   5.043   0.272
  921WAT      O 2973   2.506   2.109   4.290
  921WAT     H1 2974   2.455   2.087   4.368
  921WAT     H2 2975   2.597   2.096   4.316
  922WAT      O 2976   0.324   1.873   0.757
  922WAT     H1 2977   0.389   1.851   0.689
  922WAT     H2 2978   0.243   1.835   0.725
  923WAT      O 2979   1.875   0.798   2.000
  923WAT     H1 2980   1.917   0.772   1.918
  923WAT     H2 2981   1.862   0.716   2.048
  924WAT      O 2982   1.998   3.198   3.917
  924WAT     H1 2983   2.031   3.197   3.828
  924WAT     H2 2984   1.929   3.131   3.918
  925WAT      O 2985   3.524   3.010   2.986
  925WAT     H1 2986   3.587   3.023   3.057
  925WAT     H2 2987   3.577   2.978   2.913
  926WAT      O 2988   1.517   2.802   0.997
  926WAT     H1 2989   1.522   2.748   1.077
  926WAT     H2 2990   1.424   2.825   0.990
  927WAT      O 2991   4.262   4.750   2.727
  927WAT     H1 2992   4.253   4.790   2.814
  927WAT     H2 2993   4.188   4.690   2.720
  928WAT      O 2994   0.752   2.840   0.988
  928WAT     H1 2995   0.786   2.762   1.031
  928WAT     H2 2996   0.828   2.879   0.946
  929WAT      O 2997   3.888   2.427   0.727
  929WAT     H1 2998   3.949   2.497   0.703
  929WAT     H2 2999   3.856   2.394   0.644
  930WAT      O 3000   3.805   3.582   3.857
  930WAT     H1 3001   3.737   3.573   3.791
  930WAT     H2 3002   3.830   3.674   3.854
  931WAT      O 3003   1.234   0.945   1.043
  931WAT     H1 3004   1.213   0.896   1.123
  931WAT     H2 3005   1.300   1.009   1.070
  932WAT      O 3006   2.201   1.503   0.203
  932WAT     H1 3007   2.208   1.478   0.111
  932WAT     H2 3008   2.291   1.498   0.236
  933WAT      O 3009   4.485   3.177   1.912
  933WAT     H1 3010   4.432   3.098   1.924
  933WAT     H2 3011   4.543   3.155   1.838
  934WAT      O 3012   0.375   3.981   3.658
  934WAT     H1 3013   0.421   4.011   3.736
  934WAT     H2 3014   0.284   3.971   3.687
  935WAT      O 3015   2.309   0.474   1.949
  935WAT     H1 3016   2.273   0.403   1.894
  935WAT     H2 3017   2.349   0.428   2.023
  936WAT      O 3018   1.437   1.171   1.074
  936WAT     H1 3019   1.371   1.239   1.090
  936WAT     H2 3020   1.463   1.184   0.983
  937WAT      O 3021   2.712   3.793   4.887
  937WAT     H1 3022   2.769   3.853   4.839
  937WAT     H2 3023   2.660   3.750   4.819
  938WAT      O 3024   4.036   5.106   1.101
  938WAT     H1 3025   3.968   5.141   1.043
  938WAT     H2 3026   4.116   5.108   1.048
  939WAT      O 3027   1.970   1.553   3.278
  939WAT     H1 3028   2.042   1.525   3.222
  939WAT     H2 3029   1.910   1.598   3.218
  940WAT      O 3030   2.571   3.107   1.213
  940WAT     H1 3031   2.617   3.102   1.297
  940WAT     H2 3032   2.487   3.064   1.230
  941WAT      O 3033   4.350   1.625   3.059
  941WAT     H1 3034   4.390   1.589   2.980
  941WAT     H2 3035   4.346   1.550   3.120
  942WAT      O 3036   3.509   0.342   1.839
  942WAT     H1 3037   3.591   0.379   1.805
  942WAT     H2 3038   3.508   0.252   1.808
  943WAT      O 3039   4.284   5.097   1.517
  943WAT     H1 3040   4.241   5.177   1.545
  943WAT     H2 3041   4.221   5.055   1.458
  944WAT      O 3042   2.802   1.948   2.816
  944WAT     H1 3043   2.772   1.975   2.903
  944WAT     H2 3044   2.862   1.875   2.834
  945WAT      O 3045   0.721   2.156   0.026
  945WAT     H1 3046   0.664   2.182   0.098
  945WAT     H2 3047   0.667   2.097  -0.027
  946WAT      O 3048   3.849   0.630   4.211
  946WAT     H1 3049   3.915   0.691   4.179
  946WAT     H2 3050   3.766   0.665   4.181
  947WAT      O 3051   1.818   5.117   1.034
  947WAT     H1 3052   1.887   5.170   0.994
  947WAT     H2 3053   1.855   5.029   1.040
  948WAT      O 3054   4.107   2.845   4.561
  948WAT     H1 3055   4.151   2.798   4.490
  948WAT     H2 3056   4.152   2.929   4.566
  949WAT      O 3057   0.621   0.907   3.161
  949WAT     H1 3058   0.681   0.849   3.113
  949WAT     H2 3059   0.679   0.967   3.209
  950WAT      O 3060   2.511   0.909   2.599
  950WAT     H1 3061   2.546   0.821   2.598
  950WAT     H2 3062   2.524   0.941   2.509
  951WAT      O 3063   3.137   4.579   2.166
  951WAT     H1 3064   3.109   4.644   2.231
  951WAT     H2 3065   3.068   4.513   2.167
  952WAT      O 3066   2.319   0.662   1.157
  952WAT     H1 3067   2.359   0.701   1.234
  952WAT     H2 3068   2.240   0.713   1.142
  953WAT      O 3069   4.176   0.566   2.961
  953WAT     H1 3070   4.228   0.647   2.960
  953WAT     H2 3071   4.109   0.581   3.028
  954WAT      O 3072   0.544   3.755   0.932
  954WAT     H1 3073   0.579   3.838   0.901
  954WAT     H2 3074   0.621   3.701   0.949
  955WAT      O 3075   3.668   0.051   3.743
  955WAT     H1 3076   3.602   0.033   3.677
  955WAT     H2 3077   3.728  -0.023   3.739
  956WAT      O 3078   4.014   1.312   0.020
  956WAT     H1 3079   4.063   1.253   0.078
  956WAT     H2 3080   3.983   1.382   0.077
  957WAT      O 3081   4.334   0.951   1.793
  957WAT     H1 3082   4.277   0.977   1.721
  957WAT     H2 3083   4.351   0.859   1.778
  958WAT      O 3084   1.708   2.287   4.719
  958WAT     H1 3085   1.795   2.259   4.747
  958WAT     H2 3086   1.650   2.257   4.789
  959WAT      O 3087   3.171   2.303   3.292
  959WAT     H1 3088   3.122   2.338   3.366
  959WAT     H2 3089   3.263   2.313   3.316
  960WAT      O 3090   2.540   2.245   5.127
  960WAT     H1 3091   2.631   2.217   5.117
  960WAT     H2 3092   2.514   2.213   5.214
  961WAT      O 3093   0.527   0.109   4.272
  961WAT     H1 3094   0.467   0.101   4.345
  961WAT     H2 3095   0.577   0.027   4.273
  962WAT      O 3096   1.640   4.347   0.979
  962WAT     H1 3097   1.736   4.357   0.976
  962WAT     H2 3098   1.607   4.424   0.933
  963WAT      O 3099   0.441   1.460   2.212
  963WAT     H1 3100   0.443   1.501   2.126
  963WAT     H2 3101   0.388   1.381   2.199
  964WAT      O 3102   2.872   0.668   2.836
  964WAT     H1 3103   2.890   0.591   2.780
  964WAT     H2 3104   2.935   0.734   2.807
  965WAT      O 3105   1.344   0.691   0.596
  965WAT     H1 3106   1.296   0.716   0.675
  965WAT     H2 3107   1.283   0.632   0.550
  966WAT      O 3108   1.147   2.922   0.289
  966WAT     H1 3109   1.066   2.873   0.273
  966WAT     H2 3110   1.127   2.977   0.365
  967WAT      O 3111   0.495   2.758   1.312
  967WAT     H1 3112   0.569   2.725   1.262
  967WAT     H2 3113   0.419   2.739   1.258
  968WAT      O 3114   2.757   4.240   1.320
  968WAT     H1 3115   2.763   4.332   1.296
  968WAT     H2 3116   2.679   4.234   1.375
  969WAT      O 3117   1.937   4.014   0.122
  969WAT     H1 3118   1.855   3.965   0.128
  969WAT     H2 3119   1.981   3.998   0.205
  970WAT      O 3120   2.787   1.369   1.129
  970WAT     H1 3121   2.811   1.279   1.111
  970WAT     H2 3122   2.858   1.421   1.089
  971WAT      O 3123   3.594   0.453   4.566
  971WAT     H1 3124   3.509   0.438   4.608
  971WAT     H2 3125   3.573   0.505   4.488
  972WAT      O 3126   3.303   4.694   1.391
  972WAT     H1 3127   3.396   4.691   1.368
  972WAT     H2 3128   3.293   4.777   1.438
  973WAT      O 3129   4.407   3.178   3.862
  973WAT     H1 3130   4.342   3.248   3.867
  973WAT     H2 3131   4.397   3.141   3.775
  974WAT      O 3132   1.461   4.618   3.231
  974WAT     H1 3133   1.552   4.647   3.235
  974WAT     H2 3134   1.454   4.572   3.148
  975WAT      O 3135   0.349   4.186   3.476
  975WAT     H1 3136   0.442   4.195   3.497
  975WAT     H2 3137   0.317   4.120   3.538
  976WAT      O 3138   4.397   1.214   3.100
  976WAT     H1 3139   4.303   1.202   3.087
  976WAT     H2 3140   4.403   1.264   3.181
  977WAT      O 3141   2.692   3.375   4.704
  977WAT     H1 3142   2.783   3.407   4.703
  977WAT     H2 3143   2.639   3.455   4.708
  978WAT      O 3144   1.863   0.361   0.248
  978WAT     H1 3145   1.911   0.444   0.244
  978WAT     H2 3146   1.927   0.298   0.278
  979WAT      O 3147   1.408   4.999   3.647
  979WAT     H1 3148   1.487   5.038   3.609
  979WAT     H2 3149   1.336   5.053   3.615
  980WAT      O 3150   2.026   1.264   3.566
  980WAT     H1 3151   2.074   1.188   3.599
  980WAT     H2 3152   2.029   1.327   3.639
  981WAT      O 3153   3.686   5.132   2.407
  981WAT     H1 3154   3.677   5.223   2.436
  981WAT     H2 3155   3.780   5.115   2.413
  982WAT      O 3156   1.819   0.737   3.022
  982WAT     H1 3157   1.894   0.775   2.975
  982WAT     H2 3158   1.747   0.798   3.004
  983WAT      O 3159   1.918   2.215   4.915
  983WAT     H1 3160   1.983   2.215   4.985
  983WAT     H2 3161   1.838   2.182   4.957
  984WAT      O 3162   2.723   3.910   2.508
  984WAT     H1 3163   2.753   3.881   2.595
  984WAT     H2 3164   2.726   4.005   2.512
  985WAT      O 3165   2.473   2.814   0.920
  985WAT     H1 3166   2.440   2.879   0.858
  985WAT     H2 3167   2.547   2.858   0.963
  986WAT      O 3168   1.916   3.764   5.239
  986WAT     H1 3169   1.904   3.706   5.164
  986WAT     H2 3170   1.829   3.801   5.254
  987WAT      O 3171   3.560   4.733   2.274
  987WAT     H1 3172   3.525   4.817   2.246
  987WAT     H2 3173   3.637   4.719   2.219
  988WAT      O 3174   1.501   2.646   1.921
  988WAT     H1 3175   1.475   2.582   1.987
  988WAT     H2 3176   1.595   2.655   1.931
  989WAT      O 3177   0.760   4.955   2.420
  989WAT     H1 3178   0.771   4.960   2.325
  989WAT     H2 3179   0.666   4.970   2.433
  990WAT      O 3180   2.469   3.797   2.681
  990WAT     H1 3181   2.481   3.706   2.651
  990WAT     H2 3182   2.551   3.841   2.657
  991WAT      O 3183   2.265   2.172   0.431
  991WAT     H1 3184   2.206   2.213   0.495
  991WAT     H2 3185   2.233   2.082   0.423
  992WAT      O 3186   3.263   0.875   1.767
  992WAT     H1 3187   3.340   0.892   1.712
  992WAT     H2 3188   3.284   0.796   1.816
  993WAT      O 3189   1.046   0.558   2.726
  993WAT     H1 3190   1.085   0.579   2.642
  993WAT     H2 3191   1.119   0.525   2.779
  994WAT      O 3192   3.323   3.883   2.511
  994WAT     H1 3193   3.343   3.850   2.599
  994WAT     H2 3194   3.367   3.968   2.508
  995WAT      O 3195   4.015   1.606   2.584
  995WAT     H1 3196   4.041   1.619   2.493
  995WAT     H2 3197   3.974   1.519   2.585
  996WAT      O 3198   1.319   3.544   0.293
  996WAT     H1 3199   1.362   3.464   0.264
  996WAT     H2 3200   1.335   3.607   0.222
  997WAT      O 3201   3.092   4.921   1.962
  997WAT     H1 3202   3.161   4.881   1.910
  997WAT     H2 3203   3.122   5.011   1.978
  998WAT      O 3204   1.930   1.139   3.864
  998WAT     H1 3205   1.861   1.085   3.901
  998WAT     H2 3206   1.890   1.227   3.855
  999WAT      O 3207   4.328   1.754   0.964
  999WAT     H1 3208   4.373   1.681   1.005
  999WAT     H2 3209   4.394   1.823   0.960
 1000WAT      O 3210   3.473   0.242   1.447
 1000WAT     H1 3211   3.509   0.165   1.405
 1000WAT     H2 3212   3.546   0.280   1.495
 1001WAT      O 3213   2.830   0.369   4.808
 1001WAT     H1 3214   2.786   0.418   4.878
 1001WAT     H2 3215   2.769   0.372   4.734
 1002WAT      O 3216   4.451   2.754   1.040
 1002WAT     H1 3217   4.476   2.748   0.948
 1002WAT     H2 3218   4.476   2.669   1.077
 1003WAT      O 3219   0.885   3.634   1.341
 1003WAT     H1 3220   0.876   3.559   1.282
 1003WAT     H2 3221   0.814   3.693   1.315
 1004WAT      O 3222   2.198   0.196   1.878
 1004WAT     H1 3223   2.124   0.208   1.818
 1004WAT     H2 3224   2.213   0.101   1.878
 1005WAT      O 3225   0.832   1.585   4.083
 1005WAT     H1 3226   0.878   1.665   4.060
 1005WAT     H2 3227   0.787   1.606   4.165
 1006WAT      O 3228   1.228   2.739   3.101
 1006WAT     H1 3229   1.317   2.733   3.134
 1006WAT     H2 3230   1.221   2.665   3.040
 1007WAT      O 3231   1.984   0.964   2.415
 1007WAT     H1 3232   2.041   0.984   2.489
 1007WAT     H2 3233   1.999   0.871   2.397
 1008WAT      O 3234   3.476   3.030   1.420
 1008WAT     H1 3235   3.451   3.102   1.362
 1008WAT     H2 3236   3.572   3.033   1.422
 1009WAT      O 3237   3.852   1.811   1.973
 1009WAT     H1 3238   3.870   1.891   1.924
 1009WAT     H2 3239   3.870   1.833   2.064
 1010WAT      O 3240   2.290   3.790   4.112
 1010WAT     H1 3241   2.380   3.768   4.086
 1010WAT     H2 3242   2.257   3.711   4.154
 1011WAT      O 3243   3.465   2.433   2.383
 1011WAT     H1 3244   3.399   2.440   2.452
 1011WAT     H2 3245   3.501   2.521   2.375
 1012WAT      O 3246   1.779   1.691   1.414
 1012WAT     H1 3247   1.770   1.660   1.504
 1012WAT     H2 3248   1.871   1.672   1.392
 1013WAT      O 3249   2.557   0.938   2.342
 1013WAT     H1 3250   2.651   0.922   2.343
 1013WAT     H2 3251   2.542   0.990   2.262
 1014WAT      O 3252   0.070   4.007   4.999
 1014WAT     H1 3253   0.084   4.094   4.961
 1014WAT     H2 3254  -0.025   3.999   5.006
 1015WAT      O 3255   2.223   3.517   0.931
 1015WAT     H1 3256   2.229   3.426   0.903
 1015WAT     H2 3257   2.224   3.568   0.850
 1016WAT      O 3258   3.755   2.381   0.272
 1016WAT     H1 3259   3.662   2.362   0.259
 1016WAT     H2 3260   3.798   2.345   0.195
 1017WAT      O 3261   4.360   0.275   0.156
 1017WAT     H1 3262   4.400   0.349   0.200
 1017WAT     H2 3263   4.309   0.231   0.225
 1018WAT      O 3264   0.635   4.635   4.089
 1018WAT     H1 3265   0.683   4.560   4.053
 1018WAT     H2 3266   0.700   4.681   4.142
 1019WAT      O 3267   0.768   1.763   3.279
 1019WAT     H1 3268   0.673   1.759   3.270
 1019WAT     H2 3269   0.793   1.674   3.306
 1020WAT      O 3270   4.210   3.788   2.042
 1020WAT     H1 3271   4.251   3.822   1.962
 1020WAT     H2 3272   4.282   3.747   2.089
 1021WAT      O 3273   2.530   1.782   1.168
 1021WAT     H1 3274   2.481   1.708   1.133
 1021WAT     H2 3275   2.564   1.826   1.090
 1022WAT      O 3276   0.801   2.749   0.332
 1022WAT     H1 3277   0.886   2.705   0.339
 1022WAT     H2 3278   0.772   2.759   0.423
 1023WAT      O 3279   2.774   0.084   1.830
 1023WAT     H1 3280   2.689   0.096   1.872
 1023WAT     H2 3281   2.777  -0.010   1.810
 1024WAT      O 3282   1.074   3.671   2.154
 1024WAT     H1 3283   1.013   3.636   2.089
 1024WAT     H2 3284   1.049   3.763   2.164
 1025WAT      O 3285   2.133   1.279   1.050
 1025WAT     H1 3286   2.173   1.228   1.121
 1025WAT     H2 3287   2.155   1.230   0.971
 1026WAT      O 3288   3.595   3.133   4.450
 1026WAT     H1 3289   3.555   3.062   4.500
 1026WAT     H2 3290   3.587   3.107   4.359
 1027WAT      O 3291   2.519   3.629   4.726
 1027WAT     H1 3292   2.484   3.543   4.700
 1027WAT     H2 3293   2.443   3.675   4.761
 1028WAT      O 3294   3.666   4.210   0.539
 1028WAT     H1 3295   3.723   4.257   0.478
 1028WAT     H2 3296   3.578   4.226   0.506
 1029WAT      O 3297   3.805   3.270   3.369
 1029WAT     H1 3298   3.860   3.222   3.431
 1029WAT     H2 3299   3.854   3.350   3.351
 1030WAT      O 3300   0.103   3.016   2.530
 1030WAT     H1 3301   0.180   2.980   2.487
 1030WAT     H2 3302   0.039   2.945   2.529
 1031WAT      O 3303   3.729   3.031   4.157
 1031WAT     H1 3304   3.733   2.952   4.104
 1031WAT     H2 3305   3.655   3.081   4.122
 1032WAT      O 3306   2.660   3.289   4.018
 1032WAT     H1 3307   2.694   3.313   4.104
 1032WAT     H2 3308   2.589   3.228   4.037
 1033WAT      O 3309   2.127   0.523   0.304
 1033WAT     H1 3310   2.161   0.546   0.390
 1033WAT     H2 3311   2.180   0.448   0.277
 1034WAT      O 3312   2.552   0.912   0.476
 1034WAT     H1 3313   2.536   1.007   0.474
 1034WAT     H2 3314   2.577   0.889   0.387
 1035WAT      O 3315   2.795   0.349   3.053
 1035WAT     H1 3316   2.812   0.260   3.087
 1035WAT     H2 3317   2.788   0.403   3.131
 1036WAT      O 3318   1.974   0.685   3.385
 1036WAT     H1 3319   2.050   0.627   3.378
 1036WAT     H2 3320   1.926   0.652   3.460
 1037WAT      O 3321   0.222   0.892   5.296
 1037WAT     H1 3322   0.241   0.868   5.386
 1037WAT     H2 3323   0.292   0.849   5.245
 1038WAT      O 3324   2.672   3.012   3.523
 1038WAT     H1 3325   2.593   3.061   3.502
 1038WAT     H2 3326   2.730   3.027   3.448
 1039WAT      O 3327   2.875   2.009   0.909
 1039WAT     H1 3328   2.838   2.085   0.954
 1039WAT     H2 3329   2.821   1.935   0.936
 1040WAT      O 3330   0.419   2.595   5.030
 1040WAT     H1 3331   0.401   2.553   5.114
 1040WAT     H2 3332   0.442   2.523   4.972
 1041WAT      O 3333   1.092   1.024   1.430
 1041WAT     H1 3334   1.162   1.079   1.394
 1041WAT     H2 3335   1.126   0.935   1.428
 1042WAT      O 3336   3.783   0.487   1.880
 1042WAT     H1 3337   3.856   0.507   1.938
 1042WAT     H2 3338   3.718   0.555   1.899
 1043WAT      O 3339   0.987   4.477   4.172
 1043WAT     H1 3340   0.910   4.478   4.115
 1043WAT     H2 3341   1.021   4.388   4.165
 1044WAT      O 3342   1.539   0.775   5.077
 1044WAT     H1 3343   1.610   0.729   5.121
 1044WAT     H2 3344   1.541   0.744   4.987
 1045WAT      O 3345   4.515   4.436   3.197
 1045WAT     H1 3346   4.491   4.526   3.173
 1045WAT     H2 3347   4.604   4.442   3.231
 1046WAT      O 3348   1.390   0.602   4.072
 1046WAT     H1 3349   1.411   0.617   4.164
 1046WAT     H2 3350   1.412   0.512   4.056
 1047WAT      O 3351   1.489   1.213   2.522
 1047WAT     H1 3352   1.577   1.244   2.546
 1047WAT     H2 3353   1.481   1.128   2.566
 1048WAT      O 3354   2.759   2.542   4.947
 1048WAT     H1 3355   2.674   2.499   4.940
 1048WAT     H2 3356   2.752   2.596   5.025
 1049WAT      O 3357   3.158   2.007   3.966
 1049WAT     H1 3358   3.210   2.003   3.886
 1049WAT     H2 3359   3.120   2.096   3.965
 1050WAT      O 3360   1.073   4.326   5.069
 1050WAT     H1 3361   1.168   4.325   5.082
 1050WAT     H2 3362   1.044   4.239   5.097
 1051WAT      O 3363   1.913   1.728   2.642
 1051WAT     H1 3364   1.826   1.693   2.626
 1051WAT     H2 3365   1.945   1.678   2.717
 1052WAT      O 3366   0.135   4.921   0.434
 1052WAT     H1 3367   0.188   4.861   0.487
 1052WAT     H2 3368   0.153   4.896   0.344
 1053WAT      O 3369   4.208   0.847   0.166
 1053WAT     H1 3370   4.266   0.826   0.239
 1053WAT     H2 3371   4.261   0.901   0.107
 1054WAT      O 3372   2.475   1.257   3.420
 1054WAT     H1 3373   2.546   1.197   3.396
 1054WAT     H2 3374   2.412   1.251   3.348
 1055WAT      O 3375   3.559   2.323   1.890
 1055WAT     H1 3376   3.514   2.356   1.968
 1055WAT     H2 3377   3.651   2.324   1.913
 1056WAT      O 3378   2.695   4.766   1.970
 1056WAT     H1 3379   2.599   4.764   1.960
 1056WAT     H2 3380   2.711   4.726   2.056
 1057WAT      O 3381   3.706   1.702   0.581
 1057WAT     H1 3382   3.730   1.693   0.489
 1057WAT     H2 3383   3.631   1.760   0.581
 1058WAT      O 3384   2.150   2.570   5.022
 1058WAT     H1 3385   2.128   2.655   5.058
 1058WAT     H2 3386   2.179   2.518   5.097
 1059WAT      O 3387   2.265   1.496   1.431
 1059WAT     H1 3388   2.281   1.488   1.525
 1059WAT     H2 3389   2.335   1.444   1.390
 1060WAT      O 3390   2.394   0.203   3.231
 1060WAT     H1 3391   2.323   0.208   3.296
 1060WAT     H2 3392   2.450   0.278   3.252
 1061WAT      O 3393   3.155   4.340   0.754
 1061WAT     H1 3394   3.110   4.390   0.822
 1061WAT     H2 3395   3.116   4.370   0.672
 1062WAT      O 3396   2.956   2.435   4.295
 1062WAT     H1 3397   2.973   2.474   4.209
 1062WAT     H2 3398   2.862   2.449   4.309
 1063WAT      O 3399   0.879   3.535   0.388
 1063WAT     H1 3400   0.888   3.463   0.325
 1063WAT     H2 3401   0.962   3.537   0.435
 1064WAT      O 3402   3.412   3.427   3.769
 1064WAT     H1 3403   3.346   3.361   3.746
 1064WAT     H2 3404   3.459   3.443   3.688
 1065WAT      O 3405   3.631   4.003   5.198
 1065WAT     H1 3406   3.680   3.925   5.226
 1065WAT     H2 3407   3.619   4.054   5.278
 1066WAT      O 3408   0.355   3.126   1.813
 1066WAT     H1 3409   0.335   3.155   1.902
 1066WAT     H2 3410   0.444   3.155   1.797
 1067WAT      O 3411   0.321   1.295   4.710
 1067WAT     H1 3412   0.395   1.343   4.745
 1067WAT     H2 3413   0.245   1.352   4.724
 1068WAT      O 3414   3.559   2.903   1.717
 1068WAT     H1 3415   3.480   2.895   1.769
 1068WAT     H2 3416   3.546   2.982   1.664
 1069WAT      O 3417   1.735   3.267   1.844
 1069WAT     H1 3418   1.689   3.303   1.769
 1069WAT     H2 3419   1.673   3.206   1.884
 1070WAT      O 3420   2.809   2.801   0.190
 1070WAT     H1 3421   2.782   2.886   0.225
 1070WAT     H2 3422   2.777   2.737   0.253
 1071WAT      O 3423   1.438   4.844   4.974
 1071WAT     H1 3424   1.376   4.854   4.902
 1071WAT     H2 3425   1.477   4.758   4.961
 1072WAT      O 3426   2.227   3.497   2.773
 1072WAT     H1 3427   2.158   3.559   2.797
 1072WAT     H2 3428   2.205   3.417   2.822
 1073WAT      O 3429   1.530   4.802   2.201
 1073WAT     H1 3430   1.559   4.873   2.258
 1073WAT     H2 3431   1.611   4.760   2.173
 1074WAT      O 3432   0.836   2.103   0.528
 1074WAT     H1 3433   0.795   2.190   0.527
 1074WAT     H2 3434   0.766   2.043   0.501
 1075WAT      O 3435   2.375   2.948   4.223
 1075WAT     H1 3436   2.382   2.856   4.196
 1075WAT     H2 3437   2.310   2.948   4.293
 1076WAT      O 3438   4.482   3.635   4.438
 1076WAT     H1 3439   4.424   3.684   4.496
 1076WAT     H2 3440   4.497   3.694   4.364
 1077WAT      O 3441   0.534   4.719   2.917
 1077WAT     H1 3442   0.622   4.690   2.940
 1077WAT     H2 3443   0.539   4.739   2.824
 1078WAT      O 3444   3.990   3.991   5.166
 1078WAT     H1 3445   3.974   4.054   5.236
 1078WAT     H2 3446   4.085   3.991   5.155
 1079WAT      O 3447   1.916   0.309   4.354
 1079WAT     H1 3448   1.988   0.344   4.407
 1079WAT     H2 3449   1.838   0.323   4.407
 1080WAT      O 3450   2.224   0.954   3.474
 1080WAT     H1 3451   2.313   0.918   3.476
 1080WAT     H2 3452   2.206   0.978   3.564
 1081WAT      O 3453   3.690   2.647   2.403
 1081WAT     H1 3454   3.646   2.731   2.416
 1081WAT     H2 3455   3.732   2.628   2.487
 1082WAT      O 3456   0.965   4.416   0.513
 1082WAT     H1 3457   0.972   4.508   0.491
 1082WAT     H2 3458   0.914   4.414   0.593
 1083WAT      O 3459   2.507   3.992   1.878
 1083WAT     H1 3460   2.586   4.011   1.828
 1083WAT     H2 3461   2.476   3.908   1.845
 1084WAT      O 3462   2.582   0.178   0.253
 1084WAT     H1 3463   2.557   0.086   0.269
 1084WAT     H2 3464   2.537   0.226   0.322
 1085WAT      O 3465   0.551   2.789   3.813
 1085WAT     H1 3466   0.488   2.824   3.750
 1085WAT     H2 3467   0.631   2.777   3.762
 1086WAT      O 3468   3.955   2.948   1.658
 1086WAT     H1 3469   4.040   2.931   1.618
 1086WAT     H2 3470   3.917   2.860   1.672
 1087WAT      O 3471   1.946   0.907   1.055
 1087WAT     H1 3472   1.974   0.816   1.049
 1087WAT     H2 3473   1.977   0.948   0.975
 1088WAT      O 3474   0.425   3.955   1.281
 1088WAT     H1 3475   0.481   4.007   1.223
 1088WAT     H2 3476   0.341   4.001   1.279
 1089WAT      O 3477   1.984   2.190   1.188
 1089WAT     H1 3478   1.890   2.199   1.205
 1089WAT     H2 3479   2.024   2.262   1.236
 1090WAT      O 3480   3.961   2.925   3.564
 1090WAT     H1 3481   4.039   2.872   3.551
 1090WAT     H2 3482   3.894   2.883   3.510
 1091WAT      O 3483   3.866   2.938   1.119
 1091WAT     H1 3484   3.834   3.007   1.060
 1091WAT     H2 3485   3.824   2.858   1.087
 1092WAT      O 3486   2.869   2.121   1.557
 1092WAT     H1 3487   2.914   2.044   1.592
 1092WAT     H2 3488   2.799   2.085   1.502
 1093WAT      O 3489   2.350   4.483   4.877
 1093WAT     H1 3490   2.329   4.456   4.967
 1093WAT     H2 3491   2.312   4.571   4.869
 1094WAT      O 3492   1.139   1.740   3.015
 1094WAT     H1 3493   1.168   1.684   2.943
 1094WAT     H2 3494   1.043   1.737   3.010
 1095WAT      O 3495   3.448   1.839   3.551
 1095WAT     H1 3496   3.484   1.775   3.612
 1095WAT     H2 3497   3.394   1.787   3.491
 1096WAT      O 3498   1.107   3.975   1.282
 1096WAT     H1 3499   1.052   3.977   1.204
 1096WAT     H2 3500   1.131   3.883   1.293
 1097WAT      O 3501   1.708   2.526   2.514
 1097WAT     H1 3502   1.767   2.555   2.583
 1097WAT     H2 3503   1.621   2.533   2.553
 1098WAT      O 3504   3.391   4.386   3.635
 1098WAT     H1 3505   3.414   4.463   3.688
 1098WAT     H2 3506   3.402   4.312   3.695
 1099WAT      O 3507   1.641   0.635   4.856
 1099WAT     H1 3508   1.562   0.594   4.819
 1099WAT     H2 3509   1.682   0.566   4.908
 1100WAT      O 3510   3.093   4.297   3.316
 1100WAT     H1 3511   3.071   4.348   3.238
 1100WAT     H2 3512   3.038   4.219   3.311
 1101WAT      O 3513   2.896   2.330   3.744
 1101WAT     H1 3514   2.815   2.363   3.782
 1101WAT     H2 3515   2.893   2.235   3.759
 1102WAT      O 3516   1.203   2.699   3.975
 1102WAT     H1 3517   1.223   2.662   4.061
 1102WAT     H2 3518   1.154   2.779   3.995
 1103WAT      O 3519   3.148   3.659   1.732
 1103WAT     H1 3520   3.129   3.646   1.639
 1103WAT     H2 3521   3.122   3.577   1.774
 1104WAT      O 3522   4.136   3.378   4.244
 1104WAT     H1 3523   4.197   3.311   4.214
 1104WAT     H2 3524   4.057   3.364   4.191
 1105WAT      O 3525   0.667   3.723   0.403
 1105WAT     H1 3526   0.662   3.744   0.310
 1105WAT     H2 3527   0.744   3.668   0.411
 1106WAT      O 3528   4.505   1.172   0.745
 1106WAT     H1 3529   4.562   1.217   0.681
 1106WAT     H2 3530   4.509   1.228   0.823
 1107WAT      O 3531   3.823   3.513   2.852
 1107WAT     H1 3532   3.812   3.419   2.867
 1107WAT     H2 3533   3.918   3.526   2.852
 1108WAT      O 3534   2.936   0.783   3.095
 1108WAT     H1 3535   2.928   0.708   3.038
 1108WAT     H2 3536   2.913   0.858   3.038
 1109WAT      O 3537   2.609   0.625   3.049
 1109WAT     H1 3538   2.534   0.584   3.006
 1109WAT     H2 3539   2.685   0.589   3.005
 1110WAT      O 3540   2.142   3.821   2.709
 1110WAT     H1 3541   2.066   3.763   2.710
 1110WAT     H2 3542   2.183   3.806   2.624
 1111WAT      O 3543   0.403   0.188   2.104
 1111WAT     H1 3544   0.470   0.129   2.068
 1111WAT     H2 3545   0.445   0.234   2.176
 1112WAT      O 3546   0.299   3.620   3.001
 1112WAT     H1 3547   0.326   3.557   3.068
 1112WAT     H2 3548   0.296   3.570   2.920
 1113WAT      O 3549   2.357   4.893   2.102
 1113WAT     H1 3550   2.437   4.878   2.152
 1113WAT     H2 3551   2.297   4.936   2.164
 1114WAT      O 3552   0.640   2.992   2.609
 1114WAT     H1 3553   0.607   3.030   2.528
 1114WAT     H2 3554   0.561   2.968   2.658
 1115WAT      O 3555   3.300   3.105   3.440
 1115WAT     H1 3556   3.336   3.119   3.352
 1115WAT     H2 3557   3.276   3.012   3.441
 1116WAT      O 3558   2.803   1.401   1.397
 1116WAT     H1 3559   2.772   1.408   1.307
 1116WAT     H2 3560   2.887   1.355   1.390
 1117WAT      O 3561   2.179   2.578   0.429
 1117WAT     H1 3562   2.252   2.520   0.453
 1117WAT     H2 3563   2.103   2.519   0.423
 1118WAT      O 3564   2.547   4.211   0.606
 1118WAT     H1 3565   2.641   4.212   0.623
 1118WAT     H2 3566   2.537   4.151   0.532
 1119WAT      O 3567   2.010   1.577   3.985
 1119WAT     H1 3568   2.040   1.594   4.075
 1119WAT     H2 3569   1.998   1.664   3.947
 1120WAT      O 3570   0.701   1.577   0.480
 1120WAT     H1 3571   0.742   1.510   0.534
 1120WAT     H2 3572   0.608   1.572   0.501
 1121WAT      O 3573   0.784   1.599   4.651
 1121WAT     H1 3574   0.844   1.526   4.635
 1121WAT     H2 3575   0.698   1.558   4.660
 1122WAT      O 3576   1.309   2.139   4.605
 1122WAT     H1 3577   1.220   2.113   4.582
 1122WAT     H2 3578   1.309   2.234   4.598
 1123WAT      O 3579   0.112   3.748   2.375
 1123WAT     H1 3580   0.078   3.659   2.365
 1123WAT     H2 3581   0.098   3.769   2.468
 1124WAT      O 3582   3.690   2.711   0.553
 1124WAT     H1 3583   3.731   2.628   0.529
 1124WAT     H2 3584   3.762   2.775   0.552
 1125WAT      O 3585   0.217   0.724   2.363
 1125WAT     H1 3586   0.280   0.709   2.434
 1125WAT     H2 3587   0.215   0.640   2.315
 1126WAT      O 3588   4.303   3.018   1.377
 1126WAT     H1 3589   4.377   3.023   1.317
 1126WAT     H2 3590   4.228   2.998   1.321
 1127WAT      O 3591   4.513   2.186   2.301
 1127WAT     H1 3592   4.598   2.144   2.290
 1127WAT     H2 3593   4.532   2.280   2.303
 1128WAT      O 3594   1.120   2.865   3.315
 1128WAT     H1 3595   1.199   2.901   3.356
 1128WAT     H2 3596   1.150   2.827   3.233
 1129WAT      O 3597   0.593   0.244   0.758
 1129WAT     H1 3598   0.594   0.336   0.780
 1129WAT     H2 3599   0.588   0.241   0.662
 1130WAT      O 3600   4.010   1.335   2.210
 1130WAT     H1 3601   4.045   1.300   2.128
 1130WAT     H2 3602   4.076   1.398   2.239
 1131WAT      O 3603   1.439   3.533   2.407
 1131WAT     H1 3604   1.424   3.585   2.328
 1131WAT     H2 3605   1.494   3.460   2.377
 1132WAT      O 3606   1.017   3.952   2.179
 1132WAT     H1 3607   0.925   3.926   2.169
 1132WAT     H2 3608   1.016   4.011   2.254
 1133WAT      O 3609   0.024   2.379   2.952
 1133WAT     H1 3610   0.040   2.288   2.977
 1133WAT     H2 3611  -0.037   2.411   3.018
 1134WAT      O 3612   3.243   1.267   2.979
 1134WAT     H1 3613   3.292   1.195   3.016
 1134WAT     H2 3614   3.276   1.345   3.025
 1135WAT      O 3615   2.375   3.387   4.644
 1135WAT     H1 3616   2.389   3.378   4.550
 1135WAT     H2 3617   2.286   3.422   4.652
 1136WAT      O 3618   3.143   3.168   3.828
 1136WAT     H1 3619   3.212   3.201   3.770
 1136WAT     H2 3620   3.120   3.082   3.791
 1137WAT      O 3621   1.784   3.907   3.760
 1137WAT     H1 3622   1.709   3.952   3.722
 1137WAT     H2 3623   1.786   3.936   3.852
 1138WAT      O 3624   2.380   4.807   1.355
 1138WAT     H1 3625   2.294   4.766   1.350
 1138WAT     H2 3626   2.440   4.734   1.368
 1139WAT      O 3627   1.591   0.905   1.797
 1139WAT     H1 3628   1.512   0.861   1.764
 1139WAT     H2 3629   1.643   0.834   1.836
 1140WAT      O 3630   2.561   1.734   4.787
 1140WAT     H1 3631   2.623   1.680   4.739
 1140WAT     H2 3632   2.600   1.743   4.874
 1141WAT      O 3633   2.898   1.125   2.713
 1141WAT     H1 3634   2.934   1.202   2.669
 1141WAT     H2 3635   2.805   1.125   2.689
 1142WAT      O 3636   2.102   2.332   3.851
 1142WAT     H1 3637   2.054   2.415   3.853
 1142WAT     H2 3638   2.042   2.269   3.890
 1143WAT      O 3639   3.048   4.843   4.797
 1143WAT     H1 3640   3.037   4.773   4.732
 1143WAT     H2 3641   2.960   4.878   4.809
 1144WAT      O 3642   0.236   4.448   3.500
 1144WAT     H1 3643   0.282   4.366   3.485
 1144WAT     H2 3644   0.145   4.423   3.510
 1145WAT      O 3645   2.426   0.489   4.647
 1145WAT     H1 3646   2.368   0.420   4.678
 1145WAT     H2 3647   2.373   0.568   4.649
 1146WAT      O 3648   4.005   4.186   0.058
 1146WAT     H1 3649   3.975   4.133   0.132
 1146WAT     H2 3650   4.094   4.212   0.081
 1147WAT      O 3651   0.793   2.404   0.740
 1147WAT     H1 3652   0.736   2.362   0.676
 1147WAT     H2 3653   0.733   2.443   0.804
 1148WAT      O 3654   0.704   3.689   1.905
 1148WAT     H1 3655   0.786   3.647   1.880
 1148WAT     H2 3656   0.637   3.644   1.855
 1149WAT      O 3657   3.339   1.828   2.402
 1149WAT     H1 3658   3.283   1.886   2.453
 1149WAT     H2 3659   3.399   1.790   2.465
 1150WAT      O 3660   3.416   4.076   0.724
 1150WAT     H1 3661   3.465   4.158   0.712
 1150WAT     H2 3662   3.460   4.013   0.668
 1151WAT      O 3663   2.137   1.013   1.210
 1151WAT     H1 3664   2.105   1.072   1.279
 1151WAT     H2 3665   2.057   0.978   1.169
 1152WAT      O 3666   1.266   2.446   0.189
 1152WAT     H1 3667   1.172   2.429   0.186
 1152WAT     H2 3668   1.278   2.523   0.134
 1153WAT      O 3669   0.805   0.040   0.630
 1153WAT     H1 3670   0.839   0.130   0.632
 1153WAT     H2 3671   0.776   0.024   0.720
 1154WAT      O 3672   4.245   3.739   1.701
 1154WAT     H1 3673   4.274   3.658   1.741
 1154WAT     H2 3674   4.321   3.797   1.707
 1155WAT      O 3675   1.161   3.070   2.958
 1155WAT     H1 3676   1.142   3.164   2.964
 1155WAT     H2 3677   1.078   3.031   2.932
 1156WAT      O 3678   3.712   2.007   1.102
 1156WAT     H1 3679   3.677   1.932   1.054
 1156WAT     H2 3680   3.767   1.969   1.170
 1157WAT      O 3681   2.785   3.900   4.526
 1157WAT     H1 3682   2.799   3.929   4.616
 1157WAT     H2 3683   2.865   3.853   4.503
 1158WAT      O 3684   3.566   4.329   0.796
 1158WAT     H1 3685   3.614   4.293   0.722
 1158WAT     H2 3686   3.509   4.396   0.758
 1159WAT      O 3687   2.077   1.392   1.835
 1159WAT     H1 3688   1.986   1.382   1.863
 1159WAT     H2 3689   2.089   1.487   1.827
 1160WAT      O 3690   0.000   2.312   0.046
 1160WAT     H1 3691   0.000   2.216   0.043
 1160WAT     H2 3692   0.076   2.334   0.100
 1161WAT      O 3693   2.763   0.747   1.450
 1161WAT     H1 3694   2.735   0.716   1.536
 1161WAT     H2 3695   2.854   0.718   1.442
 1162WAT      O 3696   1.261   4.251   2.840
 1162WAT     H1 3697   1.220   4.214   2.918
 1162WAT     H2 3698   1.330   4.189   2.817
 1163WAT      O 3699   2.378   2.350   4.666
 1163WAT     H1 3700   2.349   2.264   4.635
 1163WAT     H2 3701   2.312   2.411   4.634
 1164WAT      O 3702   4.142   4.616   2.069
 1164WAT     H1 3703   4.225   4.642   2.110
 1164WAT     H2 3704   4.076   4.671   2.111
 1165WAT      O 3705   2.462   3.572   5.028
 1165WAT     H1 3706   2.489   3.565   5.120
 1165WAT     H2 3707   2.510   3.648   4.995
 1166WAT      O 3708   0.684   1.331   1.878
 1166WAT     H1 3709   0.596   1.295   1.891
 1166WAT     H2 3710   0.670   1.409   1.823
 1167WAT      O 3711   1.770   5.129   4.572
 1167WAT     H1 3712   1.813   5.116   4.657
 1167WAT     H2 3713   1.688   5.080   4.580
 1168WAT      O 3714   3.168   1.567   2.762
 1168WAT     H1 3715   3.121   1.497   2.716
 1168WAT     H2 3716   3.259   1.537   2.764
 1169WAT      O 3717   3.600   1.900   4.020
 1169WAT     H1 3718   3.577   1.991   4.041
 1169WAT     H2 3719   3.518   1.859   3.993
 1170WAT      O 3720   0.287   4.402   3.151
 1170WAT     H1 3721   0.299   4.465   3.080
 1170WAT     H2 3722   0.244   4.327   3.109
 1171WAT      O 3723   1.095   0.374   3.163
 1171WAT     H1 3724   1.035   0.347   3.232
 1171WAT     H2 3725   1.039   0.418   3.099
 1172WAT      O 3726   1.654   0.155   0.106
 1172WAT     H1 3727   1.670   0.225   0.044
 1172WAT     H2 3728   1.729   0.095   0.093
 1173WAT      O 3729   1.446   2.537   2.601
 1173WAT     H1 3730   1.385   2.610   2.602
 1173WAT     H2 3731   1.406   2.471   2.658
 1174WAT      O 3732   0.698   2.003   2.639
 1174WAT     H1 3733   0.736   1.922   2.604
 1174WAT     H2 3734   0.624   2.021   2.582
 1175WAT      O 3735   1.306   3.136   2.416
 1175WAT     H1 3736   1.392   3.165   2.446
 1175WAT     H2 3737   1.265   3.215   2.381
 1176WAT      O 3738   3.788   2.439   3.799
 1176WAT     H1 3739   3.777   2.479   3.713
 1176WAT     H2 3740   3.774   2.345   3.784
 1177WAT      O 3741   4.503   1.780   4.912
 1177WAT     H1 3742   4.424   1.825   4.944
 1177WAT     H2 3743   4.575   1.831   4.952
 1178WAT      O 3744   3.261   1.853   0.964
 1178WAT     H1 3745   3.258   1.785   1.031
 1178WAT     H2 3746   3.314   1.923   1.003
 1179WAT      O 3747   0.090   0.795   0.444
 1179WAT     H1 3748   0.017   0.806   0.382
 1179WAT     H2 3749   0.072   0.711   0.485
 1180WAT      O 3750   2.428   0.425   0.740
 1180WAT     H1 3751   2.501   0.487   0.753
 1180WAT     H2 3752   2.443   0.356   0.804
 1181WAT      O 3753   3.022   4.767   2.446
 1181WAT     H1 3754   2.989   4.826   2.378
 1181WAT     H2 3755   3.116   4.783   2.449
 1182WAT      O 3756   3.919   0.882   1.504
 1182WAT     H1 3757   4.013   0.899   1.492
 1182WAT     H2 3758   3.916   0.820   1.577
 1183WAT      O 3759   0.783   3.062   4.844
 1183WAT     H1 3760   0.688   3.057   4.839
 1183WAT     H2 3761   0.802   3.156   4.855
 1184WAT      O 3762   3.226   1.678   3.682
 1184WAT     H1 3763   3.167   1.628   3.625
 1184WAT     H2 3764   3.173   1.750   3.714
 1185WAT      O 3765   1.298   4.030   0.164
 1185WAT     H1 3766   1.259   4.054   0.248
 1185WAT     H2 3767   1.390   4.055   0.172
 1186WAT      O 3768   0.485   4.370   2.509
 1186WAT     H1 3769   0.578   4.394   2.518
 1186WAT     H2 3770   0.460   4.340   2.596
 1187WAT      O 3771   1.925   3.125   2.759
 1187WAT     H1 3772   1.842   3.153   2.798
 1187WAT     H2 3773   1.901   3.100   2.669
 1188WAT      O 3774   2.346   3.822   4.841
 1188WAT     H1 3775   2.316   3.860   4.924
 1188WAT     H2 3776   2.294   3.866   4.774
 1189WAT      O 3777   3.768   4.720   3.799
 1189WAT     H1 3778   3.746   4.811   3.778
 1189WAT     H2 3779   3.754   4.712   3.893
 1190WAT      O 3780   4.337   0.069   2.912
 1190WAT     H1 3781   4.353   0.072   2.818
 1190WAT     H2 3782   4.420   0.042   2.950
 1191WAT      O 3783   1.371   1.566   1.921
 1191WAT     H1 3784   1.363   1.553   2.016
 1191WAT     H2 3785   1.283   1.555   1.887
 1192WAT      O 3786   3.525   2.214   2.522
 1192WAT     H1 3787   3.520   2.297   2.475
 1192WAT     H2 3788   3.505   2.148   2.456
 1193WAT      O 3789   0.418   4.208   4.378
 1193WAT     H1 3790   0.467   4.148   4.321
 1193WAT     H2 3791   0.467   4.208   4.460
 1194WAT      O 3792   3.217   2.599   4.301
 1194WAT     H1 3793   3.206   2.680   4.351
 1194WAT     H2 3794   3.127   2.574   4.278
 1195WAT      O 3795   4.520   1.047   1.541
 1195WAT     H1 3796   4.518   1.103   1.618
 1195WAT     H2 3797   4.583   0.978   1.563
 1196WAT      O 3798   3.747   3.627   2.403
 1196WAT     H1 3799   3.814   3.666   2.346
 1196WAT     H2 3800   3.675   3.690   2.402
 1197WAT      O 3801   0.738   3.327   4.441
 1197WAT     H1 3802   0.813   3.355   4.492
 1197WAT     H2 3803   0.743   3.231   4.441
 1198WAT      O 3804   3.496   3.482   2.195
 1198WAT     H1 3805   3.588   3.458   2.206
 1198WAT     H2 3806   3.492   3.574   2.220
 1199WAT      O 3807   0.919   2.460   2.584
 1199WAT     H1 3808   0.952   2.441   2.496
 1199WAT     H2 3809   0.919   2.374   2.627
 1200WAT      O 3810   0.762   3.358   3.758
 1200WAT     H1 3811   0.681   3.309   3.742
 1200WAT     H2 3812   0.831   3.292   3.749
 1201WAT      O 3813   0.553   3.556   3.263
 1201WAT     H1 3814   0.520   3.643   3.284
 1201WAT     H2 3815   0.648   3.565   3.263
 1202WAT      O 3816   2.798   0.134   4.966
 1202WAT     H1 3817   2.704   0.152   4.976
 1202WAT     H2 3818   2.830   0.206   4.912
 1203WAT      O 3819   1.463   4.543   3.913
 1203WAT     H1 3820   1.380   4.496   3.920
 1203WAT     H2 3821   1.441   4.621   3.862
 1204WAT      O 3822   4.460   2.296   4.963
 1204WAT     H1 3823   4.552   2.281   4.984
 1204WAT     H2 3824   4.452   2.391   4.956
 1205WAT      O 3825   2.802   2.387   3.201
 1205WAT     H1 3826   2.714   2.368   3.168
 1205WAT     H2 3827   2.822   2.313   3.258
 1206WAT      O 3828   2.256   2.353   0.226
 1206WAT     H1 3829   2.322   2.415   0.255
 1206WAT     H2 3830   2.249   2.290   0.297
 1207WAT      O 3831   2.686   1.167   0.749
 1207WAT     H1 3832   2.636   1.093   0.783
 1207WAT     H2 3833   2.772   1.157   0.789
 1208WAT      O 3834   2.565   3.137   0.015
 1208WAT     H1 3835   2.565   3.044  -0.008
 1208WAT     H2 3836   2.534   3.181  -0.065
 1209WAT      O 3837   0.175   1.590   3.726
 1209WAT     H1 3838   0.181   1.590   3.630
 1209WAT     H2 3839   0.167   1.498   3.749
 1210WAT      O 3840   3.127   1.559   2.447
 1210WAT     H1 3841   3.091   1.628   2.503
 1210WAT     H2 3842   3.222   1.567   2.458
 1211WAT      O 3843   3.684   4.319   3.773
 1211WAT     H1 3844   3.759   4.275   3.813
 1211WAT     H2 3845   3.608   4.268   3.803
 1212WAT      O 3846   3.757   2.993   4.678
 1212WAT     H1 3847   3.747   3.015   4.586
 1212WAT     H2 3848   3.828   2.928   4.680
 1213WAT      O 3849   1.300   1.428   0.644
 1213WAT     H1 3850   1.268   1.450   0.556
 1213WAT     H2 3851   1.356   1.503   0.667
 1214WAT      O 3852   1.383   4.266   4.263
 1214WAT     H1 3853   1.373   4.344   4.316
 1214WAT     H2 3854   1.295   4.245   4.232
 1215WAT      O 3855   2.820   4.816   3.179
 1215WAT     H1 3856   2.830   4.722   3.161
 1215WAT     H2 3857   2.909   4.850   3.181
 1216WAT      O 3858   3.854   2.021   5.059
 1216WAT     H1 3859   3.785   1.983   5.004
 1216WAT     H2 3860   3.824   2.111   5.075
 1217WAT      O 3861   2.477   0.889   2.897
 1217WAT     H1 3862   2.503   0.889   2.805
 1217WAT     H2 3863   2.448   0.800   2.913
 1218WAT      O 3864   2.576   5.144   2.469
 1218WAT     H1 3865   2.498   5.144   2.524
 1218WAT     H2 3866   2.605   5.053   2.469
 1219WAT      O 3867   2.452   0.619   2.799
 1219WAT     H1 3868   2.540   0.607   2.764
 1219WAT     H2 3869   2.394   0.583   2.732
 1220WAT      O 3870   3.516   3.592   1.711
 1220WAT     H1 3871   3.447   3.642   1.666
 1220WAT     H2 3872   3.571   3.659   1.752
 1221WAT      O 3873   0.133   2.758   0.378
 1221WAT     H1 3874   0.196   2.691   0.353
 1221WAT     H2 3875   0.055   2.738   0.326
 1222WAT      O 3876   4.150   0.170   1.629
 1222WAT     H1 3877   4.083   0.209   1.573
 1222WAT     H2 3878   4.102   0.114   1.690
 1223WAT      O 3879   0.904   1.961   5.158
 1223WAT     H1 3880   0.902   2.025   5.230
 1223WAT     H2 3881   0.907   2.017   5.079
 1224WAT      O 3882   1.402   3.331   5.171
 1224WAT     H1 3883   1.441   3.257   5.124
 1224WAT     H2 3884   1.317   3.299   5.201
 1225WAT      O 3885   4.000   4.666   4.508
 1225WAT     H1 3886   3.994   4.572   4.525
 1225WAT     H2 3887   3.929   4.704   4.560
 1226WAT      O 3888   2.702   1.404   0.245
 1226WAT     H1 3889   2.689   1.346   0.321
 1226WAT     H2 3890   2.616   1.443   0.230
 1227WAT      O 3891   2.530   1.142   2.938
 1227WAT     H1 3892   2.480   1.062   2.932
 1227WAT     H2 3893   2.547   1.168   2.847
 1228WAT      O 3894   0.564   2.206   0.947
 1228WAT     H1 3895   0.506   2.230   1.019
 1228WAT     H2 3896   0.585   2.114   0.963
 1229WAT      O 3897   3.808   1.239   3.807
 1229WAT     H1 3898   3.783   1.263   3.718
 1229WAT     H2 3899   3.725   1.225   3.852
 1230WAT      O 3900   1.798   3.500   3.962
 1230WAT     H1 3901   1.879   3.522   3.914
 1230WAT     H2 3902   1.752   3.584   3.969
 1231WAT      O 3903   2.921   1.162   3.872
 1231WAT     H1 3904   2.985   1.102   3.908
 1231WAT     H2 3905   2.963   1.197   3.792
 1232WAT      O 3906   2.337   0.133   2.563
 1232WAT     H1 3907   2.333   0.198   2.493
 1232WAT     H2 3908   2.316   0.183   2.642
 1233WAT      O 3909   2.014   0.701   1.728
 1233WAT     H1 3910   1.977   0.614   1.741
 1233WAT     H2 3911   1.953   0.742   1.666
 1234WAT      O 3912   4.015   2.004   1.070
 1234WAT     H1 3913   4.054   2.071   1.125
 1234WAT     H2 3914   3.962   2.052   1.007
 1235WAT      O 3915   4.240   1.169   4.620
 1235WAT     H1 3916   4.216   1.083   4.585
 1235WAT     H2 3917   4.199   1.171   4.707
 1236WAT      O 3918   0.833   4.778   0.818
 1236WAT     H1 3919   0.831   4.819   0.732
 1236WAT     H2 3920   0.840   4.851   0.879
 1237WAT      O 3921   3.120   0.967   1.159
 1237WAT     H1 3922   3.165   0.889   1.192
 1237WAT     H2 3923   3.166   0.988   1.078
 1238WAT      O 3924   4.204   1.521   1.914
 1238WAT     H1 3925   4.110   1.534   1.908
 1238WAT     H2 3926   4.214   1.428   1.937
 1239WAT      O 3927   3.540   2.671   4.087
 1239WAT     H1 3928   3.601   2.744   4.072
 1239WAT     H2 3929   3.454   2.708   4.065
 1240WAT      O 3930   1.203   1.431   1.437
 1240WAT     H1 3931   1.275   1.468   1.488
 1240WAT     H2 3932   1.187   1.494   1.368
 1241WAT      O 3933   2.948   2.487   2.304
 1241WAT     H1 3934   2.929   2.426   2.232
 1241WAT     H2 3935   3.016   2.544   2.269
 1242WAT      O 3936   1.865   0.118   4.151
 1242WAT     H1 3937   1.912   0.167   4.218
 1242WAT     H2 3938   1.806   0.183   4.112
 1243WAT      O 3939   0.341   5.080   2.605
 1243WAT     H1 3940   0.299   4.994   2.597
 1243WAT     H2 3941   0.334   5.101   2.698
 1244WAT      O 3942   2.757   4.490   0.911
 1244WAT     H1 3943   2.852   4.484   0.904
 1244WAT     H2 3944   2.730   4.406   0.948
 1245WAT      O 3945   0.303   1.511   2.713
 1245WAT     H1 3946   0.239   1.494   2.643
 1245WAT     H2 3947   0.296   1.604   2.731
 1246WAT      O 3948   4.329   0.987   0.655
 1246WAT     H1 3949   4.384   1.065   0.654
 1246WAT     H2 3950   4.320   0.964   0.748
 1247WAT      O 3951   0.861   3.649   2.491
 1247WAT     H1 3952   0.804   3.701   2.434
 1247WAT     H2 3953   0.820   3.563   2.494
 1248WAT      O 3954   1.000   2.368   2.318
 1248WAT     H1 3955   1.077   2.317   2.342
 1248WAT     H2 3956   1.030   2.425   2.248
 1249WAT      O 3957   3.634   2.044   3.536
 1249WAT     H1 3958   3.699   2.017   3.601
 1249WAT     H2 3959   3.570   1.973   3.537
 1250WAT      O 3960   2.356   3.263   1.101
 1250WAT     H1 3961   2.422   3.194   1.111
 1250WAT     H2 3962   2.284   3.220   1.053
 1251WAT      O 3963   2.312   4.364   0.516
 1251WAT     H1 3964   2.399   4.325   0.511
 1251WAT     H2 3965   2.278   4.359   0.427
 1252WAT      O 3966   1.585   2.979   2.577
 1252WAT     H1 3967   1.570   2.908   2.514
 1252WAT     H2 3968   1.532   2.956   2.653
 1253WAT      O 3969   0.963   0.815   5.255
 1253WAT     H1 3970   0.987   0.907   5.270
 1253WAT     H2 3971   1.045   0.772   5.231
 1254WAT      O 3972   0.247   4.812   1.250
 1254WAT     H1 3973   0.245   4.717   1.237
 1254WAT     H2 3974   0.176   4.829   1.311
 1255WAT      O 3975   3.909   3.244   5.257
 1255WAT     H1 3976   3.981   3.279   5.204
 1255WAT     H2 3977   3.830   3.280   5.216
 1256WAT      O 3978   1.662   3.146   4.253
 1256WAT     H1 3979   1.595   3.087   4.220
 1256WAT     H2 3980   1.617   3.230   4.263
 1257WAT      O 3981   3.756   1.379   3.584
 1257WAT     H1 3982   3.729   1.339   3.501
 1257WAT     H2 3983   3.845   1.410   3.567
 1258WAT      O 3984   3.703   4.048   2.926
 1258WAT     H1 3985   3.791   4.056   2.963
 1258WAT     H2 3986   3.716   4.051   2.832
 1259WAT      O 3987   2.196   2.735   4.662
 1259WAT     H1 3988   2.177   2.650   4.621
 1259WAT     H2 3989   2.275   2.719   4.714
 1260WAT      O 3990   4.113   4.258   0.475
 1260WAT     H1 3991   4.161   4.189   0.520
 1260WAT     H2 3992   4.159   4.339   0.499
 1261WAT      O 3993   1.522   5.009   4.615
 1261WAT     H1 3994   1.520   5.005   4.711
 1261WAT     H2 3995   1.460   5.078   4.593
 1262WAT      O 3996   1.040   0.958   3.200
 1262WAT     H1 3997   1.118   0.932   3.249
 1262WAT     H2 3998   1.072   0.978   3.112
 1263WAT      O 3999   2.215   3.269   2.129
 1263WAT     H1 4000   2.295   3.317   2.149
 1263WAT     H2 4001   2.147   3.316   2.177
 1264WAT      O 4002   2.895   3.384   3.563
 1264WAT     H1 4003   2.989   3.400   3.575
 1264WAT     H2 4004   2.858   3.389   3.651
 1265WAT      O 4005   0.834   0.472   0.971
 1265WAT     H1 4006   0.809   0.527   0.896
 1265WAT     H2 4007   0.768   0.492   1.038
 1266WAT      O 4008   4.011   1.737   0.997
 1266WAT     H1 4009   4.087   1.741   0.939
 1266WAT     H2 4010   3.982   1.828   1.005
 1267WAT      O 4011   0.206   4.479   4.154
 1267WAT     H1 4012   0.236   4.477   4.063
 1267WAT     H2 4013   0.171   4.391   4.170
 1268WAT      O 4014   3.826   4.727   1.014
 1268WAT     H1 4015   3.879   4.660   0.970
 1268WAT     H2 4016   3.738   4.690   1.016
 1269WAT      O 4017   3.434   2.951   0.626
 1269WAT     H1 4018   3.486   2.897   0.686
 1269WAT     H2 4019   3.400   3.022   0.681
 1270WAT      O 4020   2.131   4.002   4.105
 1270WAT     H1 4021   2.193   3.933   4.130
 1270WAT     H2 4022   2.184   4.081   4.103
 1271WAT      O 4023   3.356   0.213   0.166
 1271WAT     H1 4024   3.370   0.155   0.091
 1271WAT     H2 4025   3.439   0.262   0.173
 1272WAT      O 4026   0.240   5.138   3.979
 1272WAT     H1 4027   0.311   5.202   3.985
 1272WAT     H2 4028   0.243   5.091   4.063
 1273WAT      O 4029   2.384   1.262   4.197
 1273WAT     H1 4030   2.426   1.323   4.257
 1273WAT     H2 4031   2.370   1.312   4.117
 1274WAT      O 4032   0.228   3.268   0.942
 1274WAT     H1 4033   0.195   3.251   0.854
 1274WAT     H2 4034   0.206   3.359   0.959
 1275WAT      O 4035   3.389   3.166   0.822
 1275WAT     H1 4036   3.372   3.246   0.871
 1275WAT     H2 4037   3.308   3.116   0.827
 1276WAT      O 4038   4.467   1.175   3.523
 1276WAT     H1 4039   4.521   1.113   3.472
 1276WAT     H2 4040   4.432   1.123   3.595
 1277WAT      O 4041   3.503   4.965   1.404
 1277WAT     H1 4042   3.517   4.879   1.365
 1277WAT     H2 4043   3.434   5.005   1.350
 1278WAT      O 4044   0.486   2.250   4.293
 1278WAT     H1 4045   0.541   2.289   4.225
 1278WAT     H2 4046   0.528   2.276   4.375
 1279WAT      O 4047   4.449   0.298   4.764
 1279WAT     H1 4048   4.489   0.370   4.810
 1279WAT     H2 4049   4.464   0.221   4.821
 1280WAT      O 4050   1.790   1.897   2.867
 1280WAT     H1 4051   1.852   1.921   2.799
 1280WAT     H2 4052   1.738   1.827   2.828
 1281WAT      O 4053   3.724   4.807   2.975
 1281WAT     H1 4054   3.754   4.897   2.984
 1281WAT     H2 4055   3.794   4.754   3.014
 1282WAT      O 4056   2.991   3.174   5.143
 1282WAT     H1 4057   2.925   3.175   5.212
 1282WAT     H2 4058   2.950   3.220   5.070
 1283WAT      O 4059   3.332   1.697   3.334
 1283WAT     H1 4060   3.330   1.721   3.242
 1283WAT     H2 4061   3.278   1.618   3.339
 1284WAT      O 4062   3.723   0.466   2.482
 1284WAT     H1 4063   3.802   0.415   2.473
 1284WAT     H2 4064   3.748   0.540   2.538
 1285WAT      O 4065   4.526   4.302   1.626
 1285WAT     H1 4066   4.484   4.309   1.712
 1285WAT     H2 4067   4.523   4.391   1.591
 1286WAT      O 4068   0.109   3.584   3.284
 1286WAT     H1 4069   0.110   3.669   3.240
 1286WAT     H2 4070   0.166   3.528   3.231
 1287WAT      O 4071   4.479   4.542   3.788
 1287WAT     H1 4072   4.482   4.626   3.744
 1287WAT     H2 4073   4.566   4.531   3.827
 1288WAT      O 4074   0.792   0.221   3.859
 1288WAT     H1 4075   0.772   0.157   3.790
 1288WAT     H2 4076   0.864   0.183   3.908
 1289WAT      O 4077   1.058   1.467   0.858
 1289WAT     H1 4078   1.052   1.560   0.836
 1289WAT     H2 4079   1.151   1.445   0.852
 1290WAT      O 4080   2.164   4.152   5.300
 1290WAT     H1 4081   2.081   4.107   5.312
 1290WAT     H2 4082   2.222   4.086   5.264
 1291WAT      O 4083   1.713   3.751   3.346
 1291WAT     H1 4084   1.716   3.687   3.417
 1291WAT     H2 4085   1.747   3.704   3.270
 1292WAT      O 4086   3.966   0.888   3.237
 1292WAT     H1 4087   4.049   0.921   3.271
 1292WAT     H2 4088   3.965   0.796   3.265
 1293WAT      O 4089   4.301   4.058   0.553
 1293WAT     H1 4090   4.388   4.098   0.561
 1293WAT     H2 4091   4.310   3.971   0.593
 1294WAT      O 4092   1.509   5.065   0.498
 1294WAT     H1 4093   1.553   5.148   0.480
 1294WAT     H2 4094   1.484   5.031   0.412
 1295WAT      O 4095   0.971   4.358   0.114
 1295WAT     H1 4096   1.015   4.363   0.199
 1295WAT     H2 4097   0.923   4.275   0.116
 1296WAT      O 4098   3.698   2.857   2.798
 1296WAT     H1 4099   3.697   2.855   2.702
 1296WAT     H2 4100   3.732   2.771   2.824
 1297WAT      O 4101   1.793   1.016   0.310
 1297WAT     H1 4102   1.870   1.000   0.364
 1297WAT     H2 4103   1.824   1.004   0.220
 1298WAT      O 4104   0.972   3.943   0.810
 1298WAT     H1 4105   0.921   3.947   0.729
 1298WAT     H2 4106   1.019   4.026   0.813
 1299WAT      O 4107   4.263   3.581   1.162
 1299WAT     H1 4108   4.207   3.618   1.230
 1299WAT     H2 4109   4.211   3.509   1.125
 1300WAT      O 4110   2.804   4.190   2.502
 1300WAT     H1 4111   2.876   4.228   2.452
 1300WAT     H2 4112   2.732   4.184   2.440
 1301WAT      O 4113   1.642   3.826   0.767
 1301WAT     H1 4114   1.678   3.777   0.842
 1301WAT     H2 4115   1.608   3.907   0.805
 1302WAT      O 4116   0.762   4.127   2.671
 1302WAT     H1 4117   0.821   4.200   2.692
 1302WAT     H2 4118   0.806   4.050   2.706
 1303WAT      O 4119   2.923   1.834   5.013
 1303WAT     H1 4120   2.916   1.802   4.923
 1303WAT     H2 4121   2.984   1.907   5.007
 1304WAT      O 4122   2.935   3.060   4.435
 1304WAT     H1 4123   2.968   2.976   4.402
 1304WAT     H2 4124   2.853   3.037   4.478
 1305WAT      O 4125   2.143   1.023   3.768
 1305WAT     H1 4126   2.123   0.931   3.783
 1305WAT     H2 4127   2.062   1.069   3.790
 1306WAT      O 4128   2.095   2.938   3.815
 1306WAT     H1 4129   2.122   2.870   3.877
 1306WAT     H2 4130   2.005   2.917   3.793
 1307WAT      O 4131   1.643   1.907   0.769
 1307WAT     H1 4132   1.651   1.834   0.830
 1307WAT     H2 4133   1.731   1.917   0.732
 1308WAT      O 4134   0.213   4.250   2.092
 1308WAT     H1 4135   0.227   4.190   2.166
 1308WAT     H2 4136   0.135   4.217   2.048
 1309WAT      O 4137   2.474   3.091   4.038
 1309WAT     H1 4138   2.521   3.036   3.975
 1309WAT     H2 4139   2.434   3.030   4.099
 1310WAT      O 4140   0.818   2.535   3.965
 1310WAT     H1 4141   0.752   2.527   3.896
 1310WAT     H2 4142   0.901   2.539   3.917
 1311WAT      O 4143   3.183   0.619   0.447
 1311WAT     H1 4144   3.223   0.570   0.375
 1311WAT     H2 4145   3.093   0.589   0.450
 1312WAT      O 4146   4.489   3.790   4.798
 1312WAT     H1 4147   4.538   3.872   4.797
 1312WAT     H2 4148   4.415   3.805   4.739
 1313WAT      O 4149   3.911   0.775   3.625
 1313WAT     H1 4150   3.975   0.820   3.680
 1313WAT     H2 4151   3.932   0.801   3.536
 1314WAT      O 4152   1.789   4.476   4.499
 1314WAT     H1 4153   1.746   4.493   4.416
 1314WAT     H2 4154   1.853   4.547   4.508
 1315WAT      O 4155   0.744   2.669   4.996
 1315WAT     H1 4156   0.782   2.611   4.930
 1315WAT     H2 4157   0.738   2.616   5.075
 1316WAT      O 4158   2.625   2.087   1.452
 1316WAT     H1 4159   2.576   2.141   1.515
 1316WAT     H2 4160   2.581   2.101   1.369
 1317WAT      O 4161   4.494   0.231   3.448
 1317WAT     H1 4162   4.430   0.280   3.500
 1317WAT     H2 4163   4.487   0.270   3.360
 1318WAT      O 4164   0.012   5.148   0.390
 1318WAT     H1 4165   0.084   5.186   0.339
 1318WAT     H2 4166   0.042   5.060   0.412
 1319WAT      O 4167   2.607   2.609   3.741
 1319WAT     H1 4168   2.671   2.670   3.778
 1319WAT     H2 4169   2.618   2.617   3.646
 1320WAT      O 4170   0.704   2.208   1.682
 1320WAT     H1 4171   0.713   2.253   1.598
 1320WAT     H2 4172   0.692   2.278   1.746
 1321WAT      O 4173   4.217   3.752   3.903
 1321WAT     H1 4174   4.252   3.669   3.937
 1321WAT     H2 4175   4.186   3.730   3.816
 1322WAT      O 4176   2.183   4.307   4.695
 1322WAT     H1 4177   2.203   4.221   4.733
 1322WAT     H2 4178   2.226   4.370   4.753
 1323WAT      O 4179   0.817   0.111   3.073
 1323WAT     H1 4180   0.735   0.155   3.099
 1323WAT     H2 4181   0.810   0.022   3.108
 1324WAT      O 4182   1.437   3.535   3.475
 1324WAT     H1 4183   1.532   3.526   3.487
 1324WAT     H2 4184   1.415   3.616   3.521
 1325WAT      O 4185   0.303   2.187   4.581
 1325WAT     H1 4186   0.239   2.152   4.643
 1325WAT     H2 4187   0.292   2.134   4.502
 1326WAT      O 4188   0.872   3.006   2.984
 1326WAT     H1 4189   0.844   3.029   2.895
 1326WAT     H2 4190   0.907   2.917   2.975
 1327WAT      O 4191   0.990   0.114   0.307
 1327WAT     H1 4192   0.928   0.079   0.244
 1327WAT     H2 4193   1.066   0.055   0.301
 1328WAT      O 4194   4.257   1.375   4.474
 1328WAT     H1 4195   4.226   1.286   4.490
 1328WAT     H2 4196   4.269   1.412   4.561
 1329WAT      O 4197   1.845   3.804   2.957
 1329WAT     H1 4198   1.853   3.894   2.989
 1329WAT     H2 4199   1.890   3.751   3.023
 1330WAT      O 4200   0.346   1.830   0.183
 1330WAT     H1 4201   0.299   1.821   0.101
 1330WAT     H2 4202   0.318   1.915   0.218
 1331WAT      O 4203   3.916   3.668   4.562
 1331WAT     H1 4204   3.899   3.613   4.486
 1331WAT     H2 4205   3.969   3.740   4.528
 1332WAT      O 4206   2.267   4.550   4.486
 1332WAT     H1 4207   2.285   4.623   4.427
 1332WAT     H2 4208   2.172   4.550   4.495
 1333WAT      O 4209   4.325   3.152   1.627
 1333WAT     H1 4210   4.315   3.115   1.539
 1333WAT     H2 4211   4.295   3.082   1.686
 1334WAT      O 4212   2.534   1.276   0.048
 1334WAT     H1 4213   2.602   1.223   0.005
 1334WAT     H2 4214   2.582   1.348   0.089
 1335WAT      O 4215   4.087   3.006   4.965
 1335WAT     H1 4216   4.040   3.077   4.923
 1335WAT     H2 4217   4.024   2.968   5.026
 1336WAT      O 4218   2.220   4.272   0.970
 1336WAT     H1 4219   2.268   4.225   1.038
 1336WAT     H2 4220   2.230   4.217   0.892
 1337WAT      O 4221   3.721   3.211   2.035
 1337WAT     H1 4222   3.706   3.131   2.086
 1337WAT     H2 4223   3.758   3.273   2.098
 1338WAT      O 4224   3.315   1.106   0.669
 1338WAT     H1 4225   3.229   1.073   0.645
 1338WAT     H2 4226   3.322   1.193   0.629
 1339WAT      O 4227   4.453   1.794   0.081
 1339WAT     H1 4228   4.482   1.885   0.090
 1339WAT     H2 4229   4.414   1.772   0.166
 1340WAT      O 4230   1.730   3.278   0.628
 1340WAT     H1 4231   1.668   3.274   0.701
 1340WAT     H2 4232   1.790   3.205   0.644
 1341WAT      O 4233   3.302   1.639   1.111
 1341WAT     H1 4234   3.342   1.556   1.136
 1341WAT     H2 4235   3.261   1.671   1.191
 1342WAT      O 4236   2.147   2.221   5.074
 1342WAT     H1 4237   2.135   2.152   5.140
 1342WAT     H2 4238   2.223   2.193   5.024
 1343WAT      O 4239   3.281   3.450   4.924
 1343WAT     H1 4240   3.200   3.501   4.929
 1343WAT     H2 4241   3.259   3.367   4.966
 1344WAT      O 4242   2.535   4.403   5.181
 1344WAT     H1 4243   2.556   4.496   5.172
 1344WAT     H2 4244   2.607   4.357   5.137
 1345WAT      O 4245   1.671   3.633   1.944
 1345WAT     H1 4246   1.700   3.649   1.854
 1345WAT     H2 4247   1.659   3.721   1.981
 1346WAT      O 4248   4.479   4.467   2.697
 1346WAT     H1 4249   4.538   4.528   2.742
 1346WAT     H2 4250   4.427   4.428   2.768
 1347WAT      O 4251   1.485   4.396   1.888
 1347WAT     H1 4252   1.431   4.474   1.872
 1347WAT     H2 4253   1.432   4.341   1.946
 1348WAT      O 4254   3.597   4.592   1.027
 1348WAT     H1 4255   3.590   4.498   1.045
 1348WAT     H2 4256   3.511   4.616   0.992
 1349WAT      O 4257   3.466   4.281   0.148
 1349WAT     H1 4258   3.470   4.348   0.079
 1349WAT     H2 4259   3.555   4.244   0.151
 1350WAT      O 4260   4.237   4.396   0.778
 1350WAT     H1 4261   4.291   4.324   0.813
 1350WAT     H2 4262   4.283   4.423   0.698
 1351WAT      O 4263   3.179   1.563   4.546
 1351WAT     H1 4264   3.235   1.486   4.555
 1351WAT     H2 4265   3.161   1.591   4.636
 1352WAT      O 4266   0.122   1.556   2.507
 1352WAT     H1 4267   0.090   1.468   2.483
 1352WAT     H2 4268   0.044   1.603   2.534
 1353WAT      O 4269   3.203   3.613   0.339
 1353WAT     H1 4270   3.222   3.523   0.367
 1353WAT     H2 4271   3.107   3.616   0.332
 1354WAT      O 4272   2.419   4.540   1.095
 1354WAT     H1 4273   2.459   4.604   1.036
 1354WAT     H2 4274   2.451   4.455   1.063
 1355WAT      O 4275   2.778   3.892   2.763
 1355WAT     H1 4276   2.856   3.947   2.752
 1355WAT     H2 4277   2.810   3.815   2.810
 1356WAT      O 4278   4.178   0.847   3.514
 1356WAT     H1 4279   4.262   0.882   3.540
 1356WAT     H2 4280   4.183   0.755   3.541
 1357WAT      O 4281   2.833   2.883   2.039
 1357WAT     H1 4282   2.770   2.821   2.003
 1357WAT     H2 4283   2.837   2.952   1.974
 1358WAT      O 4284   4.207   3.512   4.737
 1358WAT     H1 4285   4.142   3.481   4.674
 1358WAT     H2 4286   4.276   3.445   4.734
 1359WAT      O 4287   3.293   4.421   1.362
 1359WAT     H1 4288   3.326   4.507   1.389
 1359WAT     H2 4289   3.304   4.366   1.439
 1360WAT      O 4290   2.243   4.326   1.652
 1360WAT     H1 4291   2.322   4.305   1.702
 1360WAT     H2 4292   2.217   4.412   1.684
 1361WAT      O 4293   1.780   4.520   4.226
 1361WAT     H1 4294   1.867   4.559   4.229
 1361WAT     H2 4295   1.786   4.452   4.159
 1362WAT      O 4296   0.409   5.040   1.255
 1362WAT     H1 4297   0.354   4.962   1.267
 1362WAT     H2 4298   0.388   5.096   1.329
 1363WAT      O 4299   4.431   1.440   0.380
 1363WAT     H1 4300   4.365   1.418   0.447
 1363WAT     H2 4301   4.384   1.432   0.297
 1364WAT      O 4302   3.015   3.937   2.146
 1364WAT     H1 4303   2.924   3.949   2.119
 1364WAT     H2 4304   3.056   3.889   2.075
 1365WAT      O 4305   2.090   4.130   1.993
 1365WAT     H1 4306   2.038   4.163   1.920
 1365WAT     H2 4307   2.126   4.209   2.034
 1366WAT      O 4308   2.206   2.235   1.708
 1366WAT     H1 4309   2.172   2.215   1.620
 1366WAT     H2 4310   2.144   2.298   1.744
 1367WAT      O 4311   3.786   3.202   2.876
 1367WAT     H1 4312   3.779   3.219   2.782
 1367WAT     H2 4313   3.837   3.122   2.883
 1368WAT      O 4314   0.536   4.023   3.930
 1368WAT     H1 4315   0.445   3.996   3.943
 1368WAT     H2 4316   0.579   3.945   3.894
 1369WAT      O 4317   0.449   4.025   3.143
 1369WAT     H1 4318   0.367   4.074   3.147
 1369WAT     H2 4319   0.517   4.092   3.130
 1370WAT      O 4320   1.915   3.775   0.747
 1370WAT     H1 4321   1.838   3.830   0.734
 1370WAT     H2 4322   1.880   3.694   0.784
 1371WAT      O 4323   0.247   1.257   4.050
 1371WAT     H1 4324   0.252   1.172   4.091
 1371WAT     H2 4325   0.207   1.313   4.117
 1372WAT      O 4326   2.893   3.647   0.950
 1372WAT     H1 4327   2.908   3.732   0.909
 1372WAT     H2 4328   2.972   3.631   1.001
 1373WAT      O 4329   1.788   0.059   2.963
 1373WAT     H1 4330   1.835   0.028   3.040
 1373WAT     H2 4331   1.732   0.130   2.996
 1374WAT      O 4332   1.247   4.638   2.707
 1374WAT     H1 4333   1.234   4.622   2.614
 1374WAT     H2 4334   1.340   4.662   2.715
 1375WAT      O 4335   4.098   4.826   4.333
 1375WAT     H1 4336   4.060   4.755   4.385
 1375WAT     H2 4337   4.031   4.894   4.334
 1376WAT      O 4338   3.539   4.469   2.564
 1376WAT     H1 4339   3.518   4.528   2.636
 1376WAT     H2 4340   3.634   4.470   2.558
 1377WAT      O 4341   2.538   0.079   1.968
 1377WAT     H1 4342   2.558   0.003   2.022
 1377WAT     H2 4343   2.456   0.056   1.924
 1378WAT      O 4344   0.240   2.872   1.200
 1378WAT     H1 4345   0.199   2.922   1.271
 1378WAT     H2 4346   0.203   2.784   1.209
 1379WAT      O 4347   3.406   3.147   3.204
 1379WAT     H1 4348   3.427   3.113   3.117
 1379WAT     H2 4349   3.470   3.217   3.218
 1380WAT      O 4350   0.573   4.525   1.423
 1380WAT     H1 4351   0.537   4.477   1.348
 1380WAT     H2 4352   0.512   4.507   1.494
 1381WAT      O 4353   1.622   3.336   3.303
 1381WAT     H1 4354   1.651   3.385   3.380
 1381WAT     H2 4355   1.561   3.271   3.337
 1382WAT      O 4356   3.797   0.905   4.531
 1382WAT     H1 4357   3.852   0.833   4.559
 1382WAT     H2 4358   3.710   0.868   4.518
 1383WAT      O 4359   2.081   0.441   4.543
 1383WAT     H1 4360   2.134   0.383   4.597
 1383WAT     H2 4361   2.030   0.494   4.606
 1384WAT      O 4362   2.543   2.871   4.844
 1384WAT     H1 4363   2.474   2.905   4.902
 1384WAT     H2 4364   2.513   2.783   4.820
 1385WAT      O 4365   0.975   0.117   4.350
 1385WAT     H1 4366   0.890   0.148   4.318
 1385WAT     H2 4367   1.035   0.190   4.333
 1386WAT      O 4368   0.553   2.590   1.623
 1386WAT     H1 4369   0.547   2.552   1.535
 1386WAT     H2 4370   0.476   2.646   1.629
 1387WAT      O 4371   4.410   2.976   0.495
 1387WAT     H1 4372   4.497   2.937   0.493
 1387WAT     H2 4373   4.423   3.066   0.465
 1388WAT      O 4374   0.067   3.688   1.805
 1388WAT     H1 4375   0.000   3.620   1.801
 1388WAT     H2 4376   0.135   3.658   1.744
 1389WAT      O 4377   3.502   4.106   5.000
 1389WAT     H1 4378   3.555   4.079   4.926
 1389WAT     H2 4379   3.551   4.076   5.077
 1390WAT      O 4380   3.705   4.757   4.942
 1390WAT     H1 4381   3.679   4.793   4.857
 1390WAT     H2 4382   3.752   4.676   4.921
 1391WAT      O 4383   3.211   1.741   2.184
 1391WAT     H1 4384   3.279   1.786   2.235
 1391WAT     H2 4385   3.174   1.677   2.245
 1392WAT      O 4386   1.591   0.688   1.507
 1392WAT     H1 4387   1.508   0.727   1.534
 1392WAT     H2 4388   1.582   0.596   1.532
 1393WAT      O 4389   2.258   4.405   5.214
 1393WAT     H1 4390   2.354   4.405   5.220
 1393WAT     H2 4391   2.231   4.326   5.262
 1394WAT      O 4392   2.731   3.021   0.313
 1394WAT     H1 4393   2.727   2.978   0.398
 1394WAT     H2 4394   2.639   3.038   0.290
 1395WAT      O 4395   3.227   1.659   1.859
 1395WAT     H1 4396   3.236   1.650   1.954
 1395WAT     H2 4397   3.301   1.609   1.823
 1396WAT      O 4398   1.693   1.507   2.463
 1396WAT     H1 4399   1.770   1.468   2.504
 1396WAT     H2 4400   1.702   1.488   2.370
 1397WAT      O 4401   3.115   0.568   1.033
 1397WAT     H1 4402   3.133   0.635   0.968
 1397WAT     H2 4403   3.147   0.604   1.115
 1398WAT      O 4404   3.560   4.442   5.236
 1398WAT     H1 4405   3.612   4.407   5.164
 1398WAT     H2 4406   3.520   4.521   5.200
 1399WAT      O 4407   3.679   1.428   4.675
 1399WAT     H1 4408   3.646   1.338   4.686
 1399WAT     H2 4409   3.755   1.433   4.733
 1400WAT      O 4410   4.116   0.716   0.699
 1400WAT     H1 4411   4.029   0.745   0.673
 1400WAT     H2 4412   4.105   0.620   0.712
 1401WAT      O 4413   1.301   1.366   2.431
 1401WAT     H1 4414   1.227   1.336   2.484
 1401WAT     H2 4415   1.374   1.312   2.457
 1402WAT      O 4416   0.265   0.051   5.198
 1402WAT     H1 4417   0.352   0.023   5.227
 1402WAT     H2 4418   0.215  -0.030   5.193
 1403WAT      O 4419   0.787   0.420   2.329
 1403WAT     H1 4420   0.783   0.515   2.321
 1403WAT     H2 4421   0.817   0.405   2.419
 1404WAT      O 4422   0.481   1.066   0.137
 1404WAT     H1 4423   0.467   1.057   0.043
 1404WAT     H2 4424   0.424   1.000   0.176
 1405WAT      O 4425   2.267   0.253   4.680
 1405WAT     H1 4426   2.260   0.158   4.676
 1405WAT     H2 4427   2.241   0.277   4.769
 1406WAT      O 4428   4.172   1.946   4.343
 1406WAT     H1 4429   4.104   1.915   4.283
 1406WAT     H2 4430   4.148   2.037   4.361
 1407WAT      O 4431   1.164   0.548   0.471
 1407WAT     H1 4432   1.186   0.533   0.379
 1407WAT     H2 4433   1.098   0.482   0.492
 1408WAT      O 4434   3.676   1.346   1.528
 1408WAT     H1 4435   3.611   1.313   1.590
 1408WAT     H2 4436   3.641   1.430   1.498
 1409WAT      O 4437   1.586   2.080   1.475
 1409WAT     H1 4438   1.597   1.988   1.450
 1409WAT     H2 4439   1.493   2.088   1.497
 1410WAT      O 4440   1.135   0.507   1.449
 1410WAT     H1 4441   1.190   0.494   1.526
 1410WAT     H2 4442   1.161   0.439   1.387
 1411WAT      O 4443   1.573   3.090   1.280
 1411WAT     H1 4444   1.627   3.122   1.352
 1411WAT     H2 4445   1.628   3.028   1.233
 1412WAT      O 4446   1.724   4.651   3.176
 1412WAT     H1 4447   1.787   4.697   3.231
 1412WAT     H2 4448   1.760   4.563   3.167
 1413WAT      O 4449   3.660   0.588   0.296
 1413WAT     H1 4450   3.606   0.663   0.278
 1413WAT     H2 4451   3.749   0.616   0.274
 1414WAT      O 4452   2.186   5.085   0.904
 1414WAT     H1 4453   2.238   5.075   0.824
 1414WAT     H2 4454   2.246   5.064   0.975
 1415WAT      O 4455   2.291   2.946   1.640
 1415WAT     H1 4456   2.251   3.024   1.678
 1415WAT     H2 4457   2.261   2.947   1.549
 1416WAT      O 4458   3.045   3.988   4.308
 1416WAT     H1 4459   3.023   4.045   4.382
 1416WAT     H2 4460   3.140   3.994   4.300
 1417WAT      O 4461   3.937   3.655   0.261
 1417WAT     H1 4462   3.951   3.723   0.328
 1417WAT     H2 4463   3.855   3.680   0.219
 1418WAT      O 4464   0.702   4.731   0.359
 1418WAT     H1 4465   0.693   4.809   0.304
 1418WAT     H2 4466   0.732   4.663   0.299
 1419WAT      O 4467   1.488   3.824   2.925
 1419WAT     H1 4468   1.431   3.747   2.915
 1419WAT     H2 4469   1.514   3.823   3.017
 1420WAT      O 4470   2.058   4.895   4.932
 1420WAT     H1 4471   2.009   4.873   5.012
 1420WAT     H2 4472   2.100   4.978   4.952
 1421WAT      O 4473   2.978   3.922   1.707
 1421WAT     H1 4474   2.929   3.960   1.634
 1421WAT     H2 4475   2.999   3.833   1.678
 1422WAT      O 4476   0.811   0.204   1.687
 1422WAT     H1 4477   0.847   0.174   1.771
 1422WAT     H2 4478   0.854   0.288   1.671
 1423WAT      O 4479   3.614   3.867   3.100
 1423WAT     H1 4480   3.649   3.918   3.026
 1423WAT     H2 4481   3.646   3.913   3.178
 1424WAT      O 4482   4.146   2.301   4.858
 1424WAT     H1 4483   4.098   2.218   4.857
 1424WAT     H2 4484   4.209   2.291   4.930
 1425WAT      O 4485   1.424   4.081   2.025
 1425WAT     H1 4486   1.340   4.037   2.014
 1425WAT     H2 4487   1.402   4.163   2.070
 1426WAT      O 4488   2.793   5.006   4.880
 1426WAT     H1 4489   2.775   4.947   4.953
 1426WAT     H2 4490   2.790   5.093   4.918
 1427WAT      O 4491   0.526   2.533   3.155
 1427WAT     H1 4492   0.440   2.494   3.171
 1427WAT     H2 4493   0.582   2.495   3.222
 1428WAT      O 4494   1.430   3.489   1.933
 1428WAT     H1 4495   1.522   3.513   1.930
 1428WAT     H2 4496   1.429   3.398   1.963
 1429WAT      O 4497   1.496   3.795   1.712
 1429WAT     H1 4498   1.478   3.889   1.716
 1429WAT     H2 4499   1.493   3.767   1.803
 1430WAT      O 4500   0.532   3.584   1.711
 1430WAT     H1 4501   0.623   3.565   1.686
 1430WAT     H2 4502   0.504   3.652   1.650
 1431WAT      O 4503   1.036   1.753   1.699
 1431WAT     H1 4504   0.947   1.728   1.673
 1431WAT     H2 4505   1.071   1.674   1.740
 1432WAT      O 4506   2.371   2.623   1.487
 1432WAT     H1 4507   2.325   2.571   1.421
 1432WAT     H2 4508   2.462   2.591   1.484
 1433WAT      O 4509   1.708   1.813   3.713
 1433WAT     H1 4510   1.681   1.902   3.740
 1433WAT     H2 4511   1.644   1.789   3.647
 1434WAT      O 4512   4.359  -0.005   0.044
 1434WAT     H1 4513   4.365  -0.006  -0.051
 1434WAT     H2 4514   4.374   0.086   0.069
 1435WAT      O 4515   2.890   1.408   1.672
 1435WAT     H1 4516   2.945   1.487   1.670
 1435WAT     H2 4517   2.890   1.376   1.582
 1436WAT      O 4518   3.151   0.087   3.954
 1436WAT     H1 4519   3.122   0.150   3.888
 1436WAT     H2 4520   3.133   0.001   3.915
 1437WAT      O 4521   2.391   4.009   5.251
 1437WAT     H1 4522   2.364   3.920   5.275
 1437WAT     H2 4523   2.478   3.998   5.213
 1438WAT      O 4524   1.813   2.669   0.868
 1438WAT     H1 4525   1.723   2.649   0.841
 1438WAT     H2 4526   1.856   2.583   0.870
 1439WAT      O 4527   3.892   3.514   3.310
 1439WAT     H1 4528   3.959   3.518   3.379
 1439WAT     H2 4529   3.861   3.604   3.303
 1440WAT      O 4530   0.900   2.375   4.777
 1440WAT     H1 4531   0.939   2.462   4.780
 1440WAT     H2 4532   0.816   2.385   4.824
 1441WAT      O 4533   4.510   3.630   2.708
 1441WAT     H1 4534   4.536   3.721   2.692
 1441WAT     H2 4535   4.500   3.624   2.803
 1442WAT      O 4536   2.439   2.736   2.082
 1442WAT     H1 4537   2.400   2.653   2.109
 1442WAT     H2 4538   2.382   2.768   2.012
 1443WAT      O 4539   0.275   3.829   5.054
 1443WAT     H1 4540   0.202   3.884   5.026
 1443WAT     H2 4541   0.319   3.879   5.122
 1444WAT      O 4542   2.646   3.770   1.675
 1444WAT     H1 4543   2.582   3.774   1.603
 1444WAT     H2 4544   2.711   3.706   1.646
 1445WAT      O 4545   0.507   2.830   4.397
 1445WAT     H1 4546   0.516   2.767   4.326
 1445WAT     H2 4547   0.438   2.794   4.453
 1446WAT      O 4548   2.785   4.833   1.161
 1446WAT     H1 4549   2.750   4.833   1.071
 1446WAT     H2 4550   2.721   4.784   1.212
 1447WAT      O 4551   3.320   4.638   4.869
 1447WAT     H1 4552   3.348   4.679   4.787
 1447WAT     H2 4553   3.285   4.710   4.921
 1448WAT      O 4554   0.089   4.347   0.929
 1448WAT     H1 4555   0.054   4.427   0.891
 1448WAT     H2 4556   0.018   4.283   0.919
 1449WAT      O 4557   4.383   3.568   0.176
 1449WAT     H1 4558   4.294   3.576   0.143
 1449WAT     H2 4559   4.379   3.606   0.264
 1450WAT      O 4560   3.518   2.029   3.226
 1450WAT     H1 4561   3.461   2.080   3.283
 1450WAT     H2 4562   3.477   1.943   3.222
 1451WAT      O 4563   3.756   0.263   3.915
 1451WAT     H1 4564   3.720   0.194   3.859
 1451WAT     H2 4565   3.691   0.277   3.983
 1452WAT      O 4566   3.766   4.061   2.664
 1452WAT     H1 4567   3.812   4.125   2.609
 1452WAT     H2 4568   3.800   3.976   2.636
 1453WAT      O 4569   1.179   3.221   4.948
 1453WAT     H1 4570   1.114   3.284   4.980
 1453WAT     H2 4571   1.155   3.209   4.855
 1454WAT      O 4572   0.729   1.218   2.748
 1454WAT     H1 4573   0.781   1.157   2.695
 1454WAT     H2 4574   0.658   1.246   2.689
 1455WAT      O 4575   3.030   3.218   0.608
 1455WAT     H1 4576   3.080   3.146   0.646
 1455WAT     H2 4577   2.958   3.231   0.669
 1456WAT      O 4578   0.080   3.866   2.622
 1456WAT     H1 4579   0.154   3.915   2.657
 1456WAT     H2 4580   0.021   3.933   2.587
 1457WAT      O 4581   2.213   1.693   4.725
 1457WAT     H1 4582   2.166   1.774   4.744
 1457WAT     H2 4583   2.280   1.719   4.661
 1458WAT      O 4584   0.349   1.201   4.375
 1458WAT     H1 4585   0.266   1.230   4.336
 1458WAT     H2 4586   0.323   1.155   4.455
 1459WAT      O 4587   1.388   1.057   3.392
 1459WAT     H1 4588   1.351   1.144   3.409
 1459WAT     H2 4589   1.477   1.075   3.360
 1460WAT      O 4590   2.354   5.058   1.860
 1460WAT     H1 4591   2.359   4.993   1.790
 1460WAT     H2 4592   2.357   5.007   1.941
 1461WAT      O 4593   4.046   2.556   1.543
 1461WAT     H1 4594   3.953   2.570   1.559
 1461WAT     H2 4595   4.087   2.639   1.566
 1462WAT      O 4596   4.265   1.396   0.608
 1462WAT     H1 4597   4.179   1.420   0.575
 1462WAT     H2 4598   4.249   1.320   0.665
 1463WAT      O 4599   3.948   2.606   0.323
 1463WAT     H1 4600   3.977   2.631   0.235
 1463WAT     H2 4601   3.878   2.543   0.307
 1464WAT      O 4602   1.360   1.570   5.078
 1464WAT     H1 4603   1.285   1.539   5.028
 1464WAT     H2 4604   1.387   1.494   5.131
 1465WAT      O 4605   4.489   4.421   5.253
 1465WAT     H1 4606   4.559   4.359   5.232
 1465WAT     H2 4607   4.528   4.481   5.317
 1466WAT      O 4608   2.068   5.139   2.540
 1466WAT     H1 4609   2.157   5.172   2.552
 1466WAT     H2 4610   2.027   5.149   2.625
 1467WAT      O 4611   0.505   1.384   2.568
 1467WAT     H1 4612   0.442   1.376   2.640
 1467WAT     H2 4613   0.482   1.313   2.508
 1468WAT      O 4614   2.061   2.134   1.481
 1468WAT     H1 4615   2.093   2.204   1.424
 1468WAT     H2 4616   2.061   2.056   1.426
 1469WAT      O 4617   1.752   1.634   0.651
 1469WAT     H1 4618   1.686   1.667   0.591
 1469WAT     H2 4619   1.710   1.635   0.737
 1470WAT      O 4620   2.945   4.127   4.084
 1470WAT     H1 4621   2.958   4.072   4.162
 1470WAT     H2 4622   2.863   4.097   4.046
 1471WAT      O 4623   1.788   4.381   3.098
 1471WAT     H1 4624   1.797   4.356   3.190
 1471WAT     H2 4625   1.716   4.327   3.065
 1472WAT      O 4626   1.077   1.609   1.288
 1472WAT     H1 4627   1.067   1.527   1.238
 1472WAT     H2 4628   1.030   1.675   1.238
 1473WAT      O 4629   4.039   4.768   1.159
 1473WAT     H1 4630   3.965   4.729   1.113
 1473WAT     H2 4631   4.079   4.826   1.096
 1474WAT      O 4632   0.043   2.671   4.761
 1474WAT     H1 4633   0.138   2.680   4.754
 1474WAT     H2 4634   0.009   2.711   4.681
 1475WAT      O 4635   4.374   2.298   1.197
 1475WAT     H1 4636   4.337   2.255   1.120
 1475WAT     H2 4637   4.304   2.355   1.228
 1476WAT      O 4638   1.495   4.532   2.434
 1476WAT     H1 4639   1.444   4.462   2.474
 1476WAT     H2 4640   1.450   4.550   2.351
 1477WAT      O 4641   4.045   3.188   3.509
 1477WAT     H1 4642   4.020   3.096   3.518
 1477WAT     H2 4643   4.132   3.185   3.467
 1478WAT      O 4644   4.495   5.040   4.543
 1478WAT     H1 4645   4.419   5.091   4.512
 1478WAT     H2 4646   4.470   5.010   4.630
 1479WAT      O 4647   4.478   1.284   4.697
 1479WAT     H1 4648   4.488   1.249   4.786
 1479WAT     H2 4649   4.413   1.226   4.656
 1480WAT      O 4650   3.905   4.198   4.258
 1480WAT     H1 4651   3.891   4.129   4.322
 1480WAT     H2 4652   3.882   4.158   4.174
 1481WAT      O 4653   2.739   1.548   2.862
 1481WAT     H1 4654   2.781   1.464   2.878
 1481WAT     H2 4655   2.807   1.613   2.881
 1482WAT      O 4656   3.119   3.764   5.128
 1482WAT     H1 4657   3.203   3.791   5.165
 1482WAT     H2 4658   3.091   3.691   5.183
 1483WAT      O 4659   0.235   2.345   4.217
 1483WAT     H1 4660   0.221   2.416   4.280
 1483WAT     H2 4661   0.320   2.308   4.241
 1484WAT      O 4662   3.029   0.668   1.462
 1484WAT     H1 4663   3.030   0.573   1.445
 1484WAT     H2 4664   3.077   0.678   1.545
 1485WAT      O 4665   3.912   3.349   1.764
 1485WAT     H1 4666   3.906   3.423   1.824
 1485WAT     H2 4667   3.822   3.335   1.735
 1486WAT      O 4668   3.989   1.450   0.550
 1486WAT     H1 4669   3.954   1.471   0.637
 1486WAT     H2 4670   3.948   1.513   0.492
 1487WAT      O 4671   0.696   2.493   2.217
 1487WAT     H1 4672   0.667   2.452   2.299
 1487WAT     H2 4673   0.665   2.584   2.225
 1488WAT      O 4674   2.526   0.571   0.168
 1488WAT     H1 4675   2.605   0.576   0.221
 1488WAT     H2 4676   2.536   0.492   0.117
 1489WAT      O 4677   4.228   2.459   2.814
 1489WAT     H1 4678   4.159   2.442   2.750
 1489WAT     H2 4679   4.301   2.492   2.761
 1490WAT      O 4680   1.166   4.569   2.960
 1490WAT     H1 4681   1.190   4.658   2.987
 1490WAT     H2 4682   1.166   4.572   2.864
 1491WAT      O 4683   3.325   2.101   4.661
 1491WAT     H1 4684   3.313   2.092   4.566
 1491WAT     H2 4685   3.249   2.151   4.690
 1492WAT      O 4686   2.620   0.026   4.353
 1492WAT     H1 4687   2.592   0.087   4.284
 1492WAT     H2 4688   2.710   0.049   4.371
 1493WAT      O 4689   2.811   0.425   3.313
 1493WAT     H1 4690   2.902   0.438   3.338
 1493WAT     H2 4691   2.782   0.351   3.366
 1494WAT      O 4692   4.262   4.695   0.913
 1494WAT     H1 4693   4.273   4.636   0.839
 1494WAT     H2 4694   4.324   4.766   0.897
 1495WAT      O 4695   2.457   0.318   0.455
 1495WAT     H1 4696   2.432   0.306   0.547
 1495WAT     H2 4697   2.520   0.390   0.457
 1496WAT      O 4698   0.070   3.499   2.279
 1496WAT     H1 4699  -0.020   3.481   2.253
 1496WAT     H2 4700   0.122   3.473   2.204
 1497WAT      O 4701   4.130   0.888   4.561
 1497WAT     H1 4702   4.171   0.803   4.575
 1497WAT     H2 4703   4.099   0.885   4.471
 1498WAT      O 4704   3.868   4.931   1.337
 1498WAT     H1 4705   3.852   4.838   1.321
 1498WAT     H2 4706   3.957   4.934   1.372
 1499WAT      O 4707   2.042   4.813   0.703
 1499WAT     H1 4708   1.985   4.828   0.778
 1499WAT     H2 4709   1.989   4.762   0.642
 1500WAT      O 4710   3.478   4.099   2.514
 1500WAT     H1 4711   3.572   4.107   2.530
 1500WAT     H2 4712   3.464   4.146   2.432
 1501WAT      O 4713   1.807   2.731   1.757
 1501WAT     H1 4714   1.728   2.728   1.703
 1501WAT     H2 4715   1.777   2.707   1.845
 1502WAT      O 4716   3.492   2.611   2.967
 1502WAT     H1 4717   3.406   2.595   3.006
 1502WAT     H2 4718   3.486   2.570   2.880
 1503WAT      O 4719   3.834   2.927   4.361
 1503WAT     H1 4720   3.845   2.834   4.345
 1503WAT     H2 4721   3.789   2.960   4.283
 1504WAT      O 4722   2.849   2.788   2.841
 1504WAT     H1 4723   2.843   2.883   2.832
 1504WAT     H2 4724   2.907   2.774   2.916
 1505WAT      O 4725   1.094   1.315   2.887
 1505WAT     H1 4726   1.131   1.260   2.956
 1505WAT     H2 4727   1.159   1.382   2.873
 1506WAT      O 4728   1.702   2.070   0.237
 1506WAT     H1 4729   1.699   2.030   0.150
 1506WAT     H2 4730   1.612   2.062   0.270
 1507WAT      O 4731   2.792   1.984   2.095
 1507WAT     H1 4732   2.857   1.927   2.057
 1507WAT     H2 4733   2.738   2.012   2.020
 1508WAT      O 4734   0.002   0.059   1.811
 1508WAT     H1 4735   0.053   0.138   1.828
 1508WAT     H2 4736   0.055  -0.012   1.849
 1509WAT      O 4737   3.045   1.757   3.379
 1509WAT     H1 4738   2.978   1.788   3.318
 1509WAT     H2 4739   3.095   1.835   3.403
 1510WAT      O 4740   1.586   0.195   3.090
 1510WAT     H1 4741   1.497   0.178   3.120
 1510WAT     H2 4742   1.614   0.272   3.140
 1511WAT      O 4743   3.804   3.911   1.049
 1511WAT     H1 4744   3.719   3.956   1.043
 1511WAT     H2 4745   3.782   3.825   1.084
 1512WAT      O 4746   0.694   0.645   4.691
 1512WAT     H1 4747   0.621   0.609   4.640
 1512WAT     H2 4748   0.770   0.594   4.663
 1513WAT      O 4749   0.788   4.539   0.172
 1513WAT     H1 4750   0.714   4.506   0.120
 1513WAT     H2 4751   0.857   4.474   0.158
 1514WAT      O 4752   3.829   0.231   0.592
 1514WAT     H1 4753   3.795   0.153   0.636
 1514WAT     H2 4754   3.866   0.198   0.510
 1515WAT      O 4755   2.330   2.113   0.743
 1515WAT     H1 4756   2.280   2.191   0.719
 1515WAT     H2 4757   2.279   2.040   0.706
 1516WAT      O 4758   4.395   2.563   4.931
 1516WAT     H1 4759   4.470   2.596   4.882
 1516WAT     H2 4760   4.319   2.604   4.889
 1517WAT      O 4761   4.308   0.197   0.423
 1517WAT     H1 4762   4.370   0.129   0.397
 1517WAT     H2 4763   4.299   0.188   0.518
 1518WAT      O 4764   1.074   1.767   5.017
 1518WAT     H1 4765   1.053   1.796   5.106
 1518WAT     H2 4766   1.043   1.836   4.960
 1519WAT      O 4767   0.509   3.912   1.803
 1519WAT     H1 4768   0.598   3.906   1.768
 1519WAT     H2 4769   0.503   3.842   1.867
 1520WAT      O 4770   2.667   0.775   0.711
 1520WAT     H1 4771   2.628   0.831   0.645
 1520WAT     H2 4772   2.635   0.810   0.794
 1521WAT      O 4773   3.738   2.797   0.046
 1521WAT     H1 4774   3.718   2.706   0.023
 1521WAT     H2 4775   3.731   2.800   0.141
 1522WAT      O 4776   2.379   0.502   3.964
 1522WAT     H1 4777   2.423   0.456   3.893
 1522WAT     H2 4778   2.286   0.490   3.947
 1523WAT      O 4779   1.993   0.132   3.811
 1523WAT     H1 4780   2.007   0.044   3.777
 1523WAT     H2 4781   1.904   0.132   3.845
 1524WAT      O 4782   3.881   1.499   1.964
 1524WAT     H1 4783   3.815   1.450   1.915
 1524WAT     H2 4784   3.866   1.590   1.939
 1525WAT      O 4785   3.067   2.306   1.773
 1525WAT     H1 4786   3.132   2.294   1.843
 1525WAT     H2 4787   3.116   2.291   1.692
 1526WAT      O 4788   2.898   1.188   4.636
 1526WAT     H1 4789   2.930   1.221   4.552
 1526WAT     H2 4790   2.859   1.266   4.678
 1527WAT      O 4791   2.780   1.404   4.743
 1527WAT     H1 4792   2.833   1.461   4.798
 1527WAT     H2 4793   2.718   1.363   4.804
 1528WAT      O 4794   1.432   2.814   4.336
 1528WAT     H1 4795   1.463   2.873   4.403
 1528WAT     H2 4796   1.441   2.863   4.254
 1529WAT      O 4797   3.570   3.748   0.948
 1529WAT     H1 4798   3.589   3.660   0.979
 1529WAT     H2 4799   3.620   3.756   0.867
 1530WAT      O 4800   1.359   2.475   3.647
 1530WAT     H1 4801   1.432   2.534   3.632
 1530WAT     H2 4802   1.358   2.461   3.741
 1531WAT      O 4803   1.168   1.210   0.427
 1531WAT     H1 4804   1.241   1.149   0.440
 1531WAT     H2 4805   1.101   1.157   0.383
 1532WAT      O 4806   1.588   3.457   1.244
 1532WAT     H1 4807   1.599   3.363   1.228
 1532WAT     H2 4808   1.667   3.481   1.294
 1533WAT      O 4809   3.705   2.389   3.181
 1533WAT     H1 4810   3.674   2.477   3.200
 1533WAT     H2 4811   3.636   2.350   3.127
 1534WAT      O 4812   1.174   5.115   3.462
 1534WAT     H1 4813   1.236   5.086   3.396
 1534WAT     H2 4814   1.108   5.164   3.413
 1535WAT      O 4815   3.277   0.984   0.918
 1535WAT     H1 4816   3.227   0.914   0.877
 1535WAT     H2 4817   3.318   1.030   0.844
 1536WAT      O 4818   3.142   5.057   3.468
 1536WAT     H1 4819   3.197   5.022   3.399
 1536WAT     H2 4820   3.137   4.986   3.533
 1537WAT      O 4821   1.614   0.517   1.850
 1537WAT     H1 4822   1.545   0.583   1.852
 1537WAT     H2 4823   1.592   0.456   1.920
 1538WAT      O 4824   0.573   4.556   4.633
 1538WAT     H1 4825   0.660   4.574   4.668
 1538WAT     H2 4826   0.521   4.632   4.660
 1539WAT      O 4827   2.486   0.810   3.404
 1539WAT     H1 4828   2.412   0.778   3.351
 1539WAT     H2 4829   2.563   0.788   3.351
 1540WAT      O 4830   3.258   3.804   3.867
 1540WAT     H1 4831   3.244   3.767   3.780
 1540WAT     H2 4832   3.353   3.822   3.870
 1541WAT      O 4833   3.689   0.653   1.257
 1541WAT     H1 4834   3.628   0.667   1.330
 1541WAT     H2 4835   3.635   0.665   1.179
 1542WAT      O 4836   1.738   3.946   1.047
 1542WAT     H1 4837   1.822   3.976   1.012
 1542WAT     H2 4838   1.673   4.005   1.008
 1543WAT      O 4839   3.236   4.058   0.933
 1543WAT     H1 4840   3.310   4.090   0.880
 1543WAT     H2 4841   3.159   4.100   0.894
 1544WAT      O 4842   3.164   0.066   1.050
 1544WAT     H1 4843   3.136   0.140   0.997
 1544WAT     H2 4844   3.200   0.003   0.988
 1545WAT      O 4845   3.586   0.071   2.160
 1545WAT     H1 4846   3.659   0.086   2.100
 1545WAT     H2 4847   3.627   0.035   2.239
 1546WAT      O 4848   2.626   4.292   3.588
 1546WAT     H1 4849   2.637   4.270   3.680
 1546WAT     H2 4850   2.578   4.218   3.551
 1547WAT      O 4851   2.978   1.562   1.072
 1547WAT     H1 4852   2.926   1.641   1.062
 1547WAT     H2 4853   3.051   1.573   1.010
 1548WAT      O 4854   2.893   1.333   2.942
 1548WAT     H1 4855   2.878   1.262   2.880
 1548WAT     H2 4856   2.988   1.346   2.940
 1549WAT      O 4857   0.287   3.313   3.757
 1549WAT     H1 4858   0.220   3.349   3.698
 1549WAT     H2 4859   0.240   3.248   3.810
 1550WAT      O 4860   3.437   1.800   2.674
 1550WAT     H1 4861   3.494   1.852   2.617
 1550WAT     H2 4862   3.416   1.859   2.746
 1551WAT      O 4863   4.443   4.060   2.948
 1551WAT     H1 4864   4.370   3.999   2.956
 1551WAT     H2 4865   4.519   4.011   2.981
 1552WAT      O 4866   0.758   4.440   2.497
 1552WAT     H1 4867   0.801   4.458   2.581
 1552WAT     H2 4868   0.819   4.474   2.431
 1553WAT      O 4869   2.618   2.662   0.492
 1553WAT     H1 4870   2.647   2.750   0.514
 1553WAT     H2 4871   2.659   2.605   0.557
 1554WAT      O 4872   3.038   0.407   4.653
 1554WAT     H1 4873   2.956   0.405   4.702
 1554WAT     H2 4874   3.050   0.500   4.632
 1555WAT      O 4875   0.760   1.132   5.179
 1555WAT     H1 4876   0.714   1.185   5.245
 1555WAT     H2 4877   0.844   1.111   5.220
 1556WAT      O 4878   3.349   2.022   3.757
 1556WAT     H1 4879   3.426   1.988   3.712
 1556WAT     H2 4880   3.276   2.001   3.699
 1557WAT      O 4881   0.415   4.325   0.088
 1557WAT     H1 4882   0.392   4.417   0.103
 1557WAT     H2 4883   0.469   4.327   0.009
 1558WAT      O 4884   0.005   0.637   1.564
 1558WAT     H1 4885   0.003   0.543   1.551
 1558WAT     H2 4886   0.020   0.673   1.477
 1559WAT      O 4887   1.166   0.339   3.980
 1559WAT     H1 4888   1.258   0.314   3.975
 1559WAT     H2 4889   1.157   0.408   3.914
 1560WAT      O 4890   2.185   3.537   4.180
 1560WAT     H1 4891   2.231   3.476   4.123
 1560WAT     H2 4892   2.095   3.537   4.148
 1561WAT      O 4893   3.351   0.310   0.505
 1561WAT     H1 4894   3.442   0.291   0.482
 1561WAT     H2 4895   3.326   0.380   0.445
 1562WAT      O 4896   1.760   2.831   4.340
 1562WAT     H1 4897   1.710   2.909   4.314
 1562WAT     H2 4898   1.768   2.838   4.435
 1563WAT      O 4899   3.329   4.097   2.002
 1563WAT     H1 4900   3.289   4.181   1.981
 1563WAT     H2 4901   3.262   4.050   2.052
 1564WAT      O 4902   1.404   1.697   1.299
 1564WAT     H1 4903   1.472   1.762   1.280
 1564WAT     H2 4904   1.359   1.731   1.376
 1565WAT      O 4905   3.217   0.818   4.839
 1565WAT     H1 4906   3.222   0.750   4.907
 1565WAT     H2 4907   3.209   0.769   4.758
 1566WAT      O 4908   3.086   0.824   3.592
 1566WAT     H1 4909   3.114   0.843   3.502
 1566WAT     H2 4910   2.991   0.818   3.586
 1567WAT      O 4911   3.717   4.731   0.442
 1567WAT     H1 4912   3.754   4.690   0.520
 1567WAT     H2 4913   3.636   4.683   0.425
 1568WAT      O 4914   1.749   5.036   1.907
 1568WAT     H1 4915   1.843   5.039   1.887
 1568WAT     H2 4916   1.707   5.075   1.831
 1569WAT      O 4917   0.914   0.512   2.993
 1569WAT     H1 4918   0.922   0.527   2.899
 1569WAT     H2 4919   0.822   0.489   3.006
 1570WAT      O 4920   1.722   2.208   1.261
 1570WAT     H1 4921   1.672   2.139   1.304
 1570WAT     H2 4922   1.656   2.259   1.214
 1571WAT      O 4923   0.372   4.535   2.317
 1571WAT     H1 4924   0.391   4.479   2.242
 1571WAT     H2 4925   0.409   4.488   2.392
 1572WAT      O 4926   1.311   0.063   4.550
 1572WAT     H1 4927   1.232   0.010   4.533
 1572WAT     H2 4928   1.315   0.124   4.477
 1573WAT      O 4929   0.446   0.828   2.063
 1573WAT     H1 4930   0.436   0.747   2.112
 1573WAT     H2 4931   0.362   0.838   2.017
 1574WAT      O 4932   2.500   3.807   3.387
 1574WAT     H1 4933   2.507   3.712   3.389
 1574WAT     H2 4934   2.565   3.837   3.452
 1575WAT      O 4935   1.437   4.062   1.716
 1575WAT     H1 4936   1.380   4.115   1.660
 1575WAT     H2 4937   1.458   4.120   1.789
 1576WAT      O 4938   2.126   1.550   3.539
 1576WAT     H1 4939   2.067   1.522   3.609
 1576WAT     H2 4940   2.069   1.560   3.463
 1577WAT      O 4941   2.432   0.780   4.776
 1577WAT     H1 4942   2.412   0.821   4.692
 1577WAT     H2 4943   2.525   0.760   4.770
 1578WAT      O 4944   0.726   2.253   3.179
 1578WAT     H1 4945   0.747   2.161   3.195
 1578WAT     H2 4946   0.727   2.294   3.266
 1579WAT      O 4947   0.297   3.956   0.624
 1579WAT     H1 4948   0.217   3.944   0.676
 1579WAT     H2 4949   0.299   3.879   0.567
 1580WAT      O 4950   1.074   4.077   4.815
 1580WAT     H1 4951   1.130   4.140   4.769
 1580WAT     H2 4952   1.125   3.996   4.815
 1581WAT      O 4953   1.502   4.281   4.018
 1581WAT     H1 4954   1.486   4.274   4.112
 1581WAT     H2 4955   1.494   4.374   3.999
 1582WAT      O 4956   2.887   4.768   4.454
 1582WAT     H1 4957   2.886   4.846   4.398
 1582WAT     H2 4958   2.822   4.787   4.522
 1583WAT      O 4959   3.428   1.754   3.055
 1583WAT     H1 4960   3.491   1.788   2.991
 1583WAT     H2 4961   3.455   1.665   3.072
 1584WAT      O 4962   0.845   5.106   0.139
 1584WAT     H1 4963   0.837   5.042   0.209
 1584WAT     H2 4964   0.884   5.058   0.066
 1585WAT      O 4965   3.550   2.258   1.486
 1585WAT     H1 4966   3.623   2.199   1.504
 1585WAT     H2 4967   3.512   2.224   1.405
 1586WAT      O 4968   1.812   1.148   3.073
 1586WAT     H1 4969   1.885   1.103   3.115
 1586WAT     H2 4970   1.822   1.126   2.980
 1587WAT      O 4971   3.391   1.753   3.936
 1587WAT     H1 4972   3.321   1.731   3.997
 1587WAT     H2 4973   3.359   1.721   3.851
 1588WAT      O 4974   0.958   1.615   4.367
 1588WAT     H1 4975   0.983   1.579   4.452
 1588WAT     H2 4976   1.001   1.700   4.363
 1589WAT      O 4977   4.348   0.787   2.980
 1589WAT     H1 4978   4.319   0.868   2.938
 1589WAT     H2 4979   4.437   0.773   2.948
 1590WAT      O 4980   2.036   3.896   1.018
 1590WAT     H1 4981   2.111   3.860   1.067
 1590WAT     H2 4982   2.028   3.839   0.942
 1591WAT      O 4983   2.582   0.072   3.871
 1591WAT     H1 4984   2.531   0.081   3.951
 1591WAT     H2 4985   2.637  -0.006   3.886
 1592WAT      O 4986   0.219   0.319   4.233
 1592WAT     H1 4987   0.186   0.229   4.225
 1592WAT     H2 4988   0.265   0.336   4.151
 1593WAT      O 4989   4.445   4.791   4.818
 1593WAT     H1 4990   4.374   4.847   4.787
 1593WAT     H2 4991   4.418   4.765   4.906
 1594WAT      O 4992   2.403   4.206   2.729
 1594WAT     H1 4993   2.346   4.166   2.795
 1594WAT     H2 4994   2.400   4.146   2.655
 1595WAT      O 4995   2.481   0.204   2.309
 1595WAT     H1 4996   2.538   0.129   2.326
 1595WAT     H2 4997   2.436   0.183   2.228
 1596WAT      O 4998   0.277   3.539   5.128
 1596WAT     H1 4999   0.294   3.620   5.176
 1596WAT     H2 5000   0.187   3.548   5.096
 1597WAT      O 5001   3.373   4.585   4.014
 1597WAT     H1 5002   3.290   4.545   3.992
 1597WAT     H2 5003   3.425   4.579   3.934
 1598WAT      O 5004   1.032   3.653   0.119
 1598WAT     H1 5005   1.058   3.700   0.198
 1598WAT     H2 5006   1.040   3.560   0.143
 1599WAT      O 5007   4.443   2.585   4.231
 1599WAT     H1 5008   4.525   2.602   4.278
 1599WAT     H2 5009   4.448   2.493   4.205
 1600WAT      O 5010   2.479   0.808   4.298
 1600WAT     H1 5011   2.399   0.834   4.252
 1600WAT     H2 5012   2.475   0.713   4.300
 1601WAT      O 5013   3.099   3.327   1.550
 1601WAT     H1 5014   3.058   3.413   1.566
 1601WAT     H2 5015   3.057   3.297   1.470
 1602WAT      O 5016   0.268   4.142   2.362
 1602WAT     H1 5017   0.200   4.146   2.429
 1602WAT     H2 5018   0.345   4.181   2.404
 1603WAT      O 5019   3.208   1.362   1.754
 1603WAT     H1 5020   3.125   1.330   1.718
 1603WAT     H2 5021   3.184   1.399   1.839
 1604WAT      O 5022   1.786   0.431   4.989
 1604WAT     H1 5023   1.860   0.480   5.024
 1604WAT     H2 5024   1.823   0.346   4.966
 1605WAT      O 5025   0.247   5.132   0.952
 1605WAT     H1 5026   0.260   5.039   0.974
 1605WAT     H2 5027   0.166   5.156   0.996
 1606WAT      O 5028   1.945   0.211   0.009
 1606WAT     H1 5029   1.913   0.282   0.063
 1606WAT     H2 5030   1.870   0.185  -0.044
 1607WAT      O 5031   2.395   4.006   2.527
 1607WAT     H1 5032   2.313   3.993   2.480
 1607WAT     H2 5033   2.409   3.924   2.575
 1608WAT      O 5034   0.705   1.014   1.999
 1608WAT     H1 5035   0.739   0.994   2.086
 1608WAT     H2 5036   0.611   1.001   2.006
 1609WAT      O 5037   1.029   2.242   0.115
 1609WAT     H1 5038   1.065   2.157   0.089
 1609WAT     H2 5039   1.039   2.297   0.037
 1610WAT      O 5040   2.993   0.841   2.218
 1610WAT     H1 5041   2.984   0.745   2.205
 1610WAT     H2 5042   3.069   0.865   2.166
 1611WAT      O 5043   3.750   1.859   4.579
 1611WAT     H1 5044   3.671   1.828   4.535
 1611WAT     H2 5045   3.778   1.934   4.526
 1612WAT      O 5046   2.247   1.731   3.790
 1612WAT     H1 5047   2.156   1.756   3.806
 1612WAT     H2 5048   2.248   1.705   3.698
 1613WAT      O 5049   1.951   4.743   3.282
 1613WAT     H1 5050   1.932   4.754   3.375
 1613WAT     H2 5051   1.998   4.660   3.276
 1614WAT      O 5052   2.462   0.134   3.627
 1614WAT     H1 5053   2.513   0.098   3.700
 1614WAT     H2 5054   2.394   0.069   3.611
 1615WAT      O 5055   1.876   4.361   0.876
 1615WAT     H1 5056   1.967   4.389   0.866
 1615WAT     H2 5057   1.838   4.374   0.790
 1616WAT      O 5058   0.295   2.007   1.400
 1616WAT     H1 5059   0.272   2.069   1.330
 1616WAT     H2 5060   0.328   1.930   1.354
 1617WAT      O 5061   4.167   0.263   0.914
 1617WAT     H1 5062   4.171   0.332   0.980
 1617WAT     H2 5063   4.214   0.190   0.953
 1618WAT      O 5064   0.497   4.993   2.391
 1618WAT     H1 5065   0.459   4.907   2.371
 1618WAT     H2 5066   0.447   5.025   2.466
 1619WAT      O 5067   3.189   2.228   1.225
 1619WAT     H1 5068   3.214   2.287   1.155
 1619WAT     H2 5069   3.267   2.175   1.241
 1620WAT      O 5070   4.306   4.873   0.391
 1620WAT     H1 5071   4.231   4.813   0.396
 1620WAT     H2 5072   4.279   4.949   0.443
 1621WAT      O 5073   4.434   0.275   2.706
 1621WAT     H1 5074   4.518   0.241   2.740
 1621WAT     H2 5075   4.445   0.369   2.704
 1622WAT      O 5076   1.544   1.079   0.815
 1622WAT     H1 5077   1.569   0.996   0.775
 1622WAT     H2 5078   1.461   1.102   0.772
 1623WAT      O 5079   0.460   3.405   1.492
 1623WAT     H1 5080   0.508   3.325   1.513
 1623WAT     H2 5081   0.477   3.463   1.566
 1624WAT      O 5082   2.572   4.902   0.504
 1624WAT     H1 5083   2.635   4.843   0.545
 1624WAT     H2 5084   2.490   4.854   0.505
 1625WAT      O 5085   2.721   4.467   4.522
 1625WAT     H1 5086   2.640   4.456   4.572
 1625WAT     H2 5087   2.740   4.380   4.487
 1626WAT      O 5088   1.349   0.226   5.300
 1626WAT     H1 5089   1.278   0.163   5.290
 1626WAT     H2 5090   1.414   0.180   5.354
 1627WAT      O 5091   4.144   4.677   0.649
 1627WAT     H1 5092   4.049   4.673   0.647
 1627WAT     H2 5093   4.173   4.599   0.602
 1628WAT      O 5094   0.969   4.602   2.721
 1628WAT     H1 5095   1.055   4.644   2.725
 1628WAT     H2 5096   0.914   4.663   2.673
 1629WAT      O 5097   0.221   1.102   3.801
 1629WAT     H1 5098   0.237   1.146   3.885
 1629WAT     H2 5099   0.182   1.170   3.746
 1630WAT      O 5100   1.034   1.250   5.008
 1630WAT     H1 5101   1.109   1.194   4.987
 1630WAT     H2 5102   1.059   1.296   5.088
 1631WAT      O 5103   1.127   5.069   1.849
 1631WAT     H1 5104   1.192   5.059   1.778
 1631WAT     H2 5105   1.177   5.106   1.922
 1632WAT      O 5106   3.706   1.417   2.752
 1632WAT     H1 5107   3.745   1.503   2.740
 1632WAT     H2 5108   3.781   1.358   2.763
 1633WAT      O 5109   0.247   5.092   2.194
 1633WAT     H1 5110   0.288   5.006   2.182
 1633WAT     H2 5111   0.320   5.154   2.190
 1634WAT      O 5112   1.271   3.778   2.658
 1634WAT     H1 5113   1.306   3.768   2.747
 1634WAT     H2 5114   1.348   3.797   2.604
 1635WAT      O 5115   3.918   2.979   2.945
 1635WAT     H1 5116   3.930   2.989   3.040
 1635WAT     H2 5117   3.834   2.934   2.936
 1636WAT      O 5118   0.762   0.123   4.639
 1636WAT     H1 5119   0.717   0.081   4.711
 1636WAT     H2 5120   0.853   0.132   4.669
 1637WAT      O 5121   4.177   0.593   3.643
 1637WAT     H1 5122   4.173   0.497   3.655
 1637WAT     H2 5123   4.085   0.620   3.643
 1638WAT      O 5124   0.288   2.829   4.715
 1638WAT     H1 5125   0.368   2.804   4.761
 1638WAT     H2 5126   0.273   2.919   4.742
 1639WAT      O 5127   1.914   2.744   0.634
 1639WAT     H1 5128   1.850   2.732   0.564
 1639WAT     H2 5129   1.871   2.711   0.712
 1640WAT      O 5130   0.302   2.157   1.946
 1640WAT     H1 5131   0.246   2.134   1.871
 1640WAT     H2 5132   0.386   2.114   1.926
 1641WAT      O 5133   1.882   4.268   0.513
 1641WAT     H1 5134   1.900   4.245   0.421
 1641WAT     H2 5135   1.951   4.222   0.562
 1642WAT      O 5136   0.206   2.250   3.961
 1642WAT     H1 5137   0.189   2.158   3.983
 1642WAT     H2 5138   0.230   2.290   4.045
 1643WAT      O 5139   3.019   0.824   2.524
 1643WAT     H1 5140   3.008   0.863   2.437
 1643WAT     H2 5141   2.984   0.734   2.514
 1644WAT      O 5142   2.536   1.998   4.696
 1644WAT     H1 5143   2.447   1.997   4.661
 1644WAT     H2 5144   2.549   1.909   4.730
 1645WAT      O 5145   1.506   2.304   0.589
 1645WAT     H1 5146   1.496   2.347   0.505
 1645WAT     H2 5147   1.422   2.317   0.633
 1646WAT      O 5148   4.282   2.188   2.116
 1646WAT     H1 5149   4.325   2.120   2.063
 1646WAT     H2 5150   4.308   2.168   2.205
 1647WAT      O 5151   0.439   5.095   1.707
 1647WAT     H1 5152   0.413   5.136   1.625
 1647WAT     H2 5153   0.531   5.119   1.718
 1648WAT      O 5154   4.070   2.244   1.229
 1648WAT     H1 5155   3.996   2.299   1.257
 1648WAT     H2 5156   4.129   2.244   1.304
 1649WAT      O 5157   1.675   0.858   2.671
 1649WAT     H1 5158   1.679   0.792   2.601
 1649WAT     H2 5159   1.622   0.816   2.740
 1650WAT      O 5160   1.916   4.066   2.519
 1650WAT     H1 5161   2.002   4.023   2.517
 1650WAT     H2 5162   1.896   4.075   2.612
 1651WAT      O 5163   2.045   4.270   4.257
 1651WAT     H1 5164   1.956   4.238   4.276
 1651WAT     H2 5165   2.094   4.250   4.336
 1652WAT      O 5166   4.441   4.375   1.874
 1652WAT     H1 5167   4.457   4.289   1.914
 1652WAT     H2 5168   4.460   4.437   1.944
 1653WAT      O 5169   2.996   0.568   2.466
 1653WAT     H1 5170   2.957   0.522   2.541
 1653WAT     H2 5171   3.037   0.499   2.415
 1654WAT      O 5172   1.971   3.211   0.789
 1654WAT     H1 5173   1.946   3.213   0.881
 1654WAT     H2 5174   2.030   3.136   0.781
 1655WAT      O 5175   0.616   2.268   0.554
 1655WAT     H1 5176   0.564   2.211   0.497
 1655WAT     H2 5177   0.566   2.351   0.555
 1656WAT      O 5178   1.503   0.584   3.493
 1656WAT     H1 5179   1.561   0.632   3.435
 1656WAT     H2 5180   1.560   0.550   3.562
 1657WAT      O 5181   0.327   2.902   2.409
 1657WAT     H1 5182   0.404   2.946   2.373
 1657WAT     H2 5183   0.352   2.810   2.412
 1658WAT      O 5184   3.053   0.165   1.304
 1658WAT     H1 5185   2.975   0.109   1.302
 1658WAT     H2 5186   3.104   0.137   1.228
 1659WAT      O 5187   4.015   4.830   4.048
 1659WAT     H1 5188   3.931   4.849   4.090
 1659WAT     H2 5189   4.075   4.813   4.121
 1660WAT      O 5190   3.063   3.750   2.501
 1660WAT     H1 5191   3.050   3.830   2.450
 1660WAT     H2 5192   3.152   3.758   2.537
 1661WAT      O 5193   4.224   0.092   4.838
 1661WAT     H1 5194   4.135   0.063   4.857
 1661WAT     H2 5195   4.214   0.148   4.761
 1662WAT      O 5196   1.193   3.235   0.330
 1662WAT     H1 5197   1.163   3.325   0.343
 1662WAT     H2 5198   1.142   3.183   0.392
 1663WAT      O 5199   3.624   2.252   1.159
 1663WAT     H1 5200   3.661   2.164   1.166
 1663WAT     H2 5201   3.672   2.292   1.086
 1664WAT      O 5202   3.801   3.741   4.170
 1664WAT     H1 5203   3.801   3.819   4.225
 1664WAT     H2 5204   3.722   3.749   4.117
 1665WAT      O 5205   1.145   3.238   2.124
 1665WAT     H1 5206   1.151   3.306   2.191
 1665WAT     H2 5207   1.231   3.237   2.083
 1666WAT      O 5208   1.289   4.645   3.542
 1666WAT     H1 5209   1.312   4.710   3.609
 1666WAT     H2 5210   1.316   4.685   3.459
 1667WAT      O 5211   0.232   2.235   2.660
 1667WAT     H1 5212   0.240   2.171   2.730
 1667WAT     H2 5213   0.139   2.260   2.661
 1668WAT      O 5214   2.430   3.383   1.747
 1668WAT     H1 5215   2.480   3.390   1.829
 1668WAT     H2 5216   2.495   3.352   1.683
 1669WAT      O 5217   3.951   2.017   3.477
 1669WAT     H1 5218   3.922   2.064   3.399
 1669WAT     H2 5219   3.914   1.930   3.468
 1670WAT      O 5220   3.704   1.869   3.778
 1670WAT     H1 5221   3.684   1.898   3.867
 1670WAT     H2 5222   3.766   1.798   3.789
 1671WAT      O 5223   0.998   3.867   2.627
 1671WAT     H1 5224   0.955   3.788   2.595
 1671WAT     H2 5225   1.090   3.844   2.633
 1672WAT      O 5226   2.758   4.123   0.120
 1672WAT     H1 5227   2.724   4.108   0.208
 1672WAT     H2 5228   2.749   4.217   0.106
 1673WAT      O 5229   4.175   3.409   1.691
 1673WAT     H1 5230   4.212   3.322   1.676
 1673WAT     H2 5231   4.082   3.394   1.705
 1674WAT      O 5232   1.228   2.972   4.710
 1674WAT     H1 5233   1.209   3.064   4.702
 1674WAT     H2 5234   1.144   2.931   4.729
 1675WAT      O 5235   0.128   0.106   2.838
 1675WAT     H1 5236   0.064   0.061   2.784
 1675WAT     H2 5237   0.193   0.040   2.859
 1676WAT      O 5238   4.490   0.367   1.585
 1676WAT     H1 5239   4.463   0.359   1.677
 1676WAT     H2 5240   4.429   0.309   1.538
 1677WAT      O 5241   4.441   2.411   3.380
 1677WAT     H1 5242   4.352   2.398   3.413
 1677WAT     H2 5243   4.429   2.446   3.292
 1678WAT      O 5244   0.105   1.800   2.319
 1678WAT     H1 5245   0.056   1.806   2.401
 1678WAT     H2 5246   0.182   1.748   2.340
 1679WAT      O 5247   2.234   1.928   1.600
 1679WAT     H1 5248   2.276   1.899   1.520
 1679WAT     H2 5249   2.154   1.973   1.571
 1680WAT      O 5250   1.877   1.261   0.717
 1680WAT     H1 5251   1.964   1.274   0.680
 1680WAT     H2 5252   1.820   1.319   0.666
 1681WAT      O 5253   3.577   1.848   1.368
 1681WAT     H1 5254   3.660   1.885   1.400
 1681WAT     H2 5255   3.519   1.850   1.444
 1682WAT      O 5256   0.857   4.945   4.705
 1682WAT     H1 5257   0.763   4.951   4.688
 1682WAT     H2 5258   0.864   4.915   4.795
 1683WAT      O 5259   3.766   3.369   2.298
 1683WAT     H1 5260   3.818   3.307   2.348
 1683WAT     H2 5261   3.772   3.451   2.347
 1684WAT      O 5262   2.840   1.116   3.524
 1684WAT     H1 5263   2.770   1.106   3.588
 1684WAT     H2 5264   2.794   1.125   3.440
 1685WAT      O 5265   1.312   3.402   3.056
 1685WAT     H1 5266   1.228   3.365   3.027
 1685WAT     H2 5267   1.324   3.368   3.144
 1686WAT      O 5268   3.880   2.741   4.677
 1686WAT     H1 5269   3.954   2.786   4.636
 1686WAT     H2 5270   3.920   2.674   4.732
 1687WAT      O 5271   0.282   4.731   3.042
 1687WAT     H1 5272   0.373   4.735   3.012
 1687WAT     H2 5273   0.288   4.737   3.138
 1688WAT      O 5274   4.399   4.100   0.013
 1688WAT     H1 5275   4.482   4.122   0.054
 1688WAT     H2 5276   4.334   4.112   0.083
 1689WAT      O 5277   0.376   4.310   0.955
 1689WAT     H1 5278   0.388   4.241   0.890
 1689WAT     H2 5279   0.281   4.324   0.958
 1690WAT      O 5280   2.385   2.772   0.396
 1690WAT     H1 5281   2.465   2.727   0.421
 1690WAT     H2 5282   2.326   2.702   0.367
 1691WAT      O 5283   0.501   4.900   4.151
 1691WAT     H1 5284   0.551   4.982   4.158
 1691WAT     H2 5285   0.566   4.833   4.131
 1692WAT      O 5286   3.094   3.728   3.423
 1692WAT     H1 5287   3.187   3.721   3.403
 1692WAT     H2 5288   3.089   3.725   3.518
 1693WAT      O 5289   3.565   2.916   4.988
 1693WAT     H1 5290   3.641   2.974   4.990
 1693WAT     H2 5291   3.592   2.840   5.040
 1694WAT      O 5292   1.989   1.433   4.936
 1694WAT     H1 5293   1.998   1.488   4.858
 1694WAT     H2 5294   1.900   1.399   4.932
 1695WAT      O 5295   3.395   0.798   4.192
 1695WAT     H1 5296   3.368   0.729   4.132
 1695WAT     H2 5297   3.486   0.816   4.167
 1696WAT      O 5298   0.770   1.711   4.895
 1696WAT     H1 5299   0.777   1.688   4.802
 1696WAT     H2 5300   0.834   1.780   4.909
 1697WAT      O 5301   3.826   4.696   3.398
 1697WAT     H1 5302   3.841   4.602   3.385
 1697WAT     H2 5303   3.737   4.710   3.366
 1698WAT      O 5304   2.477   1.303   0.854
 1698WAT     H1 5305   2.544   1.246   0.815
 1698WAT     H2 5306   2.394   1.264   0.825
 1699WAT      O 5307   3.826   3.611   1.439
 1699WAT     H1 5308   3.843   3.658   1.520
 1699WAT     H2 5309   3.905   3.559   1.425
 1700WAT      O 5310   3.010   2.187   2.191
 1700WAT     H1 5311   2.935   2.128   2.183
 1700WAT     H2 5312   3.023   2.196   2.286
 1701WAT      O 5313   0.322   1.619   4.524
 1701WAT     H1 5314   0.245   1.563   4.517
 1701WAT     H2 5315   0.289   1.701   4.560
 1702WAT      O 5316   1.248   2.079   5.192
 1702WAT     H1 5317   1.283   2.123   5.270
 1702WAT     H2 5318   1.299   1.999   5.185
 1703WAT      O 5319   4.029   2.246   1.563
 1703WAT     H1 5320   3.989   2.333   1.560
 1703WAT     H2 5321   4.100   2.255   1.626
 1704WAT      O 5322   2.202   0.211   4.006
 1704WAT     H1 5323   2.164   0.206   3.918
 1704WAT     H2 5324   2.144   0.157   4.060
 1705WAT      O 5325   0.434   3.748   4.381
 1705WAT     H1 5326   0.358   3.805   4.379
 1705WAT     H2 5327   0.407   3.673   4.435
 1706WAT      O 5328   0.704   5.111   1.671
 1706WAT     H1 5329   0.745   5.197   1.682
 1706WAT     H2 5330   0.751   5.072   1.597
 1707WAT      O 5331   3.692   4.841   2.708
 1707WAT     H1 5332   3.701   4.836   2.803
 1707WAT     H2 5333   3.781   4.861   2.677
 1708WAT      O 5334   3.800   2.617   1.099
 1708WAT     H1 5335   3.795   2.655   1.011
 1708WAT     H2 5336   3.717   2.641   1.140
 1709WAT      O 5337   1.596   3.442   2.946
 1709WAT     H1 5338   1.542   3.437   3.025
 1709WAT     H2 5339   1.571   3.525   2.906
 1710WAT      O 5340   2.424   3.332   4.391
 1710WAT     H1 5341   2.459   3.392   4.324
 1710WAT     H2 5342   2.353   3.286   4.347
 1711WAT      O 5343   2.898   0.504   3.773
 1711WAT     H1 5344   2.868   0.428   3.724
 1711WAT     H2 5345   2.877   0.482   3.864
 1712WAT      O 5346   1.897   4.526   4.958
 1712WAT     H1 5347   1.989   4.548   4.974
 1712WAT     H2 5348   1.900   4.465   4.884
 1713WAT      O 5349   0.355   3.125   0.375
 1713WAT     H1 5350   0.314   3.205   0.344
 1713WAT     H2 5351   0.287   3.083   0.429
 1714WAT      O 5352   3.607   0.471   4.869
 1714WAT     H1 5353   3.511   0.466   4.875
 1714WAT     H2 5354   3.623   0.561   4.842
 1715WAT      O 5355   1.937   0.523   4.758
 1715WAT     H1 5356   1.956   0.607   4.801
 1715WAT     H2 5357   1.862   0.489   4.806
 1716WAT      O 5358   3.297   4.968   3.248
 1716WAT     H1 5359   3.366   5.018   3.204
 1716WAT     H2 5360   3.221   4.977   3.190
 1717WAT      O 5361   3.774   0.105   3.321
 1717WAT     H1 5362   3.827   0.025   3.311
 1717WAT     H2 5363   3.692   0.074   3.360
 1718WAT      O 5364   0.201   1.599   3.453
 1718WAT     H1 5365   0.183   1.543   3.378
 1718WAT     H2 5366   0.249   1.673   3.416
 1719WAT      O 5367   0.117   4.461   2.251
 1719WAT     H1 5368   0.147   4.377   2.216
 1719WAT     H2 5369   0.196   4.500   2.288
 1720WAT      O 5370   3.544   2.052   4.346
 1720WAT     H1 5371   3.456   2.064   4.382
 1720WAT     H2 5372   3.540   2.093   4.260
 1721WAT      O 5373   4.479   4.775   0.624
 1721WAT     H1 5374   4.387   4.801   0.628
 1721WAT     H2 5375   4.516   4.830   0.555
 1722WAT      O 5376   1.568   0.686   4.371
 1722WAT     H1 5377   1.479   0.719   4.379
 1722WAT     H2 5378   1.616   0.731   4.440
 1723WAT      O 5379   0.279   1.662   1.074
 1723WAT     H1 5380   0.333   1.618   1.009
 1723WAT     H2 5381   0.291   1.756   1.054
 1724WAT      O 5382   1.822   3.562   3.135
 1724WAT     H1 5383   1.899   3.521   3.096
 1724WAT     H2 5384   1.748   3.513   3.098
 1725WAT      O 5385   1.490   4.787   0.659
 1725WAT     H1 5386   1.542   4.824   0.587
 1725WAT     H2 5387   1.434   4.859   0.688
 1726WAT      O 5388   3.240   5.007   0.034
 1726WAT     H1 5389   3.190   5.036   0.111
 1726WAT     H2 5390   3.227   5.077  -0.030
 1727WAT      O 5391   1.734   1.369   3.765
 1727WAT     H1 5392   1.693   1.331   3.842
 1727WAT     H2 5393   1.705   1.315   3.692
 1728WAT      O 5394   0.505   2.055   2.420
 1728WAT     H1 5395   0.583   2.055   2.365
 1728WAT     H2 5396   0.460   1.973   2.398
 1729WAT      O 5397   1.155   3.936   3.366
 1729WAT     H1 5398   1.163   3.917   3.459
 1729WAT     H2 5399   1.185   3.856   3.323
 1730WAT      O 5400   0.179   2.530   3.868
 1730WAT     H1 5401   0.188   2.439   3.896
 1730WAT     H2 5402   0.268   2.565   3.873
 1731WAT      O 5403   3.765   2.305   3.557
 1731WAT     H1 5404   3.706   2.230   3.556
 1731WAT     H2 5405   3.852   2.266   3.570
 1732WAT      O 5406   2.935   1.788   2.466
 1732WAT     H1 5407   2.868   1.855   2.479
 1732WAT     H2 5408   3.018   1.836   2.466
 1733WAT      O 5409   1.224   3.625   4.885
 1733WAT     H1 5410   1.284   3.700   4.882
 1733WAT     H2 5411   1.207   3.612   4.978
 1734WAT      O 5412   2.627   0.937   3.621
 1734WAT     H1 5413   2.683   0.862   3.646
 1734WAT     H2 5414   2.580   0.905   3.544
 1735WAT      O 5415   1.094   2.400   5.183
 1735WAT     H1 5416   1.086   2.478   5.128
 1735WAT     H2 5417   1.175   2.359   5.154
 1736WAT      O 5418   2.119   4.175   0.614
 1736WAT     H1 5419   2.169   4.125   0.678
 1736WAT     H2 5420   2.176   4.248   0.590
 1737WAT      O 5421   1.809   2.214   1.562
 1737WAT     H1 5422   1.736   2.162   1.530
 1737WAT     H2 5423   1.887   2.168   1.530
 1738WAT      O 5424   1.128   0.571   3.701
 1738WAT     H1 5425   1.048   0.519   3.701
 1738WAT     H2 5426   1.186   0.527   3.639
 1739WAT      O 5427   3.390   4.009   4.709
 1739WAT     H1 5428   3.403   4.097   4.746
 1739WAT     H2 5429   3.465   3.959   4.742
 1740WAT      O 5430   4.017   3.211   4.792
 1740WAT     H1 5431   3.985   3.300   4.773
 1740WAT     H2 5432   4.059   3.183   4.710
 1741WAT      O 5433   0.385   1.754   2.312
 1741WAT     H1 5434   0.429   1.759   2.228
 1741WAT     H2 5435   0.383   1.662   2.334
 1742WAT      O 5436   1.208   0.324   1.266
 1742WAT     H1 5437   1.186   0.235   1.295
 1742WAT     H2 5438   1.303   0.324   1.262
 1743WAT      O 5439   3.169   2.010   2.795
 1743WAT     H1 5440   3.186   1.952   2.869
 1743WAT     H2 5441   3.108   2.075   2.830
 1744WAT      O 5442   2.626   1.157   2.650
 1744WAT     H1 5443   2.631   1.200   2.565
 1744WAT     H2 5444   2.554   1.095   2.642
 1745WAT      O 5445   2.644   4.667   4.809
 1745WAT     H1 5446   2.702   4.733   4.770
 1745WAT     H2 5447   2.609   4.618   4.734
 1746WAT      O 5448   1.281   3.006   2.702
 1746WAT     H1 5449   1.211   3.010   2.636
 1746WAT     H2 5450   1.239   3.036   2.783
 1747WAT      O 5451   0.063   4.288   4.935
 1747WAT     H1 5452   0.054   4.351   5.007
 1747WAT     H2 5453  -0.007   4.312   4.874
 1748WAT      O 5454   0.259   0.999   2.935
 1748WAT     H1 5455   0.236   1.089   2.959
 1748WAT     H2 5456   0.264   0.953   3.018
 1749WAT      O 5457   2.280   3.461   3.198
 1749WAT     H1 5458   2.272   3.541   3.146
 1749WAT     H2 5459   2.194   3.450   3.238
 1750WAT      O 5460   0.217   2.141   1.654
 1750WAT     H1 5461   0.133   2.183   1.639
 1750WAT     H2 5462   0.246   2.112   1.568
 1751WAT      O 5463   2.633   0.560   0.480
 1751WAT     H1 5464   2.624   0.591   0.570
 1751WAT     H2 5465   2.721   0.520   0.477
 1752WAT      O 5466   2.326   4.048   1.470
 1752WAT     H1 5467   2.263   4.077   1.404
 1752WAT     H2 5468   2.274   4.033   1.549
 1753WAT      O 5469   0.225   3.165   2.991
 1753WAT     H1 5470   0.277   3.181   2.912
 1753WAT     H2 5471   0.146   3.122   2.959
 1754WAT      O 5472   1.641   2.659   0.132
 1754WAT     H1 5473   1.666   2.671   0.041
 1754WAT     H2 5474   1.548   2.635   0.129
 1755WAT      O 5475   3.115   2.537   2.065
 1755WAT     H1 5476   3.034   2.500   2.031
 1755WAT     H2 5477   3.115   2.627   2.032
 1756WAT      O 5478   1.308   2.497   4.782
 1756WAT     H1 5479   1.304   2.444   4.861
 1756WAT     H2 5480   1.219   2.528   4.769
 1757WAT      O 5481   2.479   3.225   0.541
 1757WAT     H1 5482   2.400   3.276   0.524
 1757WAT     H2 5483   2.462   3.139   0.502
 1758WAT      O 5484   1.781   5.065   4.316
 1758WAT     H1 5485   1.804   5.108   4.399
 1758WAT     H2 5486   1.811   5.126   4.249
 1759WAT      O 5487   3.203   1.595   0.201
 1759WAT     H1 5488   3.262   1.609   0.127
 1759WAT     H2 5489   3.115   1.599   0.164
 1760WAT      O 5490   4.132   4.045   4.682
 1760WAT     H1 5491   4.058   3.994   4.715
 1760WAT     H2 5492   4.146   4.011   4.594
 1761WAT      O 5493   1.743   4.417   2.205
 1761WAT     H1 5494   1.702   4.341   2.245
 1761WAT     H2 5495   1.787   4.462   2.278
 1762WAT      O 5496   2.006   2.441   4.229
 1762WAT     H1 5497   2.027   2.535   4.224
 1762WAT     H2 5498   1.911   2.439   4.241
 1763WAT      O 5499   0.379   0.548   4.023
 1763WAT     H1 5500   0.301   0.504   3.989
 1763WAT     H2 5501   0.436   0.477   4.052
 1764WAT      O 5502   1.271   5.131   3.208
 1764WAT     H1 5503   1.255   5.117   3.115
 1764WAT     H2 5504   1.304   5.047   3.239
 1765WAT      O 5505   1.068   0.561   4.401
 1765WAT     H1 5506   1.012   0.604   4.337
 1765WAT     H2 5507   1.089   0.476   4.361
 1766WAT      O 5508   4.175   1.279   0.870
 1766WAT     H1 5509   4.265   1.273   0.903
 1766WAT     H2 5510   4.133   1.198   0.901
 1767WAT      O 5511   3.415   4.953   4.919
 1767WAT     H1 5512   3.357   5.012   4.872
 1767WAT     H2 5513   3.370   4.935   5.002
 1768WAT      O 5514   4.169   3.996   3.482
 1768WAT     H1 5515   4.153   4.057   3.410
 1768WAT     H2 5516   4.200   4.051   3.554
 1769WAT      O 5517   4.194   0.022   3.805
 1769WAT     H1 5518   4.283   0.050   3.830
 1769WAT     H2 5519   4.187   0.044   3.712
 1770WAT      O 5520   3.956   1.856   4.183
 1770WAT     H1 5521   3.957   1.769   4.144
 1770WAT     H2 5522   3.866   1.868   4.214
 1771WAT      O 5523   0.793   4.949   3.124
 1771WAT     H1 5524   0.878   4.925   3.162
 1771WAT     H2 5525   0.782   4.889   3.050
 1772WAT      O 5526   3.218   4.262   4.289
 1772WAT     H1 5527   3.185   4.252   4.200
 1772WAT     H2 5528   3.140   4.272   4.343
 1773WAT      O 5529   2.313   0.375   3.693
 1773WAT     H1 5530   2.351   0.287   3.687
 1773WAT     H2 5531   2.388   0.434   3.701
 1774WAT      O 5532   0.816   4.913   0.589
 1774WAT     H1 5533   0.824   5.005   0.612
 1774WAT     H2 5534   0.740   4.909   0.531
 1775WAT      O 5535   0.215   4.107   2.787
 1775WAT     H1 5536   0.220   4.155   2.870
 1775WAT     H2 5537   0.305   4.080   2.769
 1776WAT      O 5538   0.232   0.474   4.436
 1776WAT     H1 5539   0.226   0.556   4.386
 1776WAT     H2 5540   0.240   0.406   4.369
 1777WAT      O 5541   2.527   4.185   2.338
 1777WAT     H1 5542   2.502   4.121   2.404
 1777WAT     H2 5543   2.504   4.144   2.255
 1778WAT      O 5544   3.849   2.559   2.645
 1778WAT     H1 5545   3.944   2.564   2.644
 1778WAT     H2 5546   3.830   2.470   2.677
 1779WAT      O 5547   3.044   4.162   0.222
 1779WAT     H1 5548   2.957   4.129   0.199
 1779WAT     H2 5549   3.100   4.084   0.218
 1780WAT      O 5550   3.368   2.400   2.097
 1780WAT     H1 5551   3.286   2.449   2.103
 1780WAT     H2 5552   3.407   2.407   2.184
 1781WAT      O 5553   2.400   3.716   1.872
 1781WAT     H1 5554   2.424   3.650   1.807
 1781WAT     H2 5555   2.416   3.674   1.957
 1782WAT      O 5556   0.701   0.303   4.426
 1782WAT     H1 5557   0.721   0.235   4.491
 1782WAT     H2 5558   0.635   0.264   4.369
 1783WAT      O 5559   1.183   0.714   5.092
 1783WAT     H1 5560   1.272   0.734   5.118
 1783WAT     H2 5561   1.170   0.762   5.011
 1784WAT      O 5562   3.427   3.703   4.323
 1784WAT     H1 5563   3.510   3.751   4.328
 1784WAT     H2 5564   3.360   3.772   4.322
 1785WAT      O 5565   4.430   3.228   0.409
 1785WAT     H1 5566   4.414   3.247   0.317
 1785WAT     H2 5567   4.370   3.285   0.457
 1786WAT      O 5568   2.815   3.518   1.764
 1786WAT     H1 5569   2.903   3.504   1.799
 1786WAT     H2 5570   2.829   3.564   1.682
 1787WAT      O 5571   2.843   4.503   3.691
 1787WAT     H1 5572   2.916   4.448   3.664
 1787WAT     H2 5573   2.885   4.578   3.734
 1788WAT      O 5574   0.196   1.555   0.473
 1788WAT     H1 5575   0.102   1.559   0.455
 1788WAT     H2 5576   0.236   1.533   0.389
 1789WAT      O 5577   0.927   1.488   3.839
 1789WAT     H1 5578   0.905   1.535   3.920
 1789WAT     H2 5579   1.019   1.509   3.823
 1790WAT      O 5580   3.136   1.303   1.020
 1790WAT     H1 5581   3.227   1.295   0.993
 1790WAT     H2 5582   3.106   1.382   0.975
 1791WAT      O 5583   1.131   0.968   4.021
 1791WAT     H1 5584   1.132   0.921   3.937
 1791WAT     H2 5585   1.222   0.993   4.036
 1792WAT      O 5586   3.770   4.965   3.471
 1792WAT     H1 5587   3.782   4.870   3.462
 1792WAT     H2 5588   3.820   4.987   3.550
 1793WAT      O 5589   1.316   2.726   0.327
 1793WAT     H1 5590   1.376   2.706   0.255
 1793WAT     H2 5591   1.261   2.797   0.294
 1794WAT      O 5592   1.379   1.609   0.922
 1794WAT     H1 5593   1.456   1.665   0.911
 1794WAT     H2 5594   1.305   1.665   0.901
 1795WAT      O 5595   1.379   1.744   0.210
 1795WAT     H1 5596   1.290   1.744   0.175
 1795WAT     H2 5597   1.373   1.698   0.293
 1796WAT      O 5598   4.287   3.752   4.617
 1796WAT     H1 5599   4.205   3.769   4.570
 1796WAT     H2 5600   4.269   3.674   4.670
 1797WAT      O 5601   1.281   0.012   0.853
 1797WAT     H1 5602   1.275  -0.069   0.800
 1797WAT     H2 5603   1.352   0.061   0.812
 1798WAT      O 5604   0.436   1.057   4.765
 1798WAT     H1 5605   0.520   1.072   4.721
 1798WAT     H2 5606   0.391   1.142   4.759
 1799WAT      O 5607   0.154   4.835   3.332
 1799WAT     H1 5608   0.079   4.785   3.298
 1799WAT     H2 5609   0.117   4.920   3.356
 1800WAT      O 5610   2.587   2.132   3.459
 1800WAT     H1 5611   2.537   2.100   3.534
 1800WAT     H2 5612   2.671   2.159   3.495
 1801WAT      O 5613   2.327   4.727   0.769
 1801WAT     H1 5614   2.360   4.639   0.752
 1801WAT     H2 5615   2.232   4.720   0.753
 1802WAT      O 5616   1.998   4.940   1.189
 1802WAT     H1 5617   2.040   5.012   1.140
 1802WAT     H2 5618   1.999   4.866   1.128
 1803WAT      O 5619   0.522   0.556   3.172
 1803WAT     H1 5620   0.454   0.579   3.235
 1803WAT     H2 5621   0.602   0.597   3.206
 1804WAT      O 5622   0.868   1.846   3.692
 1804WAT     H1 5623   0.925   1.834   3.768
 1804WAT     H2 5624   0.810   1.918   3.716
 1805WAT      O 5625   0.506   3.997   4.224
 1805WAT     H1 5626   0.424   3.952   4.247
 1805WAT     H2 5627   0.573   3.929   4.231
 1806WAT      O 5628   1.722   5.048   3.534
 1806WAT     H1 5629   1.740   5.041   3.628
 1806WAT     H2 5630   1.808   5.064   3.495
 1807WAT      O 5631   4.524   4.137   1.972
 1807WAT     H1 5632   4.509   4.079   2.047
 1807WAT     H2 5633   4.504   4.083   1.896
 1808WAT      O 5634   1.762   2.617   2.001
 1808WAT     H1 5635   1.847   2.574   1.989
 1808WAT     H2 5636   1.729   2.582   2.083
 1809WAT      O 5637   0.006   1.905   0.445
 1809WAT     H1 5638  -0.061   1.846   0.410
 1809WAT     H2 5639  -0.014   1.991   0.404
 1810WAT      O 5640   3.337   0.796   0.033
 1810WAT     H1 5641   3.416   0.742   0.035
 1810WAT     H2 5642   3.368   0.882   0.002
 1811WAT      O 5643   0.777   1.067   3.332
 1811WAT     H1 5644   0.752   1.037   3.420
 1811WAT     H2 5645   0.864   1.030   3.318
 1812WAT      O 5646   0.168   3.184   3.483
 1812WAT     H1 5647   0.172   3.123   3.409
 1812WAT     H2 5648   0.135   3.265   3.445
 1813WAT      O 5649   2.276   3.893   3.249
 1813WAT     H1 5650   2.356   3.884   3.302
 1813WAT     H2 5651   2.226   3.962   3.294
 1814WAT      O 5652   1.344   4.384   3.674
 1814WAT     H1 5653   1.272   4.367   3.613
 1814WAT     H2 5654   1.329   4.473   3.705
 1815WAT      O 5655   2.979   1.751   2.867
 1815WAT     H1 5656   3.013   1.795   2.945
 1815WAT     H2 5657   3.049   1.691   2.841
 1816WAT      O 5658   3.844   2.901   5.081
 1816WAT     H1 5659   3.868   2.814   5.050
 1816WAT     H2 5660   3.813   2.887   5.170
 1817WAT      O 5661   1.793   4.733   1.501
 1817WAT     H1 5662   1.869   4.688   1.465
 1817WAT     H2 5663   1.816   4.826   1.496
 1818WAT      O 5664   2.441   0.512   4.226
 1818WAT     H1 5665   2.428   0.489   4.135
 1818WAT     H2 5666   2.439   0.429   4.274
 1819WAT      O 5667   4.049   2.003   2.445
 1819WAT     H1 5668   4.015   2.035   2.528
 1819WAT     H2 5669   4.125   2.060   2.427
 1820WAT      O 5670   2.805   1.942   4.777
 1820WAT     H1 5671   2.817   1.885   4.701
 1820WAT     H2 5672   2.717   1.978   4.767
 1821WAT      O 5673   1.213   3.969   3.656
 1821WAT     H1 5674   1.137   3.966   3.713
 1821WAT     H2 5675   1.254   3.883   3.665
 1822WAT      O 5676   2.589   2.804   1.305
 1822WAT     H1 5677   2.583   2.838   1.394
 1822WAT     H2 5678   2.656   2.736   1.310
 1823WAT      O 5679   3.239   1.998   1.799
 1823WAT     H1 5680   3.151   1.966   1.782
 1823WAT     H2 5681   3.228   2.063   1.868
 1824WAT      O 5682   0.729   2.062   4.040
 1824WAT     H1 5683   0.788   1.994   4.007
 1824WAT     H2 5684   0.721   2.042   4.134
 1825WAT      O 5685   0.002   0.938   0.182
 1825WAT     H1 5686   0.036   1.017   0.227
 1825WAT     H2 5687  -0.011   0.965   0.092
 1826WAT      O 5688   1.037   2.607   4.828
 1826WAT     H1 5689   1.081   2.636   4.907
 1826WAT     H2 5690   1.017   2.688   4.780
 1827WAT      O 5691   1.924   1.411   1.350
 1827WAT     H1 5692   1.930   1.323   1.314
 1827WAT     H2 5693   2.014   1.433   1.375
 1828WAT      O 5694   0.930   3.053   3.245
 1828WAT     H1 5695   0.901   3.034   3.156
 1828WAT     H2 5696   0.986   2.979   3.269
 1829WAT      O 5697   1.384   2.212   0.105
 1829WAT     H1 5698   1.453   2.203   0.172
 1829WAT     H2 5699   1.339   2.293   0.128
 1830WAT      O 5700   0.809   4.770   4.233
 1830WAT     H1 5701   0.780   4.774   4.324
 1830WAT     H2 5702   0.874   4.840   4.226
 1831WAT      O 5703   0.951   4.075   0.327
 1831WAT     H1 5704   1.031   4.128   0.329
 1831WAT     H2 5705   0.982   3.985   0.331
 1832WAT      O 5706   2.744   1.037   1.373
 1832WAT     H1 5707   2.673   1.092   1.407
 1832WAT     H2 5708   2.741   0.958   1.424
 1833WAT      O 5709   1.901   3.689   2.326
 1833WAT     H1 5710   1.907   3.708   2.233
 1833WAT     H2 5711   1.958   3.613   2.339
 1834WAT      O 5712   0.640   5.061   4.943
 1834WAT     H1 5713   0.622   5.071   4.850
 1834WAT     H2 5714   0.705   5.129   4.962
 1835WAT      O 5715   2.134   3.028   1.012
 1835WAT     H1 5716   2.061   2.980   1.049
 1835WAT     H2 5717   2.130   3.009   0.918
 1836WAT      O 5718   4.121   2.303   5.257
 1836WAT     H1 5719   4.154   2.230   5.205
 1836WAT     H2 5720   4.166   2.296   5.341
 1837WAT      O 5721   1.337   4.094   2.463
 1837WAT     H1 5722   1.361   4.025   2.401
 1837WAT     H2 5723   1.408   4.095   2.527
 1838WAT      O 5724   3.146   0.777   0.745
 1838WAT     H1 5725   3.211   0.719   0.704
 1838WAT     H2 5726   3.073   0.778   0.684
 1839WAT      O 5727   1.001   2.744   2.513
 1839WAT     H1 5728   1.030   2.653   2.507
 1839WAT     H2 5729   0.911   2.742   2.479
 1840WAT      O 5730   0.379   2.659   2.314
 1840WAT     H1 5731   0.422   2.591   2.366
 1840WAT     H2 5732   0.371   2.620   2.227
 1841WAT      O 5733   2.770   5.139   0.003
 1841WAT     H1 5734   2.829   5.212   0.021
 1841WAT     H2 5735   2.710   5.137   0.078
 1842WAT      O 5736   0.146   2.697   1.798
 1842WAT     H1 5737   0.091   2.688   1.876
 1842WAT     H2 5738   0.231   2.726   1.832
 1843WAT      O 5739   4.081   1.131   0.213
 1843WAT     H1 5740   4.079   1.050   0.160
 1843WAT     H2 5741   4.092   1.100   0.303
 1844WAT      O 5742   2.450   1.361   4.961
 1844WAT     H1 5743   2.426   1.454   4.971
 1844WAT     H2 5744   2.411   1.336   4.878
 1845WAT      O 5745   1.696   0.811   2.331
 1845WAT     H1 5746   1.761   0.755   2.288
 1845WAT     H2 5747   1.747   0.884   2.367
 1846WAT      O 5748   0.477   2.339   4.925
 1846WAT     H1 5749   0.440   2.371   4.843
 1846WAT     H2 5750   0.499   2.247   4.907
 1847WAT      O 5751   0.317   0.058   0.509
 1847WAT     H1 5752   0.237   0.006   0.494
 1847WAT     H2 5753   0.360   0.012   0.581
 1848WAT      O 5754   4.438   4.381   4.727
 1848WAT     H1 5755   4.419   4.335   4.645
 1848WAT     H2 5756   4.386   4.461   4.722
 1849WAT      O 5757   0.103   4.103   0.403
 1849WAT     H1 5758   0.094   4.151   0.486
 1849WAT     H2 5759   0.186   4.057   0.411
 1850WAT      O 5760   1.483   0.852   4.717
 1850WAT     H1 5761   1.552   0.824   4.657
 1850WAT     H2 5762   1.529   0.895   4.789
 1851WAT      O 5763   0.382   0.653   1.100
 1851WAT     H1 5764   0.287   0.648   1.100
 1851WAT     H2 5765   0.404   0.719   1.164
 1852WAT      O 5766   3.033   2.423   4.655
 1852WAT     H1 5767   2.986   2.475   4.589
 1852WAT     H2 5768   3.091   2.486   4.698
 1853WAT      O 5769   3.284   2.935   1.783
 1853WAT     H1 5770   3.260   2.860   1.729
 1853WAT     H2 5771   3.256   3.011   1.732
 1854WAT      O 5772   3.632   3.010   0.823
 1854WAT     H1 5773   3.686   3.058   0.886
 1854WAT     H2 5774   3.546   3.052   0.828
 1855WAT      O 5775   2.010   2.453   4.791
 1855WAT     H1 5776   2.062   2.487   4.865
 1855WAT     H2 5777   1.976   2.369   4.823
 1856WAT      O 5778   2.812   0.994   4.931
 1856WAT     H1 5779   2.752   1.066   4.907
 1856WAT     H2 5780   2.895   1.039   4.949
 1857WAT      O 5781   1.085   3.143   3.890
 1857WAT     H1 5782   1.014   3.087   3.859
 1857WAT     H2 5783   1.098   3.117   3.982
 1858WAT      O 5784   1.772   4.393   1.927
 1858WAT     H1 5785   1.681   4.386   1.899
 1858WAT     H2 5786   1.767   4.409   2.022
 1859WAT      O 5787   3.515   1.792   4.978
 1859WAT     H1 5788   3.601   1.777   4.939
 1859WAT     H2 5789   3.458   1.728   4.936
 1860WAT      O 5790   2.734   3.782   3.867
 1860WAT     H1 5791   2.797   3.785   3.795
 1860WAT     H2 5792   2.745   3.865   3.913
 1861WAT      O 5793   0.857   0.029   2.567
 1861WAT     H1 5794   0.861  -0.007   2.656
 1861WAT     H2 5795   0.811  -0.037   2.516
 1862WAT      O 5796   4.521   3.020   1.125
 1862WAT     H1 5797   4.592   2.958   1.140
 1862WAT     H2 5798   4.463   2.976   1.063
 1863WAT      O 5799   4.368   3.443   1.924
 1863WAT     H1 5800   4.298   3.414   1.865
 1863WAT     H2 5801   4.438   3.379   1.910
 1864WAT      O 5802   2.518   5.100   3.222
 1864WAT     H1 5803   2.494   5.186   3.255
 1864WAT     H2 5804   2.505   5.041   3.296
 1865WAT      O 5805   3.316   4.834   4.159
 1865WAT     H1 5806   3.352   4.819   4.246
 1865WAT     H2 5807   3.314   4.747   4.118
 1866WAT      O 5808   0.650   0.593   0.470
 1866WAT     H1 5809   0.734   0.637   0.454
 1866WAT     H2 5810   0.656   0.510   0.420
 1867WAT      O 5811   1.534   5.095   1.018
 1867WAT     H1 5812   1.629   5.110   1.018
 1867WAT     H2 5813   1.500   5.157   0.954
 1868WAT      O 5814   4.449   0.635   3.367
 1868WAT     H1 5815   4.448   0.634   3.463
 1868WAT     H2 5816   4.434   0.727   3.345
 1869WAT      O 5817   1.535   2.643   4.794
 1869WAT     H1 5818   1.586   2.590   4.855
 1869WAT     H2 5819   1.457   2.591   4.776
 1870WAT      O 5820   1.458   4.457   2.996
 1870WAT     H1 5821   1.370   4.449   2.960
 1870WAT     H2 5822   1.508   4.502   2.928
 1871WAT      O 5823   4.136   0.111   1.319
 1871WAT     H1 5824   4.180   0.135   1.237
 1871WAT     H2 5825   4.088   0.031   1.298
 1872WAT      O 5826   3.747   2.865   1.935
 1872WAT     H1 5827   3.786   2.787   1.896
 1872WAT     H2 5828   3.671   2.884   1.881
 1873WAT      O 5829   2.317   5.094   4.938
 1873WAT     H1 5830   2.332   5.129   4.850
 1873WAT     H2 5831   2.375   5.017   4.943
 1874WAT      O 5832   2.442   4.437   2.442
 1874WAT     H1 5833   2.487   4.485   2.372
 1874WAT     H2 5834   2.479   4.349   2.437
 1875WAT      O 5835   4.151   0.780   4.892
 1875WAT     H1 5836   4.225   0.742   4.844
 1875WAT     H2 5837   4.187   0.859   4.933
 1876WAT      O 5838   0.680   3.096   1.064
 1876WAT     H1 5839   0.700   3.003   1.073
 1876WAT     H2 5840   0.709   3.119   0.976
 1877WAT      O 5841   2.714   4.955   3.892
 1877WAT     H1 5842   2.648   4.891   3.866
 1877WAT     H2 5843   2.749   4.922   3.975
 1878WAT      O 5844   4.109   2.040   0.661
 1878WAT     H1 5845   4.138   1.957   0.697
 1878WAT     H2 5846   4.034   2.066   0.715
 1879WAT      O 5847   3.140   4.606   3.158
 1879WAT     H1 5848   3.227   4.634   3.129
 1879WAT     H2 5849   3.120   4.531   3.101
 1880WAT      O 5850   1.902   1.037   1.808
 1880WAT     H1 5851   1.997   1.034   1.813
 1880WAT     H2 5852   1.873   0.987   1.884
 1881WAT      O 5853   2.832   2.769   4.309
 1881WAT     H1 5854   2.764   2.786   4.245
 1881WAT     H2 5855   2.785   2.756   4.391
 1882WAT      O 5856   1.137   1.885   3.458
 1882WAT     H1 5857   1.047   1.915   3.445
 1882WAT     H2 5858   1.129   1.790   3.468
 1883WAT      O 5859   4.481   0.555   3.667
 1883WAT     H1 5860   4.412   0.489   3.668
 1883WAT     H2 5861   4.563   0.504   3.663
 1884WAT      O 5862   4.160   3.327   4.500
 1884WAT     H1 5863   4.236   3.270   4.505
 1884WAT     H2 5864   4.153   3.349   4.407
 1885WAT      O 5865   0.688   5.071   0.404
 1885WAT     H1 5866   0.650   5.142   0.352
 1885WAT     H2 5867   0.716   5.114   0.485
 1886WAT      O 5868   4.328   1.350   0.136
 1886WAT     H1 5869   4.255   1.408   0.112
 1886WAT     H2 5870   4.404   1.387   0.093
 1887WAT      O 5871   3.017   4.205   4.494
 1887WAT     H1 5872   2.949   4.243   4.550
 1887WAT     H2 5873   3.099   4.241   4.528
 1888WAT      O 5874   2.021   5.118   0.649
 1888WAT     H1 5875   2.002   5.025   0.633
 1888WAT     H2 5876   2.040   5.123   0.742
 1889WAT      O 5877   0.239   3.107   4.757
 1889WAT     H1 5878   0.149   3.107   4.792
 1889WAT     H2 5879   0.233   3.155   4.675
 1890WAT      O 5880   0.240   3.042   5.093
 1890WAT     H1 5881   0.203   2.955   5.073
 1890WAT     H2 5882   0.312   3.024   5.153
 1891WAT      O 5883   3.516   5.126   5.153
 1891WAT     H1 5884   3.535   5.219   5.159
 1891WAT     H2 5885   3.475   5.115   5.067
 1892WAT      O 5886   1.158   3.651   5.172
 1892WAT     H1 5887   1.070   3.675   5.143
 1892WAT     H2 5888   1.153   3.653   5.267
 1893WAT      O 5889   2.623   2.502   1.539
 1893WAT     H1 5890   2.674   2.522   1.618
 1893WAT     H2 5891   2.592   2.413   1.552
 1894WAT      O 5892   3.596   0.234   5.143
 1894WAT     H1 5893   3.678   0.237   5.191
 1894WAT     H2 5894   3.607   0.296   5.071
 1895WAT      O 5895   0.939   3.097   4.487
 1895WAT     H1 5896   0.851   3.061   4.490
 1895WAT     H2 5897   0.957   3.110   4.394
 1896WAT      O 5898   2.307   3.983   0.226
 1896WAT     H1 5899   2.223   4.007   0.265
 1896WAT     H2 5900   2.320   4.044   0.154
 1897WAT      O 5901   3.958   2.152   3.728
 1897WAT     H1 5902   4.027   2.218   3.726
 1897WAT     H2 5903   3.979   2.093   3.655
 1898WAT      O 5904   3.872   0.163   2.638
 1898WAT     H1 5905   3.891   0.193   2.549
 1898WAT     H2 5906   3.901   0.235   2.694
 1899WAT      O 5907   4.189   1.211   3.499
 1899WAT     H1 5908   4.281   1.208   3.526
 1899WAT     H2 5909   4.142   1.165   3.569
 1900WAT      O 5910   1.028   3.009   2.563
 1900WAT     H1 5911   0.998   3.044   2.479
 1900WAT     H2 5912   1.039   2.915   2.546
 1901WAT      O 5913   3.529   2.856   3.825
 1901WAT     H1 5914   3.465   2.794   3.788
 1901WAT     H2 5915   3.492   2.878   3.911
 1902WAT      O 5916   2.114   2.273   0.622
 1902WAT     H1 5917   2.138   2.357   0.661
 1902WAT     H2 5918   2.021   2.264   0.643
 1903WAT      O 5919   1.387   2.661   0.032
 1903WAT     H1 5920   1.465   2.658  -0.024
 1903WAT     H2 5921   1.338   2.737   0.001
 1904WAT      O 5922   2.039   2.228   2.147
 1904WAT     H1 5923   1.967   2.260   2.093
 1904WAT     H2 5924   2.009   2.143   2.178
 1905WAT      O 5925   0.814   1.840   4.552
 1905WAT     H1 5926   0.727   1.872   4.575
 1905WAT     H2 5927   0.829   1.766   4.610
 1906WAT      O 5928   0.319   2.433   4.696
 1906WAT     H1 5929   0.225   2.451   4.695
 1906WAT     H2 5930   0.331   2.365   4.630
 1907WAT      O 5931   3.356   3.807   3.128
 1907WAT     H1 5932   3.438   3.856   3.137
 1907WAT     H2 5933   3.293   3.872   3.095
 1908WAT      O 5934   2.517   0.451   3.242
 1908WAT     H1 5935   2.531   0.512   3.170
 1908WAT     H2 5936   2.590   0.466   3.302
 1909WAT      O 5937   1.363   2.207   3.547
 1909WAT     H1 5938   1.379   2.199   3.453
 1909WAT     H2 5939   1.335   2.298   3.559
 1910WAT      O 5940   3.611   3.778   0.585
 1910WAT     H1 5941   3.600   3.847   0.519
 1910WAT     H2 5942   3.621   3.698   0.535
 1911WAT      O 5943   0.112   4.057   1.316
 1911WAT     H1 5944   0.121   4.074   1.410
 1911WAT     H2 5945   0.019   4.035   1.305
 1912WAT      O 5946   0.552   3.739   4.978
 1912WAT     H1 5947   0.473   3.774   5.019
 1912WAT     H2 5948   0.613   3.813   4.977
 1913WAT      O 5949   1.873   4.248   3.780
 1913WAT     H1 5950   1.827   4.252   3.863
 1913WAT     H2 5951   1.965   4.239   3.804
 1914WAT      O 5952   3.649   1.733   3.325
 1914WAT     H1 5953   3.580   1.674   3.297
 1914WAT     H2 5954   3.607   1.790   3.389
 1915WAT      O 5955   4.205   3.780   2.853
 1915WAT     H1 5956   4.222   3.859   2.802
 1915WAT     H2 5957   4.198   3.811   2.944
 1916WAT      O 5958   4.439   0.869   2.279
 1916WAT     H1 5959   4.464   0.795   2.333
 1916WAT     H2 5960   4.389   0.831   2.207
 1917WAT      O 5961   3.554   2.089   4.789
 1917WAT     H1 5962   3.464   2.074   4.762
 1917WAT     H2 5963   3.577   2.174   4.752
 1918WAT      O 5964   1.152   3.825   0.342
 1918WAT     H1 5965   1.153   3.747   0.397
 1918WAT     H2 5966   1.197   3.892   0.394
 1919WAT      O 5967   0.210   1.680   3.180
 1919WAT     H1 5968   0.197   1.606   3.121
 1919WAT     H2 5969   0.241   1.750   3.123
 1920WAT      O 5970   3.630   2.654   3.203
 1920WAT     H1 5971   3.554   2.657   3.145
 1920WAT     H2 5972   3.613   2.722   3.268
 1921WAT      O 5973   1.398   3.373   4.823
 1921WAT     H1 5974   1.345   3.325   4.886
 1921WAT     H2 5975   1.367   3.465   4.830
 1922WAT      O 5976   3.912   3.917   4.906
 1922WAT     H1 5977   3.958   3.968   4.973
 1922WAT     H2 5978   3.934   3.826   4.925
 1923WAT      O 5979   2.193   4.441   2.955
 1923WAT     H1 5980   2.257   4.453   2.886
 1923WAT     H2 5981   2.230   4.374   3.012
 1924WAT      O 5982   0.274   4.364   4.704
 1924WAT     H1 5983   0.223   4.298   4.752
 1924WAT     H2 5984   0.229   4.372   4.620
 1925WAT      O 5985   3.407   1.937   2.038
 1925WAT     H1 5986   3.458   1.861   2.067
 1925WAT     H2 5987   3.329   1.899   1.998
 1926WAT      O 5988   3.304   3.485   2.867
 1926WAT     H1 5989   3.224   3.434   2.862
 1926WAT     H2 5990   3.372   3.422   2.889
 1927WAT      O 5991   3.658   0.048   0.757
 1927WAT     H1 5992   3.614   0.053   0.842
 1927WAT     H2 5993   3.613  -0.023   0.711
 1928WAT      O 5994   0.772   3.266   2.506
 1928WAT     H1 5995   0.807   3.194   2.557
 1928WAT     H2 5996   0.692   3.291   2.551
 1929WAT      O 5997   1.729   3.509   3.521
 1929WAT     H1 5998   1.823   3.489   3.522
 1929WAT     H2 5999   1.695   3.468   3.601
 1930WAT      O 6000   2.169   4.357   3.883
 1930WAT     H1 6001   2.234   4.326   3.946
 1930WAT     H2 6002   2.126   4.430   3.926
 1931WAT      O 6003   2.432   0.546   2.393
 1931WAT     H1 6004   2.386   0.466   2.413
 1931WAT     H2 6005   2.450   0.540   2.299
 1932WAT      O 6006   1.217   2.885   2.335
 1932WAT     H1 6007   1.146   2.943   2.307
 1932WAT     H2 6008   1.273   2.941   2.389
 1933WAT      O 6009   0.294   0.311   0.355
 1933WAT     H1 6010   0.294   0.324   0.450
 1933WAT     H2 6011   0.315   0.219   0.343
 1934WAT      O 6012   3.280   0.456   0.246
 1934WAT     H1 6013   3.257   0.362   0.246
 1934WAT     H2 6014   3.360   0.461   0.195
 1935WAT      O 6015   4.316   3.691   0.445
 1935WAT     H1 6016   4.279   3.604   0.463
 1935WAT     H2 6017   4.277   3.748   0.511
 1936WAT      O 6018   2.072   1.821   1.041
 1936WAT     H1 6019   2.069   1.726   1.031
 1936WAT     H2 6020   2.161   1.845   1.017
 1937WAT      O 6021   0.779   4.530   3.685
 1937WAT     H1 6022   0.825   4.451   3.655
 1937WAT     H2 6023   0.687   4.512   3.667
 1938WAT      O 6024   1.267   3.539   1.724
 1938WAT     H1 6025   1.315   3.534   1.807
 1938WAT     H2 6026   1.244   3.632   1.716
 1939WAT      O 6027   4.020   4.309   1.069
 1939WAT     H1 6028   3.970   4.342   1.143
 1939WAT     H2 6029   4.042   4.219   1.093
 1940WAT      O 6030   2.981   2.732   0.782
 1940WAT     H1 6031   2.939   2.696   0.704
 1940WAT     H2 6032   3.066   2.688   0.787
 1941WAT      O 6033   2.487   3.175   4.758
 1941WAT     H1 6034   2.580   3.177   4.733
 1941WAT     H2 6035   2.447   3.244   4.704
 1942WAT      O 6036   2.693   2.479   4.353
 1942WAT     H1 6037   2.690   2.520   4.440
 1942WAT     H2 6038   2.603   2.489   4.320
 1943WAT      O 6039   2.673   1.659   5.040
 1943WAT     H1 6040   2.605   1.593   5.023
 1943WAT     H2 6041   2.745   1.609   5.078
 1944WAT      O 6042   4.180   3.428   3.169
 1944WAT     H1 6043   4.106   3.461   3.117
 1944WAT     H2 6044   4.177   3.333   3.157
 1945WAT      O 6045   3.558   0.944   0.708
 1945WAT     H1 6046   3.564   0.855   0.674
 1945WAT     H2 6047   3.477   0.978   0.671
 1946WAT      O 6048   3.986   5.113   1.719
 1946WAT     H1 6049   3.896   5.102   1.688
 1946WAT     H2 6050   4.030   5.031   1.697
 1947WAT      O 6051   4.217   2.869   1.592
 1947WAT     H1 6052   4.298   2.829   1.620
 1947WAT     H2 6053   4.241   2.921   1.515
 1948WAT      O 6054   3.409   5.087   4.071
 1948WAT     H1 6055   3.334   5.115   4.019
 1948WAT     H2 6056   3.380   5.007   4.114
 1949WAT      O 6057   3.911   3.455   4.748
 1949WAT     H1 6058   3.908   3.543   4.710
 1949WAT     H2 6059   3.840   3.407   4.704
 1950WAT      O 6060   2.386   3.297   5.005
 1950WAT     H1 6061   2.429   3.258   4.930
 1950WAT     H2 6062   2.421   3.386   5.010
 1951WAT      O 6063   3.979   1.547   2.954
 1951WAT     H1 6064   4.008   1.458   2.932
 1951WAT     H2 6065   3.963   1.544   3.049
 1952WAT      O 6066   3.615   2.633   4.692
 1952WAT     H1 6067   3.692   2.689   4.706
 1952WAT     H2 6068   3.589   2.650   4.602
 1953WAT      O 6069   4.352   1.828   2.723
 1953WAT     H1 6070   4.343   1.771   2.647
 1953WAT     H2 6071   4.270   1.817   2.771
 1954WAT      O 6072   2.773   3.056   0.760
 1954WAT     H1 6073   2.771   3.017   0.848
 1954WAT     H2 6074   2.796   3.148   0.776
 1955WAT      O 6075   1.438   3.592   5.111
 1955WAT     H1 6076   1.362   3.641   5.144
 1955WAT     H2 6077   1.420   3.501   5.135
 1956WAT      O 6078   3.435   1.438   1.226
 1956WAT     H1 6079   3.407   1.348   1.223
 1956WAT     H2 6080   3.397   1.473   1.307
 1957WAT      O 6081   3.566   4.411   2.009
 1957WAT     H1 6082   3.493   4.443   2.062
 1957WAT     H2 6083   3.540   4.430   1.919
 1958WAT      O 6084   3.679   5.144   0.398
 1958WAT     H1 6085   3.655   5.085   0.470
 1958WAT     H2 6086   3.748   5.097   0.352
 1959WAT      O 6087   2.626   3.529   4.248
 1959WAT     H1 6088   2.655   3.603   4.301
 1959WAT     H2 6089   2.697   3.465   4.254
 1960WAT      O 6090   0.012   2.039   0.007
 1960WAT     H1 6091  -0.037   2.040  -0.075
 1960WAT     H2 6092   0.082   1.975  -0.009
 1961WAT      O 6093   1.237   2.013   3.679
 1961WAT     H1 6094   1.195   1.984   3.598
 1961WAT     H2 6095   1.292   2.087   3.654
 1962WAT      O 6096   3.368   0.342   0.784
 1962WAT     H1 6097   3.354   0.309   0.695
 1962WAT     H2 6098   3.417   0.423   0.771
 1963WAT      O 6099   0.676   3.882   3.701
 1963WAT     H1 6100   0.683   3.887   3.605
 1963WAT     H2 6101   0.654   3.790   3.718
 1964WAT      O 6102   1.860   2.909   3.009
 1964WAT     H1 6103   1.783   2.966   3.013
 1964WAT     H2 6104   1.861   2.878   2.918
 1965WAT      O 6105   0.122   1.019   1.155
 1965WAT     H1 6106   0.108   1.109   1.182
 1965WAT     H2 6107   0.095   1.016   1.064
 1966WAT      O 6108   4.419   1.631   1.774
 1966WAT     H1 6109   4.339   1.629   1.826
 1966WAT     H2 6110   4.405   1.700   1.710
 1967WAT      O 6111   2.628   3.942   5.113
 1967WAT     H1 6112   2.666   3.889   5.043
 1967WAT     H2 6113   2.703   3.977   5.161
 1968WAT      O 6114   0.240   1.606   5.205
 1968WAT     H1 6115   0.327   1.581   5.236
 1968WAT     H2 6116   0.232   1.566   5.119
 1969WAT      O 6117   4.484   1.536   0.701
 1969WAT     H1 6118   4.401   1.494   0.677
 1969WAT     H2 6119   4.548   1.465   0.693
 1970WAT      O 6120   2.212   1.197   1.991
 1970WAT     H1 6121   2.151   1.131   2.024
 1970WAT     H2 6122   2.159   1.251   1.933
 1971WAT      O 6123   3.247   2.539   3.085
 1971WAT     H1 6124   3.159   2.562   3.056
 1971WAT     H2 6125   3.235   2.463   3.143
 1972WAT      O 6126   0.488   0.795   4.841
 1972WAT     H1 6127   0.568   0.760   4.802
 1972WAT     H2 6128   0.491   0.889   4.822
 1973WAT      O 6129   2.281   2.993   4.843
 1973WAT     H1 6130   2.351   3.056   4.825
 1973WAT     H2 6131   2.248   2.968   4.756
 1974WAT      O 6132   3.917   3.163   3.997
 1974WAT     H1 6133   3.969   3.088   3.967
 1974WAT     H2 6134   3.850   3.125   4.054
 1975WAT      O 6135   1.795   2.485   0.615
 1975WAT     H1 6136   1.710   2.529   0.617
 1975WAT     H2 6137   1.788   2.416   0.681
 1976WAT      O 6138   4.111   3.381   1.008
 1976WAT     H1 6139   4.113   3.285   1.009
 1976WAT     H2 6140   4.021   3.404   1.031
 1977WAT      O 6141   1.881   2.830   3.687
 1977WAT     H1 6142   1.814   2.802   3.750
 1977WAT     H2 6143   1.916   2.749   3.651
 1978WAT      O 6144   3.087   4.527   3.985
 1978WAT     H1 6145   3.122   4.442   4.012
 1978WAT     H2 6146   3.033   4.555   4.059
 1979WAT      O 6147   2.416   0.957   4.540
 1979WAT     H1 6148   2.501   0.997   4.555
 1979WAT     H2 6149   2.427   0.907   4.459
 1980WAT      O 6150   3.519   0.844   0.284
 1980WAT     H1 6151   3.614   0.862   0.283
 1980WAT     H2 6152   3.482   0.917   0.233
 1981WAT      O 6153   2.797   2.054   3.716
 1981WAT     H1 6154   2.704   2.035   3.706
 1981WAT     H2 6155   2.835   1.971   3.747
 1982WAT      O 6156   0.108   4.965   5.082
 1982WAT     H1 6157   0.161   4.887   5.066
 1982WAT     H2 6158   0.051   4.940   5.155
 1983WAT      O 6159   0.898   2.878   5.076
 1983WAT     H1 6160   0.893   2.966   5.040
 1983WAT     H2 6161   0.835   2.828   5.025
 1984WAT      O 6162   2.113   4.853   2.494
 1984WAT     H1 6163   2.085   4.939   2.527
 1984WAT     H2 6164   2.037   4.797   2.509
 1985WAT      O 6165   1.021   2.601   0.125
 1985WAT     H1 6166   1.033   2.600   0.220
 1985WAT     H2 6167   1.005   2.693   0.104
 1986WAT      O 6168   2.247   2.135   1.058
 1986WAT     H1 6169   2.192   2.087   1.120
 1986WAT     H2 6170   2.243   2.083   0.978
 1987WAT      O 6171   4.279   0.132   0.686
 1987WAT     H1 6172   4.325   0.163   0.764
 1987WAT     H2 6173   4.223   0.061   0.719
 1988WAT      O 6174   3.936   0.234   1.468
 1988WAT     H1 6175   3.924   0.328   1.452
 1988WAT     H2 6176   3.991   0.204   1.396
 1989WAT      O 6177   1.522   4.640   2.738
 1989WAT     H1 6178   1.607   4.679   2.759
 1989WAT     H2 6179   1.544   4.564   2.683
 1990WAT      O 6180   2.829   4.020   0.422
 1990WAT     H1 6181   2.859   3.972   0.345
 1990WAT     H2 6182   2.744   4.056   0.396
 1991WAT      O 6183   1.049   0.698   0.697
 1991WAT     H1 6184   0.956   0.676   0.695
 1991WAT     H2 6185   1.092   0.617   0.724
 1992WAT      O 6186   3.823   2.029   1.781
 1992WAT     H1 6187   3.727   2.025   1.781
 1992WAT     H2 6188   3.844   2.106   1.834
 1993WAT      O 6189   0.595   0.019   3.281
 1993WAT     H1 6190   0.545  -0.061   3.264
 1993WAT     H2 6191   0.573   0.077   3.207
 1994WAT      O 6192   0.735   0.658   0.745
 1994WAT     H1 6193   0.712   0.597   0.674
 1994WAT     H2 6194   0.652   0.698   0.768
 1995WAT      O 6195   0.103   0.907   0.848
 1995WAT     H1 6196   0.181   0.873   0.803
 1995WAT     H2 6197   0.068   0.974   0.790
 1996WAT      O 6198   4.133   3.072   4.162
 1996WAT     H1 6199   4.077   3.025   4.101
 1996WAT     H2 6200   4.072   3.110   4.226
 1997WAT      O 6201   3.368   0.405   4.726
 1997WAT     H1 6202   3.374   0.310   4.738
 1997WAT     H2 6203   3.302   0.433   4.789
 1998WAT      O 6204   3.549   2.158   4.093
 1998WAT     H1 6205   3.458   2.181   4.072
 1998WAT     H2 6206   3.601   2.226   4.050
 1999WAT      O 6207   0.418   2.330   0.736
 1999WAT     H1 6208   0.362   2.263   0.696
 1999WAT     H2 6209   0.490   2.281   0.776
 2000WAT      O 6210   0.095   1.023   3.342
 2000WAT     H1 6211   0.024   0.987   3.291
 2000WAT     H2 6212   0.170   0.965   3.323
 2001WAT      O 6213   3.428   1.053   5.243
 2001WAT     H1 6214   3.345   1.070   5.198
 2001WAT     H2 6215   3.421   1.103   5.324
 2002WAT      O 6216   0.425   3.734   1.503
 2002WAT     H1 6217   0.497   3.794   1.485
 2002WAT     H2 6218   0.386   3.716   1.418
 2003WAT      O 6219   0.267   1.269   2.142
 2003WAT     H1 6220   0.302   1.283   2.054
 2003WAT     H2 6221   0.215   1.188   2.134
 2004WAT      O 6222   0.959   3.640   3.950
 2004WAT     H1 6223   1.011   3.577   3.900
 2004WAT     H2 6224   0.890   3.587   3.990
 2005WAT      O 6225   2.071   3.022   3.101
 2005WAT     H1 6226   2.046   3.110   3.125
 2005WAT     H2 6227   1.992   2.985   3.060
 2006WAT      O 6228   0.547   3.399   0.178
 2006WAT     H1 6229   0.614   3.431   0.117
 2006WAT     H2 6230   0.573   3.308   0.196
 2007WAT      O 6231   1.264   4.591   0.644
 2007WAT     H1 6232   1.268   4.685   0.662
 2007WAT     H2 6233   1.176   4.578   0.608
 2008WAT      O 6234   4.282   2.911   0.730
 2008WAT     H1 6235   4.321   2.979   0.785
 2008WAT     H2 6236   4.304   2.936   0.641
 2009WAT      O 6237   1.177   3.807   1.729
 2009WAT     H1 6238   1.186   3.867   1.655
 2009WAT     H2 6239   1.168   3.865   1.805
 2010WAT      O 6240   0.646   4.127   3.432
 2010WAT     H1 6241   0.741   4.130   3.442
 2010WAT     H2 6242   0.629   4.179   3.354
 2011WAT      O 6243   2.642   3.599   1.414
 2011WAT     H1 6244   2.564   3.650   1.437
 2011WAT     H2 6245   2.608   3.518   1.376
 2012WAT      O 6246   2.910   1.340   2.274
 2012WAT     H1 6247   2.841   1.317   2.211
 2012WAT     H2 6248   2.903   1.434   2.284
 2013WAT      O 6249   1.054  -0.005   1.049
 2013WAT     H1 6250   1.138   0.005   1.003
 2013WAT     H2 6251   1.004   0.073   1.026
 2014WAT      O 6252   2.001   5.118   2.794
 2014WAT     H1 6253   1.929   5.109   2.857
 2014WAT     H2 6254   2.061   5.046   2.816
 2015WAT      O 6255   1.126   3.436   3.878
 2015WAT     H1 6256   1.096   3.346   3.868
 2015WAT     H2 6257   1.215   3.428   3.911
 2016WAT      O 6258   2.124   4.879   1.605
 2016WAT     H1 6259   2.083   4.802   1.564
 2016WAT     H2 6260   2.085   4.953   1.559
 2017WAT      O 6261   0.522   4.397   1.188
 2017WAT     H1 6262   0.609   4.357   1.180
 2017WAT     H2 6263   0.471   4.358   1.117
 2018WAT      O 6264   0.874   2.560   2.008
 2018WAT     H1 6265   0.820   2.545   1.931
 2018WAT     H2 6266   0.820   2.532   2.082
 2019WAT      O 6267   3.527   1.577   0.805
 2019WAT     H1 6268   3.610   1.568   0.851
 2019WAT     H2 6269   3.547   1.553   0.714
 2020WAT      O 6270   1.744   0.663   0.828
 2020WAT     H1 6271   1.703   0.719   0.762
 2020WAT     H2 6272   1.818   0.622   0.782
 2021WAT      O 6273   4.191   4.382   2.605
 2021WAT     H1 6274   4.152   4.452   2.657
 2021WAT     H2 6275   4.283   4.380   2.632
 2022WAT      O 6276   2.308   0.680   0.519
 2022WAT     H1 6277   2.323   0.762   0.474
 2022WAT     H2 6278   2.392   0.635   0.516
 2023WAT      O 6279   2.273   1.855   4.207
 2023WAT     H1 6280   2.300   1.774   4.164
 2023WAT     H2 6281   2.193   1.881   4.162
 2024WAT      O 6282   1.468   3.008   4.539
 2024WAT     H1 6283   1.518   3.072   4.590
 2024WAT     H2 6284   1.395   2.984   4.596
 2025WAT      O 6285   1.013   0.655   0.159
 2025WAT     H1 6286   0.987   0.699   0.078
 2025WAT     H2 6287   1.079   0.591   0.132
 2026WAT      O 6288   1.545   3.043   1.861
 2026WAT     H1 6289   1.577   2.995   1.784
 2026WAT     H2 6290   1.452   3.056   1.843
 2027WAT      O 6291   0.517   1.681   3.231
 2027WAT     H1 6292   0.427   1.669   3.262
 2027WAT     H2 6293   0.524   1.622   3.156
 2028WAT      O 6294   4.232   0.967   1.522
 2028WAT     H1 6295   4.229   0.908   1.446
 2028WAT     H2 6296   4.324   0.994   1.528
 2029WAT      O 6297   3.054   4.844   0.483
 2029WAT     H1 6298   3.143   4.864   0.454
 2029WAT     H2 6299   3.000   4.857   0.405
 2030WAT      O 6300   2.155   3.828   5.133
 2030WAT     H1 6301   2.232   3.788   5.174
 2030WAT     H2 6302   2.084   3.812   5.196
 2031WAT      O 6303   3.715   3.704   0.121
 2031WAT     H1 6304   3.754   3.739   0.041
 2031WAT     H2 6305   3.657   3.634   0.091
 2032WAT      O 6306   1.660   0.249   4.471
 2032WAT     H1 6307   1.591   0.257   4.537
 2032WAT     H2 6308   1.702   0.165   4.489
 2033WAT      O 6309   0.692   4.198   0.383
 2033WAT     H1 6310   0.772   4.174   0.337
 2033WAT     H2 6311   0.653   4.115   0.409
 2034WAT      O 6312   0.503   2.416   2.856
 2034WAT     H1 6313   0.500   2.396   2.763
 2034WAT     H2 6314   0.428   2.474   2.871
 2035WAT      O 6315   1.708   0.461   1.012
 2035WAT     H1 6316   1.730   0.504   1.095
 2035WAT     H2 6317   1.675   0.532   0.957
 2036WAT      O 6318   2.237   2.391   0.961
 2036WAT     H1 6319   2.320   2.433   0.941
 2036WAT     H2 6320   2.260   2.309   1.005
 2037WAT      O 6321   3.403   4.330   1.603
 2037WAT     H1 6322   3.444   4.399   1.656
 2037WAT     H2 6323   3.314   4.324   1.637
 2038WAT      O 6324   2.734   4.916   1.487
 2038WAT     H1 6325   2.802   4.942   1.424
 2038WAT     H2 6326   2.778   4.920   1.572
 2039WAT      O 6327   2.651   1.402   1.771
 2039WAT     H1 6328   2.743   1.421   1.751
 2039WAT     H2 6329   2.648   1.397   1.867
 2040WAT      O 6330   3.458   2.930   4.742
 2040WAT     H1 6331   3.542   2.941   4.697
 2040WAT     H2 6332   3.482   2.912   4.833
 2041WAT      O 6333   1.118   4.010   1.568
 2041WAT     H1 6334   1.154   4.096   1.591
 2041WAT     H2 6335   1.158   3.990   1.483
 2042WAT      O 6336   2.990   1.678   1.783
 2042WAT     H1 6337   3.081   1.665   1.810
 2042WAT     H2 6338   2.943   1.698   1.864
 2043WAT      O 6339   3.624   4.922   4.750
 2043WAT     H1 6340   3.573   4.930   4.830
 2043WAT     H2 6341   3.667   5.007   4.740
 2044WAT      O 6342   0.301   4.574   0.860
 2044WAT     H1 6343   0.257   4.494   0.888
 2044WAT     H2 6344   0.388   4.569   0.900
 2045WAT      O 6345   2.883   3.615   1.527
 2045WAT     H1 6346   2.960   3.650   1.481
 2045WAT     H2 6347   2.817   3.604   1.458
 2046WAT      O 6348   3.087   3.066   1.596
 2046WAT     H1 6349   3.010   3.062   1.652
 2046WAT     H2 6350   3.105   3.160   1.587
 2047WAT      O 6351   4.334   0.308   1.809
 2047WAT     H1 6352   4.266   0.290   1.744
 2047WAT     H2 6353   4.330   0.234   1.870
 2048WAT      O 6354   3.367   1.020   2.355
 2048WAT     H1 6355   3.361   1.116   2.345
 2048WAT     H2 6356   3.455   1.000   2.324
 2049WAT      O 6357   1.186   2.043   0.411
 2049WAT     H1 6358   1.217   1.994   0.487
 2049WAT     H2 6359   1.098   2.010   0.395
 2050WAT      O 6360   2.382   0.346   1.580
 2050WAT     H1 6361   2.443   0.278   1.549
 2050WAT     H2 6362   2.295   0.308   1.563
 2051WAT      O 6363   4.465   3.102   4.768
 2051WAT     H1 6364   4.471   3.195   4.746
 2051WAT     H2 6365   4.439   3.101   4.861
 2052WAT      O 6366   3.234   1.369   0.625
 2052WAT     H1 6367   3.271   1.392   0.710
 2052WAT     H2 6368   3.250   1.445   0.570
 2053WAT      O 6369   1.826   1.948   1.104
 2053WAT     H1 6370   1.879   1.885   1.056
 2053WAT     H2 6371   1.879   2.028   1.105
 2054WAT      O 6372   0.095   4.846   2.107
 2054WAT     H1 6373   0.082   4.872   2.198
 2054WAT     H2 6374   0.179   4.801   2.107
 2055WAT      O 6375   1.653   3.737   4.067
 2055WAT     H1 6376   1.651   3.720   4.161
 2055WAT     H2 6377   1.698   3.821   4.058
 2056WAT      O 6378   2.513   4.157   4.477
 2056WAT     H1 6379   2.432   4.209   4.473
 2056WAT     H2 6380   2.507   4.111   4.561
 2057WAT      O 6381   0.186   3.354   2.465
 2057WAT     H1 6382   0.225   3.287   2.409
 2057WAT     H2 6383   0.108   3.383   2.418
 2058WAT      O 6384   0.671   3.957   1.453
 2058WAT     H1 6385   0.595   3.944   1.398
 2058WAT     H2 6386   0.712   4.036   1.419
 2059WAT      O 6387   2.244   0.678   4.498
 2059WAT     H1 6388   2.228   0.698   4.405
 2059WAT     H2 6389   2.207   0.591   4.511
 2060WAT      O 6390   1.852   0.838   5.090
 2060WAT     H1 6391   1.810   0.915   5.051
 2060WAT     H2 6392   1.893   0.793   5.016
 2061WAT      O 6393   3.258   5.092   4.447
 2061WAT     H1 6394   3.317   5.154   4.404
 2061WAT     H2 6395   3.286   5.006   4.416
 2062WAT      O 6396   0.114   0.792   2.825
 2062WAT     H1 6397   0.172   0.856   2.866
 2062WAT     H2 6398   0.100   0.824   2.736
 2063WAT      O 6399   1.592   5.146   1.397
 2063WAT     H1 6400   1.582   5.074   1.459
 2063WAT     H2 6401   1.503   5.165   1.368
 2064WAT      O 6402   3.368   0.313   3.901
 2064WAT     H1 6403   3.373   0.285   3.992
 2064WAT     H2 6404   3.280   0.287   3.872
 2065WAT      O 6405   1.034   2.122   4.975
 2065WAT     H1 6406   1.028   2.209   4.935
 2065WAT     H2 6407   1.090   2.135   5.052
 2066WAT      O 6408   0.698   1.289   4.964
 2066WAT     H1 6409   0.759   1.264   4.894
 2066WAT     H2 6410   0.729   1.241   5.041
 2067WAT      O 6411   1.998   4.642   1.107
 2067WAT     H1 6412   1.945   4.571   1.144
 2067WAT     H2 6413   2.077   4.642   1.161
 2068WAT      O 6414   1.553   1.247   4.008
 2068WAT     H1 6415   1.470   1.269   3.966
 2068WAT     H2 6416   1.542   1.274   4.099
 2069WAT      O 6417   2.763   2.871   0.548
 2069WAT     H1 6418   2.856   2.866   0.573
 2069WAT     H2 6419   2.728   2.944   0.599
 2070WAT      O 6420   2.120   4.496   0.876
 2070WAT     H1 6421   2.096   4.553   0.949
 2070WAT     H2 6422   2.178   4.430   0.914
 2071WAT      O 6423   0.999   4.858   3.323
 2071WAT     H1 6424   1.095   4.853   3.328
 2071WAT     H2 6425   0.969   4.797   3.390
 2072WAT      O 6426   0.703   0.395   3.521
 2072WAT     H1 6427   0.685   0.449   3.443
 2072WAT     H2 6428   0.634   0.420   3.583
 2073WAT      O 6429   3.256   3.946   1.601
 2073WAT     H1 6430   3.319   4.003   1.645
 2073WAT     H2 6431   3.245   3.872   1.661
 2074WAT      O 6432   1.476   3.199   3.968
 2074WAT     H1 6433   1.451   3.197   3.876
 2074WAT     H2 6434   1.436   3.279   4.003
 2075WAT      O 6435   4.185   4.439   0.058
 2075WAT     H1 6436   4.146   4.463  -0.026
 2075WAT     H2 6437   4.279   4.439   0.041
 2076WAT      O 6438   0.567   4.558   0.950
 2076WAT     H1 6439   0.580   4.475   0.997
 2076WAT     H2 6440   0.645   4.568   0.897
 2077WAT      O 6441   2.004   3.404   2.274
 2077WAT     H1 6442   1.923   3.428   2.229
 2077WAT     H2 6443   1.982   3.405   2.367
 2078WAT      O 6444   3.461   3.169   2.690
 2078WAT     H1 6445   3.519   3.183   2.615
 2078WAT     H2 6446   3.484   3.241   2.750
 2079WAT      O 6447   4.476   4.584   4.283
 2079WAT     H1 6448   4.509   4.673   4.276
 2079WAT     H2 6449   4.544   4.530   4.244
 2080WAT      O 6450   0.512   2.512   3.528
 2080WAT     H1 6451   0.418   2.515   3.544
 2080WAT     H2 6452   0.539   2.604   3.529
 2081WAT      O 6453   2.372   0.077   5.275
 2081WAT     H1 6454   2.376   0.170   5.301
 2081WAT     H2 6455   2.289   0.046   5.311
 2082WAT      O 6456   0.958   3.235   4.204
 2082WAT     H1 6457   0.922   3.317   4.170
 2082WAT     H2 6458   0.897   3.168   4.173
 2083WAT      O 6459   0.150   2.422   0.285
 2083WAT     H1 6460   0.062   2.457   0.286
 2083WAT     H2 6461   0.206   2.498   0.272
 2084WAT      O 6462   1.648   2.192   4.465
 2084WAT     H1 6463   1.725   2.137   4.481
 2084WAT     H2 6464   1.642   2.248   4.542
 2085WAT      O 6465   0.720   3.445   0.600
 2085WAT     H1 6466   0.776   3.425   0.524
 2085WAT     H2 6467   0.653   3.504   0.565
 2086WAT      O 6468   0.772   4.208   1.419
 2086WAT     H1 6469   0.792   4.218   1.326
 2086WAT     H2 6470   0.853   4.231   1.463
 2087WAT      O 6471   0.013   1.923   0.909
 2087WAT     H1 6472   0.033   1.884   0.824
 2087WAT     H2 6473   0.056   2.007   0.907
 2088WAT      O 6474   1.895   0.647   3.666
 2088WAT     H1 6475   1.848   0.698   3.732
 2088WAT     H2 6476   1.974   0.617   3.711
 2089WAT      O 6477   1.940   3.393   2.530
 2089WAT     H1 6478   1.920   3.300   2.538
 2089WAT     H2 6479   1.859   3.437   2.555
 2090WAT      O 6480   0.023   2.515   1.122
 2090WAT     H1 6481  -0.034   2.446   1.156
 2090WAT     H2 6482   0.096   2.519   1.185
 2091WAT      O 6483   1.161   0.047   5.227
 2091WAT     H1 6484   1.107   0.109   5.179
 2091WAT     H2 6485   1.108  -0.032   5.233
 2092WAT      O 6486   0.792   3.825   3.395
 2092WAT     H1 6487   0.698   3.821   3.380
 2092WAT     H2 6488   0.821   3.734   3.394
 2093WAT      O 6489   2.693   1.299   0.508
 2093WAT     H1 6490   2.693   1.233   0.577
 2093WAT     H2 6491   2.783   1.331   0.507
 2094WAT      O 6492   0.617   3.266   1.745
 2094WAT     H1 6493   0.665   3.335   1.699
 2094WAT     H2 6494   0.652   3.267   1.834
 2095WAT      O 6495   0.764   1.983   4.313
 2095WAT     H1 6496   0.707   1.925   4.262
 2095WAT     H2 6497   0.785   1.933   4.391
 2096WAT      O 6498   1.095   1.103   0.878
 2096WAT     H1 6499   1.141   1.040   0.934
 2096WAT     H2 6500   1.165   1.152   0.834
 2097WAT      O 6501   3.944   1.713   1.614
 2097WAT     H1 6502   4.028   1.739   1.575
 2097WAT     H2 6503   3.938   1.619   1.596
 2098WAT      O 6504   1.882   0.444   3.912
 2098WAT     H1 6505   1.908   0.504   3.982
 2098WAT     H2 6506   1.811   0.392   3.950
 2099WAT      O 6507   2.792   0.844   3.981
 2099WAT     H1 6508   2.748   0.773   3.936
 2099WAT     H2 6509   2.722   0.902   4.011
 2100WAT      O 6510   3.597   4.846   3.256
 2100WAT     H1 6511   3.630   4.816   3.172
 2100WAT     H2 6512   3.632   4.934   3.267
 2101WAT      O 6513   2.952   3.468   4.643
 2101WAT     H1 6514   2.967   3.520   4.564
 2101WAT     H2 6515   2.997   3.386   4.626
 2102WAT      O 6516   1.439   1.559   2.616
 2102WAT     H1 6517   1.390   1.506   2.553
 2102WAT     H2 6518   1.531   1.544   2.593
 2103WAT      O 6519   1.750   2.830   4.603
 2103WAT     H1 6520   1.714   2.754   4.650
 2103WAT     H2 6521   1.827   2.855   4.654
 2104WAT      O 6522   3.183   0.571   3.790
 2104WAT     H1 6523   3.100   0.542   3.755
 2104WAT     H2 6524   3.186   0.665   3.768
 2105WAT      O 6525   0.955   0.905   1.895
 2105WAT     H1 6526   0.890   0.971   1.912
 2105WAT     H2 6527   0.920   0.855   1.821
 2106WAT      O 6528   0.413   1.330   1.881
 2106WAT     H1 6529   0.330   1.378   1.875
 2106WAT     H2 6530   0.392   1.241   1.849
 2107WAT      O 6531   0.164   3.140   2.076
 2107WAT     H1 6532   0.164   3.050   2.111
 2107WAT     H2 6533   0.082   3.147   2.028
 2108WAT      O 6534   2.043   4.645   1.458
 2108WAT     H1 6535   2.107   4.621   1.391
 2108WAT     H2 6536   2.041   4.570   1.517
 2109WAT      O 6537   4.431   0.727   0.941
 2109WAT     H1 6538   4.504   0.785   0.918
 2109WAT     H2 6539   4.353   0.780   0.926
 2110WAT      O 6540   4.525   3.881   0.274
 2110WAT     H1 6541   4.448   3.835   0.308
 2110WAT     H2 6542   4.533   3.958   0.331
 2111WAT      O 6543   1.693   4.756   1.256
 2111WAT     H1 6544   1.724   4.745   1.346
 2111WAT     H2 6545   1.709   4.672   1.214
 2112WAT      O 6546   3.482   4.545   1.768
 2112WAT     H1 6547   3.407   4.569   1.822
 2112WAT     H2 6548   3.541   4.620   1.774
 2113WAT      O 6549   4.311   3.756   0.945
 2113WAT     H1 6550   4.280   3.690   1.007
 2113WAT     H2 6551   4.391   3.791   0.986
 2114WAT      O 6552   2.356   4.791   4.381
 2114WAT     H1 6553   2.344   4.833   4.296
 2114WAT     H2 6554   2.443   4.753   4.378
 2115WAT      O 6555   0.542   1.113   1.341
 2115WAT     H1 6556   0.625   1.067   1.328
 2115WAT     H2 6557   0.540   1.132   1.435
 2116WAT      O 6558   1.527   3.553   0.690
 2116WAT     H1 6559   1.511   3.646   0.678
 2116WAT     H2 6560   1.591   3.531   0.622
 2117WAT      O 6561   2.206   4.577   1.744
 2117WAT     H1 6562   2.200   4.587   1.839
 2117WAT     H2 6563   2.154   4.649   1.709
 2118WAT      O 6564   3.967   4.215   3.696
 2118WAT     H1 6565   4.062   4.207   3.705
 2118WAT     H2 6566   3.953   4.302   3.659
 2119WAT      O 6567   4.388   4.367   3.598
 2119WAT     H1 6568   4.351   4.297   3.652
 2119WAT     H2 6569   4.440   4.419   3.660
 2120WAT      O 6570   1.681   0.211   0.916
 2120WAT     H1 6571   1.709   0.153   0.987
 2120WAT     H2 6572   1.682   0.298   0.955
 2121WAT      O 6573   0.332   2.465   5.261
 2121WAT     H1 6574   0.358   2.373   5.257
 2121WAT     H2 6575   0.305   2.479   5.351
 2122WAT      O 6576   2.735   0.520   4.220
 2122WAT     H1 6577   2.774   0.563   4.295
 2122WAT     H2 6578   2.641   0.522   4.236
 2123WAT      O 6579   1.731   2.766   1.306
 2123WAT     H1 6580   1.691   2.696   1.254
 2123WAT     H2 6581   1.667   2.784   1.375
 2124WAT      O 6582   4.313   0.759   2.073
 2124WAT     H1 6583   4.404   0.747   2.047
 2124WAT     H2 6584   4.262   0.727   1.998
 2125WAT      O 6585   1.500   0.581   2.678
 2125WAT     H1 6586   1.501   0.495   2.722
 2125WAT     H2 6587   1.500   0.645   2.749
 2126WAT      O 6588   4.076   1.325   5.066
 2126WAT     H1 6589   4.074   1.419   5.043
 2126WAT     H2 6590   4.082   1.323   5.161
 2127WAT      O 6591   1.483   5.116   0.199
 2127WAT     H1 6592   1.516   5.035   0.160
 2127WAT     H2 6593   1.548   5.182   0.175
 2128WAT      O 6594   1.441   0.719   2.459
 2128WAT     H1 6595   1.518   0.764   2.425
 2128WAT     H2 6596   1.474   0.665   2.530
 2129WAT      O 6597   4.478   0.520   2.044
 2129WAT     H1 6598   4.413   0.456   2.017
 2129WAT     H2 6599   4.524   0.543   1.963
 2130WAT      O 6600   1.314   0.716   0.149
 2130WAT     H1 6601   1.333   0.627   0.118
 2130WAT     H2 6602   1.394   0.765   0.130
 2131WAT      O 6603   2.437   3.774   1.484
 2131WAT     H1 6604   2.426   3.866   1.462
 2131WAT     H2 6605   2.360   3.731   1.446
 2132WAT      O 6606   2.711   2.756   1.767
 2132WAT     H1 6607   2.800   2.769   1.735
 2132WAT     H2 6608   2.657   2.812   1.711
 2133WAT      O 6609   4.009   2.813   0.770
 2133WAT     H1 6610   4.096   2.853   0.774
 2133WAT     H2 6611   4.020   2.739   0.710
 2134WAT      O 6612   2.367   0.770   0.783
 2134WAT     H1 6613   2.350   0.760   0.689
 2134WAT     H2 6614   2.286   0.741   0.825
 2135WAT      O 6615   0.124   3.201   0.693
 2135WAT     H1 6616   0.120   3.275   0.633
 2135WAT     H2 6617   0.122   3.123   0.637
 2136WAT      O 6618   3.689   1.090   4.338
 2136WAT     H1 6619   3.609   1.136   4.366
 2136WAT     H2 6620   3.721   1.050   4.418
 2137WAT      O 6621   0.393   2.809   1.972
 2137WAT     H1 6622   0.400   2.824   1.878
 2137WAT     H2 6623   0.476   2.840   2.009
 2138WAT      O 6624   2.700   1.270   5.005
 2138WAT     H1 6625   2.712   1.194   5.061
 2138WAT     H2 6626   2.606   1.286   5.005
 2139WAT      O 6627   2.759   2.552   1.285
 2139WAT     H1 6628   2.841   2.599   1.300
 2139WAT     H2 6629   2.736   2.515   1.370
 2140WAT      O 6630   2.673   3.344   1.923
 2140WAT     H1 6631   2.724   3.418   1.890
 2140WAT     H2 6632   2.732   3.269   1.913
 2141WAT      O 6633   0.916   4.374   1.963
 2141WAT     H1 6634   0.838   4.321   1.951
 2141WAT     H2 6635   0.892   4.460   1.929
 2142WAT      O 6636   0.646   2.093   3.766
 2142WAT     H1 6637   0.686   2.093   3.853
 2142WAT     H2 6638   0.554   2.114   3.781
 2143WAT      O 6639   0.710   1.333   1.045
 2143WAT     H1 6640   0.746   1.363   1.128
 2143WAT     H2 6641   0.653   1.259   1.069
 2144WAT      O 6642   3.553   4.039   2.156
 2144WAT     H1 6643   3.499   4.111   2.189
 2144WAT     H2 6644   3.545   4.044   2.061
 2145WAT      O 6645   2.094   3.294   4.869
 2145WAT     H1 6646   2.116   3.385   4.848
 2145WAT     H2 6647   2.178   3.252   4.885
 2146WAT      O 6648   1.177   1.458   4.634
 2146WAT     H1 6649   1.181   1.470   4.729
 2146WAT     H2 6650   1.206   1.542   4.598
 2147WAT      O 6651   3.860   2.385   1.310
 2147WAT     H1 6652   3.770   2.354   1.324
 2147WAT     H2 6653   3.849   2.469   1.266
 2148WAT      O 6654   0.420   3.223   2.740
 2148WAT     H1 6655   0.450   3.269   2.661
 2148WAT     H2 6656   0.449   3.278   2.812
 2149WAT      O 6657   4.079   1.014   0.470
 2149WAT     H1 6658   4.165   1.004   0.512
 2149WAT     H2 6659   4.033   1.079   0.522
 2150WAT      O 6660   3.218   3.113   2.825
 2150WAT     H1 6661   3.243   3.072   2.907
 2150WAT     H2 6662   3.299   3.120   2.775
 2151WAT      O 6663   2.115   2.646   0.138
 2151WAT     H1 6664   2.187   2.686   0.087
 2151WAT     H2 6665   2.138   2.554   0.143
 2152WAT      O 6666   1.012   2.359   0.433
 2152WAT     H1 6667   1.013   2.324   0.522
 2152WAT     H2 6668   1.052   2.290   0.380
 2153WAT      O 6669   2.417   4.127   3.484
 2153WAT     H1 6670   2.363   4.199   3.517
 2153WAT     H2 6671   2.394   4.052   3.539
 2154WAT      O 6672   3.689   3.656   2.659
 2154WAT     H1 6673   3.726   3.650   2.571
 2154WAT     H2 6674   3.739   3.592   2.710
 2155WAT      O 6675   0.945   1.125   1.192
 2155WAT     H1 6676   0.962   1.042   1.237
 2155WAT     H2 6677   0.985   1.113   1.106
 2156WAT      O 6678   1.317   3.112   0.110
 2156WAT     H1 6679   1.260   3.168   0.056
 2156WAT     H2 6680   1.282   3.120   0.198
 2157WAT      O 6681   3.003   5.001   2.653
 2157WAT     H1 6682   2.999   4.907   2.632
 2157WAT     H2 6683   2.971   5.006   2.743
 2158WAT      O 6684   4.170   0.622   1.456
 2158WAT     H1 6685   4.197   0.537   1.423
 2158WAT     H2 6686   4.109   0.602   1.527
 2159WAT      O 6687   1.577   1.879   3.183
 2159WAT     H1 6688   1.490   1.882   3.223
 2159WAT     H2 6689   1.581   1.956   3.126
 2160WAT      O 6690   0.687   0.028   1.098
 2160WAT     H1 6691   0.600   0.059   1.073
 2160WAT     H2 6692   0.673  -0.023   1.178
 2161WAT      O 6693   1.657   0.321   4.043
 2161WAT     H1 6694   1.572   0.290   4.012
 2161WAT     H2 6695   1.639   0.362   4.127
 2162WAT      O 6696   3.375   4.988   0.659
 2162WAT     H1 6697   3.338   4.965   0.574
 2162WAT     H2 6698   3.300   5.018   0.711
 2163WAT      O 6699   0.447   1.000   3.631
 2163WAT     H1 6700   0.387   1.022   3.702
 2163WAT     H2 6701   0.412   0.919   3.594
 2164WAT      O 6702   3.052   2.910   0.528
 2164WAT     H1 6703   3.060   2.971   0.455
 2164WAT     H2 6704   3.088   2.827   0.495
 2165WAT      O 6705   2.980   4.158   2.274
 2165WAT     H1 6706   3.034   4.159   2.353
 2165WAT     H2 6707   3.005   4.077   2.230
 2166WAT      O 6708   3.983   0.974   4.972
 2166WAT     H1 6709   3.987   0.879   4.961
 2166WAT     H2 6710   3.890   0.994   4.964
 2167WAT      O 6711   1.092   0.977   4.570
 2167WAT     H1 6712   1.114   1.027   4.491
 2167WAT     H2 6713   0.997   0.987   4.578
 2168WAT      O 6714   0.072   3.484   4.047
 2168WAT     H1 6715   0.166   3.492   4.066
 2168WAT     H2 6716   0.055   3.390   4.056
 2169WAT      O 6717   1.620   4.573   4.700
 2169WAT     H1 6718   1.696   4.534   4.658
 2169WAT     H2 6719   1.570   4.499   4.734
 2170WAT      O 6720   0.158   1.407   1.864
 2170WAT     H1 6721   0.097   1.342   1.830
 2170WAT     H2 6722   0.102   1.475   1.900
 2171WAT      O 6723   3.562   3.752   2.002
 2171WAT     H1 6724   3.634   3.794   1.955
 2171WAT     H2 6725   3.581   3.658   1.996
 2172WAT      O 6726   1.111   2.926   1.203
 2172WAT     H1 6727   1.082   2.869   1.274
 2172WAT     H2 6728   1.032   2.971   1.174
 2173WAT      O 6729   0.141   2.970   1.417
 2173WAT     H1 6730   0.178   3.047   1.373
 2173WAT     H2 6731   0.142   2.993   1.510
 2174WAT      O 6732   1.539   2.550   2.968
 2174WAT     H1 6733   1.534   2.600   3.049
 2174WAT     H2 6734   1.469   2.484   2.976
 2175WAT      O 6735   1.543   0.403   1.506
 2175WAT     H1 6736   1.537   0.349   1.427
 2175WAT     H2 6737   1.456   0.400   1.544
 2176WAT      O 6738   2.295   3.436   0.621
 2176WAT     H1 6739   2.238   3.385   0.563
 2176WAT     H2 6740   2.252   3.521   0.629
 2177WAT      O 6741   1.752   1.066   1.464
 2177WAT     H1 6742   1.669   1.042   1.505
 2177WAT     H2 6743   1.727   1.103   1.379
 2178WAT      O 6744   3.836   1.498   4.441
 2178WAT     H1 6745   3.811   1.499   4.533
 2178WAT     H2 6746   3.928   1.525   4.441
 2179WAT      O 6747   0.827   4.622   4.689
 2179WAT     H1 6748   0.851   4.713   4.704
 2179WAT     H2 6749   0.894   4.572   4.736
 2180WAT      O 6750   0.947   4.801   1.652
 2180WAT     H1 6751   0.937   4.743   1.576
 2180WAT     H2 6752   0.930   4.889   1.617
 2181WAT      O 6753   1.869   2.497   0.042
 2181WAT     H1 6754   1.963   2.513   0.054
 2181WAT     H2 6755   1.830   2.519   0.127
 2182WAT      O 6756   3.828   2.259   1.952
 2182WAT     H1 6757   3.777   2.237   2.030
 2182WAT     H2 6758   3.908   2.299   1.986
 2183WAT      O 6759   4.279   1.033   2.429
 2183WAT     H1 6760   4.225   1.010   2.352
 2183WAT     H2 6761   4.356   0.977   2.420
 2184WAT      O 6762   3.289   0.369   2.831
 2184WAT     H1 6763   3.246   0.283   2.824
 2184WAT     H2 6764   3.383   0.349   2.830
 2185WAT      O 6765   1.201   4.896   3.983
 2185WAT     H1 6766   1.183   4.822   4.042
 2185WAT     H2 6767   1.116   4.916   3.944
 2186WAT      O 6768   4.119   2.672   1.119
 2186WAT     H1 6769   4.177   2.624   1.059
 2186WAT     H2 6770   4.031   2.651   1.089
 2187WAT      O 6771   0.035   2.234   4.420
 2187WAT     H1 6772   0.075   2.321   4.427
 2187WAT     H2 6773  -0.024   2.230   4.495
 2188WAT      O 6774   3.924   4.318   5.106
 2188WAT     H1 6775   3.834   4.345   5.086
 2188WAT     H2 6776   3.917   4.272   5.189
 2189WAT      O 6777   3.826   3.212   0.263
 2189WAT     H1 6778   3.731   3.222   0.264
 2189WAT     H2 6779   3.853   3.257   0.183
 2190WAT      O 6780   3.481   0.568   3.473
 2190WAT     H1 6781   3.466   0.662   3.484
 2190WAT     H2 6782   3.414   0.540   3.410
 2191WAT      O 6783   0.786   2.528   0.014
 2191WAT     H1 6784   0.880   2.535   0.032
 2191WAT     H2 6785   0.778   2.456  -0.049
 2192WAT      O 6786   3.516   3.163   4.067
 2192WAT     H1 6787   3.425   3.136   4.060
 2192WAT     H2 6788   3.516   3.256   4.042
 2193WAT      O 6789   1.044   4.960   2.410
 2193WAT     H1 6790   0.951   4.942   2.426
 2193WAT     H2 6791   1.083   4.874   2.397
 2194WAT      O 6792   1.922   3.087   0.479
 2194WAT     H1 6793   1.851   3.085   0.415
 2194WAT     H2 6794   1.960   2.998   0.475
 2195WAT      O 6795   1.755   3.906   2.359
 2195WAT     H1 6796   1.812   3.967   2.406
 2195WAT     H2 6797   1.804   3.823   2.358
 2196WAT      O 6798   1.679   4.793   5.204
 2196WAT     H1 6799   1.664   4.815   5.113
 2196WAT     H2 6800   1.638   4.707   5.215
 2197WAT      O 6801   2.247   0.134   0.647
 2197WAT     H1 6802   2.306   0.103   0.716
 2197WAT     H2 6803   2.190   0.059   0.630
 2198WAT      O 6804   1.457   4.752   4.518
 2198WAT     H1 6805   1.479   4.838   4.553
 2198WAT     H2 6806   1.523   4.693   4.555
 2199WAT      O 6807   0.785   3.220   2.839
 2199WAT     H1 6808   0.729   3.294   2.821
 2199WAT     H2 6809   0.873   3.250   2.817
 2200WAT      O 6810   2.586   4.689   2.761
 2200WAT     H1 6811   2.583   4.697   2.856
 2200WAT     H2 6812   2.677   4.706   2.738
 2201WAT      O 6813   3.351   0.334   4.189
 2201WAT     H1 6814   3.355   0.296   4.277
 2201WAT     H2 6815   3.432   0.306   4.147
 2202WAT      O 6816   1.640   4.987   2.331
 2202WAT     H1 6817   1.728   4.951   2.344
 2202WAT     H2 6818   1.649   5.080   2.354
 2203WAT      O 6819   2.186   1.172   3.324
 2203WAT     H1 6820   2.101   1.200   3.357
 2203WAT     H2 6821   2.207   1.093   3.375
 2204WAT      O 6822   2.077   1.908   4.752
 2204WAT     H1 6823   2.019   1.970   4.708
 2204WAT     H2 6824   2.032   1.889   4.835
 2205WAT      O 6825   3.274   3.972   4.111
 2205WAT     H1 6826   3.253   3.904   4.048
 2205WAT     H2 6827   3.293   4.050   4.058
 2206WAT      O 6828   2.496   0.586   3.603
 2206WAT     H1 6829   2.479   0.650   3.535
 2206WAT     H2 6830   2.524   0.637   3.678
 2207WAT      O 6831   2.314   1.398   1.699
 2207WAT     H1 6832   2.233   1.376   1.746
 2207WAT     H2 6833   2.373   1.432   1.767
 2208WAT      O 6834   2.963   1.878   1.175
 2208WAT     H1 6835   2.873   1.890   1.206
 2208WAT     H2 6836   2.982   1.958   1.125
 2209WAT      O 6837   3.046   1.320   1.317
 2209WAT     H1 6838   3.066   1.336   1.224
 2209WAT     H2 6839   3.127   1.283   1.352
 2210WAT      O 6840   1.662   2.381   1.677
 2210WAT     H1 6841   1.717   2.316   1.633
 2210WAT     H2 6842   1.694   2.382   1.767
 2211WAT      O 6843   0.404   0.193   4.050
 2211WAT     H1 6844   0.468   0.217   3.983
 2211WAT     H2 6845   0.457   0.165   4.124
 2212WAT      O 6846   0.214   1.872   5.254
 2212WAT     H1 6847   0.217   1.897   5.162
 2212WAT     H2 6848   0.218   1.776   5.253
 2213WAT      O 6849   2.977   0.724   4.123
 2213WAT     H1 6850   3.050   0.716   4.062
 2213WAT     H2 6851   2.899   0.724   4.067
 2214WAT      O 6852   3.954   2.020   0.035
 2214WAT     H1 6853   3.915   2.106   0.048
 2214WAT     H2 6854   3.955   2.007  -0.060
 2215WAT      O 6855   4.165   1.083   3.273
 2215WAT     H1 6856   4.169   1.111   3.364
 2215WAT     H2 6857   4.158   1.164   3.223
 2216WAT      O 6858   1.378   2.108   4.879
 2216WAT     H1 6859   1.380   2.112   4.784
 2216WAT     H2 6860   1.337   2.024   4.899
 2217WAT      O 6861   2.206   4.949   2.827
 2217WAT     H1 6862   2.190   4.862   2.865
 2217WAT     H2 6863   2.300   4.948   2.806
 2218WAT      O 6864   3.454   3.944   1.819
 2218WAT     H1 6865   3.494   3.878   1.876
 2218WAT     H2 6866   3.392   3.990   1.875
 2219WAT      O 6867   2.695   3.381   0.502
 2219WAT     H1 6868   2.621   3.323   0.520
 2219WAT     H2 6869   2.661   3.469   0.519
 2220WAT      O 6870   3.084   2.237   4.424
 2220WAT     H1 6871   3.055   2.296   4.354
 2220WAT     H2 6872   3.091   2.294   4.501
 2221WAT      O 6873   2.374   3.523   3.822
 2221WAT     H1 6874   2.422   3.568   3.892
 2221WAT     H2 6875   2.323   3.456   3.867
 2222WAT      O 6876   2.501   4.739   2.305
 2222WAT     H1 6877   2.522   4.789   2.384
 2222WAT     H2 6878   2.586   4.708   2.272
 2223WAT      O 6879   3.316   2.060   0.295
 2223WAT     H1 6880   3.320   1.981   0.242
 2223WAT     H2 6881   3.223   2.072   0.313
 2224WAT      O 6882   2.591   2.088   0.495
 2224WAT     H1 6883   2.594   2.171   0.543
 2224WAT     H2 6884   2.502   2.083   0.461
 2225WAT      O 6885   0.169   1.762   3.991
 2225WAT     H1 6886   0.167   1.694   3.924
 2225WAT     H2 6887   0.255   1.753   4.032
 2226WAT      O 6888   0.946   1.159   1.627
 2226WAT     H1 6889   0.991   1.108   1.561
 2226WAT     H2 6890   0.853   1.139   1.614
 2227WAT      O 6891   1.469   4.347   4.783
 2227WAT     H1 6892   1.517   4.272   4.747
 2227WAT     H2 6893   1.385   4.347   4.737
 2228WAT      O 6894   3.030   3.969   2.723
 2228WAT     H1 6895   3.110   4.001   2.681
 2228WAT     H2 6896   3.057   3.889   2.767
 2229WAT      O 6897   3.243   3.358   0.440
 2229WAT     H1 6898   3.336   3.337   0.444
 2229WAT     H2 6899   3.200   3.273   0.432
 2230WAT      O 6900   3.607   3.433   3.980
 2230WAT     H1 6901   3.549   3.421   3.904
 2230WAT     H2 6902   3.674   3.494   3.951
 2231WAT      O 6903   2.025   4.494   3.187
 2231WAT     H1 6904   1.938   4.467   3.156
 2231WAT     H2 6905   2.084   4.464   3.118
 2232WAT      O 6906   1.293   1.243   4.152
 2232WAT     H1 6907   1.303   1.333   4.184
 2232WAT     H2 6908   1.304   1.251   4.057
 2233WAT      O 6909   0.817   4.857   5.011
 2233WAT     H1 6910   0.730   4.888   4.984
 2233WAT     H2 6911   0.799   4.784   5.070
 2234WAT      O 6912   3.836   0.225   3.556
 2234WAT     H1 6913   3.806   0.185   3.638
 2234WAT     H2 6914   3.786   0.180   3.488
 2235WAT      O 6915   2.787   2.081   0.288
 2235WAT     H1 6916   2.706   2.067   0.337
 2235WAT     H2 6917   2.854   2.036   0.340
 2236WAT      O 6918   1.876   1.596   4.741
 2236WAT     H1 6919   1.800   1.544   4.765
 2236WAT     H2 6920   1.867   1.677   4.791
 2237WAT      O 6921   4.059   2.006   2.907
 2237WAT     H1 6922   4.057   2.022   3.001
 2237WAT     H2 6923   4.108   1.924   2.897
 2238WAT      O 6924   1.789   1.243   4.581
 2238WAT     H1 6925   1.846   1.303   4.533
 2238WAT     H2 6926   1.726   1.214   4.515
 2239WAT      O 6927   3.381   3.305   1.725
 2239WAT     H1 6928   3.296   3.303   1.680
 2239WAT     H2 6929   3.405   3.398   1.726
 2240WAT      O 6930   0.563   5.142   2.841
 2240WAT     H1 6931   0.584   5.236   2.840
 2240WAT     H2 6932   0.649   5.099   2.843
 2241WAT      O 6933   1.848   4.353   2.489
 2241WAT     H1 6934   1.903   4.282   2.454
 2241WAT     H2 6935   1.857   4.346   2.584
 2242WAT      O 6936   4.275   3.886   3.106
 2242WAT     H1 6937   4.317   3.961   3.148
 2242WAT     H2 6938   4.207   3.859   3.168
 2243WAT      O 6939   3.816   2.140   3.277
 2243WAT     H1 6940   3.738   2.087   3.293
 2243WAT     H2 6941   3.782   2.219   3.235
 2244WAT      O 6942   3.077   0.377   3.310
 2244WAT     H1 6943   3.140   0.448   3.317
 2244WAT     H2 6944   3.126   0.306   3.267
 2245WAT      O 6945   0.967   3.892   3.820
 2245WAT     H1 6946   0.876   3.887   3.791
 2245WAT     H2 6947   0.985   3.807   3.859
 2246WAT      O 6948   4.337   4.908   2.051
 2246WAT     H1 6949   4.431   4.896   2.064
 2246WAT     H2 6950   4.329   4.933   1.959
 2247WAT      O 6951   3.207   3.189   4.978
 2247WAT     H1 6952   3.276   3.130   5.007
 2247WAT     H2 6953   3.147   3.193   5.052
 2248WAT      O 6954   2.452   3.666   1.053
 2248WAT     H1 6955   2.380   3.603   1.046
 2248WAT     H2 6956   2.506   3.649   0.976
 2249WAT      O 6957   3.449   0.954   1.599
 2249WAT     H1 6958   3.537   0.953   1.560
 2249WAT     H2 6959   3.389   0.951   1.525
 2250WAT      O 6960   3.320   1.159   1.227
 2250WAT     H1 6961   3.373   1.085   1.200
 2250WAT     H2 6962   3.240   1.152   1.176
 2251WAT      O 6963   1.508   1.624   3.038
 2251WAT     H1 6964   1.589   1.596   2.995
 2251WAT     H2 6965   1.533   1.639   3.129
 2252WAT      O 6966   4.269   0.060   2.259
 2252WAT     H1 6967   4.237   0.092   2.175
 2252WAT     H2 6968   4.352   0.018   2.239
 2253WAT      O 6969   3.864   4.209   3.970
 2253WAT     H1 6970   3.946   4.257   3.983
 2253WAT     H2 6971   3.890   4.129   3.925
 2254WAT      O 6972   3.675   1.542   2.448
 2254WAT     H1 6973   3.721   1.555   2.365
 2254WAT     H2 6974   3.713   1.461   2.484
 2255WAT      O 6975   0.670   1.604   4.347
 2255WAT     H1 6976   0.760   1.600   4.380
 2255WAT     H2 6977   0.629   1.525   4.381
 2256WAT      O 6978   1.798   0.464   3.125
 2256WAT     H1 6979   1.728   0.428   3.179
 2256WAT     H2 6980   1.763   0.546   3.091
 2257WAT      O 6981   0.252   1.876   3.704
 2257WAT     H1 6982   0.235   1.782   3.689
 2257WAT     H2 6983   0.338   1.878   3.745
 2258WAT      O 6984   2.206   4.285   0.273
 2258WAT     H1 6985   2.263   4.264   0.199
 2258WAT     H2 6986   2.119   4.294   0.235
 2259WAT      O 6987   2.196   4.252   3.161
 2259WAT     H1 6988   2.245   4.318   3.209
 2259WAT     H2 6989   2.158   4.196   3.228
 2260WAT      O 6990   0.628   1.326   3.153
 2260WAT     H1 6991   0.701   1.317   3.091
 2260WAT     H2 6992   0.669   1.350   3.236
 2261WAT      O 6993   1.401   0.127   2.669
 2261WAT     H1 6994   1.307   0.144   2.667
 2261WAT     H2 6995   1.411   0.043   2.623
 2262WAT      O 6996   1.767   1.527   1.158
 2262WAT     H1 6997   1.681   1.542   1.197
 2262WAT     H2 6998   1.820   1.490   1.228
 2263WAT      O 6999   1.626   1.853   1.276
 2263WAT     H1 7000   1.696   1.798   1.312
 2263WAT     H2 7001   1.669   1.905   1.208
 2264WAT      O 7002   3.773   3.271   3.756
 2264WAT     H1 7003   3.765   3.179   3.732
 2264WAT     H2 7004   3.782   3.271   3.851
 2265WAT      O 7005   1.666   3.150   2.862
 2265WAT     H1 7006   1.634   3.239   2.881
 2265WAT     H2 7007   1.587   3.101   2.838
 2266WAT      O 7008   3.934   3.412   0.439
 2266WAT     H1 7009   3.898   3.349   0.376
 2266WAT     H2 7010   3.917   3.497   0.399
 2267WAT      O 7011   4.294   3.148   3.357
 2267WAT     H1 7012   4.390   3.146   3.363
 2267WAT     H2 7013   4.276   3.152   3.263
 2268WAT      O 7014   1.445   3.995   5.007
 2268WAT     H1 7015   1.385   3.953   5.070
 2268WAT     H2 7016   1.391   4.012   4.930
 2269WAT      O 7017   4.308   2.873   4.159
 2269WAT     H1 7018   4.294   2.877   4.064
 2269WAT     H2 7019   4.243   2.934   4.195
 2270WAT      O 7020   1.028   2.774   1.409
 2270WAT     H1 7021   0.971   2.836   1.454
 2270WAT     H2 7022   1.072   2.727   1.479
 2271WAT      O 7023   0.014   3.808   0.578
 2271WAT     H1 7024   0.068   3.729   0.581
 2271WAT     H2 7025  -0.072   3.777   0.550
 2272WAT      O 7026   0.592   4.829   3.455
 2272WAT     H1 7027   0.539   4.811   3.532
 2272WAT     H2 7028   0.545   4.786   3.383
 2273WAT      O 7029   1.288   2.873   0.721
 2273WAT     H1 7030   1.273   2.856   0.814
 2273WAT     H2 7031   1.369   2.923   0.719
 2274WAT      O 7032   1.304   1.396   1.105
 2274WAT     H1 7033   1.332   1.458   1.039
 2274WAT     H2 7034   1.209   1.401   1.106
 2275WAT      O 7035   1.436   4.105   4.602
 2275WAT     H1 7036   1.523   4.087   4.639
 2275WAT     H2 7037   1.437   4.064   4.516
 2276WAT      O 7038   0.388   2.808   3.198
 2276WAT     H1 7039   0.364   2.720   3.170
 2276WAT     H2 7040   0.441   2.843   3.126
 2277WAT      O 7041   1.754   0.665   5.267
 2277WAT     H1 7042   1.824   0.668   5.333
 2277WAT     H2 7043   1.783   0.724   5.198
 2278WAT      O 7044   3.997   1.023   4.256
 2278WAT     H1 7045   3.987   1.063   4.343
 2278WAT     H2 7046   4.004   1.100   4.197
 2279WAT      O 7047   3.418   4.514   3.288
 2279WAT     H1 7048   3.358   4.541   3.358
 2279WAT     H2 7049   3.418   4.419   3.292
 2280WAT      O 7050   3.436   4.188   2.938
 2280WAT     H1 7051   3.423   4.257   3.003
 2280WAT     H2 7052   3.521   4.151   2.959
 2281WAT      O 7053   0.951   1.591   2.256
 2281WAT     H1 7054   0.899   1.578   2.335
 2281WAT     H2 7055   0.991   1.677   2.268
 2282WAT      O 7056   3.112   2.673   5.048
 2282WAT     H1 7057   3.066   2.732   5.107
 2282WAT     H2 7058   3.103   2.587   5.089
 2283WAT      O 7059   0.622   3.104   5.167
 2283WAT     H1 7060   0.579   3.018   5.170
 2283WAT     H2 7061   0.550   3.167   5.164
 2284WAT      O 7062   3.594   3.457   1.459
 2284WAT     H1 7063   3.575   3.467   1.552
 2284WAT     H2 7064   3.671   3.512   1.444
 2285WAT      O 7065   1.085   2.614   0.962
 2285WAT     H1 7066   1.055   2.584   1.047
 2285WAT     H2 7067   1.124   2.537   0.921
 2286WAT      O 7068   0.189   0.839   3.836
 2286WAT     H1 7069   0.206   0.931   3.816
 2286WAT     H2 7070   0.188   0.834   3.932
 2287WAT      O 7071   4.323   2.597   1.833
 2287WAT     H1 7072   4.371   2.632   1.758
 2287WAT     H2 7073   4.384   2.608   1.906
 2288WAT      O 7074   3.258   4.404   1.051
 2288WAT     H1 7075   3.247   4.362   1.136
 2288WAT     H2 7076   3.351   4.394   1.031
 2289WAT      O 7077   1.997   3.673   3.864
 2289WAT     H1 7078   2.088   3.674   3.836
 2289WAT     H2 7079   1.960   3.754   3.830
 2290WAT      O 7080   1.199   0.863   4.808
 2290WAT     H1 7081   1.280   0.839   4.763
 2290WAT     H2 7082   1.142   0.895   4.737
 2291WAT      O 7083   3.611   0.898   5.118
 2291WAT     H1 7084   3.578   0.909   5.029
 2291WAT     H2 7085   3.559   0.958   5.171
 2292WAT      O 7086   0.201   0.254   1.928
 2292WAT     H1 7087   0.245   0.281   1.847
 2292WAT     H2 7088   0.270   0.246   1.993
 2293WAT      O 7089   4.306   2.183   3.937
 2293WAT     H1 7090   4.355   2.226   4.006
 2293WAT     H2 7091   4.310   2.090   3.959
 2294WAT      O 7092   0.715   3.181   0.804
 2294WAT     H1 7093   0.643   3.156   0.745
 2294WAT     H2 7094   0.708   3.276   0.812
 2295WAT      O 7095   0.100   2.928   3.607
 2295WAT     H1 7096   0.083   3.015   3.572
 2295WAT     H2 7097   0.039   2.871   3.560
 2296WAT      O 7098   1.454   3.261   4.404
 2296WAT     H1 7099   1.463   3.229   4.494
 2296WAT     H2 7100   1.371   3.225   4.374
 2297WAT      O 7101   2.381   2.517   3.885
 2297WAT     H1 7102   2.439   2.544   3.814
 2297WAT     H2 7103   2.367   2.423   3.870
 2298WAT      O 7104   4.063   0.884   3.876
 2298WAT     H1 7105   4.026   0.826   3.943
 2298WAT     H2 7106   4.119   0.945   3.924
 2299WAT      O 7107   2.377   1.124   1.228
 2299WAT     H1 7108   2.441   1.060   1.198
 2299WAT     H2 7109   2.293   1.077   1.228
 2300WAT      O 7110   1.635   4.835   1.004
 2300WAT     H1 7111   1.628   4.830   1.100
 2300WAT     H2 7112   1.592   4.918   0.982
 2301WAT      O 7113   3.305   1.237   3.625
 2301WAT     H1 7114   3.222   1.251   3.670
 2301WAT     H2 7115   3.318   1.317   3.572
 2302WAT      O 7116   2.924   4.730   0.043
 2302WAT     H1 7117   2.890   4.653   0.089
 2302WAT     H2 7118   3.004   4.698   0.000
 2303WAT      O 7119   0.060   0.091   2.500
 2303WAT     H1 7120   0.108   0.024   2.451
 2303WAT     H2 7121  -0.008   0.043   2.547
 2304WAT      O 7122   3.640   1.644   1.201
 2304WAT     H1 7123   3.553   1.608   1.219
 2304WAT     H2 7124   3.644   1.724   1.253
 2305WAT      O 7125   3.339   3.147   1.996
 2305WAT     H1 7126   3.250   3.154   2.030
 2305WAT     H2 7127   3.335   3.075   1.933
 2306WAT      O 7128   0.516   3.469   2.138
 2306WAT     H1 7129   0.472   3.498   2.057
 2306WAT     H2 7130   0.486   3.531   2.204
 2307WAT      O 7131   0.130   0.346   0.858
 2307WAT     H1 7132   0.145   0.334   0.952
 2307WAT     H2 7133   0.041   0.377   0.851
 2308WAT      O 7134   0.840   3.999   0.571
 2308WAT     H1 7135   0.863   4.015   0.479
 2308WAT     H2 7136   0.746   3.982   0.569
 2309WAT      O 7137   2.738   1.818   1.665
 2309WAT     H1 7138   2.724   1.769   1.584
 2309WAT     H2 7139   2.810   1.772   1.708
 2310WAT      O 7140   3.225   1.014   2.575
 2310WAT     H1 7141   3.277   1.010   2.495
 2310WAT     H2 7142   3.162   0.941   2.566
 2311WAT      O 7143   2.431   0.188   0.903
 2311WAT     H1 7144   2.487   0.197   0.980
 2311WAT     H2 7145   2.488   0.150   0.836
 2312WAT      O 7146   1.788   1.280   2.656
 2312WAT     H1 7147   1.811   1.256   2.567
 2312WAT     H2 7148   1.808   1.202   2.708
 2313WAT      O 7149   1.359   1.744   0.555
 2313WAT     H1 7150   1.288   1.740   0.620
 2313WAT     H2 7151   1.390   1.835   0.561
 2314WAT      O 7152   3.359   2.711   3.534
 2314WAT     H1 7153   3.310   2.745   3.459
 2314WAT     H2 7154   3.450   2.726   3.511
 2315WAT      O 7155   2.919   1.649   1.450
 2315WAT     H1 7156   2.861   1.716   1.415
 2315WAT     H2 7157   2.871   1.567   1.436
 2316WAT      O 7158   0.691   0.224   2.796
 2316WAT     H1 7159   0.743   0.247   2.719
 2316WAT     H2 7160   0.665   0.306   2.835
 2317WAT      O 7161   2.510   4.794   3.824
 2317WAT     H1 7162   2.437   4.841   3.784
 2317WAT     H2 7163   2.483   4.702   3.822
 2318WAT      O 7164   3.638   0.729   4.755
 2318WAT     H1 7165   3.733   0.732   4.748
 2318WAT     H2 7166   3.607   0.736   4.665
 2319WAT      O 7167   1.618   4.089   2.592
 2319WAT     H1 7168   1.702   4.089   2.637
 2319WAT     H2 7169   1.638   4.116   2.502
 2320WAT      O 7170   1.774   3.031   3.892
 2320WAT     H1 7171   1.771   2.936   3.890
 2320WAT     H2 7172   1.689   3.058   3.927
 2321WAT      O 7173   0.821   4.850   1.256
 2321WAT     H1 7174   0.864   4.771   1.225
 2321WAT     H2 7175   0.738   4.854   1.208
 2322WAT      O 7176   0.453   1.529   1.390
 2322WAT     H1 7177   0.452   1.519   1.485
 2322WAT     H2 7178   0.399   1.457   1.357
 2323WAT      O 7179   3.763   4.735   4.604
 2323WAT     H1 7180   3.707   4.801   4.644
 2323WAT     H2 7181   3.710   4.655   4.606
 2324WAT      O 7182   0.007   1.629   2.031
 2324WAT     H1 7183  -0.039   1.632   1.947
 2324WAT     H2 7184   0.043   1.717   2.042
 2325WAT      O 7185   4.232   4.668   3.628
 2325WAT     H1 7186   4.176   4.678   3.705
 2325WAT     H2 7187   4.320   4.686   3.661
 2326WAT      O 7188   4.107   1.805   0.492
 2326WAT     H1 7189   4.133   1.774   0.579
 2326WAT     H2 7190   4.095   1.900   0.503
 2327WAT      O 7191   0.186   0.785   1.991
 2327WAT     H1 7192   0.174   0.749   2.079
 2327WAT     H2 7193   0.169   0.711   1.932
 2328WAT      O 7194   1.986   2.960   1.611
 2328WAT     H1 7195   1.900   2.918   1.608
 2328WAT     H2 7196   2.023   2.932   1.695
 2329WAT      O 7197   2.164   3.659   0.688
 2329WAT     H1 7198   2.079   3.699   0.708
 2329WAT     H2 7199   2.217   3.730   0.653
 2330WAT      O 7200   3.999   4.208   0.797
 2330WAT     H1 7201   3.994   4.200   0.892
 2330WAT     H2 7202   4.073   4.266   0.782
 2331WAT      O 7203   0.949   1.997   1.991
 2331WAT     H1 7204   0.907   2.083   1.998
 2331WAT     H2 7205   0.877   1.936   1.980
 2332WAT      O 7206   0.372   4.879   5.204
 2332WAT     H1 7207   0.408   4.808   5.150
 2332WAT     H2 7208   0.434   4.951   5.193
 2333WAT      O 7209   3.262   2.909   3.078
 2333WAT     H1 7210   3.228   2.872   2.997
 2333WAT     H2 7211   3.355   2.924   3.061
 2334WAT      O 7212   0.646   4.414   2.930
 2334WAT     H1 7213   0.682   4.493   2.971
 2334WAT     H2 7214   0.706   4.344   2.956
 2335WAT      O 7215   2.129   1.080   5.123
 2335WAT     H1 7216   2.098   1.161   5.164
 2335WAT     H2 7217   2.190   1.043   5.187
 2336WAT      O 7218   3.867   3.165   0.920
 2336WAT     H1 7219   3.871   3.194   0.828
 2336WAT     H2 7220   3.954   3.129   0.937
 2337WAT      O 7221   0.571   0.451   3.753
 2337WAT     H1 7222   0.585   0.438   3.847
 2337WAT     H2 7223   0.586   0.545   3.739
 2338WAT      O 7224   3.859   4.556   4.831
 2338WAT     H1 7225   3.806   4.525   4.757
 2338WAT     H2 7226   3.899   4.477   4.866
 2339WAT      O 7227   0.297   3.188   1.361
 2339WAT     H1 7228   0.335   3.220   1.279
 2339WAT     H2 7229   0.328   3.248   1.428
 2340WAT      O 7230   1.739   1.045   4.906
 2340WAT     H1 7231   1.668   1.109   4.910
 2340WAT     H2 7232   1.818   1.096   4.892
 2341WAT      O 7233   3.208   3.914   0.115
 2341WAT     H1 7234   3.279   3.853   0.135
 2341WAT     H2 7235   3.250   3.982   0.062
 2342WAT      O 7236   2.755   1.432   4.323
 2342WAT     H1 7237   2.836   1.428   4.373
 2342WAT     H2 7238   2.783   1.425   4.232
 2343WAT      O 7239   4.121   1.568   0.219
 2343WAT     H1 7240   4.047   1.600   0.272
 2343WAT     H2 7241   4.097   1.589   0.129
 2344WAT      O 7242   0.514   3.391   2.537
 2344WAT     H1 7243   0.542   3.483   2.540
 2344WAT     H2 7244   0.450   3.389   2.466
 2345WAT      O 7245   1.657   2.180   4.994
 2345WAT     H1 7246   1.572   2.138   5.004
 2345WAT     H2 7247   1.661   2.244   5.065
 2346WAT      O 7248   4.460   4.903   0.155
 2346WAT     H1 7249   4.444   4.990   0.118
 2346WAT     H2 7250   4.398   4.897   0.228
 2347WAT      O 7251   0.499   4.741   3.726
 2347WAT     H1 7252   0.567   4.807   3.741
 2347WAT     H2 7253   0.419   4.782   3.757
 2348WAT      O 7254   1.139   0.183   2.693
 2348WAT     H1 7255   1.122   0.091   2.670
 2348WAT     H2 7256   1.106   0.193   2.782
 2349WAT      O 7257   0.219   2.115   0.190
 2349WAT     H1 7258   0.247   2.196   0.231
 2349WAT     H2 7259   0.130   2.101   0.222
 2350WAT      O 7260   2.836   2.138   4.107
 2350WAT     H1 7261   2.905   2.200   4.084
 2350WAT     H2 7262   2.754   2.186   4.093
 2351WAT      O 7263   3.996   3.953   2.045
 2351WAT     H1 7264   4.082   3.912   2.044
 2351WAT     H2 7265   4.011   4.042   2.014
 2352WAT      O 7266   3.853   2.283   0.035
 2352WAT     H1 7267   3.936   2.293  -0.011
 2352WAT     H2 7268   3.787   2.307  -0.030
 2353WAT      O 7269   2.021   2.528   1.947
 2353WAT     H1 7270   2.013   2.456   1.884
 2353WAT     H2 7271   2.004   2.607   1.895
 2354WAT      O 7272   0.707   2.379   5.117
 2354WAT     H1 7273   0.626   2.389   5.067
 2354WAT     H2 7274   0.703   2.290   5.152
 2355WAT      O 7275   2.612   4.342   2.876
 2355WAT     H1 7276   2.684   4.322   2.817
 2355WAT     H2 7277   2.534   4.311   2.829
 2356WAT      O 7278   3.565   1.214   2.575
 2356WAT     H1 7279   3.514   1.177   2.647
 2356WAT     H2 7280   3.591   1.300   2.607
 2357WAT      O 7281   2.519   4.783   0.961
 2357WAT     H1 7282   2.607   4.777   0.922
 2357WAT     H2 7283   2.460   4.767   0.888
 2358WAT      O 7284   0.670   0.647   3.376
 2358WAT     H1 7285   0.765   0.632   3.376
 2358WAT     H2 7286   0.656   0.706   3.452
 2359WAT      O 7287   2.815   0.005   1.334
 2359WAT     H1 7288   2.732   0.004   1.287
 2359WAT     H2 7289   2.798   0.058   1.412
 2360WAT      O 7290   0.344   1.978   4.322
 2360WAT     H1 7291   0.366   2.071   4.319
 2360WAT     H2 7292   0.415   1.935   4.274
 2361WAT      O 7293   2.840   3.228   2.472
 2361WAT     H1 7294   2.786   3.217   2.551
 2361WAT     H2 7295   2.870   3.318   2.476
 2362WAT      O 7296   2.728   1.250   2.047
 2362WAT     H1 7297   2.789   1.175   2.043
 2362WAT     H2 7298   2.646   1.216   2.012
 2363WAT      O 7299   3.738   1.369   3.275
 2363WAT     H1 7300   3.797   1.297   3.254
 2363WAT     H2 7301   3.656   1.328   3.302
 2364WAT      O 7302   0.133   3.085   1.663
 2364WAT     H1 7303   0.205   3.126   1.711
 2364WAT     H2 7304   0.072   3.156   1.648
 2365WAT      O 7305   0.045   4.645   0.139
 2365WAT     H1 7306  -0.002   4.721   0.104
 2365WAT     H2 7307   0.004   4.627   0.223
 2366WAT      O 7308   1.298   0.704   1.143
 2366WAT     H1 7309   1.361   0.709   1.071
 2366WAT     H2 7310   1.223   0.658   1.107
 2367WAT      O 7311   2.536   1.757   4.293
 2367WAT     H1 7312   2.615   1.811   4.285
 2367WAT     H2 7313   2.481   1.786   4.220
 2368WAT      O 7314   2.279   3.866   4.518
 2368WAT     H1 7315   2.372   3.851   4.531
 2368WAT     H2 7316   2.242   3.779   4.502
 2369WAT      O 7317   2.778   2.047   2.376
 2369WAT     H1 7318   2.761   2.014   2.288
 2369WAT     H2 7319   2.821   2.132   2.362
 2370WAT      O 7320   0.725   2.067   3.424
 2370WAT     H1 7321   0.761   1.998   3.481
 2370WAT     H2 7322   0.661   2.112   3.479
 2371WAT      O 7323   4.008   4.794   4.914
 2371WAT     H1 7324   4.054   4.822   4.834
 2371WAT     H2 7325   3.965   4.713   4.890
 2372WAT      O 7326   1.829   3.096   2.509
 2372WAT     H1 7327   1.853   3.058   2.425
 2372WAT     H2 7328   1.738   3.071   2.522
 2373WAT      O 7329   4.362   3.424   2.176
 2373WAT     H1 7330   4.267   3.421   2.183
 2373WAT     H2 7331   4.380   3.428   2.082
 2374WAT      O 7332   0.078   1.391   0.061
 2374WAT     H1 7333   0.141   1.434   0.119
 2374WAT     H2 7334   0.107   1.300   0.057
 2375WAT      O 7335   1.169   3.212   0.774
 2375WAT     H1 7336   1.227   3.199   0.849
 2375WAT     H2 7337   1.196   3.296   0.737
 2376WAT      O 7338   0.671   2.349   4.130
 2376WAT     H1 7339   0.706   2.261   4.111
 2376WAT     H2 7340   0.706   2.404   4.061
 2377WAT      O 7341   0.327   3.932   2.227
 2377WAT     H1 7342   0.337   3.987   2.306
 2377WAT     H2 7343   0.242   3.957   2.191
 2378WAT      O 7344   2.696   1.585   0.835
 2378WAT     H1 7345   2.665   1.519   0.896
 2378WAT     H2 7346   2.763   1.540   0.783
 2379WAT      O 7347   2.456   2.873   5.267
 2379WAT     H1 7348   2.466   2.778   5.270
 2379WAT     H2 7349   2.361   2.887   5.262
 2380WAT      O 7350   2.762   3.388   3.795
 2380WAT     H1 7351   2.687   3.415   3.741
 2380WAT     H2 7352   2.723   3.363   3.878
 2381WAT      O 7353   0.963   3.614   4.358
 2381WAT     H1 7354   0.992   3.647   4.273
 2381WAT     H2 7355   1.003   3.673   4.422
 2382WAT      O 7356   3.380   1.617   5.302
 2382WAT     H1 7357   3.356   1.535   5.258
 2382WAT     H2 7358   3.458   1.595   5.353
 2383WAT      O 7359   2.506   1.338   1.341
 2383WAT     H1 7360   2.447   1.267   1.314
 2383WAT     H2 7361   2.513   1.394   1.263
 2384WAT      O 7362   2.154   4.339   2.576
 2384WAT     H1 7363   2.152   4.381   2.662
 2384WAT     H2 7364   2.245   4.345   2.548
 2385WAT      O 7365   2.790   5.102   0.540
 2385WAT     H1 7366   2.860   5.040   0.558
 2385WAT     H2 7367   2.738   5.060   0.471
 2386WAT      O 7368   1.132   4.157   0.870
 2386WAT     H1 7369   1.178   4.241   0.866
 2386WAT     H2 7370   1.194   4.098   0.912
 2387WAT      O 7371   1.862   4.493   3.575
 2387WAT     H1 7372   1.880   4.411   3.622
 2387WAT     H2 7373   1.825   4.551   3.641
 2388WAT      O 7374   1.902   4.601   1.831
 2388WAT     H1 7375   1.875   4.513   1.858
 2388WAT     H2 7376   1.820   4.643   1.804
 2389WAT      O 7377   0.554   3.048   2.344
 2389WAT     H1 7378   0.574   2.998   2.265
 2389WAT     H2 7379   0.567   3.139   2.319
 2390WAT      O 7380   2.939   4.201   0.903
 2390WAT     H1 7381   3.020   4.234   0.941
 2390WAT     H2 7382   2.888   4.171   0.978
 2391WAT      O 7383   0.044   0.515   0.544
 2391WAT     H1 7384   0.089   0.446   0.593
 2391WAT     H2 7385  -0.049   0.497   0.560
 2392WAT      O 7386   3.507   1.292   2.145
 2392WAT     H1 7387   3.578   1.236   2.177
 2392WAT     H2 7388   3.461   1.319   2.224
 2393WAT      O 7389   1.718   5.101   0.744
 2393WAT     H1 7390   1.794   5.158   0.759
 2393WAT     H2 7391   1.651   5.159   0.709
 2394WAT      O 7392   3.279   2.549   2.532
 2394WAT     H1 7393   3.266   2.643   2.523
 2394WAT     H2 7394   3.204   2.520   2.584
 2395WAT      O 7395   2.868   3.974   4.765
 2395WAT     H1 7396   2.855   4.068   4.757
 2395WAT     H2 7397   2.946   3.965   4.819
 2396WAT      O 7398   0.074   1.776   0.691
 2396WAT     H1 7399   0.019   1.698   0.704
 2396WAT     H2 7400   0.060   1.800   0.600
 2397WAT      O 7401   3.099   0.355   1.556
 2397WAT     H1 7402   3.065   0.300   1.486
 2397WAT     H2 7403   3.084   0.305   1.636
 2398WAT      O 7404   3.239   4.491   1.916
 2398WAT     H1 7405   3.217   4.511   2.007
 2398WAT     H2 7406   3.175   4.426   1.890
 2399WAT      O 7407   2.137   0.093   5.101
 2399WAT     H1 7408   2.123   0.040   5.180
 2399WAT     H2 7409   2.210   0.051   5.056
 2400WAT      O 7410   2.146   2.059   0.012
 2400WAT     H1 7411   2.089   2.118   0.061
 2400WAT     H2 7412   2.099   1.976   0.011
 2401WAT      O 7413   1.265   4.387   0.843
 2401WAT     H1 7414   1.189   4.441   0.821
 2401WAT     H2 7415   1.317   4.440   0.903
 2402WAT      O 7416   0.178   2.952   0.587
 2402WAT     H1 7417   0.136   2.897   0.522
 2402WAT     H2 7418   0.265   2.915   0.598
 2403WAT      O 7419   2.685   0.423   4.588
 2403WAT     H1 7420   2.597   0.449   4.616
 2403WAT     H2 7421   2.700   0.471   4.506
 2404WAT      O 7422   0.364   0.902   1.241
 2404WAT     H1 7423   0.283   0.938   1.205
 2404WAT     H2 7424   0.417   0.978   1.264
 2405WAT      O 7425   2.571   3.477   3.619
 2405WAT     H1 7426   2.490   3.516   3.650
 2405WAT     H2 7427   2.555   3.459   3.527
 2406WAT      O 7428   1.595   0.127   5.018
 2406WAT     H1 7429   1.548   0.189   4.962
 2406WAT     H2 7430   1.688   0.147   5.004
 2407WAT      O 7431   0.578   2.240   4.543
 2407WAT     H1 7432   0.511   2.178   4.570
 2407WAT     H2 7433   0.654   2.219   4.598
 2408WAT      O 7434   3.064   3.344   2.818
 2408WAT     H1 7435   3.032   3.353   2.908
 2408WAT     H2 7436   3.104   3.257   2.817
 2409WAT      O 7437   2.406   4.067   2.127
 2409WAT     H1 7438   2.313   4.047   2.136
 2409WAT     H2 7439   2.428   4.040   2.038
 2410WAT      O 7440   1.325   3.235   1.023
 2410WAT     H1 7441   1.271   3.312   1.037
 2410WAT     H2 7442   1.316   3.184   1.103
 2411WAT      O 7443   3.037   2.222   2.463
 2411WAT     H1 7444   3.079   2.303   2.491
 2411WAT     H2 7445   2.964   2.210   2.525
 2412WAT      O 7446   0.355   4.211   0.721
 2412WAT     H1 7447   0.417   4.247   0.658
 2412WAT     H2 7448   0.321   4.132   0.679
 2413WAT      O 7449   0.121   1.901   2.057
 2413WAT     H1 7450   0.183   1.971   2.046
 2413WAT     H2 7451   0.120   1.882   2.151
 2414WAT      O 7452   2.089   3.602   0.163
 2414WAT     H1 7453   2.084   3.626   0.071
 2414WAT     H2 7454   2.005   3.628   0.200
 2415WAT      O 7455   0.707   1.888   2.233
 2415WAT     H1 7456   0.705   1.836   2.152
 2415WAT     H2 7457   0.799   1.911   2.244
 2416WAT      O 7458   2.700   3.967   4.095
 2416WAT     H1 7459   2.742   3.894   4.141
 2416WAT     H2 7460   2.625   3.990   4.150
 2417WAT      O 7461   3.925   4.500   3.672
 2417WAT     H1 7462   3.836   4.526   3.695
 2417WAT     H2 7463   3.981   4.563   3.719
 2418WAT      O 7464   2.535   1.076   4.843
 2418WAT     H1 7465   2.574   1.053   4.758
 2418WAT     H2 7466   2.441   1.078   4.826
 2419WAT      O 7467   2.841   2.665   3.382
 2419WAT     H1 7468   2.912   2.701   3.436
 2419WAT     H2 7469   2.761   2.696   3.424
 2420WAT      O 7470   1.547   2.625   3.548
 2420WAT     H1 7471   1.514   2.715   3.541
 2420WAT     H2 7472   1.603   2.615   3.471
 2421WAT      O 7473   0.431   0.160   1.071
 2421WAT     H1 7474   0.355   0.137   1.018
 2421WAT     H2 7475   0.411   0.124   1.158
 2422WAT      O 7476   3.052   1.840   0.784
 2422WAT     H1 7477   2.984   1.900   0.814
 2422WAT     H2 7478   3.120   1.845   0.851
 2423WAT      O 7479   1.292   1.522   2.883
 2423WAT     H1 7480   1.332   1.535   2.798
 2423WAT     H2 7481   1.357   1.553   2.946
 2424WAT      O 7482   1.183   2.629   0.694
 2424WAT     H1 7483   1.227   2.713   0.683
 2424WAT     H2 7484   1.090   2.651   0.701
 2425WAT      O 7485   3.451   4.152   4.314
 2425WAT     H1 7486   3.513   4.187   4.250
 2425WAT     H2 7487   3.367   4.191   4.290
 2426WAT      O 7488   3.761   0.507   3.571
 2426WAT     H1 7489   3.754   0.411   3.574
 2426WAT     H2 7490   3.678   0.535   3.534
 2427WAT      O 7491   1.158   2.062   3.938
 2427WAT     H1 7492   1.084   2.010   3.970
 2427WAT     H2 7493   1.168   2.036   3.846
 2428WAT      O 7494   4.519   0.550   4.567
 2428WAT     H1 7495   4.597   0.510   4.606
 2428WAT     H2 7496   4.502   0.497   4.489
 2429WAT      O 7497   2.035   3.082   4.535
 2429WAT     H1 7498   1.975   3.125   4.473
 2429WAT     H2 7499   1.980   3.064   4.612
 2430WAT      O 7500   2.883   0.221   0.513
 2430WAT     H1 7501   2.846   0.134   0.502
 2430WAT     H2 7502   2.868   0.241   0.606
 2431WAT      O 7503   0.835   3.969   4.188
 2431WAT     H1 7504   0.772   4.035   4.160
 2431WAT     H2 7505   0.787   3.886   4.182
 2432WAT      O 7506   3.883   4.931   0.782
 2432WAT     H1 7507   3.834   4.921   0.701
 2432WAT     H2 7508   3.864   4.850   0.831
 2433WAT      O 7509   3.041   1.306   0.056
 2433WAT     H1 7510   2.978   1.369   0.021
 2433WAT     H2 7511   3.062   1.338   0.143
 2434WAT      O 7512   2.242   1.589   2.600
 2434WAT     H1 7513   2.204   1.675   2.581
 2434WAT     H2 7514   2.335   1.606   2.614
 2435WAT      O 7515   3.845   4.497   2.550
 2435WAT     H1 7516   3.889   4.439   2.488
 2435WAT     H2 7517   3.824   4.440   2.625
 2436WAT      O 7518   2.052   1.348   4.471
 2436WAT     H1 7519   2.098   1.266   4.452
 2436WAT     H2 7520   2.122   1.412   4.484
 2437WAT      O 7521   3.484   4.628   2.789
 2437WAT     H1 7522   3.507   4.637   2.882
 2437WAT     H2 7523   3.549   4.683   2.744
 2438WAT      O 7524   4.370   0.334   5.175
 2438WAT     H1 7525   4.412   0.374   5.252
 2438WAT     H2 7526   4.307   0.402   5.146
 2439WAT      O 7527   1.604   4.320   2.767
 2439WAT     H1 7528   1.579   4.259   2.697
 2439WAT     H2 7529   1.604   4.267   2.847
 2440WAT      O 7530   4.310   1.040   2.853
 2440WAT     H1 7531   4.346   1.088   2.928
 2440WAT     H2 7532   4.361   1.072   2.778
 2441WAT      O 7533   4.164   0.901   0.886
 2441WAT     H1 7534   4.154   0.861   0.799
 2441WAT     H2 7535   4.084   0.951   0.899
 2442WAT      O 7536   1.087   3.360   1.294
 2442WAT     H1 7537   1.121   3.388   1.208
 2442WAT     H2 7538   1.154   3.389   1.356
 2443WAT      O 7539   3.923   0.461   3.794
 2443WAT     H1 7540   3.867   0.494   3.725
 2443WAT     H2 7541   3.863   0.413   3.852
 2444WAT      O 7542   4.263   2.834   5.293
 2444WAT     H1 7543   4.266   2.822   5.388
 2444WAT     H2 7544   4.242   2.927   5.282
 2445WAT      O 7545   1.717   0.130   0.443
 2445WAT     H1 7546   1.805   0.100   0.467
 2445WAT     H2 7547   1.733   0.204   0.383
 2446WAT      O 7548   1.492   2.445   0.377
 2446WAT     H1 7549   1.404   2.458   0.340
 2446WAT     H2 7550   1.548   2.430   0.301
 2447WAT      O 7551   1.667   1.226   1.256
 2447WAT     H1 7552   1.612   1.303   1.255
 2447WAT     H2 7553   1.715   1.228   1.173
 2448WAT      O 7554   0.588   3.110   3.062
 2448WAT     H1 7555   0.540   3.033   3.033
 2448WAT     H2 7556   0.656   3.122   2.996
 2449WAT      O 7557   1.212   1.523   4.144
 2449WAT     H1 7558   1.152   1.562   4.207
 2449WAT     H2 7559   1.219   1.589   4.075
 2450WAT      O 7560   1.813   0.290   0.677
 2450WAT     H1 7561   1.730   0.296   0.629
 2450WAT     H2 7562   1.790   0.245   0.759
 2451WAT      O 7563   2.474   2.998   2.171
 2451WAT     H1 7564   2.506   3.025   2.085
 2451WAT     H2 7565   2.440   2.910   2.158
 2452WAT      O 7566   0.638   0.724   5.204
 2452WAT     H1 7567   0.639   0.632   5.229
 2452WAT     H2 7568   0.730   0.750   5.205
 2453WAT      O 7569   0.948   3.187   3.655
 2453WAT     H1 7570   0.897   3.108   3.673
 2453WAT     H2 7571   1.026   3.179   3.709
 2454WAT      O 7572   2.201   3.670   1.401
 2454WAT     H1 7573   2.187   3.635   1.489
 2454WAT     H2 7574   2.196   3.594   1.343
 2455WAT      O 7575   1.759   1.460   4.427
 2455WAT     H1 7576   1.783   1.540   4.472
 2455WAT     H2 7577   1.782   1.475   4.335
 2456WAT      O 7578   3.082   3.163   2.106
 2456WAT     H1 7579   3.017   3.131   2.169
 2456WAT     H2 7580   3.037   3.163   2.022
 2457WAT      O 7581   3.846   0.852   2.394
 2457WAT     H1 7582   3.797   0.775   2.365
 2457WAT     H2 7583   3.867   0.834   2.485
 2458WAT      O 7584   2.814   3.311   0.807
 2458WAT     H1 7585   2.831   3.324   0.900
 2458WAT     H2 7586   2.828   3.397   0.768
 2459WAT      O 7587   4.387   2.029   1.936
 2459WAT     H1 7588   4.382   2.030   1.840
 2459WAT     H2 7589   4.441   1.953   1.957
 2460WAT      O 7590   0.101   2.022   4.042
 2460WAT     H1 7591   0.008   2.017   4.017
 2460WAT     H2 7592   0.134   1.934   4.023
 2461WAT      O 7593   3.379   2.115   1.025
 2461WAT     H1 7594   3.341   2.093   1.110
 2461WAT     H2 7595   3.469   2.142   1.045
 2462WAT      O 7596   2.241   1.172   0.814
 2462WAT     H1 7597   2.217   1.228   0.740
 2462WAT     H2 7598   2.171   1.106   0.817
 2463WAT      O 7599   2.801   3.419   5.225
 2463WAT     H1 7600   2.816   3.383   5.138
 2463WAT     H2 7601   2.798   3.342   5.283
 2464WAT      O 7602   1.916   4.810   4.261
 2464WAT     H1 7603   1.979   4.851   4.202
 2464WAT     H2 7604   1.848   4.877   4.273
 2465WAT      O 7605   0.197   3.613   0.614
 2465WAT     H1 7606   0.176   3.534   0.564
 2465WAT     H2 7607   0.285   3.638   0.585
 2466WAT      O 7608   0.830   1.803   2.509
 2466WAT     H1 7609   0.865   1.793   2.421
 2466WAT     H2 7610   0.907   1.821   2.563
 2467WAT      O 7611   1.912   3.923   1.469
 2467WAT     H1 7612   1.915   3.861   1.397
 2467WAT     H2 7613   1.842   3.891   1.526
 2468WAT      O 7614   3.455   0.709   1.392
 2468WAT     H1 7615   3.463   0.773   1.462
 2468WAT     H2 7616   3.424   0.630   1.435
 2469WAT      O 7617   1.914   4.959   3.084
 2469WAT     H1 7618   1.896   4.901   3.010
 2469WAT     H2 7619   1.934   4.900   3.157
 2470WAT      O 7620   3.380   3.474   2.496
 2470WAT     H1 7621   3.465   3.485   2.453
 2470WAT     H2 7622   3.401   3.475   2.589
 2471WAT      O 7623   4.238   3.639   3.352
 2471WAT     H1 7624   4.311   3.633   3.414
 2471WAT     H2 7625   4.233   3.552   3.312
 2472WAT      O 7626   3.981   0.191   0.374
 2472WAT     H1 7627   4.063   0.172   0.420
 2472WAT     H2 7628   3.994   0.280   0.340
 2473WAT      O 7629   3.913   4.627   2.267
 2473WAT     H1 7630   3.965   4.557   2.306
 2473WAT     H2 7631   3.847   4.647   2.333
 2474WAT      O 7632   0.521   0.329   2.297
 2474WAT     H1 7633   0.492   0.303   2.385
 2474WAT     H2 7634   0.613   0.355   2.309
 2475WAT      O 7635   3.955   1.239   4.431
 2475WAT     H1 7636   3.922   1.228   4.521
 2475WAT     H2 7637   3.891   1.296   4.389
 2476WAT      O 7638   3.990   1.615   4.084
 2476WAT     H1 7639   4.078   1.585   4.105
 2476WAT     H2 7640   3.933   1.544   4.113
 2477WAT      O 7641   1.132   2.565   3.544
 2477WAT     H1 7642   1.074   2.587   3.617
 2477WAT     H2 7643   1.216   2.546   3.586
 2478WAT      O 7644   0.094   4.059   1.623
 2478WAT     H1 7645   0.183   4.064   1.656
 2478WAT     H2 7646   0.064   4.149   1.621
 2479WAT      O 7647   3.548   4.700   1.287
 2479WAT     H1 7648   3.638   4.702   1.319
 2479WAT     H2 7649   3.555   4.674   1.196
 2480WAT      O 7650   3.978   1.083   0.960
 2480WAT     H1 7651   3.908   1.017   0.968
 2480WAT     H2 7652   3.972   1.134   1.041
 2481WAT      O 7653   0.370   0.583   0.247
 2481WAT     H1 7654   0.346   0.507   0.302
 2481WAT     H2 7655   0.405   0.543   0.167
 2482WAT      O 7656   1.185   1.514   3.214
 2482WAT     H1 7657   1.225   1.594   3.182
 2482WAT     H2 7658   1.097   1.514   3.178
 2483WAT      O 7659   1.300   4.351   2.525
 2483WAT     H1 7660   1.271   4.358   2.616
 2483WAT     H2 7661   1.296   4.257   2.505
 2484WAT      O 7662   0.193   2.279   5.014
 2484WAT     H1 7663   0.246   2.354   4.986
 2484WAT     H2 7664   0.237   2.248   5.093
 2485WAT      O 7665   1.024   2.245   0.671
 2485WAT     H1 7666   0.970   2.185   0.620
 2485WAT     H2 7667   0.963   2.291   0.728
 2486WAT      O 7668   0.262   3.551   2.716
 2486WAT     H1 7669   0.167   3.553   2.703
 2486WAT     H2 7670   0.296   3.518   2.633
 2487WAT      O 7671   4.023   1.440   3.517
 2487WAT     H1 7672   4.084   1.365   3.515
 2487WAT     H2 7673   4.024   1.468   3.608
 2488WAT      O 7674   0.496   1.404   0.535
 2488WAT     H1 7675   0.524   1.335   0.596
 2488WAT     H2 7676   0.457   1.356   0.461
 2489WAT      O 7677   4.204   2.243   4.490
 2489WAT     H1 7678   4.120   2.243   4.536
 2489WAT     H2 7679   4.199   2.318   4.430
 2490WAT      O 7680   3.134   3.020   0.770
 2490WAT     H1 7681   3.101   2.960   0.704
 2490WAT     H2 7682   3.086   2.996   0.850
 2491WAT      O 7683   4.443   0.102   3.944
 2491WAT     H1 7684   4.460   0.176   3.886
 2491WAT     H2 7685   4.529   0.079   3.979
 2492WAT      O 7686   2.152   2.475   2.242
 2492WAT     H1 7687   2.204   2.505   2.167
 2492WAT     H2 7688   2.098   2.404   2.208
 2493WAT      O 7689   3.407   1.399   4.194
 2493WAT     H1 7690   3.474   1.346   4.152
 2493WAT     H2 7691   3.444   1.422   4.279
 2494WAT      O 7692   2.224   3.527   1.654
 2494WAT     H1 7693   2.304   3.488   1.689
 2494WAT     H2 7694   2.198   3.592   1.719
 2495WAT      O 7695   2.928   0.805   0.580
 2495WAT     H1 7696   2.921   0.819   0.486
 2495WAT     H2 7697   2.838   0.811   0.612
 2496WAT      O 7698   0.988   1.877   0.652
 2496WAT     H1 7699   0.927   1.934   0.605
 2496WAT     H2 7700   0.988   1.795   0.602
 2497WAT      O 7701   0.128   0.635   5.120
 2497WAT     H1 7702   0.199   0.698   5.112
 2497WAT     H2 7703   0.097   0.645   5.210
 2498WAT      O 7704   0.429   0.006   0.754
 2498WAT     H1 7705   0.495   0.073   0.766
 2498WAT     H2 7706   0.369   0.017   0.828
 2499WAT      O 7707   0.120   1.353   4.291
 2499WAT     H1 7708   0.107   1.415   4.361
 2499WAT     H2 7709   0.034   1.343   4.250
 2500WAT      O 7710   0.864   3.574   3.321
 2500WAT     H1 7711   0.937   3.594   3.261
 2500WAT     H2 7712   0.862   3.478   3.324
 2501WAT      O 7713   3.552   1.494   4.414
 2501WAT     H1 7714   3.545   1.591   4.411
 2501WAT     H2 7715   3.617   1.478   4.482
 2502WAT      O 7716   3.944   2.275   4.608
 2502WAT     H1 7717   3.869   2.241   4.559
 2502WAT     H2 7718   3.950   2.218   4.685
 2503WAT      O 7719   4.072   4.234   2.035
 2503WAT     H1 7720   4.121   4.249   1.954
 2503WAT     H2 7721   3.991   4.283   2.023
 2504WAT      O 7722   0.161   2.533   2.545
 2504WAT     H1 7723   0.212   2.600   2.590
 2504WAT     H2 7724   0.190   2.450   2.584
 2505WAT      O 7725   0.281   2.499   3.262
 2505WAT     H1 7726   0.285   2.404   3.246
 2505WAT     H2 7727   0.284   2.506   3.357
 2506WAT      O 7728   1.342   4.294   5.042
 2506WAT     H1 7729   1.396   4.343   4.979
 2506WAT     H2 7730   1.397   4.222   5.070
 2507WAT      O 7731   3.650   1.103   2.308
 2507WAT     H1 7732   3.693   1.017   2.322
 2507WAT     H2 7733   3.639   1.139   2.396
 2508WAT      O 7734   3.969   1.504   3.208
 2508WAT     H1 7735   4.018   1.507   3.291
 2508WAT     H2 7736   3.879   1.490   3.235
 2509WAT      O 7737   3.901   1.063   2.072
 2509WAT     H1 7738   3.852   1.141   2.102
 2509WAT     H2 7739   3.964   1.047   2.142
 2510WAT      O 7740   2.628   1.029   4.149
 2510WAT     H1 7741   2.621   1.123   4.162
 2510WAT     H2 7742   2.548   0.993   4.186
 2511WAT      O 7743   4.517   2.164   0.307
 2511WAT     H1 7744   4.438   2.211   0.278
 2511WAT     H2 7745   4.527   2.190   0.399
 2512WAT      O 7746   2.310   2.534   4.321
 2512WAT     H1 7747   2.273   2.553   4.407
 2512WAT     H2 7748   2.254   2.465   4.285
 2513WAT      O 7749   3.347   4.590   4.569
 2513WAT     H1 7750   3.313   4.516   4.619
 2513WAT     H2 7751   3.333   4.565   4.477
 2514WAT      O 7752   4.097   1.287   3.054
 2514WAT     H1 7753   4.080   1.369   3.103
 2514WAT     H2 7754   4.015   1.271   3.008
 2515WAT      O 7755   0.694   1.641   1.034
 2515WAT     H1 7756   0.722   1.583   1.105
 2515WAT     H2 7757   0.641   1.583   0.978
 2516WAT      O 7758   0.158   3.534   0.902
 2516WAT     H1 7759   0.192   3.561   0.817
 2516WAT     H2 7760   0.064   3.551   0.896
 2517WAT      O 7761   4.249   4.020   1.034
 2517WAT     H1 7762   4.180   4.029   1.100
 2517WAT     H2 7763   4.230   3.936   0.991
 2518WAT      O 7764   3.445   0.139   4.714
 2518WAT     H1 7765   3.511   0.069   4.709
 2518WAT     H2 7766   3.392   0.115   4.790
 2519WAT      O 7767   1.821   1.899   4.641
 2519WAT     H1 7768   1.793   1.852   4.720
 2519WAT     H2 7769   1.747   1.890   4.580
 2520WAT      O 7770   3.839   2.595   1.977
 2520WAT     H1 7771   3.800   2.561   1.896
 2520WAT     H2 7772   3.919   2.638   1.948
 2521WAT      O 7773   3.325   4.169   3.196
 2521WAT     H1 7774   3.252   4.230   3.207
 2521WAT     H2 7775   3.370   4.169   3.281
 2522WAT      O 7776   3.941   2.302   2.410
 2522WAT     H1 7777   3.944   2.232   2.346
 2522WAT     H2 7778   3.882   2.367   2.371
 2523WAT      O 7779   2.842   1.797   3.211
 2523WAT     H1 7780   2.777   1.857   3.247
 2523WAT     H2 7781   2.803   1.710   3.222
 2524WAT      O 7782   1.920   0.790   4.832
 2524WAT     H1 7783   1.991   0.821   4.775
 2524WAT     H2 7784   1.844   0.841   4.804
 2525WAT      O 7785   2.087   4.469   2.329
 2525WAT     H1 7786   2.086   4.409   2.404
 2525WAT     H2 7787   2.166   4.521   2.340
 2526WAT      O 7788   2.310   2.506   2.017
 2526WAT     H1 7789   2.366   2.444   1.970
 2526WAT     H2 7790   2.248   2.536   1.950
 2527WAT      O 7791   0.370   1.836   3.434
 2527WAT     H1 7792   0.337   1.890   3.506
 2527WAT     H2 7793   0.395   1.901   3.367
 2528WAT      O 7794   0.985   0.816   1.185
 2528WAT     H1 7795   0.958   0.836   1.095
 2528WAT     H2 7796   1.012   0.724   1.184
 2529WAT      O 7797   1.245   2.878   0.016
 2529WAT     H1 7798   1.281   2.961   0.048
 2529WAT     H2 7799   1.158   2.873   0.056
 2530WAT      O 7800   3.364   4.993   0.971
 2530WAT     H1 7801   3.334   5.000   0.880
 2530WAT     H2 7802   3.431   5.060   0.980
 2531WAT      O 7803   0.831   1.395   0.686
 2531WAT     H1 7804   0.783   1.319   0.719
 2531WAT     H2 7805   0.868   1.435   0.765
 2532WAT      O 7806   4.114   3.309   5.074
 2532WAT     H1 7807   4.202   3.346   5.067
 2532WAT     H2 7808   4.078   3.317   4.986
 2533WAT      O 7809   0.535   4.761   2.639
 2533WAT     H1 7810   0.561   4.853   2.636
 2533WAT     H2 7811   0.449   4.759   2.597
 2534WAT      O 7812   4.440   4.555   2.432
 2534WAT     H1 7813   4.471   4.503   2.358
 2534WAT     H2 7814   4.475   4.509   2.509
 2535WAT      O 7815   3.090   2.054   5.279
 2535WAT     H1 7816   3.147   1.979   5.297
 2535WAT     H2 7817   3.052   2.034   5.193
 2536WAT      O 7818   3.988   0.757   0.430
 2536WAT     H1 7819   4.034   0.839   0.447
 2536WAT     H2 7820   3.939   0.772   0.350
 2537WAT      O 7821   4.327   4.074   4.858
 2537WAT     H1 7822   4.401   4.070   4.798
 2537WAT     H2 7823   4.252   4.099   4.803
 2538WAT      O 7824   2.613   4.662   5.129
 2538WAT     H1 7825   2.575   4.712   5.057
 2538WAT     H2 7826   2.674   4.724   5.170
 2539WAT      O 7827   2.441   0.318   2.823
 2539WAT     H1 7828   2.355   0.277   2.833
 2539WAT     H2 7829   2.425   0.410   2.843
 2540WAT      O 7830   2.042   4.860   1.963
 2540WAT     H1 7831   2.116   4.806   1.990
 2540WAT     H2 7832   1.983   4.798   1.919
 2541WAT      O 7833   1.247   2.431   3.310
 2541WAT     H1 7834   1.163   2.464   3.277
 2541WAT     H2 7835   1.233   2.419   3.404
 2542WAT      O 7836   1.742   2.560   2.773
 2542WAT     H1 7837   1.667   2.579   2.831
 2542WAT     H2 7838   1.792   2.494   2.821
 2543WAT      O 7839   0.578   0.250   0.491
 2543WAT     H1 7840   0.650   0.267   0.429
 2543WAT     H2 7841   0.509   0.213   0.436
 2544WAT      O 7842   3.493   2.277   3.848
 2544WAT     H1 7843   3.423   2.219   3.816
 2544WAT     H2 7844   3.503   2.342   3.779
 2545WAT      O 7845   1.362   3.733   0.107
 2545WAT     H1 7846   1.313   3.806   0.147
 2545WAT     H2 7847   1.444   3.773   0.078
 2546WAT      O 7848   1.925   4.057   5.082
 2546WAT     H1 7849   1.856   3.992   5.068
 2546WAT     H2 7850   2.006   4.011   5.059
 2547WAT      O 7851   0.930   3.978   3.111
 2547WAT     H1 7852   0.936   3.883   3.117
 2547WAT     H2 7853   0.905   4.005   3.200
 2548WAT      O 7854   3.018   2.962   3.669
 2548WAT     H1 7855   3.003   2.942   3.576
 2548WAT     H2 7856   2.960   3.037   3.687
 2549WAT      O 7857   3.079   1.182   3.328
 2549WAT     H1 7858   3.043   1.178   3.417
 2549WAT     H2 7859   3.021   1.244   3.282
 2550WAT      O 7860   1.175   0.815   0.362
 2550WAT     H1 7861   1.210   0.801   0.274
 2550WAT     H2 7862   1.186   0.729   0.406
 2551WAT      O 7863   1.254   2.204   1.715
 2551WAT     H1 7864   1.183   2.146   1.741
 2551WAT     H2 7865   1.212   2.290   1.706
 2552WAT      O 7866   2.533   3.389   1.296
 2552WAT     H1 7867   2.586   3.310   1.290
 2552WAT     H2 7868   2.474   3.383   1.220
 2553WAT      O 7869   0.849   2.799   2.156
 2553WAT     H1 7870   0.891   2.748   2.087
 2553WAT     H2 7871   0.854   2.743   2.233
 2554WAT      O 7872   0.172   0.530   2.941
 2554WAT     H1 7873   0.180   0.624   2.924
 2554WAT     H2 7874   0.127   0.525   3.025
 2555WAT      O 7875   3.425   3.043   0.341
 2555WAT     H1 7876   3.400   2.952   0.354
 2555WAT     H2 7877   3.393   3.088   0.420
 2556WAT      O 7878   0.831   4.511   3.964
 2556WAT     H1 7879   0.781   4.562   3.901
 2556WAT     H2 7880   0.889   4.456   3.910
 2557WAT      O 7881   3.670   1.190   0.799
 2557WAT     H1 7882   3.633   1.225   0.718
 2557WAT     H2 7883   3.635   1.102   0.805
 2558WAT      O 7884   4.206   4.034   2.745
 2558WAT     H1 7885   4.167   4.117   2.774
 2558WAT     H2 7886   4.242   4.054   2.658
 2559WAT      O 7887   2.467   2.547   0.914
 2559WAT     H1 7888   2.471   2.643   0.915
 2559WAT     H2 7889   2.485   2.523   0.824
 2560WAT      O 7890   2.901   2.653   4.756
 2560WAT     H1 7891   2.841   2.721   4.726
 2560WAT     H2 7892   2.852   2.606   4.823
 2561WAT      O 7893   2.003   5.025   3.690
 2561WAT     H1 7894   1.923   5.002   3.737
 2561WAT     H2 7895   2.016   4.954   3.627
 2562WAT      O 7896   1.040   3.362   1.688
 2562WAT     H1 7897   1.119   3.416   1.682
 2562WAT     H2 7898   1.047   3.301   1.615
 2563WAT      O 7899   2.689   2.050   3.058
 2563WAT     H1 7900   2.597   2.072   3.045
 2563WAT     H2 7901   2.688   1.989   3.132
 2564WAT      O 7902   0.410   1.264   5.050
 2564WAT     H1 7903   0.482   1.218   5.095
 2564WAT     H2 7904   0.446   1.350   5.029
 2565WAT      O 7905   3.857   1.181   1.424
 2565WAT     H1 7906   3.794   1.224   1.482
 2565WAT     H2 7907   3.842   1.086   1.437
 2566WAT      O 7908   0.780   1.243   1.400
 2566WAT     H1 7909   0.822   1.182   1.340
 2566WAT     H2 7910   0.804   1.330   1.367
 2567WAT      O 7911   3.260   2.033   4.408
 2567WAT     H1 7912   3.211   1.964   4.363
 2567WAT     H2 7913   3.199   2.107   4.413
 2568WAT      O 7914   3.047   2.776   4.496
 2568WAT     H1 7915   3.003   2.759   4.580
 2568WAT     H2 7916   2.976   2.776   4.432
 2569WAT      O 7917   2.819   0.049   2.236
 2569WAT     H1 7918   2.905   0.051   2.277
 2569WAT     H2 7919   2.785   0.137   2.247
 2570WAT      O 7920   1.929   0.480   1.887
 2570WAT     H1 7921   1.844   0.490   1.845
 2570WAT     H2 7922   1.965   0.400   1.850
 2571WAT      O 7923   3.895   5.003   4.311
 2571WAT     H1 7924   3.835   4.990   4.238
 2571WAT     H2 7925   3.871   5.088   4.348
 2572WAT      O 7926   2.431   1.734   1.714
 2572WAT     H1 7927   2.375   1.789   1.658
 2572WAT     H2 7928   2.494   1.696   1.654
 2573WAT      O 7929   0.024   0.076   3.086
 2573WAT     H1 7930   0.091   0.092   3.019
 2573WAT     H2 7931   0.073   0.045   3.162
 2574WAT      O 7932   4.094   2.341   1.991
 2574WAT     H1 7933   4.153   2.414   2.010
 2574WAT     H2 7934   4.127   2.270   2.046
 2575WAT      O 7935   0.974   0.721   3.425
 2575WAT     H1 7936   1.053   0.688   3.469
 2575WAT     H2 7937   0.969   0.813   3.451
 2576WAT      O 7938   0.413   3.730   0.498
 2576WAT     H1 7939   0.500   3.717   0.460
 2576WAT     H2 7940   0.353   3.720   0.425
 2577WAT      O 7941   2.932   1.115   0.883
 2577WAT     H1 7942   2.888   1.073   0.958
 2577WAT     H2 7943   2.991   1.180   0.922
 2578WAT      O 7944   4.000   3.417   3.643
 2578WAT     H1 7945   3.927   3.412   3.704
 2578WAT     H2 7946   4.010   3.327   3.610
 2579WAT      O 7947   3.859   4.607   0.635
 2579WAT     H1 7948   3.841   4.532   0.579
 2579WAT     H2 7949   3.864   4.570   0.723
 2580WAT      O 7950   2.257   2.047   2.451
 2580WAT     H1 7951   2.217   2.056   2.365
 2580WAT     H2 7952   2.302   2.130   2.466
 2581WAT      O 7953   2.919   3.309   0.360
 2581WAT     H1 7954   2.824   3.311   0.373
 2581WAT     H2 7955   2.953   3.272   0.442
 2582WAT      O 7956   2.921   4.492   0.531
 2582WAT     H1 7957   2.884   4.421   0.584
 2582WAT     H2 7958   3.001   4.455   0.493
 2583WAT      O 7959   4.297   2.859   3.901
 2583WAT     H1 7960   4.363   2.905   3.849
 2583WAT     H2 7961   4.311   2.766   3.881
 2584WAT      O 7962   2.970   5.076   4.237
 2584WAT     H1 7963   3.034   5.121   4.293
 2584WAT     H2 7964   2.902   5.141   4.221
 2585WAT      O 7965   2.000   0.420   2.917
 2585WAT     H1 7966   2.079   0.418   2.971
 2585WAT     H2 7967   1.928   0.425   2.979
 2586WAT      O 7968   0.725   0.754   1.291
 2586WAT     H1 7969   0.679   0.816   1.235
 2586WAT     H2 7970   0.818   0.773   1.277
 2587WAT      O 7971   2.619   2.924   4.388
 2587WAT     H1 7972   2.549   2.910   4.324
 2587WAT     H2 7973   2.620   3.018   4.404
 2588WAT      O 7974   2.287   3.319   3.989
 2588WAT     H1 7975   2.363   3.261   3.997
 2588WAT     H2 7976   2.212   3.261   4.001
 2589WAT      O 7977   4.193   0.497   2.700
 2589WAT     H1 7978   4.246   0.420   2.682
 2589WAT     H2 7979   4.183   0.499   2.795
 2590WAT      O 7980   0.392   3.860   2.925
 2590WAT     H1 7981   0.348   3.779   2.949
 2590WAT     H2 7982   0.438   3.887   3.005
 2591WAT      O 7983   1.848   1.320   3.384
 2591WAT     H1 7984   1.894   1.308   3.467
 2591WAT     H2 7985   1.900   1.385   3.337
 2592WAT      O 7986   2.937   0.072   3.453
 2592WAT     H1 7987   2.874   0.006   3.482
 2592WAT     H2 7988   3.023   0.033   3.470
 2593WAT      O 7989   3.651   3.270   1.756
 2593WAT     H1 7990   3.555   3.269   1.754
 2593WAT     H2 7991   3.673   3.254   1.848
 2594WAT      O 7992   0.182   3.983   3.988
 2594WAT     H1 7993   0.138   3.904   3.954
 2594WAT     H2 7994   0.200   3.962   4.080
 2595WAT      O 7995   1.703   0.091   2.438
 2595WAT     H1 7996   1.702   0.087   2.533
 2595WAT     H2 7997   1.743   0.175   2.417
 2596WAT      O 7998   1.304   0.841   3.228
 2596WAT     H1 7999   1.382   0.869   3.182
 2596WAT     H2 8000   1.312   0.879   3.316
 2597WAT      O 8001   2.094   1.655   1.846
 2597WAT     H1 8002   2.040   1.734   1.853
 2597WAT     H2 8003   2.169   1.674   1.903
 2598WAT      O 8004   2.263   4.283   4.440
 2598WAT     H1 8005   2.289   4.375   4.440
 2598WAT     H2 8006   2.209   4.273   4.518
 2599WAT      O 8007   3.493   0.433   1.236
 2599WAT     H1 8008   3.588   0.436   1.245
 2599WAT     H2 8009   3.464   0.393   1.319
 2600WAT      O 8010   0.570   4.242   1.618
 2600WAT     H1 8011   0.504   4.174   1.607
 2600WAT     H2 8012   0.640   4.219   1.557
 2601WAT      O 8013   0.537   4.904   0.750
 2601WAT     H1 8014   0.554   4.888   0.843
 2601WAT     H2 8015   0.490   4.988   0.749
 2602WAT      O 8016   2.835   0.104   3.177
 2602WAT     H1 8017   2.877   0.087   3.261
 2602WAT     H2 8018   2.778   0.028   3.162
 2603WAT      O 8019   0.805   1.867   1.387
 2603WAT     H1 8020   0.793   1.799   1.453
 2603WAT     H2 8021   0.728   1.923   1.395
 2604WAT      O 8022   1.124   3.264   5.246
 2604WAT     H1 8023   1.046   3.223   5.208
 2604WAT     H2 8024   1.090   3.333   5.303
 2605WAT      O 8025   2.258   1.503   0.773
 2605WAT     H1 8026   2.171   1.537   0.756
 2605WAT     H2 8027   2.278   1.530   0.863
 2606WAT      O 8028   3.283   0.190   3.576
 2606WAT     H1 8029   3.206   0.167   3.524
 2606WAT     H2 8030   3.250   0.194   3.666
 2607WAT      O 8031   2.545   4.546   3.610
 2607WAT     H1 8032   2.588   4.460   3.614
 2607WAT     H2 8033   2.605   4.600   3.559
 2608WAT      O 8034   2.536   4.216   1.482
 2608WAT     H1 8035   2.495   4.288   1.530
 2608WAT     H2 8036   2.465   4.155   1.463
 2609WAT      O 8037   0.362   3.239   2.273
 2609WAT     H1 8038   0.332   3.180   2.204
 2609WAT     H2 8039   0.392   3.317   2.226
 2610WAT      O 8040   0.781   0.365   0.302
 2610WAT     H1 8041   0.829   0.375   0.220
 2610WAT     H2 8042   0.844   0.328   0.363
 2611WAT      O 8043   4.027   2.124   4.037
 2611WAT     H1 8044   4.020   2.124   3.941
 2611WAT     H2 8045   4.008   2.034   4.063
 2612WAT      O 8046   0.091   1.322   3.715
 2612WAT     H1 8047   0.048   1.317   3.630
 2612WAT     H2 8048   0.022   1.302   3.778
 2613WAT      O 8049   1.247   4.255   1.570
 2613WAT     H1 8050   1.239   4.293   1.657
 2613WAT     H2 8051   1.292   4.322   1.518
 2614WAT      O 8052   0.541   2.393   1.255
 2614WAT     H1 8053   0.622   2.349   1.281
 2614WAT     H2 8054   0.482   2.322   1.231
 2615WAT      O 8055   1.470   2.266   1.910
 2615WAT     H1 8056   1.406   2.252   1.840
 2615WAT     H2 8057   1.437   2.342   1.958
 2616WAT      O 8058   0.486   4.259   2.790
 2616WAT     H1 8059   0.561   4.317   2.801
 2616WAT     H2 8060   0.525   4.174   2.768
 2617WAT      O 8061   3.782   4.422   0.092
 2617WAT     H1 8062   3.689   4.427   0.070
 2617WAT     H2 8063   3.818   4.508   0.067
 2618WAT      O 8064   0.708   3.951   0.216
 2618WAT     H1 8065   0.781   4.010   0.198
 2618WAT     H2 8066   0.680   3.921   0.130
 2619WAT      O 8067   1.885   4.967   1.430
 2619WAT     H1 8068   1.936   4.937   1.355
 2619WAT     H2 8069   1.804   5.001   1.391
 2620WAT      O 8070   3.234   4.001   2.988
 2620WAT     H1 8071   3.277   4.066   3.042
 2620WAT     H2 8072   3.286   3.996   2.909
 2621WAT      O 8073   1.611   0.102   1.713
 2621WAT     H1 8074   1.653   0.126   1.630
 2621WAT     H2 8075   1.623   0.179   1.769
 2622WAT      O 8076   2.843   4.697   2.672
 2622WAT     H1 8077   2.897   4.704   2.593
 2622WAT     H2 8078   2.904   4.709   2.744
 2623WAT      O 8079   1.648   2.325   0.176
 2623WAT     H1 8080   1.684   2.239   0.199
 2623WAT     H2 8081   1.636   2.321   0.081
 2624WAT      O 8082   0.713   3.018   3.599
 2624WAT     H1 8083   0.647   3.067   3.649
 2624WAT     H2 8084   0.710   3.060   3.512
 2625WAT      O 8085   4.138   3.732   2.581
 2625WAT     H1 8086   4.145   3.642   2.550
 2625WAT     H2 8087   4.192   3.735   2.660
 2626WAT      O 8088   0.287   0.750   4.350
 2626WAT     H1 8089   0.346   0.782   4.281
 2626WAT     H2 8090   0.295   0.816   4.420
 2627WAT      O 8091   4.482   4.114   3.295
 2627WAT     H1 8092   4.577   4.120   3.283
 2627WAT     H2 8093   4.471   4.087   3.386
 2628WAT      O 8094   2.881   0.292   0.777
 2628WAT     H1 8095   2.958   0.303   0.833
 2628WAT     H2 8096   2.841   0.379   0.777
 2629WAT      O 8097   3.084   3.241   4.615
 2629WAT     H1 8098   3.080   3.167   4.676
 2629WAT     H2 8099   3.047   3.207   4.534
 2630WAT      O 8100   1.770   2.764   0.365
 2630WAT     H1 8101   1.735   2.754   0.276
 2630WAT     H2 8102   1.865   2.758   0.354
 2631WAT      O 8103   0.758   3.863   2.803
 2631WAT     H1 8104   0.761   3.790   2.865
 2631WAT     H2 8105   0.844   3.864   2.762
 2632WAT      O 8106   1.110   3.220   4.685
 2632WAT     H1 8107   1.141   3.285   4.622
 2632WAT     H2 8108   1.049   3.166   4.634
 2633WAT      O 8109   4.108   2.716   5.102
 2633WAT     H1 8110   4.125   2.719   5.008
 2633WAT     H2 8111   4.184   2.757   5.142
 2634WAT      O 8112   1.332   1.000   0.484
 2634WAT     H1 8113   1.390   0.991   0.409
 2634WAT     H2 8114   1.279   0.921   0.484
 2635WAT      O 8115   0.205   3.029   3.248
 2635WAT     H1 8116   0.206   3.064   3.159
 2635WAT     H2 8117   0.272   2.961   3.248
 2636WAT      O 8118   2.985   4.989   1.180
 2636WAT     H1 8119   2.912   4.930   1.160
 2636WAT     H2 8120   2.945   5.058   1.233
 2637WAT      O 8121   4.216   4.684   2.329
 2637WAT     H1 8122   4.283   4.631   2.372
 2637WAT     H2 8123   4.135   4.635   2.341
 2638WAT      O 8124   2.501   4.066   4.753
 2638WAT     H1 8125   2.558   4.007   4.802
 2638WAT     H2 8126   2.423   4.075   4.808
 2639WAT      O 8127   3.352   0.109   2.635
 2639WAT     H1 8128   3.319   0.081   2.550
 2639WAT     H2 8129   3.410   0.183   2.615
 2640WAT      O 8130   3.916   0.737   4.737
 2640WAT     H1 8131   3.936   0.644   4.744
 2640WAT     H2 8132   3.998   0.780   4.759
 2641WAT      O 8133   3.671   3.979   4.789
 2641WAT     H1 8134   3.750   3.955   4.839
 2641WAT     H2 8135   3.668   3.916   4.717
 2642WAT      O 8136   2.623   3.197   2.274
 2642WAT     H1 8137   2.709   3.169   2.306
 2642WAT     H2 8138   2.570   3.117   2.278
 2643WAT      O 8139   0.543   3.924   4.679
 2643WAT     H1 8140   0.515   3.833   4.668
 2643WAT     H2 8141   0.639   3.920   4.678
 2644WAT      O 8142   1.907   3.652   4.799
 2644WAT     H1 8143   1.994   3.617   4.780
 2644WAT     H2 8144   1.901   3.649   4.895
 2645WAT      O 8145   3.044   2.061   3.617
 2645WAT     H1 8146   2.949   2.061   3.616
 2645WAT     H2 8147   3.069   2.134   3.559
 2646WAT      O 8148   3.875   2.115   0.823
 2646WAT     H1 8149   3.795   2.065   0.807
 2646WAT     H2 8150   3.844   2.198   0.860
 2647WAT      O 8151   0.277   2.611   1.577
 2647WAT     H1 8152   0.270   2.538   1.639
 2647WAT     H2 8153   0.242   2.687   1.624
 2648WAT      O 8154   2.875   1.098   1.133
 2648WAT     H1 8155   2.952   1.040   1.136
 2648WAT     H2 8156   2.840   1.095   1.222
 2649WAT      O 8157   2.289   1.861   5.068
 2649WAT     H1 8158   2.324   1.915   4.997
 2649WAT     H2 8159   2.360   1.859   5.132
 2650WAT      O 8160   3.734   3.658   1.190
 2650WAT     H1 8161   3.755   3.576   1.146
 2650WAT     H2 8162   3.763   3.646   1.280
 2651WAT      O 8163   1.733   0.640   1.217
 2651WAT     H1 8164   1.667   0.624   1.285
 2651WAT     H2 8165   1.717   0.731   1.190
 2652WAT      O 8166   4.302   4.888   3.966
 2652WAT     H1 8167   4.278   4.975   3.997
 2652WAT     H2 8168   4.219   4.844   3.950
 2653WAT      O 8169   3.726   4.232   4.744
 2653WAT     H1 8170   3.708   4.138   4.738
 2653WAT     H2 8171   3.821   4.238   4.757
 2654WAT      O 8172   4.046   5.144   0.766
 2654WAT     H1 8173   3.995   5.068   0.792
 2654WAT     H2 8174   3.987   5.218   0.777
 2655WAT      O 8175   1.155   0.431   0.078
 2655WAT     H1 8176   1.241   0.415   0.116
 2655WAT     H2 8177   1.158   0.392  -0.009
 2656WAT      O 8178   3.184   0.045   1.946
 2656WAT     H1 8179   3.273   0.035   1.978
 2656WAT     H2 8180   3.141   0.100   2.011
 2657WAT      O 8181   0.152   0.855   1.653
 2657WAT     H1 8182   0.215   0.836   1.584
 2657WAT     H2 8183   0.091   0.780   1.652
 2658WAT      O 8184   3.009   2.916   3.405
 2658WAT     H1 8185   2.961   2.939   3.326
 2658WAT     H2 8186   3.053   2.834   3.383
 2659WAT      O 8187   1.557   4.608   1.608
 2659WAT     H1 8188   1.541   4.662   1.686
 2659WAT     H2 8189   1.645   4.633   1.579
 2660WAT      O 8190   3.892   0.051   2.184
 2660WAT     H1 8191   3.921  -0.029   2.139
 2660WAT     H2 8192   3.872   0.112   2.114
 2661WAT      O 8193   3.308   3.723   2.104
 2661WAT     H1 8194   3.393   3.749   2.070
 2661WAT     H2 8195   3.245   3.759   2.042
 2662WAT      O 8196   0.502   2.788   0.878
 2662WAT     H1 8197   0.454   2.870   0.891
 2662WAT     H2 8198   0.593   2.816   0.866
 2663WAT      O 8199   2.442   4.392   3.111
 2663WAT     H1 8200   2.477   4.326   3.171
 2663WAT     H2 8201   2.487   4.375   3.028
 2664WAT      O 8202   4.091   4.222   3.008
 2664WAT     H1 8203   4.142   4.207   3.087
 2664WAT     H2 8204   4.051   4.137   2.989
 2665WAT      O 8205   3.522   0.624   1.056
 2665WAT     H1 8206   3.498   0.545   1.105
 2665WAT     H2 8207   3.515   0.599   0.964
 2666WAT      O 8208   0.494   1.019   5.171
 2666WAT     H1 8209   0.583   1.045   5.147
 2666WAT     H2 8210   0.468   0.957   5.103
 2667WAT      O 8211   1.574   0.421   4.287
 2667WAT     H1 8212   1.552   0.507   4.321
 2667WAT     H2 8213   1.627   0.380   4.356
 2668WAT      O 8214   1.322   3.922   4.149
 2668WAT     H1 8215   1.256   3.867   4.191
 2668WAT     H2 8216   1.280   3.951   4.067
 2669WAT      O 8217   4.415   2.618   2.619
 2669WAT     H1 8218   4.507   2.593   2.627
 2669WAT     H2 8219   4.388   2.582   2.534
 2670WAT      O 8220   3.139   1.573   0.854
 2670WAT     H1 8221   3.225   1.609   0.873
 2670WAT     H2 8222   3.094   1.642   0.806
 2671WAT      O 8223   3.542   4.330   1.067
 2671WAT     H1 8224   3.578   4.296   0.985
 2671WAT     H2 8225   3.518   4.251   1.117
 2672WAT      O 8226   4.175   2.435   3.448
 2672WAT     H1 8227   4.103   2.454   3.388
 2672WAT     H2 8228   4.172   2.339   3.458
 2673WAT      O 8229   3.635   3.583   3.088
 2673WAT     H1 8230   3.605   3.674   3.092
 2673WAT     H2 8231   3.696   3.581   3.015
 2674WAT      O 8232   2.926   3.877   0.789
 2674WAT     H1 8233   2.958   3.967   0.791
 2674WAT     H2 8234   2.950   3.845   0.702
 2675WAT      O 8235   1.442   4.728   0.268
 2675WAT     H1 8236   1.515   4.781   0.236
 2675WAT     H2 8237   1.477   4.684   0.346
 2676WAT      O 8238   3.899   2.892   0.531
 2676WAT     H1 8239   3.921   2.893   0.624
 2676WAT     H2 8240   3.938   2.972   0.496
 2677WAT      O 8241   2.340   1.797   1.394
 2677WAT     H1 8242   2.309   1.708   1.408
 2677WAT     H2 8243   2.407   1.789   1.325
 2678WAT      O 8244   2.803   4.893   5.150
 2678WAT     H1 8245   2.767   4.974   5.187
 2678WAT     H2 8246   2.849   4.851   5.223
 2679WAT      O 8247   0.519   4.290   3.243
 2679WAT     H1 8248   0.577   4.344   3.297
 2679WAT     H2 8249   0.448   4.349   3.219
 2680WAT      O 8250   4.098   4.544   0.285
 2680WAT     H1 8251   4.134   4.512   0.203
 2680WAT     H2 8252   4.028   4.604   0.259
 2681WAT      O 8253   2.103   4.669   3.825
 2681WAT     H1 8254   2.183   4.721   3.827
 2681WAT     H2 8255   2.117   4.601   3.890
 2682WAT      O 8256   1.317   4.319   0.583
 2682WAT     H1 8257   1.289   4.292   0.671
 2682WAT     H2 8258   1.331   4.413   0.591
 2683WAT      O 8259   4.258   0.647   4.538
 2683WAT     H1 8260   4.352   0.629   4.549
 2683WAT     H2 8261   4.217   0.561   4.545
 2684WAT      O 8262   1.693   4.343   4.998
 2684WAT     H1 8263   1.769   4.397   5.019
 2684WAT     H2 8264   1.634   4.403   4.951
 2685WAT      O 8265   1.033   0.928   4.290
 2685WAT     H1 8266   1.031   0.921   4.195
 2685WAT     H2 8267   0.946   0.958   4.314
 2686WAT      O 8268   0.593   1.526   4.984
 2686WAT     H1 8269   0.645   1.599   4.950
 2686WAT     H2 8270   0.646   1.448   4.965
 2687WAT      O 8271   2.415   0.002   0.431
 2687WAT     H1 8272   2.349   0.033   0.493
 2687WAT     H2 8273   2.487  -0.029   0.487
 2688WAT      O 8274   4.292   1.740   2.232
 2688WAT     H1 8275   4.368   1.720   2.177
 2688WAT     H2 8276   4.315   1.820   2.277
 2689WAT      O 8277   4.002   2.472   5.070
 2689WAT     H1 8278   4.054   2.428   5.137
 2689WAT     H2 8279   4.007   2.565   5.094
 2690WAT      O 8280   3.843   1.238   0.342
 2690WAT     H1 8281   3.888   1.260   0.424
 2690WAT     H2 8282   3.914   1.213   0.283
 2691WAT      O 8283   4.192   2.984   2.331
 2691WAT     H1 8284   4.205   2.905   2.278
 2691WAT     H2 8285   4.122   2.961   2.392
 2692WAT      O 8286   1.804   4.054   3.082
 2692WAT     H1 8287   1.800   4.028   3.174
 2692WAT     H2 8288   1.732   4.116   3.070
 2693WAT      O 8289   0.943   2.856   0.042
 2693WAT     H1 8290   0.943   2.852  -0.054
 2693WAT     H2 8291   0.851   2.845   0.067
 2694WAT      O 8292   1.672   3.790   2.642
 2694WAT     H1 8293   1.696   3.775   2.733
 2694WAT     H2 8294   1.652   3.883   2.637
 2695WAT      O 8295   4.484   1.706   4.659
 2695WAT     H1 8296   4.449   1.774   4.602
 2695WAT     H2 8297   4.484   1.744   4.746
 2696WAT      O 8298   1.493   0.726   2.928
 2696WAT     H1 8299   1.440   0.675   2.989
 2696WAT     H2 8300   1.480   0.816   2.955
 2697WAT      O 8301   3.858   4.671   5.176
 2697WAT     H1 8302   3.877   4.742   5.238
 2697WAT     H2 8303   3.817   4.715   5.102
 2698WAT      O 8304   4.002   3.178   2.321
 2698WAT     H1 8305   3.936   3.108   2.322
 2698WAT     H2 8306   4.086   3.132   2.327
 2699WAT      O 8307   0.868   0.729   3.933
 2699WAT     H1 8308   0.945   0.785   3.924
 2699WAT     H2 8309   0.858   0.690   3.847
 2700WAT      O 8310   1.190   0.563   4.659
 2700WAT     H1 8311   1.119   0.551   4.722
 2700WAT     H2 8312   1.151   0.543   4.574
 2701WAT      O 8313   4.160   1.260   2.541
 2701WAT     H1 8314   4.119   1.285   2.458
 2701WAT     H2 8315   4.208   1.180   2.521
 2702WAT      O 8316   2.746   0.170   1.556
 2702WAT     H1 8317   2.756   0.265   1.545
 2702WAT     H2 8318   2.784   0.152   1.642
 2703WAT      O 8319   2.600   1.568   0.048
 2703WAT     H1 8320   2.628   1.659   0.053
 2703WAT     H2 8321   2.673   1.523   0.004
 2704WAT      O 8322   1.545   2.625   1.667
 2704WAT     H1 8323   1.487   2.633   1.742
 2704WAT     H2 8324   1.581   2.536   1.674
 2705WAT      O 8325   1.486   5.098   4.242
 2705WAT     H1 8326   1.482   5.050   4.160
 2705WAT     H2 8327   1.579   5.099   4.264
 2706WAT      O 8328   1.933   4.847   5.163
 2706WAT     H1 8329   1.841   4.821   5.151
 2706WAT     H2 8330   1.964   4.792   5.235
 2707WAT      O 8331   4.221   2.805   3.594
 2707WAT     H1 8332   4.186   2.719   3.618
 2707WAT     H2 8333   4.307   2.786   3.555
 2708WAT      O 8334   0.862   0.852   0.916
 2708WAT     H1 8335   0.795   0.800   0.872
 2708WAT     H2 8336   0.905   0.901   0.846
 2709WAT      O 8337   1.568   0.824   0.669
 2709WAT     H1 8338   1.493   0.773   0.640
 2709WAT     H2 8339   1.619   0.839   0.590
 2710WAT      O 8340   1.745   3.393   0.092
 2710WAT     H1 8341   1.663   3.386   0.140
 2710WAT     H2 8342   1.738   3.330   0.021
 2711WAT      O 8343   2.271   1.327   4.773
 2711WAT     H1 8344   2.182   1.295   4.757
 2711WAT     H2 8345   2.294   1.376   4.694
 2712WAT      O 8346   0.516   1.226   1.625
 2712WAT     H1 8347   0.592   1.175   1.655
 2712WAT     H2 8348   0.444   1.197   1.682
 2713WAT      O 8349   2.533   0.747   3.898
 2713WAT     H1 8350   2.476   0.823   3.903
 2713WAT     H2 8351   2.487   0.678   3.948
 2714WAT      O 8352   3.816   1.555   2.216
 2714WAT     H1 8353   3.887   1.617   2.230
 2714WAT     H2 8354   3.843   1.504   2.140
 2715WAT      O 8355   2.283   1.466   4.543
 2715WAT     H1 8356   2.346   1.490   4.475
 2715WAT     H2 8357   2.268   1.547   4.592
 2716WAT      O 8358   1.552   1.829   4.045
 2716WAT     H1 8359   1.539   1.901   3.983
 2716WAT     H2 8360   1.576   1.754   3.990
 2717WAT      O 8361   4.513   4.483   0.378
 2717WAT     H1 8362   4.537   4.417   0.313
 2717WAT     H2 8363   4.591   4.492   0.433
 2718WAT      O 8364   3.484   3.283   0.520
 2718WAT     H1 8365   3.462   3.267   0.611
 2718WAT     H2 8366   3.557   3.223   0.503
 2719WAT      O 8367   0.517   2.802   4.873
 2719WAT     H1 8368   0.501   2.738   4.942
 2719WAT     H2 8369   0.612   2.815   4.872
 2720WAT      O 8370   1.009   3.299   2.686
 2720WAT     H1 8371   1.073   3.369   2.669
 2720WAT     H2 8372   1.032   3.230   2.623
 2721WAT      O 8373   2.345   1.749   4.477
 2721WAT     H1 8374   2.425   1.765   4.428
 2721WAT     H2 8375   2.275   1.775   4.418
 2722WAT      O 8376   0.125   3.419   4.356
 2722WAT     H1 8377   0.175   3.467   4.290
 2722WAT     H2 8378   0.061   3.482   4.389
 2723WAT      O 8379   0.524   2.030   3.237
 2723WAT     H1 8380   0.569   2.003   3.158
 2723WAT     H2 8381   0.592   2.032   3.304
 2724WAT      O 8382   2.009   0.617   2.705
 2724WAT     H1 8383   1.929   0.619   2.652
 2724WAT     H2 8384   1.985   0.570   2.784
 2725WAT      O 8385   2.608   2.759   3.499
 2725WAT     H1 8386   2.551   2.760   3.422
 2725WAT     H2 8387   2.647   2.846   3.500
 2726WAT      O 8388   4.522   0.359   2.444
 2726WAT     H1 8389   4.539   0.415   2.519
 2726WAT     H2 8390   4.535   0.270   2.477
 2727WAT      O 8391   1.735   2.177   4.146
 2727WAT     H1 8392   1.719   2.238   4.074
 2727WAT     H2 8393   1.647   2.148   4.172
 2728WAT      O 8394   1.059   3.791   4.177
 2728WAT     H1 8395   0.998   3.854   4.215
 2728WAT     H2 8396   1.034   3.785   4.085
 2729WAT      O 8397   4.326   0.778   0.411
 2729WAT     H1 8398   4.248   0.731   0.439
 2729WAT     H2 8399   4.356   0.824   0.489
 2730WAT      O 8400   3.148   0.106   0.500
 2730WAT     H1 8401   3.076   0.170   0.499
 2730WAT     H2 8402   3.226   0.158   0.481
 2731WAT      O 8403   2.482   3.434   3.368
 2731WAT     H1 8404   2.468   3.340   3.382
 2731WAT     H2 8405   2.412   3.460   3.309
 2732WAT      O 8406   3.350   4.517   4.294
 2732WAT     H1 8407   3.344   4.422   4.309
 2732WAT     H2 8408   3.366   4.525   4.200
 2733WAT      O 8409   0.934   2.667   3.414
 2733WAT     H1 8410   1.014   2.633   3.456
 2733WAT     H2 8411   0.964   2.744   3.365
 2734WAT      O 8412   3.091   4.723   1.608
 2734WAT     H1 8413   3.117   4.802   1.561
 2734WAT     H2 8414   3.142   4.724   1.689
 2735WAT      O 8415   2.701   3.077   1.464
 2735WAT     H1 8416   2.655   3.006   1.508
 2735WAT     H2 8417   2.712   3.144   1.532
 2736WAT      O 8418   1.597   4.845   3.409
 2736WAT     H1 8419   1.638   4.881   3.330
 2736WAT     H2 8420   1.637   4.894   3.481
 2737WAT      O 8421   0.220   2.773   4.443
 2737WAT     H1 8422   0.224   2.790   4.537
 2737WAT     H2 8423   0.138   2.815   4.415
 2738WAT      O 8424   3.085   1.510   5.101
 2738WAT     H1 8425   3.169   1.490   5.061
 2738WAT     H2 8426   3.103   1.583   5.159
 2739WAT      O 8427   1.633   5.001   4.978
 2739WAT     H1 8428   1.564   4.935   4.972
 2739WAT     H2 8429   1.586   5.085   4.976
 2740WAT      O 8430   2.962   3.239   1.368
 2740WAT     H1 8431   2.915   3.175   1.423
 2740WAT     H2 8432   2.905   3.252   1.292
 2741WAT      O 8433   2.462   4.920   1.621
 2741WAT     H1 8434   2.514   4.903   1.543
 2741WAT     H2 8435   2.371   4.916   1.590
 2742WAT      O 8436   1.137   1.526   4.900
 2742WAT     H1 8437   1.078   1.470   4.950
 2742WAT     H2 8438   1.102   1.615   4.911
 2743WAT      O 8439   2.588   2.418   1.138
 2743WAT     H1 8440   2.646   2.472   1.192
 2743WAT     H2 8441   2.557   2.477   1.070
 2744WAT      O 8442   3.605   0.244   4.141
 2744WAT     H1 8443   3.603   0.170   4.200
 2744WAT     H2 8444   3.693   0.282   4.154
 2745WAT      O 8445   0.495   2.592   4.223
 2745WAT     H1 8446   0.429   2.549   4.169
 2745WAT     H2 8447   0.573   2.539   4.212
 2746WAT      O 8448   3.815   1.100   1.751
 2746WAT     H1 8449   3.808   1.195   1.759
 2746WAT     H2 8450   3.746   1.066   1.809
 2747WAT      O 8451   3.353   4.694   0.940
 2747WAT     H1 8452   3.350   4.789   0.925
 2747WAT     H2 8453   3.282   4.677   1.001
 2748WAT      O 8454   0.708   4.518   4.995
 2748WAT     H1 8455   0.742   4.605   4.975
 2748WAT     H2 8456   0.668   4.527   5.081
 2749WAT      O 8457   0.668   3.063   4.503
 2749WAT     H1 8458   0.639   3.085   4.592
 2749WAT     H2 8459   0.588   3.034   4.459
 2750WAT      O 8460   2.055   0.453   2.174
 2750WAT     H1 8461   2.073   0.538   2.133
 2750WAT     H2 8462   1.982   0.416   2.122
 2751WAT      O 8463   3.799   5.080   2.997
 2751WAT     H1 8464   3.888   5.116   3.004
 2751WAT     H2 8465   3.760   5.127   2.923
 2752WAT      O 8466   1.005   3.645   0.879
 2752WAT     H1 8467   0.982   3.731   0.845
 2752WAT     H2 8468   1.098   3.651   0.900
 2753WAT      O 8469   0.055   1.992   3.592
 2753WAT     H1 8470   0.122   1.947   3.643
 2753WAT     H2 8471   0.002   1.922   3.554
 2754WAT      O 8472   3.356   1.090   1.997
 2754WAT     H1 8473   3.268   1.113   1.968
 2754WAT     H2 8474   3.385   1.165   2.047
 2755WAT      O 8475   1.527   0.690   2.160
 2755WAT     H1 8476   1.446   0.685   2.211
 2755WAT     H2 8477   1.578   0.757   2.204
 2756WAT      O 8478   1.254   3.908   4.488
 2756WAT     H1 8479   1.172   3.946   4.456
 2756WAT     H2 8480   1.321   3.972   4.465
 2757WAT      O 8481   0.340   4.578   0.092
 2757WAT     H1 8482   0.246   4.591   0.084
 2757WAT     H2 8483   0.362   4.615   0.177
 2758WAT      O 8484   0.822   4.708   2.952
 2758WAT     H1 8485   0.879   4.686   2.879
 2758WAT     H2 8486   0.848   4.649   3.022
 2759WAT      O 8487   1.995   1.146   1.396
 2759WAT     H1 8488   1.921   1.088   1.410
 2759WAT     H2 8489   2.034   1.157   1.483
 2760WAT      O 8490   0.017   0.072   2.127
 2760WAT     H1 8491   0.057   0.158   2.114
 2760WAT     H2 8492   0.090   0.016   2.153
 2761WAT      O 8493   2.738   4.756   3.440
 2761WAT     H1 8494   2.727   4.781   3.348
 2761WAT     H2 8495   2.832   4.753   3.453
 2762WAT      O 8496   3.080   2.220   0.187
 2762WAT     H1 8497   3.130   2.296   0.157
 2762WAT     H2 8498   3.074   2.163   0.110
 2763WAT      O 8499   0.914   4.200   1.205
 2763WAT     H1 8500   0.933   4.110   1.177
 2763WAT     H2 8501   1.000   4.242   1.211
 2764WAT      O 8502   2.856   0.160   4.366
 2764WAT     H1 8503   2.883   0.225   4.431
 2764WAT     H2 8504   2.896   0.189   4.284
 2765WAT      O 8505   3.772   0.788   0.902
 2765WAT     H1 8506   3.693   0.821   0.861
 2765WAT     H2 8507   3.763   0.813   0.994
 2766WAT      O 8508   3.271   3.234   4.303
 2766WAT     H1 8509   3.324   3.178   4.360
 2766WAT     H2 8510   3.330   3.304   4.275
 2767WAT      O 8511   2.951   1.391   3.200
 2767WAT     H1 8512   2.926   1.369   3.110
 2767WAT     H2 8513   2.891   1.461   3.225
 2768WAT      O 8514   3.389   0.596   2.696
 2768WAT     H1 8515   3.350   0.510   2.718
 2768WAT     H2 8516   3.352   0.655   2.761
 2769WAT      O 8517   2.625   0.280   2.608
 2769WAT     H1 8518   2.560   0.275   2.678
 2769WAT     H2 8519   2.590   0.225   2.538
 2770WAT      O 8520   4.128   3.550   0.066
 2770WAT     H1 8521   4.113   3.597  -0.015
 2770WAT     H2 8522   4.072   3.593   0.130
 2771WAT      O 8523   4.163   0.341   3.879
 2771WAT     H1 8524   4.079   0.379   3.856
 2771WAT     H2 8525   4.150   0.304   3.967
 2772WAT      O 8526   0.170   0.951   2.555
 2772WAT     H1 8527   0.249   1.004   2.545
 2772WAT     H2 8528   0.169   0.894   2.479
 2773WAT      O 8529   1.205   4.846   0.406
 2773WAT     H1 8530   1.282   4.831   0.351
 2773WAT     H2 8531   1.148   4.901   0.352
 2774WAT      O 8532   1.584   2.055   3.723
 2774WAT     H1 8533   1.605   2.077   3.633
 2774WAT     H2 8534   1.520   2.122   3.749
 2775WAT      O 8535   1.141   4.367   1.287
 2775WAT     H1 8536   1.094   4.404   1.361
 2775WAT     H2 8537   1.233   4.379   1.308
 2776WAT      O 8538   0.794   3.018   4.126
 2776WAT     H1 8539   0.823   2.931   4.152
 2776WAT     H2 8540   0.703   3.007   4.098
 2777WAT      O 8541   1.159   3.683   1.277
 2777WAT     H1 8542   1.175   3.619   1.346
 2777WAT     H2 8543   1.064   3.698   1.279
 2778WAT      O 8544   0.005   3.476   3.763
 2778WAT     H1 8545  -0.006   3.448   3.854
 2778WAT     H2 8546  -0.074   3.445   3.719
 2779WAT      O 8547   4.125   1.747   3.886
 2779WAT     H1 8548   4.039   1.739   3.927
 2779WAT     H2 8549   4.110   1.731   3.793
 2780WAT      O 8550   2.153   2.550   1.209
 2780WAT     H1 8551   2.212   2.624   1.218
 2780WAT     H2 8552   2.178   2.509   1.126
 2781WAT      O 8553   3.400   1.372   0.943
 2781WAT     H1 8554   3.437   1.445   0.896
 2781WAT     H2 8555   3.473   1.336   0.993
 2782WAT      O 8556   3.721   0.645   2.274
 2782WAT     H1 8557   3.709   0.558   2.311
 2782WAT     H2 8558   3.777   0.632   2.198
 2783WAT      O 8559   0.877   4.621   1.838
 2783WAT     H1 8560   0.887   4.621   1.743
 2783WAT     H2 8561   0.883   4.713   1.863
 2784WAT      O 8562   1.572   4.330   1.240
 2784WAT     H1 8563   1.586   4.339   1.146
 2784WAT     H2 8564   1.532   4.244   1.250
 2785WAT      O 8565   1.723   0.806   4.568
 2785WAT     H1 8566   1.749   0.891   4.531
 2785WAT     H2 8567   1.805   0.757   4.574
 2786WAT      O 8568   1.721   2.939   2.030
 2786WAT     H1 8569   1.706   2.846   2.037
 2786WAT     H2 8570   1.651   2.971   1.972
 2787WAT      O 8571   1.871   2.502   1.447
 2787WAT     H1 8572   1.848   2.529   1.358
 2787WAT     H2 8573   1.814   2.427   1.464
 2788WAT      O 8574   4.159   1.238   1.986
 2788WAT     H1 8575   4.116   1.195   1.912
 2788WAT     H2 8576   4.229   1.178   2.012
 2789WAT      O 8577   3.293   4.766   2.443
 2789WAT     H1 8578   3.358   4.825   2.482
 2789WAT     H2 8579   3.340   4.684   2.429
 2790WAT      O 8580   1.283   0.873   2.205
 2790WAT     H1 8581   1.302   0.965   2.185
 2790WAT     H2 8582   1.252   0.875   2.296
 2791WAT      O 8583   3.436   2.028   0.758
 2791WAT     H1 8584   3.345   2.036   0.730
 2791WAT     H2 8585   3.433   2.040   0.852
 2792WAT      O 8586   0.786   0.724   2.311
 2792WAT     H1 8587   0.798   0.810   2.268
 2792WAT     H2 8588   0.778   0.745   2.404
 2793WAT      O 8589   2.439   0.134   4.123
 2793WAT     H1 8590   2.428   0.173   4.210
 2793WAT     H2 8591   2.359   0.157   4.076
 2794WAT      O 8592   4.235   2.877   3.151
 2794WAT     H1 8593   4.316   2.832   3.174
 2794WAT     H2 8594   4.192   2.819   3.088
 2795WAT      O 8595   0.519   0.112   0.233
 2795WAT     H1 8596   0.429   0.087   0.216
 2795WAT     H2 8597   0.526   0.202   0.202
 2796WAT      O 8598   2.214   1.105   4.397
 2796WAT     H1 8599   2.280   1.057   4.448
 2796WAT     H2 8600   2.266   1.158   4.337
 2797WAT      O 8601   2.595   5.084   2.975
 2797WAT     H1 8602   2.566   5.100   3.065
 2797WAT     H2 8603   2.618   5.171   2.942
 2798WAT      O 8604   1.144   0.471   0.811
 2798WAT     H1 8605   1.229   0.457   0.853
 2798WAT     H2 8606   1.123   0.387   0.770
 2799WAT      O 8607   1.750   0.691   0.362
 2799WAT     H1 8608   1.735   0.785   0.351
 2799WAT     H2 8609   1.838   0.676   0.326
 2800WAT      O 8610   3.155   4.409   0.110
 2800WAT     H1 8611   3.121   4.342   0.169
 2800WAT     H2 8612   3.180   4.362   0.031
 2801WAT      O 8613   3.544   1.315   5.279
 2801WAT     H1 8614   3.625   1.316   5.229
 2801WAT     H2 8615   3.572   1.297   5.370
 2802WAT      O 8616   3.967   2.711   2.291
 2802WAT     H1 8617   3.970   2.794   2.245
 2802WAT     H2 8618   3.889   2.667   2.257
 2803WAT      O 8619   2.735   1.733   3.792
 2803WAT     H1 8620   2.724   1.698   3.881
 2803WAT     H2 8621   2.646   1.734   3.757
 2804WAT      O 8622   1.640   3.477   4.987
 2804WAT     H1 8623   1.576   3.540   5.020
 2804WAT     H2 8624   1.625   3.476   4.892
 2805WAT      O 8625   1.385   2.082   1.185
 2805WAT     H1 8626   1.334   2.005   1.162
 2805WAT     H2 8627   1.392   2.079   1.280
 2806WAT      O 8628   1.379   0.438   0.922
 2806WAT     H1 8629   1.410   0.527   0.941
 2806WAT     H2 8630   1.424   0.382   0.987
 2807WAT      O 8631   3.048   0.821   5.159
 2807WAT     H1 8632   3.052   0.892   5.224
 2807WAT     H2 8633   3.125   0.769   5.177
 2808WAT      O 8634   2.763   1.525   3.580
 2808WAT     H1 8635   2.750   1.603   3.636
 2808WAT     H2 8636   2.698   1.461   3.612
 2809WAT      O 8637   1.035   3.334   3.037
 2809WAT     H1 8638   0.963   3.292   3.084
 2809WAT     H2 8639   0.999   3.418   3.008
 2810WAT      O 8640   4.133   4.325   4.292
 2810WAT     H1 8641   4.053   4.279   4.265
 2810WAT     H2 8642   4.129   4.408   4.245
 2811WAT      O 8643   4.383   3.165   4.144
 2811WAT     H1 8644   4.412   3.166   4.052
 2811WAT     H2 8645   4.306   3.107   4.144
 2812WAT      O 8646   2.865   2.448   2.000
 2812WAT     H1 8647   2.846   2.365   1.957
 2812WAT     H2 8648   2.786   2.501   1.986
 2813WAT      O 8649   1.453   3.003   0.465
 2813WAT     H1 8650   1.497   2.931   0.511
 2813WAT     H2 8651   1.365   2.970   0.447
 2814WAT      O 8652   3.203   4.400   4.942
 2814WAT     H1 8653   3.236   4.361   5.023
 2814WAT     H2 8654   3.261   4.474   4.926
 2815WAT      O 8655   0.802   4.200   0.806
 2815WAT     H1 8656   0.894   4.196   0.778
 2815WAT     H2 8657   0.764   4.270   0.753
 2816WAT      O 8658   3.828   3.768   5.204
 2816WAT     H1 8659   3.868   3.700   5.151
 2816WAT     H2 8660   3.881   3.846   5.186
 2817WAT      O 8661   2.611   1.405   2.464
 2817WAT     H1 8662   2.669   1.477   2.489
 2817WAT     H2 8663   2.624   1.395   2.370
 2818WAT      O 8664   3.395   1.467   3.519
 2818WAT     H1 8665   3.465   1.499   3.576
 2818WAT     H2 8666   3.317   1.514   3.548
 2819WAT      O 8667   1.940   2.388   0.901
 2819WAT     H1 8668   1.903   2.301   0.886
 2819WAT     H2 8669   2.030   2.382   0.870
 2820WAT      O 8670   3.522   3.753   2.337
 2820WAT     H1 8671   3.510   3.793   2.251
 2820WAT     H2 8672   3.444   3.778   2.387
 2821WAT      O 8673   3.328   0.976   4.586
 2821WAT     H1 8674   3.292   0.951   4.671
 2821WAT     H2 8675   3.252   1.004   4.535
 2822WAT      O 8676   4.255   3.055   4.582
 2822WAT     H1 8677   4.318   3.073   4.512
 2822WAT     H2 8678   4.296   3.090   4.661
 2823WAT      O 8679   1.319   0.026   4.945
 2823WAT     H1 8680   1.261  -0.029   4.999
 2823WAT     H2 8681   1.366   0.081   5.009
 2824WAT      O 8682   3.166   0.346   4.433
 2824WAT     H1 8683   3.136   0.423   4.385
 2824WAT     H2 8684   3.141   0.364   4.524
 2825WAT      O 8685   1.805   1.057   4.298
 2825WAT     H1 8686   1.717   1.092   4.317
 2825WAT     H2 8687   1.789   0.980   4.244
 2826WAT      O 8688   1.267   0.416   3.538
 2826WAT     H1 8689   1.237   0.379   3.454
 2826WAT     H2 8690   1.347   0.464   3.515
 2827WAT      O 8691   1.621   3.334   2.327
 2827WAT     H1 8692   1.666   3.364   2.248
 2827WAT     H2 8693   1.615   3.239   2.316
 2828WAT      O 8694   2.924   4.089   3.298
 2828WAT     H1 8695   2.923   4.102   3.203
 2828WAT     H2 8696   2.944   3.995   3.309
 2829WAT      O 8697   3.538   2.630   0.816
 2829WAT     H1 8698   3.630   2.656   0.813
 2829WAT     H2 8699   3.537   2.540   0.782
 2830WAT      O 8700   2.510   1.685   2.639
 2830WAT     H1 8701   2.550   1.645   2.561
 2830WAT     H2 8702   2.545   1.774   2.641
 2831WAT      O 8703   0.817   3.427   4.025
 2831WAT     H1 8704   0.765   3.362   4.073
 2831WAT     H2 8705   0.800   3.409   3.933
 2832WAT      O 8706   0.798   4.464   0.729
 2832WAT     H1 8707   0.742   4.512   0.668
 2832WAT     H2 8708   0.855   4.531   0.767
 2833WAT      O 8709   2.616   5.018   0.224
 2833WAT     H1 8710   2.572   4.996   0.306
 2833WAT     H2 8711   2.554   4.991   0.155
 2834WAT      O 8712   0.498   4.100   2.050
 2834WAT     H1 8713   0.510   4.018   2.001
 2834WAT     H2 8714   0.435   4.078   2.118
 2835WAT      O 8715   3.141   4.313   0.470
 2835WAT     H1 8716   3.113   4.282   0.384
 2835WAT     H2 8717   3.232   4.285   0.477
 2836WAT      O 8718   0.004   0.079   1.475
 2836WAT     H1 8719  -0.080   0.035   1.480
 2836WAT     H2 8720   0.035   0.083   1.565
 2837WAT      O 8721   1.739   1.402   1.568
 2837WAT     H1 8722   1.825   1.422   1.530
 2837WAT     H2 8723   1.688   1.366   1.496
 2838WAT      O 8724   2.606   3.625   0.601
 2838WAT     H1 8725   2.519   3.658   0.578
 2838WAT     H2 8726   2.664   3.699   0.588
 2839WAT      O 8727   3.422   1.453   2.824
 2839WAT     H1 8728   3.463   1.504   2.893
 2839WAT     H2 8729   3.495   1.424   2.769
 2840WAT      O 8730   4.161   0.331   2.111
 2840WAT     H1 8731   4.217   0.336   2.188
 2840WAT     H2 8732   4.201   0.263   2.056
 2841WAT      O 8733   0.176   4.170   3.744
 2841WAT     H1 8734   0.222   4.253   3.732
 2841WAT     H2 8735   0.140   4.176   3.832
 2842WAT      O 8736   3.420   1.760   4.528
 2842WAT     H1 8737   3.348   1.710   4.489
 2842WAT     H2 8738   3.388   1.850   4.532
 2843WAT      O 8739   0.097   2.293   3.547
 2843WAT     H1 8740   0.030   2.320   3.483
 2843WAT     H2 8741   0.096   2.197   3.543
 2844WAT      O 8742   0.881   1.675   2.938
 2844WAT     H1 8743   0.797   1.694   2.896
 2844WAT     H2 8744   0.863   1.599   2.994
 2845WAT      O 8745   0.519   4.892   3.163
 2845WAT     H1 8746   0.611   4.917   3.176
 2845WAT     H2 8747   0.524   4.811   3.112
 2846WAT      O 8748   2.974   2.709   2.575
 2846WAT     H1 8749   2.923   2.634   2.545
 2846WAT     H2 8750   2.930   2.736   2.656
 2847WAT      O 8751   3.485   4.204   3.413
 2847WAT     H1 8752   3.537   4.273   3.454
 2847WAT     H2 8753   3.472   4.140   3.482
 2848WAT      O 8754   0.235   2.520   3.538
 2848WAT     H1 8755   0.166   2.586   3.537
 2848WAT     H2 8756   0.189   2.438   3.554
 2849WAT      O 8757   1.563   2.664   5.093
 2849WAT     H1 8758   1.643   2.638   5.046
 2849WAT     H2 8759   1.547   2.754   5.064
 2850WAT      O 8760   3.371   3.768   3.402
 2850WAT     H1 8761   3.366   3.850   3.451
 2850WAT     H2 8762   3.363   3.795   3.310
 2851WAT      O 8763   2.808   3.108   3.735
 2851WAT     H1 8764   2.745   3.085   3.667
 2851WAT     H2 8765   2.806   3.202   3.738
 2852WAT      O 8766   2.103   4.262   5.003
 2852WAT     H1 8767   2.130   4.319   5.074
 2852WAT     H2 8768   2.038   4.203   5.042
 2853WAT      O 8769   2.062   0.788   3.878
 2853WAT     H1 8770   2.002   0.805   3.951
 2853WAT     H2 8771   2.106   0.706   3.902
 2854WAT      O 8772   2.688   2.969   1.030
 2854WAT     H1 8773   2.766   2.923   1.061
 2854WAT     H2 8774   2.646   3.001   1.109
 2855WAT      O 8775   2.563   4.787   3.015
 2855WAT     H1 8776   2.529   4.751   3.096
 2855WAT     H2 8777   2.588   4.877   3.038
 2856WAT      O 8778   4.393   4.172   0.864
 2856WAT     H1 8779   4.341   4.121   0.926
 2856WAT     H2 8780   4.428   4.107   0.803
 2857WAT      O 8781   1.423   5.076   3.914
 2857WAT     H1 8782   1.423   5.074   3.818
 2857WAT     H2 8783   1.365   5.004   3.939
 2858WAT      O 8784   0.871   0.480   4.572
 2858WAT     H1 8785   0.788   0.446   4.540
 2858WAT     H2 8786   0.908   0.527   4.497
 2859WAT      O 8787   3.798   0.981   2.994
 2859WAT     H1 8788   3.869   0.948   3.049
 2859WAT     H2 8789   3.727   1.000   3.055
 2860WAT      O 8790   3.563   2.328   4.651
 2860WAT     H1 8791   3.636   2.388   4.637
 2860WAT     H2 8792   3.492   2.365   4.597
 2861WAT      O 8793   2.880   4.018   1.470
 2861WAT     H1 8794   2.969   4.035   1.440
 2861WAT     H2 8795   2.824   4.064   1.408
 2862WAT      O 8796   0.056   5.095   3.411
 2862WAT     H1 8797   0.080   5.188   3.414
 2862WAT     H2 8798  -0.037   5.094   3.432
 2863WAT      O 8799   2.970   2.745   1.328
 2863WAT     H1 8800   3.024   2.824   1.322
 2863WAT     H2 8801   3.033   2.675   1.346
 2864WAT      O 8802   2.470   3.024   0.767
 2864WAT     H1 8803   2.554   3.063   0.742
 2864WAT     H2 8804   2.421   3.096   0.805
 2865WAT      O 8805   0.359   1.657   4.868
 2865WAT     H1 8806   0.332   1.572   4.904
 2865WAT     H2 8807   0.404   1.701   4.940
 2866WAT      O 8808   3.579   0.074   1.746
 2866WAT     H1 8809   3.511   0.012   1.723
 2866WAT     H2 8810   3.658   0.040   1.705
 2867WAT      O 8811   1.678   3.943   0.233
 2867WAT     H1 8812   1.627   3.867   0.205
 2867WAT     H2 8813   1.716   3.917   0.317
 2868WAT      O 8814   1.110   4.060   3.959
 2868WAT     H1 8815   1.064   3.997   3.904
 2868WAT     H2 8816   1.178   4.096   3.902
 2869WAT      O 8817   1.609   2.131   2.869
 2869WAT     H1 8818   1.687   2.075   2.871
 2869WAT     H2 8819   1.573   2.124   2.958
 2870WAT      O 8820   1.744   4.939   0.511
 2870WAT     H1 8821   1.781   4.962   0.597
 2870WAT     H2 8822   1.665   4.993   0.503
 2871WAT      O 8823   0.428   4.395   2.091
 2871WAT     H1 8824   0.485   4.319   2.104
 2871WAT     H2 8825   0.348   4.358   2.053
 2872WAT      O 8826   0.537   1.821   3.786
 2872WAT     H1 8827   0.552   1.774   3.703
 2872WAT     H2 8828   0.574   1.908   3.771
 2873WAT      O 8829   0.367   1.175   0.730
 2873WAT     H1 8830   0.326   1.178   0.817
 2873WAT     H2 8831   0.353   1.085   0.701
 2874WAT      O 8832   3.489   1.602   4.746
 2874WAT     H1 8833   3.562   1.542   4.726
 2874WAT     H2 8834   3.472   1.647   4.663
 2875WAT      O 8835   3.479   4.601   0.459
 2875WAT     H1 8836   3.419   4.579   0.388
 2875WAT     H2 8837   3.440   4.559   0.536
 2876WAT      O 8838   1.404   3.625   1.130
 2876WAT     H1 8839   1.325   3.621   1.183
 2876WAT     H2 8840   1.466   3.569   1.176
 2877WAT      O 8841   3.917   1.195   0.631
 2877WAT     H1 8842   3.969   1.274   0.644
 2877WAT     H2 8843   3.837   1.210   0.681
 2878WAT      O 8844   1.621   0.464   0.329
 2878WAT     H1 8845   1.693   0.411   0.294
 2878WAT     H2 8846   1.661   0.548   0.350
 2879WAT      O 8847   2.243   4.646   2.018
 2879WAT     H1 8848   2.247   4.689   2.103
 2879WAT     H2 8849   2.320   4.677   1.971
 2880WAT      O 8850   4.251   2.147   5.074
 2880WAT     H1 8851   4.265   2.063   5.032
 2880WAT     H2 8852   4.333   2.195   5.060
 2881WAT      O 8853   4.047   3.971   3.895
 2881WAT     H1 8854   4.109   4.041   3.876
 2881WAT     H2 8855   4.103   3.895   3.913
 2882WAT      O 8856   1.549   1.577   0.456
 2882WAT     H1 8857   1.492   1.524   0.401
 2882WAT     H2 8858   1.491   1.642   0.496
 2883WAT      O 8859   0.275   4.764   0.631
 2883WAT     H1 8860   0.228   4.718   0.701
 2883WAT     H2 8861   0.344   4.812   0.676
 2884WAT      O 8862   2.996   4.638   3.384
 2884WAT     H1 8863   3.052   4.638   3.306
 2884WAT     H2 8864   2.970   4.546   3.394
 2885WAT      O 8865   4.331   3.417   3.580
 2885WAT     H1 8866   4.399   3.437   3.515
 2885WAT     H2 8867   4.319   3.323   3.573
 2886WAT      O 8868   3.952   4.087   0.315
 2886WAT     H1 8869   4.002   4.134   0.381
 2886WAT     H2 8870   3.979   3.995   0.326
 2887WAT      O 8871   3.247   4.858   5.103
 2887WAT     H1 8872   3.238   4.888   5.194
 2887WAT     H2 8873   3.173   4.798   5.091
 2888WAT      O 8874   1.011   2.026   1.692
 2888WAT     H1 8875   0.919   2.028   1.719
 2888WAT     H2 8876   1.040   1.938   1.713
 2889WAT      O 8877   3.259   2.665   0.849
 2889WAT     H1 8878   3.345   2.659   0.807
 2889WAT     H2 8879   3.259   2.750   0.892
 2890WAT      O 8880   1.061   4.606   1.179
 2890WAT     H1 8881   1.098   4.521   1.203
 2890WAT     H2 8882   0.967   4.590   1.172
 2891WAT      O 8883   2.520   2.425   4.925
 2891WAT     H1 8884   2.549   2.352   4.980
 2891WAT     H2 8885   2.447   2.389   4.875
 2892WAT      O 8886   0.205   2.781   5.047
 2892WAT     H1 8887   0.274   2.719   5.022
 2892WAT     H2 8888   0.129   2.726   5.065
 2893WAT      O 8889   4.465   2.190   1.677
 2893WAT     H1 8890   4.471   2.167   1.584
 2893WAT     H2 8891   4.378   2.228   1.687
 2894WAT      O 8892   1.392   1.816   4.265
 2894WAT     H1 8893   1.296   1.816   4.258
 2894WAT     H2 8894   1.422   1.808   4.174
 2895WAT      O 8895   2.342   4.266   4.172
 2895WAT     H1 8896   2.296   4.269   4.256
 2895WAT     H2 8897   2.401   4.191   4.179
 2896WAT      O 8898   4.221   3.843   0.704
 2896WAT     H1 8899   4.260   3.826   0.791
 2896WAT     H2 8900   4.127   3.844   0.720
 2897WAT      O 8901   3.228   0.160   3.177
 2897WAT     H1 8902   3.155   0.100   3.192
 2897WAT     H2 8903   3.299   0.103   3.146
 2898WAT      O 8904   3.980   3.422   3.994
 2898WAT     H1 8905   3.942   3.334   3.991
 2898WAT     H2 8906   3.923   3.474   3.938
 2899WAT      O 8907   1.831   4.091   2.786
 2899WAT     H1 8908   1.780   4.072   2.865
 2899WAT     H2 8909   1.906   4.141   2.817
 2900WAT      O 8910   2.682   1.129   3.290
 2900WAT     H1 8911   2.662   1.067   3.220
 2900WAT     H2 8912   2.643   1.213   3.261
 2901WAT      O 8913   1.761   5.099   5.253
 2901WAT     H1 8914   1.716   5.094   5.168
 2901WAT     H2 8915   1.807   5.015   5.261
 2902WAT      O 8916   2.952   2.761   1.635
 2902WAT     H1 8917   2.939   2.764   1.540
 2902WAT     H2 8918   3.047   2.760   1.646
 2903WAT      O 8919   0.864   0.304   2.603
 2903WAT     H1 8920   0.872   0.213   2.574
 2903WAT     H2 8921   0.941   0.319   2.657
 2904WAT      O 8922   3.441   5.117   3.088
 2904WAT     H1 8923   3.500   5.193   3.088
 2904WAT     H2 8924   3.443   5.085   2.998
 2905WAT      O 8925   1.519   4.039   4.313
 2905WAT     H1 8926   1.482   4.126   4.298
 2905WAT     H2 8927   1.461   3.979   4.265
 2906WAT      O 8928   4.206   5.015   2.589
 2906WAT     H1 8929   4.207   5.049   2.499
 2906WAT     H2 8930   4.231   4.923   2.580
 2907WAT      O 8931   3.707   2.181   2.214
 2907WAT     H1 8932   3.627   2.138   2.246
 2907WAT     H2 8933   3.693   2.274   2.233
 2908WAT      O 8934   0.794   4.609   1.549
 2908WAT     H1 8935   0.728   4.557   1.503
 2908WAT     H2 8936   0.743   4.670   1.603
 2909WAT      O 8937   4.148   4.890   3.534
 2909WAT     H1 8938   4.203   4.839   3.594
 2909WAT     H2 8939   4.091   4.825   3.494
 2910WAT      O 8940   1.763   2.429   4.282
 2910WAT     H1 8941   1.732   2.343   4.308
 2910WAT     H2 8942   1.707   2.490   4.331
 2911WAT      O 8943   2.939   3.396   3.074
 2911WAT     H1 8944   2.866   3.431   3.125
 2911WAT     H2 8945   3.001   3.364   3.140
 2912WAT      O 8946   0.764   0.367   4.976
 2912WAT     H1 8947   0.809   0.415   4.907
 2912WAT     H2 8948   0.673   0.400   4.973
 2913WAT      O 8949   3.975   0.254   3.205
 2913WAT     H1 8950   3.891   0.218   3.233
 2913WAT     H2 8951   4.009   0.190   3.143
 2914WAT      O 8952   0.879   0.714   0.395
 2914WAT     H1 8953   0.969   0.732   0.421
 2914WAT     H2 8954   0.881   0.713   0.300
 2915WAT      O 8955   4.100   1.585   4.422
 2915WAT     H1 8956   4.151   1.504   4.434
 2915WAT     H2 8957   4.161   1.646   4.380
 2916WAT      O 8958   0.055   5.061   3.724
 2916WAT     H1 8959   0.088   5.097   3.641
 2916WAT     H2 8960   0.104   5.107   3.792
 2917WAT      O 8961   3.466   0.927   4.867
 2917WAT     H1 8962   3.377   0.891   4.864
 2917WAT     H2 8963   3.520   0.859   4.826
 2918WAT      O 8964   3.669   1.428   0.211
 2918WAT     H1 8965   3.738   1.494   0.199
 2918WAT     H2 8966   3.709   1.362   0.268
 2919WAT      O 8967   3.660   0.937   1.427
 2919WAT     H1 8968   3.648   0.902   1.339
 2919WAT     H2 8969   3.753   0.921   1.446
 2920WAT      O 8970   2.190   1.437   3.152
 2920WAT     H1 8971   2.274   1.476   3.129
 2920WAT     H2 8972   2.211   1.376   3.224
 2921WAT      O 8973   1.508   4.855   3.062
 2921WAT     H1 8974   1.588   4.804   3.061
 2921WAT     H2 8975   1.534   4.941   3.093
 2922WAT      O 8976   3.773   2.744   1.656
 2922WAT     H1 8977   3.694   2.797   1.669
 2922WAT     H2 8978   3.742   2.665   1.612
 2923WAT      O 8979   1.685   3.086   0.298
 2923WAT     H1 8980   1.658   3.029   0.226
 2923WAT     H2 8981   1.623   3.067   0.368
 2924WAT      O 8982   4.311   3.503   2.526
 2924WAT     H1 8983   4.351   3.417   2.509
 2924WAT     H2 8984   4.352   3.532   2.607
 2925WAT      O 8985   2.698   0.148   2.859
 2925WAT     H1 8986   2.737   0.219   2.910
 2925WAT     H2 8987   2.686   0.184   2.772
 2926WAT      O 8988   3.213   2.808   2.522
 2926WAT     H1 8989   3.124   2.792   2.555
 2926WAT     H2 8990   3.200   2.851   2.438
 2927WAT      O 8991   3.405   1.073   0.221
 2927WAT     H1 8992   3.416   1.165   0.250
 2927WAT     H2 8993   3.324   1.045   0.262
 2928WAT      O 8994   1.540   3.022   1.595
 2928WAT     H1 8995   1.534   2.939   1.545
 2928WAT     H2 8996   1.497   3.087   1.539
 2929WAT      O 8997   0.641   0.869   3.994
 2929WAT     H1 8998   0.648   0.878   4.089
 2929WAT     H2 8999   0.720   0.823   3.967
 2930WAT      O 9000   0.547   4.597   1.922
 2930WAT     H1 9001   0.639   4.618   1.939
 2930WAT     H2 9002   0.524   4.536   1.992
 2931WAT      O 9003   1.378   3.757   3.925
 2931WAT     H1 9004   1.378   3.785   4.017
 2931WAT     H2 9005   1.464   3.783   3.892
 2932WAT      O 9006   3.646   4.401   3.526
 2932WAT     H1 9007   3.671   4.371   3.613
 2932WAT     H2 9008   3.559   4.437   3.537
 2933WAT      O 9009   2.146   3.265   2.844
 2933WAT     H1 9010   2.067   3.224   2.809
 2933WAT     H2 9011   2.198   3.192   2.877
 2934WAT      O 9012   0.843   0.928   5.015
 2934WAT     H1 9013   0.833   1.019   5.044
 2934WAT     H2 9014   0.885   0.884   5.088
 2935WAT      O 9015   3.608   1.765   2.089
 2935WAT     H1 9016   3.670   1.792   2.021
 2935WAT     H2 9017   3.620   1.670   2.096
 2936WAT      O 9018   4.047   1.453   3.837
 2936WAT     H1 9019   4.004   1.398   3.902
 2936WAT     H2 9020   4.099   1.514   3.888
 2937WAT      O 9021   2.780   4.761   0.879
 2937WAT     H1 9022   2.783   4.670   0.908
 2937WAT     H2 9023   2.800   4.757   0.786
 2938WAT      O 9024   3.968   4.182   2.506
 2938WAT     H1 9025   3.929   4.143   2.428
 2938WAT     H2 9026   4.060   4.195   2.483
 2939WAT      O 9027   2.704   1.023   4.512
 2939WAT     H1 9028   2.778   1.066   4.554
 2939WAT     H2 9029   2.739   0.987   4.431
 2940WAT      O 9030   1.540   5.094   2.064
 2940WAT     H1 9031   1.603   5.073   1.996
 2940WAT     H2 9032   1.589   5.082   2.146
 2941WAT      O 9033   0.632   0.369   4.010
 2941WAT     H1 9034   0.689   0.310   3.959
 2941WAT     H2 9035   0.670   0.369   4.098
 2942WAT      O 9036   4.072   4.422   2.332
 2942WAT     H1 9037   4.144   4.392   2.388
 2942WAT     H2 9038   4.081   4.369   2.252
 2943WAT      O 9039   1.600   2.570   4.449
 2943WAT     H1 9040   1.581   2.660   4.425
 2943WAT     H2 9041   1.673   2.577   4.511
 2944WAT      O 9042   1.119   2.908   1.638
 2944WAT     H1 9043   1.107   2.995   1.600
 2944WAT     H2 9044   1.061   2.906   1.714
 2945WAT      O 9045   2.486   2.252   1.625
 2945WAT     H1 9046   2.509   2.226   1.714
 2945WAT     H2 9047   2.392   2.271   1.629
 2946WAT      O 9048   2.984   2.141   3.027
 2946WAT     H1 9049   2.893   2.116   3.041
 2946WAT     H2 9050   2.981   2.236   3.014
 2947WAT      O 9051   2.710   0.461   1.562
 2947WAT     H1 9052   2.627   0.504   1.540
 2947WAT     H2 9053   2.744   0.510   1.635
 2948WAT      O 9054   4.088   3.522   2.874
 2948WAT     H1 9055   4.122   3.609   2.891
 2948WAT     H2 9056   4.165   3.471   2.847
 2949WAT      O 9057   0.240   2.067   2.310
 2949WAT     H1 9058   0.224   1.975   2.328
 2949WAT     H2 9059   0.333   2.080   2.326
 2950WAT      O 9060   3.609   3.106   2.422
 2950WAT     H1 9061   3.558   3.164   2.366
 2950WAT     H2 9062   3.620   3.026   2.370
 2951WAT      O 9063   4.046   4.884   3.200
 2951WAT     H1 9064   4.091   4.807   3.236
 2951WAT     H2 9065   3.979   4.848   3.143
 2952WAT      O 9066   4.208   0.555   5.100
 2952WAT     H1 9067   4.200   0.542   5.005
 2952WAT     H2 9068   4.245   0.642   5.108
 2953WAT      O 9069   2.098   0.925   2.966
 2953WAT     H1 9070   2.069   1.016   2.974
 2953WAT     H2 9071   2.106   0.895   3.057
 2954WAT      O 9072   4.231   3.284   0.761
 2954WAT     H1 9073   4.306   3.238   0.799
 2954WAT     H2 9074   4.198   3.339   0.833
 2955WAT      O 9075   0.177   4.551   1.210
 2955WAT     H1 9076   0.111   4.499   1.256
 2955WAT     H2 9077   0.257   4.498   1.215
 2956WAT      O 9078   3.429   2.312   0.241
 2956WAT     H1 9079   3.348   2.362   0.229
 2956WAT     H2 9080   3.402   2.234   0.290
 2957WAT      O 9081   3.528   4.020   0.987
 2957WAT     H1 9082   3.501   4.036   0.896
 2957WAT     H2 9083   3.521   3.925   0.997
 2958WAT      O 9084   1.907   2.043   4.422
 2958WAT     H1 9085   1.916   1.973   4.487
 2958WAT     H2 9086   1.905   1.998   4.338
 2959WAT      O 9087   1.295   3.889   4.798
 2959WAT     H1 9088   1.282   3.903   4.704
 2959WAT     H2 9089   1.373   3.835   4.805
 2960WAT      O 9090   2.780   4.417   0.159
 2960WAT     H1 9091   2.700   4.447   0.202
 2960WAT     H2 9092   2.850   4.465   0.203
 2961WAT      O 9093   0.701   0.778   4.307
 2961WAT     H1 9094   0.733   0.866   4.326
 2961WAT     H2 9095   0.701   0.732   4.392
 2962WAT      O 9096   0.737   1.082   3.854
 2962WAT     H1 9097   0.788   1.139   3.910
 2962WAT     H2 9098   0.692   1.023   3.915
 2963WAT      O 9099   1.382   0.188   4.300
 2963WAT     H1 9100   1.463   0.240   4.294
 2963WAT     H2 9101   1.410   0.098   4.284
 2964WAT      O 9102   0.808   0.988   2.255
 2964WAT     H1 9103   0.860   1.063   2.224
 2964WAT     H2 9104   0.742   1.027   2.312
 2965WAT      O 9105   4.350   1.368   4.203
 2965WAT     H1 9106   4.344   1.365   4.298
 2965WAT     H2 9107   4.329   1.458   4.181
 2966WAT      O 9108   0.664   3.770   1.232
 2966WAT     H1 9109   0.605   3.699   1.257
 2966WAT     H2 9110   0.607   3.836   1.192
 2967WAT      O 9111   4.445   1.303   0.978
 2967WAT     H1 9112   4.413   1.389   1.007
 2967WAT     H2 9113   4.502   1.274   1.049
 2968WAT      O 9114   3.620   4.159   4.087
 2968WAT     H1 9115   3.706   4.181   4.051
 2968WAT     H2 9116   3.559   4.175   4.015
 2969WAT      O 9117   3.691   4.735   1.782
 2969WAT     H1 9118   3.773   4.685   1.782
 2969WAT     H2 9119   3.684   4.768   1.871
 2970WAT      O 9120   1.691   4.171   4.762
 2970WAT     H1 9121   1.760   4.235   4.744
 2970WAT     H2 9122   1.688   4.166   4.858
 2971WAT      O 9123   1.249   1.234   3.169
 2971WAT     H1 9124   1.223   1.326   3.176
 2971WAT     H2 9125   1.226   1.195   3.253
 2972WAT      O 9126   2.754   0.686   3.381
 2972WAT     H1 9127   2.817   0.747   3.344
 2972WAT     H2 9128   2.774   0.602   3.340
 2973WAT      O 9129   1.447   2.963   5.118
 2973WAT     H1 9130   1.358   2.932   5.135
 2973WAT     H2 9131   1.452   2.970   5.023
 2974WAT      O 9132   3.941   0.635   3.343
 2974WAT     H1 9133   4.021   0.584   3.328
 2974WAT     H2 9134   3.904   0.597   3.423
 2975WAT      O 9135   4.372   1.559   1.151
 2975WAT     H1 9136   4.431   1.618   1.200
 2975WAT     H2 9137   4.370   1.479   1.204
 2976WAT      O 9138   2.053   2.825   0.366
 2976WAT     H1 9139   2.083   2.745   0.324
 2976WAT     H2 9140   2.072   2.811   0.459
 2977WAT      O 9141   1.563   1.178   4.312
 2977WAT     H1 9142   1.474   1.155   4.340
 2977WAT     H2 9143   1.561   1.274   4.304
 2978WAT      O 9144   1.501   4.556   0.879
 2978WAT     H1 9145   1.509   4.641   0.922
 2978WAT     H2 9146   1.527   4.572   0.789
 2979WAT      O 9147   3.866   1.328   2.473
 2979WAT     H1 9148   3.848   1.249   2.524
 2979WAT     H2 9149   3.894   1.296   2.388
 2980WAT      O 9150   3.293   0.543   3.273
 2980WAT     H1 9151   3.284   0.637   3.287
 2980WAT     H2 9152   3.252   0.527   3.188
 2981WAT      O 9153   4.260   4.638   1.815
 2981WAT     H1 9154   4.338   4.583   1.810
 2981WAT     H2 9155   4.230   4.629   1.905
 2982WAT      O 9156   3.880   1.136   4.668
 2982WAT     H1 9157   3.963   1.116   4.711
 2982WAT     H2 9158   3.858   1.057   4.619
 2983WAT      O 9159   2.223   0.736   2.493
 2983WAT     H1 9160   2.295   0.714   2.434
 2983WAT     H2 9161   2.229   0.670   2.564
 2984WAT      O 9162   0.617   1.876   0.141
 2984WAT     H1 9163   0.593   1.948   0.199
 2984WAT     H2 9164   0.533   1.841   0.110
 2985WAT      O 9165   1.993   1.442   3.761
 2985WAT     H1 9166   2.004   1.488   3.844
 2985WAT     H2 9167   1.899   1.425   3.755
 2986WAT      O 9168   2.537   1.983   3.697
 2986WAT     H1 9169   2.536   1.892   3.666
 2986WAT     H2 9170   2.462   1.989   3.756
 2987WAT      O 9171   2.733   1.830   0.129
 2987WAT     H1 9172   2.790   1.790   0.195
 2987WAT     H2 9173   2.717   1.919   0.160
 2988WAT      O 9174   1.005   0.101   3.972
 2988WAT     H1 9175   1.079   0.042   3.955
 2988WAT     H2 9176   1.044   0.188   3.971
 2989WAT      O 9177   2.616   4.697   4.392
 2989WAT     H1 9178   2.674   4.639   4.441
 2989WAT     H2 9179   2.611   4.658   4.305
 2990WAT      O 9180   0.872   3.164   0.279
 2990WAT     H1 9181   0.789   3.159   0.232
 2990WAT     H2 9182   0.852   3.133   0.367
 2991WAT      O 9183   0.983   3.404   0.156
 2991WAT     H1 9184   0.972   3.311   0.177
 2991WAT     H2 9185   0.915   3.423   0.092
 2992WAT      O 9186   4.422   3.193   4.403
 2992WAT     H1 9187   4.507   3.233   4.421
 2992WAT     H2 9188   4.419   3.185   4.308
 2993WAT      O 9189   0.927   1.361   4.548
 2993WAT     H1 9190   1.021   1.350   4.536
 2993WAT     H2 9191   0.893   1.371   4.459
 2994WAT      O 9192   2.697   2.429   3.945
 2994WAT     H1 9193   2.634   2.481   3.895
 2994WAT     H2 9194   2.644   2.365   3.992
 2995WAT      O 9195   2.050   0.994   2.156
 2995WAT     H1 9196   2.048   0.986   2.252
 2995WAT     H2 9197   2.079   0.908   2.125
 2996WAT      O 9198   0.619   3.474   5.062
 2996WAT     H1 9199   0.533   3.437   5.039
 2996WAT     H2 9200   0.606   3.569   5.060
 2997WAT      O 9201   1.132   3.529   0.474
 2997WAT     H1 9202   1.178   3.504   0.555
 2997WAT     H2 9203   1.202   3.534   0.408
 2998WAT      O 9204   2.349   1.632   4.073
 2998WAT     H1 9205   2.293   1.556   4.067
 2998WAT     H2 9206   2.413   1.622   4.003
 2999WAT      O 9207   3.966   3.722   2.237
 2999WAT     H1 9208   3.989   3.811   2.211
 2999WAT     H2 9209   4.049   3.674   2.233
 3000WAT      O 9210   0.527   3.549   1.267
 3000WAT     H1 9211   0.495   3.531   1.355
 3000WAT     H2 9212   0.481   3.486   1.212
 3001WAT      O 9213   1.546   3.225   4.678
 3001WAT     H1 9214   1.505   3.297   4.726
 3001WAT     H2 9215   1.617   3.195   4.736
 3002WAT      O 9216   4.230   4.165   3.220
 3002WAT     H1 9217   4.226   4.246   3.270
 3002WAT     H2 9218   4.322   4.140   3.221
 3003WAT      O 9219   3.176   3.320   3.212
 3003WAT     H1 9220   3.244   3.254   3.230
 3003WAT     H2 9221   3.224   3.403   3.207
 3004WAT      O 9222   3.739   2.317   0.538
 3004WAT     H1 9223   3.695   2.233   0.546
 3004WAT     H2 9224   3.761   2.324   0.445
 3005WAT      O 9225   4.317   0.171   4.204
 3005WAT     H1 9226   4.378   0.174   4.130
 3005WAT     H2 9227   4.262   0.095   4.187
 3006WAT      O 9228   0.920   3.729   5.062
 3006WAT     H1 9229   0.920   3.702   4.970
 3006WAT     H2 9230   0.830   3.753   5.080
 3007WAT      O 9231   1.821   3.253   3.122
 3007WAT     H1 9232   1.758   3.309   3.167
 3007WAT     H2 9233   1.866   3.312   3.061
 3008WAT      O 9234   4.360   1.973   2.404
 3008WAT     H1 9235   4.417   2.034   2.357
 3008WAT     H2 9236   4.352   2.009   2.492
 3009WAT      O 9237   1.379   1.525   1.631
 3009WAT     H1 9238   1.333   1.514   1.714
 3009WAT     H2 9239   1.449   1.588   1.651
 3010WAT      O 9240   3.408   2.644   4.889
 3010WAT     H1 9241   3.456   2.652   4.972
 3010WAT     H2 9242   3.476   2.648   4.822
 3011WAT      O 9243   0.021   0.698   0.049
 3011WAT     H1 9244  -0.018   0.640   0.115
 3011WAT     H2 9245   0.055   0.773   0.100
 3012WAT      O 9246   3.701   3.043   3.186
 3012WAT     H1 9247   3.686   3.106   3.257
 3012WAT     H2 9248   3.794   3.020   3.195
 3013WAT      O 9249   2.028   0.260   1.671
 3013WAT     H1 9250   1.960   0.308   1.623
 3013WAT     H2 9251   2.033   0.175   1.626
 3014WAT      O 9252   0.649   4.912   0.095
 3014WAT     H1 9253   0.561   4.887   0.068
 3014WAT     H2 9254   0.636   4.981   0.160
 3015WAT      O 9255   3.804   1.102   3.285
 3015WAT     H1 9256   3.734   1.066   3.338
 3015WAT     H2 9257   3.868   1.032   3.277
 3016WAT      O 9258   1.634   3.865   4.478
 3016WAT     H1 9259   1.639   3.786   4.424
 3016WAT     H2 9260   1.603   3.933   4.418
 3017WAT      O 9261   2.773   0.760   5.254
 3017WAT     H1 9262   2.849   0.801   5.212
 3017WAT     H2 9263   2.754   0.685   5.199
 3018WAT      O 9264   3.359   1.411   5.088
 3018WAT     H1 9265   3.343   1.349   5.017
 3018WAT     H2 9266   3.438   1.378   5.132
 3019WAT      O 9267   1.323   3.607   2.883
 3019WAT     H1 9268   1.287   3.544   2.819
 3019WAT     H2 9269   1.321   3.559   2.966
 3020WAT      O 9270   0.746   3.396   5.297
 3020WAT     H1 9271   0.693   3.433   5.226
 3020WAT     H2 9272   0.774   3.311   5.264
 3021WAT      O 9273   2.473   4.016   4.235
 3021WAT     H1 9274   2.480   4.055   4.321
 3021WAT     H2 9275   2.431   3.931   4.250
 3022WAT      O 9276   2.258   2.835   1.897
 3022WAT     H1 9277   2.260   2.800   1.807
 3022WAT     H2 9278   2.253   2.930   1.885
 3023WAT      O 9279   2.277   2.074   4.445
 3023WAT     H1 9280   2.265   2.010   4.374
 3023WAT     H2 9281   2.205   2.136   4.434
 3024WAT      O 9282   1.024   0.275   5.066
 3024WAT     H1 9283   0.947   0.326   5.043
 3024WAT     H2 9284   1.091   0.300   5.003
 3025WAT      O 9285   0.555   5.117   1.964
 3025WAT     H1 9286   0.490   5.067   1.915
 3025WAT     H2 9287   0.626   5.132   1.902
 3026WAT      O 9288   2.833   3.769   4.179
 3026WAT     H1 9289   2.861   3.738   4.265
 3026WAT     H2 9290   2.897   3.733   4.118
 3027WAT      O 9291   4.224   4.052   4.374
 3027WAT     H1 9292   4.202   4.145   4.377
 3027WAT     H2 9293   4.278   4.042   4.296
 3028WAT      O 9294   0.018   0.472   3.162
 3028WAT     H1 9295  -0.024   0.530   3.226
 3028WAT     H2 9296  -0.054   0.429   3.117
 3029WAT      O 9297   2.921   2.396   2.966
 3029WAT     H1 9298   2.877   2.439   2.892
 3029WAT     H2 9299   2.895   2.447   3.042
 3030WAT      O 9300   4.509   2.624   2.059
 3030WAT     H1 9301   4.536   2.545   2.107
 3030WAT     H2 9302   4.559   2.695   2.100
 3031WAT      O 9303   2.371   0.974   2.114
 3031WAT     H1 9304   2.293   0.921   2.098
 3031WAT     H2 9305   2.398   1.004   2.027
 3032WAT      O 9306   0.601   2.072   1.425
 3032WAT     H1 9307   0.517   2.071   1.380
 3032WAT     H2 9308   0.582   2.047   1.515
 3033WAT      O 9309   2.760   3.958   2.058
 3033WAT     H1 9310   2.677   3.927   2.022
 3033WAT     H2 9311   2.757   4.053   2.048
 3034WAT      O 9312   4.090   5.097   0.105
 3034WAT     H1 9313   4.173   5.076   0.061
 3034WAT     H2 9314   4.072   5.188   0.081
 3035WAT      O 9315   3.261   1.445   3.200
 3035WAT     H1 9316   3.301   1.359   3.186
 3035WAT     H2 9317   3.170   1.425   3.223
 3036WAT      O 9318   1.290   2.384   0.734
 3036WAT     H1 9319   1.246   2.465   0.709
 3036WAT     H2 9320   1.221   2.318   0.734
 3037WAT      O 9321   0.386   1.138   2.419
 3037WAT     H1 9322   0.421   1.055   2.388
 3037WAT     H2 9323   0.338   1.174   2.344
 3038WAT      O 9324   3.536   3.199   1.085
 3038WAT     H1 9325   3.606   3.223   1.145
 3038WAT     H2 9326   3.499   3.281   1.057
 3039WAT      O 9327   4.049   4.958   2.104
 3039WAT     H1 9328   4.145   4.953   2.107
 3039WAT     H2 9329   4.026   4.941   2.013
 3040WAT      O 9330   3.360   0.806   3.777
 3040WAT     H1 9331   3.347   0.834   3.686
 3040WAT     H2 9332   3.452   0.785   3.783
 3041WAT      O 9333   4.238   3.902   2.347
 3041WAT     H1 9334   4.196   3.883   2.431
 3041WAT     H2 9335   4.276   3.818   2.320
 3042WAT      O 9336   0.574   0.530   1.905
 3042WAT     H1 9337   0.669   0.522   1.919
 3042WAT     H2 9338   0.539   0.548   1.993
 3043WAT      O 9339   1.918   4.740   2.259
 3043WAT     H1 9340   1.980   4.672   2.234
 3043WAT     H2 9341   1.870   4.704   2.333
 3044WAT      O 9342   0.396   1.461   3.918
 3044WAT     H1 9343   0.445   1.452   3.837
 3044WAT     H2 9344   0.351   1.378   3.930
 3045WAT      O 9345   2.994   3.763   4.418
 3045WAT     H1 9346   3.078   3.744   4.459
 3045WAT     H2 9347   3.013   3.831   4.353
 3046WAT      O 9348   0.271   4.824   2.574
 3046WAT     H1 9349   0.222   4.800   2.495
 3046WAT     H2 9350   0.211   4.806   2.646
 3047WAT      O 9351   4.098   2.316   3.036
 3047WAT     H1 9352   4.176   2.320   2.981
 3047WAT     H2 9353   4.107   2.233   3.084
 3048WAT      O 9354   1.667   3.491   0.421
 3048WAT     H1 9355   1.590   3.488   0.365
 3048WAT     H2 9356   1.679   3.400   0.450
 3049WAT      O 9357   4.477   2.290   4.147
 3049WAT     H1 9358   4.558   2.285   4.096
 3049WAT     H2 9359   4.500   2.256   4.233
 3050WAT      O 9360   2.203   4.822   4.606
 3050WAT     H1 9361   2.247   4.763   4.668
 3050WAT     H2 9362   2.255   4.816   4.526
 3051WAT      O 9363   2.916   2.178   1.277
 3051WAT     H1 9364   2.888   2.189   1.367
 3051WAT     H2 9365   3.009   2.202   1.277
 3052WAT      O 9366   1.574   2.651   0.547
 3052WAT     H1 9367   1.526   2.584   0.499
 3052WAT     H2 9368   1.625   2.698   0.481
 3053WAT      O 9369   3.494   2.435   5.269
 3053WAT     H1 9370   3.492   2.402   5.359
 3053WAT     H2 9371   3.427   2.383   5.224
 3054WAT      O 9372   0.917   2.202   4.264
 3054WAT     H1 9373   0.873   2.120   4.286
 3054WAT     H2 9374   1.004   2.176   4.236
 3055WAT      O 9375   3.928   4.561   1.795
 3055WAT     H1 9376   3.969   4.536   1.712
 3055WAT     H2 9377   3.988   4.529   1.862
 3056WAT      O 9378   0.581   1.481   1.660
 3056WAT     H1 9379   0.500   1.517   1.697
 3056WAT     H2 9380   0.559   1.391   1.638
 3057WAT      O 9381   0.972   2.745   3.050
 3057WAT     H1 9382   0.932   2.667   3.088
 3057WAT     H2 9383   1.066   2.733   3.064
 3058WAT      O 9384   0.324   0.466   5.059
 3058WAT     H1 9385   0.287   0.402   4.999
 3058WAT     H2 9386   0.249   0.519   5.088
 3059WAT      O 9387   2.731   1.567   3.310
 3059WAT     H1 9388   2.753   1.543   3.400
 3059WAT     H2 9389   2.650   1.520   3.292
 3060WAT      O 9390   3.004   1.078   0.624
 3060WAT     H1 9391   2.992   1.105   0.715
 3060WAT     H2 9392   2.972   0.987   0.621
 3061WAT      O 9393   3.408   2.746   0.452
 3061WAT     H1 9394   3.396   2.819   0.513
 3061WAT     H2 9395   3.502   2.726   0.455
 3062WAT      O 9396   4.142   4.932   5.130
 3062WAT     H1 9397   4.071   4.948   5.067
 3062WAT     H2 9398   4.097   4.911   5.212
 3063WAT      O 9399   0.742   2.714   0.588
 3063WAT     H1 9400   0.804   2.783   0.610
 3063WAT     H2 9401   0.737   2.659   0.666
 3064WAT      O 9402   2.911   3.853   0.220
 3064WAT     H1 9403   2.906   3.758   0.225
 3064WAT     H2 9404   3.002   3.871   0.195
 3065WAT      O 9405   2.762   4.506   1.889
 3065WAT     H1 9406   2.745   4.598   1.911
 3065WAT     H2 9407   2.828   4.509   1.820
 3066WAT      O 9408   1.064   5.064   4.572
 3066WAT     H1 9409   0.992   5.009   4.604
 3066WAT     H2 9410   1.020   5.133   4.522
 3067WAT      O 9411   0.015   2.904   4.294
 3067WAT     H1 9412  -0.020   2.961   4.363
 3067WAT     H2 9413  -0.060   2.886   4.238
 3068WAT      O 9414   4.375   1.341   1.303
 3068WAT     H1 9415   4.348   1.251   1.290
 3068WAT     H2 9416   4.331   1.369   1.383
 3069WAT      O 9417   1.681   2.164   3.487
 3069WAT     H1 9418   1.742   2.092   3.470
 3069WAT     H2 9419   1.667   2.204   3.401
 3070WAT      O 9420   0.844   4.539   3.181
 3070WAT     H1 9421   0.772   4.503   3.232
 3070WAT     H2 9422   0.923   4.512   3.228
 3071WAT      O 9423   3.828   2.766   3.393
 3071WAT     H1 9424   3.772   2.708   3.443
 3071WAT     H2 9425   3.852   2.715   3.315
 3072WAT      O 9426   3.766   0.250   1.227
 3072WAT     H1 9427   3.805   0.216   1.147
 3072WAT     H2 9428   3.720   0.176   1.266
 3073WAT      O 9429   4.331   3.364   2.821
 3073WAT     H1 9430   4.404   3.340   2.764
 3073WAT     H2 9431   4.372   3.381   2.906
 3074WAT      O 9432   0.539   1.910   4.579
 3074WAT     H1 9433   0.566   1.861   4.501
 3074WAT     H2 9434   0.450   1.879   4.596
 3075WAT      O 9435   2.985   0.872   1.840
 3075WAT     H1 9436   2.954   0.945   1.787
 3075WAT     H2 9437   3.079   0.869   1.824
 3076WAT      O 9438   0.585   1.350   4.425
 3076WAT     H1 9439   0.491   1.351   4.408
 3076WAT     H2 9440   0.593   1.318   4.515
 3077WAT      O 9441   1.968   4.194   1.115
 3077WAT     H1 9442   2.032   4.214   1.047
 3077WAT     H2 9443   1.886   4.183   1.069
 3078WAT      O 9444   3.179   4.280   4.031
 3078WAT     H1 9445   3.091   4.247   4.013
 3078WAT     H2 9446   3.230   4.253   3.955
 3079WAT      O 9447   4.352   3.071   5.008
 3079WAT     H1 9448   4.259   3.051   4.996
 3079WAT     H2 9449   4.389   2.993   5.050
 3080WAT      O 9450   2.541   1.428   1.105
 3080WAT     H1 9451   2.513   1.382   1.026
 3080WAT     H2 9452   2.633   1.402   1.116
 3081WAT      O 9453   4.481   1.327   2.827
 3081WAT     H1 9454   4.489   1.261   2.758
 3081WAT     H2 9455   4.397   1.369   2.810
 3082WAT      O 9456   0.034   3.881   1.044
 3082WAT     H1 9457  -0.002   3.869   1.132
 3082WAT     H2 9458   0.123   3.847   1.050
 3083WAT      O 9459   2.034   1.601   1.564
 3083WAT     H1 9460   2.110   1.578   1.510
 3083WAT     H2 9461   2.072   1.644   1.640
 3084WAT      O 9462   1.554   2.985   0.073
 3084WAT     H1 9463   1.479   3.018   0.123
 3084WAT     H2 9464   1.525   2.985  -0.018
 3085WAT      O 9465   3.269   0.604   4.061
 3085WAT     H1 9466   3.317   0.525   4.090
 3085WAT     H2 9467   3.268   0.597   3.966
 3086WAT      O 9468   2.159   4.378   2.059
 3086WAT     H1 9469   2.179   4.463   2.018
 3086WAT     H2 9470   2.130   4.400   2.147
 3087WAT      O 9471   3.104   1.773   4.361
 3087WAT     H1 9472   3.111   1.680   4.387
 3087WAT     H2 9473   3.042   1.773   4.289
 3088WAT      O 9474   0.793   3.028   1.489
 3088WAT     H1 9475   0.819   3.079   1.412
 3088WAT     H2 9476   0.697   3.033   1.489
 3089WAT      O 9477   0.008   0.515   2.688
 3089WAT     H1 9478   0.052   0.523   2.772
 3089WAT     H2 9479  -0.012   0.604   2.661
 3090WAT      O 9480   1.756   1.496   5.158
 3090WAT     H1 9481   1.851   1.483   5.167
 3090WAT     H2 9482   1.719   1.408   5.165
 3091WAT      O 9483   1.770   4.925   3.781
 3091WAT     H1 9484   1.755   4.932   3.875
 3091WAT     H2 9485   1.743   4.836   3.758
 3092WAT      O 9486   3.313   3.394   4.664
 3092WAT     H1 9487   3.321   3.400   4.759
 3092WAT     H2 9488   3.251   3.322   4.650
 3093WAT      O 9489   1.261   1.762   4.021
 3093WAT     H1 9490   1.301   1.770   3.935
 3093WAT     H2 9491   1.168   1.779   4.006
 3094WAT      O 9492   4.045   0.785   4.132
 3094WAT     H1 9493   4.045   0.879   4.155
 3094WAT     H2 9494   4.136   0.759   4.142
 3095WAT      O 9495   0.437   1.138   3.207
 3095WAT     H1 9496   0.473   1.053   3.181
 3095WAT     H2 9497   0.492   1.202   3.162
 3096WAT      O 9498   3.702   0.359   3.298
 3096WAT     H1 9499   3.775   0.398   3.346
 3096WAT     H2 9500   3.705   0.267   3.322
 3097WAT      O 9501   4.061   2.408   2.612
 3097WAT     H1 9502   4.012   2.353   2.550
 3097WAT     H2 9503   4.128   2.450   2.559
 3098WAT      O 9504   3.773   1.595   0.976
 3098WAT     H1 9505   3.859   1.636   0.982
 3098WAT     H2 9506   3.738   1.598   1.065
 3099WAT      O 9507   2.154   2.488   4.564
 3099WAT     H1 9508   2.130   2.405   4.522
 3099WAT     H2 9509   2.113   2.484   4.650
 3100WAT      O 9510   1.942   3.787   0.442
 3100WAT     H1 9511   1.924   3.722   0.374
 3100WAT     H2 9512   1.950   3.737   0.523
 3101WAT      O 9513   3.124   0.293   3.772
 3101WAT     H1 9514   3.029   0.303   3.762
 3101WAT     H2 9515   3.157   0.383   3.775
 3102WAT      O 9516   1.278   3.695   3.654
 3102WAT     H1 9517   1.300   3.712   3.746
 3102WAT     H2 9518   1.238   3.608   3.654
 3103WAT      O 9519   2.365   4.114   1.143
 3103WAT     H1 9520   2.393   4.150   1.227
 3103WAT     H2 9521   2.338   4.025   1.163
 3104WAT      O 9522   1.841   4.485   1.269
 3104WAT     H1 9523   1.905   4.455   1.334
 3104WAT     H2 9524   1.764   4.429   1.285
 3105WAT      O 9525   2.867   4.303   2.773
 3105WAT     H1 9526   2.861   4.238   2.703
 3105WAT     H2 9527   2.958   4.332   2.771
 3106WAT      O 9528   0.621   1.642   2.623
 3106WAT     H1 9529   0.583   1.570   2.575
 3106WAT     H2 9530   0.705   1.659   2.581
 3107WAT      O 9531   2.888   4.425   2.174
 3107WAT     H1 9532   2.825   4.407   2.104
 3107WAT     H2 9533   2.934   4.341   2.187
 3108WAT      O 9534   3.983   4.648   2.741
 3108WAT     H1 9535   3.974   4.737   2.706
 3108WAT     H2 9536   3.921   4.596   2.690
 3109WAT      O 9537   0.652   4.812   4.484
 3109WAT     H1 9538   0.567   4.829   4.523
 3109WAT     H2 9539   0.666   4.718   4.498
 3110WAT      O 9540   2.778   1.578   2.578
 3110WAT     H1 9541   2.817   1.664   2.564
 3110WAT     H2 9542   2.751   1.579   2.669
 3111WAT      O 9543   1.767   0.565   2.161
 3111WAT     H1 9544   1.683   0.596   2.127
 3111WAT     H2 9545   1.750   0.474   2.189
 3112WAT      O 9546   0.645   1.895   0.481
 3112WAT     H1 9547   0.550   1.886   0.480
 3112WAT     H2 9548   0.678   1.805   0.473
 3113WAT      O 9549   3.678   4.470   4.625
 3113WAT     H1 9550   3.598   4.463   4.573
 3113WAT     H2 9551   3.679   4.391   4.678
 3114WAT      O 9552   0.011   2.768   3.069
 3114WAT     H1 9553   0.060   2.840   3.107
 3114WAT     H2 9554   0.011   2.785   2.975
 3115WAT      O 9555   0.049   4.837   4.053
 3115WAT     H1 9556  -0.040   4.852   4.020
 3115WAT     H2 9557   0.046   4.868   4.144
 3116WAT      O 9558   4.438   1.560   5.245
 3116WAT     H1 9559   4.452   1.648   5.280
 3116WAT     H2 9560   4.516   1.511   5.272
 3117WAT      O 9561   2.372   4.950   1.126
 3117WAT     H1 9562   2.392   4.874   1.072
 3117WAT     H2 9563   2.398   4.924   1.214
 3118WAT      O 9564   0.322   4.995   3.613
 3118WAT     H1 9565   0.286   4.957   3.532
 3118WAT     H2 9566   0.284   4.942   3.683
 3119WAT      O 9567   1.512   0.367   0.550
 3119WAT     H1 9568   1.474   0.453   0.570
 3119WAT     H2 9569   1.547   0.375   0.462
 3120WAT      O 9570   2.982   1.743   5.278
 3120WAT     H1 9571   2.961   1.780   5.193
 3120WAT     H2 9572   2.913   1.774   5.336
 3121WAT      O 9573   3.369   2.382   4.132
 3121WAT     H1 9574   3.369   2.478   4.121
 3121WAT     H2 9575   3.461   2.358   4.133
 3122WAT      O 9576   2.623   1.915   3.302
 3122WAT     H1 9577   2.550   1.861   3.274
 3122WAT     H2 9578   2.582   1.989   3.349
 3123WAT      O 9579   3.667   0.031   1.371
 3123WAT     H1 9580   3.615  -0.048   1.380
 3123WAT     H2 9581   3.755   0.000   1.350
 3124WAT      O 9582   0.303   2.364   2.191
 3124WAT     H1 9583   0.267   2.310   2.121
 3124WAT     H2 9584   0.358   2.304   2.242
 3125WAT      O 9585   3.108   0.443   1.919
 3125WAT     H1 9586   3.145   0.456   2.006
 3125WAT     H2 9587   3.102   0.349   1.910
 3126WAT      O 9588   4.043   0.078   2.998
 3126WAT     H1 9589   4.134   0.050   3.006
 3126WAT     H2 9590   4.040   0.123   2.913
 3127WAT      O 9591   1.083   2.532   4.423
 3127WAT     H1 9592   1.096   2.499   4.334
 3127WAT     H2 9593   1.170   2.532   4.462
 3128WAT      O 9594   3.545   2.028   1.798
 3128WAT     H1 9595   3.535   2.116   1.833
 3128WAT     H2 9596   3.490   1.973   1.854
 3129WAT      O 9597   0.908   3.166   1.274
 3129WAT     H1 9598   0.851   3.179   1.197
 3129WAT     H2 9599   0.967   3.242   1.272
 3130WAT      O 9600   0.567   1.669   3.542
 3130WAT     H1 9601   0.619   1.634   3.470
 3130WAT     H2 9602   0.511   1.734   3.501
 3131WAT      O 9603   3.691   0.305   1.572
 3131WAT     H1 9604   3.756   0.234   1.572
 3131WAT     H2 9605   3.726   0.369   1.510
 3132WAT      O 9606   0.090   4.885   1.478
 3132WAT     H1 9607   0.087   4.944   1.553
 3132WAT     H2 9608  -0.001   4.862   1.461
 3133WAT      O 9609   0.665   1.132   2.432
 3133WAT     H1 9610   0.570   1.119   2.428
 3133WAT     H2 9611   0.678   1.224   2.406
 3134WAT      O 9612   1.029   1.240   3.644
 3134WAT     H1 9613   1.016   1.215   3.736
 3134WAT     H2 9614   0.968   1.312   3.630
 3135WAT      O 9615   2.724   0.517   0.764
 3135WAT     H1 9616   2.690   0.502   0.852
 3135WAT     H2 9617   2.730   0.614   0.759
 3136WAT      O 9618   2.845   0.429   2.667
 3136WAT     H1 9619   2.755   0.400   2.658
 3136WAT     H2 9620   2.893   0.352   2.698
 3137WAT      O 9621   2.505   1.355   3.668
 3137WAT     H1 9622   2.536   1.279   3.717
 3137WAT     H2 9623   2.495   1.323   3.578
 3138WAT      O 9624   1.351   4.173   1.262
 3138WAT     H1 9625   1.380   4.082   1.252
 3138WAT     H2 9626   1.256   4.168   1.264
 3139WAT      O 9627   3.822   3.830   3.788
 3139WAT     H1 9628   3.897   3.868   3.835
 3139WAT     H2 9629   3.827   3.866   3.700
 3140WAT      O 9630   3.875   0.816   2.651
 3140WAT     H1 9631   3.962   0.836   2.686
 3140WAT     H2 9632   3.823   0.796   2.729
 3141WAT      O 9633   0.486   0.872   2.777
 3141WAT     H1 9634   0.569   0.914   2.802
 3141WAT     H2 9635   0.419   0.931   2.812
 3142WAT      O 9636   1.392   1.864   5.128
 3142WAT     H1 9637   1.413   1.894   5.040
 3142WAT     H2 9638   1.384   1.769   5.121
 3143WAT      O 9639   1.402   4.465   1.439
 3143WAT     H1 9640   1.459   4.415   1.380
 3143WAT     H2 9641   1.462   4.503   1.503
 3144WAT      O 9642   4.502   1.108   2.646
 3144WAT     H1 9643   4.483   1.162   2.570
 3144WAT     H2 9644   4.568   1.045   2.614
 3145WAT      O 9645   2.338   4.729   0.477
 3145WAT     H1 9646   2.283   4.777   0.414
 3145WAT     H2 9647   2.275   4.690   0.537
 3146WAT      O 9648   3.379   0.178   4.428
 3146WAT     H1 9649   3.410   0.193   4.517
 3146WAT     H2 9650   3.304   0.237   4.419
 3147WAT      O 9651   3.296   4.825   1.797
 3147WAT     H1 9652   3.355   4.783   1.861
 3147WAT     H2 9653   3.351   4.890   1.754
 3148WAT      O 9654   2.477   3.356   2.097
 3148WAT     H1 9655   2.514   3.289   2.155
 3148WAT     H2 9656   2.552   3.392   2.051
 3149WAT      O 9657   2.344   1.948   3.935
 3149WAT     H1 9658   2.341   1.940   4.031
 3149WAT     H2 9659   2.306   1.866   3.903
 3150WAT      O 9660   1.073   4.282   2.217
 3150WAT     H1 9661   1.027   4.232   2.284
 3150WAT     H2 9662   1.005   4.303   2.153
 3151WAT      O 9663   2.132   0.499   3.860
 3151WAT     H1 9664   2.187   0.451   3.798
 3151WAT     H2 9665   2.047   0.456   3.853
 3152WAT      O 9666   0.551   2.224   2.206
 3152WAT     H1 9667   0.580   2.293   2.147
 3152WAT     H2 9668   0.619   2.219   2.272
 3153WAT      O 9669   4.502   4.402   1.272
 3153WAT     H1 9670   4.519   4.308   1.266
 3153WAT     H2 9671   4.450   4.422   1.194
 3154WAT      O 9672   1.797   4.560   2.827
 3154WAT     H1 9673   1.750   4.488   2.786
 3154WAT     H2 9674   1.817   4.529   2.915
 3155WAT      O 9675   4.295   4.727   5.043
 3155WAT     H1 9676   4.229   4.660   5.062
 3155WAT     H2 9677   4.251   4.810   5.062
 3156WAT      O 9678   2.970   3.477   2.571
 3156WAT     H1 9679   2.955   3.571   2.580
 3156WAT     H2 9680   3.014   3.451   2.651
 3157WAT      O 9681   0.437   4.419   3.912
 3157WAT     H1 9682   0.469   4.387   3.996
 3157WAT     H2 9683   0.477   4.360   3.847
 3158WAT      O 9684   1.966   0.379   3.365
 3158WAT     H1 9685   1.906   0.429   3.310
 3158WAT     H2 9686   1.916   0.362   3.445
 3159WAT      O 9687   3.173   1.430   4.079
 3159WAT     H1 9688   3.183   1.507   4.025
 3159WAT     H2 9689   3.263   1.405   4.104
 3160WAT      O 9690   3.490   0.553   4.342
 3160WAT     H1 9691   3.516   0.583   4.255
 3160WAT     H2 9692   3.414   0.495   4.325
 3161WAT      O 9693   3.581   0.474   3.820
 3161WAT     H1 9694   3.503   0.425   3.846
 3161WAT     H2 9695   3.615   0.428   3.744
 3162WAT      O 9696   0.756   2.774   2.431
 3162WAT     H1 9697   0.727   2.725   2.507
 3162WAT     H2 9698   0.740   2.866   2.453
 3163WAT      O 9699   2.066   1.915   1.962
 3163WAT     H1 9700   2.071   1.974   1.886
 3163WAT     H2 9701   2.151   1.927   2.005
 3164WAT      O 9702   1.383   2.453   3.913
 3164WAT     H1 9703   1.308   2.397   3.934
 3164WAT     H2 9704   1.387   2.516   3.985
 3165WAT      O 9705   0.503   0.441   5.274
 3165WAT     H1 9706   0.547   0.359   5.251
 3165WAT     H2 9707   0.437   0.453   5.207
 3166WAT      O 9708   0.721   4.186   2.392
 3166WAT     H1 9709   0.732   4.272   2.433
 3166WAT     H2 9710   0.756   4.125   2.457
 3167WAT      O 9711   0.516   1.511   4.681
 3167WAT     H1 9712   0.456   1.546   4.615
 3167WAT     H2 9713   0.499   1.560   4.760
 3168WAT      O 9714   0.596   2.731   0.126
 3168WAT     H1 9715   0.638   2.652   0.092
 3168WAT     H2 9716   0.651   2.757   0.200
 3169WAT      O 9717   3.532   0.065   3.454
 3169WAT     H1 9718   3.504   0.152   3.483
 3169WAT     H2 9719   3.482   0.004   3.508
 3170WAT      O 9720   1.376   4.774   3.781
 3170WAT     H1 9721   1.417   4.848   3.736
 3170WAT     H2 9722   1.344   4.811   3.863
 3171WAT      O 9723   3.032   3.653   3.999
 3171WAT     H1 9724   3.124   3.676   4.011
 3171WAT     H2 9725   3.033   3.562   3.968
 3172WAT      O 9726   2.931   4.504   1.604
 3172WAT     H1 9727   2.902   4.515   1.514
 3172WAT     H2 9728   2.983   4.582   1.622
 3173WAT      O 9729   1.209   0.764   1.402
 3173WAT     H1 9730   1.172   0.678   1.425
 3173WAT     H2 9731   1.247   0.750   1.315
 3174WAT      O 9732   4.023   1.802   5.065
 3174WAT     H1 9733   3.933   1.831   5.074
 3174WAT     H2 9734   4.023   1.748   4.986
 3175WAT      O 9735   1.733   4.452   0.143
 3175WAT     H1 9736   1.705   4.378   0.089
 3175WAT     H2 9737   1.668   4.456   0.213
 3176WAT      O 9738   4.227   3.397   3.875
 3176WAT     H1 9739   4.145   3.404   3.923
 3176WAT     H2 9740   4.203   3.411   3.784
 3177WAT      O 9741   4.298   0.021   0.981
 3177WAT     H1 9742   4.366   0.045   1.043
 3177WAT     H2 9743   4.341  -0.041   0.921
 3178WAT      O 9744   2.567   2.244   4.077
 3178WAT     H1 9745   2.546   2.207   4.162
 3178WAT     H2 9746   2.487   2.233   4.026
 3179WAT      O 9747   0.047   1.200   0.330
 3179WAT     H1 9748   0.025   1.290   0.347
 3179WAT     H2 9749  -0.029   1.151   0.361
 3180WAT      O 9750   3.055   4.822   3.585
 3180WAT     H1 9751   3.003   4.805   3.663
 3180WAT     H2 9752   3.026   4.757   3.522
 3181WAT      O 9753   0.800   3.483   0.857
 3181WAT     H1 9754   0.771   3.489   0.766
 3181WAT     H2 9755   0.874   3.544   0.863
 3182WAT      O 9756   3.439   3.444   1.064
 3182WAT     H1 9757   3.442   3.520   1.122
 3182WAT     H2 9758   3.372   3.465   1.000
 3183WAT      O 9759   2.755   4.077   1.100
 3183WAT     H1 9760   2.736   3.986   1.121
 3183WAT     H2 9761   2.755   4.121   1.185
 3184WAT      O 9762   1.282   1.486   2.167
 3184WAT     H1 9763   1.218   1.424   2.132
 3184WAT     H2 9764   1.293   1.458   2.259
 3185WAT      O 9765   2.619   2.932   3.871
 3185WAT     H1 9766   2.706   2.926   3.832
 3185WAT     H2 9767   2.558   2.919   3.798
 3186WAT      O 9768   4.182   0.808   1.278
 3186WAT     H1 9769   4.151   0.755   1.204
 3186WAT     H2 9770   4.181   0.747   1.352
 3187WAT      O 9771   3.976   1.451   0.837
 3187WAT     H1 9772   4.049   1.408   0.881
 3187WAT     H2 9773   3.902   1.441   0.896
 3188WAT      O 9774   4.148   0.609   0.089
 3188WAT     H1 9775   4.179   0.696   0.116
 3188WAT     H2 9776   4.183   0.599   0.000
 3189WAT      O 9777   0.137   3.904   3.033
 3189WAT     H1 9778   0.149   3.934   3.123
 3189WAT     H2 9779   0.222   3.918   2.991
 3190WAT      O 9780   2.114   3.979   1.669
 3190WAT     H1 9781   2.058   3.965   1.593
 3190WAT     H2 9782   2.103   4.071   1.691
 3191WAT      O 9783   0.860   0.681   1.737
 3191WAT     H1 9784   0.868   0.635   1.821
 3191WAT     H2 9785   0.912   0.627   1.676
 3192WAT      O 9786   2.221   4.327   1.388
 3192WAT     H1 9787   2.138   4.278   1.387
 3192WAT     H2 9788   2.239   4.342   1.481
 3193WAT      O 9789   0.864   2.663   1.648
 3193WAT     H1 9790   0.825   2.737   1.695
 3193WAT     H2 9791   0.791   2.623   1.601
 3194WAT      O 9792   2.781   2.425   2.488
 3194WAT     H1 9793   2.711   2.402   2.428
 3194WAT     H2 9794   2.854   2.450   2.432
 3195WAT      O 9795   2.884   0.487   0.408
 3195WAT     H1 9796   2.889   0.482   0.312
 3195WAT     H2 9797   2.877   0.395   0.436
 3196WAT      O 9798   2.002   5.113   1.838
 3196WAT     H1 9799   2.029   5.095   1.748
 3196WAT     H2 9800   2.042   5.042   1.889
 3197WAT      O 9801   2.146   1.251   0.565
 3197WAT     H1 9802   2.122   1.336   0.528
 3197WAT     H2 9803   2.173   1.198   0.490
 3198WAT      O 9804   1.840   1.217   2.371
 3198WAT     H1 9805   1.878   1.138   2.409
 3198WAT     H2 9806   1.846   1.204   2.277
 3199WAT      O 9807   3.055   4.353   3.042
 3199WAT     H1 9808   3.067   4.321   2.952
 3199WAT     H2 9809   2.962   4.375   3.048
 3200WAT      O 9810   0.857   0.364   4.188
 3200WAT     H1 9811   0.886   0.454   4.188
 3200WAT     H2 9812   0.786   0.360   4.252
 3201WAT      O 9813   1.779   1.718   3.137
 3201WAT     H1 9814   1.707   1.770   3.172
 3201WAT     H2 9815   1.798   1.757   3.052
 3202WAT      O 9816   1.335   0.262   3.257
 3202WAT     H1 9817   1.246   0.298   3.259
 3202WAT     H2 9818   1.325   0.170   3.281
 3203WAT      O 9819   2.844   1.366   4.062
 3203WAT     H1 9820   2.931   1.391   4.092
 3203WAT     H2 9821   2.858   1.297   3.999
 3204WAT      O 9822   4.310   4.929   2.319
 3204WAT     H1 9823   4.250   4.856   2.333
 3204WAT     H2 9824   4.314   4.939   2.224
 3205WAT      O 9825   2.031   1.720   4.510
 3205WAT     H1 9826   2.065   1.800   4.551
 3205WAT     H2 9827   1.966   1.687   4.572
 3206WAT      O 9828   3.260   0.637   4.625
 3206WAT     H1 9829   3.312   0.556   4.627
 3206WAT     H2 9830   3.211   0.632   4.543
 3207WAT      O 9831   0.354   4.656   4.295
 3207WAT     H1 9832   0.399   4.716   4.237
 3207WAT     H2 9833   0.288   4.614   4.239
 3208WAT      O 9834   0.092   3.747   3.887
 3208WAT     H1 9835   0.101   3.753   3.792
 3208WAT     H2 9836   0.069   3.656   3.903
 3209WAT      O 9837   4.507   3.643   5.067
 3209WAT     H1 9838   4.514   3.710   5.135
 3209WAT     H2 9839   4.488   3.692   4.987
 3210WAT      O 9840   3.208   5.042   4.750
 3210WAT     H1 9841   3.212   5.056   4.656
 3210WAT     H2 9842   3.166   4.956   4.760
 3211WAT      O 9843   3.440   0.990   3.587
 3211WAT     H1 9844   3.530   1.022   3.585
 3211WAT     H2 9845   3.387   1.070   3.595
 3212WAT      O 9846   1.651   1.651   0.907
 3212WAT     H1 9847   1.631   1.558   0.898
 3212WAT     H2 9848   1.710   1.655   0.982
 3213WAT      O 9849   3.797   2.375   0.966
 3213WAT     H1 9850   3.818   2.451   1.019
 3213WAT     H2 9851   3.792   2.408   0.876
 3214WAT      O 9852   3.259   1.569   0.460
 3214WAT     H1 9853   3.263   1.662   0.485
 3214WAT     H2 9854   3.245   1.570   0.366
 3215WAT      O 9855   0.948   3.589   2.855
 3215WAT     H1 9856   0.867   3.547   2.827
 3215WAT     H2 9857   0.993   3.610   2.773
 3216WAT      O 9858   3.209   2.941   2.281
 3216WAT     H1 9859   3.114   2.950   2.275
 3216WAT     H2 9860   3.242   3.030   2.286
 3217WAT      O 9861   4.313   2.101   2.657
 3217WAT     H1 9862   4.219   2.110   2.673
 3217WAT     H2 9863   4.331   2.009   2.673
 3218WAT      O 9864   3.426   0.734   0.547
 3218WAT     H1 9865   3.348   0.693   0.509
 3218WAT     H2 9866   3.472   0.773   0.473
 3219WAT      O 9867   4.291   4.383   3.361
 3219WAT     H1 9868   4.330   4.381   3.448
 3219WAT     H2 9869   4.366   4.392   3.301
 3220WAT      O 9870   3.202   2.600   4.760
 3220WAT     H1 9871   3.128   2.633   4.812
 3220WAT     H2 9872   3.275   2.598   4.821
 3221WAT      O 9873   1.123   3.373   4.361
 3221WAT     H1 9874   1.072   3.329   4.294
 3221WAT     H2 9875   1.068   3.446   4.390
 3222WAT      O 9876   4.155   1.743   0.760
 3222WAT     H1 9877   4.114   1.659   0.781
 3222WAT     H2 9878   4.234   1.744   0.813
 3223WAT      O 9879   3.479   3.975   0.416
 3223WAT     H1 9880   3.400   3.948   0.463
 3223WAT     H2 9881   3.481   3.920   0.338
 3224WAT      O 9882   0.520   3.091   0.612
 3224WAT     H1 9883   0.476   3.126   0.535
 3224WAT     H2 9884   0.516   2.996   0.601
 3225WAT      O 9885   0.238   0.212   4.959
 3225WAT     H1 9886   0.143   0.216   4.947
 3225WAT     H2 9887   0.251   0.165   5.041
 3226WAT      O 9888   4.487   1.402   2.156
 3226WAT     H1 9889   4.532   1.484   2.137
 3226WAT     H2 9890   4.539   1.336   2.113
 3227WAT      O 9891   0.877   2.247   1.995
 3227WAT     H1 9892   0.933   2.287   1.929
 3227WAT     H2 9893   0.874   2.311   2.066
 3228WAT      O 9894   2.044   4.138   2.968
 3228WAT     H1 9895   2.079   4.199   3.032
 3228WAT     H2 9896   1.970   4.096   3.012
 3229WAT      O 9897   3.398   1.323   2.368
 3229WAT     H1 9898   3.467   1.297   2.429
 3229WAT     H2 9899   3.344   1.385   2.418
 3230WAT      O 9900   3.646   2.060   0.572
 3230WAT     H1 9901   3.642   1.991   0.506
 3230WAT     H2 9902   3.574   2.040   0.631
 3231WAT      O 9903   1.051   2.433   1.710
 3231WAT     H1 9904   0.991   2.507   1.702
 3231WAT     H2 9905   1.116   2.447   1.641
 3232WAT      O 9906   1.835   4.024   4.112
 3232WAT     H1 9907   1.841   4.003   4.206
 3232WAT     H2 9908   1.925   4.039   4.085
 3233WAT      O 9909   1.819   4.020   3.344
 3233WAT     H1 9910   1.750   3.961   3.375
 3233WAT     H2 9911   1.800   4.104   3.387
 3234WAT      O 9912   3.792   3.864   1.884
 3234WAT     H1 9913   3.792   3.941   1.827
 3234WAT     H2 9914   3.843   3.890   1.960
 3235WAT      O 9915   3.959   2.632   3.886
 3235WAT     H1 9916   3.904   2.559   3.857
 3235WAT     H2 9917   4.008   2.657   3.808
 3236WAT      O 9918   0.428   1.843   2.600
 3236WAT     H1 9919   0.380   1.818   2.521
 3236WAT     H2 9920   0.492   1.773   2.612
 3237WAT      O 9921   2.620   0.599   1.246
 3237WAT     H1 9922   2.705   0.624   1.282
 3237WAT     H2 9923   2.559   0.612   1.318
 3238WAT      O 9924   1.757   3.405   2.100
 3238WAT     H1 9925   1.769   3.333   2.038
 3238WAT     H2 9926   1.745   3.482   2.044
 3239WAT      O 9927   2.966   4.714   3.826
 3239WAT     H1 9928   2.966   4.784   3.892
 3239WAT     H2 9929   2.995   4.636   3.873
 3240WAT      O 9930   1.700   0.051   2.709
 3240WAT     H1 9931   1.723   0.038   2.801
 3240WAT     H2 9932   1.681  -0.037   2.677
 3241WAT      O 9933   3.089   0.147   2.826
 3241WAT     H1 9934   3.120   0.086   2.760
 3241WAT     H2 9935   3.070   0.093   2.903
 3242WAT      O 9936   4.511   2.632   0.144
 3242WAT     H1 9937   4.419   2.655   0.159
 3242WAT     H2 9938   4.525   2.648   0.051
 3243WAT      O 9939   1.132   1.524   1.820
 3243WAT     H1 9940   1.094   1.461   1.759
 3243WAT     H2 9941   1.072   1.524   1.895
 3244WAT      O 9942   4.460   0.808   3.626
 3244WAT     H1 9943   4.450   0.719   3.657
 3244WAT     H2 9944   4.553   0.828   3.633
 3245WAT      O 9945   0.503   2.258   2.600
 3245WAT     H1 9946   0.515   2.201   2.524
 3245WAT     H2 9947   0.409   2.259   2.615
 3246WAT      O 9948   3.565   2.366   0.749
 3246WAT     H1 9949   3.530   2.287   0.791
 3246WAT     H2 9950   3.576   2.340   0.657
 3247WAT      O 9951   3.251   3.072   4.069
 3247WAT     H1 9952   3.220   3.141   4.128
 3247WAT     H2 9953   3.213   3.094   3.984
 3248WAT      O 9954   0.685   1.560   0.156
 3248WAT     H1 9955   0.680   1.575   0.251
 3248WAT     H2 9956   0.719   1.642   0.121
 3249WAT      O 9957   3.723   2.074   1.514
 3249WAT     H1 9958   3.773   2.046   1.590
 3249WAT     H2 9959   3.788   2.089   1.445
 3250WAT      O 9960   0.292   1.511   0.199
 3250WAT     H1 9961   0.368   1.543   0.150
 3250WAT     H2 9962   0.324   1.434   0.245
 3251WAT      O 9963   0.339   4.236   4.977
 3251WAT     H1 9964   0.287   4.171   4.930
 3251WAT     H2 9965   0.317   4.319   4.935
 3252WAT      O 9966   4.022   2.452   4.400
 3252WAT     H1 9967   4.021   2.442   4.305
 3252WAT     H2 9968   3.970   2.378   4.432
 3253WAT      O 9969   3.139   3.029   1.084
 3253WAT     H1 9970   3.057   2.979   1.079
 3253WAT     H2 9971   3.156   3.037   1.178
 3254WAT      O 9972   0.694   3.283   2.254
 3254WAT     H1 9973   0.651   3.368   2.267
 3254WAT     H2 9974   0.747   3.271   2.333
 3255WAT      O 9975   0.342   1.918   1.017
 3255WAT     H1 9976   0.309   2.002   1.050
 3255WAT     H2 9977   0.322   1.920   0.923
 3256WAT      O 9978   3.783   2.468   2.215
 3256WAT     H1 9979   3.729   2.534   2.259
 3256WAT     H2 9980   3.812   2.511   2.134
 3257WAT      O 9981   4.302   2.455   2.231
 3257WAT     H1 9982   4.290   2.366   2.199
 3257WAT     H2 9983   4.394   2.458   2.259
 3258WAT      O 9984   0.760   2.376   2.947
 3258WAT     H1 9985   0.676   2.390   2.904
 3258WAT     H2 9986   0.738   2.333   3.030
 3259WAT      O 9987   4.033   3.094   1.844
 3259WAT     H1 9988   3.995   3.177   1.817
 3259WAT     H2 9989   3.989   3.029   1.790
 3260WAT      O 9990   0.415   1.743   0.449
 3260WAT     H1 9991   0.357   1.675   0.484
 3260WAT     H2 9992   0.385   1.754   0.358
 3261WAT      O 9993   0.433   4.982   0.342
 3261WAT     H1 9994   0.512   4.982   0.396
 3261WAT     H2 9995   0.402   5.073   0.344
 3262WAT      O 9996   1.815   3.064   3.372
 3262WAT     H1 9997   1.720   3.058   3.380
 3262WAT     H2 9998   1.829   3.141   3.315
 3263WAT      O 9999   2.310   0.919   5.257
 3263WAT     H110000   2.288   0.828   5.271
 3263WAT     H210001   2.363   0.921   5.178
 3264WAT      O10002   3.666   2.910   0.313
 3264WAT     H110003   3.598   2.975   0.330
 3264WAT     H210004   3.690   2.876   0.399
 3265WAT      O10005   4.162   2.330   3.751
 3265WAT     H110006   4.184   2.303   3.840
 3265WAT     H210007   4.235   2.297   3.698
 3266WAT      O10008   0.383   4.804   2.222
 3266WAT     H110009   0.373   4.714   2.252
 3266WAT     H210010   0.405   4.796   2.129
 3267WAT      O10011   1.055   2.786   4.317
 3267WAT     H110012   0.996   2.827   4.381
 3267WAT     H210013   1.069   2.698   4.352
 3268WAT      O10014   0.032   4.827   2.396
 3268WAT     H110015  -0.012   4.749   2.430
 3268WAT     H210016  -0.038   4.891   2.384
 3269WAT      O10017   1.056   1.384   1.128
 3269WAT     H110018   1.031   1.398   1.036
 3269WAT     H210019   0.994   1.318   1.159
 3270WAT      O10020   1.975   3.382   4.123
 3270WAT     H110021   1.891   3.405   4.083
 3270WAT     H210022   2.016   3.322   4.060
 3271WAT      O10023   3.654   0.775   3.720
 3271WAT     H110024   3.638   0.686   3.748
 3271WAT     H210025   3.746   0.778   3.695
 3272WAT      O10026   3.614   1.859   2.886
 3272WAT     H110027   3.613   1.941   2.838
 3272WAT     H210028   3.676   1.803   2.838
 3273WAT      O10029   3.895   0.678   0.177
 3273WAT     H110030   3.983   0.668   0.139
 3273WAT     H210031   3.846   0.729   0.112
 3274WAT      O10032   0.395   3.541   3.854
 3274WAT     H110033   0.384   3.460   3.803
 3274WAT     H210034   0.381   3.514   3.945
 3275WAT      O10035   3.417   4.803   3.515
 3275WAT     H110036   3.327   4.829   3.495
 3275WAT     H210037   3.466   4.821   3.435
 3276WAT      O10038   1.852   0.816   1.554
 3276WAT     H110039   1.771   0.767   1.543
 3276WAT     H210040   1.824   0.908   1.557
 3277WAT      O10041   1.252   1.067   4.969
 3277WAT     H110042   1.218   0.991   4.921
 3277WAT     H210043   1.283   1.030   5.052
 3278WAT      O10044   1.404   0.935   4.021
 3278WAT     H110045   1.405   0.841   4.035
 3278WAT     H210046   1.407   0.973   4.108
 3279WAT      O10047   0.708   1.047   1.722
 3279WAT     H110048   0.727   1.073   1.813
 3279WAT     H210049   0.661   0.964   1.730
 3280WAT      O10050   2.957   0.183   0.067
 3280WAT     H110051   2.905   0.250   0.110
 3280WAT     H210052   3.021   0.156   0.133
 3281WAT      O10053   3.415   2.456   3.629
 3281WAT     H110054   3.337   2.435   3.680
 3281WAT     H210055   3.402   2.548   3.602
 3282WAT      O10056   3.072   4.235   1.866
 3282WAT     H110057   3.092   4.251   1.774
 3282WAT     H210058   2.978   4.212   1.866
 3283WAT      O10059   1.669   4.705   4.920
 3283WAT     H110060   1.749   4.655   4.940
 3283WAT     H210061   1.642   4.673   4.834
 3284WAT      O10062   4.275   1.736   3.398
 3284WAT     H110063   4.323   1.731   3.316
 3284WAT     H210064   4.342   1.730   3.466
 3285WAT      O10065   3.419   3.139   5.145
 3285WAT     H110066   3.472   3.082   5.088
 3285WAT     H210067   3.482   3.177   5.206
 3286WAT      O10068   2.477   4.482   4.642
 3286WAT     H110069   2.401   4.501   4.586
 3286WAT     H210070   2.439   4.462   4.727
 3287WAT      O10071   2.002   0.142   0.914
 3287WAT     H110072   2.091   0.106   0.913
 3287WAT     H210073   2.013   0.234   0.938
 3288WAT      O10074   0.200   4.497   0.554
 3288WAT     H110075   0.246   4.579   0.573
 3288WAT     H210076   0.270   4.433   0.544
 3289WAT      O10077   3.085   4.094   0.681
 3289WAT     H110078   3.137   4.063   0.607
 3289WAT     H210079   3.119   4.182   0.699
 3290WAT      O10080   3.561   2.643   4.383
 3290WAT     H110081   3.490   2.589   4.417
 3290WAT     H210082   3.517   2.719   4.345
 3291WAT      O10083   2.851   0.239   3.647
 3291WAT     H110084   2.762   0.244   3.613
 3291WAT     H210085   2.899   0.190   3.581
 3292WAT      O10086   1.526   1.294   3.005
 3292WAT     H110087   1.556   1.205   3.025
 3292WAT     H210088   1.432   1.292   3.025
 3293WAT      O10089   0.608   1.384   4.066
 3293WAT     H110090   0.535   1.409   4.009
 3293WAT     H210091   0.672   1.455   4.054
 3294WAT      O10092   0.777   4.957   2.152
 3294WAT     H110093   0.842   4.910   2.101
 3294WAT     H210094   0.705   4.972   2.091
 3295WAT      O10095   2.533   4.549   0.252
 3295WAT     H110096   2.459   4.542   0.192
 3295WAT     H210097   2.515   4.627   0.304
 3296WAT      O10098   3.783   4.440   1.227
 3296WAT     H110099   3.727   4.392   1.287
 3296WAT     H210100   3.744   4.424   1.140
 3297WAT      O10101   3.560   3.231   0.192
 3297WAT     H110102   3.602   3.177   0.125
 3297WAT     H210103   3.522   3.168   0.253
 3298WAT      O10104   1.860   3.736   1.748
 3298WAT     H110105   1.956   3.742   1.747
 3298WAT     H210106   1.840   3.658   1.697
 3299WAT      O10107   1.491   2.838   2.310
 3299WAT     H110108   1.512   2.746   2.320
 3299WAT     H210109   1.396   2.841   2.303
 3300WAT      O10110   0.276   1.771   1.837
 3300WAT     H110111   0.252   1.812   1.920
 3300WAT     H210112   0.224   1.818   1.772
 3301WAT      O10113   0.727   4.424   3.392
 3301WAT     H110114   0.690   4.492   3.448
 3301WAT     H210115   0.771   4.364   3.452
 3302WAT      O10116   0.428   0.688   2.572
 3302WAT     H110117   0.409   0.599   2.602
 3302WAT     H210118   0.439   0.739   2.652
 3303WAT      O10119   4.339   1.741   0.359
 3303WAT     H110120   4.322   1.650   0.334
 3303WAT     H210121   4.258   1.767   0.403
 3304WAT      O10122   0.405   3.274   5.070
 3304WAT     H110123   0.356   3.352   5.097
 3304WAT     H210124   0.338   3.216   5.033
 3305WAT      O10125   2.699   3.792   1.199
 3305WAT     H110126   2.633   3.745   1.149
 3305WAT     H210127   2.695   3.753   1.286
 3306WAT      O10128   3.724   3.421   4.537
 3306WAT     H110129   3.678   3.342   4.508
 3306WAT     H210130   3.768   3.453   4.458
 3307WAT      O10131   1.559   3.642   1.504
 3307WAT     H110132   1.545   3.699   1.580
 3307WAT     H210133   1.581   3.701   1.433
 3308WAT      O10134   1.020   4.577   0.902
 3308WAT     H110135   0.969   4.657   0.889
 3308WAT     H210136   1.048   4.582   0.994
 3309WAT      O10137   3.089   3.785   1.467
 3309WAT     H110138   3.063   3.800   1.376
 3309WAT     H210139   3.134   3.866   1.492
 3310WAT      O10140   0.151   3.188   3.962
 3310WAT     H110141   0.193   3.117   4.012
 3310WAT     H210142   0.076   3.146   3.920
 3311WAT      O10143   3.995   4.427   3.150
 3311WAT     H110144   3.995   4.394   3.239
 3311WAT     H210145   4.024   4.353   3.096
 3312WAT      O10146   1.233   4.973   4.774
 3312WAT     H110147   1.173   5.005   4.706
 3312WAT     H210148   1.269   5.053   4.814
 3313WAT      O10149   3.753   1.887   4.851
 3313WAT     H110150   3.712   1.973   4.843
 3313WAT     H210151   3.741   1.846   4.765
 3314WAT      O10152   2.011   3.252   1.773
 3314WAT     H110153   1.933   3.307   1.775
 3314WAT     H210154   1.978   3.163   1.764
 3315WAT      O10155   2.850   0.938   4.284
 3315WAT     H110156   2.800   0.977   4.211
 3315WAT     H210157   2.901   0.869   4.243
 3316WAT      O10158   3.484   0.086   0.981
 3316WAT     H110159   3.442   0.160   0.937
 3316WAT     H210160   3.478   0.107   1.074
 3317WAT      O10161   1.707   0.773   3.824
 3317WAT     H110162   1.613   0.775   3.806
 3317WAT     H210163   1.730   0.866   3.843
 3318WAT      O10164   3.874   4.918   0.047
 3318WAT     H110165   3.936   4.977   0.089
 3318WAT     H210166   3.790   4.966   0.049
 3319WAT      O10167   1.032   2.451   2.861
 3319WAT     H110168   0.983   2.435   2.943
 3319WAT     H210169   0.964   2.474   2.798
 3320WAT      O10170   2.508   4.842   4.102
 3320WAT     H110171   2.597   4.866   4.126
 3320WAT     H210172   2.505   4.852   4.007
 3321WAT      O10173   0.860   1.626   3.524
 3321WAT     H110174   0.799   1.578   3.580
 3321WAT     H210175   0.864   1.714   3.562
 3322WAT      O10176   1.067   3.246   3.388
 3322WAT     H110177   1.030   3.228   3.475
 3322WAT     H210178   1.033   3.176   3.333
 3323WAT      O10179   4.486   4.066   3.561
 3323WAT     H110180   4.557   4.085   3.624
 3323WAT     H210181   4.406   4.070   3.614
 3324WAT      O10182   1.403   3.506   4.295
 3324WAT     H110183   1.435   3.428   4.341
 3324WAT     H210184   1.316   3.520   4.331
 3325WAT      O10185   4.072   4.855   1.735
 3325WAT     H110186   4.154   4.807   1.748
 3325WAT     H210187   4.008   4.788   1.713
 3326WAT      O10188   0.912   4.067   3.440
 3326WAT     H110189   0.876   3.978   3.435
 3326WAT     H210190   1.002   4.058   3.408
 3327WAT      O10191   3.216   0.826   2.085
 3327WAT     H110192   3.254   0.898   2.035
 3327WAT     H210193   3.290   0.775   2.115
 3328WAT      O10194   4.327   3.667   2.278
 3328WAT     H110195   4.323   3.631   2.367
 3328WAT     H210196   4.353   3.594   2.223
 3329WAT      O10197   0.547   4.809   4.976
 3329WAT     H110198   0.546   4.901   4.946
 3329WAT     H210199   0.457   4.780   4.964
 3330WAT      O10200   1.131   4.706   4.157
 3330WAT     H110201   1.083   4.625   4.174
 3330WAT     H210202   1.153   4.740   4.244
 3331WAT      O10203   0.637   2.027   2.914
 3331WAT     H110204   0.717   2.067   2.947
 3331WAT     H210205   0.649   2.022   2.819
 3332WAT      O10206   3.160   1.695   1.340
 3332WAT     H110207   3.103   1.752   1.289
 3332WAT     H210208   3.102   1.626   1.373
 3333WAT      O10209   1.607   3.350   3.731
 3333WAT     H110210   1.688   3.314   3.767
 3333WAT     H210211   1.555   3.372   3.808
 3334WAT      O10212   2.391   1.530   3.433
 3334WAT     H110213   2.301   1.529   3.467
 3334WAT     H210214   2.416   1.438   3.429
 3335WAT      O10215   3.000   3.735   0.554
 3335WAT     H110216   3.027   3.655   0.598
 3335WAT     H210217   2.918   3.712   0.510
 3336WAT      O10218   0.147   1.269   3.033
 3336WAT     H110219   0.097   1.277   3.114
 3336WAT     H210220   0.081   1.246   2.967
 3337WAT      O10221   1.300   1.433   0.301
 3337WAT     H110222   1.301   1.350   0.348
 3337WAT     H210223   1.210   1.444   0.272
 3338WAT      O10224   0.204   3.592   1.577
 3338WAT     H110225   0.284   3.629   1.541
 3338WAT     H210226   0.135   3.622   1.518
 3339WAT      O10227   2.884   5.133   0.934
 3339WAT     H110228   2.790   5.112   0.936
 3339WAT     H210229   2.919   5.095   1.014
 3340WAT      O10230   0.730   0.925   0.206
 3340WAT     H110231   0.686   1.007   0.228
 3340WAT     H210232   0.677   0.885   0.137
 3341WAT      O10233   4.122   1.615   5.231
 3341WAT     H110234   4.209   1.596   5.196
 3341WAT     H210235   4.099   1.700   5.194
 3342WAT      O10236   3.133   0.494   3.024
 3342WAT     H110237   3.061   0.433   3.039
 3342WAT     H210238   3.181   0.457   2.950
 3343WAT      O10239   1.665   0.869   1.057
 3343WAT     H110240   1.617   0.953   1.050
 3343WAT     H210241   1.755   0.896   1.078
 3344WAT      O10242   0.664   3.754   4.249
 3344WAT     H110243   0.580   3.744   4.294
 3344WAT     H210244   0.716   3.679   4.277
 3345WAT      O10245   3.583   0.879   3.190
 3345WAT     H110246   3.497   0.889   3.231
 3345WAT     H210247   3.615   0.796   3.225
 3346WAT      O10248   0.688   5.047   4.329
 3346WAT     H110249   0.667   4.982   4.396
 3346WAT     H210250   0.780   5.030   4.307
 3347WAT      O10251   1.628   3.626   0.037
 3347WAT     H110252   1.689   3.556   0.014
 3347WAT     H210253   1.548   3.603  -0.011
 3348WAT      O10254   0.686   3.570   4.616
 3348WAT     H110255   0.671   3.490   4.567
 3348WAT     H210256   0.605   3.583   4.666
 3349WAT      O10257   0.047   3.238   2.667
 3349WAT     H110258   0.049   3.150   2.630
 3349WAT     H210259   0.111   3.288   2.616
 3350WAT      O10260   3.658   0.630   2.706
 3350WAT     H110261   3.578   0.653   2.657
 3350WAT     H210262   3.636   0.647   2.797
 3351WAT      O10263   4.462   0.114   1.213
 3351WAT     H110264   4.485   0.098   1.305
 3351WAT     H210265   4.516   0.189   1.187
 3352WAT      O10266   3.425   3.749   1.509
 3352WAT     H110267   3.498   3.795   1.467
 3352WAT     H210268   3.349   3.804   1.491
 3353WAT      O10269   3.310   5.037   1.234
 3353WAT     H110270   3.227   5.078   1.209
 3353WAT     H210271   3.355   5.022   1.151
 3354WAT      O10272   3.216   5.103   2.430
 3354WAT     H110273   3.165   5.086   2.509
 3354WAT     H210274   3.280   5.033   2.427
 3355WAT      O10275   2.240   3.178   5.199
 3355WAT     H110276   2.239   3.256   5.254
 3355WAT     H210277   2.279   3.207   5.117
 3356WAT      O10278   3.751   3.188   4.924
 3356WAT     H110279   3.726   3.126   4.855
 3356WAT     H210280   3.845   3.175   4.935
 3357WAT      O10281   3.350   5.063   2.138
 3357WAT     H110282   3.300   5.085   2.217
 3357WAT     H210283   3.425   5.123   2.139
 3358WAT      O10284   2.608   2.519   0.206
 3358WAT     H110285   2.618   2.538   0.299
 3358WAT     H210286   2.683   2.463   0.184
 3359WAT      O10287   3.883   1.660   0.360
 3359WAT     H110288   3.962   1.698   0.398
 3359WAT     H210289   3.842   1.731   0.312
 3360WAT      O10290   3.821   4.115   1.771
 3360WAT     H110291   3.745   4.134   1.717
 3360WAT     H210292   3.896   4.146   1.719
 3361WAT      O10293   0.398   4.785   4.572
 3361WAT     H110294   0.381   4.720   4.503
 3361WAT     H210295   0.314   4.793   4.618
 3362WAT      O10296   3.720   4.652   2.072
 3362WAT     H110297   3.795   4.668   2.130
 3362WAT     H210298   3.740   4.568   2.030
 3363WAT      O10299   1.925   3.475   1.624
 3363WAT     H110300   2.017   3.456   1.644
 3363WAT     H210301   1.924   3.494   1.531
 3364WAT      O10302   1.524   2.345   3.286
 3364WAT     H110303   1.437   2.385   3.280
 3364WAT     H210304   1.584   2.419   3.292
 3365WAT      O10305   2.193   1.740   2.897
 3365WAT     H110306   2.106   1.702   2.904
 3365WAT     H210307   2.203   1.761   2.804
 3366WAT      O10308   2.277   0.281   0.259
 3366WAT     H110309   2.350   0.272   0.320
 3366WAT     H210310   2.204   0.239   0.303
 3367WAT      O10311   2.026   3.183   1.380
 3367WAT     H110312   2.093   3.156   1.443
 3367WAT     H210313   1.994   3.101   1.343
 3368WAT      O10314   0.243   3.687   1.307
 3368WAT     H110315   0.257   3.702   1.213
 3368WAT     H210316   0.159   3.641   1.311
 3369WAT      O10317   2.958   3.055   2.772
 3369WAT     H110318   3.044   3.013   2.775
 3369WAT     H210319   2.958   3.103   2.689
 3370WAT      O10320   2.257   0.194   2.155
 3370WAT     H110321   2.230   0.227   2.069
 3370WAT     H210322   2.206   0.114   2.166
 3371WAT      O10323   4.131   0.935   2.665
 3371WAT     H110324   4.193   0.957   2.595
 3371WAT     H210325   4.171   0.971   2.744
 3372WAT      O10326   0.744   1.708   5.198
 3372WAT     H110327   0.770   1.672   5.114
 3372WAT     H210328   0.778   1.798   5.197
 3373WAT      O10329   3.823   4.311   1.986
 3373WAT     H110330   3.737   4.332   2.022
 3373WAT     H210331   3.805   4.264   1.905
 3374WAT      O10332   1.213   4.354   1.830
 3374WAT     H110333   1.126   4.316   1.841
 3374WAT     H210334   1.212   4.432   1.885
 3375WAT      O10335   2.551   4.192   3.258
 3375WAT     H110336   2.493   4.159   3.327
 3375WAT     H210337   2.620   4.238   3.306
 3376WAT      O10338   3.118   2.804   1.962
 3376WAT     H110339   3.161   2.855   1.893
 3376WAT     H210340   3.038   2.853   1.982
 3377WAT      O10341   0.114   1.244   1.311
 3377WAT     H110342   0.033   1.292   1.291
 3377WAT     H210343   0.099   1.205   1.397
 3378WAT      O10344   1.431   0.227   3.936
 3378WAT     H110345   1.418   0.132   3.935
 3378WAT     H210346   1.407   0.255   3.848
 3379WAT      O10347   1.743   1.490   4.137
 3379WAT     H110348   1.810   1.431   4.104
 3379WAT     H210349   1.690   1.512   4.061
 3380WAT      O10350   3.835   0.819   5.247
 3380WAT     H110351   3.901   0.885   5.263
 3380WAT     H210352   3.757   0.866   5.223
 3381WAT      O10353   1.911   3.502   0.618
 3381WAT     H110354   1.843   3.474   0.557
 3381WAT     H210355   1.970   3.427   0.626
 3382WAT      O10356   3.798   2.092   4.443
 3382WAT     H110357   3.704   2.103   4.457
 3382WAT     H210358   3.815   2.135   4.359
 3383WAT      O10359   2.826   2.755   3.812
 3383WAT     H110360   2.897   2.792   3.760
 3383WAT     H210361   2.834   2.796   3.898
 3384WAT      O10362   2.058   0.764   0.613
 3384WAT     H110363   2.131   0.722   0.568
 3384WAT     H210364   2.019   0.693   0.665
 3385WAT      O10365   2.844   0.566   2.009
 3385WAT     H110366   2.789   0.519   1.946
 3385WAT     H210367   2.930   0.568   1.969
 3386WAT      O10368   1.438   4.992   2.567
 3386WAT     H110369   1.464   4.998   2.475
 3386WAT     H210370   1.498   4.928   2.605
 3387WAT      O10371   3.593   1.506   3.041
 3387WAT     H110372   3.629   1.502   3.130
 3387WAT     H210373   3.667   1.487   2.984
 3388WAT      O10374   3.148   0.951   3.851
 3388WAT     H110375   3.225   0.898   3.831
 3388WAT     H210376   3.084   0.925   3.784
 3389WAT      O10377   1.861   2.498   1.142
 3389WAT     H110378   1.885   2.445   1.066
 3389WAT     H210379   1.944   2.527   1.179
 3390WAT      O10380   3.979   0.448   4.730
 3390WAT     H110381   3.925   0.380   4.769
 3390WAT     H210382   3.954   0.449   4.638
 3391WAT      O10383   2.760   4.117   4.360
 3391WAT     H110384   2.680   4.146   4.404
 3391WAT     H210385   2.777   4.030   4.395
 3392WAT      O10386   0.703   4.237   1.871
 3392WAT     H110387   0.668   4.262   1.785
 3392WAT     H210388   0.639   4.175   1.905
 3393WAT      O10389   4.156   3.094   0.053
 3393WAT     H110390   4.100   3.056   0.121
 3393WAT     H210391   4.095   3.130  -0.011
 3394WAT      O10392   4.086   0.244   3.471
 3394WAT     H110393   4.073   0.262   3.377
 3394WAT     H210394   3.997   0.242   3.508
 3395WAT      O10395   0.912   1.553   2.002
 3395WAT     H110396   0.871   1.466   2.000
 3395WAT     H210397   0.936   1.567   2.093
 3396WAT      O10398   0.300   3.289   4.507
 3396WAT     H110399   0.240   3.322   4.440
 3396WAT     H210400   0.340   3.212   4.466
 3397WAT      O10401   3.630   2.527   1.574
 3397WAT     H110402   3.534   2.526   1.578
 3397WAT     H210403   3.654   2.434   1.577
 3398WAT      O10404   1.516   3.994   3.661
 3398WAT     H110405   1.429   4.017   3.694
 3398WAT     H210406   1.556   4.077   3.637
 3399WAT      O10407   4.506   2.331   2.685
 3399WAT     H110408   4.504   2.360   2.776
 3399WAT     H210409   4.437   2.266   2.679
 3400WAT      O10410   4.048   2.053   3.166
 3400WAT     H110411   4.103   2.056   3.244
 3400WAT     H210412   3.968   2.100   3.192
 3401WAT      O10413   2.199   4.936   0.336
 3401WAT     H110414   2.218   5.022   0.371
 3401WAT     H210415   2.258   4.927   0.261
 3402WAT      O10416   0.828   1.364   4.284
 3402WAT     H110417   0.733   1.371   4.295
 3402WAT     H210418   0.847   1.418   4.206
 3403WAT      O10419   3.950   3.722   1.643
 3403WAT     H110420   4.042   3.745   1.653
 3403WAT     H210421   3.906   3.770   1.713
 3404WAT      O10422   1.406   1.414  -0.003
 3404WAT     H110423   1.406   1.481   0.066
 3404WAT     H210424   1.487   1.365   0.012
 3405WAT      O10425   3.652   0.721   2.959
 3405WAT     H110426   3.667   0.815   2.960
 3405WAT     H210427   3.620   0.701   3.047
 3406WAT      O10428   1.330   3.989   0.965
 3406WAT     H110429   1.375   3.977   1.049
 3406WAT     H210430   1.391   4.040   0.912
 3407WAT      O10431   3.220   4.246   5.194
 3407WAT     H110432   3.269   4.165   5.210
 3407WAT     H210433   3.138   4.216   5.155
 3408WAT      O10434   4.143   1.623   4.889
 3408WAT     H110435   4.217   1.593   4.836
 3408WAT     H210436   4.068   1.619   4.830
 3409WAT      O10437   2.753   3.429   1.119
 3409WAT     H110438   2.747   3.496   1.051
 3409WAT     H210439   2.666   3.427   1.159
 3410WAT      O10440   0.501   3.691   0.128
 3410WAT     H110441   0.433   3.743   0.171
 3410WAT     H210442   0.476   3.600   0.145
 3411WAT      O10443   4.478   2.607   3.762
 3411WAT     H110444   4.425   2.584   3.838
 3411WAT     H210445   4.568   2.597   3.792
 3412WAT      O10446   3.701   3.085   5.294
 3412WAT     H110447   3.707   2.994   5.325
 3412WAT     H210448   3.788   3.106   5.263
 3413WAT      O10449   3.716   4.983   1.099
 3413WAT     H110450   3.749   4.908   1.049
 3413WAT     H210451   3.765   4.979   1.182
 3414WAT      O10452   2.929   1.568   4.867
 3414WAT     H110453   2.928   1.555   4.962
 3414WAT     H210454   3.013   1.611   4.850
 3415WAT      O10455   1.737   2.931   0.981
 3415WAT     H110456   1.653   2.887   0.978
 3415WAT     H210457   1.796   2.873   0.932
 3416WAT      O10458   3.191   2.958   1.371
 3416WAT     H110459   3.283   2.962   1.397
 3416WAT     H210460   3.144   2.985   1.450
 3417WAT      O10461   1.693   3.524   4.702
 3417WAT     H110462   1.776   3.566   4.723
 3417WAT     H210463   1.707   3.485   4.616
 3418WAT      O10464   1.229   1.135   2.269
 3418WAT     H110465   1.256   1.190   2.342
 3418WAT     H210466   1.191   1.195   2.206
 3419WAT      O10467   0.886   1.067   2.564
 3419WAT     H110468   0.825   1.083   2.492
 3419WAT     H210469   0.907   0.973   2.557
 3420WAT      O10470   1.274   2.580   2.870
 3420WAT     H110471   1.267   2.638   2.795
 3420WAT     H210472   1.190   2.535   2.873
 3421WAT      O10473   0.902   1.483   3.190
 3421WAT     H110474   0.895   1.448   3.278
 3421WAT     H210475   0.873   1.411   3.133
 3422WAT      O10476   4.328   3.067   3.617
 3422WAT     H110477   4.311   3.099   3.528
 3422WAT     H210478   4.257   3.006   3.634
 3423WAT      O10479   1.722   2.541   3.310
 3423WAT     H110480   1.747   2.607   3.244
 3423WAT     H210481   1.804   2.497   3.331
 3424WAT      O10482   2.659   2.767   4.083
 3424WAT     H110483   2.578   2.719   4.100
 3424WAT     H210484   2.635   2.833   4.019
 3425WAT      O10485   2.948   4.174   5.055
 3425WAT     H110486   2.990   4.102   5.009
 3425WAT     H210487   2.855   4.168   5.030
 3426WAT      O10488   0.514   1.522   5.267
 3426WAT     H110489   0.582   1.540   5.331
 3426WAT     H210490   0.557   1.533   5.182
 3427WAT      O10491   2.479   1.230   1.936
 3427WAT     H110492   2.513   1.142   1.912
 3427WAT     H210493   2.385   1.216   1.946
 3428WAT      O10494   2.850   2.193   2.683
 3428WAT     H110495   2.844   2.126   2.751
 3428WAT     H210496   2.822   2.274   2.727
 3429WAT      O10497   3.342   0.594   1.804
 3429WAT     H110498   3.401   0.527   1.837
 3429WAT     H210499   3.255   0.555   1.808
 3430WAT      O10500   2.573   4.528   1.636
 3430WAT     H110501   2.546   4.437   1.648
 3430WAT     H210502   2.630   4.546   1.711
 3431WAT      O10503   0.870   0.402   1.492
 3431WAT     H110504   0.816   0.438   1.422
 3431WAT     H210505   0.959   0.433   1.471
 3432WAT      O10506   3.024   2.009   0.390
 3432WAT     H110507   3.032   2.078   0.324
 3432WAT     H210508   3.040   2.053   0.473
 3433WAT      O10509   2.286   0.622   0.028
 3433WAT     H110510   2.366   0.637   0.079
 3433WAT     H210511   2.274   0.527   0.031
 3434WAT      O10512   3.934   0.889   1.874
 3434WAT     H110513   3.914   0.901   1.967
 3434WAT     H210514   3.911   0.974   1.834
 3435WAT      O10515   0.499   4.524   3.553
 3435WAT     H110516   0.517   4.594   3.616
 3435WAT     H210517   0.403   4.516   3.553
 3436WAT      O10518   0.911   2.936   3.838
 3436WAT     H110519   0.901   2.897   3.925
 3436WAT     H210520   0.863   2.877   3.780
 3437WAT      O10521   2.408   2.424   0.462
 3437WAT     H110522   2.497   2.418   0.497
 3437WAT     H210523   2.381   2.333   0.448
 3438WAT      O10524   4.311   5.036   1.800
 3438WAT     H110525   4.276   5.025   1.711
 3438WAT     H210526   4.387   5.093   1.787
 3439WAT      O10527   2.879   3.853   5.229
 3439WAT     H110528   2.895   3.861   5.323
 3439WAT     H210529   2.964   3.831   5.192
 3440WAT      O10530   0.076   4.245   4.096
 3440WAT     H110531   0.089   4.161   4.052
 3440WAT     H210532  -0.014   4.269   4.075
 3441WAT      O10533   2.478   1.872   2.361
 3441WAT     H110534   2.522   1.914   2.435
 3441WAT     H210535   2.387   1.903   2.366
 3442WAT      O10536   0.998   1.428   1.589
 3442WAT     H110537   0.975   1.335   1.594
 3442WAT     H210538   1.068   1.432   1.523
 3443WAT      O10539   1.565   4.095   0.880
 3443WAT     H110540   1.607   4.120   0.798
 3443WAT     H210541   1.549   4.177   0.926
 3444WAT      O10542   2.978   4.572   0.273
 3444WAT     H110543   2.983   4.584   0.368
 3444WAT     H210544   3.065   4.540   0.248
 3445WAT      O10545   2.485   0.075   1.526
 3445WAT     H110546   2.495  -0.009   1.571
 3445WAT     H210547   2.574   0.100   1.502
 3446WAT      O10548   2.341   1.677   1.967
 3446WAT     H110549   2.377   1.704   1.882
 3446WAT     H210550   2.415   1.683   2.027
 3447WAT      O10551   4.403   2.869   2.719
 3447WAT     H110552   4.399   2.778   2.688
 3447WAT     H210553   4.312   2.896   2.725
 3448WAT      O10554   0.222   4.846   0.968
 3448WAT     H110555   0.236   4.761   0.926
 3448WAT     H210556   0.203   4.824   1.059
 3449WAT      O10557   4.421   1.992   1.416
 3449WAT     H110558   4.432   1.927   1.347
 3449WAT     H210559   4.477   2.065   1.391
 3450WAT      O10560   2.157   0.849   4.691
 3450WAT     H110561   2.213   0.798   4.633
 3450WAT     H210562   2.218   0.904   4.741
 3451WAT      O10563   2.388   2.655   4.848
 3451WAT     H110564   2.446   2.598   4.898
 3451WAT     H210565   2.307   2.658   4.900
 3452WAT      O10566   3.176   3.357   3.560
 3452WAT     H110567   3.260   3.390   3.529
 3452WAT     H210568   3.163   3.275   3.514
 3453WAT      O10569   3.757   0.635   0.538
 3453WAT     H110570   3.848   0.652   0.513
 3453WAT     H210571   3.710   0.630   0.454
 3454WAT      O10572   0.152   2.155   0.911
 3454WAT     H110573   0.198   2.183   0.990
 3454WAT     H210574   0.140   2.235   0.860
 3455WAT      O10575   4.286   5.113   3.451
 3455WAT     H110576   4.232   5.191   3.438
 3455WAT     H210577   4.229   5.053   3.500
 3456WAT      O10578   4.300   2.375   0.177
 3456WAT     H110579   4.295   2.441   0.247
 3456WAT     H210580   4.390   2.384   0.143
 3457WAT      O10581   3.821   0.099   0.998
 3457WAT     H110582   3.789   0.014   1.029
 3457WAT     H210583   3.772   0.115   0.917
 3458WAT      O10584   0.717   4.311   1.053
 3458WAT     H110585   0.746   4.296   0.963
 3458WAT     H210586   0.796   4.305   1.106
 3459WAT      O10587   0.988   2.453   4.182
 3459WAT     H110588   0.913   2.485   4.132
 3459WAT     H210589   0.956   2.372   4.223
 3460WAT      O10590   1.347   5.106   1.698
 3460WAT     H110591   1.434   5.138   1.720
 3460WAT     H210592   1.363   5.036   1.634
 3461WAT      O10593   4.203   4.610   4.221
 3461WAT     H110594   4.191   4.694   4.266
 3461WAT     H210595   4.294   4.586   4.238
 3462WAT      O10596   3.972   0.678   1.722
 3462WAT     H110597   3.912   0.607   1.744
 3462WAT     H210598   3.972   0.734   1.800
 3463WAT      O10599   3.056   1.919   1.570
 3463WAT     H110600   3.059   1.839   1.622
 3463WAT     H210601   3.022   1.890   1.485
 3464WAT      O10602   1.814   1.218   1.013
 3464WAT     H110603   1.908   1.214   1.031
 3464WAT     H210604   1.806   1.197   0.920
 3465WAT      O10605   0.200   3.441   2.034
 3465WAT     H110606   0.231   3.473   1.950
 3465WAT     H210607   0.195   3.346   2.024
 3466WAT      O10608   0.870   3.181   5.159
 3466WAT     H110609   0.870   3.200   5.065
 3466WAT     H210610   0.784   3.143   5.176
 3467WAT      O10611   0.093   2.870   3.876
 3467WAT     H110612   0.119   2.885   3.785
 3467WAT     H210613   0.094   2.775   3.886
 3468WAT      O10614   4.308   0.670   4.177
 3468WAT     H110615   4.386   0.721   4.201
 3468WAT     H210616   4.331   0.630   4.093
 3469WAT      O10617   2.181   0.759   5.033
 3469WAT     H110618   2.135   0.841   5.048
 3469WAT     H210619   2.207   0.760   4.941
 3470WAT      O10620   0.548   3.418   3.006
 3470WAT     H110621   0.570   3.490   3.065
 3470WAT     H210622   0.582   3.340   3.049
 3471WAT      O10623   2.082   4.013   0.398
 3471WAT     H110624   2.024   3.938   0.412
 3471WAT     H210625   2.084   4.057   0.483
 3472WAT      O10626   0.481   0.701   0.860
 3472WAT     H110627   0.473   0.614   0.818
 3472WAT     H210628   0.456   0.685   0.951
 3473WAT      O10629   1.512   3.829   3.200
 3473WAT     H110630   1.484   3.907   3.247
 3473WAT     H210631   1.583   3.793   3.252
 3474WAT      O10632   3.134   3.085   0.297
 3474WAT     H110633   3.072   3.156   0.280
 3474WAT     H210634   3.201   3.096   0.230
 3475WAT      O10635   2.764   4.835   4.144
 3475WAT     H110636   2.819   4.757   4.141
 3475WAT     H210637   2.818   4.902   4.186
 3476WAT      O10638   1.507   0.150   0.739
 3476WAT     H110639   1.554   0.203   0.804
 3476WAT     H210640   1.497   0.208   0.664
 3477WAT      O10641   2.559   4.492   4.122
 3477WAT     H110642   2.518   4.412   4.155
 3477WAT     H210643   2.634   4.462   4.070
 3478WAT      O10644   4.485   4.975   0.855
 3478WAT     H110645   4.447   4.976   0.767
 3478WAT     H210646   4.576   4.948   0.841
 3479WAT      O10647   2.964   1.915   4.156
 3479WAT     H110648   2.883   1.961   4.130
 3479WAT     H210649   3.031   1.951   4.097
 3480WAT      O10650   3.535   3.327   2.906
 3480WAT     H110651   3.561   3.387   2.977
 3480WAT     H210652   3.598   3.256   2.910
 3481WAT      O10653   2.545   1.373   3.104
 3481WAT     H110654   2.523   1.297   3.050
 3481WAT     H210655   2.551   1.445   3.042
 3482WAT      O10656   1.463   3.215   3.524
 3482WAT     H110657   1.503   3.292   3.565
 3482WAT     H210658   1.527   3.145   3.538
 3483WAT      O10659   0.484   1.788   5.167
 3483WAT     H110660   0.413   1.740   5.210
 3483WAT     H210661   0.564   1.746   5.200
 3484WAT      O10662   3.895   0.512   1.021
 3484WAT     H110663   3.828   0.563   1.067
 3484WAT     H210664   3.854   0.487   0.938
 3485WAT      O10665   4.094   4.537   5.128
 3485WAT     H110666   4.047   4.466   5.084
 3485WAT     H210667   4.029   4.607   5.136
 3486WAT      O10668   1.884   2.441   0.327
 3486WAT     H110669   1.803   2.411   0.285
 3486WAT     H210670   1.863   2.441   0.420
 3487WAT      O10671   0.398   1.835   3.016
 3487WAT     H110672   0.431   1.909   3.067
 3487WAT     H210673   0.477   1.788   2.989
 3488WAT      O10674   0.831   0.100   4.967
 3488WAT     H110675   0.920   0.095   4.930
 3488WAT     H210676   0.815   0.194   4.977
 3489WAT      O10677   1.576   1.308   0.544
 3489WAT     H110678   1.566   1.313   0.639
 3489WAT     H210679   1.593   1.398   0.517
 3490WAT      O10680   0.259   0.806   3.164
 3490WAT     H110681   0.250   0.724   3.211
 3490WAT     H210682   0.352   0.811   3.143
 3491WAT      O10683   2.197   3.638   3.629
 3491WAT     H110684   2.260   3.612   3.696
 3491WAT     H210685   2.212   3.732   3.617
 3492WAT      O10686   2.947   2.828   1.052
 3492WAT     H110687   2.988   2.757   1.100
 3492WAT     H210688   2.956   2.804   0.960
 3493WAT      O10689   0.299   2.126   0.625
 3493WAT     H110690   0.298   2.084   0.711
 3493WAT     H210691   0.207   2.140   0.604
 3494WAT      O10692   3.394   3.138   3.712
 3494WAT     H110693   3.468   3.102   3.761
 3494WAT     H210694   3.410   3.110   3.622
 3495WAT      O10695   4.436   3.820   5.266
 3495WAT     H110696   4.428   3.915   5.276
 3495WAT     H210697   4.485   3.792   5.343
 3496WAT      O10698   4.165   5.106   4.068
 3496WAT     H110699   4.081   5.135   4.102
 3496WAT     H210700   4.160   5.123   3.974
 3497WAT      O10701   4.214   2.493   1.308
 3497WAT     H110702   4.149   2.485   1.378
 3497WAT     H210703   4.184   2.568   1.256
 3498WAT      O10704   2.498   1.589   3.797
 3498WAT     H110705   2.420   1.644   3.791
 3498WAT     H210706   2.480   1.514   3.740
 3499WAT      O10707   3.645   2.077   2.749
 3499WAT     H110708   3.737   2.102   2.741
 3499WAT     H210709   3.606   2.099   2.664
 3500WAT      O10710   3.094   0.226   2.474
 3500WAT     H110711   3.005   0.211   2.508
 3500WAT     H210712   3.149   0.168   2.526
 3501WAT      O10713   1.532   2.768   3.155
 3501WAT     H110714   1.550   2.753   3.248
 3501WAT     H210715   1.592   2.838   3.130
 3502WAT      O10716   1.795   1.785   4.166
 3502WAT     H110717   1.806   1.692   4.149
 3502WAT     H210718   1.706   1.803   4.138
 3503WAT      O10719   2.348   2.234   3.886
 3503WAT     H110720   2.362   2.142   3.905
 3503WAT     H210721   2.254   2.247   3.894
 3504WAT      O10722   3.579   4.091   1.624
 3504WAT     H110723   3.554   4.184   1.619
 3504WAT     H210724   3.517   4.054   1.687
 3505WAT      O10725   0.385   0.749   5.116
 3505WAT     H110726   0.409   0.731   5.025
 3505WAT     H210727   0.466   0.736   5.165
 3506WAT      O10728   2.799   3.081   3.294
 3506WAT     H110729   2.817   3.171   3.321
 3506WAT     H210730   2.783   3.087   3.200
 3507WAT      O10731   2.249   0.059   1.376
 3507WAT     H110732   2.341   0.046   1.400
 3507WAT     H210733   2.252   0.087   1.285
 3508WAT      O10734   1.430   1.910   2.845
 3508WAT     H110735   1.462   1.856   2.916
 3508WAT     H210736   1.484   1.989   2.848
 3509WAT      O10737   2.033   1.642   0.680
 3509WAT     H110738   1.938   1.652   0.689
 3509WAT     H210739   2.045   1.588   0.603
 3510WAT      O10740   3.058   2.414   3.515
 3510WAT     H110741   2.991   2.379   3.573
 3510WAT     H210742   3.054   2.509   3.528
 3511WAT      O10743   1.108   4.374   3.211
 3511WAT     H110744   1.112   4.435   3.137
 3511WAT     H210745   1.072   4.294   3.173
 3512WAT      O10746   4.474   1.900   3.002
 3512WAT     H110747   4.463   1.867   2.912
 3512WAT     H210748   4.414   1.846   3.054
 3513WAT      O10749   2.892   2.363   0.875
 3513WAT     H110750   2.852   2.304   0.939
 3513WAT     H210751   2.985   2.340   0.876
 3514WAT      O10752   2.626   1.473   2.201
 3514WAT     H110753   2.634   1.408   2.131
 3514WAT     H210754   2.596   1.553   2.158
 3515WAT      O10755   0.282   0.884   0.628
 3515WAT     H110756   0.226   0.833   0.569
 3515WAT     H210757   0.371   0.872   0.593
 3516WAT      O10758   3.141   3.838   1.928
 3516WAT     H110759   3.077   3.891   1.880
 3516WAT     H210760   3.161   3.766   1.869
 3517WAT      O10761   2.047   1.526   1.082
 3517WAT     H110762   2.068   1.434   1.063
 3517WAT     H210763   1.957   1.523   1.114
 3518WAT      O10764   3.069   0.443   1.281
 3518WAT     H110765   3.042   0.351   1.288
 3518WAT     H210766   3.075   0.457   1.186
 3519WAT      O10767   4.274   1.911   4.991
 3519WAT     H110768   4.255   1.896   4.898
 3519WAT     H210769   4.197   1.877   5.037
 3520WAT      O10770   0.021   3.960   2.199
 3520WAT     H110771   0.063   3.882   2.234
 3520WAT     H210772  -0.066   3.961   2.239
 3521WAT      O10773   3.477   3.454   3.497
 3521WAT     H110774   3.489   3.406   3.416
 3521WAT     H210775   3.531   3.533   3.487
 3522WAT      O10776   2.897   1.023   2.052
 3522WAT     H110777   2.927   0.981   2.133
 3522WAT     H210778   2.902   0.954   1.986
 3523WAT      O10779   3.889   1.922   1.292
 3523WAT     H110780   3.949   1.921   1.217
 3523WAT     H210781   3.895   1.833   1.328
 3524WAT      O10782   3.522   2.863   2.531
 3524WAT     H110783   3.524   2.952   2.565
 3524WAT     H210784   3.439   2.827   2.561
 3525WAT      O10785   0.597   4.254   5.146
 3525WAT     H110786   0.596   4.289   5.057
 3525WAT     H210787   0.535   4.182   5.145
 3526WAT      O10788   2.962   1.359   0.506
 3526WAT     H110789   2.949   1.276   0.550
 3526WAT     H210790   3.049   1.352   0.466
 3527WAT      O10791   0.484   1.898   1.619
 3527WAT     H110792   0.446   1.827   1.567
 3527WAT     H210793   0.412   1.958   1.636
 3528WAT      O10794   4.132   2.687   2.993
 3528WAT     H110795   4.037   2.675   2.980
 3528WAT     H210796   4.172   2.620   2.938
 3529WAT      O10797   0.084   2.783   0.805
 3529WAT     H110798   0.138   2.860   0.820
 3529WAT     H210799   0.148   2.714   0.784
 3530WAT      O10800   3.244   2.432   0.971
 3530WAT     H110801   3.270   2.471   1.055
 3530WAT     H210802   3.251   2.504   0.909
 3531WAT      O10803   1.297   4.716   1.270
 3531WAT     H110804   1.370   4.671   1.226
 3531WAT     H210805   1.218   4.677   1.233
 3532WAT      O10806   1.126   4.540   5.228
 3532WAT     H110807   1.113   4.504   5.141
 3532WAT     H210808   1.067   4.489   5.284
 3533WAT      O10809   3.598   0.578   5.208
 3533WAT     H110810   3.680   0.545   5.172
 3533WAT     H210811   3.585   0.662   5.164
 3534WAT      O10812   1.655   1.109   3.312
 3534WAT     H110813   1.715   1.171   3.271
 3534WAT     H210814   1.695   1.089   3.396
 3535WAT      O10815   1.493   3.281   0.775
 3535WAT     H110816   1.473   3.246   0.861
 3535WAT     H210817   1.499   3.376   0.789
 3536WAT      O10818   4.415   1.391   3.305
 3536WAT     H110819   4.342   1.430   3.354
 3536WAT     H210820   4.478   1.365   3.372
 3537WAT      O10821   4.525   4.824   2.723
 3537WAT     H110822   4.556   4.764   2.791
 3537WAT     H210823   4.442   4.787   2.695
 3538WAT      O10824   3.395   2.325   1.683
 3538WAT     H110825   3.426   2.321   1.774
 3538WAT     H210826   3.465   2.286   1.632
 3539WAT      O10827   0.483   2.214   3.476
 3539WAT     H110828   0.488   2.305   3.504
 3539WAT     H210829   0.411   2.213   3.413
 3540WAT      O10830   0.713   0.170   5.278
 3540WAT     H110831   0.759   0.170   5.194
 3540WAT     H210832   0.777   0.134   5.340
 3541WAT      O10833   3.415   3.206   2.246
 3541WAT     H110834   3.421   3.163   2.161
 3541WAT     H210835   3.413   3.300   2.225
 3542WAT      O10836   0.902   1.987   0.164
 3542WAT     H110837   0.888   2.080   0.150
 3542WAT     H210838   0.813   1.948   0.164
 3543WAT      O10839   0.724   4.173   4.093
 3543WAT     H110840   0.669   4.230   4.147
 3543WAT     H210841   0.667   4.147   4.020
 3544WAT      O10842   1.140   3.421   2.334
 3544WAT     H110843   1.209   3.482   2.358
 3544WAT     H210844   1.061   3.475   2.327
 3545WAT      O10845   0.949   2.775   0.766
 3545WAT     H110846   0.961   2.864   0.800
 3545WAT     H210847   0.969   2.718   0.841
 3546WAT      O10848   3.974   3.989   2.989
 3546WAT     H110849   3.953   3.928   2.919
 3546WAT     H210850   4.006   3.934   3.060
 3547WAT      O10851   2.019   1.820   5.139
 3547WAT     H110852   1.998   1.766   5.215
 3547WAT     H210853   2.114   1.825   5.138
 3548WAT      O10854   4.518   3.063   2.875
 3548WAT     H110855   4.468   2.996   2.829
 3548WAT     H210856   4.536   3.130   2.808
 3549WAT      O10857   0.385   2.913   3.635
 3549WAT     H110858   0.296   2.928   3.603
 3549WAT     H210859   0.431   2.876   3.559
 3550WAT      O10860   3.436   3.997   3.596
 3550WAT     H110861   3.412   4.049   3.673
 3550WAT     H210862   3.502   3.936   3.628
 3551WAT      O10863   1.989   0.139   2.320
 3551WAT     H110864   2.051   0.135   2.393
 3551WAT     H210865   1.958   0.049   2.310
 3552WAT      O10866   4.223   2.708   4.367
 3552WAT     H110867   4.199   2.618   4.346
 3552WAT     H210868   4.241   2.748   4.282
 3553WAT      O10869   1.694   2.580   4.030
 3553WAT     H110870   1.696   2.614   4.120
 3553WAT     H210871   1.684   2.485   4.042
 3554WAT      O10872   2.540   0.461   2.122
 3554WAT     H110873   2.586   0.383   2.156
 3554WAT     H210874   2.579   0.476   2.036
 3555WAT      O10875   0.580   2.496   2.466
 3555WAT     H110876   0.628   2.535   2.539
 3555WAT     H210877   0.537   2.418   2.504
 3556WAT      O10878   0.645   3.766   2.333
 3556WAT     H110879   0.579   3.698   2.340
 3556WAT     H210880   0.599   3.847   2.358
 3557WAT      O10881   0.274   0.382   4.726
 3557WAT     H110882   0.289   0.304   4.780
 3557WAT     H210883   0.250   0.346   4.640
 3558WAT      O10884   3.171   2.454   0.098
 3558WAT     H110885   3.152   2.547   0.111
 3558WAT     H210886   3.143   2.436   0.008
 3559WAT      O10887   2.304   2.976   1.212
 3559WAT     H110888   2.289   2.883   1.226
 3559WAT     H210889   2.261   2.995   1.129
 3560WAT      O10890   0.067   0.083   4.241
 3560WAT     H110891  -0.013   0.031   4.228
 3560WAT     H210892   0.132   0.019   4.270
 3561WAT      O10893   2.972   1.773   2.028
 3561WAT     H110894   3.068   1.772   2.038
 3561WAT     H210895   2.940   1.733   2.109
 3562WAT      O10896   0.070   1.836   2.589
 3562WAT     H110897   0.139   1.819   2.653
 3562WAT     H210898  -0.011   1.838   2.641
 3563WAT      O10899   3.062   3.423   1.819
 3563WAT     H110900   3.138   3.423   1.877
 3563WAT     H210901   3.031   3.333   1.819
 3564WAT      O10902   0.843   1.989   3.157
 3564WAT     H110903   0.820   1.925   3.226
 3564WAT     H210904   0.901   1.940   3.099
 3565WAT      O10905   0.526   5.118   5.202
 3565WAT     H110906   0.568   5.096   5.120
 3565WAT     H210907   0.581   5.185   5.241
 3566WAT      O10908   4.290   2.516   0.423
 3566WAT     H110909   4.318   2.533   0.512
 3566WAT     H210910   4.249   2.429   0.427
 3567WAT      O10911   0.433   4.055   0.189
 3567WAT     H110912   0.412   4.146   0.169
 3567WAT     H210913   0.519   4.059   0.230
 3568WAT      O10914   4.239   4.491   1.147
 3568WAT     H110915   4.254   4.570   1.096
 3568WAT     H210916   4.185   4.435   1.091
 3569WAT      O10917   1.984   0.647   0.986
 3569WAT     H110918   2.004   0.555   1.002
 3569WAT     H210919   1.895   0.647   0.951
 3570WAT      O10920   1.741   3.392   4.447
 3570WAT     H110921   1.811   3.338   4.411
 3570WAT     H210922   1.674   3.330   4.474
 3571WAT      O10923   3.166   2.661   0.423
 3571WAT     H110924   3.259   2.684   0.432
 3571WAT     H210925   3.147   2.676   0.331
 3572WAT      O10926   2.592   0.047   1.200
 3572WAT     H110927   2.517  -0.008   1.177
 3572WAT     H210928   2.559   0.137   1.189
 3573WAT      O10929   0.577   3.971   0.506
 3573WAT     H110930   0.603   3.896   0.453
 3573WAT     H210931   0.492   3.947   0.542
 3574WAT      O10932   2.367   4.542   2.702
 3574WAT     H110933   2.429   4.599   2.747
 3574WAT     H210934   2.415   4.511   2.625
 3575WAT      O10935   2.193   3.179   4.289
 3575WAT     H110936   2.215   3.098   4.243
 3575WAT     H210937   2.106   3.163   4.325
 3576WAT      O10938   2.126   2.753   4.026
 3576WAT     H110939   2.113   2.659   4.011
 3576WAT     H210940   2.115   2.764   4.120
 3577WAT      O10941   1.924   2.814   5.285
 3577WAT     H110942   1.988   2.878   5.255
 3577WAT     H210943   1.966   2.771   5.360
 3578WAT      O10944   4.454   1.234   3.971
 3578WAT     H110945   4.532   1.190   4.005
 3578WAT     H210946   4.417   1.280   4.047
 3579WAT      O10947   4.227   4.886   2.970
 3579WAT     H110948   4.307   4.933   2.991
 3579WAT     H210949   4.176   4.887   3.051
 3580WAT      O10950   0.991   3.645   1.857
 3580WAT     H110951   1.024   3.574   1.803
 3580WAT     H210952   1.019   3.725   1.811
 3581WAT      O10953   0.852   0.885   4.747
 3581WAT     H110954   0.804   0.803   4.745
 3581WAT     H210955   0.868   0.901   4.840
 3582WAT      O10956   0.283   4.853   3.903
 3582WAT     H110957   0.300   4.935   3.950
 3582WAT     H210958   0.216   4.809   3.955
 3583WAT      O10959   3.496   2.040   2.304
 3583WAT     H110960   3.483   2.038   2.209
 3583WAT     H210961   3.451   1.961   2.336
 3584WAT      O10962   1.064   0.176   2.959
 3584WAT     H110963   0.985   0.156   3.009
 3584WAT     H210964   1.111   0.240   3.013
 3585WAT      O10965   3.338   1.902   0.027
 3585WAT     H110966   3.383   1.952  -0.042
 3585WAT     H210967   3.368   1.812   0.015
 3586WAT      O10968   3.148   4.203   2.483
 3586WAT     H110969   3.131   4.293   2.511
 3586WAT     H210970   3.217   4.172   2.542
 3587WAT      O10971   1.047   2.624   0.386
 3587WAT     H110972   1.037   2.529   0.397
 3587WAT     H210973   1.131   2.644   0.427
 3588WAT      O10974   4.051   3.810   3.200
 3588WAT     H110975   4.102   3.737   3.235
 3588WAT     H210976   3.971   3.811   3.253
 3589WAT      O10977   3.051   3.383   4.354
 3589WAT     H110978   3.094   3.458   4.395
 3589WAT     H210979   3.120   3.317   4.347
 3590WAT      O10980   3.413   1.109   3.916
 3590WAT     H110981   3.416   1.154   3.832
 3590WAT     H210982   3.320   1.106   3.938
 3591WAT      O10983   0.787   4.150   0.014
 3591WAT     H110984   0.842   4.122  -0.059
 3591WAT     H210985   0.720   4.205  -0.026
 3592WAT      O10986   3.794   1.869   0.190
 3592WAT     H110987   3.861   1.910   0.135
 3592WAT     H210988   3.731   1.940   0.207
 3593WAT      O10989   2.236   5.037   2.299
 3593WAT     H110990   2.160   4.991   2.333
 3593WAT     H210991   2.278   5.075   2.376
 3594WAT      O10992   0.263   5.107   3.205
 3594WAT     H110993   0.284   5.016   3.222
 3594WAT     H210994   0.297   5.154   3.281
 3595WAT      O10995   0.204   2.963   4.097
 3595WAT     H110996   0.175   2.935   4.010
 3595WAT     H210997   0.132   2.939   4.155
 3596WAT      O10998   1.374   2.285   2.742
 3596WAT     H110999   1.442   2.232   2.783
 3596WAT     H211000   1.292   2.239   2.765
 3597WAT      O11001   0.844   4.285   4.593
 3597WAT     H111002   0.849   4.313   4.684
 3597WAT     H211003   0.751   4.290   4.571
 3598WAT      O11004   1.667   1.601   3.890
 3598WAT     H111005   1.689   1.523   3.838
 3598WAT     H211006   1.666   1.672   3.826
 3599WAT      O11007   3.397   4.234   2.294
 3599WAT     H111008   3.416   4.328   2.288
 3599WAT     H211009   3.301   4.229   2.293
 3600WAT      O11010   1.881   2.943   2.290
 3600WAT     H111011   1.825   2.921   2.215
 3600WAT     H211012   1.968   2.952   2.252
 3601WAT      O11013   1.257   0.231   1.828
 3601WAT     H111014   1.250   0.171   1.903
 3601WAT     H211015   1.227   0.179   1.753
 3602WAT      O11016   0.344   3.634   2.288
 3602WAT     H111017   0.255   3.608   2.263
 3602WAT     H211018   0.333   3.720   2.329
 3603WAT      O11019   1.441   0.308   4.889
 3603WAT     H111020   1.391   0.351   4.958
 3603WAT     H211021   1.423   0.359   4.810
 3604WAT      O11022   1.880   0.172   4.936
 3604WAT     H111023   1.880   0.093   4.882
 3604WAT     H211024   1.970   0.178   4.969
 3605WAT      O11025   4.053   2.977   3.836
 3605WAT     H111026   4.136   2.929   3.838
 3605WAT     H211027   4.037   2.993   3.743
 3606WAT      O11028   2.011   2.574   1.664
 3606WAT     H111029   1.941   2.633   1.694
 3606WAT     H211030   1.976   2.536   1.583
 3607WAT      O11031   1.402   3.248   2.051
 3607WAT     H111032   1.454   3.214   2.123
 3607WAT     H211033   1.414   3.187   1.980
 3608WAT      O11034   1.342   4.895   3.304
 3608WAT     H111035   1.424   4.882   3.352
 3608WAT     H211036   1.353   4.845   3.223
 3609WAT      O11037   0.973   4.340   2.787
 3609WAT     H111038   1.068   4.326   2.783
 3609WAT     H211039   0.963   4.435   2.780
 3610WAT      O11040   2.190   3.563   4.878
 3610WAT     H111041   2.269   3.613   4.898
 3610WAT     H211042   2.133   3.576   4.954
 3611WAT      O11043   1.671   4.831   0.181
 3611WAT     H111044   1.754   4.854   0.223
 3611WAT     H211045   1.695   4.812   0.091
 3612WAT      O11046   0.880   0.207   1.001
 3612WAT     H111047   0.799   0.157   1.014
 3612WAT     H211048   0.850   0.298   0.986
 3613WAT      O11049   1.362   4.478   4.428
 3613WAT     H111050   1.267   4.472   4.437
 3613WAT     H211051   1.384   4.566   4.459
 3614WAT      O11052   2.730   2.845   4.621
 3614WAT     H111053   2.677   2.846   4.541
 3614WAT     H211054   2.666   2.849   4.692
 3615WAT      O11055   3.098   1.017   0.033
 3615WAT     H111056   3.065   1.106   0.028
 3615WAT     H211057   3.155   1.016   0.109
 3616WAT      O11058   0.097   4.259   2.989
 3616WAT     H111059   0.029   4.195   2.967
 3616WAT     H211060   0.053   4.323   3.044
 3617WAT      O11061   0.813   4.752   2.596
 3617WAT     H111062   0.784   4.825   2.542
 3617WAT     H211063   0.733   4.702   2.615
 3618WAT      O11064   0.111   0.578   1.089
 3618WAT     H111065   0.075   0.607   1.173
 3618WAT     H211066   0.071   0.637   1.025
 3619WAT      O11067   0.539   4.190   4.814
 3619WAT     H111068   0.469   4.215   4.874
 3619WAT     H211069   0.522   4.098   4.795
 3620WAT      O11070   2.493   4.263   0.139
 3620WAT     H111071   2.508   4.219   0.056
 3620WAT     H211072   2.530   4.351   0.127
 3621WAT      O11073   3.235   3.893   0.526
 3621WAT     H111074   3.248   3.833   0.600
 3621WAT     H211075   3.156   3.861   0.483
 3622WAT      O11076   4.285   2.982   1.954
 3622WAT     H111077   4.211   3.024   1.910
 3622WAT     H211078   4.245   2.933   2.026
 3623WAT      O11079   0.881   1.494   2.553
 3623WAT     H111080   0.901   1.527   2.640
 3623WAT     H211081   0.947   1.427   2.536
 3624WAT      O11082   2.547   1.753   3.545
 3624WAT     H111083   2.609   1.784   3.479
 3624WAT     H211084   2.512   1.672   3.509
 3625WAT      O11085   1.134   3.435   1.041
 3625WAT     H111086   1.129   3.531   1.039
 3625WAT     H211087   1.059   3.406   0.989
 3626WAT      O11088   2.616   1.203   1.555
 3626WAT     H111089   2.619   1.254   1.635
 3626WAT     H211090   2.622   1.267   1.485
 3627WAT      O11091   3.785   0.469   0.734
 3627WAT     H111092   3.783   0.385   0.687
 3627WAT     H211093   3.798   0.535   0.665
 3628WAT      O11094   0.558   0.953   0.812
 3628WAT     H111095   0.517   0.881   0.860
 3628WAT     H211096   0.549   0.928   0.720
 3629WAT      O11097   0.212   4.043   3.303
 3629WAT     H111098   0.249   4.099   3.371
 3629WAT     H211099   0.218   3.954   3.339
 3630WAT      O11100   3.745   3.955   4.345
 3630WAT     H111101   3.677   3.999   4.294
 3630WAT     H211102   3.702   3.930   4.427
 3631WAT      O11103   3.307   2.821   4.007
 3631WAT     H111104   3.305   2.912   4.036
 3631WAT     H211105   3.218   2.789   4.020
 3632WAT      O11106   0.539   2.233   0.208
 3632WAT     H111107   0.592   2.313   0.217
 3632WAT     H211108   0.469   2.244   0.272
 3633WAT      O11109   0.333   0.105   3.442
 3633WAT     H111110   0.423   0.074   3.442
 3633WAT     H211111   0.303   0.091   3.532
 3634WAT      O11112   4.491   4.579   2.063
 3634WAT     H111113   4.531   4.535   2.137
 3634WAT     H211114   4.534   4.665   2.061
 3635WAT      O11115   0.318   4.751   1.643
 3635WAT     H111116   0.254   4.776   1.576
 3635WAT     H211117   0.351   4.666   1.613
 3636WAT      O11118   2.099   3.936   2.153
 3636WAT     H111119   2.062   3.857   2.114
 3636WAT     H211120   2.091   4.002   2.085
 3637WAT      O11121   1.690   2.779   3.865
 3637WAT     H111122   1.685   2.704   3.923
 3637WAT     H211123   1.613   2.770   3.808
 3638WAT      O11124   0.953   1.274   1.863
 3638WAT     H111125   0.952   1.237   1.774
 3638WAT     H211126   0.862   1.273   1.890
 3639WAT      O11127   4.019   1.750   2.303
 3639WAT     H111128   4.091   1.777   2.246
 3639WAT     H211129   4.003   1.825   2.360
 3640WAT      O11130   1.512   4.023   3.376
 3640WAT     H111131   1.497   4.012   3.470
 3640WAT     H211132   1.452   4.093   3.350
 3641WAT      O11133   4.441   2.657   4.527
 3641WAT     H111134   4.396   2.723   4.474
 3641WAT     H211135   4.371   2.615   4.577
 3642WAT      O11136   2.502   3.895   3.736
 3642WAT     H111137   2.583   3.848   3.754
 3642WAT     H211138   2.516   3.982   3.775
 3643WAT      O11139   2.213   4.571   1.258
 3643WAT     H111140   2.197   4.480   1.283
 3643WAT     H211141   2.282   4.566   1.192
 3644WAT      O11142   3.880   1.215   2.891
 3644WAT     H111143   3.838   1.138   2.931
 3644WAT     H211144   3.879   1.195   2.797
 3645WAT      O11145   3.303   0.614   2.420
 3645WAT     H111146   3.226   0.665   2.447
 3645WAT     H211147   3.353   0.601   2.500
 3646WAT      O11148   2.777   4.232   4.744
 3646WAT     H111149   2.774   4.305   4.806
 3646WAT     H211150   2.686   4.203   4.736
 3647WAT      O11151   2.600   0.331   3.851
 3647WAT     H111152   2.683   0.314   3.896
 3647WAT     H211153   2.565   0.244   3.834
 3648WAT      O11154   2.474   4.290   1.794
 3648WAT     H111155   2.502   4.334   1.874
 3648WAT     H211156   2.515   4.203   1.798
 3649WAT      O11157   4.501   0.184   5.004
 3649WAT     H111158   4.476   0.097   5.035
 3649WAT     H211159   4.449   0.244   5.057
 3650WAT      O11160   1.905   2.040   0.737
 3650WAT     H111161   1.851   2.084   0.671
 3650WAT     H211162   1.859   2.054   0.819
 3651WAT      O11163   1.383   2.559   4.216
 3651WAT     H111164   1.388   2.499   4.290
 3651WAT     H211165   1.390   2.646   4.256
 3652WAT      O11166   1.914   3.200   4.312
 3652WAT     H111167   1.959   3.268   4.262
 3652WAT     H211168   1.828   3.194   4.270
 3653WAT      O11169   0.779   3.444   1.604
 3653WAT     H111170   0.799   3.479   1.518
 3653WAT     H211171   0.864   3.415   1.639
 3654WAT      O11172   0.406   4.723   0.297
 3654WAT     H111173   0.406   4.809   0.338
 3654WAT     H211174   0.485   4.680   0.331
 3655WAT      O11175   1.112   2.185   2.789
 3655WAT     H111176   1.077   2.263   2.831
 3655WAT     H211177   1.035   2.143   2.750
 3656WAT      O11178   2.974   2.928   3.093
 3656WAT     H111179   3.059   2.972   3.085
 3656WAT     H211180   2.912   2.987   3.050
 3657WAT      O11181   2.660   0.126   0.745
 3657WAT     H111182   2.704   0.067   0.683
 3657WAT     H211183   2.728   0.190   0.768
 3658WAT      O11184   3.150   4.923   1.434
 3658WAT     H111185   3.106   4.936   1.351
 3658WAT     H211186   3.186   5.009   1.457
 3659WAT      O11187   4.374   3.514   0.787
 3659WAT     H111188   4.332   3.464   0.716
 3659WAT     H211189   4.316   3.588   0.802
 3660WAT      O11190   3.719   3.155   0.566
 3660WAT     H111191   3.719   3.063   0.593
 3660WAT     H211192   3.794   3.194   0.609
 3661WAT      O11193   1.221   4.621   1.955
 3661WAT     H111194   1.222   4.706   1.999
 3661WAT     H211195   1.217   4.643   1.862
 3662WAT      O11196   0.386   2.938   2.706
 3662WAT     H111197   0.358   2.928   2.616
 3662WAT     H211198   0.373   3.031   2.725
 3663WAT      O11199   2.813   4.341   4.206
 3663WAT     H111200   2.863   4.303   4.134
 3663WAT     H211201   2.797   4.267   4.266
 3664WAT      O11202   0.987   3.198   1.889
 3664WAT     H111203   0.995   3.263   1.819
 3664WAT     H211204   1.045   3.230   1.958
 3665WAT      O11205   3.728   3.090   1.511
 3665WAT     H111206   3.704   3.140   1.589
 3665WAT     H211207   3.792   3.027   1.543
 3666WAT      O11208   3.011   1.800   3.814
 3666WAT     H111209   2.922   1.771   3.793
 3666WAT     H211210   3.000   1.892   3.840
 3667WAT      O11211   1.778   4.346   3.351
 3667WAT     H111212   1.683   4.355   3.357
 3667WAT     H211213   1.811   4.397   3.425
 3668WAT      O11214   1.529   4.527   5.174
 3668WAT     H111215   1.501   4.436   5.165
 3668WAT     H211216   1.476   4.561   5.246
 3669WAT      O11217   1.093   4.424   3.497
 3669WAT     H111218   1.095   4.418   3.401
 3669WAT     H211219   1.147   4.501   3.517
 3670WAT      O11220   0.497   1.408   3.670
 3670WAT     H111221   0.485   1.490   3.621
 3670WAT     H211222   0.485   1.340   3.604
 3671WAT      O11223   4.248   2.767   2.156
 3671WAT     H111224   4.340   2.740   2.156
 3671WAT     H211225   4.200   2.686   2.172
 3672WAT      O11226   1.548   4.195   3.044
 3672WAT     H111227   1.494   4.273   3.053
 3672WAT     H211228   1.488   4.122   3.061
 3673WAT      O11229   1.604   2.598   1.122
 3673WAT     H111230   1.696   2.579   1.099
 3673WAT     H211231   1.561   2.512   1.118
 3674WAT      O11232   4.061   1.527   1.157
 3674WAT     H111233   4.033   1.604   1.107
 3674WAT     H211234   4.154   1.517   1.136
 3675WAT      O11235   1.369   0.879   1.600
 3675WAT     H111236   1.303   0.894   1.668
 3675WAT     H211237   1.324   0.826   1.534
 3676WAT      O11238   4.187   3.748   5.152
 3676WAT     H111239   4.269   3.700   5.166
 3676WAT     H211240   4.214   3.839   5.145
 3677WAT      O11241   2.990   3.843   1.211
 3677WAT     H111242   2.903   3.808   1.193
 3677WAT     H211243   3.050   3.783   1.166
 3678WAT      O11244   0.246   1.279   0.995
 3678WAT     H111245   0.316   1.287   1.060
 3678WAT     H211246   0.216   1.368   0.979
 3679WAT      O11247   1.608   1.638   4.973
 3679WAT     H111248   1.661   1.575   5.021
 3679WAT     H211249   1.519   1.623   5.004
 3680WAT      O11250   2.650   0.917   3.130
 3680WAT     H111251   2.590   0.945   3.062
 3680WAT     H211252   2.657   0.821   3.116
 3681WAT      O11253   1.454   1.011   3.765
 3681WAT     H111254   1.457   0.919   3.739
 3681WAT     H211255   1.422   1.010   3.856
 3682WAT      O11256   2.855   0.683   1.088
 3682WAT     H111257   2.921   0.619   1.064
 3682WAT     H211258   2.893   0.732   1.162
 3683WAT      O11259   2.838   2.358   0.228
 3683WAT     H111260   2.776   2.287   0.244
 3683WAT     H211261   2.901   2.322   0.165
 3684WAT      O11262   2.268   2.544   1.745
 3684WAT     H111263   2.175   2.547   1.722
 3684WAT     H211264   2.314   2.572   1.666
 3685WAT      O11265   3.865   0.522   4.495
 3685WAT     H111266   3.784   0.474   4.512
 3685WAT     H211267   3.868   0.533   4.400
 3686WAT      O11268   1.646   4.163   0.620
 3686WAT     H111269   1.724   4.208   0.586
 3686WAT     H211270   1.602   4.129   0.542
 3687WAT      O11271   0.601   1.933   1.031
 3687WAT     H111272   0.506   1.923   1.025
 3687WAT     H211273   0.633   1.845   1.051
 3688WAT      O11274   0.961   5.000   4.268
 3688WAT     H111275   0.975   5.094   4.273
 3688WAT     H211276   1.037   4.962   4.313
 3689WAT      O11277   4.237   2.344   1.738
 3689WAT     H111278   4.183   2.327   1.816
 3689WAT     H211279   4.266   2.434   1.748
 3690WAT      O11280   0.615   0.721   3.738
 3690WAT     H111281   0.533   0.757   3.702
 3690WAT     H211282   0.623   0.762   3.825
 3691WAT      O11283   0.612   2.513   0.888
 3691WAT     H111284   0.637   2.580   0.952
 3691WAT     H211285   0.531   2.477   0.922
 3692WAT      O11286   4.305   0.469   0.564
 3692WAT     H111287   4.291   0.402   0.498
 3692WAT     H211288   4.217   0.497   0.590
 3693WAT      O11289   0.402   0.553   2.131
 3693WAT     H111290   0.453   0.476   2.153
 3693WAT     H211291   0.315   0.520   2.110
 3694WAT      O11292   2.486   1.764   0.711
 3694WAT     H111293   2.480   1.671   0.686
 3694WAT     H211294   2.537   1.803   0.641
 3695WAT      O11295   0.621   2.409   3.760
 3695WAT     H111296   0.643   2.316   3.748
 3695WAT     H211297   0.571   2.431   3.681
 3696WAT      O11298   4.392   0.522   3.928
 3696WAT     H111299   4.436   0.520   3.843
 3696WAT     H211300   4.301   0.502   3.908
 3697WAT      O11301   3.136   1.704   4.026
 3697WAT     H111302   3.090   1.716   3.943
 3697WAT     H211303   3.092   1.764   4.087
 3698WAT      O11304   0.390   0.070   1.442
 3698WAT     H111305   0.470   0.117   1.464
 3698WAT     H211306   0.326   0.139   1.422
 3699WAT      O11307   2.371   5.000   0.730
 3699WAT     H111308   2.363   4.906   0.740
 3699WAT     H211309   2.464   5.018   0.745
 3700WAT      O11310   0.833   1.273   2.976
 3700WAT     H111311   0.777   1.237   2.907
 3700WAT     H211312   0.917   1.287   2.932
 3701WAT      O11313   1.887   3.854   4.584
 3701WAT     H111314   1.804   3.880   4.544
 3701WAT     H211315   1.863   3.793   4.653
 3702WAT      O11316   1.713   4.988   4.060
 3702WAT     H111317   1.695   4.894   4.072
 3702WAT     H211318   1.753   5.014   4.143
 3703WAT      O11319   2.894   5.075   2.895
 3703WAT     H111320   2.852   5.141   2.839
 3703WAT     H211321   2.823   5.036   2.944
 3704WAT      O11322   4.379   2.171   3.687
 3704WAT     H111323   4.470   2.142   3.682
 3704WAT     H211324   4.359   2.174   3.780
 3705WAT      O11325   4.498   3.365   3.346
 3705WAT     H111326   4.458   3.340   3.263
 3705WAT     H211327   4.560   3.435   3.323
 3706WAT      O11328   0.752   2.741   3.637
 3706WAT     H111329   0.814   2.695   3.580
 3706WAT     H211330   0.733   2.822   3.590
 3707WAT      O11331   3.506   4.618   3.761
 3707WAT     H111332   3.481   4.676   3.689
 3707WAT     H211333   3.601   4.626   3.767
 3708WAT      O11334   2.292   1.182   0.052
 3708WAT     H111335   2.320   1.121  -0.016
 3708WAT     H211336   2.372   1.227   0.079
 3709WAT      O11337   4.423   4.056   2.521
 3709WAT     H111338   4.479   4.134   2.517
 3709WAT     H211339   4.359   4.069   2.452
 3710WAT      O11340   1.989   2.190   4.079
 3710WAT     H111341   1.901   2.172   4.110
 3710WAT     H211342   2.007   2.280   4.107
 3711WAT      O11343   3.553   0.801   4.503
 3711WAT     H111344   3.543   0.721   4.449
 3711WAT     H211345   3.492   0.863   4.465
 3712WAT      O11346   3.830   3.771   3.356
 3712WAT     H111347   3.739   3.799   3.344
 3712WAT     H211348   3.862   3.826   3.428
 3713WAT      O11349   1.862   0.212   2.088
 3713WAT     H111350   1.912   0.183   2.012
 3713WAT     H211351   1.898   0.162   2.161
 3714WAT      O11352   3.409   3.706   5.194
 3714WAT     H111353   3.420   3.651   5.272
 3714WAT     H211354   3.459   3.661   5.126
 3715WAT      O11355   4.110   0.622   2.324
 3715WAT     H111356   4.169   0.546   2.316
 3715WAT     H211357   4.065   0.607   2.408
 3716WAT      O11358   0.258   0.944   4.543
 3716WAT     H111359   0.166   0.927   4.564
 3716WAT     H211360   0.295   0.980   4.624
 3717WAT      O11361   0.301   3.997   4.817
 3717WAT     H111362   0.323   3.925   4.876
 3717WAT     H211363   0.357   3.982   4.740
 3718WAT      O11364   1.506   0.334   2.814
 3718WAT     H111365   1.489   0.273   2.742
 3718WAT     H211366   1.544   0.280   2.883
 3719WAT      O11367   4.247   3.298   0.211
 3719WAT     H111368   4.223   3.239   0.139
 3719WAT     H211369   4.267   3.381   0.167
 3720WAT      O11370   1.031   0.548   1.144
 3720WAT     H111371   1.079   0.471   1.170
 3720WAT     H211372   0.982   0.522   1.066
 3721WAT      O11373   4.021   4.573   1.544
 3721WAT     H111374   4.060   4.504   1.490
 3721WAT     H211375   4.061   4.654   1.512
 3722WAT      O11376   1.149   0.179   4.794
 3722WAT     H111377   1.216   0.133   4.843
 3722WAT     H211378   1.196   0.218   4.720
 3723WAT      O11379   0.580   4.293   4.581
 3723WAT     H111380   0.578   4.388   4.591
 3723WAT     H211381   0.546   4.260   4.664
 3724WAT      O11382   3.834   0.986   1.196
 3724WAT     H111383   3.761   1.043   1.169
 3724WAT     H211384   3.892   1.044   1.245
 3725WAT      O11385   2.978   4.258   3.806
 3725WAT     H111386   3.000   4.166   3.792
 3725WAT     H211387   3.011   4.303   3.728
 3726WAT      O11388   3.092   2.043   4.991
 3726WAT     H111389   3.156   2.108   5.020
 3726WAT     H211390   3.069   2.070   4.902
 3727WAT      O11391   2.051   1.477   5.200
 3727WAT     H111392   2.126   1.534   5.215
 3727WAT     H211393   2.057   1.453   5.107
 3728WAT      O11394   1.777   0.609   2.566
 3728WAT     H111395   1.820   0.550   2.504
 3728WAT     H211396   1.686   0.581   2.568
 3729WAT      O11397   2.253   1.059   4.873
 3729WAT     H111398   2.225   1.132   4.816
 3729WAT     H211399   2.203   1.072   4.953
 3730WAT      O11400   2.921   2.546   4.047
 3730WAT     H111401   2.926   2.640   4.028
 3730WAT     H211402   2.836   2.519   4.012
 3731WAT      O11403   3.761   2.775   0.885
 3731WAT     H111404   3.711   2.855   0.867
 3731WAT     H211405   3.837   2.780   0.827
 3732WAT      O11406   0.805   2.825   4.477
 3732WAT     H111407   0.725   2.870   4.505
 3732WAT     H211408   0.774   2.739   4.446
 3733WAT      O11409   1.837   1.045   2.757
 3733WAT     H111410   1.920   1.004   2.731
 3733WAT     H211411   1.771   0.984   2.723
 3734WAT      O11412   0.420   0.089   4.506
 3734WAT     H111413   0.327   0.075   4.524
 3734WAT     H211414   0.460   0.097   4.593
 3735WAT      O11415   2.097   4.685   2.794
 3735WAT     H111416   2.105   4.605   2.846
 3735WAT     H211417   2.157   4.671   2.720
 3736WAT      O11418   4.425   4.832   3.745
 3736WAT     H111419   4.392   4.846   3.834
 3736WAT     H211420   4.457   4.918   3.717
 3737WAT      O11421   1.979   1.577   2.868
 3737WAT     H111422   2.038   1.510   2.832
 3737WAT     H211423   1.900   1.527   2.892
 3738WAT      O11424   1.275   3.900   5.181
 3738WAT     H111425   1.229   3.817   5.192
 3738WAT     H211426   1.267   3.943   5.266
 3739WAT      O11427   2.002   1.007   0.799
 3739WAT     H111428   1.958   1.083   0.760
 3739WAT     H211429   1.986   0.937   0.736
 3740WAT      O11430   0.929   2.880   4.730
 3740WAT     H111431   0.888   2.952   4.777
 3740WAT     H211432   0.877   2.870   4.650
 3741WAT      O11433   3.135   4.414   4.688
 3741WAT     H111434   3.060   4.473   4.692
 3741WAT     H211435   3.159   4.399   4.780
 3742WAT      O11436   3.322   4.569   0.243
 3742WAT     H111437   3.323   4.652   0.196
 3742WAT     H211438   3.255   4.517   0.199
 3743WAT      O11439   3.020   2.837   4.136
 3743WAT     H111440   2.970   2.912   4.104
 3743WAT     H211441   2.966   2.800   4.205
 3744WAT      O11442   2.575   0.924   1.134
 3744WAT     H111443   2.663   0.941   1.164
 3744WAT     H211444   2.554   0.838   1.171
 3745WAT      O11445   1.668   1.241   5.223
 3745WAT     H111446   1.667   1.274   5.312
 3745WAT     H211447   1.705   1.152   5.232
 3746WAT      O11448   2.471   2.601   5.257
 3746WAT     H111449   2.442   2.532   5.197
 3746WAT     H211450   2.475   2.558   5.342
 3747WAT      O11451   2.624   4.679   1.394
 3747WAT     H111452   2.655   4.760   1.436
 3747WAT     H211453   2.625   4.614   1.465
 3748WAT      O11454   1.973   0.189   0.483
 3748WAT     H111455   2.004   0.138   0.558
 3748WAT     H211456   1.925   0.262   0.521
 3749WAT      O11457   0.490   3.162   3.696
 3749WAT     H111458   0.448   3.079   3.673
 3749WAT     H211459   0.417   3.220   3.716
 3750WAT      O11460   3.391   5.042   1.651
 3750WAT     H111461   3.438   5.010   1.575
 3750WAT     H211462   3.332   5.109   1.617
 3751WAT      O11463   2.313   3.878   0.552
 3751WAT     H111464   2.380   3.848   0.491
 3751WAT     H211465   2.248   3.921   0.497
 3752WAT      O11466   4.025   2.610   0.582
 3752WAT     H111467   3.991   2.609   0.493
 3752WAT     H211468   4.115   2.578   0.573
 3753WAT      O11469   0.773   2.272   1.394
 3753WAT     H111470   0.695   2.217   1.402
 3753WAT     H211471   0.846   2.212   1.408
 3754WAT      O11472   3.451   3.428   4.211
 3754WAT     H111473   3.431   3.511   4.255
 3754WAT     H211474   3.505   3.454   4.136
 3755WAT      O11475   2.906   4.940   0.260
 3755WAT     H111476   2.832   4.990   0.226
 3755WAT     H211477   2.919   4.869   0.198
 3756WAT      O11478   3.863   0.354   4.224
 3756WAT     H111479   3.959   0.354   4.221
 3756WAT     H211480   3.838   0.446   4.211
 3757WAT      O11481   3.712   4.314   2.767
 3757WAT     H111482   3.793   4.281   2.808
 3757WAT     H211483   3.642   4.263   2.807
 3758WAT      O11484   1.231   3.679   3.253
 3758WAT     H111485   1.231   3.585   3.239
 3758WAT     H211486   1.322   3.705   3.239
 3759WAT      O11487   0.439   1.803   1.290
 3759WAT     H111488   0.410   1.754   1.214
 3759WAT     H211489   0.493   1.743   1.341
 3760WAT      O11490   3.390   4.825   0.159
 3760WAT     H111491   3.465   4.817   0.100
 3760WAT     H211492   3.336   4.895   0.121
 3761WAT      O11493   3.067   1.261   2.031
 3761WAT     H111494   3.021   1.178   2.045
 3761WAT     H211495   3.035   1.319   2.101
 3762WAT      O11496   2.221   2.431   5.271
 3762WAT     H111497   2.240   2.371   5.343
 3762WAT     H211498   2.175   2.376   5.207
 3763WAT      O11499   1.304   1.841   4.863
 3763WAT     H111500   1.351   1.769   4.821
 3763WAT     H211501   1.239   1.798   4.918
 3764WAT      O11502   0.498   2.858   2.957
 3764WAT     H111503   0.567   2.795   2.938
 3764WAT     H211504   0.455   2.873   2.873
 3765WAT      O11505   1.369   4.555   0.081
 3765WAT     H111506   1.361   4.620   0.151
 3765WAT     H211507   1.279   4.540   0.052
 3766WAT      O11508   1.323   1.947   3.265
 3766WAT     H111509   1.271   1.938   3.345
 3766WAT     H211510   1.261   1.925   3.195
 3767WAT      O11511   0.489   0.905   2.322
 3767WAT     H111512   0.507   0.839   2.388
 3767WAT     H211513   0.475   0.856   2.241
 3768WAT      O11514   3.782   1.352   5.154
 3768WAT     H111515   3.798   1.430   5.207
 3768WAT     H211516   3.870   1.320   5.131
 3769WAT      O11517   3.842   2.340   2.864
 3769WAT     H111518   3.771   2.286   2.898
 3769WAT     H211519   3.901   2.352   2.939
 3770WAT      O11520   2.746   5.046   3.556
 3770WAT     H111521   2.659   5.048   3.516
 3770WAT     H211522   2.741   4.974   3.619
 3771WAT      O11523   2.254   4.015   2.871
 3771WAT     H111524   2.170   4.054   2.895
 3771WAT     H211525   2.231   3.942   2.813
 3772WAT      O11526   0.344   1.532   0.822
 3772WAT     H111527   0.281   1.592   0.782
 3772WAT     H211528   0.414   1.524   0.757
 3773WAT      O11529   0.537   0.464   4.890
 3773WAT     H111530   0.537   0.540   4.832
 3773WAT     H211531   0.459   0.476   4.944
 3774WAT      O11532   3.206   2.181   0.814
 3774WAT     H111533   3.227   2.270   0.842
 3774WAT     H211534   3.228   2.127   0.890
 3775WAT      O11535   4.020   1.254   1.199
 3775WAT     H111536   3.976   1.237   1.282
 3775WAT     H211537   4.016   1.349   1.189
 3776WAT      O11538   3.187   0.994   4.137
 3776WAT     H111539   3.237   0.922   4.176
 3776WAT     H211540   3.168   0.964   4.048
 3777WAT      O11541   2.388   2.692   1.176
 3777WAT     H111542   2.456   2.727   1.234
 3777WAT     H211543   2.422   2.709   1.088
 3778WAT      O11544   2.636   0.663   2.582
 3778WAT     H111545   2.722   0.648   2.544
 3778WAT     H211546   2.575   0.617   2.524
 3779WAT      O11547   0.539   0.839   0.546
 3779WAT     H111548   0.526   0.744   0.539
 3779WAT     H211549   0.613   0.858   0.488
 3780WAT      O11550   1.180   3.993   1.967
 3780WAT     H111551   1.095   4.007   1.925
 3780WAT     H211552   1.158   3.967   2.057
 3781WAT      O11553   1.618   4.302   1.620
 3781WAT     H111554   1.595   4.383   1.666
 3781WAT     H211555   1.546   4.242   1.640
 3782WAT      O11556   0.985   1.208   3.927
 3782WAT     H111557   1.017   1.135   3.980
 3782WAT     H211558   0.996   1.285   3.982
 3783WAT      O11559   0.103   4.286   0.215
 3783WAT     H111560   0.150   4.275   0.133
 3783WAT     H211561   0.113   4.203   0.261
 3784WAT      O11562   2.344   2.296   2.381
 3784WAT     H111563   2.398   2.264   2.309
 3784WAT     H211564   2.295   2.370   2.344
 3785WAT      O11565   1.134   2.755   5.055
 3785WAT     H111566   1.165   2.766   5.145
 3785WAT     H211567   1.046   2.792   5.054
 3786WAT      O11568   3.354   4.807   2.060
 3786WAT     H111569   3.345   4.899   2.084
 3786WAT     H211570   3.312   4.759   2.132
 3787WAT      O11571   0.947   1.910   4.834
 3787WAT     H111572   0.986   1.986   4.877
 3787WAT     H211573   0.899   1.947   4.759
 3788WAT      O11574   0.447   2.899   1.709
 3788WAT     H111575   0.412   2.972   1.759
 3788WAT     H211576   0.426   2.919   1.618
 3789WAT      O11577   2.049   2.705   4.311
 3789WAT     H111578   1.966   2.747   4.332
 3789WAT     H211579   2.080   2.671   4.395
 3790WAT      O11580   2.477   1.170   0.446
 3790WAT     H111581   2.403   1.224   0.474
 3790WAT     H211582   2.549   1.231   0.437
 3791WAT      O11583   1.616   1.168   3.612
 3791WAT     H111584   1.554   1.111   3.657
 3791WAT     H211585   1.698   1.119   3.610
 3792WAT      O11586   3.356   2.474   4.523
 3792WAT     H111587   3.315   2.475   4.436
 3792WAT     H211588   3.304   2.536   4.574
 3793WAT      O11589   0.005   3.314   1.565
 3793WAT     H111590   0.002   3.313   1.469
 3793WAT     H211591  -0.076   3.272   1.592
 3794WAT      O11592   3.631   1.251   0.537
 3794WAT     H111593   3.551   1.271   0.488
 3794WAT     H211594   3.700   1.248   0.471
 3795WAT      O11595   0.941   2.551   1.219
 3795WAT     H111596   0.977   2.602   1.292
 3795WAT     H211597   0.963   2.461   1.240
 3796WAT      O11598   0.725   3.945   4.966
 3796WAT     H111599   0.805   3.956   5.017
 3796WAT     H211600   0.739   3.997   4.887
 3797WAT      O11601   0.446   0.189   2.508
 3797WAT     H111602   0.489   0.114   2.547
 3797WAT     H211603   0.372   0.152   2.460
 3798WAT      O11604   1.942   4.289   0.219
 3798WAT     H111605   1.915   4.216   0.163
 3798WAT     H211606   1.886   4.362   0.191
 3799WAT      O11607   2.217   0.252   3.435
 3799WAT     H111608   2.247   0.313   3.502
 3799WAT     H211609   2.129   0.281   3.412
 3800WAT      O11610   0.642   0.466   2.952
 3800WAT     H111611   0.586   0.495   2.880
 3800WAT     H211612   0.591   0.485   3.031
 3801WAT      O11613   4.107   3.827   4.439
 3801WAT     H111614   4.161   3.900   4.407
 3801WAT     H211615   4.088   3.776   4.361
 3802WAT      O11616   0.332   0.851   0.253
 3802WAT     H111617   0.275   0.861   0.329
 3802WAT     H211618   0.354   0.757   0.252
 3803WAT      O11619   3.800   2.610   2.958
 3803WAT     H111620   3.717   2.631   2.999
 3803WAT     H211621   3.781   2.537   2.900
 3804WAT      O11622   3.915   0.056   4.050
 3804WAT     H111623   3.863   0.127   4.012
 3804WAT     H211624   3.853  -0.015   4.063
 3805WAT      O11625   1.149   3.046   0.538
 3805WAT     H111626   1.164   3.125   0.591
 3805WAT     H211627   1.183   2.975   0.592
 3806WAT      O11628   2.887   1.623   2.254
 3806WAT     H111629   2.797   1.596   2.272
 3806WAT     H211630   2.915   1.668   2.334
 3807WAT      O11631   2.854   3.739   3.288
 3807WAT     H111632   2.950   3.739   3.283
 3807WAT     H211633   2.835   3.717   3.379
 3808WAT      O11634   0.886   4.988   3.963
 3808WAT     H111635   0.897   4.953   4.052
 3808WAT     H211636   0.894   5.083   3.974
 3809WAT      O11637   2.637   1.957   2.586
 3809WAT     H111638   2.681   1.992   2.508
 3809WAT     H211639   2.693   1.984   2.658
 3810WAT      O11640   3.126   1.211   4.253
 3810WAT     H111641   3.116   1.284   4.190
 3810WAT     H211642   3.157   1.138   4.201
 3811WAT      O11643   0.675   1.394   2.326
 3811WAT     H111644   0.609   1.451   2.286
 3811WAT     H211645   0.679   1.422   2.417
 3812WAT      O11646   2.115   3.981   4.696
 3812WAT     H111647   2.155   3.947   4.616
 3812WAT     H211648   2.023   3.956   4.688
 3813WAT      O11649   2.663   0.410   1.859
 3813WAT     H111650   2.568   0.410   1.855
 3813WAT     H211651   2.690   0.328   1.817
 3814WAT      O11652   3.638   0.976   3.919
 3814WAT     H111653   3.638   0.928   3.835
 3814WAT     H211654   3.548   1.004   3.930
 3815WAT      O11655   0.492   0.487   0.698
 3815WAT     H111656   0.415   0.430   0.703
 3815WAT     H211657   0.510   0.495   0.604
 3816WAT      O11658   3.302   1.169   4.884
 3816WAT     H111659   3.375   1.106   4.884
 3816WAT     H211660   3.225   1.116   4.906
 3817WAT      O11661   2.431   0.810   1.357
 3817WAT     H111662   2.349   0.818   1.405
 3817WAT     H211663   2.496   0.849   1.415
 3818WAT      O11664   0.679   2.661   2.921
 3818WAT     H111665   0.620   2.598   2.962
 3818WAT     H211666   0.753   2.667   2.982
 3819WAT      O11667   3.749   0.015   4.685
 3819WAT     H111668   3.760   0.007   4.591
 3819WAT     H211669   3.738   0.109   4.699
 3820WAT      O11670   1.753   0.149   1.229
 3820WAT     H111671   1.714   0.101   1.302
 3820WAT     H211672   1.796   0.081   1.177
 3821WAT      O11673   3.876   3.514   4.332
 3821WAT     H111674   3.857   3.586   4.272
 3821WAT     H211675   3.963   3.485   4.307
 3822WAT      O11676   2.648   3.630   5.293
 3822WAT     H111677   2.698   3.702   5.255
 3822WAT     H211678   2.712   3.560   5.305
 3823WAT      O11679   0.934   0.801   2.571
 3823WAT     H111680   0.901   0.731   2.627
 3823WAT     H211681   1.006   0.760   2.522
 3824WAT      O11682   4.398   4.989   3.152
 3824WAT     H111683   4.428   5.069   3.109
 3824WAT     H211684   4.371   5.017   3.239
 3825WAT      O11685   1.779   2.583   4.954
 3825WAT     H111686   1.814   2.632   4.880
 3825WAT     H211687   1.853   2.534   4.989
 3826WAT      O11688   3.803   1.626   3.835
 3826WAT     H111689   3.808   1.602   3.928
 3826WAT     H211690   3.867   1.569   3.792
 3827WAT      O11691   3.028   0.162   5.109
 3827WAT     H111692   2.952   0.150   5.052
 3827WAT     H211693   2.992   0.160   5.197
 3828WAT      O11694   3.615   2.217   3.004
 3828WAT     H111695   3.582   2.158   3.072
 3828WAT     H211696   3.580   2.181   2.922
 3829WAT      O11697   2.182   0.412   0.648
 3829WAT     H111698   2.188   0.318   0.651
 3829WAT     H211699   2.272   0.443   0.666
 3830WAT      O11700   3.601   2.039   0.197
 3830WAT     H111701   3.523   2.012   0.149
 3830WAT     H211702   3.585   2.130   0.220
 3831WAT      O11703   2.743   2.489   2.763
 3831WAT     H111704   2.732   2.464   2.671
 3831WAT     H211705   2.749   2.585   2.761
 3832WAT      O11706   3.045   3.574   0.013
 3832WAT     H111707   2.982   3.535  -0.048
 3832WAT     H211708   3.121   3.517   0.007
 3833WAT      O11709   2.058   2.676   2.926
 3833WAT     H111710   2.105   2.657   3.007
 3833WAT     H211711   1.998   2.602   2.916
 3834WAT      O11712   2.496   1.490   4.345
 3834WAT     H111713   2.509   1.581   4.317
 3834WAT     H211714   2.584   1.458   4.364
 3835WAT      O11715   1.249   2.057   3.025
 3835WAT     H111716   1.179   2.105   2.980
 3835WAT     H211717   1.273   1.987   2.965
 3836WAT      O11718   2.370   2.136   4.951
 3836WAT     H111719   2.427   2.126   4.875
 3836WAT     H211720   2.428   2.165   5.021
 3837WAT      O11721   0.260   1.763   2.790
 3837WAT     H111722   0.282   1.775   2.883
 3837WAT     H211723   0.328   1.811   2.743
 3838WAT      O11724   1.792   2.520   4.644
 3838WAT     H111725   1.746   2.445   4.682
 3838WAT     H211726   1.875   2.523   4.691
 3839WAT      O11727   0.605   0.235   1.495
 3839WAT     H111728   0.632   0.315   1.450
 3839WAT     H211729   0.676   0.217   1.557
 3840WAT      O11730   1.449   0.533   4.698
 3840WAT     H111731   1.358   0.560   4.682
 3840WAT     H211732   1.500   0.586   4.637
 3841WAT      O11733   0.303   1.056   1.778
 3841WAT     H111734   0.249   0.996   1.726
 3841WAT     H211735   0.264   1.053   1.865
 3842WAT      O11736   3.103   2.282   4.026
 3842WAT     H111737   3.035   2.346   4.006
 3842WAT     H211738   3.166   2.330   4.081
 3843WAT      O11739   1.404   0.138   2.311
 3843WAT     H111740   1.479   0.147   2.370
 3843WAT     H211741   1.434   0.175   2.228
 3844WAT      O11742   3.644   1.835   2.480
 3844WAT     H111743   3.640   1.891   2.402
 3844WAT     H211744   3.675   1.750   2.448
 3845WAT      O11745   1.912   4.914   0.267
 3845WAT     H111746   1.856   4.927   0.344
 3845WAT     H211747   2.001   4.909   0.302
 3846WAT      O11748   0.802   3.450   1.146
 3846WAT     H111749   0.710   3.459   1.170
 3846WAT     H211750   0.801   3.448   1.051
 3847WAT      O11751   3.052   3.325   1.069
 3847WAT     H111752   2.977   3.372   1.106
 3847WAT     H211753   3.100   3.293   1.145
 3848WAT      O11754   3.950   4.892   2.640
 3848WAT     H111755   3.936   4.914   2.548
 3848WAT     H211756   3.997   4.967   2.675
 3849WAT      O11757   2.976   2.641   3.144
 3849WAT     H111758   2.973   2.736   3.129
 3849WAT     H211759   2.924   2.628   3.223
 3850WAT      O11760   0.059   1.476   4.523
 3850WAT     H111761   0.018   1.550   4.568
 3850WAT     H211762   0.034   1.399   4.574
 3851WAT      O11763   4.518   1.777   4.189
 3851WAT     H111764   4.583   1.773   4.120
 3851WAT     H211765   4.547   1.852   4.244
 3852WAT      O11766   2.417   1.650   3.013
 3852WAT     H111767   2.343   1.694   2.972
 3852WAT     H211768   2.485   1.651   2.945
 3853WAT      O11769   1.001   4.511   2.357
 3853WAT     H111770   0.997   4.558   2.273
 3853WAT     H211771   1.055   4.434   2.339
 3854WAT      O11772   2.790   0.668   1.732
 3854WAT     H111773   2.822   0.757   1.741
 3854WAT     H211774   2.741   0.653   1.812
 3855WAT      O11775   4.474   4.947   1.166
 3855WAT     H111776   4.457   4.962   1.073
 3855WAT     H211777   4.483   5.035   1.203
 3856WAT      O11778   0.543   1.823   4.242
 3856WAT     H111779   0.557   1.738   4.285
 3856WAT     H211780   0.486   1.802   4.168
 3857WAT      O11781   3.860   1.976   2.214
 3857WAT     H111782   3.925   1.981   2.284
 3857WAT     H211783   3.813   2.059   2.220
 3858WAT      O11784   4.098   0.252   5.297
 3858WAT     H111785   4.187   0.267   5.266
 3858WAT     H211786   4.096   0.288   5.386
 3859WAT      O11787   2.092   4.047   3.385
 3859WAT     H111788   2.097   4.008   3.472
 3859WAT     H211789   2.001   4.032   3.357
 3860WAT      O11790   4.185   4.312   1.783
 3860WAT     H111791   4.166   4.327   1.690
 3860WAT     H211792   4.274   4.346   1.795
 3861WAT      O11793   1.066   2.010   4.547
 3861WAT     H111794   1.062   1.979   4.456
 3861WAT     H211795   1.080   1.931   4.598
 3862WAT      O11796   2.764   2.513   0.673
 3862WAT     H111797   2.825   2.476   0.610
 3862WAT     H211798   2.796   2.482   0.758
 3863WAT      O11799   0.834   2.135   4.678
 3863WAT     H111800   0.855   2.228   4.690
 3863WAT     H211801   0.901   2.103   4.617
 3864WAT      O11802   0.909   0.412   3.700
 3864WAT     H111803   0.879   0.349   3.764
 3864WAT     H211804   0.836   0.421   3.639
 3865WAT      O11805   0.356   0.719   3.640
 3865WAT     H111806   0.310   0.770   3.706
 3865WAT     H211807   0.335   0.629   3.661
 3866WAT      O11808   1.786   4.486   0.620
 3866WAT     H111809   1.848   4.546   0.578
 3866WAT     H211810   1.807   4.401   0.584
 3867WAT      O11811   2.249   3.389   0.089
 3867WAT     H111812   2.315   3.393   0.159
 3867WAT     H211813   2.189   3.461   0.110
 3868WAT      O11814   0.633   1.208   0.752
 3868WAT     H111815   0.538   1.224   0.756
 3868WAT     H211816   0.644   1.119   0.786
 3869WAT      O11817   3.561   2.394   4.934
 3869WAT     H111818   3.565   2.369   4.842
 3869WAT     H211819   3.474   2.434   4.944
 3870WAT      O11820   3.999   1.744   4.667
 3870WAT     H111821   4.018   1.672   4.607
 3870WAT     H211822   3.921   1.787   4.629
 3871WAT      O11823   0.735   2.451   3.390
 3871WAT     H111824   0.783   2.533   3.403
 3871WAT     H211825   0.652   2.465   3.437
 3872WAT      O11826   1.165   5.047   2.659
 3872WAT     H111827   1.095   5.030   2.596
 3872WAT     H211828   1.243   5.006   2.620
 3873WAT      O11829   4.262   2.073   0.970
 3873WAT     H111830   4.183   2.017   0.970
 3873WAT     H211831   4.329   2.019   1.011
 3874WAT      O11832   2.017   0.678   1.273
 3874WAT     H111833   1.979   0.681   1.185
 3874WAT     H211834   1.942   0.668   1.331
 3875WAT      O11835   1.267   1.734   4.578
 3875WAT     H111836   1.300   1.805   4.523
 3875WAT     H211837   1.337   1.718   4.642
 3876WAT      O11838   1.026   1.795   2.699
 3876WAT     H111839   1.015   1.754   2.785
 3876WAT     H211840   1.120   1.796   2.685
 3877WAT      O11841   1.006   1.865   2.263
 3877WAT     H111842   1.080   1.901   2.311
 3877WAT     H211843   1.026   1.880   2.171
 3878WAT      O11844   3.678   4.339   5.021
 3878WAT     H111845   3.690   4.296   4.936
 3878WAT     H211846   3.591   4.311   5.050
 3879WAT      O11847   3.972   3.231   0.669
 3879WAT     H111848   4.065   3.232   0.691
 3879WAT     H211849   3.965   3.281   0.588
 3880WAT      O11850   0.285   2.674   2.742
 3880WAT     H111851   0.298   2.768   2.752
 3880WAT     H211852   0.294   2.638   2.831
 3881WAT      O11853   4.373   3.899   1.254
 3881WAT     H111854   4.328   3.947   1.185
 3881WAT     H211855   4.304   3.852   1.301
 3882WAT      O11856   0.009   0.754   1.281
 3882WAT     H111857   0.051   0.839   1.278
 3882WAT     H211858  -0.083   0.770   1.264
 3883WAT      O11859   1.855   3.544   1.339
 3883WAT     H111860   1.828   3.635   1.328
 3883WAT     H211861   1.931   3.535   1.281
 3884WAT      O11862   4.009   4.055   1.155
 3884WAT     H111863   3.945   4.004   1.106
 3884WAT     H211864   3.998   4.027   1.246
 3885WAT      O11865   1.739   1.672   0.077
 3885WAT     H111866   1.725   1.631  -0.008
 3885WAT     H211867   1.664   1.731   0.088
 3886WAT      O11868   3.840   2.238   4.220
 3886WAT     H111869   3.771   2.294   4.185
 3886WAT     H211870   3.881   2.200   4.142
 3887WAT      O11871   3.496   4.955   2.537
 3887WAT     H111872   3.525   4.903   2.612
 3887WAT     H211873   3.573   5.008   2.513
 3888WAT      O11874   0.229   4.408   4.442
 3888WAT     H111875   0.285   4.350   4.390
 3888WAT     H211876   0.240   4.494   4.402
 3889WAT      O11877   1.156   4.136   3.092
 3889WAT     H111878   1.186   4.111   3.180
 3889WAT     H211879   1.074   4.088   3.081
 3890WAT      O11880   1.101   0.986   3.526
 3890WAT     H111881   1.194   0.999   3.509
 3890WAT     H211882   1.064   1.073   3.527
 3891WAT      O11883   1.228   4.825   3.023
 3891WAT     H111884   1.221   4.920   3.011
 3891WAT     H211885   1.322   4.809   3.029
 3892WAT      O11886   4.084   3.722   4.182
 3892WAT     H111887   4.001   3.742   4.139
 3892WAT     H211888   4.144   3.702   4.111
 3893WAT      O11889   1.963   0.056   3.188
 3893WAT     H111890   2.049   0.074   3.149
 3893WAT     H211891   1.950  -0.038   3.173
 3894WAT      O11892   3.846   0.224   1.957
 3894WAT     H111893   3.812   0.313   1.963
 3894WAT     H211894   3.846   0.203   1.864
 3895WAT      O11895   0.730   1.514   1.287
 3895WAT     H111896   0.752   1.560   1.368
 3895WAT     H211897   0.638   1.488   1.299
 3896WAT      O11898   1.877   5.076   4.815
 3896WAT     H111899   1.939   5.008   4.841
 3896WAT     H211900   1.797   5.056   4.863
 3897WAT      O11901   2.737   2.602   5.207
 3897WAT     H111902   2.646   2.607   5.237
 3897WAT     H211903   2.780   2.677   5.248
 3898WAT      O11904   4.382   0.869   3.237
 3898WAT     H111905   4.315   0.935   3.221
 3898WAT     H211906   4.380   0.813   3.159
 3899WAT      O11907   0.313   0.596   3.335
 3899WAT     H111908   0.322   0.617   3.428
 3899WAT     H211909   0.294   0.504   3.331
 3900WAT      O11910   3.843   3.388   1.116
 3900WAT     H111911   3.840   3.324   1.045
 3900WAT     H211912   3.771   3.363   1.174
 3901WAT      O11913   0.352   3.535   4.157
 3901WAT     H111914   0.408   3.605   4.125
 3901WAT     H211915   0.412   3.471   4.195
 3902WAT      O11916   2.033   3.153   3.624
 3902WAT     H111917   2.039   3.079   3.685
 3902WAT     H211918   2.001   3.115   3.543
 3903WAT      O11919   2.276   0.905   4.120
 3903WAT     H111920   2.189   0.942   4.112
 3903WAT     H211921   2.317   0.918   4.034
 3904WAT      O11922   1.329   0.444   1.685
 3904WAT     H111923   1.356   0.504   1.755
 3904WAT     H211924   1.301   0.365   1.730
 3905WAT      O11925   2.073   0.395   0.996
 3905WAT     H111926   2.036   0.367   1.080
 3905WAT     H211927   2.167   0.374   1.003
 3906WAT      O11928   3.984   0.041   4.957
 3906WAT     H111929   3.907   0.001   4.997
 3906WAT     H211930   3.989   0.128   4.998
 3907WAT      O11931   2.782   2.161   5.039
 3907WAT     H111932   2.807   2.087   4.984
 3907WAT     H211933   2.829   2.235   5.002
 3908WAT      O11934   0.751   1.771   1.974
 3908WAT     H111935   0.820   1.705   1.968
 3908WAT     H211936   0.750   1.813   1.889
 3909WAT      O11937   2.575   4.093   0.364
 3909WAT     H111938   2.535   4.006   0.361
 3909WAT     H211939   2.535   4.141   0.291
 3910WAT      O11940   3.144   0.076   0.219
 3910WAT     H111941   3.213   0.142   0.207
 3910WAT     H211942   3.135   0.068   0.314
 3911WAT      O11943   0.263   3.810   3.454
 3911WAT     H111944   0.182   3.771   3.487
 3911WAT     H211945   0.309   3.841   3.532
 3912WAT      O11946   4.340   1.569   2.512
 3912WAT     H111947   4.296   1.569   2.427
 3912WAT     H211948   4.273   1.542   2.574
 3913WAT      O11949   1.597   0.275   2.020
 3913WAT     H111950   1.528   0.211   2.004
 3913WAT     H211951   1.676   0.221   2.032
 3914WAT      O11952   4.347   3.956   4.047
 3914WAT     H111953   4.287   3.891   4.010
 3914WAT     H211954   4.345   4.028   3.984
 3915WAT      O11955   2.815   1.456   5.127
 3915WAT     H111956   2.771   1.394   5.069
 3915WAT     H211957   2.906   1.428   5.127
 3916WAT      O11958   2.646   1.839   0.943
 3916WAT     H111959   2.579   1.886   0.892
 3916WAT     H211960   2.658   1.757   0.896
 3917WAT      O11961   3.595   3.552   0.439
 3917WAT     H111962   3.655   3.541   0.365
 3917WAT     H211963   3.547   3.469   0.442
 3918WAT      O11964   3.973   0.367   2.784
 3918WAT     H111965   3.920   0.416   2.848
 3918WAT     H211966   4.022   0.435   2.738
 3919WAT      O11967   1.630   3.657   4.334
 3919WAT     H111968   1.676   3.595   4.390
 3919WAT     H211969   1.544   3.619   4.321
 3920WAT      O11970   2.921   1.537   0.205
 3920WAT     H111971   2.910   1.612   0.265
 3920WAT     H211972   2.839   1.490   0.211
 3921WAT      O11973   0.377   1.299   1.231
 3921WAT     H111974   0.441   1.234   1.260
 3921WAT     H211975   0.293   1.267   1.264
 3922WAT      O11976   0.079   2.420   0.869
 3922WAT     H111977   0.059   2.468   0.949
 3922WAT     H211978   0.150   2.470   0.828
 3923WAT      O11979   1.662   3.637   0.976
 3923WAT     H111980   1.584   3.627   1.031
 3923WAT     H211981   1.705   3.552   0.980
 3924WAT      O11982   0.267   0.310   1.403
 3924WAT     H111983   0.342   0.367   1.419
 3924WAT     H211984   0.197   0.349   1.455
 3925WAT      O11985   1.919   4.393   4.738
 3925WAT     H111986   1.991   4.333   4.715
 3925WAT     H211987   1.878   4.413   4.654
 3926WAT      O11988   2.361   4.934   0.099
 3926WAT     H111989   2.285   4.970   0.053
 3926WAT     H211990   2.368   4.845   0.066
 3927WAT      O11991   0.966   4.975   5.192
 3927WAT     H111992   1.033   4.909   5.174
 3927WAT     H211993   0.895   4.953   5.132
 3928WAT      O11994   0.834   2.211   2.703
 3928WAT     H111995   0.776   2.250   2.768
 3928WAT     H211996   0.791   2.129   2.678
 3929WAT      O11997   2.227   0.423   1.247
 3929WAT     H111998   2.274   0.500   1.218
 3929WAT     H211999   2.141   0.456   1.274
 3930WAT      O12000   3.903   3.978   3.552
 3930WAT     H112001   3.998   3.969   3.562
 3930WAT     H212002   3.883   4.065   3.588
 3931WAT      O12003   2.290   4.876   3.683
 3931WAT     H112004   2.323   4.805   3.628
 3931WAT     H212005   2.283   4.951   3.623
 3932WAT      O12006   2.890   4.423   5.187
 3932WAT     H112007   2.837   4.406   5.264
 3932WAT     H212008   2.919   4.337   5.158
 3933WAT      O12009   0.686   2.614   1.172
 3933WAT     H112010   0.771   2.580   1.201
 3933WAT     H212011   0.627   2.539   1.179
 3934WAT      O12012   0.344   2.230   3.218
 3934WAT     H112013   0.418   2.170   3.227
 3934WAT     H212014   0.292   2.193   3.147
 3935WAT      O12015   1.926   4.227   1.783
 3935WAT     H112016   1.886   4.298   1.834
 3935WAT     H212017   1.859   4.159   1.781
 3936WAT      O12018   3.890   1.415   4.826
 3936WAT     H112019   3.923   1.333   4.789
 3936WAT     H212020   3.856   1.389   4.912
 3937WAT      O12021   4.051   0.984   5.266
 3937WAT     H112022   4.048   1.023   5.179
 3937WAT     H212023   4.111   0.909   5.256
 3938WAT      O12024   1.762   4.004   1.785
 3938WAT     H112025   1.797   3.918   1.763
 3938WAT     H212026   1.693   3.986   1.849
 3939WAT      O12027   0.595   1.654   2.885
 3939WAT     H112028   0.602   1.682   2.793
 3939WAT     H212029   0.537   1.577   2.882
 3940WAT      O12030   1.182   0.987   1.753
 3940WAT     H112031   1.159   1.052   1.687
 3940WAT     H212032   1.098   0.954   1.785
 3941WAT      O12033   0.472   1.980   2.100
 3941WAT     H112034   0.549   1.969   2.155
 3941WAT     H212035   0.454   2.074   2.103
 3942WAT      O12036   0.216   1.113   4.935
 3942WAT     H112037   0.261   1.043   4.888
 3942WAT     H212038   0.287   1.169   4.968
 3943WAT      O12039   2.571   0.545   0.989
 3943WAT     H112040   2.479   0.570   0.999
 3943WAT     H212041   2.614   0.583   1.065
 3944WAT      O12042   0.021   3.256   1.286
 3944WAT     H112043   0.114   3.232   1.290
 3944WAT     H212044  -0.018   3.191   1.229
 3945WAT      O12045   1.555   1.119   0.358
 3945WAT     H112046   1.638   1.076   0.337
 3945WAT     H212047   1.576   1.175   0.433
 3946WAT      O12048   1.853   3.796   1.225
 3946WAT     H112049   1.789   3.841   1.170
 3946WAT     H212050   1.918   3.762   1.164
 3947WAT      O12051   0.090   1.969   4.378
 3947WAT     H112052   0.089   2.064   4.391
 3947WAT     H212053   0.179   1.951   4.348
 3948WAT      O12054   1.912   0.581   4.163
 3948WAT     H112055   1.888   0.523   4.236
 3948WAT     H212056   2.007   0.589   4.169
 3949WAT      O12057   2.577   1.771   2.101
 3949WAT     H112058   2.640   1.831   2.062
 3949WAT     H212059   2.556   1.811   2.185
 3950WAT      O12060   2.929   4.607   4.654
 3950WAT     H112061   2.854   4.548   4.649
 3950WAT     H212062   2.934   4.647   4.567
 3951WAT      O12063   3.227   1.840   0.535
 3951WAT     H112064   3.159   1.832   0.602
 3951WAT     H212065   3.184   1.885   0.462
 3952WAT      O12066   0.391   3.081   4.323
 3952WAT     H112067   0.340   3.064   4.244
 3952WAT     H212068   0.424   2.995   4.349
 3953WAT      O12069   1.640   3.023   3.150
 3953WAT     H112070   1.676   3.110   3.137
 3953WAT     H212071   1.575   3.014   3.080
 3954WAT      O12072   0.030   3.540   1.282
 3954WAT     H112073   0.060   3.454   1.253
 3954WAT     H212074  -0.057   3.550   1.242
 3955WAT      O12075   1.487   0.704   0.939
 3955WAT     H112076   1.487   0.739   0.849
 3955WAT     H212077   1.567   0.737   0.978
 3956WAT      O12078   3.855   1.777   3.483
 3956WAT     H112079   3.809   1.744   3.405
 3956WAT     H212080   3.789   1.775   3.552
 3957WAT      O12081   1.140   1.540   3.495
 3957WAT     H112082   1.045   1.544   3.487
 3957WAT     H212083   1.171   1.540   3.404
 3958WAT      O12084   1.929   0.372   1.230
 3958WAT     H112085   1.882   0.420   1.298
 3958WAT     H212086   1.880   0.290   1.221
 3959WAT      O12087   3.979   3.854   0.806
 3959WAT     H112088   3.912   3.835   0.872
 3959WAT     H212089   3.941   3.925   0.753
 3960WAT      O12090   0.779   4.735   5.252
 3960WAT     H112091   0.760   4.819   5.294
 3960WAT     H212092   0.829   4.686   5.317
 3961WAT      O12093   2.076   0.841   0.320
 3961WAT     H112094   2.161   0.879   0.295
 3961WAT     H212095   2.076   0.844   0.416
 3962WAT      O12096   3.228   0.716   2.910
 3962WAT     H112097   3.182   0.798   2.896
 3962WAT     H212098   3.186   0.678   2.987
 3963WAT      O12099   1.695   3.904   5.096
 3963WAT     H112100   1.685   3.819   5.052
 3963WAT     H212101   1.610   3.946   5.084
 3964WAT      O12102   1.484   2.094   4.260
 3964WAT     H112103   1.463   2.001   4.261
 3964WAT     H212104   1.517   2.113   4.348
 3965WAT      O12105   1.497   4.394   0.273
 3965WAT     H112106   1.431   4.431   0.214
 3965WAT     H212107   1.493   4.451   0.350
 3966WAT      O12108   3.675   2.556   3.526
 3966WAT     H112109   3.588   2.540   3.562
 3966WAT     H212110   3.708   2.470   3.502
 3967WAT      O12111   4.147   2.972   2.796
 3967WAT     H112112   4.139   3.061   2.759
 3967WAT     H212113   4.072   2.964   2.854
 3968WAT      O12114   0.072   1.614   1.288
 3968WAT     H112115   0.151   1.609   1.234
 3968WAT     H212116   0.086   1.547   1.356
 3969WAT      O12117   1.969   1.293   4.180
 3969WAT     H112118   1.955   1.221   4.244
 3969WAT     H212119   1.992   1.368   4.234
 3970WAT      O12120   1.753   4.835   2.603
 3970WAT     H112121   1.767   4.752   2.558
 3970WAT     H212122   1.796   4.823   2.688
 3971WAT      O12123   2.864   0.096   2.568
 3971WAT     H112124   2.909   0.013   2.586
 3971WAT     H212125   2.774   0.071   2.548
 3972WAT      O12126   1.216   1.779   0.821
 3972WAT     H112127   1.164   1.832   0.760
 3972WAT     H212128   1.219   1.830   0.901
 3973WAT      O12129   1.228   1.872   1.080
 3973WAT     H112130   1.217   1.792   1.132
 3973WAT     H212131   1.141   1.912   1.080
 3974WAT      O12132   1.014   4.459   1.487
 3974WAT     H112133   0.996   4.380   1.537
 3974WAT     H212134   0.949   4.523   1.519
 3975WAT      O12135   1.264   0.029   2.075
 3975WAT     H112136   1.205   0.047   2.147
 3975WAT     H212137   1.343  -0.007   2.116
 3976WAT      O12138   0.998   0.433   4.805
 3976WAT     H112139   0.943   0.458   4.730
 3976WAT     H212140   1.041   0.351   4.776
 3977WAT      O12141   4.196   4.667   3.345
 3977WAT     H112142   4.185   4.572   3.342
 3977WAT     H212143   4.208   4.687   3.438
 3978WAT      O12144   0.825   1.327   3.383
 3978WAT     H112145   0.777   1.244   3.370
 3978WAT     H212146   0.826   1.339   3.478
 3979WAT      O12147   4.250   2.541   4.688
 3979WAT     H112148   4.244   2.473   4.756
 3979WAT     H212149   4.167   2.535   4.641
 3980WAT      O12150   0.849   0.773   3.072
 3980WAT     H112151   0.895   0.823   3.140
 3980WAT     H212152   0.897   0.691   3.065
 3981WAT      O12153   2.164   0.398   3.133
 3981WAT     H112154   2.091   0.387   3.194
 3981WAT     H212155   2.232   0.338   3.165
 3982WAT      O12156   2.164   2.748   2.344
 3982WAT     H112157   2.160   2.677   2.281
 3982WAT     H212158   2.166   2.828   2.291
 3983WAT      O12159   4.338   3.423   5.021
 3983WAT     H112160   4.396   3.390   4.953
 3983WAT     H212161   4.383   3.500   5.056
 3984WAT      O12162   3.078   2.720   0.165
 3984WAT     H112163   3.117   2.804   0.142
 3984WAT     H212164   2.987   2.742   0.185
 3985WAT      O12165   1.893   3.175   4.737
 3985WAT     H112166   1.965   3.206   4.792
 3985WAT     H212167   1.823   3.155   4.799
 3986WAT      O12168   0.173   3.923   4.302
 3986WAT     H112169   0.137   4.002   4.343
 3986WAT     H212170   0.097   3.880   4.263
 3987WAT      O12171   0.961   1.668   0.470
 3987WAT     H112172   1.003   1.583   0.485
 3987WAT     H212173   0.869   1.647   0.455
 3988WAT      O12174   1.310   1.174   0.702
 3988WAT     H112175   1.307   1.264   0.674
 3988WAT     H212176   1.297   1.124   0.621
 3989WAT      O12177   2.251   0.326   5.298
 3989WAT     H112178   2.167   0.313   5.255
 3989WAT     H212179   2.237   0.298   5.388
 3990WAT      O12180   1.604   0.921   3.122
 3990WAT     H112181   1.644   0.974   3.190
 3990WAT     H212182   1.534   0.976   3.086
 3991WAT      O12183   4.003   4.278   4.779
 3991WAT     H112184   4.049   4.208   4.732
 3991WAT     H212185   4.016   4.258   4.871
 3992WAT      O12186   3.867   4.388   0.443
 3992WAT     H112187   3.949   4.350   0.474
 3992WAT     H212188   3.889   4.427   0.359
 3993WAT      O12189   3.302   3.434   1.979
 3993WAT     H112190   3.347   3.349   1.979
 3993WAT     H212191   3.350   3.487   2.042
 3994WAT      O12192   0.781   3.267   3.204
 3994WAT     H112193   0.698   3.232   3.235
 3994WAT     H212194   0.845   3.199   3.225
 3995WAT      O12195   1.732   1.352   4.812
 3995WAT     H112196   1.663   1.297   4.850
 3995WAT     H212197   1.743   1.318   4.723
 3996WAT      O12198   1.748   4.601   2.423
 3996WAT     H112199   1.793   4.526   2.463
 3996WAT     H212200   1.655   4.578   2.427
 3997WAT      O12201   3.244   3.421   0.874
 3997WAT     H112202   3.200   3.444   0.792
 3997WAT     H212203   3.181   3.366   0.920
 3998WAT      O12204   2.823   4.225   0.630
 3998WAT     H112205   2.885   4.232   0.703
 3998WAT     H212206   2.868   4.170   0.566
 3999WAT      O12207   1.891   3.548   5.051
 3999WAT     H112208   1.805   3.520   5.019
 3999WAT     H212209   1.932   3.468   5.083
 4000WAT      O12210   2.515   0.948   5.089
 4000WAT     H112211   2.503   0.971   4.996
 4000WAT     H212212   2.591   1.000   5.116
 4001WAT      O12213   1.401   2.828   3.789
 4001WAT     H112214   1.367   2.917   3.794
 4001WAT     H212215   1.347   2.778   3.849
 4002WAT      O12216   2.999   1.384   4.449
 4002WAT     H112217   3.062   1.445   4.487
 4002WAT     H212218   3.044   1.345   4.374
 4003WAT      O12219   0.894   4.283   3.593
 4003WAT     H112220   0.975   4.315   3.552
 4003WAT     H212221   0.897   4.188   3.580
 4004WAT      O12222   2.422   3.037   0.340
 4004WAT     H112223   2.401   2.946   0.359
 4004WAT     H212224   2.343   3.072   0.298
 4005WAT      O12225   4.147   4.454   4.000
 4005WAT     H112226   4.174   4.511   4.072
 4005WAT     H212227   4.228   4.409   3.975
   4.52549   5.14596   5.30344
