Generic title
12227
    1ILE      N    1   1.590   1.554   3.819
    1ILE     H1    2   1.659   1.481   3.817
    1ILE     H2    3   1.535   1.552   3.733
    1ILE     H3    4   1.526   1.540   3.897
    1ILE     CA    5   1.659   1.685   3.832
    1ILE     HA    6   1.629   1.746   3.746
    1ILE     CB    7   1.619   1.760   3.962
    1ILE     HB    8   1.510   1.770   3.961
    1ILE    CG2    9   1.659   1.677   4.085
    1ILE   HG21   10   1.767   1.667   4.092
    1ILE   HG22   11   1.623   1.725   4.176
    1ILE   HG23   12   1.614   1.577   4.083
    1ILE    CG1   13   1.679   1.903   3.969
    1ILE   HG12   14   1.655   1.956   3.877
    1ILE   HG13   15   1.787   1.898   3.979
    1ILE    CD1   16   1.632   1.988   4.087
    1ILE   HD11   17   1.666   1.944   4.181
    1ILE   HD12   18   1.677   2.087   4.079
    1ILE   HD13   19   1.524   1.997   4.087
    1ILE      C   20   1.809   1.662   3.822
    1ILE      O   21   1.853   1.549   3.840
    2LEU      N   22   1.886   1.768   3.797
    2LEU      H   23   1.841   1.859   3.787
    2LEU     CA   24   2.030   1.776   3.815
    2LEU     HA   25   2.056   1.724   3.908
    2LEU     CB   26   2.096   1.706   3.695
    2LEU    HB2   27   2.057   1.604   3.689
    2LEU    HB3   28   2.066   1.758   3.604
    2LEU     CG   29   2.250   1.697   3.698
    2LEU     HG   30   2.293   1.796   3.689
    2LEU    CD1   31   2.301   1.631   3.827
    2LEU   HD11   32   2.263   1.529   3.834
    2LEU   HD12   33   2.410   1.630   3.826
    2LEU   HD13   34   2.270   1.686   3.915
    2LEU    CD2   35   2.299   1.621   3.576
    2LEU   HD21   36   2.264   1.672   3.486
    2LEU   HD22   37   2.408   1.621   3.575
    2LEU   HD23   38   2.262   1.519   3.577
    2LEU      C   39   2.072   1.924   3.828
    2LEU      O   40   1.989   2.014   3.816
    3ARG      N   41   2.201   1.948   3.854
    3ARG      H   42   2.261   1.867   3.864
    3ARG     CA   43   2.274   2.074   3.841
    3ARG     HA   44   2.242   2.126   3.750
    3ARG     CB   45   2.240   2.158   3.965
    3ARG    HB2   46   2.132   2.171   3.970
    3ARG    HB3   47   2.272   2.103   4.054
    3ARG     CG   48   2.305   2.295   3.965
    3ARG    HG2   49   2.412   2.284   3.976
    3ARG    HG3   50   2.282   2.348   3.872
    3ARG     CD   51   2.260   2.376   4.085
    3ARG    HD2   52   2.152   2.390   4.080
    3ARG    HD3   53   2.286   2.320   4.175
    3ARG     NE   54   2.329   2.506   4.086
    3ARG     HE   55   2.391   2.525   4.009
    3ARG     CZ   56   2.317   2.598   4.180
    3ARG    NH1   57   2.241   2.581   4.285
    3ARG   HH11   58   2.191   2.495   4.296
    3ARG   HH12   59   2.235   2.651   4.358
    3ARG    NH2   60   2.382   2.710   4.171
    3ARG   HH21   61   2.444   2.728   4.093
    3ARG   HH22   62   2.375   2.776   4.247
    3ARG      C   63   2.426   2.045   3.831
    3ARG      O   64   2.467   1.934   3.863
    4TRP      N   65   2.507   2.145   3.795
    4TRP      H   66   2.463   2.233   3.774
    4TRP     CA   67   2.652   2.154   3.826
    4TRP     HA   68   2.666   2.118   3.928
    4TRP     CB   69   2.728   2.052   3.732
    4TRP    HB2   70   2.666   1.964   3.719
    4TRP    HB3   71   2.726   2.100   3.633
    4TRP     CG   72   2.871   1.999   3.756
    4TRP    CD1   73   2.949   1.976   3.647
    4TRP    HD1   74   2.911   1.978   3.546
    4TRP    NE1   75   3.082   1.983   3.679
    4TRP    HE1   76   3.154   1.991   3.608
    4TRP    CE2   77   3.102   2.020   3.811
    4TRP    CZ2   78   3.214   2.078   3.873
    4TRP    HZ2   79   3.307   2.090   3.819
    4TRP    CH2   80   3.198   2.145   3.996
    4TRP    HH2   81   3.278   2.207   4.035
    4TRP    CZ3   82   3.070   2.149   4.054
    4TRP    HZ3   83   3.054   2.214   4.140
    4TRP    CE3   84   2.960   2.084   3.995
    4TRP    HE3   85   2.862   2.103   4.036
    4TRP    CD2   86   2.970   2.017   3.868
    4TRP      C   87   2.688   2.310   3.831
    4TRP      O   88   2.597   2.390   3.856
    5PRO      N   89   2.814   2.356   3.815
    5PRO     CD   90   2.909   2.289   3.736
    5PRO    HD2   91   2.881   2.272   3.633
    5PRO    HD3   92   2.905   2.208   3.796
    5PRO     CG   93   3.047   2.342   3.761
    5PRO    HG2   94   3.110   2.342   3.672
    5PRO    HG3   95   3.090   2.280   3.835
    5PRO     CB   96   3.027   2.472   3.832
    5PRO    HB2   97   3.085   2.548   3.779
    5PRO    HB3   98   3.064   2.464   3.935
    5PRO     CA   99   2.873   2.487   3.827
    5PRO     HA  100   2.836   2.544   3.913
    5PRO      C  101   2.842   2.558   3.699
    5PRO      O  102   2.790   2.503   3.601
    6TRP      N  103   2.889   2.679   3.699
    6TRP      H  104   2.953   2.709   3.772
    6TRP     CA  105   2.884   2.760   3.583
    6TRP     HA  106   2.924   2.700   3.501
    6TRP     CB  107   2.736   2.791   3.562
    6TRP    HB2  108   2.675   2.701   3.568
    6TRP    HB3  109   2.703   2.856   3.643
    6TRP     CG  110   2.699   2.849   3.432
    6TRP    CD1  111   2.579   2.906   3.411
    6TRP    HD1  112   2.500   2.910   3.484
    6TRP    NE1  113   2.581   2.968   3.288
    6TRP    HE1  114   2.507   3.028   3.256
    6TRP    CE2  115   2.705   2.958   3.230
    6TRP    CZ2  116   2.762   3.024   3.122
    6TRP    HZ2  117   2.706   3.096   3.065
    6TRP    CH2  118   2.898   3.005   3.098
    6TRP    HH2  119   2.944   3.065   3.025
    6TRP    CZ3  120   2.975   2.916   3.172
    6TRP    HZ3  121   3.082   2.910   3.155
    6TRP    CE3  122   2.914   2.841   3.273
    6TRP    HE3  123   2.978   2.775   3.330
    6TRP    CD2  124   2.780   2.869   3.312
    6TRP      C  125   2.974   2.881   3.611
    6TRP      O  126   3.041   2.886   3.714
    7TRP      N  127   2.974   2.974   3.517
    7TRP      H  128   2.906   2.961   3.443
    7TRP     CA  129   3.036   3.106   3.518
    7TRP     HA  130   2.997   3.153   3.606
    7TRP     CB  131   3.190   3.088   3.539
    7TRP    HB2  132   3.213   3.005   3.605
    7TRP    HB3  133   3.231   3.056   3.443
    7TRP     CG  134   3.271   3.207   3.592
    7TRP    CD1  135   3.400   3.219   3.551
    7TRP    HD1  136   3.453   3.140   3.498
    7TRP    NE1  137   3.438   3.350   3.550
    7TRP    HE1  138   3.519   3.380   3.497
    7TRP    CE2  139   3.333   3.435   3.581
    7TRP    CZ2  140   3.316   3.572   3.556
    7TRP    HZ2  141   3.396   3.630   3.512
    7TRP    CH2  142   3.186   3.628   3.560
    7TRP    HH2  143   3.168   3.727   3.521
    7TRP    CZ3  144   3.078   3.544   3.590
    7TRP    HZ3  145   2.977   3.581   3.576
    7TRP    CE3  146   3.097   3.409   3.623
    7TRP    HE3  147   3.009   3.349   3.632
    7TRP    CD2  148   3.227   3.346   3.620
    7TRP      C  149   2.977   3.184   3.392
    7TRP      O  150   2.855   3.179   3.377
    8PRO      N  151   3.050   3.254   3.301
    8PRO     CD  152   3.188   3.287   3.312
    8PRO    HD2  153   3.258   3.217   3.268
    8PRO    HD3  154   3.194   3.288   3.411
    8PRO     CG  155   3.206   3.433   3.281
    8PRO    HG2  156   3.303   3.458   3.240
    8PRO    HG3  157   3.192   3.482   3.373
    8PRO     CB  158   3.083   3.476   3.206
    8PRO    HB2  159   3.116   3.522   3.112
    8PRO    HB3  160   3.026   3.548   3.265
    8PRO     CA  161   3.009   3.342   3.192
    8PRO     HA  162   2.901   3.356   3.186
    8PRO      C  163   3.063   3.285   3.063
    8PRO      O  164   3.146   3.194   3.058
    9TRP      N  165   3.021   3.349   2.957
    9TRP      H  166   2.976   3.439   2.968
    9TRP     CA  167   3.071   3.316   2.829
    9TRP     HA  168   3.179   3.309   2.837
    9TRP     CB  169   3.013   3.178   2.793
    9TRP    HB2  170   3.045   3.108   2.868
    9TRP    HB3  171   2.904   3.184   2.794
    9TRP     CG  172   3.062   3.105   2.675
    9TRP    CD1  173   2.995   3.002   2.620
    9TRP    HD1  174   2.901   2.963   2.657
    9TRP    NE1  175   3.058   2.965   2.504
    9TRP    HE1  176   3.011   2.907   2.435
    9TRP    CE2  177   3.169   3.044   2.480
    9TRP    CZ2  178   3.249   3.064   2.367
    9TRP    HZ2  179   3.228   3.007   2.278
    9TRP    CH2  180   3.341   3.170   2.365
    9TRP    HH2  181   3.393   3.196   2.274
    9TRP    CZ3  182   3.360   3.249   2.480
    9TRP    HZ3  183   3.426   3.335   2.478
    9TRP    CE3  184   3.286   3.223   2.596
    9TRP    HE3  185   3.301   3.288   2.681
    9TRP    CD2  186   3.181   3.127   2.595
    9TRP      C  187   3.033   3.430   2.735
    9TRP      O  188   2.989   3.538   2.776
   10ARG      N  189   3.054   3.404   2.608
   10ARG      H  190   3.079   3.308   2.587
   10ARG     CA  191   3.043   3.492   2.494
   10ARG     HA  192   2.946   3.539   2.494
   10ARG     CB  193   3.156   3.597   2.509
   10ARG    HB2  194   3.142   3.650   2.603
   10ARG    HB3  195   3.254   3.549   2.511
   10ARG     CG  196   3.148   3.699   2.396
   10ARG    HG2  197   3.191   3.655   2.306
   10ARG    HG3  198   3.044   3.725   2.379
   10ARG     CD  199   3.228   3.825   2.420
   10ARG    HD2  200   3.192   3.874   2.510
   10ARG    HD3  201   3.333   3.797   2.432
   10ARG     NE  202   3.210   3.911   2.302
   10ARG     HE  203   3.147   3.878   2.230
   10ARG     CZ  204   3.270   4.026   2.279
   10ARG    NH1  205   3.355   4.074   2.364
   10ARG   HH11  206   3.370   4.025   2.450
   10ARG   HH12  207   3.400   4.163   2.345
   10ARG    NH2  208   3.246   4.092   2.170
   10ARG   HH21  209   3.181   4.058   2.102
   10ARG   HH22  210   3.304   4.172   2.143
   10ARG      C  211   3.054   3.400   2.371
   10ARG      O  212   3.045   3.280   2.384
   11ARG      N  213   3.067   3.456   2.252
   11ARG      H  214   3.053   3.556   2.250
   11ARG     CA  215   3.126   3.403   2.128
   11ARG     HA  216   3.231   3.378   2.144
   11ARG     CB  217   3.049   3.276   2.088
   11ARG    HB2  218   3.067   3.199   2.162
   11ARG    HB3  219   2.942   3.298   2.086
   11ARG     CG  220   3.091   3.216   1.954
   11ARG    HG2  221   3.061   3.280   1.872
   11ARG    HG3  222   3.199   3.197   1.954
   11ARG     CD  223   3.017   3.087   1.931
   11ARG    HD2  224   3.048   3.016   2.007
   11ARG    HD3  225   2.909   3.107   1.939
   11ARG     NE  226   3.049   3.036   1.798
   11ARG     HE  227   3.116   3.088   1.743
   11ARG     CZ  228   2.994   2.929   1.746
   11ARG    NH1  229   2.903   2.861   1.810
   11ARG   HH11  230   2.880   2.889   1.906
   11ARG   HH12  231   2.862   2.778   1.773
   11ARG    NH2  232   3.032   2.890   1.627
   11ARG   HH21  233   3.105   2.940   1.579
   11ARG   HH22  234   2.994   2.806   1.588
   11ARG      C  235   3.117   3.517   2.025
   11ARG      O  236   3.070   3.625   2.058
   12LYS      N  237   3.165   3.493   1.903
   12LYS      H  238   3.206   3.402   1.887
   12LYS     CA  239   3.135   3.568   1.780
   12LYS     HA  240   3.029   3.596   1.779
   12LYS     CB  241   3.221   3.695   1.788
   12LYS    HB2  242   3.196   3.748   1.880
   12LYS    HB3  243   3.326   3.667   1.792
   12LYS     CG  244   3.197   3.792   1.672
   12LYS    HG2  245   3.233   3.748   1.580
   12LYS    HG3  246   3.090   3.813   1.664
   12LYS     CD  247   3.274   3.920   1.695
   12LYS    HD2  248   3.239   3.969   1.786
   12LYS    HD3  249   3.381   3.896   1.704
   12LYS     CE  250   3.248   4.008   1.573
   12LYS    HE2  251   3.279   3.952   1.484
   12LYS    HE3  252   3.140   4.025   1.566
   12LYS     NZ  253   3.321   4.136   1.584
   12LYS    HZ1  254   3.421   4.122   1.591
   12LYS    HZ2  255   3.300   4.195   1.504
   12LYS    HZ3  256   3.290   4.187   1.666
   12LYS      C  257   3.161   3.480   1.656
   12LYS      O  258   3.207   3.366   1.671
   13NHE      N  259   3.134   3.527   1.536
   13NHE    HN1  260   3.094   3.619   1.526
   13NHE    HN2  261   3.161   3.474   1.455
   14Cl-    Cl-  262   3.429   4.288   1.983
   15Cl-    Cl-  263   2.799   3.950   1.725
   16Cl-    Cl-  264   1.378   1.667   3.623
   17Cl-    Cl-  265   2.221   2.854   4.531
   18Cl-    Cl-  266   2.862   2.882   2.145
   19WAT      O  267   4.627   4.639   4.619
   19WAT     H1  268   4.631   4.544   4.609
   19WAT     H2  269   4.588   4.670   4.537
   20WAT      O  270   4.451   4.808   4.802
   20WAT     H1  271   4.384   4.755   4.845
   20WAT     H2  272   4.522   4.746   4.784
   21WAT      O  273   3.843   4.850   4.898
   21WAT     H1  274   3.774   4.803   4.945
   21WAT     H2  275   3.917   4.850   4.958
   22WAT      O  276   3.852   5.242   4.924
   22WAT     H1  277   3.893   5.159   4.898
   22WAT     H2  278   3.920   5.308   4.907
   23WAT      O  279   3.699   4.336   4.273
   23WAT     H1  280   3.606   4.358   4.269
   23WAT     H2  281   3.723   4.316   4.182
   24WAT      O  282   3.479   4.575   4.852
   24WAT     H1  283   3.551   4.513   4.864
   24WAT     H2  284   3.502   4.624   4.774
   25WAT      O  285   4.381   5.071   4.816
   25WAT     H1  286   4.398   4.978   4.801
   25WAT     H2  287   4.452   5.100   4.873
   26WAT      O  288   3.613   4.144   5.051
   26WAT     H1  289   3.606   4.052   5.076
   26WAT     H2  290   3.555   4.190   5.111
   27WAT      O  291   4.493   4.358   4.827
   27WAT     H1  292   4.547   4.282   4.848
   27WAT     H2  293   4.509   4.375   4.734
   28WAT      O  294   3.916   4.194   4.382
   28WAT     H1  295   3.936   4.276   4.428
   28WAT     H2  296   3.824   4.203   4.356
   29WAT      O  297   3.673   4.382   4.911
   29WAT     H1  298   3.756   4.403   4.955
   29WAT     H2  299   3.646   4.299   4.949
   30WAT      O  300   4.103   4.500   4.818
   30WAT     H1  301   4.165   4.550   4.871
   30WAT     H2  302   4.146   4.416   4.803
   31WAT      O  303   3.927   3.944   5.242
   31WAT     H1  304   3.932   4.008   5.171
   31WAT     H2  305   3.840   3.904   5.231
   32WAT      O  306   4.566   4.963   4.380
   32WAT     H1  307   4.500   5.004   4.324
   32WAT     H2  308   4.595   5.034   4.438
   33WAT      O  309   4.060   4.925   5.065
   33WAT     H1  310   4.020   4.984   5.129
   33WAT     H2  311   4.077   4.981   4.989
   34WAT      O  312   3.891   4.126   5.043
   34WAT     H1  313   3.926   4.213   5.025
   34WAT     H2  314   3.796   4.138   5.045
   35WAT      O  315   3.978   5.126   5.238
   35WAT     H1  316   4.036   5.195   5.207
   35WAT     H2  317   3.890   5.160   5.221
   36WAT      O  318   3.504   5.025   4.134
   36WAT     H1  319   3.469   5.075   4.061
   36WAT     H2  320   3.520   5.090   4.203
   37WAT      O  321   4.258   3.875   4.670
   37WAT     H1  322   4.287   3.817   4.599
   37WAT     H2  323   4.164   3.888   4.653
   38WAT      O  324   4.505   4.685   4.359
   38WAT     H1  325   4.409   4.685   4.366
   38WAT     H2  326   4.528   4.777   4.348
   39WAT      O  327   4.500   4.302   4.027
   39WAT     H1  328   4.413   4.316   4.064
   39WAT     H2  329   4.532   4.390   4.006
   40WAT      O  330   4.057   4.725   4.622
   40WAT     H1  331   4.025   4.651   4.570
   40WAT     H2  332   4.074   4.689   4.708
   41WAT      O  333   4.106   5.084   4.845
   41WAT     H1  334   4.077   5.046   4.762
   41WAT     H2  335   4.200   5.094   4.835
   42WAT      O  336   3.931   4.404   5.010
   42WAT     H1  337   3.982   4.431   4.934
   42WAT     H2  338   3.969   4.453   5.083
   43WAT      O  339   4.022   5.082   5.502
   43WAT     H1  340   3.934   5.092   5.538
   43WAT     H2  341   4.011   5.090   5.408
   44WAT      O  342   4.727   4.767   4.090
   44WAT     H1  343   4.767   4.680   4.087
   44WAT     H2  344   4.798   4.825   4.118
   45WAT      O  345   3.904   4.767   5.357
   45WAT     H1  346   3.881   4.856   5.385
   45WAT     H2  347   3.820   4.725   5.340
   46WAT      O  348   4.514   5.253   4.497
   46WAT     H1  349   4.569   5.319   4.455
   46WAT     H2  350   4.533   5.261   4.590
   47WAT      O  351   4.077   5.353   5.586
   47WAT     H1  352   4.073   5.394   5.500
   47WAT     H2  353   4.076   5.259   5.568
   48WAT      O  354   3.727   4.619   4.383
   48WAT     H1  355   3.722   4.692   4.321
   48WAT     H2  356   3.708   4.542   4.330
   49WAT      O  357   3.488   4.933   4.962
   49WAT     H1  358   3.484   4.947   4.868
   49WAT     H2  359   3.557   4.867   4.974
   50WAT      O  360   3.611   5.109   4.591
   50WAT     H1  361   3.589   5.132   4.501
   50WAT     H2  362   3.701   5.076   4.586
   51WAT      O  363   3.499   5.051   5.216
   51WAT     H1  364   3.497   5.006   5.132
   51WAT     H2  365   3.558   4.999   5.270
   52WAT      O  366   3.980   3.963   4.717
   52WAT     H1  367   3.936   4.043   4.690
   52WAT     H2  368   4.028   3.988   4.796
   53WAT      O  369   4.400   4.242   5.280
   53WAT     H1  370   4.342   4.263   5.353
   53WAT     H2  371   4.363   4.161   5.243
   54WAT      O  372   4.617   4.518   5.585
   54WAT     H1  373   4.641   4.427   5.566
   54WAT     H2  374   4.696   4.556   5.623
   55WAT      O  375   4.279   3.920   4.200
   55WAT     H1  376   4.214   3.918   4.270
   55WAT     H2  377   4.294   3.828   4.178
   56WAT      O  378   4.186   4.010   4.902
   56WAT     H1  379   4.203   4.102   4.882
   56WAT     H2  380   4.234   3.962   4.835
   57WAT      O  381   3.955   4.473   4.497
   57WAT     H1  382   3.924   4.436   4.580
   57WAT     H2  383   3.878   4.516   4.459
   58WAT      O  384   4.666   4.461   4.345
   58WAT     H1  385   4.613   4.540   4.340
   58WAT     H2  386   4.726   4.468   4.270
   59WAT      O  387   4.200   4.559   5.552
   59WAT     H1  388   4.198   4.466   5.529
   59WAT     H2  389   4.286   4.589   5.522
   60WAT      O  390   4.554   4.340   4.562
   60WAT     H1  391   4.585   4.371   4.478
   60WAT     H2  392   4.560   4.244   4.556
   61WAT      O  393   3.718   4.204   5.371
   61WAT     H1  394   3.668   4.283   5.388
   61WAT     H2  395   3.653   4.133   5.376
   62WAT      O  396   3.444   3.989   4.775
   62WAT     H1  397   3.419   4.053   4.841
   62WAT     H2  398   3.511   3.935   4.817
   63WAT      O  399   3.474   4.391   3.884
   63WAT     H1  400   3.464   4.484   3.904
   63WAT     H2  401   3.413   4.375   3.811
   64WAT      O  402   4.591   4.600   4.963
   64WAT     H1  403   4.508   4.626   5.005
   64WAT     H2  404   4.573   4.513   4.927
   65WAT      O  405   4.240   4.260   4.798
   65WAT     H1  406   4.247   4.227   4.709
   65WAT     H2  407   4.327   4.294   4.818
   66WAT      O  408   3.820   4.245   4.693
   66WAT     H1  409   3.788   4.295   4.767
   66WAT     H2  410   3.741   4.211   4.651
   67WAT      O  411   4.252   4.361   4.119
   67WAT     H1  412   4.244   4.363   4.215
   67WAT     H2  413   4.214   4.444   4.090
   68WAT      O  414   4.637   4.133   4.900
   68WAT     H1  415   4.655   4.179   4.982
   68WAT     H2  416   4.602   4.048   4.927
   69WAT      O  417   4.145   4.599   4.024
   69WAT     H1  418   4.098   4.546   3.960
   69WAT     H2  419   4.219   4.636   3.975
   70WAT      O  420   3.662   4.971   5.431
   70WAT     H1  421   3.621   4.907   5.489
   70WAT     H2  422   3.680   5.046   5.487
   71WAT      O  423   4.275   4.669   4.976
   71WAT     H1  424   4.299   4.609   5.047
   71WAT     H2  425   4.241   4.746   5.020
   72WAT      O  426   3.568   4.137   4.585
   72WAT     H1  427   3.529   4.095   4.661
   72WAT     H2  428   3.569   4.069   4.518
   73WAT      O  429   4.051   4.565   5.207
   73WAT     H1  430   4.021   4.648   5.244
   73WAT     H2  431   4.147   4.569   5.214
   74WAT      O  432   3.916   4.992   4.274
   74WAT     H1  433   3.837   4.938   4.265
   74WAT     H2  434   3.986   4.939   4.239
   75WAT      O  435   4.526   4.032   4.263
   75WAT     H1  436   4.443   3.988   4.246
   75WAT     H2  437   4.521   4.114   4.213
   76WAT      O  438   4.517   4.903   5.442
   76WAT     H1  439   4.518   4.814   5.405
   76WAT     H2  440   4.440   4.905   5.498
   77WAT      O  441   3.905   4.965   4.650
   77WAT     H1  442   3.956   4.891   4.618
   77WAT     H2  443   3.866   4.934   4.731
   78WAT      O  444   4.410   5.088   4.164
   78WAT     H1  445   4.435   5.165   4.114
   78WAT     H2  446   4.323   5.109   4.199
   79WAT      O  447   3.650   4.666   5.323
   79WAT     H1  448   3.605   4.719   5.389
   79WAT     H2  449   3.636   4.575   5.351
   80WAT      O  450   3.971   4.698   5.617
   80WAT     H1  451   3.949   4.713   5.525
   80WAT     H2  452   4.054   4.650   5.615
   81WAT      O  453   4.510   5.172   5.404
   81WAT     H1  454   4.518   5.077   5.407
   81WAT     H2  455   4.443   5.192   5.468
   82WAT      O  456   4.678   5.017   4.686
   82WAT     H1  457   4.722   4.947   4.638
   82WAT     H2  458   4.595   4.978   4.714
   83WAT      O  459   4.284   5.086   4.442
   83WAT     H1  460   4.359   5.141   4.465
   83WAT     H2  461   4.210   5.147   4.442
   84WAT      O  462   3.499   4.648   3.984
   84WAT     H1  463   3.587   4.664   4.017
   84WAT     H2  464   3.462   4.735   3.972
   85WAT      O  465   4.237   4.800   4.408
   85WAT     H1  466   4.266   4.889   4.428
   85WAT     H2  467   4.187   4.773   4.485
   86WAT      O  468   4.444   5.346   5.121
   86WAT     H1  469   4.502   5.358   5.196
   86WAT     H2  470   4.477   5.267   5.077
   87WAT      O  471   3.824   3.822   4.449
   87WAT     H1  472   3.790   3.808   4.537
   87WAT     H2  473   3.748   3.849   4.398
   88WAT      O  474   4.588   5.146   4.988
   88WAT     H1  475   4.644   5.070   5.005
   88WAT     H2  476   4.649   5.216   4.966
   89WAT      O  477   4.756   5.233   5.305
   89WAT     H1  478   4.793   5.280   5.380
   89WAT     H2  479   4.669   5.207   5.335
   90WAT      O  480   3.518   4.004   5.389
   90WAT     H1  481   3.441   4.016   5.444
   90WAT     H2  482   3.569   3.937   5.434
   91WAT      O  483   3.551   5.401   5.459
   91WAT     H1  484   3.540   5.308   5.478
   91WAT     H2  485   3.462   5.431   5.437
   92WAT      O  486   4.157   5.314   4.112
   92WAT     H1  487   4.139   5.390   4.057
   92WAT     H2  488   4.071   5.277   4.129
   93WAT      O  489   3.702   4.841   4.196
   93WAT     H1  490   3.633   4.903   4.175
   93WAT     H2  491   3.748   4.827   4.113
   94WAT      O  492   4.650   4.233   5.150
   94WAT     H1  493   4.705   4.183   5.210
   94WAT     H2  494   4.573   4.256   5.202
   95WAT      O  495   4.439   5.308   4.004
   95WAT     H1  496   4.454   5.292   3.910
   95WAT     H2  497   4.344   5.306   4.013
   96WAT      O  498   4.197   4.369   4.383
   96WAT     H1  499   4.126   4.416   4.427
   96WAT     H2  500   4.232   4.310   4.450
   97WAT      O  501   4.347   4.519   5.190
   97WAT     H1  502   4.405   4.566   5.250
   97WAT     H2  503   4.370   4.427   5.201
   98WAT      O  504   4.601   4.056   4.529
   98WAT     H1  505   4.578   4.043   4.437
   98WAT     H2  506   4.696   4.055   4.530
   99WAT      O  507   4.012   4.208   4.122
   99WAT     H1  508   4.100   4.244   4.110
   99WAT     H2  509   3.991   4.223   4.214
  100WAT      O  510   3.901   4.833   3.976
  100WAT     H1  511   3.981   4.831   4.029
  100WAT     H2  512   3.925   4.785   3.897
  101WAT      O  513   3.773   4.577   4.053
  101WAT     H1  514   3.775   4.481   4.047
  101WAT     H2  515   3.866   4.602   4.056
  102WAT      O  516   3.535   5.202   4.344
  102WAT     H1  517   3.445   5.234   4.339
  102WAT     H2  518   3.589   5.278   4.319
  103WAT      O  519   3.542   4.771   5.571
  103WAT     H1  520   3.584   4.706   5.627
  103WAT     H2  521   3.451   4.775   5.603
  104WAT      O  522   4.220   5.028   3.906
  104WAT     H1  523   4.215   4.978   3.987
  104WAT     H2  524   4.215   4.962   3.836
  105WAT      O  525   4.251   4.908   5.510
  105WAT     H1  526   4.168   4.953   5.524
  105WAT     H2  527   4.245   4.872   5.422
  106WAT      O  528   4.535   4.928   3.976
  106WAT     H1  529   4.492   4.980   4.044
  106WAT     H2  530   4.600   4.876   4.023
  107WAT      O  531   4.108   4.825   4.167
  107WAT     H1  532   4.157   4.821   4.249
  107WAT     H2  533   4.127   4.742   4.124
  108WAT      O  534   3.911   4.426   5.441
  108WAT     H1  535   3.873   4.376   5.369
  108WAT     H2  536   3.985   4.473   5.400
  109WAT      O  537   4.366   4.719   3.911
  109WAT     H1  538   4.418   4.668   3.849
  109WAT     H2  539   4.418   4.797   3.928
  110WAT      O  540   3.989   4.123   5.451
  110WAT     H1  541   3.970   4.059   5.382
  110WAT     H2  542   3.911   4.179   5.451
  111WAT      O  543   4.255   3.990   5.164
  111WAT     H1  544   4.214   3.995   5.077
  111WAT     H2  545   4.187   3.954   5.221
  112WAT      O  546   4.275   4.870   5.228
  112WAT     H1  547   4.332   4.945   5.212
  112WAT     H2  548   4.195   4.891   5.179
  113WAT      O  549   4.520   4.631   5.364
  113WAT     H1  550   4.546   4.589   5.446
  113WAT     H2  551   4.602   4.646   5.318
  114WAT      O  552   4.743   4.709   5.242
  114WAT     H1  553   4.728   4.725   5.148
  114WAT     H2  554   4.801   4.780   5.269
  115WAT      O  555   3.999   4.429   3.870
  115WAT     H1  556   3.973   4.341   3.896
  115WAT     H2  557   3.979   4.433   3.776
  116WAT      O  558   4.213   4.291   5.490
  116WAT     H1  559   4.250   4.255   5.571
  116WAT     H2  560   4.131   4.244   5.478
  117WAT      O  561   4.683   4.261   5.527
  117WAT     H1  562   4.621   4.193   5.498
  117WAT     H2  563   4.760   4.212   5.557
  118WAT      O  564   4.737   3.914   4.108
  118WAT     H1  565   4.771   3.838   4.154
  118WAT     H2  566   4.673   3.953   4.169
  119WAT      O  567   3.889   4.160   3.850
  119WAT     H1  568   3.923   4.135   3.765
  119WAT     H2  569   3.950   4.121   3.913
  120WAT      O  570   4.208   4.043   3.954
  120WAT     H1  571   4.161   3.973   3.909
  120WAT     H2  572   4.227   4.007   4.041
  121WAT      O  573   3.788   5.078   3.936
  121WAT     H1  574   3.825   5.132   4.006
  121WAT     H2  575   3.828   4.992   3.949
  122WAT      O  576   3.497   5.345   4.706
  122WAT     H1  577   3.536   5.267   4.666
  122WAT     H2  578   3.564   5.374   4.768
  123WAT      O  579   3.974   5.187   4.464
  123WAT     H1  580   3.941   5.157   4.549
  123WAT     H2  581   3.955   5.114   4.404
  124WAT      O  582   3.530   4.690   4.592
  124WAT     H1  583   3.465   4.668   4.525
  124WAT     H2  584   3.614   4.678   4.549
  125WAT      O  585   3.648   4.731   5.054
  125WAT     H1  586   3.663   4.714   5.147
  125WAT     H2  587   3.586   4.663   5.027
  126WAT      O  588   3.585   4.431   5.448
  126WAT     H1  589   3.499   4.411   5.487
  126WAT     H2  590   3.644   4.435   5.523
  127WAT      O  591   3.455   4.410   4.183
  127WAT     H1  592   3.367   4.445   4.196
  127WAT     H2  593   3.488   4.455   4.105
  128WAT      O  594   3.717   4.317   3.995
  128WAT     H1  595   3.771   4.259   3.942
  128WAT     H2  596   3.636   4.327   3.945
  129WAT      O  597   3.667   3.927   3.885
  129WAT     H1  598   3.736   3.968   3.937
  129WAT     H2  599   3.706   3.914   3.799
  130WAT      O  600   3.647   3.840   4.881
  130WAT     H1  601   3.719   3.800   4.833
  130WAT     H2  602   3.686   3.868   4.964
  131WAT      O  603   3.621   3.877   5.165
  131WAT     H1  604   3.581   3.921   5.241
  131WAT     H2  605   3.590   3.787   5.171
  132WAT      O  606   4.152   5.324   5.138
  132WAT     H1  607   4.122   5.356   5.053
  132WAT     H2  608   4.246   5.343   5.140
  133WAT      O  609   4.374   3.988   5.499
  133WAT     H1  610   4.357   4.024   5.586
  133WAT     H2  611   4.469   3.985   5.493
  134WAT      O  612   4.651   3.975   5.481
  134WAT     H1  613   4.689   3.965   5.393
  134WAT     H2  614   4.689   3.904   5.532
  135WAT      O  615   3.685   3.815   5.479
  135WAT     H1  616   3.746   3.788   5.411
  135WAT     H2  617   3.686   3.743   5.542
  136WAT      O  618   3.761   5.478   5.291
  136WAT     H1  619   3.698   5.466   5.362
  136WAT     H2  620   3.760   5.395   5.243
  137WAT      O  621   4.716   3.825   5.123
  137WAT     H1  622   4.638   3.853   5.074
  137WAT     H2  623   4.685   3.751   5.176
  138WAT      O  624   3.729   5.223   5.175
  138WAT     H1  625   3.648   5.173   5.176
  138WAT     H2  626   3.748   5.237   5.083
  139WAT      O  627   4.098   5.416   4.882
  139WAT     H1  628   4.135   5.377   4.803
  139WAT     H2  629   4.139   5.502   4.888
  140WAT      O  630   4.480   3.899   5.000
  140WAT     H1  631   4.412   3.945   5.048
  140WAT     H2  632   4.438   3.817   4.972
  141WAT      O  633   3.624   3.935   4.251
  141WAT     H1  634   3.701   3.951   4.197
  141WAT     H2  635   3.563   4.006   4.229
  142WAT      O  636   4.258   4.142   4.551
  142WAT     H1  637   4.193   4.091   4.503
  142WAT     H2  638   4.326   4.079   4.575
  143WAT      O  639   4.726   3.813   4.659
  143WAT     H1  640   4.776   3.852   4.731
  143WAT     H2  641   4.649   3.869   4.649
  144WAT      O  642   3.697   5.411   4.253
  144WAT     H1  643   3.668   5.461   4.176
  144WAT     H2  644   3.719   5.478   4.318
  145WAT      O  645   3.851   3.980   4.100
  145WAT     H1  646   3.905   3.902   4.110
  145WAT     H2  647   3.912   4.053   4.116
  146WAT      O  648   4.075   3.967   4.404
  146WAT     H1  649   4.011   3.898   4.424
  146WAT     H2  650   4.023   4.045   4.390
  147WAT      O  651   4.094   3.891   5.654
  147WAT     H1  652   4.060   3.945   5.582
  147WAT     H2  653   4.117   3.808   5.612
  148WAT      O  654   3.891   5.228   4.141
  148WAT     H1  655   3.831   5.283   4.192
  148WAT     H2  656   3.904   5.150   4.195
  149WAT      O  657   4.625   4.639   2.743
  149WAT     H1  658   4.631   4.544   2.731
  149WAT     H2  659   4.588   4.671   2.660
  150WAT      O  660   4.452   4.808   2.926
  150WAT     H1  661   4.384   4.754   2.967
  150WAT     H2  662   4.522   4.746   2.905
  151WAT      O  663   3.844   4.849   3.020
  151WAT     H1  664   3.774   4.803   3.067
  151WAT     H2  665   3.917   4.851   3.081
  152WAT      O  666   3.852   5.242   3.046
  152WAT     H1  667   3.892   5.159   3.021
  152WAT     H2  668   3.920   5.307   3.030
  153WAT      O  669   3.696   4.326   2.394
  153WAT     H1  670   3.606   4.358   2.388
  153WAT     H2  671   3.723   4.314   2.303
  154WAT      O  672   3.479   4.574   2.974
  154WAT     H1  673   3.551   4.513   2.986
  154WAT     H2  674   3.502   4.624   2.896
  155WAT      O  675   4.381   5.071   2.938
  155WAT     H1  676   4.398   4.978   2.924
  155WAT     H2  677   4.452   5.100   2.995
  156WAT      O  678   3.614   4.146   3.174
  156WAT     H1  679   3.605   4.054   3.200
  156WAT     H2  680   3.554   4.193   3.232
  157WAT      O  681   4.492   4.359   2.950
  157WAT     H1  682   4.547   4.283   2.971
  157WAT     H2  683   4.509   4.376   2.857
  158WAT      O  684   3.911   4.192   2.507
  158WAT     H1  685   3.937   4.273   2.551
  158WAT     H2  686   3.823   4.211   2.472
  159WAT      O  687   3.675   4.381   3.032
  159WAT     H1  688   3.755   4.403   3.078
  159WAT     H2  689   3.646   4.299   3.072
  160WAT      O  690   4.102   4.500   2.941
  160WAT     H1  691   4.165   4.550   2.993
  160WAT     H2  692   4.146   4.416   2.925
  161WAT      O  693   3.927   3.943   3.365
  161WAT     H1  694   3.934   4.008   3.295
  161WAT     H2  695   3.839   3.907   3.354
  162WAT      O  696   4.566   4.964   2.503
  162WAT     H1  697   4.500   5.004   2.447
  162WAT     H2  698   4.595   5.035   2.560
  163WAT      O  699   4.061   4.925   3.188
  163WAT     H1  700   4.020   4.984   3.252
  163WAT     H2  701   4.078   4.980   3.112
  164WAT      O  702   3.892   4.126   3.167
  164WAT     H1  703   3.926   4.213   3.147
  164WAT     H2  704   3.797   4.138   3.169
  165WAT      O  705   3.979   5.125   3.359
  165WAT     H1  706   4.036   5.196   3.328
  165WAT     H2  707   3.890   5.159   3.346
  166WAT      O  708   3.506   5.025   2.256
  166WAT     H1  709   3.469   5.075   2.183
  166WAT     H2  710   3.520   5.090   2.325
  167WAT      O  711   4.257   3.874   2.794
  167WAT     H1  712   4.289   3.817   2.723
  167WAT     H2  713   4.165   3.889   2.773
  168WAT      O  714   4.504   4.685   2.483
  168WAT     H1  715   4.409   4.686   2.489
  168WAT     H2  716   4.528   4.777   2.470
  169WAT      O  717   4.500   4.302   2.150
  169WAT     H1  718   4.413   4.316   2.187
  169WAT     H2  719   4.532   4.389   2.128
  170WAT      O  720   4.057   4.725   2.744
  170WAT     H1  721   4.025   4.652   2.693
  170WAT     H2  722   4.073   4.689   2.831
  171WAT      O  723   4.106   5.083   2.968
  171WAT     H1  724   4.076   5.047   2.885
  171WAT     H2  725   4.200   5.094   2.957
  172WAT      O  726   3.932   4.403   3.133
  172WAT     H1  727   3.983   4.432   3.057
  172WAT     H2  728   3.969   4.452   3.207
  173WAT      O  729   4.020   5.078   3.622
  173WAT     H1  730   3.932   5.096   3.656
  173WAT     H2  731   4.012   5.088   3.528
  174WAT      O  732   4.727   4.767   2.213
  174WAT     H1  733   4.767   4.680   2.208
  174WAT     H2  734   4.798   4.825   2.239
  175WAT      O  735   3.901   4.769   3.486
  175WAT     H1  736   3.878   4.860   3.505
  175WAT     H2  737   3.818   4.727   3.465
  176WAT      O  738   4.514   5.252   2.619
  176WAT     H1  739   4.569   5.319   2.577
  176WAT     H2  740   4.534   5.261   2.713
  177WAT      O  741   4.090   5.348   3.708
  177WAT     H1  742   4.074   5.393   3.624
  177WAT     H2  743   4.067   5.256   3.690
  178WAT      O  744   3.728   4.619   2.504
  178WAT     H1  745   3.723   4.694   2.445
  178WAT     H2  746   3.703   4.544   2.449
  179WAT      O  747   3.488   4.932   3.085
  179WAT     H1  748   3.484   4.946   2.990
  179WAT     H2  749   3.557   4.867   3.096
  180WAT      O  750   3.611   5.109   2.714
  180WAT     H1  751   3.589   5.132   2.623
  180WAT     H2  752   3.701   5.076   2.708
  181WAT      O  753   3.499   5.053   3.339
  181WAT     H1  754   3.498   5.005   3.256
  181WAT     H2  755   3.556   5.002   3.396
  182WAT      O  756   3.977   3.966   2.839
  182WAT     H1  757   3.936   4.049   2.814
  182WAT     H2  758   4.029   3.987   2.917
  183WAT      O  759   4.402   4.241   3.404
  183WAT     H1  760   4.343   4.264   3.476
  183WAT     H2  761   4.362   4.163   3.365
  184WAT      O  762   4.614   4.519   3.717
  184WAT     H1  763   4.637   4.429   3.692
  184WAT     H2  764   4.698   4.560   3.738
  185WAT      O  765   4.280   3.920   2.322
  185WAT     H1  766   4.215   3.918   2.392
  185WAT     H2  767   4.295   3.828   2.301
  186WAT      O  768   4.186   4.010   3.025
  186WAT     H1  769   4.202   4.102   3.004
  186WAT     H2  770   4.235   3.961   2.958
  187WAT      O  771   3.954   4.471   2.618
  187WAT     H1  772   3.923   4.439   2.703
  187WAT     H2  773   3.879   4.517   2.580
  188WAT      O  774   4.666   4.461   2.468
  188WAT     H1  775   4.613   4.540   2.463
  188WAT     H2  776   4.726   4.467   2.394
  189WAT      O  777   4.200   4.561   3.670
  189WAT     H1  778   4.199   4.467   3.652
  189WAT     H2  779   4.285   4.591   3.636
  190WAT      O  780   4.553   4.339   2.685
  190WAT     H1  781   4.585   4.371   2.600
  190WAT     H2  782   4.561   4.244   2.678
  191WAT      O  783   3.718   4.203   3.495
  191WAT     H1  784   3.671   4.283   3.518
  191WAT     H2  785   3.651   4.134   3.497
  192WAT      O  786   4.368   4.199   3.806
  192WAT     H1  787   4.306   4.159   3.868
  192WAT     H2  788   4.437   4.235   3.862
  193WAT      O  789   3.450   3.993   2.892
  193WAT     H1  790   3.408   4.047   2.959
  193WAT     H2  791   3.507   3.934   2.941
  194WAT      O  792   4.592   4.599   3.088
  194WAT     H1  793   4.508   4.627   3.124
  194WAT     H2  794   4.573   4.513   3.050
  195WAT      O  795   4.240   4.260   2.922
  195WAT     H1  796   4.247   4.227   2.832
  195WAT     H2  797   4.327   4.294   2.941
  196WAT      O  798   3.820   4.240   2.819
  196WAT     H1  799   3.790   4.295   2.891
  196WAT     H2  800   3.739   4.213   2.774
  197WAT      O  801   4.252   4.361   2.242
  197WAT     H1  802   4.244   4.363   2.337
  197WAT     H2  803   4.214   4.444   2.212
  198WAT      O  804   4.636   4.133   3.022
  198WAT     H1  805   4.655   4.179   3.104
  198WAT     H2  806   4.603   4.048   3.050
  199WAT      O  807   4.145   4.599   2.147
  199WAT     H1  808   4.099   4.546   2.083
  199WAT     H2  809   4.219   4.636   2.098
  200WAT      O  810   3.662   4.971   3.550
  200WAT     H1  811   3.620   4.913   3.614
  200WAT     H2  812   3.693   5.045   3.601
  201WAT      O  813   4.275   4.668   3.098
  201WAT     H1  814   4.299   4.610   3.170
  201WAT     H2  815   4.241   4.746   3.141
  202WAT      O  816   3.567   4.142   2.707
  202WAT     H1  817   3.528   4.104   2.785
  202WAT     H2  818   3.576   4.068   2.646
  203WAT      O  819   4.050   4.564   3.333
  203WAT     H1  820   4.021   4.650   3.366
  203WAT     H2  821   4.146   4.568   3.337
  204WAT      O  822   3.917   4.993   2.398
  204WAT     H1  823   3.838   4.940   2.387
  204WAT     H2  824   3.987   4.939   2.361
  205WAT      O  825   4.526   4.033   2.385
  205WAT     H1  826   4.443   3.989   2.367
  205WAT     H2  827   4.521   4.114   2.335
  206WAT      O  828   4.511   4.904   3.566
  206WAT     H1  829   4.515   4.816   3.528
  206WAT     H2  830   4.436   4.902   3.625
  207WAT      O  831   3.906   4.966   2.773
  207WAT     H1  832   3.957   4.891   2.741
  207WAT     H2  833   3.866   4.934   2.854
  208WAT      O  834   4.410   5.088   2.287
  208WAT     H1  835   4.435   5.165   2.237
  208WAT     H2  836   4.323   5.108   2.321
  209WAT      O  837   3.650   4.665   3.446
  209WAT     H1  838   3.606   4.720   3.511
  209WAT     H2  839   3.634   4.575   3.476
  210WAT      O  840   3.972   4.698   3.739
  210WAT     H1  841   3.954   4.725   3.649
  210WAT     H2  842   4.056   4.652   3.734
  211WAT      O  843   4.507   5.173   3.529
  211WAT     H1  844   4.508   5.078   3.529
  211WAT     H2  845   4.441   5.197   3.593
  212WAT      O  846   4.678   5.017   2.809
  212WAT     H1  847   4.722   4.947   2.760
  212WAT     H2  848   4.595   4.978   2.836
  213WAT      O  849   4.284   5.086   2.565
  213WAT     H1  850   4.359   5.141   2.588
  213WAT     H2  851   4.210   5.146   2.564
  214WAT      O  852   3.497   4.662   2.132
  214WAT     H1  853   3.592   4.673   2.143
  214WAT     H2  854   3.467   4.744   2.093
  215WAT      O  855   4.238   4.799   2.531
  215WAT     H1  856   4.266   4.889   2.550
  215WAT     H2  857   4.187   4.774   2.608
  216WAT      O  858   4.444   5.345   3.243
  216WAT     H1  859   4.501   5.358   3.319
  216WAT     H2  860   4.478   5.267   3.200
  217WAT      O  861   3.818   3.806   2.574
  217WAT     H1  862   3.802   3.814   2.668
  217WAT     H2  863   3.758   3.868   2.534
  218WAT      O  864   4.588   5.146   3.110
  218WAT     H1  865   4.645   5.071   3.128
  218WAT     H2  866   4.648   5.217   3.089
  219WAT      O  867   4.754   5.235   3.429
  219WAT     H1  868   4.794   5.276   3.506
  219WAT     H2  869   4.667   5.208   3.459
  220WAT      O  870   3.518   3.999   3.511
  220WAT     H1  871   3.442   4.021   3.565
  220WAT     H2  872   3.566   3.934   3.563
  221WAT      O  873   3.543   5.404   3.598
  221WAT     H1  874   3.552   5.309   3.596
  221WAT     H2  875   3.462   5.421   3.551
  222WAT      O  876   4.339   5.224   3.750
  222WAT     H1  877   4.304   5.153   3.804
  222WAT     H2  878   4.266   5.286   3.743
  223WAT      O  879   4.157   5.315   2.235
  223WAT     H1  880   4.139   5.390   2.179
  223WAT     H2  881   4.071   5.277   2.252
  224WAT      O  882   3.704   4.843   2.321
  224WAT     H1  883   3.632   4.902   2.298
  224WAT     H2  884   3.747   4.825   2.237
  225WAT      O  885   4.650   4.233   3.273
  225WAT     H1  886   4.706   4.183   3.333
  225WAT     H2  887   4.573   4.255   3.326
  226WAT      O  888   4.439   5.308   2.126
  226WAT     H1  889   4.453   5.293   2.033
  226WAT     H2  890   4.344   5.306   2.136
  227WAT      O  891   4.196   4.368   2.505
  227WAT     H1  892   4.126   4.417   2.549
  227WAT     H2  893   4.232   4.311   2.573
  228WAT      O  894   4.347   4.519   3.313
  228WAT     H1  895   4.405   4.566   3.373
  228WAT     H2  896   4.370   4.427   3.324
  229WAT      O  897   4.601   4.055   2.651
  229WAT     H1  898   4.578   4.043   2.559
  229WAT     H2  899   4.696   4.056   2.652
  230WAT      O  900   4.013   4.206   2.245
  230WAT     H1  901   4.100   4.243   2.232
  230WAT     H2  902   3.992   4.226   2.336
  231WAT      O  903   3.902   4.835   2.098
  231WAT     H1  904   3.981   4.831   2.152
  231WAT     H2  905   3.925   4.786   2.019
  232WAT      O  906   3.777   4.579   2.176
  232WAT     H1  907   3.771   4.484   2.166
  232WAT     H2  908   3.871   4.598   2.177
  233WAT      O  909   3.535   5.202   2.466
  233WAT     H1  910   3.445   5.234   2.461
  233WAT     H2  911   3.588   5.278   2.441
  234WAT      O  912   4.650   5.115   3.792
  234WAT     H1  913   4.590   5.122   3.718
  234WAT     H2  914   4.611   5.050   3.849
  235WAT      O  915   3.537   4.770   3.691
  235WAT     H1  916   3.584   4.701   3.738
  235WAT     H2  917   3.457   4.782   3.741
  236WAT      O  918   4.221   5.028   2.028
  236WAT     H1  919   4.214   4.978   2.109
  236WAT     H2  920   4.214   4.963   1.959
  237WAT      O  921   4.239   4.905   3.638
  237WAT     H1  922   4.161   4.960   3.637
  237WAT     H2  923   4.247   4.873   3.548
  238WAT      O  924   4.535   4.928   2.099
  238WAT     H1  925   4.492   4.980   2.166
  238WAT     H2  926   4.600   4.876   2.146
  239WAT      O  927   3.724   4.571   3.773
  239WAT     H1  928   3.728   4.553   3.867
  239WAT     H2  929   3.811   4.604   3.752
  240WAT      O  930   4.109   4.825   2.289
  240WAT     H1  931   4.157   4.821   2.372
  240WAT     H2  932   4.127   4.742   2.246
  241WAT      O  933   3.932   4.418   3.572
  241WAT     H1  934   3.865   4.388   3.510
  241WAT     H2  935   3.991   4.472   3.519
  242WAT      O  936   4.366   4.718   2.034
  242WAT     H1  937   4.418   4.668   1.971
  242WAT     H2  938   4.418   4.797   2.051
  243WAT      O  939   3.978   4.116   3.585
  243WAT     H1  940   3.969   4.057   3.511
  243WAT     H2  941   3.913   4.185   3.570
  244WAT      O  942   4.252   3.991   3.288
  244WAT     H1  943   4.216   3.997   3.200
  244WAT     H2  944   4.183   3.951   3.340
  245WAT      O  945   4.274   4.873   3.355
  245WAT     H1  946   4.333   4.945   3.334
  245WAT     H2  947   4.195   4.891   3.304
  246WAT      O  948   4.519   4.631   3.490
  246WAT     H1  949   4.548   4.586   3.570
  246WAT     H2  950   4.600   4.648   3.442
  247WAT      O  951   4.740   4.712   3.365
  247WAT     H1  952   4.729   4.723   3.271
  247WAT     H2  953   4.803   4.779   3.391
  248WAT      O  954   4.002   4.427   1.992
  248WAT     H1  955   3.970   4.342   2.020
  248WAT     H2  956   3.979   4.433   1.899
  249WAT      O  957   4.214   4.293   3.605
  249WAT     H1  958   4.263   4.262   3.682
  249WAT     H2  959   4.131   4.245   3.609
  250WAT      O  960   4.683   4.263   3.648
  250WAT     H1  961   4.616   4.199   3.627
  250WAT     H2  962   4.757   4.212   3.683
  251WAT      O  963   4.736   3.914   2.231
  251WAT     H1  964   4.771   3.838   2.277
  251WAT     H2  965   4.674   3.953   2.292
  252WAT      O  966   3.890   4.158   1.973
  252WAT     H1  967   3.926   4.134   1.888
  252WAT     H2  968   3.950   4.120   2.037
  253WAT      O  969   4.208   4.044   2.077
  253WAT     H1  970   4.162   3.974   2.031
  253WAT     H2  971   4.227   4.006   2.163
  254WAT      O  972   3.789   5.079   2.058
  254WAT     H1  973   3.825   5.132   2.128
  254WAT     H2  974   3.827   4.992   2.071
  255WAT      O  975   3.498   5.345   2.829
  255WAT     H1  976   3.535   5.267   2.788
  255WAT     H2  977   3.564   5.374   2.891
  256WAT      O  978   3.975   5.186   2.588
  256WAT     H1  979   3.941   5.156   2.672
  256WAT     H2  980   3.955   5.115   2.527
  257WAT      O  981   3.530   4.688   2.714
  257WAT     H1  982   3.464   4.670   2.647
  257WAT     H2  983   3.614   4.678   2.669
  258WAT      O  984   3.648   4.730   3.177
  258WAT     H1  985   3.662   4.714   3.270
  258WAT     H2  986   3.584   4.664   3.150
  259WAT      O  987   3.589   4.428   3.574
  259WAT     H1  988   3.501   4.414   3.608
  259WAT     H2  989   3.639   4.462   3.648
  260WAT      O  990   3.456   4.410   2.310
  260WAT     H1  991   3.367   4.443   2.321
  260WAT     H2  992   3.484   4.444   2.225
  261WAT      O  993   3.719   4.323   2.114
  261WAT     H1  994   3.772   4.259   2.066
  261WAT     H2  995   3.633   4.320   2.072
  262WAT      O  996   3.670   3.908   2.011
  262WAT     H1  997   3.723   3.966   2.068
  262WAT     H2  998   3.719   3.904   1.929
  263WAT      O  999   3.646   3.834   3.007
  263WAT     H1 1000   3.718   3.797   2.956
  263WAT     H2 1001   3.688   3.873   3.084
  264WAT      O 1002   3.627   3.883   3.289
  264WAT     H1 1003   3.581   3.923   3.362
  264WAT     H2 1004   3.606   3.790   3.296
  265WAT      O 1005   3.772   5.183   3.695
  265WAT     H1 1006   3.770   5.147   3.783
  265WAT     H2 1007   3.786   5.277   3.707
  266WAT      O 1008   4.152   5.325   3.261
  266WAT     H1 1009   4.123   5.356   3.175
  266WAT     H2 1010   4.246   5.343   3.263
  267WAT      O 1011   4.376   3.974   3.645
  267WAT     H1 1012   4.362   4.052   3.697
  267WAT     H2 1013   4.467   3.980   3.617
  268WAT      O 1014   4.647   3.971   3.599
  268WAT     H1 1015   4.693   3.965   3.515
  268WAT     H2 1016   4.694   3.910   3.656
  269WAT      O 1017   3.686   3.811   3.609
  269WAT     H1 1018   3.745   3.792   3.536
  269WAT     H2 1019   3.705   3.742   3.673
  270WAT      O 1020   3.762   5.477   3.418
  270WAT     H1 1021   3.696   5.464   3.486
  270WAT     H2 1022   3.761   5.395   3.368
  271WAT      O 1023   4.716   3.826   3.246
  271WAT     H1 1024   4.639   3.853   3.197
  271WAT     H2 1025   4.686   3.751   3.298
  272WAT      O 1026   3.728   5.226   3.298
  272WAT     H1 1027   3.649   5.173   3.301
  272WAT     H2 1028   3.748   5.236   3.205
  273WAT      O 1029   4.098   5.416   3.005
  273WAT     H1 1030   4.135   5.377   2.925
  273WAT     H2 1031   4.139   5.502   3.010
  274WAT      O 1032   4.481   3.898   3.122
  274WAT     H1 1033   4.412   3.946   3.170
  274WAT     H2 1034   4.439   3.817   3.095
  275WAT      O 1035   4.258   4.142   2.675
  275WAT     H1 1036   4.194   4.091   2.625
  275WAT     H2 1037   4.327   4.080   2.696
  276WAT      O 1038   4.725   3.812   2.782
  276WAT     H1 1039   4.776   3.853   2.852
  276WAT     H2 1040   4.650   3.870   2.771
  277WAT      O 1041   3.697   5.411   2.375
  277WAT     H1 1042   3.668   5.460   2.298
  277WAT     H2 1043   3.719   5.478   2.440
  278WAT      O 1044   3.851   3.981   2.226
  278WAT     H1 1045   3.904   3.902   2.234
  278WAT     H2 1046   3.912   4.053   2.239
  279WAT      O 1047   4.077   3.967   2.528
  279WAT     H1 1048   4.015   3.896   2.543
  279WAT     H2 1049   4.022   4.044   2.512
  280WAT      O 1050   4.071   3.884   3.770
  280WAT     H1 1051   4.065   3.943   3.695
  280WAT     H2 1052   4.130   3.814   3.741
  281WAT      O 1053   3.892   5.228   2.264
  281WAT     H1 1054   3.831   5.282   2.315
  281WAT     H2 1055   3.904   5.150   2.317
  282WAT      O 1056   4.623   4.638   0.866
  282WAT     H1 1057   4.632   4.544   0.853
  282WAT     H2 1058   4.589   4.671   0.782
  283WAT      O 1059   4.452   4.808   1.049
  283WAT     H1 1060   4.384   4.754   1.089
  283WAT     H2 1061   4.522   4.746   1.026
  284WAT      O 1062   3.844   4.849   1.143
  284WAT     H1 1063   3.774   4.803   1.190
  284WAT     H2 1064   3.917   4.851   1.204
  285WAT      O 1065   3.852   5.242   1.168
  285WAT     H1 1066   3.893   5.159   1.144
  285WAT     H2 1067   3.920   5.308   1.152
  286WAT      O 1068   3.698   4.341   0.518
  286WAT     H1 1069   3.604   4.357   0.512
  286WAT     H2 1070   3.724   4.318   0.428
  287WAT      O 1071   3.479   4.575   1.096
  287WAT     H1 1072   3.551   4.514   1.108
  287WAT     H2 1073   3.503   4.625   1.017
  288WAT      O 1074   4.381   5.071   1.061
  288WAT     H1 1075   4.398   4.978   1.046
  288WAT     H2 1076   4.452   5.100   1.118
  289WAT      O 1077   3.612   4.142   1.291
  289WAT     H1 1078   3.604   4.050   1.315
  289WAT     H2 1079   3.593   4.190   1.372
  290WAT      O 1080   4.492   4.359   1.072
  290WAT     H1 1081   4.547   4.283   1.093
  290WAT     H2 1082   4.509   4.376   0.980
  291WAT      O 1083   3.917   4.195   0.627
  291WAT     H1 1084   3.935   4.278   0.671
  291WAT     H2 1085   3.825   4.200   0.602
  292WAT      O 1086   3.675   4.383   1.153
  292WAT     H1 1087   3.756   4.403   1.200
  292WAT     H2 1088   3.647   4.299   1.189
  293WAT      O 1089   4.102   4.499   1.064
  293WAT     H1 1090   4.165   4.550   1.116
  293WAT     H2 1091   4.146   4.416   1.048
  294WAT      O 1092   3.930   3.949   1.492
  294WAT     H1 1093   3.931   4.010   1.418
  294WAT     H2 1094   3.853   3.895   1.477
  295WAT      O 1095   4.566   4.964   0.626
  295WAT     H1 1096   4.499   5.004   0.570
  295WAT     H2 1097   4.595   5.035   0.683
  296WAT      O 1098   4.061   4.925   1.311
  296WAT     H1 1099   4.020   4.983   1.374
  296WAT     H2 1100   4.078   4.980   1.234
  297WAT      O 1101   3.890   4.125   1.292
  297WAT     H1 1102   3.930   4.209   1.269
  297WAT     H2 1103   3.796   4.139   1.283
  298WAT      O 1104   3.979   5.125   1.481
  298WAT     H1 1105   4.036   5.196   1.451
  298WAT     H2 1106   3.890   5.159   1.469
  299WAT      O 1107   3.500   5.023   0.383
  299WAT     H1 1108   3.481   5.076   0.305
  299WAT     H2 1109   3.519   5.087   0.451
  300WAT      O 1110   4.256   3.873   0.917
  300WAT     H1 1111   4.288   3.818   0.846
  300WAT     H2 1112   4.164   3.889   0.895
  301WAT      O 1113   4.503   4.684   0.605
  301WAT     H1 1114   4.408   4.687   0.614
  301WAT     H2 1115   4.529   4.776   0.592
  302WAT      O 1116   4.507   4.301   0.297
  302WAT     H1 1117   4.413   4.313   0.314
  302WAT     H2 1118   4.529   4.373   0.238
  303WAT      O 1119   4.057   4.725   0.867
  303WAT     H1 1120   4.025   4.651   0.815
  303WAT     H2 1121   4.073   4.689   0.954
  304WAT      O 1122   4.106   5.082   1.091
  304WAT     H1 1123   4.076   5.047   1.007
  304WAT     H2 1124   4.200   5.094   1.080
  305WAT      O 1125   3.932   4.403   1.257
  305WAT     H1 1126   3.981   4.431   1.180
  305WAT     H2 1127   3.970   4.453   1.329
  306WAT      O 1128   4.020   5.077   1.745
  306WAT     H1 1129   3.933   5.096   1.779
  306WAT     H2 1130   4.012   5.088   1.650
  307WAT      O 1131   4.724   4.763   0.343
  307WAT     H1 1132   4.765   4.679   0.327
  307WAT     H2 1133   4.796   4.823   0.360
  308WAT      O 1134   3.901   4.768   1.609
  308WAT     H1 1135   3.878   4.859   1.628
  308WAT     H2 1136   3.817   4.726   1.589
  309WAT      O 1137   4.515   5.253   0.741
  309WAT     H1 1138   4.571   5.321   0.703
  309WAT     H2 1139   4.532   5.259   0.835
  310WAT      O 1140   4.090   5.348   1.830
  310WAT     H1 1141   4.074   5.393   1.747
  310WAT     H2 1142   4.066   5.257   1.813
  311WAT      O 1143   3.727   4.619   0.629
  311WAT     H1 1144   3.721   4.692   0.567
  311WAT     H2 1145   3.708   4.541   0.576
  312WAT      O 1146   3.488   4.932   1.207
  312WAT     H1 1147   3.485   4.946   1.113
  312WAT     H2 1148   3.557   4.867   1.219
  313WAT      O 1149   3.611   5.109   0.836
  313WAT     H1 1150   3.590   5.132   0.746
  313WAT     H2 1151   3.701   5.076   0.832
  314WAT      O 1152   3.501   5.055   1.461
  314WAT     H1 1153   3.498   5.005   1.379
  314WAT     H2 1154   3.555   5.002   1.519
  315WAT      O 1155   3.978   3.963   0.964
  315WAT     H1 1156   3.937   4.044   0.933
  315WAT     H2 1157   4.029   3.990   1.040
  316WAT      O 1158   4.402   4.241   1.526
  316WAT     H1 1159   4.343   4.264   1.598
  316WAT     H2 1160   4.362   4.163   1.487
  317WAT      O 1161   4.614   4.519   1.840
  317WAT     H1 1162   4.637   4.429   1.815
  317WAT     H2 1163   4.698   4.560   1.861
  318WAT      O 1164   4.293   3.915   0.468
  318WAT     H1 1165   4.211   3.923   0.518
  318WAT     H2 1166   4.283   3.834   0.418
  319WAT      O 1167   4.188   4.010   1.149
  319WAT     H1 1168   4.204   4.102   1.126
  319WAT     H2 1169   4.233   3.960   1.081
  320WAT      O 1170   3.954   4.473   0.742
  320WAT     H1 1171   3.924   4.438   0.825
  320WAT     H2 1172   3.878   4.517   0.704
  321WAT      O 1173   4.671   4.465   0.594
  321WAT     H1 1174   4.614   4.541   0.586
  321WAT     H2 1175   4.720   4.462   0.513
  322WAT      O 1176   4.200   4.560   1.790
  322WAT     H1 1177   4.201   4.466   1.774
  322WAT     H2 1178   4.285   4.591   1.759
  323WAT      O 1179   4.553   4.339   0.807
  323WAT     H1 1180   4.586   4.372   0.724
  323WAT     H2 1181   4.561   4.244   0.800
  324WAT      O 1182   3.672   4.193   1.596
  324WAT     H1 1183   3.662   4.283   1.627
  324WAT     H2 1184   3.679   4.140   1.676
  325WAT      O 1185   4.368   4.200   1.929
  325WAT     H1 1186   4.306   4.160   1.990
  325WAT     H2 1187   4.437   4.235   1.984
  326WAT      O 1188   3.446   3.990   1.018
  326WAT     H1 1189   3.418   4.054   1.085
  326WAT     H2 1190   3.509   3.935   1.063
  327WAT      O 1191   4.592   4.599   1.212
  327WAT     H1 1192   4.508   4.628   1.246
  327WAT     H2 1193   4.574   4.513   1.172
  328WAT      O 1194   4.240   4.260   1.045
  328WAT     H1 1195   4.246   4.226   0.955
  328WAT     H2 1196   4.327   4.294   1.063
  329WAT      O 1197   3.820   4.241   0.942
  329WAT     H1 1198   3.785   4.298   1.011
  329WAT     H2 1199   3.742   4.209   0.896
  330WAT      O 1200   4.248   4.361   0.363
  330WAT     H1 1201   4.247   4.358   0.459
  330WAT     H2 1202   4.212   4.447   0.341
  331WAT      O 1203   4.637   4.133   1.145
  331WAT     H1 1204   4.655   4.179   1.227
  331WAT     H2 1205   4.604   4.048   1.173
  332WAT      O 1206   4.144   4.597   0.267
  332WAT     H1 1207   4.096   4.552   0.199
  332WAT     H2 1208   4.220   4.635   0.222
  333WAT      O 1209   3.662   4.970   1.673
  333WAT     H1 1210   3.620   4.913   1.737
  333WAT     H2 1211   3.692   5.045   1.724
  334WAT      O 1212   4.275   4.668   1.220
  334WAT     H1 1213   4.299   4.610   1.292
  334WAT     H2 1214   4.241   4.746   1.263
  335WAT      O 1215   3.570   4.137   0.830
  335WAT     H1 1216   3.529   4.094   0.905
  335WAT     H2 1217   3.569   4.072   0.760
  336WAT      O 1218   4.050   4.564   1.456
  336WAT     H1 1219   4.021   4.650   1.488
  336WAT     H2 1220   4.145   4.568   1.459
  337WAT      O 1221   3.914   4.994   0.519
  337WAT     H1 1222   3.836   4.939   0.513
  337WAT     H2 1223   3.985   4.941   0.484
  338WAT      O 1224   4.531   4.036   0.509
  338WAT     H1 1225   4.447   3.991   0.495
  338WAT     H2 1226   4.524   4.115   0.455
  339WAT      O 1227   4.511   4.904   1.688
  339WAT     H1 1228   4.515   4.816   1.650
  339WAT     H2 1229   4.436   4.902   1.747
  340WAT      O 1230   3.905   4.966   0.895
  340WAT     H1 1231   3.957   4.891   0.863
  340WAT     H2 1232   3.865   4.934   0.976
  341WAT      O 1233   4.405   5.092   0.411
  341WAT     H1 1234   4.420   5.164   0.351
  341WAT     H2 1235   4.316   5.106   0.444
  342WAT      O 1236   3.651   4.663   1.571
  342WAT     H1 1237   3.606   4.719   1.634
  342WAT     H2 1238   3.629   4.574   1.599
  343WAT      O 1239   3.973   4.697   1.862
  343WAT     H1 1240   3.954   4.726   1.773
  343WAT     H2 1241   4.058   4.653   1.856
  344WAT      O 1242   4.508   5.173   1.652
  344WAT     H1 1243   4.508   5.078   1.651
  344WAT     H2 1244   4.441   5.197   1.716
  345WAT      O 1245   4.678   5.017   0.931
  345WAT     H1 1246   4.722   4.947   0.882
  345WAT     H2 1247   4.595   4.978   0.958
  346WAT      O 1248   4.284   5.086   0.690
  346WAT     H1 1249   4.359   5.141   0.711
  346WAT     H2 1250   4.210   5.146   0.686
  347WAT      O 1251   3.502   4.645   0.239
  347WAT     H1 1252   3.596   4.655   0.255
  347WAT     H2 1253   3.468   4.734   0.237
  348WAT      O 1254   4.240   4.798   0.655
  348WAT     H1 1255   4.267   4.888   0.672
  348WAT     H2 1256   4.187   4.773   0.731
  349WAT      O 1257   4.444   5.345   1.366
  349WAT     H1 1258   4.501   5.358   1.442
  349WAT     H2 1259   4.478   5.267   1.323
  350WAT      O 1260   3.824   3.822   0.695
  350WAT     H1 1261   3.787   3.808   0.782
  350WAT     H2 1262   3.750   3.849   0.641
  351WAT      O 1263   4.588   5.146   1.233
  351WAT     H1 1264   4.645   5.070   1.250
  351WAT     H2 1265   4.648   5.217   1.212
  352WAT      O 1266   4.754   5.235   1.551
  352WAT     H1 1267   4.794   5.276   1.627
  352WAT     H2 1268   4.667   5.208   1.581
  353WAT      O 1269   3.543   5.404   1.720
  353WAT     H1 1270   3.552   5.309   1.719
  353WAT     H2 1271   3.461   5.421   1.673
  354WAT      O 1272   4.339   5.224   1.873
  354WAT     H1 1273   4.304   5.153   1.927
  354WAT     H2 1274   4.266   5.285   1.865
  355WAT      O 1275   4.155   5.312   0.368
  355WAT     H1 1276   4.148   5.383   0.305
  355WAT     H2 1277   4.065   5.280   0.379
  356WAT      O 1278   3.699   4.842   0.446
  356WAT     H1 1279   3.629   4.905   0.429
  356WAT     H2 1280   3.739   4.827   0.360
  357WAT      O 1281   4.650   4.233   1.396
  357WAT     H1 1282   4.706   4.182   1.455
  357WAT     H2 1283   4.573   4.255   1.448
  358WAT      O 1284   4.197   4.369   0.628
  358WAT     H1 1285   4.126   4.416   0.672
  358WAT     H2 1286   4.232   4.310   0.695
  359WAT      O 1287   4.346   4.519   1.436
  359WAT     H1 1288   4.405   4.566   1.496
  359WAT     H2 1289   4.371   4.427   1.446
  360WAT      O 1290   4.601   4.054   0.774
  360WAT     H1 1291   4.577   4.043   0.682
  360WAT     H2 1292   4.697   4.057   0.774
  361WAT      O 1293   4.010   4.212   0.365
  361WAT     H1 1294   4.099   4.245   0.356
  361WAT     H2 1295   3.991   4.220   0.459
  362WAT      O 1296   3.780   4.592   0.294
  362WAT     H1 1297   3.768   4.498   0.281
  362WAT     H2 1298   3.874   4.602   0.308
  363WAT      O 1299   3.536   5.202   0.588
  363WAT     H1 1300   3.446   5.234   0.585
  363WAT     H2 1301   3.590   5.278   0.564
  364WAT      O 1302   4.650   5.115   1.914
  364WAT     H1 1303   4.590   5.122   1.840
  364WAT     H2 1304   4.610   5.050   1.971
  365WAT      O 1305   3.538   4.770   1.816
  365WAT     H1 1306   3.581   4.696   1.859
  365WAT     H2 1307   3.454   4.780   1.861
  366WAT      O 1308   4.239   4.904   1.761
  366WAT     H1 1309   4.161   4.960   1.760
  366WAT     H2 1310   4.247   4.873   1.670
  367WAT      O 1311   4.545   4.939   0.226
  367WAT     H1 1312   4.491   4.977   0.295
  367WAT     H2 1313   4.599   4.873   0.271
  368WAT      O 1314   3.728   4.570   1.893
  368WAT     H1 1315   3.722   4.551   1.986
  368WAT     H2 1316   3.815   4.608   1.881
  369WAT      O 1317   4.098   4.825   0.421
  369WAT     H1 1318   4.155   4.815   0.498
  369WAT     H2 1319   4.116   4.747   0.368
  370WAT      O 1320   3.934   4.405   1.686
  370WAT     H1 1321   3.860   4.403   1.626
  370WAT     H2 1322   3.994   4.469   1.649
  371WAT      O 1323   3.973   4.115   1.712
  371WAT     H1 1324   3.966   4.061   1.633
  371WAT     H2 1325   3.933   4.198   1.687
  372WAT      O 1326   4.252   3.992   1.412
  372WAT     H1 1327   4.217   3.997   1.323
  372WAT     H2 1328   4.183   3.949   1.462
  373WAT      O 1329   4.274   4.873   1.478
  373WAT     H1 1330   4.333   4.945   1.456
  373WAT     H2 1331   4.195   4.891   1.426
  374WAT      O 1332   4.519   4.630   1.613
  374WAT     H1 1333   4.548   4.586   1.693
  374WAT     H2 1334   4.600   4.648   1.565
  375WAT      O 1335   4.740   4.712   1.488
  375WAT     H1 1336   4.729   4.723   1.394
  375WAT     H2 1337   4.803   4.779   1.513
  376WAT      O 1338   4.215   4.292   1.728
  376WAT     H1 1339   4.265   4.263   1.804
  376WAT     H2 1340   4.132   4.246   1.735
  377WAT      O 1341   4.683   4.263   1.771
  377WAT     H1 1342   4.617   4.198   1.749
  377WAT     H2 1343   4.757   4.212   1.804
  378WAT      O 1344   4.740   3.915   0.357
  378WAT     H1 1345   4.770   3.837   0.403
  378WAT     H2 1346   4.674   3.954   0.415
  379WAT      O 1347   3.774   5.060   0.199
  379WAT     H1 1348   3.812   5.132   0.247
  379WAT     H2 1349   3.849   5.004   0.175
  380WAT      O 1350   3.497   5.345   0.951
  380WAT     H1 1351   3.536   5.266   0.911
  380WAT     H2 1352   3.564   5.375   1.013
  381WAT      O 1353   3.973   5.187   0.710
  381WAT     H1 1354   3.941   5.156   0.794
  381WAT     H2 1355   3.955   5.115   0.649
  382WAT      O 1356   3.530   4.690   0.837
  382WAT     H1 1357   3.465   4.668   0.771
  382WAT     H2 1358   3.614   4.678   0.793
  383WAT      O 1359   3.648   4.730   1.300
  383WAT     H1 1360   3.661   4.714   1.394
  383WAT     H2 1361   3.583   4.665   1.275
  384WAT      O 1362   3.593   4.426   1.705
  384WAT     H1 1363   3.505   4.423   1.743
  384WAT     H2 1364   3.647   4.462   1.775
  385WAT      O 1365   3.454   4.411   0.414
  385WAT     H1 1366   3.367   4.442   0.440
  385WAT     H2 1367   3.485   4.477   0.351
  386WAT      O 1368   3.722   4.328   0.234
  386WAT     H1 1369   3.785   4.264   0.200
  386WAT     H2 1370   3.647   4.321   0.175
  387WAT      O 1371   3.646   3.834   1.130
  387WAT     H1 1372   3.714   3.796   1.074
  387WAT     H2 1373   3.695   3.876   1.201
  388WAT      O 1374   3.607   3.883   1.415
  388WAT     H1 1375   3.603   3.896   1.510
  388WAT     H2 1376   3.618   3.788   1.405
  389WAT      O 1377   3.772   5.183   1.816
  389WAT     H1 1378   3.770   5.147   1.905
  389WAT     H2 1379   3.786   5.277   1.829
  390WAT      O 1380   4.152   5.325   1.384
  390WAT     H1 1381   4.123   5.356   1.298
  390WAT     H2 1382   4.246   5.343   1.385
  391WAT      O 1383   4.376   3.974   1.768
  391WAT     H1 1384   4.362   4.053   1.821
  391WAT     H2 1385   4.467   3.980   1.739
  392WAT      O 1386   4.647   3.971   1.722
  392WAT     H1 1387   4.692   3.965   1.638
  392WAT     H2 1388   4.694   3.910   1.779
  393WAT      O 1389   3.762   5.476   1.541
  393WAT     H1 1390   3.696   5.464   1.608
  393WAT     H2 1391   3.761   5.395   1.490
  394WAT      O 1392   4.716   3.826   1.369
  394WAT     H1 1393   4.639   3.853   1.319
  394WAT     H2 1394   4.686   3.751   1.421
  395WAT      O 1395   3.729   5.226   1.420
  395WAT     H1 1396   3.649   5.173   1.423
  395WAT     H2 1397   3.747   5.236   1.327
  396WAT      O 1398   4.099   5.416   1.127
  396WAT     H1 1399   4.134   5.378   1.047
  396WAT     H2 1400   4.139   5.502   1.133
  397WAT      O 1401   4.481   3.898   1.245
  397WAT     H1 1402   4.412   3.946   1.291
  397WAT     H2 1403   4.439   3.817   1.216
  398WAT      O 1404   3.621   3.935   0.496
  398WAT     H1 1405   3.700   3.953   0.444
  398WAT     H2 1406   3.561   4.006   0.473
  399WAT      O 1407   4.257   4.142   0.798
  399WAT     H1 1408   4.194   4.091   0.747
  399WAT     H2 1409   4.327   4.080   0.817
  400WAT      O 1410   4.725   3.812   0.905
  400WAT     H1 1411   4.776   3.853   0.975
  400WAT     H2 1412   4.650   3.870   0.892
  401WAT      O 1413   3.695   5.411   0.497
  401WAT     H1 1414   3.671   5.461   0.419
  401WAT     H2 1415   3.720   5.478   0.561
  402WAT      O 1416   3.847   3.985   0.354
  402WAT     H1 1417   3.899   3.905   0.353
  402WAT     H2 1418   3.912   4.055   0.352
  403WAT      O 1419   4.074   3.967   0.652
  403WAT     H1 1420   4.010   3.898   0.668
  403WAT     H2 1421   4.022   4.045   0.635
  404WAT      O 1422   4.072   3.885   1.893
  404WAT     H1 1423   4.064   3.942   1.817
  404WAT     H2 1424   4.128   3.813   1.863
  405WAT      O 1425   3.891   5.230   0.385
  405WAT     H1 1426   3.831   5.284   0.437
  405WAT     H2 1427   3.903   5.151   0.437
  406WAT      O 1428   4.627   2.762   4.619
  406WAT     H1 1429   4.631   2.667   4.609
  406WAT     H2 1430   4.588   2.793   4.537
  407WAT      O 1431   4.451   2.930   4.802
  407WAT     H1 1432   4.384   2.877   4.845
  407WAT     H2 1433   4.522   2.869   4.784
  408WAT      O 1434   3.844   2.973   4.898
  408WAT     H1 1435   3.774   2.926   4.944
  408WAT     H2 1436   3.918   2.972   4.959
  409WAT      O 1437   3.857   3.363   4.929
  409WAT     H1 1438   3.893   3.280   4.897
  409WAT     H2 1439   3.922   3.428   4.902
  410WAT      O 1440   3.698   2.453   4.273
  410WAT     H1 1441   3.606   2.479   4.269
  410WAT     H2 1442   3.723   2.438   4.182
  411WAT      O 1443   3.479   2.697   4.852
  411WAT     H1 1444   3.551   2.635   4.864
  411WAT     H2 1445   3.502   2.746   4.774
  412WAT      O 1446   4.474   3.602   4.662
  412WAT     H1 1447   4.411   3.634   4.598
  412WAT     H2 1448   4.559   3.629   4.628
  413WAT      O 1449   4.380   3.192   4.817
  413WAT     H1 1450   4.398   3.100   4.802
  413WAT     H2 1451   4.452   3.223   4.873
  414WAT      O 1452   3.613   2.267   5.051
  414WAT     H1 1453   3.606   2.175   5.076
  414WAT     H2 1454   3.555   2.313   5.111
  415WAT      O 1455   4.492   2.481   4.827
  415WAT     H1 1456   4.547   2.405   4.848
  415WAT     H2 1457   4.509   2.498   4.734
  416WAT      O 1458   3.916   2.317   4.382
  416WAT     H1 1459   3.936   2.398   4.428
  416WAT     H2 1460   3.825   2.327   4.355
  417WAT      O 1461   3.673   2.504   4.911
  417WAT     H1 1462   3.755   2.525   4.955
  417WAT     H2 1463   3.646   2.421   4.949
  418WAT      O 1464   4.103   2.622   4.818
  418WAT     H1 1465   4.165   2.672   4.871
  418WAT     H2 1466   4.146   2.538   4.803
  419WAT      O 1467   3.926   2.066   5.242
  419WAT     H1 1468   3.932   2.130   5.171
  419WAT     H2 1469   3.840   2.026   5.231
  420WAT      O 1470   4.567   3.088   4.381
  420WAT     H1 1471   4.499   3.126   4.325
  420WAT     H2 1472   4.594   3.159   4.439
  421WAT      O 1473   4.061   3.048   5.065
  421WAT     H1 1474   4.019   3.105   5.129
  421WAT     H2 1475   4.077   3.105   4.989
  422WAT      O 1476   3.891   2.248   5.043
  422WAT     H1 1477   3.926   2.336   5.025
  422WAT     H2 1478   3.796   2.260   5.045
  423WAT      O 1479   3.977   3.248   5.238
  423WAT     H1 1480   4.034   3.318   5.206
  423WAT     H2 1481   3.888   3.280   5.220
  424WAT      O 1482   3.507   3.148   4.135
  424WAT     H1 1483   3.471   3.196   4.061
  424WAT     H2 1484   3.522   3.215   4.202
  425WAT      O 1485   4.258   1.998   4.670
  425WAT     H1 1486   4.287   1.940   4.599
  425WAT     H2 1487   4.164   2.011   4.653
  426WAT      O 1488   4.505   2.808   4.359
  426WAT     H1 1489   4.409   2.808   4.366
  426WAT     H2 1490   4.528   2.900   4.348
  427WAT      O 1491   4.501   2.425   4.027
  427WAT     H1 1492   4.413   2.438   4.064
  427WAT     H2 1493   4.531   2.512   4.005
  428WAT      O 1494   4.057   2.848   4.622
  428WAT     H1 1495   4.025   2.773   4.570
  428WAT     H2 1496   4.074   2.811   4.708
  429WAT      O 1497   4.107   3.211   4.845
  429WAT     H1 1498   4.076   3.169   4.764
  429WAT     H2 1499   4.202   3.217   4.834
  430WAT      O 1500   3.931   2.527   5.010
  430WAT     H1 1501   3.982   2.554   4.934
  430WAT     H2 1502   3.969   2.575   5.084
  431WAT      O 1503   4.023   3.204   5.502
  431WAT     H1 1504   3.935   3.214   5.540
  431WAT     H2 1505   4.010   3.212   5.408
  432WAT      O 1506   4.727   2.890   4.088
  432WAT     H1 1507   4.766   2.802   4.087
  432WAT     H2 1508   4.798   2.947   4.118
  433WAT      O 1509   3.904   2.890   5.357
  433WAT     H1 1510   3.880   2.979   5.385
  433WAT     H2 1511   3.820   2.847   5.340
  434WAT      O 1512   4.525   3.368   4.493
  434WAT     H1 1513   4.572   3.442   4.454
  434WAT     H2 1514   4.512   3.394   4.584
  435WAT      O 1515   4.072   3.480   5.585
  435WAT     H1 1516   4.080   3.525   5.500
  435WAT     H2 1517   4.076   3.387   5.562
  436WAT      O 1518   3.728   2.742   4.382
  436WAT     H1 1519   3.722   2.815   4.321
  436WAT     H2 1520   3.705   2.665   4.329
  437WAT      O 1521   3.487   3.054   4.963
  437WAT     H1 1522   3.485   3.071   4.869
  437WAT     H2 1523   3.557   2.990   4.974
  438WAT      O 1524   3.611   3.230   4.592
  438WAT     H1 1525   3.589   3.256   4.502
  438WAT     H2 1526   3.701   3.199   4.586
  439WAT      O 1527   4.601   3.645   5.295
  439WAT     H1 1528   4.637   3.627   5.382
  439WAT     H2 1529   4.513   3.680   5.312
  440WAT      O 1530   4.783   3.675   4.236
  440WAT     H1 1531   4.768   3.644   4.325
  440WAT     H2 1532   4.791   3.595   4.184
  441WAT      O 1533   4.039   3.645   4.399
  441WAT     H1 1534   4.017   3.552   4.402
  441WAT     H2 1535   3.959   3.689   4.428
  442WAT      O 1536   4.731   3.587   4.497
  442WAT     H1 1537   4.779   3.518   4.543
  442WAT     H2 1538   4.745   3.666   4.549
  443WAT      O 1539   3.499   3.174   5.217
  443WAT     H1 1540   3.497   3.130   5.132
  443WAT     H2 1541   3.559   3.120   5.270
  444WAT      O 1542   3.979   2.085   4.717
  444WAT     H1 1543   3.936   2.166   4.690
  444WAT     H2 1544   4.028   2.110   4.796
  445WAT      O 1545   4.400   2.364   5.280
  445WAT     H1 1546   4.342   2.386   5.353
  445WAT     H2 1547   4.363   2.284   5.243
  446WAT      O 1548   4.617   2.641   5.585
  446WAT     H1 1549   4.641   2.550   5.566
  446WAT     H2 1550   4.696   2.679   5.622
  447WAT      O 1551   4.279   2.042   4.200
  447WAT     H1 1552   4.213   2.041   4.270
  447WAT     H2 1553   4.294   1.950   4.178
  448WAT      O 1554   4.186   2.132   4.902
  448WAT     H1 1555   4.202   2.224   4.882
  448WAT     H2 1556   4.234   2.084   4.835
  449WAT      O 1557   3.955   2.596   4.497
  449WAT     H1 1558   3.923   2.560   4.580
  449WAT     H2 1559   3.878   2.639   4.459
  450WAT      O 1560   4.667   2.584   4.345
  450WAT     H1 1561   4.613   2.663   4.340
  450WAT     H2 1562   4.726   2.590   4.270
  451WAT      O 1563   4.200   2.681   5.552
  451WAT     H1 1564   4.197   2.588   5.529
  451WAT     H2 1565   4.286   2.711   5.522
  452WAT      O 1566   4.554   2.462   4.562
  452WAT     H1 1567   4.585   2.494   4.478
  452WAT     H2 1568   4.560   2.367   4.556
  453WAT      O 1569   3.718   2.326   5.371
  453WAT     H1 1570   3.668   2.406   5.388
  453WAT     H2 1571   3.653   2.255   5.376
  454WAT      O 1572   3.444   2.111   4.775
  454WAT     H1 1573   3.419   2.176   4.841
  454WAT     H2 1574   3.511   2.058   4.818
  455WAT      O 1575   3.470   2.513   3.885
  455WAT     H1 1576   3.471   2.605   3.911
  455WAT     H2 1577   3.404   2.509   3.816
  456WAT      O 1578   4.591   2.723   4.963
  456WAT     H1 1579   4.509   2.749   5.005
  456WAT     H2 1580   4.573   2.636   4.927
  457WAT      O 1581   4.240   2.383   4.799
  457WAT     H1 1582   4.247   2.349   4.709
  457WAT     H2 1583   4.327   2.417   4.818
  458WAT      O 1584   3.820   2.366   4.693
  458WAT     H1 1585   3.788   2.417   4.767
  458WAT     H2 1586   3.741   2.333   4.651
  459WAT      O 1587   4.253   2.484   4.119
  459WAT     H1 1588   4.244   2.486   4.215
  459WAT     H2 1589   4.213   2.567   4.090
  460WAT      O 1590   4.637   2.255   4.900
  460WAT     H1 1591   4.655   2.302   4.982
  460WAT     H2 1592   4.602   2.171   4.927
  461WAT      O 1593   4.145   2.722   4.024
  461WAT     H1 1594   4.098   2.668   3.960
  461WAT     H2 1595   4.219   2.758   3.975
  462WAT      O 1596   3.665   3.093   5.431
  462WAT     H1 1597   3.622   3.029   5.488
  462WAT     H2 1598   3.679   3.169   5.487
  463WAT      O 1599   4.275   2.791   4.975
  463WAT     H1 1600   4.299   2.732   5.046
  463WAT     H2 1601   4.241   2.869   5.020
  464WAT      O 1602   3.568   2.259   4.585
  464WAT     H1 1603   3.529   2.219   4.663
  464WAT     H2 1604   3.569   2.190   4.519
  465WAT      O 1605   4.051   2.688   5.207
  465WAT     H1 1606   4.021   2.771   5.244
  465WAT     H2 1607   4.147   2.691   5.215
  466WAT      O 1608   3.916   3.117   4.275
  466WAT     H1 1609   3.838   3.063   4.266
  466WAT     H2 1610   3.986   3.063   4.239
  467WAT      O 1611   4.526   2.155   4.263
  467WAT     H1 1612   4.443   2.111   4.246
  467WAT     H2 1613   4.520   2.237   4.213
  468WAT      O 1614   4.517   3.025   5.442
  468WAT     H1 1615   4.518   2.937   5.405
  468WAT     H2 1616   4.439   3.027   5.498
  469WAT      O 1617   3.908   3.089   4.651
  469WAT     H1 1618   3.957   3.014   4.618
  469WAT     H2 1619   3.865   3.057   4.731
  470WAT      O 1620   4.409   3.210   4.163
  470WAT     H1 1621   4.434   3.290   4.116
  470WAT     H2 1622   4.323   3.231   4.200
  471WAT      O 1623   3.650   2.788   5.323
  471WAT     H1 1624   3.605   2.841   5.388
  471WAT     H2 1625   3.636   2.698   5.351
  472WAT      O 1626   3.971   2.820   5.617
  472WAT     H1 1627   3.949   2.836   5.526
  472WAT     H2 1628   4.054   2.772   5.615
  473WAT      O 1629   4.511   3.295   5.405
  473WAT     H1 1630   4.519   3.200   5.408
  473WAT     H2 1631   4.442   3.315   5.468
  474WAT      O 1632   4.682   3.138   4.688
  474WAT     H1 1633   4.722   3.067   4.637
  474WAT     H2 1634   4.596   3.103   4.713
  475WAT      O 1635   4.285   3.209   4.441
  475WAT     H1 1636   4.361   3.262   4.465
  475WAT     H2 1637   4.212   3.270   4.442
  476WAT      O 1638   3.496   2.765   3.983
  476WAT     H1 1639   3.584   2.789   4.013
  476WAT     H2 1640   3.456   2.849   3.960
  477WAT      O 1641   4.238   2.922   4.408
  477WAT     H1 1642   4.266   3.011   4.428
  477WAT     H2 1643   4.187   2.895   4.485
  478WAT      O 1644   4.445   3.468   5.116
  478WAT     H1 1645   4.504   3.500   5.185
  478WAT     H2 1646   4.485   3.386   5.087
  479WAT      O 1647   3.824   1.944   4.450
  479WAT     H1 1648   3.791   1.931   4.538
  479WAT     H2 1649   3.748   1.970   4.399
  480WAT      O 1650   4.589   3.268   4.989
  480WAT     H1 1651   4.646   3.192   5.005
  480WAT     H2 1652   4.649   3.338   4.965
  481WAT      O 1653   4.760   3.346   5.307
  481WAT     H1 1654   4.794   3.402   5.377
  481WAT     H2 1655   4.670   3.327   5.334
  482WAT      O 1656   3.560   3.710   4.034
  482WAT     H1 1657   3.593   3.783   3.981
  482WAT     H2 1658   3.532   3.751   4.116
  483WAT      O 1659   3.518   2.127   5.389
  483WAT     H1 1660   3.441   2.139   5.444
  483WAT     H2 1661   3.569   2.060   5.434
  484WAT      O 1662   3.557   3.524   5.463
  484WAT     H1 1663   3.541   3.431   5.479
  484WAT     H2 1664   3.472   3.559   5.435
  485WAT      O 1665   4.158   3.431   4.123
  485WAT     H1 1666   4.154   3.505   4.064
  485WAT     H2 1667   4.067   3.400   4.129
  486WAT      O 1668   3.703   2.964   4.197
  486WAT     H1 1669   3.633   3.026   4.176
  486WAT     H2 1670   3.747   2.949   4.113
  487WAT      O 1671   4.650   2.355   5.150
  487WAT     H1 1672   4.705   2.305   5.210
  487WAT     H2 1673   4.573   2.378   5.202
  488WAT      O 1674   4.433   3.439   3.998
  488WAT     H1 1675   4.454   3.410   3.909
  488WAT     H2 1676   4.340   3.420   4.008
  489WAT      O 1677   4.197   2.492   4.383
  489WAT     H1 1678   4.126   2.539   4.427
  489WAT     H2 1679   4.232   2.432   4.449
  490WAT      O 1680   4.347   2.642   5.190
  490WAT     H1 1681   4.405   2.688   5.251
  490WAT     H2 1682   4.370   2.549   5.201
  491WAT      O 1683   4.601   2.178   4.529
  491WAT     H1 1684   4.578   2.165   4.437
  491WAT     H2 1685   4.696   2.177   4.530
  492WAT      O 1686   4.305   3.695   4.458
  492WAT     H1 1687   4.344   3.687   4.371
  492WAT     H2 1688   4.212   3.679   4.445
  493WAT      O 1689   4.012   2.331   4.122
  493WAT     H1 1690   4.100   2.366   4.110
  493WAT     H2 1691   3.992   2.347   4.214
  494WAT      O 1692   3.902   2.956   3.976
  494WAT     H1 1693   3.981   2.954   4.030
  494WAT     H2 1694   3.925   2.907   3.897
  495WAT      O 1695   3.774   2.700   4.051
  495WAT     H1 1696   3.775   2.604   4.045
  495WAT     H2 1697   3.866   2.724   4.056
  496WAT      O 1698   3.861   3.722   4.757
  496WAT     H1 1699   3.927   3.660   4.786
  496WAT     H2 1700   3.909   3.803   4.739
  497WAT      O 1701   3.537   3.327   4.344
  497WAT     H1 1702   3.446   3.358   4.340
  497WAT     H2 1703   3.590   3.403   4.320
  498WAT      O 1704   4.156   3.623   3.933
  498WAT     H1 1705   4.234   3.669   3.900
  498WAT     H2 1706   4.122   3.576   3.857
  499WAT      O 1707   3.541   2.893   5.571
  499WAT     H1 1708   3.583   2.829   5.627
  499WAT     H2 1709   3.451   2.898   5.602
  500WAT      O 1710   4.221   3.152   3.906
  500WAT     H1 1711   4.214   3.102   3.987
  500WAT     H2 1712   4.215   3.085   3.837
  501WAT      O 1713   4.251   3.030   5.511
  501WAT     H1 1714   4.167   3.075   5.524
  501WAT     H2 1715   4.245   2.995   5.422
  502WAT      O 1716   4.536   3.052   3.976
  502WAT     H1 1717   4.491   3.101   4.044
  502WAT     H2 1718   4.600   2.998   4.023
  503WAT      O 1719   4.109   2.948   4.167
  503WAT     H1 1720   4.157   2.943   4.249
  503WAT     H2 1721   4.127   2.865   4.123
  504WAT      O 1722   3.912   2.549   5.441
  504WAT     H1 1723   3.873   2.499   5.369
  504WAT     H2 1724   3.985   2.596   5.400
  505WAT      O 1725   4.366   2.842   3.911
  505WAT     H1 1726   4.418   2.790   3.849
  505WAT     H2 1727   4.419   2.920   3.927
  506WAT      O 1728   3.989   2.245   5.451
  506WAT     H1 1729   3.970   2.181   5.382
  506WAT     H2 1730   3.911   2.302   5.451
  507WAT      O 1731   4.255   2.112   5.164
  507WAT     H1 1732   4.214   2.117   5.077
  507WAT     H2 1733   4.187   2.076   5.221
  508WAT      O 1734   4.274   2.993   5.229
  508WAT     H1 1735   4.333   3.067   5.212
  508WAT     H2 1736   4.195   3.013   5.179
  509WAT      O 1737   4.520   2.754   5.364
  509WAT     H1 1738   4.546   2.712   5.446
  509WAT     H2 1739   4.602   2.769   5.318
  510WAT      O 1740   4.743   2.832   5.241
  510WAT     H1 1741   4.728   2.848   5.148
  510WAT     H2 1742   4.801   2.902   5.269
  511WAT      O 1743   4.001   2.551   3.869
  511WAT     H1 1744   3.974   2.463   3.896
  511WAT     H2 1745   3.979   2.555   3.776
  512WAT      O 1746   4.092   3.637   5.338
  512WAT     H1 1747   4.015   3.687   5.311
  512WAT     H2 1748   4.106   3.574   5.267
  513WAT      O 1749   4.213   2.413   5.490
  513WAT     H1 1750   4.250   2.377   5.571
  513WAT     H2 1751   4.131   2.367   5.478
  514WAT      O 1752   4.682   2.383   5.527
  514WAT     H1 1753   4.622   2.315   5.499
  514WAT     H2 1754   4.760   2.335   5.557
  515WAT      O 1755   4.737   2.037   4.109
  515WAT     H1 1756   4.771   1.960   4.155
  515WAT     H2 1757   4.673   2.075   4.169
  516WAT      O 1758   3.889   2.283   3.851
  516WAT     H1 1759   3.922   2.257   3.765
  516WAT     H2 1760   3.950   2.243   3.913
  517WAT      O 1761   4.361   3.744   5.366
  517WAT     H1 1762   4.352   3.833   5.398
  517WAT     H2 1763   4.271   3.711   5.361
  518WAT      O 1764   4.208   2.167   3.956
  518WAT     H1 1765   4.163   2.098   3.907
  518WAT     H2 1766   4.227   2.128   4.041
  519WAT      O 1767   4.419   3.677   4.140
  519WAT     H1 1768   4.509   3.710   4.131
  519WAT     H2 1769   4.419   3.596   4.088
  520WAT      O 1770   3.790   3.202   3.931
  520WAT     H1 1771   3.824   3.256   4.003
  520WAT     H2 1772   3.827   3.115   3.947
  521WAT      O 1773   3.503   3.477   4.698
  521WAT     H1 1774   3.543   3.394   4.674
  521WAT     H2 1775   3.539   3.497   4.785
  522WAT      O 1776   3.974   3.316   4.463
  522WAT     H1 1777   3.942   3.285   4.547
  522WAT     H2 1778   3.957   3.243   4.403
  523WAT      O 1779   3.552   3.567   4.962
  523WAT     H1 1780   3.508   3.581   5.046
  523WAT     H2 1781   3.597   3.649   4.945
  524WAT      O 1782   3.530   2.811   4.592
  524WAT     H1 1783   3.465   2.791   4.525
  524WAT     H2 1784   3.614   2.800   4.548
  525WAT      O 1785   3.649   2.853   5.054
  525WAT     H1 1786   3.664   2.836   5.147
  525WAT     H2 1787   3.586   2.786   5.027
  526WAT      O 1788   3.585   2.553   5.448
  526WAT     H1 1789   3.499   2.534   5.486
  526WAT     H2 1790   3.644   2.558   5.523
  527WAT      O 1791   3.457   2.539   4.192
  527WAT     H1 1792   3.367   2.570   4.195
  527WAT     H2 1793   3.492   2.575   4.110
  528WAT      O 1794   3.717   2.439   3.996
  528WAT     H1 1795   3.773   2.382   3.944
  528WAT     H2 1796   3.637   2.447   3.945
  529WAT      O 1797   3.669   2.037   3.888
  529WAT     H1 1798   3.734   2.089   3.934
  529WAT     H2 1799   3.701   2.031   3.798
  530WAT      O 1800   3.647   1.962   4.881
  530WAT     H1 1801   3.719   1.922   4.833
  530WAT     H2 1802   3.686   1.991   4.964
  531WAT      O 1803   3.621   2.000   5.165
  531WAT     H1 1804   3.581   2.044   5.241
  531WAT     H2 1805   3.590   1.910   5.171
  532WAT      O 1806   4.151   3.460   5.135
  532WAT     H1 1807   4.125   3.484   5.046
  532WAT     H2 1808   4.247   3.466   5.135
  533WAT      O 1809   4.374   2.110   5.499
  533WAT     H1 1810   4.357   2.146   5.586
  533WAT     H2 1811   4.469   2.107   5.493
  534WAT      O 1812   4.651   2.098   5.481
  534WAT     H1 1813   4.689   2.088   5.393
  534WAT     H2 1814   4.689   2.026   5.532
  535WAT      O 1815   3.685   1.937   5.479
  535WAT     H1 1816   3.746   1.911   5.411
  535WAT     H2 1817   3.686   1.865   5.542
  536WAT      O 1818   3.762   3.603   5.293
  536WAT     H1 1819   3.694   3.585   5.358
  536WAT     H2 1820   3.765   3.524   5.239
  537WAT      O 1821   4.716   1.947   5.123
  537WAT     H1 1822   4.639   1.976   5.074
  537WAT     H2 1823   4.685   1.873   5.176
  538WAT      O 1824   3.729   3.348   5.175
  538WAT     H1 1825   3.646   3.298   5.178
  538WAT     H2 1826   3.744   3.363   5.082
  539WAT      O 1827   4.093   3.556   4.868
  539WAT     H1 1828   4.136   3.499   4.804
  539WAT     H2 1829   4.160   3.620   4.892
  540WAT      O 1830   4.360   3.649   4.928
  540WAT     H1 1831   4.405   3.628   4.847
  540WAT     H2 1832   4.398   3.590   4.993
  541WAT      O 1833   4.480   2.021   5.000
  541WAT     H1 1834   4.412   2.068   5.048
  541WAT     H2 1835   4.438   1.940   4.972
  542WAT      O 1836   3.562   3.667   4.495
  542WAT     H1 1837   3.544   3.608   4.568
  542WAT     H2 1838   3.475   3.688   4.459
  543WAT      O 1839   3.625   2.053   4.248
  543WAT     H1 1840   3.703   2.066   4.195
  543WAT     H2 1841   3.576   2.135   4.240
  544WAT      O 1842   4.258   2.265   4.551
  544WAT     H1 1843   4.193   2.214   4.503
  544WAT     H2 1844   4.326   2.201   4.575
  545WAT      O 1845   4.726   1.935   4.659
  545WAT     H1 1846   4.776   1.975   4.731
  545WAT     H2 1847   4.649   1.991   4.649
  546WAT      O 1848   3.701   3.536   4.250
  546WAT     H1 1849   3.668   3.585   4.175
  546WAT     H2 1850   3.700   3.600   4.322
  547WAT      O 1851   3.852   2.104   4.104
  547WAT     H1 1852   3.905   2.025   4.110
  547WAT     H2 1853   3.913   2.176   4.116
  548WAT      O 1854   4.075   2.089   4.405
  548WAT     H1 1855   4.011   2.021   4.424
  548WAT     H2 1856   4.023   2.168   4.390
  549WAT      O 1857   4.094   2.014   5.654
  549WAT     H1 1858   4.060   2.068   5.582
  549WAT     H2 1859   4.117   1.931   5.612
  550WAT      O 1860   3.990   3.747   4.129
  550WAT     H1 1861   4.050   3.704   4.069
  550WAT     H2 1862   4.009   3.708   4.214
  551WAT      O 1863   3.891   3.352   4.140
  551WAT     H1 1864   3.829   3.407   4.188
  551WAT     H2 1865   3.901   3.274   4.195
  552WAT      O 1866   4.625   2.762   2.742
  552WAT     H1 1867   4.632   2.667   2.732
  552WAT     H2 1868   4.588   2.793   2.659
  553WAT      O 1869   4.451   2.930   2.925
  553WAT     H1 1870   4.384   2.876   2.967
  553WAT     H2 1871   4.522   2.869   2.905
  554WAT      O 1872   3.846   2.972   3.019
  554WAT     H1 1873   3.773   2.929   3.063
  554WAT     H2 1874   3.918   2.970   3.083
  555WAT      O 1875   3.874   3.362   3.074
  555WAT     H1 1876   3.881   3.281   3.023
  555WAT     H2 1877   3.925   3.426   3.025
  556WAT      O 1878   3.701   2.460   2.396
  556WAT     H1 1879   3.607   2.481   2.392
  556WAT     H2 1880   3.724   2.439   2.305
  557WAT      O 1881   3.478   2.698   2.980
  557WAT     H1 1882   3.549   2.635   2.989
  557WAT     H2 1883   3.500   2.748   2.901
  558WAT      O 1884   4.474   3.603   2.785
  558WAT     H1 1885   4.411   3.635   2.721
  558WAT     H2 1886   4.559   3.628   2.751
  559WAT      O 1887   4.380   3.193   2.939
  559WAT     H1 1888   4.399   3.100   2.925
  559WAT     H2 1889   4.452   3.223   2.994
  560WAT      O 1890   3.615   2.267   3.174
  560WAT     H1 1891   3.604   2.175   3.199
  560WAT     H2 1892   3.553   2.314   3.230
  561WAT      O 1893   4.493   2.482   2.950
  561WAT     H1 1894   4.547   2.406   2.971
  561WAT     H2 1895   4.509   2.498   2.857
  562WAT      O 1896   3.916   2.316   2.505
  562WAT     H1 1897   3.935   2.398   2.551
  562WAT     H2 1898   3.825   2.324   2.479
  563WAT      O 1899   3.674   2.504   3.033
  563WAT     H1 1900   3.756   2.525   3.078
  563WAT     H2 1901   3.646   2.421   3.072
  564WAT      O 1902   4.103   2.622   2.941
  564WAT     H1 1903   4.166   2.672   2.993
  564WAT     H2 1904   4.146   2.538   2.925
  565WAT      O 1905   3.928   2.068   3.366
  565WAT     H1 1906   3.932   2.131   3.295
  565WAT     H2 1907   3.842   2.026   3.355
  566WAT      O 1908   4.566   3.088   2.504
  566WAT     H1 1909   4.500   3.127   2.448
  566WAT     H2 1910   4.594   3.159   2.561
  567WAT      O 1911   4.064   3.048   3.188
  567WAT     H1 1912   4.020   3.105   3.251
  567WAT     H2 1913   4.077   3.103   3.110
  568WAT      O 1914   3.892   2.249   3.167
  568WAT     H1 1915   3.926   2.336   3.147
  568WAT     H2 1916   3.797   2.259   3.168
  569WAT      O 1917   3.977   3.251   3.360
  569WAT     H1 1918   4.037   3.317   3.324
  569WAT     H2 1919   3.891   3.277   3.329
  570WAT      O 1920   4.257   1.997   2.793
  570WAT     H1 1921   4.287   1.940   2.723
  570WAT     H2 1922   4.164   2.011   2.775
  571WAT      O 1923   4.505   2.808   2.482
  571WAT     H1 1924   4.409   2.807   2.489
  571WAT     H2 1925   4.528   2.900   2.470
  572WAT      O 1926   4.501   2.424   2.151
  572WAT     H1 1927   4.413   2.439   2.187
  572WAT     H2 1928   4.531   2.512   2.127
  573WAT      O 1929   4.057   2.847   2.744
  573WAT     H1 1930   4.025   2.773   2.693
  573WAT     H2 1931   4.073   2.811   2.831
  574WAT      O 1932   4.109   3.210   2.967
  574WAT     H1 1933   4.077   3.169   2.886
  574WAT     H2 1934   4.204   3.215   2.954
  575WAT      O 1935   3.931   2.527   3.133
  575WAT     H1 1936   3.982   2.554   3.057
  575WAT     H2 1937   3.970   2.575   3.206
  576WAT      O 1938   4.021   3.198   3.623
  576WAT     H1 1939   3.935   3.223   3.659
  576WAT     H2 1940   4.012   3.211   3.528
  577WAT      O 1941   4.727   2.890   2.212
  577WAT     H1 1942   4.765   2.803   2.209
  577WAT     H2 1943   4.799   2.947   2.240
  578WAT      O 1944   3.906   2.891   3.483
  578WAT     H1 1945   3.884   2.980   3.512
  578WAT     H2 1946   3.822   2.851   3.463
  579WAT      O 1947   4.524   3.369   2.616
  579WAT     H1 1948   4.572   3.442   2.577
  579WAT     H2 1949   4.513   3.394   2.707
  580WAT      O 1950   4.087   3.480   3.708
  580WAT     H1 1951   4.081   3.524   3.623
  580WAT     H2 1952   4.063   3.389   3.690
  581WAT      O 1953   3.727   2.742   2.505
  581WAT     H1 1954   3.722   2.812   2.441
  581WAT     H2 1955   3.708   2.662   2.454
  582WAT      O 1956   3.498   3.070   3.088
  582WAT     H1 1957   3.497   3.076   2.992
  582WAT     H2 1958   3.555   2.995   3.106
  583WAT      O 1959   3.626   3.248   2.717
  583WAT     H1 1960   3.576   3.228   2.639
  583WAT     H2 1961   3.704   3.192   2.710
  584WAT      O 1962   4.601   3.645   3.416
  584WAT     H1 1963   4.638   3.624   3.502
  584WAT     H2 1964   4.514   3.680   3.435
  585WAT      O 1965   4.782   3.675   2.359
  585WAT     H1 1966   4.768   3.644   2.448
  585WAT     H2 1967   4.792   3.595   2.306
  586WAT      O 1968   4.039   3.645   2.522
  586WAT     H1 1969   4.021   3.551   2.524
  586WAT     H2 1970   3.958   3.686   2.551
  587WAT      O 1971   4.730   3.587   2.620
  587WAT     H1 1972   4.780   3.519   2.664
  587WAT     H2 1973   4.745   3.666   2.672
  588WAT      O 1974   3.980   2.085   2.840
  588WAT     H1 1975   3.935   2.165   2.812
  588WAT     H2 1976   4.027   2.111   2.919
  589WAT      O 1977   4.401   2.363   3.404
  589WAT     H1 1978   4.343   2.386   3.476
  589WAT     H2 1979   4.361   2.286   3.364
  590WAT      O 1980   4.614   2.642   3.717
  590WAT     H1 1981   4.636   2.552   3.693
  590WAT     H2 1982   4.699   2.682   3.738
  591WAT      O 1983   4.279   2.042   2.323
  591WAT     H1 1984   4.213   2.041   2.392
  591WAT     H2 1985   4.294   1.950   2.301
  592WAT      O 1986   4.188   2.132   3.026
  592WAT     H1 1987   4.203   2.224   3.004
  592WAT     H2 1988   4.234   2.083   2.958
  593WAT      O 1989   3.955   2.596   2.620
  593WAT     H1 1990   3.924   2.559   2.703
  593WAT     H2 1991   3.878   2.638   2.582
  594WAT      O 1992   4.667   2.584   2.469
  594WAT     H1 1993   4.613   2.663   2.463
  594WAT     H2 1994   4.726   2.589   2.393
  595WAT      O 1995   4.201   2.684   3.670
  595WAT     H1 1996   4.198   2.589   3.653
  595WAT     H2 1997   4.286   2.712   3.636
  596WAT      O 1998   4.553   2.462   2.685
  596WAT     H1 1999   4.585   2.494   2.601
  596WAT     H2 2000   4.560   2.367   2.679
  597WAT      O 2001   3.720   2.327   3.497
  597WAT     H1 2002   3.670   2.405   3.517
  597WAT     H2 2003   3.656   2.256   3.496
  598WAT      O 2004   4.368   2.322   3.806
  598WAT     H1 2005   4.306   2.282   3.867
  598WAT     H2 2006   4.437   2.357   3.862
  599WAT      O 2007   3.444   2.111   2.897
  599WAT     H1 2008   3.417   2.176   2.962
  599WAT     H2 2009   3.510   2.059   2.942
  600WAT      O 2010   3.474   2.516   2.005
  600WAT     H1 2011   3.461   2.608   2.026
  600WAT     H2 2012   3.411   2.497   1.936
  601WAT      O 2013   4.591   2.722   3.088
  601WAT     H1 2014   4.507   2.749   3.125
  601WAT     H2 2015   4.574   2.636   3.050
  602WAT      O 2016   4.240   2.382   2.921
  602WAT     H1 2017   4.247   2.349   2.832
  602WAT     H2 2018   4.328   2.417   2.941
  603WAT      O 2019   3.820   2.366   2.816
  603WAT     H1 2020   3.787   2.418   2.890
  603WAT     H2 2021   3.742   2.332   2.773
  604WAT      O 2022   4.253   2.484   2.242
  604WAT     H1 2023   4.245   2.486   2.337
  604WAT     H2 2024   4.213   2.567   2.213
  605WAT      O 2025   4.636   2.256   3.023
  605WAT     H1 2026   4.655   2.302   3.105
  605WAT     H2 2027   4.603   2.171   3.050
  606WAT      O 2028   4.144   2.723   2.146
  606WAT     H1 2029   4.097   2.668   2.083
  606WAT     H2 2030   4.219   2.758   2.097
  607WAT      O 2031   4.276   2.791   3.098
  607WAT     H1 2032   4.299   2.732   3.169
  607WAT     H2 2033   4.240   2.869   3.141
  608WAT      O 2034   3.570   2.259   2.708
  608WAT     H1 2035   3.530   2.217   2.784
  608WAT     H2 2036   3.568   2.192   2.640
  609WAT      O 2037   4.051   2.686   3.333
  609WAT     H1 2038   4.023   2.772   3.366
  609WAT     H2 2039   4.147   2.689   3.337
  610WAT      O 2040   3.915   3.115   2.397
  610WAT     H1 2041   3.840   3.056   2.392
  610WAT     H2 2042   3.988   3.065   2.361
  611WAT      O 2043   4.526   2.155   2.385
  611WAT     H1 2044   4.443   2.111   2.368
  611WAT     H2 2045   4.521   2.236   2.335
  612WAT      O 2046   4.512   3.027   3.567
  612WAT     H1 2047   4.516   2.939   3.528
  612WAT     H2 2048   4.436   3.024   3.625
  613WAT      O 2049   3.907   3.088   2.771
  613WAT     H1 2050   3.958   3.012   2.742
  613WAT     H2 2051   3.865   3.058   2.852
  614WAT      O 2052   4.409   3.210   2.285
  614WAT     H1 2053   4.434   3.289   2.238
  614WAT     H2 2054   4.323   3.232   2.323
  615WAT      O 2055   3.653   2.790   3.448
  615WAT     H1 2056   3.605   2.842   3.513
  615WAT     H2 2057   3.642   2.699   3.476
  616WAT      O 2058   3.973   2.821   3.739
  616WAT     H1 2059   3.956   2.845   3.647
  616WAT     H2 2060   4.056   2.774   3.736
  617WAT      O 2061   4.508   3.296   3.530
  617WAT     H1 2062   4.508   3.200   3.528
  617WAT     H2 2063   4.441   3.319   3.595
  618WAT      O 2064   4.682   3.138   2.812
  618WAT     H1 2065   4.722   3.068   2.760
  618WAT     H2 2066   4.596   3.102   2.836
  619WAT      O 2067   4.285   3.209   2.563
  619WAT     H1 2068   4.362   3.262   2.588
  619WAT     H2 2069   4.212   3.271   2.566
  620WAT      O 2070   3.506   2.780   2.095
  620WAT     H1 2071   3.593   2.777   2.135
  620WAT     H2 2072   3.467   2.861   2.127
  621WAT      O 2073   4.237   2.922   2.530
  621WAT     H1 2074   4.266   3.011   2.551
  621WAT     H2 2075   4.187   2.895   2.607
  622WAT      O 2076   4.445   3.467   3.239
  622WAT     H1 2077   4.504   3.500   3.308
  622WAT     H2 2078   4.486   3.386   3.209
  623WAT      O 2079   3.824   1.944   2.572
  623WAT     H1 2080   3.790   1.931   2.660
  623WAT     H2 2081   3.748   1.972   2.521
  624WAT      O 2082   4.589   3.268   3.111
  624WAT     H1 2083   4.645   3.193   3.128
  624WAT     H2 2084   4.649   3.338   3.087
  625WAT      O 2085   4.758   3.349   3.430
  625WAT     H1 2086   4.796   3.396   3.504
  625WAT     H2 2087   4.668   3.329   3.457
  626WAT      O 2088   3.564   3.705   2.165
  626WAT     H1 2089   3.594   3.767   2.099
  626WAT     H2 2090   3.531   3.760   2.237
  627WAT      O 2091   3.520   2.123   3.513
  627WAT     H1 2092   3.446   2.140   3.572
  627WAT     H2 2093   3.572   2.056   3.558
  628WAT      O 2094   4.338   3.345   3.749
  628WAT     H1 2095   4.302   3.274   3.801
  628WAT     H2 2096   4.267   3.409   3.743
  629WAT      O 2097   4.157   3.432   2.248
  629WAT     H1 2098   4.155   3.505   2.186
  629WAT     H2 2099   4.066   3.401   2.250
  630WAT      O 2100   3.702   2.961   2.318
  630WAT     H1 2101   3.642   3.033   2.303
  630WAT     H2 2102   3.749   2.951   2.236
  631WAT      O 2103   4.650   2.356   3.274
  631WAT     H1 2104   4.705   2.304   3.333
  631WAT     H2 2105   4.573   2.377   3.326
  632WAT      O 2106   4.433   3.439   2.120
  632WAT     H1 2107   4.455   3.410   2.032
  632WAT     H2 2108   4.340   3.420   2.130
  633WAT      O 2109   4.197   2.492   2.506
  633WAT     H1 2110   4.126   2.539   2.550
  633WAT     H2 2111   4.231   2.432   2.572
  634WAT      O 2112   4.347   2.642   3.313
  634WAT     H1 2113   4.405   2.688   3.374
  634WAT     H2 2114   4.369   2.550   3.323
  635WAT      O 2115   4.601   2.179   2.651
  635WAT     H1 2116   4.577   2.165   2.560
  635WAT     H2 2117   4.697   2.177   2.652
  636WAT      O 2118   4.306   3.696   2.581
  636WAT     H1 2119   4.345   3.687   2.494
  636WAT     H2 2120   4.213   3.678   2.567
  637WAT      O 2121   4.011   2.331   2.244
  637WAT     H1 2122   4.100   2.366   2.233
  637WAT     H2 2123   3.992   2.346   2.337
  638WAT      O 2124   3.901   2.956   2.098
  638WAT     H1 2125   3.981   2.954   2.152
  638WAT     H2 2126   3.924   2.908   2.019
  639WAT      O 2127   3.772   2.700   2.175
  639WAT     H1 2128   3.772   2.604   2.170
  639WAT     H2 2129   3.865   2.723   2.178
  640WAT      O 2130   3.861   3.725   2.875
  640WAT     H1 2131   3.924   3.660   2.907
  640WAT     H2 2132   3.912   3.805   2.864
  641WAT      O 2133   3.757   3.621   3.795
  641WAT     H1 2134   3.839   3.656   3.831
  641WAT     H2 2135   3.705   3.598   3.872
  642WAT      O 2136   4.156   3.623   2.056
  642WAT     H1 2137   4.234   3.669   2.023
  642WAT     H2 2138   4.122   3.576   1.980
  643WAT      O 2139   4.645   3.244   3.795
  643WAT     H1 2140   4.592   3.242   3.716
  643WAT     H2 2141   4.610   3.173   3.849
  644WAT      O 2142   4.219   3.151   2.028
  644WAT     H1 2143   4.216   3.100   2.109
  644WAT     H2 2144   4.215   3.086   1.959
  645WAT      O 2145   4.240   3.028   3.639
  645WAT     H1 2146   4.161   3.082   3.638
  645WAT     H2 2147   4.248   2.996   3.549
  646WAT      O 2148   4.536   3.051   2.099
  646WAT     H1 2149   4.492   3.101   2.167
  646WAT     H2 2150   4.600   2.998   2.145
  647WAT      O 2151   3.729   2.685   3.769
  647WAT     H1 2152   3.724   2.680   3.864
  647WAT     H2 2153   3.814   2.724   3.751
  648WAT      O 2154   4.108   2.948   2.290
  648WAT     H1 2155   4.157   2.943   2.372
  648WAT     H2 2156   4.127   2.865   2.246
  649WAT      O 2157   3.930   2.544   3.571
  649WAT     H1 2158   3.870   2.506   3.508
  649WAT     H2 2159   3.993   2.593   3.517
  650WAT      O 2160   4.366   2.842   2.034
  650WAT     H1 2161   4.417   2.790   1.972
  650WAT     H2 2162   4.419   2.920   2.050
  651WAT      O 2163   3.979   2.240   3.585
  651WAT     H1 2164   3.971   2.178   3.512
  651WAT     H2 2165   3.910   2.305   3.569
  652WAT      O 2166   4.252   2.114   3.289
  652WAT     H1 2167   4.216   2.119   3.200
  652WAT     H2 2168   4.183   2.072   3.340
  653WAT      O 2169   4.273   2.997   3.357
  653WAT     H1 2170   4.334   3.066   3.333
  653WAT     H2 2171   4.196   3.013   3.303
  654WAT      O 2172   4.519   2.753   3.490
  654WAT     H1 2173   4.547   2.709   3.570
  654WAT     H2 2174   4.600   2.770   3.442
  655WAT      O 2175   4.739   2.835   3.365
  655WAT     H1 2176   4.729   2.846   3.271
  655WAT     H2 2177   4.804   2.900   3.390
  656WAT      O 2178   3.997   2.553   1.992
  656WAT     H1 2179   3.974   2.464   2.019
  656WAT     H2 2180   3.980   2.555   1.898
  657WAT      O 2181   4.085   3.633   3.464
  657WAT     H1 2182   4.019   3.692   3.427
  657WAT     H2 2183   4.106   3.574   3.392
  658WAT      O 2184   4.213   2.416   3.606
  658WAT     H1 2185   4.262   2.385   3.682
  658WAT     H2 2186   4.131   2.366   3.609
  659WAT      O 2187   4.683   2.386   3.649
  659WAT     H1 2188   4.616   2.321   3.627
  659WAT     H2 2189   4.757   2.335   3.682
  660WAT      O 2190   4.737   2.037   2.231
  660WAT     H1 2191   4.771   1.960   2.277
  660WAT     H2 2192   4.673   2.075   2.292
  661WAT      O 2193   3.890   2.284   1.973
  661WAT     H1 2194   3.922   2.257   1.887
  661WAT     H2 2195   3.950   2.243   2.035
  662WAT      O 2196   4.360   3.744   3.482
  662WAT     H1 2197   4.352   3.833   3.518
  662WAT     H2 2198   4.271   3.710   3.483
  663WAT      O 2199   4.208   2.167   2.078
  663WAT     H1 2200   4.163   2.098   2.030
  663WAT     H2 2201   4.227   2.128   2.163
  664WAT      O 2202   4.419   3.676   2.264
  664WAT     H1 2203   4.508   3.710   2.254
  664WAT     H2 2204   4.418   3.596   2.211
  665WAT      O 2205   3.779   3.197   2.064
  665WAT     H1 2206   3.823   3.255   2.127
  665WAT     H2 2207   3.828   3.115   2.070
  666WAT      O 2208   3.504   3.478   2.814
  666WAT     H1 2209   3.548   3.396   2.792
  666WAT     H2 2210   3.532   3.498   2.903
  667WAT      O 2211   3.974   3.316   2.585
  667WAT     H1 2212   3.939   3.288   2.670
  667WAT     H2 2213   3.957   3.242   2.527
  668WAT      O 2214   3.565   3.568   3.089
  668WAT     H1 2215   3.497   3.588   3.153
  668WAT     H2 2216   3.596   3.653   3.059
  669WAT      O 2217   3.541   2.802   2.728
  669WAT     H1 2218   3.468   2.800   2.666
  669WAT     H2 2219   3.619   2.797   2.674
  670WAT      O 2220   3.651   2.852   3.175
  670WAT     H1 2221   3.661   2.835   3.268
  670WAT     H2 2222   3.587   2.788   3.145
  671WAT      O 2223   3.591   2.554   3.575
  671WAT     H1 2224   3.505   2.552   3.617
  671WAT     H2 2225   3.650   2.585   3.643
  672WAT      O 2226   3.458   2.534   2.307
  672WAT     H1 2227   3.368   2.561   2.327
  672WAT     H2 2228   3.478   2.575   2.223
  673WAT      O 2229   3.717   2.440   2.118
  673WAT     H1 2230   3.772   2.382   2.066
  673WAT     H2 2231   3.637   2.449   2.067
  674WAT      O 2232   3.664   2.050   2.007
  674WAT     H1 2233   3.736   2.090   2.056
  674WAT     H2 2234   3.702   2.031   1.921
  675WAT      O 2235   3.647   1.962   3.005
  675WAT     H1 2236   3.718   1.922   2.956
  675WAT     H2 2237   3.687   1.991   3.087
  676WAT      O 2238   3.624   1.999   3.290
  676WAT     H1 2239   3.581   2.044   3.363
  676WAT     H2 2240   3.588   1.910   3.293
  677WAT      O 2241   3.784   3.321   3.691
  677WAT     H1 2242   3.769   3.270   3.771
  677WAT     H2 2243   3.788   3.412   3.721
  678WAT      O 2244   4.151   3.463   3.259
  678WAT     H1 2245   4.125   3.482   3.169
  678WAT     H2 2246   4.247   3.465   3.256
  679WAT      O 2247   4.377   2.096   3.645
  679WAT     H1 2248   4.362   2.174   3.698
  679WAT     H2 2249   4.468   2.103   3.617
  680WAT      O 2250   4.648   2.095   3.599
  680WAT     H1 2251   4.692   2.087   3.515
  680WAT     H2 2252   4.693   2.032   3.656
  681WAT      O 2253   3.692   1.938   3.610
  681WAT     H1 2254   3.741   1.912   3.532
  681WAT     H2 2255   3.697   1.863   3.669
  682WAT      O 2256   3.748   3.611   3.406
  682WAT     H1 2257   3.717   3.570   3.487
  682WAT     H2 2258   3.769   3.537   3.349
  683WAT      O 2259   4.716   1.948   3.246
  683WAT     H1 2260   4.638   1.976   3.197
  683WAT     H2 2261   4.686   1.874   3.298
  684WAT      O 2262   4.094   3.559   2.988
  684WAT     H1 2263   4.136   3.498   2.927
  684WAT     H2 2264   4.163   3.620   3.013
  685WAT      O 2265   4.360   3.649   3.051
  685WAT     H1 2266   4.405   3.629   2.970
  685WAT     H2 2267   4.398   3.590   3.116
  686WAT      O 2268   4.480   2.021   3.123
  686WAT     H1 2269   4.412   2.068   3.169
  686WAT     H2 2270   4.439   1.939   3.095
  687WAT      O 2271   3.624   2.057   2.374
  687WAT     H1 2272   3.701   2.074   2.319
  687WAT     H2 2273   3.563   2.128   2.352
  688WAT      O 2274   4.258   2.265   2.674
  688WAT     H1 2275   4.193   2.214   2.626
  688WAT     H2 2276   4.326   2.202   2.697
  689WAT      O 2277   4.726   1.935   2.782
  689WAT     H1 2278   4.776   1.975   2.853
  689WAT     H2 2279   4.649   1.991   2.772
  690WAT      O 2280   3.710   3.533   2.364
  690WAT     H1 2281   3.669   3.583   2.292
  690WAT     H2 2282   3.720   3.597   2.434
  691WAT      O 2283   3.851   2.103   2.223
  691WAT     H1 2284   3.905   2.025   2.233
  691WAT     H2 2285   3.912   2.176   2.238
  692WAT      O 2286   4.075   2.089   2.527
  692WAT     H1 2287   4.011   2.021   2.546
  692WAT     H2 2288   4.023   2.168   2.512
  693WAT      O 2289   4.362   3.744   3.799
  693WAT     H1 2290   4.454   3.717   3.808
  693WAT     H2 2291   4.366   3.826   3.749
  694WAT      O 2292   4.076   2.010   3.772
  694WAT     H1 2293   4.061   2.064   3.694
  694WAT     H2 2294   4.126   1.935   3.740
  695WAT      O 2295   3.990   3.746   2.254
  695WAT     H1 2296   4.049   3.704   2.191
  695WAT     H2 2297   4.012   3.704   2.337
  696WAT      O 2298   3.891   3.350   2.260
  696WAT     H1 2299   3.831   3.407   2.307
  696WAT     H2 2300   3.902   3.274   2.318
  697WAT      O 2301   4.624   2.762   0.866
  697WAT     H1 2302   4.632   2.667   0.854
  697WAT     H2 2303   4.589   2.793   0.782
  698WAT      O 2304   4.452   2.930   1.048
  698WAT     H1 2305   4.384   2.876   1.089
  698WAT     H2 2306   4.522   2.869   1.026
  699WAT      O 2307   3.844   2.973   1.143
  699WAT     H1 2308   3.774   2.926   1.189
  699WAT     H2 2309   3.917   2.972   1.204
  700WAT      O 2310   3.859   3.362   1.175
  700WAT     H1 2311   3.892   3.279   1.141
  700WAT     H2 2312   3.923   3.427   1.146
  701WAT      O 2313   3.698   2.464   0.518
  701WAT     H1 2314   3.604   2.480   0.512
  701WAT     H2 2315   3.724   2.441   0.429
  702WAT      O 2316   3.479   2.698   1.098
  702WAT     H1 2317   3.551   2.635   1.109
  702WAT     H2 2318   3.502   2.747   1.019
  703WAT      O 2319   4.474   3.602   0.908
  703WAT     H1 2320   4.410   3.633   0.843
  703WAT     H2 2321   4.559   3.629   0.873
  704WAT      O 2322   4.379   3.193   1.064
  704WAT     H1 2323   4.398   3.100   1.048
  704WAT     H2 2324   4.452   3.223   1.118
  705WAT      O 2325   3.614   2.267   1.296
  705WAT     H1 2326   3.606   2.175   1.321
  705WAT     H2 2327   3.554   2.312   1.356
  706WAT      O 2328   4.493   2.482   1.072
  706WAT     H1 2329   4.547   2.406   1.093
  706WAT     H2 2330   4.509   2.498   0.979
  707WAT      O 2331   3.917   2.317   0.626
  707WAT     H1 2332   3.934   2.400   0.672
  707WAT     H2 2333   3.825   2.322   0.602
  708WAT      O 2334   3.673   2.504   1.156
  708WAT     H1 2335   3.755   2.525   1.201
  708WAT     H2 2336   3.646   2.421   1.194
  709WAT      O 2337   4.103   2.622   1.064
  709WAT     H1 2338   4.166   2.672   1.116
  709WAT     H2 2339   4.146   2.538   1.047
  710WAT      O 2340   3.928   2.068   1.489
  710WAT     H1 2341   3.933   2.131   1.418
  710WAT     H2 2342   3.843   2.025   1.478
  711WAT      O 2343   4.566   3.088   0.627
  711WAT     H1 2344   4.500   3.126   0.570
  711WAT     H2 2345   4.593   3.161   0.684
  712WAT      O 2346   4.063   3.047   1.310
  712WAT     H1 2347   4.019   3.105   1.374
  712WAT     H2 2348   4.077   3.103   1.234
  713WAT      O 2349   3.892   2.249   1.290
  713WAT     H1 2350   3.926   2.336   1.269
  713WAT     H2 2351   3.797   2.260   1.291
  714WAT      O 2352   3.978   3.248   1.481
  714WAT     H1 2353   4.033   3.319   1.449
  714WAT     H2 2354   3.889   3.278   1.468
  715WAT      O 2355   3.499   3.147   0.383
  715WAT     H1 2356   3.483   3.200   0.305
  715WAT     H2 2357   3.520   3.211   0.451
  716WAT      O 2358   4.257   1.996   0.916
  716WAT     H1 2359   4.288   1.940   0.845
  716WAT     H2 2360   4.164   2.011   0.896
  717WAT      O 2361   4.503   2.807   0.605
  717WAT     H1 2362   4.408   2.810   0.614
  717WAT     H2 2363   4.529   2.898   0.592
  718WAT      O 2364   4.507   2.425   0.298
  718WAT     H1 2365   4.413   2.436   0.314
  718WAT     H2 2366   4.529   2.496   0.237
  719WAT      O 2367   4.057   2.848   0.867
  719WAT     H1 2368   4.025   2.774   0.815
  719WAT     H2 2369   4.073   2.810   0.954
  720WAT      O 2370   4.107   3.210   1.090
  720WAT     H1 2371   4.076   3.170   1.009
  720WAT     H2 2372   4.202   3.216   1.079
  721WAT      O 2373   3.931   2.527   1.256
  721WAT     H1 2374   3.982   2.554   1.180
  721WAT     H2 2375   3.969   2.575   1.329
  722WAT      O 2376   4.021   3.203   1.746
  722WAT     H1 2377   3.933   3.222   1.779
  722WAT     H2 2378   4.012   3.210   1.651
  723WAT      O 2379   4.723   2.886   0.343
  723WAT     H1 2380   4.765   2.801   0.327
  723WAT     H2 2381   4.796   2.946   0.360
  724WAT      O 2382   3.901   2.893   1.608
  724WAT     H1 2383   3.875   2.983   1.627
  724WAT     H2 2384   3.820   2.849   1.586
  725WAT      O 2385   4.526   3.368   0.739
  725WAT     H1 2386   4.572   3.443   0.700
  725WAT     H2 2387   4.512   3.394   0.830
  726WAT      O 2388   4.089   3.478   1.830
  726WAT     H1 2389   4.080   3.524   1.747
  726WAT     H2 2390   4.064   3.388   1.810
  727WAT      O 2391   3.727   2.741   0.629
  727WAT     H1 2392   3.721   2.814   0.567
  727WAT     H2 2393   3.708   2.664   0.576
  728WAT      O 2394   3.483   3.050   1.207
  728WAT     H1 2395   3.483   3.069   1.113
  728WAT     H2 2396   3.557   2.989   1.219
  729WAT      O 2397   3.611   3.229   0.836
  729WAT     H1 2398   3.589   3.257   0.747
  729WAT     H2 2399   3.701   3.199   0.831
  730WAT      O 2400   4.601   3.645   1.538
  730WAT     H1 2401   4.638   3.624   1.624
  730WAT     H2 2402   4.514   3.680   1.558
  731WAT      O 2403   4.783   3.675   0.482
  731WAT     H1 2404   4.768   3.644   0.571
  731WAT     H2 2405   4.795   3.595   0.431
  732WAT      O 2406   4.038   3.645   0.645
  732WAT     H1 2407   4.016   3.552   0.647
  732WAT     H2 2408   3.958   3.689   0.674
  733WAT      O 2409   4.731   3.587   0.742
  733WAT     H1 2410   4.779   3.518   0.788
  733WAT     H2 2411   4.745   3.666   0.794
  734WAT      O 2412   3.513   3.181   1.453
  734WAT     H1 2413   3.500   3.126   1.376
  734WAT     H2 2414   3.556   3.124   1.517
  735WAT      O 2415   3.980   2.085   0.963
  735WAT     H1 2416   3.936   2.165   0.934
  735WAT     H2 2417   4.028   2.111   1.042
  736WAT      O 2418   4.401   2.363   1.526
  736WAT     H1 2419   4.343   2.386   1.598
  736WAT     H2 2420   4.361   2.285   1.487
  737WAT      O 2421   4.614   2.642   1.840
  737WAT     H1 2422   4.636   2.552   1.815
  737WAT     H2 2423   4.699   2.682   1.860
  738WAT      O 2424   4.293   2.038   0.468
  738WAT     H1 2425   4.212   2.046   0.518
  738WAT     H2 2426   4.283   1.956   0.419
  739WAT      O 2427   4.189   2.133   1.149
  739WAT     H1 2428   4.204   2.224   1.126
  739WAT     H2 2429   4.233   2.083   1.080
  740WAT      O 2430   3.955   2.596   0.742
  740WAT     H1 2431   3.924   2.559   0.825
  740WAT     H2 2432   3.878   2.639   0.705
  741WAT      O 2433   4.671   2.588   0.595
  741WAT     H1 2434   4.614   2.664   0.586
  741WAT     H2 2435   4.720   2.584   0.512
  742WAT      O 2436   4.201   2.683   1.794
  742WAT     H1 2437   4.199   2.589   1.775
  742WAT     H2 2438   4.285   2.713   1.759
  743WAT      O 2439   4.553   2.462   0.808
  743WAT     H1 2440   4.586   2.494   0.724
  743WAT     H2 2441   4.560   2.366   0.801
  744WAT      O 2442   3.719   2.327   1.618
  744WAT     H1 2443   3.669   2.406   1.640
  744WAT     H2 2444   3.655   2.256   1.622
  745WAT      O 2445   4.367   2.322   1.929
  745WAT     H1 2446   4.306   2.282   1.990
  745WAT     H2 2447   4.437   2.357   1.985
  746WAT      O 2448   3.444   2.112   1.019
  746WAT     H1 2449   3.419   2.176   1.086
  746WAT     H2 2450   3.511   2.058   1.062
  747WAT      O 2451   4.592   2.722   1.212
  747WAT     H1 2452   4.507   2.750   1.246
  747WAT     H2 2453   4.574   2.636   1.172
  748WAT      O 2454   4.240   2.383   1.044
  748WAT     H1 2455   4.246   2.348   0.955
  748WAT     H2 2456   4.328   2.417   1.063
  749WAT      O 2457   3.820   2.367   0.939
  749WAT     H1 2458   3.786   2.418   1.013
  749WAT     H2 2459   3.742   2.332   0.896
  750WAT      O 2460   4.248   2.483   0.363
  750WAT     H1 2461   4.247   2.480   0.459
  750WAT     H2 2462   4.212   2.569   0.342
  751WAT      O 2463   4.637   2.256   1.145
  751WAT     H1 2464   4.655   2.302   1.227
  751WAT     H2 2465   4.603   2.171   1.172
  752WAT      O 2466   4.144   2.720   0.267
  752WAT     H1 2467   4.095   2.674   0.199
  752WAT     H2 2468   4.220   2.757   0.222
  753WAT      O 2469   3.668   3.090   1.673
  753WAT     H1 2470   3.622   3.037   1.738
  753WAT     H2 2471   3.691   3.170   1.720
  754WAT      O 2472   4.276   2.791   1.220
  754WAT     H1 2473   4.299   2.732   1.292
  754WAT     H2 2474   4.241   2.869   1.264
  755WAT      O 2475   3.569   2.260   0.830
  755WAT     H1 2476   3.529   2.217   0.906
  755WAT     H2 2477   3.569   2.193   0.762
  756WAT      O 2478   4.051   2.687   1.456
  756WAT     H1 2479   4.023   2.772   1.488
  756WAT     H2 2480   4.146   2.690   1.460
  757WAT      O 2481   3.914   3.118   0.521
  757WAT     H1 2482   3.836   3.063   0.513
  757WAT     H2 2483   3.985   3.064   0.485
  758WAT      O 2484   4.531   2.158   0.509
  758WAT     H1 2485   4.447   2.113   0.495
  758WAT     H2 2486   4.523   2.238   0.456
  759WAT      O 2487   4.512   3.027   1.690
  759WAT     H1 2488   4.516   2.940   1.651
  759WAT     H2 2489   4.435   3.024   1.747
  760WAT      O 2490   3.908   3.090   0.896
  760WAT     H1 2491   3.957   3.015   0.863
  760WAT     H2 2492   3.865   3.057   0.976
  761WAT      O 2493   4.404   3.212   0.412
  761WAT     H1 2494   4.419   3.285   0.352
  761WAT     H2 2495   4.316   3.227   0.446
  762WAT      O 2496   3.651   2.787   1.568
  762WAT     H1 2497   3.610   2.842   1.634
  762WAT     H2 2498   3.637   2.697   1.599
  763WAT      O 2499   3.973   2.822   1.862
  763WAT     H1 2500   3.955   2.848   1.772
  763WAT     H2 2501   4.056   2.774   1.857
  764WAT      O 2502   4.509   3.296   1.654
  764WAT     H1 2503   4.508   3.201   1.651
  764WAT     H2 2504   4.441   3.319   1.717
  765WAT      O 2505   4.682   3.137   0.935
  765WAT     H1 2506   4.722   3.069   0.881
  765WAT     H2 2507   4.596   3.103   0.957
  766WAT      O 2508   4.284   3.208   0.689
  766WAT     H1 2509   4.361   3.261   0.710
  766WAT     H2 2510   4.211   3.271   0.688
  767WAT      O 2511   3.502   2.767   0.239
  767WAT     H1 2512   3.596   2.777   0.255
  767WAT     H2 2513   3.468   2.857   0.236
  768WAT      O 2514   4.240   2.920   0.654
  768WAT     H1 2515   4.267   3.010   0.672
  768WAT     H2 2516   4.188   2.895   0.730
  769WAT      O 2517   4.445   3.467   1.362
  769WAT     H1 2518   4.504   3.500   1.430
  769WAT     H2 2519   4.486   3.386   1.331
  770WAT      O 2520   3.824   1.945   0.695
  770WAT     H1 2521   3.788   1.930   0.783
  770WAT     H2 2522   3.749   1.971   0.642
  771WAT      O 2523   4.589   3.268   1.234
  771WAT     H1 2524   4.646   3.192   1.249
  771WAT     H2 2525   4.649   3.338   1.209
  772WAT      O 2526   4.758   3.348   1.552
  772WAT     H1 2527   4.796   3.396   1.626
  772WAT     H2 2528   4.668   3.329   1.580
  773WAT      O 2529   3.558   3.699   0.308
  773WAT     H1 2530   3.584   3.747   0.229
  773WAT     H2 2531   3.540   3.767   0.373
  774WAT      O 2532   3.519   2.125   1.637
  774WAT     H1 2533   3.439   2.136   1.689
  774WAT     H2 2534   3.569   2.057   1.683
  775WAT      O 2535   4.338   3.346   1.872
  775WAT     H1 2536   4.302   3.274   1.924
  775WAT     H2 2537   4.266   3.408   1.864
  776WAT      O 2538   4.152   3.440   0.372
  776WAT     H1 2539   4.149   3.495   0.293
  776WAT     H2 2540   4.064   3.404   0.380
  777WAT      O 2541   3.699   2.966   0.446
  777WAT     H1 2542   3.629   3.028   0.429
  777WAT     H2 2543   3.738   2.950   0.359
  778WAT      O 2544   4.651   2.356   1.396
  778WAT     H1 2545   4.705   2.303   1.455
  778WAT     H2 2546   4.573   2.377   1.448
  779WAT      O 2547   4.198   2.492   0.628
  779WAT     H1 2548   4.126   2.539   0.672
  779WAT     H2 2549   4.232   2.432   0.694
  780WAT      O 2550   4.346   2.643   1.436
  780WAT     H1 2551   4.405   2.688   1.496
  780WAT     H2 2552   4.370   2.550   1.445
  781WAT      O 2553   4.601   2.177   0.774
  781WAT     H1 2554   4.577   2.166   0.683
  781WAT     H2 2555   4.697   2.178   0.774
  782WAT      O 2556   4.306   3.693   0.706
  782WAT     H1 2557   4.344   3.695   0.618
  782WAT     H2 2558   4.212   3.678   0.691
  783WAT      O 2559   4.009   2.335   0.365
  783WAT     H1 2560   4.099   2.368   0.356
  783WAT     H2 2561   3.991   2.342   0.459
  784WAT      O 2562   3.780   2.714   0.294
  784WAT     H1 2563   3.767   2.620   0.281
  784WAT     H2 2564   3.874   2.724   0.308
  785WAT      O 2565   3.860   3.723   1.005
  785WAT     H1 2566   3.927   3.659   1.030
  785WAT     H2 2567   3.909   3.802   0.984
  786WAT      O 2568   3.537   3.326   0.588
  786WAT     H1 2569   3.447   3.359   0.586
  786WAT     H2 2570   3.591   3.402   0.565
  787WAT      O 2571   3.762   3.611   1.917
  787WAT     H1 2572   3.837   3.660   1.950
  787WAT     H2 2573   3.703   3.603   1.992
  788WAT      O 2574   4.644   3.245   1.918
  788WAT     H1 2575   4.593   3.242   1.838
  788WAT     H2 2576   4.610   3.172   1.971
  789WAT      O 2577   3.537   2.888   1.813
  789WAT     H1 2578   3.594   2.822   1.853
  789WAT     H2 2579   3.459   2.890   1.868
  790WAT      O 2580   4.239   3.028   1.761
  790WAT     H1 2581   4.160   3.082   1.760
  790WAT     H2 2582   4.248   2.996   1.672
  791WAT      O 2583   4.547   3.063   0.226
  791WAT     H1 2584   4.491   3.099   0.296
  791WAT     H2 2585   4.600   2.996   0.270
  792WAT      O 2586   3.724   2.696   1.893
  792WAT     H1 2587   3.728   2.674   1.986
  792WAT     H2 2588   3.813   2.727   1.873
  793WAT      O 2589   4.098   2.948   0.421
  793WAT     H1 2590   4.155   2.938   0.498
  793WAT     H2 2591   4.115   2.870   0.368
  794WAT      O 2592   3.929   2.545   1.695
  794WAT     H1 2593   3.868   2.508   1.632
  794WAT     H2 2594   3.991   2.594   1.641
  795WAT      O 2595   3.978   2.240   1.707
  795WAT     H1 2596   3.970   2.178   1.635
  795WAT     H2 2597   3.910   2.305   1.691
  796WAT      O 2598   4.252   2.114   1.412
  796WAT     H1 2599   4.216   2.119   1.323
  796WAT     H2 2600   4.183   2.072   1.463
  797WAT      O 2601   4.273   2.997   1.480
  797WAT     H1 2602   4.334   3.066   1.455
  797WAT     H2 2603   4.195   3.013   1.426
  798WAT      O 2604   4.519   2.754   1.613
  798WAT     H1 2605   4.548   2.709   1.693
  798WAT     H2 2606   4.600   2.770   1.565
  799WAT      O 2607   4.739   2.835   1.488
  799WAT     H1 2608   4.729   2.845   1.393
  799WAT     H2 2609   4.805   2.900   1.512
  800WAT      O 2610   4.088   3.635   1.586
  800WAT     H1 2611   4.015   3.688   1.553
  800WAT     H2 2612   4.107   3.573   1.516
  801WAT      O 2613   4.213   2.416   1.729
  801WAT     H1 2614   4.262   2.384   1.804
  801WAT     H2 2615   4.131   2.365   1.731
  802WAT      O 2616   4.683   2.386   1.772
  802WAT     H1 2617   4.617   2.321   1.749
  802WAT     H2 2618   4.757   2.335   1.804
  803WAT      O 2619   4.740   2.038   0.357
  803WAT     H1 2620   4.770   1.960   0.403
  803WAT     H2 2621   4.674   2.076   0.415
  804WAT      O 2622   4.361   3.744   1.606
  804WAT     H1 2623   4.351   3.833   1.641
  804WAT     H2 2624   4.271   3.709   1.605
  805WAT      O 2625   4.416   3.664   0.378
  805WAT     H1 2626   4.501   3.709   0.371
  805WAT     H2 2627   4.419   3.597   0.310
  806WAT      O 2628   3.774   3.181   0.200
  806WAT     H1 2629   3.812   3.256   0.246
  806WAT     H2 2630   3.850   3.127   0.176
  807WAT      O 2631   3.504   3.477   0.943
  807WAT     H1 2632   3.542   3.392   0.919
  807WAT     H2 2633   3.540   3.496   1.029
  808WAT      O 2634   3.974   3.316   0.709
  808WAT     H1 2635   3.941   3.283   0.793
  808WAT     H2 2636   3.957   3.244   0.647
  809WAT      O 2637   3.561   3.565   1.202
  809WAT     H1 2638   3.507   3.578   1.280
  809WAT     H2 2639   3.596   3.652   1.182
  810WAT      O 2640   3.530   2.811   0.838
  810WAT     H1 2641   3.465   2.790   0.771
  810WAT     H2 2642   3.614   2.800   0.793
  811WAT      O 2643   3.650   2.853   1.299
  811WAT     H1 2644   3.662   2.836   1.392
  811WAT     H2 2645   3.586   2.787   1.271
  812WAT      O 2646   3.587   2.552   1.696
  812WAT     H1 2647   3.501   2.533   1.733
  812WAT     H2 2648   3.639   2.583   1.770
  813WAT      O 2649   3.453   2.533   0.414
  813WAT     H1 2650   3.367   2.566   0.440
  813WAT     H2 2651   3.485   2.599   0.351
  814WAT      O 2652   3.722   2.451   0.234
  814WAT     H1 2653   3.785   2.387   0.201
  814WAT     H2 2654   3.647   2.443   0.174
  815WAT      O 2655   3.647   1.963   1.127
  815WAT     H1 2656   3.718   1.922   1.078
  815WAT     H2 2657   3.687   1.990   1.209
  816WAT      O 2658   3.622   2.000   1.413
  816WAT     H1 2659   3.580   2.044   1.487
  816WAT     H2 2660   3.588   1.910   1.416
  817WAT      O 2661   3.777   3.310   1.821
  817WAT     H1 2662   3.771   3.273   1.909
  817WAT     H2 2663   3.783   3.405   1.836
  818WAT      O 2664   4.152   3.464   1.381
  818WAT     H1 2665   4.126   3.483   1.291
  818WAT     H2 2666   4.247   3.465   1.380
  819WAT      O 2667   4.377   2.096   1.768
  819WAT     H1 2668   4.362   2.175   1.820
  819WAT     H2 2669   4.468   2.103   1.740
  820WAT      O 2670   4.648   2.095   1.722
  820WAT     H1 2671   4.692   2.087   1.637
  820WAT     H2 2672   4.693   2.032   1.779
  821WAT      O 2673   3.692   1.938   1.733
  821WAT     H1 2674   3.741   1.912   1.655
  821WAT     H2 2675   3.698   1.862   1.791
  822WAT      O 2676   3.741   3.612   1.524
  822WAT     H1 2677   3.723   3.588   1.615
  822WAT     H2 2678   3.752   3.527   1.479
  823WAT      O 2679   4.716   1.948   1.368
  823WAT     H1 2680   4.639   1.976   1.319
  823WAT     H2 2681   4.686   1.874   1.421
  824WAT      O 2682   3.730   3.353   1.421
  824WAT     H1 2683   3.651   3.298   1.428
  824WAT     H2 2684   3.744   3.362   1.327
  825WAT      O 2685   4.094   3.556   1.113
  825WAT     H1 2686   4.135   3.499   1.048
  825WAT     H2 2687   4.162   3.619   1.136
  826WAT      O 2688   4.360   3.650   1.174
  826WAT     H1 2689   4.405   3.629   1.092
  826WAT     H2 2690   4.399   3.590   1.238
  827WAT      O 2691   4.481   2.021   1.245
  827WAT     H1 2692   4.411   2.068   1.291
  827WAT     H2 2693   4.439   1.939   1.216
  828WAT      O 2694   3.561   3.669   0.744
  828WAT     H1 2695   3.542   3.608   0.815
  828WAT     H2 2696   3.476   3.689   0.705
  829WAT      O 2697   3.621   2.057   0.495
  829WAT     H1 2698   3.700   2.075   0.444
  829WAT     H2 2699   3.561   2.129   0.473
  830WAT      O 2700   4.257   2.265   0.797
  830WAT     H1 2701   4.193   2.214   0.747
  830WAT     H2 2702   4.327   2.202   0.818
  831WAT      O 2703   4.725   1.934   0.905
  831WAT     H1 2704   4.775   1.975   0.975
  831WAT     H2 2705   4.650   1.991   0.893
  832WAT      O 2706   3.701   3.535   0.494
  832WAT     H1 2707   3.665   3.581   0.419
  832WAT     H2 2708   3.700   3.600   0.565
  833WAT      O 2709   3.847   2.107   0.353
  833WAT     H1 2710   3.899   2.027   0.354
  833WAT     H2 2711   3.912   2.178   0.352
  834WAT      O 2712   4.074   2.090   0.651
  834WAT     H1 2713   4.010   2.021   0.669
  834WAT     H2 2714   4.022   2.168   0.634
  835WAT      O 2715   4.363   3.745   1.924
  835WAT     H1 2716   4.454   3.717   1.929
  835WAT     H2 2717   4.366   3.826   1.873
  836WAT      O 2718   4.075   2.010   1.894
  836WAT     H1 2719   4.061   2.064   1.816
  836WAT     H2 2720   4.126   1.935   1.863
  837WAT      O 2721   3.990   3.751   0.382
  837WAT     H1 2722   4.048   3.703   0.322
  837WAT     H2 2723   4.004   3.710   0.467
  838WAT      O 2724   3.893   3.353   0.384
  838WAT     H1 2725   3.829   3.408   0.430
  838WAT     H2 2726   3.899   3.274   0.439
  839WAT      O 2727   4.628   0.884   4.618
  839WAT     H1 2728   4.631   0.789   4.609
  839WAT     H2 2729   4.588   0.915   4.537
  840WAT      O 2730   4.451   1.052   4.802
  840WAT     H1 2731   4.384   0.999   4.845
  840WAT     H2 2732   4.522   0.991   4.784
  841WAT      O 2733   3.843   1.096   4.898
  841WAT     H1 2734   3.774   1.049   4.944
  841WAT     H2 2735   3.918   1.095   4.959
  842WAT      O 2736   3.857   1.485   4.928
  842WAT     H1 2737   3.893   1.402   4.897
  842WAT     H2 2738   3.922   1.551   4.902
  843WAT      O 2739   3.698   0.585   4.274
  843WAT     H1 2740   3.604   0.605   4.268
  843WAT     H2 2741   3.724   0.564   4.184
  844WAT      O 2742   3.478   0.820   4.852
  844WAT     H1 2743   3.550   0.758   4.865
  844WAT     H2 2744   3.503   0.869   4.774
  845WAT      O 2745   4.474   1.724   4.662
  845WAT     H1 2746   4.410   1.757   4.598
  845WAT     H2 2747   4.559   1.751   4.628
  846WAT      O 2748   4.380   1.315   4.817
  846WAT     H1 2749   4.398   1.222   4.803
  846WAT     H2 2750   4.452   1.345   4.873
  847WAT      O 2751   3.610   0.389   5.051
  847WAT     H1 2752   3.606   0.299   5.082
  847WAT     H2 2753   3.554   0.438   5.111
  848WAT      O 2754   4.493   0.607   4.826
  848WAT     H1 2755   4.546   0.530   4.848
  848WAT     H2 2756   4.509   0.622   4.733
  849WAT      O 2757   3.918   0.445   4.375
  849WAT     H1 2758   3.936   0.524   4.426
  849WAT     H2 2759   3.824   0.448   4.358
  850WAT      O 2760   3.672   0.627   4.912
  850WAT     H1 2761   3.755   0.648   4.955
  850WAT     H2 2762   3.646   0.543   4.949
  851WAT      O 2763   4.103   0.746   4.818
  851WAT     H1 2764   4.165   0.795   4.872
  851WAT     H2 2765   4.145   0.661   4.803
  852WAT      O 2766   4.567   1.210   4.381
  852WAT     H1 2767   4.500   1.249   4.325
  852WAT     H2 2768   4.593   1.282   4.439
  853WAT      O 2769   4.062   1.171   5.065
  853WAT     H1 2770   4.019   1.227   5.129
  853WAT     H2 2771   4.077   1.227   4.989
  854WAT      O 2772   3.894   0.371   5.040
  854WAT     H1 2773   3.925   0.460   5.027
  854WAT     H2 2774   3.799   0.380   5.052
  855WAT      O 2775   3.977   1.371   5.237
  855WAT     H1 2776   4.034   1.441   5.206
  855WAT     H2 2777   3.888   1.403   5.220
  856WAT      O 2778   3.503   1.270   4.135
  856WAT     H1 2779   3.471   1.321   4.060
  856WAT     H2 2780   3.521   1.336   4.202
  857WAT      O 2781   4.505   0.930   4.359
  857WAT     H1 2782   4.409   0.930   4.366
  857WAT     H2 2783   4.528   1.022   4.348
  858WAT      O 2784   4.500   0.546   4.027
  858WAT     H1 2785   4.414   0.562   4.065
  858WAT     H2 2786   4.533   0.633   4.006
  859WAT      O 2787   4.057   0.970   4.622
  859WAT     H1 2788   4.024   0.896   4.570
  859WAT     H2 2789   4.074   0.933   4.708
  860WAT      O 2790   4.107   1.334   4.845
  860WAT     H1 2791   4.076   1.291   4.764
  860WAT     H2 2792   4.202   1.339   4.834
  861WAT      O 2793   3.929   0.651   5.010
  861WAT     H1 2794   3.981   0.677   4.934
  861WAT     H2 2795   3.969   0.698   5.083
  862WAT      O 2796   4.023   1.327   5.502
  862WAT     H1 2797   3.935   1.337   5.540
  862WAT     H2 2798   4.009   1.335   5.408
  863WAT      O 2799   4.727   1.012   4.089
  863WAT     H1 2800   4.766   0.925   4.087
  863WAT     H2 2801   4.798   1.069   4.118
  864WAT      O 2802   3.904   1.013   5.357
  864WAT     H1 2803   3.880   1.101   5.386
  864WAT     H2 2804   3.821   0.969   5.339
  865WAT      O 2805   4.526   1.490   4.493
  865WAT     H1 2806   4.571   1.564   4.454
  865WAT     H2 2807   4.512   1.516   4.585
  866WAT      O 2808   4.072   1.603   5.584
  866WAT     H1 2809   4.080   1.648   5.500
  866WAT     H2 2810   4.076   1.510   5.562
  867WAT      O 2811   3.726   0.865   4.383
  867WAT     H1 2812   3.722   0.937   4.320
  867WAT     H2 2813   3.708   0.786   4.330
  868WAT      O 2814   3.487   1.177   4.963
  868WAT     H1 2815   3.486   1.193   4.868
  868WAT     H2 2816   3.556   1.112   4.975
  869WAT      O 2817   3.611   1.352   4.592
  869WAT     H1 2818   3.589   1.379   4.502
  869WAT     H2 2819   3.701   1.321   4.587
  870WAT      O 2820   4.601   1.768   5.295
  870WAT     H1 2821   4.637   1.749   5.382
  870WAT     H2 2822   4.513   1.803   5.312
  871WAT      O 2823   4.784   1.798   4.236
  871WAT     H1 2824   4.768   1.767   4.325
  871WAT     H2 2825   4.791   1.718   4.184
  872WAT      O 2826   4.039   1.768   4.399
  872WAT     H1 2827   4.017   1.675   4.402
  872WAT     H2 2828   3.959   1.812   4.428
  873WAT      O 2829   4.731   1.710   4.496
  873WAT     H1 2830   4.778   1.640   4.543
  873WAT     H2 2831   4.746   1.788   4.549
  874WAT      O 2832   3.499   1.296   5.217
  874WAT     H1 2833   3.497   1.252   5.132
  874WAT     H2 2834   3.558   1.243   5.270
  875WAT      O 2835   3.989   0.217   4.704
  875WAT     H1 2836   3.932   0.293   4.691
  875WAT     H2 2837   4.022   0.227   4.794
  876WAT      O 2838   4.400   0.486   5.279
  876WAT     H1 2839   4.342   0.506   5.353
  876WAT     H2 2840   4.364   0.406   5.242
  877WAT      O 2841   4.617   0.764   5.586
  877WAT     H1 2842   4.642   0.674   5.568
  877WAT     H2 2843   4.696   0.804   5.623
  878WAT      O 2844   4.189   0.254   4.905
  878WAT     H1 2845   4.196   0.347   4.887
  878WAT     H2 2846   4.240   0.212   4.835
  879WAT      O 2847   3.956   0.720   4.498
  879WAT     H1 2848   3.924   0.680   4.579
  879WAT     H2 2849   3.878   0.761   4.460
  880WAT      O 2850   4.666   0.706   4.344
  880WAT     H1 2851   4.613   0.786   4.340
  880WAT     H2 2852   4.727   0.715   4.270
  881WAT      O 2853   4.200   0.805   5.553
  881WAT     H1 2854   4.197   0.712   5.530
  881WAT     H2 2855   4.286   0.834   5.522
  882WAT      O 2856   4.553   0.586   4.562
  882WAT     H1 2857   4.585   0.617   4.477
  882WAT     H2 2858   4.562   0.491   4.557
  883WAT      O 2859   3.720   0.450   5.372
  883WAT     H1 2860   3.668   0.529   5.388
  883WAT     H2 2861   3.656   0.379   5.378
  884WAT      O 2862   3.450   0.237   4.777
  884WAT     H1 2863   3.411   0.300   4.837
  884WAT     H2 2864   3.512   0.188   4.831
  885WAT      O 2865   3.474   0.636   3.884
  885WAT     H1 2866   3.465   0.729   3.904
  885WAT     H2 2867   3.413   0.621   3.812
  886WAT      O 2868   4.591   0.845   4.964
  886WAT     H1 2869   4.508   0.872   5.004
  886WAT     H2 2870   4.572   0.759   4.926
  887WAT      O 2871   4.240   0.506   4.800
  887WAT     H1 2872   4.247   0.473   4.711
  887WAT     H2 2873   4.327   0.541   4.819
  888WAT      O 2874   3.820   0.496   4.690
  888WAT     H1 2875   3.787   0.541   4.768
  888WAT     H2 2876   3.742   0.457   4.650
  889WAT      O 2877   4.253   0.606   4.121
  889WAT     H1 2878   4.244   0.610   4.216
  889WAT     H2 2879   4.214   0.688   4.090
  890WAT      O 2880   4.635   0.386   4.900
  890WAT     H1 2881   4.651   0.430   4.983
  890WAT     H2 2882   4.621   0.294   4.924
  891WAT      O 2883   4.146   0.844   4.024
  891WAT     H1 2884   4.098   0.791   3.960
  891WAT     H2 2885   4.219   0.881   3.975
  892WAT      O 2886   3.664   1.216   5.431
  892WAT     H1 2887   3.622   1.152   5.488
  892WAT     H2 2888   3.680   1.291   5.488
  893WAT      O 2889   4.276   0.914   4.976
  893WAT     H1 2890   4.299   0.854   5.046
  893WAT     H2 2891   4.241   0.991   5.020
  894WAT      O 2892   3.566   0.383   4.583
  894WAT     H1 2893   3.526   0.339   4.658
  894WAT     H2 2894   3.575   0.315   4.517
  895WAT      O 2895   4.052   0.811   5.206
  895WAT     H1 2896   4.021   0.893   5.244
  895WAT     H2 2897   4.147   0.814   5.215
  896WAT      O 2898   3.916   1.239   4.275
  896WAT     H1 2899   3.838   1.184   4.266
  896WAT     H2 2900   3.987   1.185   4.239
  897WAT      O 2901   4.522   0.285   4.270
  897WAT     H1 2902   4.451   0.227   4.244
  897WAT     H2 2903   4.516   0.360   4.211
  898WAT      O 2904   4.517   1.147   5.442
  898WAT     H1 2905   4.517   1.059   5.405
  898WAT     H2 2906   4.439   1.150   5.497
  899WAT      O 2907   3.907   1.211   4.651
  899WAT     H1 2908   3.957   1.136   4.618
  899WAT     H2 2909   3.866   1.180   4.731
  900WAT      O 2910   4.409   1.333   4.163
  900WAT     H1 2911   4.434   1.412   4.115
  900WAT     H2 2912   4.323   1.353   4.200
  901WAT      O 2913   3.650   0.911   5.323
  901WAT     H1 2914   3.605   0.964   5.389
  901WAT     H2 2915   3.636   0.821   5.351
  902WAT      O 2916   3.972   0.944   5.617
  902WAT     H1 2917   3.949   0.958   5.525
  902WAT     H2 2918   4.054   0.895   5.615
  903WAT      O 2919   4.511   1.417   5.405
  903WAT     H1 2920   4.519   1.322   5.408
  903WAT     H2 2921   4.442   1.437   5.468
  904WAT      O 2922   4.683   1.260   4.689
  904WAT     H1 2923   4.721   1.189   4.636
  904WAT     H2 2924   4.596   1.227   4.713
  905WAT      O 2925   4.285   1.331   4.441
  905WAT     H1 2926   4.361   1.384   4.465
  905WAT     H2 2927   4.212   1.393   4.442
  906WAT      O 2928   3.498   0.893   3.984
  906WAT     H1 2929   3.587   0.907   4.016
  906WAT     H2 2930   3.463   0.981   3.972
  907WAT      O 2931   4.238   1.045   4.408
  907WAT     H1 2932   4.266   1.134   4.428
  907WAT     H2 2933   4.187   1.018   4.484
  908WAT      O 2934   4.445   1.591   5.116
  908WAT     H1 2935   4.503   1.622   5.185
  908WAT     H2 2936   4.485   1.509   5.087
  909WAT      O 2937   4.589   1.390   4.989
  909WAT     H1 2938   4.646   1.315   5.005
  909WAT     H2 2939   4.649   1.461   4.965
  910WAT      O 2940   4.760   1.468   5.308
  910WAT     H1 2941   4.794   1.525   5.376
  910WAT     H2 2942   4.670   1.450   5.334
  911WAT      O 2943   3.559   1.831   4.035
  911WAT     H1 2944   3.594   1.900   3.979
  911WAT     H2 2945   3.535   1.875   4.116
  912WAT      O 2946   3.527   0.257   5.405
  912WAT     H1 2947   3.437   0.259   5.438
  912WAT     H2 2948   3.556   0.167   5.419
  913WAT      O 2949   3.557   1.647   5.463
  913WAT     H1 2950   3.541   1.554   5.479
  913WAT     H2 2951   3.472   1.681   5.435
  914WAT      O 2952   4.157   1.554   4.124
  914WAT     H1 2953   4.155   1.628   4.064
  914WAT     H2 2954   4.067   1.523   4.129
  915WAT      O 2955   3.702   1.087   4.196
  915WAT     H1 2956   3.633   1.149   4.175
  915WAT     H2 2957   3.748   1.073   4.113
  916WAT      O 2958   4.651   0.474   5.152
  916WAT     H1 2959   4.706   0.432   5.218
  916WAT     H2 2960   4.572   0.499   5.200
  917WAT      O 2961   4.433   1.561   3.998
  917WAT     H1 2962   4.453   1.533   3.909
  917WAT     H2 2963   4.340   1.544   4.008
  918WAT      O 2964   4.200   0.616   4.384
  918WAT     H1 2965   4.126   0.662   4.425
  918WAT     H2 2966   4.232   0.557   4.452
  919WAT      O 2967   4.348   0.764   5.189
  919WAT     H1 2968   4.405   0.810   5.251
  919WAT     H2 2969   4.369   0.672   5.202
  920WAT      O 2970   4.596   0.312   4.530
  920WAT     H1 2971   4.581   0.294   4.437
  920WAT     H2 2972   4.688   0.289   4.543
  921WAT      O 2973   4.306   1.818   4.458
  921WAT     H1 2974   4.344   1.811   4.371
  921WAT     H2 2975   4.212   1.801   4.445
  922WAT      O 2976   4.014   0.454   4.115
  922WAT     H1 2977   4.099   0.499   4.114
  922WAT     H2 2978   3.986   0.456   4.206
  923WAT      O 2979   3.901   1.078   3.976
  923WAT     H1 2980   3.981   1.076   4.029
  923WAT     H2 2981   3.924   1.030   3.897
  924WAT      O 2982   3.773   0.822   4.053
  924WAT     H1 2983   3.775   0.726   4.048
  924WAT     H2 2984   3.865   0.847   4.056
  925WAT      O 2985   3.861   1.845   4.756
  925WAT     H1 2986   3.927   1.783   4.786
  925WAT     H2 2987   3.909   1.925   4.739
  926WAT      O 2988   3.537   1.449   4.343
  926WAT     H1 2989   3.447   1.481   4.340
  926WAT     H2 2990   3.590   1.525   4.320
  927WAT      O 2991   4.157   1.746   3.933
  927WAT     H1 2992   4.234   1.792   3.900
  927WAT     H2 2993   4.122   1.699   3.857
  928WAT      O 2994   3.541   1.016   5.571
  928WAT     H1 2995   3.584   0.951   5.626
  928WAT     H2 2996   3.451   1.020   5.603
  929WAT      O 2997   4.221   1.274   3.906
  929WAT     H1 2998   4.214   1.224   3.987
  929WAT     H2 2999   4.214   1.209   3.837
  930WAT      O 3000   4.251   1.154   5.510
  930WAT     H1 3001   4.168   1.198   5.524
  930WAT     H2 3002   4.245   1.117   5.422
  931WAT      O 3003   4.536   1.174   3.976
  931WAT     H1 3004   4.491   1.224   4.044
  931WAT     H2 3005   4.600   1.120   4.023
  932WAT      O 3006   4.109   1.070   4.167
  932WAT     H1 3007   4.157   1.066   4.249
  932WAT     H2 3008   4.127   0.987   4.124
  933WAT      O 3009   3.908   0.678   5.439
  933WAT     H1 3010   3.874   0.620   5.371
  933WAT     H2 3011   3.985   0.718   5.400
  934WAT      O 3012   4.366   0.964   3.912
  934WAT     H1 3013   4.416   0.914   3.848
  934WAT     H2 3014   4.419   1.043   3.927
  935WAT      O 3015   3.987   0.381   5.451
  935WAT     H1 3016   3.974   0.308   5.391
  935WAT     H2 3017   3.905   0.430   5.447
  936WAT      O 3018   4.257   0.242   5.171
  936WAT     H1 3019   4.221   0.242   5.082
  936WAT     H2 3020   4.195   0.192   5.223
  937WAT      O 3021   4.275   1.115   5.229
  937WAT     H1 3022   4.333   1.190   5.211
  937WAT     H2 3023   4.195   1.135   5.179
  938WAT      O 3024   4.520   0.876   5.364
  938WAT     H1 3025   4.546   0.835   5.446
  938WAT     H2 3026   4.602   0.891   5.318
  939WAT      O 3027   4.744   0.954   5.242
  939WAT     H1 3028   4.727   0.970   5.149
  939WAT     H2 3029   4.800   1.026   5.269
  940WAT      O 3030   3.998   0.675   3.869
  940WAT     H1 3031   3.972   0.587   3.897
  940WAT     H2 3032   3.980   0.677   3.775
  941WAT      O 3033   4.092   1.760   5.337
  941WAT     H1 3034   4.015   1.809   5.311
  941WAT     H2 3035   4.106   1.696   5.267
  942WAT      O 3036   4.212   0.539   5.491
  942WAT     H1 3037   4.252   0.495   5.566
  942WAT     H2 3038   4.130   0.491   5.476
  943WAT      O 3039   4.684   0.507   5.530
  943WAT     H1 3040   4.618   0.448   5.495
  943WAT     H2 3041   4.759   0.451   5.550
  944WAT      O 3042   3.885   0.403   3.854
  944WAT     H1 3043   3.922   0.381   3.769
  944WAT     H2 3044   3.951   0.375   3.917
  945WAT      O 3045   4.361   1.866   5.366
  945WAT     H1 3046   4.352   1.956   5.398
  945WAT     H2 3047   4.271   1.833   5.360
  946WAT      O 3048   4.211   0.283   3.950
  946WAT     H1 3049   4.173   0.211   3.898
  946WAT     H2 3050   4.203   0.254   4.041
  947WAT      O 3051   4.419   1.799   4.141
  947WAT     H1 3052   4.508   1.833   4.130
  947WAT     H2 3053   4.418   1.719   4.088
  948WAT      O 3054   3.787   1.323   3.936
  948WAT     H1 3055   3.824   1.378   4.005
  948WAT     H2 3056   3.828   1.237   3.948
  949WAT      O 3057   3.502   1.600   4.698
  949WAT     H1 3058   3.543   1.516   4.675
  949WAT     H2 3059   3.539   1.620   4.784
  950WAT      O 3060   3.973   1.438   4.463
  950WAT     H1 3061   3.942   1.408   4.548
  950WAT     H2 3062   3.957   1.366   4.403
  951WAT      O 3063   3.551   1.690   4.962
  951WAT     H1 3064   3.508   1.704   5.046
  951WAT     H2 3065   3.598   1.772   4.945
  952WAT      O 3066   3.530   0.935   4.592
  952WAT     H1 3067   3.466   0.913   4.525
  952WAT     H2 3068   3.615   0.923   4.549
  953WAT      O 3069   3.648   0.976   5.054
  953WAT     H1 3070   3.664   0.959   5.147
  953WAT     H2 3071   3.586   0.908   5.027
  954WAT      O 3072   3.584   0.677   5.448
  954WAT     H1 3073   3.499   0.656   5.488
  954WAT     H2 3074   3.644   0.680   5.522
  955WAT      O 3075   3.454   0.655   4.183
  955WAT     H1 3076   3.366   0.690   4.195
  955WAT     H2 3077   3.487   0.700   4.105
  956WAT      O 3078   3.716   0.562   3.996
  956WAT     H1 3079   3.771   0.504   3.943
  956WAT     H2 3080   3.636   0.573   3.944
  957WAT      O 3081   4.151   1.582   5.135
  957WAT     H1 3082   4.125   1.606   5.046
  957WAT     H2 3083   4.246   1.588   5.135
  958WAT      O 3084   4.384   0.265   5.505
  958WAT     H1 3085   4.365   0.268   5.599
  958WAT     H2 3086   4.455   0.202   5.496
  959WAT      O 3087   3.762   1.725   5.293
  959WAT     H1 3088   3.694   1.707   5.358
  959WAT     H2 3089   3.765   1.647   5.239
  960WAT      O 3090   3.729   1.470   5.175
  960WAT     H1 3091   3.646   1.421   5.178
  960WAT     H2 3092   3.744   1.486   5.082
  961WAT      O 3093   4.093   1.679   4.868
  961WAT     H1 3094   4.136   1.622   4.804
  961WAT     H2 3095   4.160   1.742   4.892
  962WAT      O 3096   4.360   1.772   4.928
  962WAT     H1 3097   4.405   1.750   4.847
  962WAT     H2 3098   4.398   1.713   4.993
  963WAT      O 3099   3.561   1.791   4.495
  963WAT     H1 3100   3.543   1.731   4.568
  963WAT     H2 3101   3.475   1.811   4.459
  964WAT      O 3102   3.619   0.185   4.254
  964WAT     H1 3103   3.695   0.200   4.199
  964WAT     H2 3104   3.557   0.253   4.229
  965WAT      O 3105   4.259   0.389   4.555
  965WAT     H1 3106   4.185   0.340   4.521
  965WAT     H2 3107   4.331   0.325   4.557
  966WAT      O 3108   3.700   1.658   4.250
  966WAT     H1 3109   3.669   1.707   4.174
  966WAT     H2 3110   3.700   1.722   4.321
  967WAT      O 3111   3.990   1.869   4.129
  967WAT     H1 3112   4.050   1.827   4.068
  967WAT     H2 3113   4.010   1.830   4.214
  968WAT      O 3114   3.890   1.474   4.140
  968WAT     H1 3115   3.829   1.530   4.188
  968WAT     H2 3116   3.901   1.397   4.196
  969WAT      O 3117   4.626   0.884   2.742
  969WAT     H1 3118   4.631   0.789   2.732
  969WAT     H2 3119   4.588   0.915   2.660
  970WAT      O 3120   4.452   1.053   2.925
  970WAT     H1 3121   4.384   0.999   2.967
  970WAT     H2 3122   4.522   0.991   2.904
  971WAT      O 3123   3.844   1.096   3.021
  971WAT     H1 3124   3.774   1.049   3.066
  971WAT     H2 3125   3.917   1.095   3.082
  972WAT      O 3126   3.857   1.485   3.051
  972WAT     H1 3127   3.893   1.402   3.020
  972WAT     H2 3128   3.922   1.551   3.024
  973WAT      O 3129   3.698   0.586   2.396
  973WAT     H1 3130   3.604   0.605   2.391
  973WAT     H2 3131   3.724   0.564   2.307
  974WAT      O 3132   3.479   0.820   2.974
  974WAT     H1 3133   3.550   0.758   2.987
  974WAT     H2 3134   3.503   0.869   2.895
  975WAT      O 3135   4.474   1.725   2.785
  975WAT     H1 3136   4.410   1.757   2.721
  975WAT     H2 3137   4.559   1.751   2.750
  976WAT      O 3138   4.380   1.315   2.940
  976WAT     H1 3139   4.398   1.222   2.925
  976WAT     H2 3140   4.452   1.346   2.995
  977WAT      O 3141   3.611   0.389   3.174
  977WAT     H1 3142   3.605   0.299   3.205
  977WAT     H2 3143   3.554   0.439   3.233
  978WAT      O 3144   4.493   0.607   2.949
  978WAT     H1 3145   4.546   0.531   2.971
  978WAT     H2 3146   4.509   0.622   2.855
  979WAT      O 3147   3.919   0.445   2.498
  979WAT     H1 3148   3.936   0.524   2.549
  979WAT     H2 3149   3.825   0.448   2.480
  980WAT      O 3150   3.673   0.627   3.034
  980WAT     H1 3151   3.755   0.648   3.078
  980WAT     H2 3152   3.646   0.543   3.072
  981WAT      O 3153   4.103   0.746   2.941
  981WAT     H1 3154   4.166   0.795   2.994
  981WAT     H2 3155   4.145   0.661   2.926
  982WAT      O 3156   4.567   1.210   2.504
  982WAT     H1 3157   4.500   1.248   2.448
  982WAT     H2 3158   4.594   1.282   2.561
  983WAT      O 3159   4.063   1.170   3.188
  983WAT     H1 3160   4.020   1.227   3.251
  983WAT     H2 3161   4.078   1.226   3.111
  984WAT      O 3162   3.894   0.371   3.166
  984WAT     H1 3163   3.925   0.460   3.150
  984WAT     H2 3164   3.799   0.380   3.174
  985WAT      O 3165   3.978   1.370   3.358
  985WAT     H1 3166   4.033   1.442   3.327
  985WAT     H2 3167   3.889   1.401   3.346
  986WAT      O 3168   3.504   1.270   2.257
  986WAT     H1 3169   3.471   1.321   2.183
  986WAT     H2 3170   3.521   1.336   2.324
  987WAT      O 3171   4.505   0.930   2.482
  987WAT     H1 3172   4.409   0.930   2.489
  987WAT     H2 3173   4.528   1.022   2.470
  988WAT      O 3174   4.500   0.546   2.151
  988WAT     H1 3175   4.414   0.562   2.188
  988WAT     H2 3176   4.533   0.633   2.128
  989WAT      O 3177   4.057   0.970   2.744
  989WAT     H1 3178   4.024   0.896   2.692
  989WAT     H2 3179   4.073   0.932   2.831
  990WAT      O 3180   4.107   1.333   2.967
  990WAT     H1 3181   4.076   1.292   2.887
  990WAT     H2 3182   4.202   1.339   2.956
  991WAT      O 3183   3.929   0.651   3.133
  991WAT     H1 3184   3.981   0.677   3.057
  991WAT     H2 3185   3.969   0.698   3.206
  992WAT      O 3186   4.020   1.325   3.623
  992WAT     H1 3187   3.933   1.344   3.657
  992WAT     H2 3188   4.011   1.333   3.528
  993WAT      O 3189   4.727   1.012   2.212
  993WAT     H1 3190   4.766   0.925   2.209
  993WAT     H2 3191   4.798   1.069   2.240
  994WAT      O 3192   3.901   1.015   3.485
  994WAT     H1 3193   3.876   1.105   3.506
  994WAT     H2 3194   3.819   0.971   3.465
  995WAT      O 3195   4.526   1.490   2.616
  995WAT     H1 3196   4.571   1.564   2.576
  995WAT     H2 3197   4.513   1.517   2.707
  996WAT      O 3198   4.091   1.601   3.707
  996WAT     H1 3199   4.079   1.648   3.624
  996WAT     H2 3200   4.063   1.512   3.689
  997WAT      O 3201   3.726   0.865   2.505
  997WAT     H1 3202   3.722   0.937   2.443
  997WAT     H2 3203   3.708   0.786   2.453
  998WAT      O 3204   3.487   1.177   3.085
  998WAT     H1 3205   3.485   1.193   2.991
  998WAT     H2 3206   3.557   1.112   3.097
  999WAT      O 3207   3.611   1.352   2.714
  999WAT     H1 3208   3.589   1.379   2.624
  999WAT     H2 3209   3.701   1.321   2.709
 1000WAT      O 3210   4.602   1.768   3.416
 1000WAT     H1 3211   4.637   1.745   3.502
 1000WAT     H2 3212   4.514   1.802   3.435
 1001WAT      O 3213   4.783   1.798   2.359
 1001WAT     H1 3214   4.768   1.767   2.448
 1001WAT     H2 3215   4.791   1.718   2.306
 1002WAT      O 3216   4.039   1.768   2.522
 1002WAT     H1 3217   4.017   1.675   2.525
 1002WAT     H2 3218   3.959   1.812   2.551
 1003WAT      O 3219   4.731   1.709   2.619
 1003WAT     H1 3220   4.779   1.641   2.665
 1003WAT     H2 3221   4.745   1.788   2.672
 1004WAT      O 3222   3.498   1.298   3.340
 1004WAT     H1 3223   3.498   1.251   3.256
 1004WAT     H2 3224   3.557   1.247   3.396
 1005WAT      O 3225   3.990   0.217   2.827
 1005WAT     H1 3226   3.932   0.292   2.813
 1005WAT     H2 3227   4.021   0.228   2.917
 1006WAT      O 3228   4.402   0.483   3.405
 1006WAT     H1 3229   4.341   0.507   3.475
 1006WAT     H2 3230   4.362   0.407   3.364
 1007WAT      O 3231   4.615   0.765   3.718
 1007WAT     H1 3232   4.637   0.675   3.694
 1007WAT     H2 3233   4.699   0.807   3.737
 1008WAT      O 3234   4.190   0.254   3.028
 1008WAT     H1 3235   4.197   0.347   3.009
 1008WAT     H2 3236   4.239   0.211   2.958
 1009WAT      O 3237   3.956   0.720   2.621
 1009WAT     H1 3238   3.924   0.680   2.702
 1009WAT     H2 3239   3.878   0.761   2.582
 1010WAT      O 3240   4.666   0.707   2.467
 1010WAT     H1 3241   4.613   0.786   2.463
 1010WAT     H2 3242   4.727   0.714   2.394
 1011WAT      O 3243   4.202   0.807   3.672
 1011WAT     H1 3244   4.198   0.713   3.654
 1011WAT     H2 3245   4.285   0.835   3.634
 1012WAT      O 3246   4.553   0.586   2.684
 1012WAT     H1 3247   4.585   0.617   2.600
 1012WAT     H2 3248   4.562   0.490   2.679
 1013WAT      O 3249   3.721   0.451   3.495
 1013WAT     H1 3250   3.670   0.529   3.518
 1013WAT     H2 3251   3.658   0.380   3.501
 1014WAT      O 3252   4.372   0.446   3.806
 1014WAT     H1 3253   4.307   0.406   3.864
 1014WAT     H2 3254   4.437   0.484   3.865
 1015WAT      O 3255   3.450   0.237   2.899
 1015WAT     H1 3256   3.411   0.300   2.959
 1015WAT     H2 3257   3.512   0.188   2.953
 1016WAT      O 3258   3.474   0.636   2.007
 1016WAT     H1 3259   3.465   0.729   2.027
 1016WAT     H2 3260   3.413   0.621   1.934
 1017WAT      O 3261   4.592   0.844   3.090
 1017WAT     H1 3262   4.507   0.873   3.124
 1017WAT     H2 3263   4.573   0.759   3.049
 1018WAT      O 3264   4.240   0.507   2.923
 1018WAT     H1 3265   4.246   0.473   2.834
 1018WAT     H2 3266   4.328   0.541   2.942
 1019WAT      O 3267   3.820   0.495   2.814
 1019WAT     H1 3268   3.786   0.541   2.891
 1019WAT     H2 3269   3.743   0.457   2.773
 1020WAT      O 3270   4.253   0.606   2.244
 1020WAT     H1 3271   4.244   0.610   2.339
 1020WAT     H2 3272   4.214   0.688   2.212
 1021WAT      O 3273   4.634   0.386   3.023
 1021WAT     H1 3274   4.651   0.430   3.106
 1021WAT     H2 3275   4.623   0.294   3.046
 1022WAT      O 3276   4.146   0.843   2.147
 1022WAT     H1 3277   4.097   0.791   2.083
 1022WAT     H2 3278   4.219   0.881   2.097
 1023WAT      O 3279   3.662   1.217   3.550
 1023WAT     H1 3280   3.621   1.159   3.614
 1023WAT     H2 3281   3.693   1.291   3.602
 1024WAT      O 3282   4.277   0.914   3.098
 1024WAT     H1 3283   4.299   0.854   3.170
 1024WAT     H2 3284   4.240   0.991   3.142
 1025WAT      O 3285   3.566   0.383   2.706
 1025WAT     H1 3286   3.526   0.339   2.780
 1025WAT     H2 3287   3.575   0.315   2.639
 1026WAT      O 3288   4.051   0.810   3.333
 1026WAT     H1 3289   4.022   0.895   3.366
 1026WAT     H2 3290   4.146   0.814   3.337
 1027WAT      O 3291   3.916   1.239   2.398
 1027WAT     H1 3292   3.838   1.185   2.389
 1027WAT     H2 3293   3.987   1.185   2.361
 1028WAT      O 3294   4.521   0.285   2.393
 1028WAT     H1 3295   4.451   0.227   2.365
 1028WAT     H2 3296   4.517   0.359   2.333
 1029WAT      O 3297   4.512   1.149   3.567
 1029WAT     H1 3298   4.515   1.062   3.528
 1029WAT     H2 3299   4.435   1.147   3.624
 1030WAT      O 3300   3.908   1.212   2.773
 1030WAT     H1 3301   3.957   1.136   2.741
 1030WAT     H2 3302   3.866   1.180   2.853
 1031WAT      O 3303   4.409   1.333   2.286
 1031WAT     H1 3304   4.434   1.412   2.238
 1031WAT     H2 3305   4.323   1.353   2.322
 1032WAT      O 3306   3.650   0.911   3.446
 1032WAT     H1 3307   3.606   0.964   3.512
 1032WAT     H2 3308   3.636   0.821   3.475
 1033WAT      O 3309   3.973   0.944   3.740
 1033WAT     H1 3310   3.954   0.969   3.649
 1033WAT     H2 3311   4.056   0.897   3.734
 1034WAT      O 3312   4.509   1.419   3.531
 1034WAT     H1 3313   4.508   1.323   3.529
 1034WAT     H2 3314   4.441   1.442   3.594
 1035WAT      O 3315   4.682   1.260   2.812
 1035WAT     H1 3316   4.722   1.190   2.759
 1035WAT     H2 3317   4.596   1.226   2.836
 1036WAT      O 3318   4.285   1.331   2.564
 1036WAT     H1 3319   4.361   1.384   2.588
 1036WAT     H2 3320   4.212   1.393   2.565
 1037WAT      O 3321   3.498   0.893   2.108
 1037WAT     H1 3322   3.587   0.908   2.139
 1037WAT     H2 3323   3.462   0.981   2.093
 1038WAT      O 3324   4.238   1.045   2.531
 1038WAT     H1 3325   4.266   1.134   2.551
 1038WAT     H2 3326   4.187   1.018   2.607
 1039WAT      O 3327   4.445   1.590   3.239
 1039WAT     H1 3328   4.504   1.622   3.308
 1039WAT     H2 3329   4.486   1.509   3.209
 1040WAT      O 3330   4.589   1.391   3.111
 1040WAT     H1 3331   4.646   1.315   3.128
 1040WAT     H2 3332   4.649   1.461   3.087
 1041WAT      O 3333   4.758   1.471   3.430
 1041WAT     H1 3334   4.795   1.520   3.504
 1041WAT     H2 3335   4.669   1.451   3.457
 1042WAT      O 3336   3.560   1.830   2.157
 1042WAT     H1 3337   3.592   1.901   2.102
 1042WAT     H2 3338   3.532   1.873   2.238
 1043WAT      O 3339   3.527   0.257   3.528
 1043WAT     H1 3340   3.439   0.262   3.565
 1043WAT     H2 3341   3.553   0.166   3.541
 1044WAT      O 3342   3.544   1.649   3.594
 1044WAT     H1 3343   3.550   1.553   3.595
 1044WAT     H2 3344   3.462   1.667   3.548
 1045WAT      O 3345   4.339   1.468   3.749
 1045WAT     H1 3346   4.302   1.397   3.802
 1045WAT     H2 3347   4.267   1.531   3.740
 1046WAT      O 3348   4.157   1.554   2.247
 1046WAT     H1 3349   4.155   1.628   2.186
 1046WAT     H2 3350   4.067   1.523   2.251
 1047WAT      O 3351   3.703   1.087   2.318
 1047WAT     H1 3352   3.633   1.149   2.297
 1047WAT     H2 3353   3.748   1.073   2.235
 1048WAT      O 3354   4.651   0.475   3.276
 1048WAT     H1 3355   4.706   0.430   3.340
 1048WAT     H2 3356   4.572   0.498   3.324
 1049WAT      O 3357   4.433   1.561   2.121
 1049WAT     H1 3358   4.454   1.533   2.031
 1049WAT     H2 3359   4.340   1.543   2.131
 1050WAT      O 3360   4.200   0.616   2.507
 1050WAT     H1 3361   4.126   0.662   2.547
 1050WAT     H2 3362   4.232   0.557   2.575
 1051WAT      O 3363   4.347   0.765   3.313
 1051WAT     H1 3364   4.406   0.810   3.373
 1051WAT     H2 3365   4.368   0.672   3.323
 1052WAT      O 3366   4.596   0.312   2.652
 1052WAT     H1 3367   4.581   0.294   2.560
 1052WAT     H2 3368   4.689   0.289   2.665
 1053WAT      O 3369   4.306   1.818   2.581
 1053WAT     H1 3370   4.344   1.810   2.494
 1053WAT     H2 3371   4.212   1.801   2.567
 1054WAT      O 3372   4.014   0.454   2.237
 1054WAT     H1 3373   4.099   0.499   2.237
 1054WAT     H2 3374   3.986   0.456   2.329
 1055WAT      O 3375   3.901   1.078   2.099
 1055WAT     H1 3376   3.981   1.076   2.152
 1055WAT     H2 3377   3.924   1.030   2.019
 1056WAT      O 3378   3.774   0.822   2.175
 1056WAT     H1 3379   3.774   0.726   2.171
 1056WAT     H2 3380   3.866   0.846   2.178
 1057WAT      O 3381   3.861   1.845   2.880
 1057WAT     H1 3382   3.927   1.783   2.909
 1057WAT     H2 3383   3.909   1.925   2.862
 1058WAT      O 3384   3.537   1.449   2.465
 1058WAT     H1 3385   3.447   1.481   2.462
 1058WAT     H2 3386   3.590   1.525   2.442
 1059WAT      O 3387   3.766   1.743   3.799
 1059WAT     H1 3388   3.842   1.784   3.840
 1059WAT     H2 3389   3.708   1.722   3.872
 1060WAT      O 3390   4.156   1.746   2.055
 1060WAT     H1 3391   4.233   1.792   2.023
 1060WAT     H2 3392   4.123   1.698   1.979
 1061WAT      O 3393   4.646   1.366   3.795
 1061WAT     H1 3394   4.592   1.365   3.716
 1061WAT     H2 3395   4.610   1.295   3.849
 1062WAT      O 3396   3.537   1.015   3.691
 1062WAT     H1 3397   3.585   0.946   3.736
 1062WAT     H2 3398   3.457   1.026   3.741
 1063WAT      O 3399   4.221   1.274   2.029
 1063WAT     H1 3400   4.214   1.223   2.109
 1063WAT     H2 3401   4.214   1.209   1.959
 1064WAT      O 3402   4.240   1.151   3.638
 1064WAT     H1 3403   4.160   1.205   3.637
 1064WAT     H2 3404   4.247   1.118   3.549
 1065WAT      O 3405   4.536   1.174   2.099
 1065WAT     H1 3406   4.491   1.224   2.167
 1065WAT     H2 3407   4.600   1.120   2.146
 1066WAT      O 3408   3.723   0.817   3.773
 1066WAT     H1 3409   3.728   0.799   3.867
 1066WAT     H2 3410   3.811   0.848   3.750
 1067WAT      O 3411   4.109   1.070   2.289
 1067WAT     H1 3412   4.157   1.066   2.372
 1067WAT     H2 3413   4.127   0.987   2.246
 1068WAT      O 3414   3.928   0.672   3.573
 1068WAT     H1 3415   3.867   0.631   3.512
 1068WAT     H2 3416   3.991   0.717   3.516
 1069WAT      O 3417   4.366   0.964   2.035
 1069WAT     H1 3418   4.416   0.914   1.971
 1069WAT     H2 3419   4.419   1.043   2.050
 1070WAT      O 3420   3.976   0.375   3.590
 1070WAT     H1 3421   3.981   0.308   3.521
 1070WAT     H2 3422   3.902   0.430   3.565
 1071WAT      O 3423   4.255   0.246   3.295
 1071WAT     H1 3424   4.222   0.243   3.205
 1071WAT     H2 3425   4.196   0.188   3.344
 1072WAT      O 3426   4.274   1.119   3.357
 1072WAT     H1 3427   4.334   1.189   3.333
 1072WAT     H2 3428   4.195   1.135   3.304
 1073WAT      O 3429   4.519   0.875   3.490
 1073WAT     H1 3430   4.548   0.831   3.570
 1073WAT     H2 3431   4.600   0.892   3.442
 1074WAT      O 3432   4.740   0.957   3.366
 1074WAT     H1 3433   4.728   0.967   3.271
 1074WAT     H2 3434   4.803   1.025   3.390
 1075WAT      O 3435   3.999   0.675   1.992
 1075WAT     H1 3436   3.972   0.587   2.019
 1075WAT     H2 3437   3.980   0.677   1.898
 1076WAT      O 3438   4.090   1.760   3.462
 1076WAT     H1 3439   4.012   1.808   3.433
 1076WAT     H2 3440   4.106   1.697   3.392
 1077WAT      O 3441   4.212   0.540   3.607
 1077WAT     H1 3442   4.262   0.505   3.680
 1077WAT     H2 3443   4.131   0.489   3.606
 1078WAT      O 3444   4.685   0.511   3.651
 1078WAT     H1 3445   4.613   0.453   3.625
 1078WAT     H2 3446   4.756   0.451   3.674
 1079WAT      O 3447   3.885   0.404   1.977
 1079WAT     H1 3448   3.922   0.382   1.891
 1079WAT     H2 3449   3.951   0.375   2.040
 1080WAT      O 3450   4.360   1.866   3.483
 1080WAT     H1 3451   4.351   1.955   3.518
 1080WAT     H2 3452   4.271   1.832   3.481
 1081WAT      O 3453   4.211   0.283   2.073
 1081WAT     H1 3454   4.173   0.212   2.021
 1081WAT     H2 3455   4.203   0.253   2.163
 1082WAT      O 3456   4.419   1.799   2.264
 1082WAT     H1 3457   4.508   1.833   2.253
 1082WAT     H2 3458   4.418   1.719   2.211
 1083WAT      O 3459   3.788   1.324   2.058
 1083WAT     H1 3460   3.825   1.378   2.128
 1083WAT     H2 3461   3.827   1.238   2.070
 1084WAT      O 3462   3.502   1.599   2.821
 1084WAT     H1 3463   3.543   1.516   2.797
 1084WAT     H2 3464   3.539   1.620   2.907
 1085WAT      O 3465   3.973   1.438   2.586
 1085WAT     H1 3466   3.941   1.407   2.670
 1085WAT     H2 3467   3.957   1.366   2.526
 1086WAT      O 3468   3.551   1.690   3.084
 1086WAT     H1 3469   3.510   1.704   3.169
 1086WAT     H2 3470   3.597   1.772   3.066
 1087WAT      O 3471   3.530   0.935   2.714
 1087WAT     H1 3472   3.465   0.913   2.647
 1087WAT     H2 3473   3.614   0.923   2.671
 1088WAT      O 3474   3.648   0.976   3.177
 1088WAT     H1 3475   3.662   0.959   3.270
 1088WAT     H2 3476   3.586   0.908   3.150
 1089WAT      O 3477   3.588   0.675   3.573
 1089WAT     H1 3478   3.501   0.659   3.610
 1089WAT     H2 3479   3.639   0.707   3.647
 1090WAT      O 3480   3.454   0.655   2.306
 1090WAT     H1 3481   3.365   0.689   2.317
 1090WAT     H2 3482   3.487   0.700   2.228
 1091WAT      O 3483   3.716   0.562   2.119
 1091WAT     H1 3484   3.771   0.505   2.066
 1091WAT     H2 3485   3.636   0.573   2.067
 1092WAT      O 3486   3.774   1.433   3.695
 1092WAT     H1 3487   3.771   1.397   3.784
 1092WAT     H2 3488   3.780   1.527   3.708
 1093WAT      O 3489   4.151   1.584   3.258
 1093WAT     H1 3490   4.125   1.606   3.169
 1093WAT     H2 3491   4.247   1.588   3.257
 1094WAT      O 3492   4.366   0.226   3.641
 1094WAT     H1 3493   4.369   0.302   3.699
 1094WAT     H2 3494   4.457   0.214   3.613
 1095WAT      O 3495   3.761   1.726   3.418
 1095WAT     H1 3496   3.696   1.707   3.486
 1095WAT     H2 3497   3.763   1.647   3.364
 1096WAT      O 3498   3.729   1.473   3.298
 1096WAT     H1 3499   3.648   1.421   3.302
 1096WAT     H2 3500   3.744   1.486   3.205
 1097WAT      O 3501   4.094   1.678   2.990
 1097WAT     H1 3502   4.136   1.621   2.926
 1097WAT     H2 3503   4.161   1.742   3.014
 1098WAT      O 3504   4.360   1.772   3.051
 1098WAT     H1 3505   4.405   1.751   2.969
 1098WAT     H2 3506   4.398   1.713   3.116
 1099WAT      O 3507   3.562   1.789   2.618
 1099WAT     H1 3508   3.543   1.731   2.691
 1099WAT     H2 3509   3.475   1.811   2.582
 1100WAT      O 3510   3.619   0.186   2.378
 1100WAT     H1 3511   3.695   0.200   2.321
 1100WAT     H2 3512   3.557   0.253   2.351
 1101WAT      O 3513   4.259   0.389   2.679
 1101WAT     H1 3514   4.185   0.340   2.643
 1101WAT     H2 3515   4.331   0.326   2.679
 1102WAT      O 3516   3.700   1.659   2.373
 1102WAT     H1 3517   3.668   1.708   2.297
 1102WAT     H2 3518   3.700   1.723   2.444
 1103WAT      O 3519   4.363   1.867   3.801
 1103WAT     H1 3520   4.455   1.840   3.806
 1103WAT     H2 3521   4.364   1.947   3.750
 1104WAT      O 3522   3.990   1.869   2.252
 1104WAT     H1 3523   4.050   1.827   2.191
 1104WAT     H2 3524   4.010   1.830   2.337
 1105WAT      O 3525   3.890   1.474   2.263
 1105WAT     H1 3526   3.829   1.530   2.311
 1105WAT     H2 3527   3.901   1.397   2.318
 1106WAT      O 3528   4.625   0.884   0.865
 1106WAT     H1 3529   4.632   0.789   0.854
 1106WAT     H2 3530   4.588   0.915   0.782
 1107WAT      O 3531   4.452   1.053   1.048
 1107WAT     H1 3532   4.384   0.999   1.089
 1107WAT     H2 3533   4.522   0.991   1.026
 1108WAT      O 3534   3.844   1.096   1.143
 1108WAT     H1 3535   3.774   1.049   1.189
 1108WAT     H2 3536   3.917   1.094   1.204
 1109WAT      O 3537   3.857   1.486   1.173
 1109WAT     H1 3538   3.892   1.402   1.142
 1109WAT     H2 3539   3.922   1.551   1.146
 1110WAT      O 3540   3.697   0.592   0.519
 1110WAT     H1 3541   3.602   0.604   0.511
 1110WAT     H2 3542   3.725   0.566   0.431
 1111WAT      O 3543   3.479   0.820   1.097
 1111WAT     H1 3544   3.551   0.758   1.110
 1111WAT     H2 3545   3.503   0.869   1.019
 1112WAT      O 3546   4.474   1.724   0.908
 1112WAT     H1 3547   4.410   1.756   0.844
 1112WAT     H2 3548   4.559   1.752   0.873
 1113WAT      O 3549   4.380   1.315   1.063
 1113WAT     H1 3550   4.398   1.223   1.047
 1113WAT     H2 3551   4.452   1.345   1.118
 1114WAT      O 3552   3.611   0.389   1.296
 1114WAT     H1 3553   3.605   0.299   1.327
 1114WAT     H2 3554   3.554   0.439   1.356
 1115WAT      O 3555   4.493   0.608   1.071
 1115WAT     H1 3556   4.546   0.531   1.093
 1115WAT     H2 3557   4.509   0.622   0.978
 1116WAT      O 3558   3.919   0.445   0.621
 1116WAT     H1 3559   3.935   0.525   0.670
 1116WAT     H2 3560   3.824   0.444   0.605
 1117WAT      O 3561   3.673   0.627   1.157
 1117WAT     H1 3562   3.755   0.648   1.200
 1117WAT     H2 3563   3.646   0.543   1.194
 1118WAT      O 3564   4.103   0.746   1.064
 1118WAT     H1 3565   4.166   0.795   1.116
 1118WAT     H2 3566   4.145   0.661   1.048
 1119WAT      O 3567   4.567   1.211   0.627
 1119WAT     H1 3568   4.500   1.248   0.570
 1119WAT     H2 3569   4.593   1.283   0.684
 1120WAT      O 3570   4.063   1.170   1.310
 1120WAT     H1 3571   4.020   1.227   1.374
 1120WAT     H2 3572   4.077   1.226   1.234
 1121WAT      O 3573   3.894   0.371   1.288
 1121WAT     H1 3574   3.925   0.460   1.273
 1121WAT     H2 3575   3.799   0.380   1.297
 1122WAT      O 3576   3.978   1.370   1.481
 1122WAT     H1 3577   4.033   1.442   1.450
 1122WAT     H2 3578   3.889   1.401   1.469
 1123WAT      O 3579   3.499   1.270   0.383
 1123WAT     H1 3580   3.483   1.322   0.305
 1123WAT     H2 3581   3.520   1.334   0.451
 1124WAT      O 3582   4.504   0.930   0.604
 1124WAT     H1 3583   4.408   0.932   0.614
 1124WAT     H2 3584   4.528   1.021   0.592
 1125WAT      O 3585   4.505   0.542   0.291
 1125WAT     H1 3586   4.413   0.558   0.314
 1125WAT     H2 3587   4.531   0.619   0.240
 1126WAT      O 3588   4.057   0.970   0.867
 1126WAT     H1 3589   4.024   0.896   0.815
 1126WAT     H2 3590   4.073   0.933   0.953
 1127WAT      O 3591   4.107   1.333   1.090
 1127WAT     H1 3592   4.076   1.292   1.009
 1127WAT     H2 3593   4.202   1.339   1.079
 1128WAT      O 3594   3.929   0.651   1.255
 1128WAT     H1 3595   3.981   0.677   1.179
 1128WAT     H2 3596   3.969   0.698   1.329
 1129WAT      O 3597   4.021   1.325   1.746
 1129WAT     H1 3598   3.933   1.344   1.780
 1129WAT     H2 3599   4.011   1.333   1.651
 1130WAT      O 3600   4.724   1.008   0.342
 1130WAT     H1 3601   4.766   0.924   0.327
 1130WAT     H2 3602   4.796   1.068   0.360
 1131WAT      O 3603   3.901   1.015   1.608
 1131WAT     H1 3604   3.875   1.105   1.628
 1131WAT     H2 3605   3.819   0.971   1.587
 1132WAT      O 3606   4.527   1.490   0.739
 1132WAT     H1 3607   4.572   1.566   0.700
 1132WAT     H2 3608   4.512   1.516   0.830
 1133WAT      O 3609   4.090   1.601   1.830
 1133WAT     H1 3610   4.079   1.648   1.747
 1133WAT     H2 3611   4.063   1.511   1.811
 1134WAT      O 3612   3.726   0.864   0.629
 1134WAT     H1 3613   3.721   0.936   0.566
 1134WAT     H2 3614   3.708   0.786   0.577
 1135WAT      O 3615   3.487   1.176   1.208
 1135WAT     H1 3616   3.485   1.193   1.114
 1135WAT     H2 3617   3.557   1.112   1.220
 1136WAT      O 3618   3.611   1.352   0.836
 1136WAT     H1 3619   3.589   1.379   0.747
 1136WAT     H2 3620   3.701   1.322   0.831
 1137WAT      O 3621   4.602   1.768   1.539
 1137WAT     H1 3622   4.637   1.745   1.625
 1137WAT     H2 3623   4.514   1.802   1.558
 1138WAT      O 3624   4.783   1.798   0.482
 1138WAT     H1 3625   4.768   1.767   0.571
 1138WAT     H2 3626   4.795   1.717   0.431
 1139WAT      O 3627   4.038   1.768   0.645
 1139WAT     H1 3628   4.016   1.675   0.647
 1139WAT     H2 3629   3.958   1.812   0.674
 1140WAT      O 3630   4.732   1.709   0.741
 1140WAT     H1 3631   4.778   1.640   0.789
 1140WAT     H2 3632   4.745   1.788   0.794
 1141WAT      O 3633   3.499   1.298   1.462
 1141WAT     H1 3634   3.498   1.252   1.379
 1141WAT     H2 3635   3.557   1.246   1.518
 1142WAT      O 3636   3.989   0.216   0.951
 1142WAT     H1 3637   3.933   0.292   0.935
 1142WAT     H2 3638   4.021   0.228   1.040
 1143WAT      O 3639   4.402   0.483   1.528
 1143WAT     H1 3640   4.341   0.507   1.598
 1143WAT     H2 3641   4.362   0.407   1.486
 1144WAT      O 3642   4.615   0.765   1.841
 1144WAT     H1 3643   4.637   0.675   1.816
 1144WAT     H2 3644   4.699   0.807   1.860
 1145WAT      O 3645   4.191   0.254   1.151
 1145WAT     H1 3646   4.197   0.347   1.132
 1145WAT     H2 3647   4.238   0.212   1.079
 1146WAT      O 3648   3.956   0.720   0.743
 1146WAT     H1 3649   3.924   0.680   0.824
 1146WAT     H2 3650   3.878   0.761   0.705
 1147WAT      O 3651   4.670   0.709   0.593
 1147WAT     H1 3652   4.614   0.787   0.586
 1147WAT     H2 3653   4.722   0.710   0.513
 1148WAT      O 3654   4.202   0.807   1.795
 1148WAT     H1 3655   4.197   0.713   1.776
 1148WAT     H2 3656   4.285   0.835   1.757
 1149WAT      O 3657   4.553   0.585   0.807
 1149WAT     H1 3658   4.586   0.618   0.723
 1149WAT     H2 3659   4.562   0.490   0.801
 1150WAT      O 3660   3.721   0.451   1.618
 1150WAT     H1 3661   3.670   0.529   1.640
 1150WAT     H2 3662   3.658   0.379   1.623
 1151WAT      O 3663   4.372   0.446   1.929
 1151WAT     H1 3664   4.307   0.406   1.987
 1151WAT     H2 3665   4.437   0.484   1.988
 1152WAT      O 3666   3.450   0.237   1.022
 1152WAT     H1 3667   3.411   0.301   1.081
 1152WAT     H2 3668   3.512   0.188   1.075
 1153WAT      O 3669   4.592   0.844   1.213
 1153WAT     H1 3670   4.507   0.873   1.246
 1153WAT     H2 3671   4.574   0.759   1.171
 1154WAT      O 3672   4.240   0.507   1.046
 1154WAT     H1 3673   4.246   0.473   0.957
 1154WAT     H2 3674   4.328   0.541   1.064
 1155WAT      O 3675   3.820   0.496   0.936
 1155WAT     H1 3676   3.786   0.542   1.013
 1155WAT     H2 3677   3.743   0.456   0.896
 1156WAT      O 3678   4.252   0.606   0.366
 1156WAT     H1 3679   4.247   0.605   0.461
 1156WAT     H2 3680   4.212   0.690   0.341
 1157WAT      O 3681   4.635   0.386   1.146
 1157WAT     H1 3682   4.651   0.430   1.229
 1157WAT     H2 3683   4.622   0.294   1.169
 1158WAT      O 3684   4.145   0.842   0.268
 1158WAT     H1 3685   4.094   0.797   0.200
 1158WAT     H2 3686   4.219   0.880   0.221
 1159WAT      O 3687   3.664   1.216   1.673
 1159WAT     H1 3688   3.621   1.159   1.736
 1159WAT     H2 3689   3.693   1.291   1.724
 1160WAT      O 3690   4.277   0.914   1.220
 1160WAT     H1 3691   4.299   0.854   1.292
 1160WAT     H2 3692   4.240   0.991   1.264
 1161WAT      O 3693   3.566   0.383   0.829
 1161WAT     H1 3694   3.526   0.338   0.903
 1161WAT     H2 3695   3.574   0.316   0.761
 1162WAT      O 3696   4.051   0.810   1.456
 1162WAT     H1 3697   4.022   0.895   1.489
 1162WAT     H2 3698   4.146   0.814   1.460
 1163WAT      O 3699   3.914   1.240   0.520
 1163WAT     H1 3700   3.836   1.185   0.514
 1163WAT     H2 3701   3.985   1.187   0.485
 1164WAT      O 3702   4.520   0.285   0.515
 1164WAT     H1 3703   4.448   0.230   0.486
 1164WAT     H2 3704   4.519   0.360   0.455
 1165WAT      O 3705   4.512   1.149   1.690
 1165WAT     H1 3706   4.515   1.062   1.651
 1165WAT     H2 3707   4.435   1.147   1.746
 1166WAT      O 3708   3.908   1.212   0.896
 1166WAT     H1 3709   3.957   1.136   0.863
 1166WAT     H2 3710   3.865   1.180   0.976
 1167WAT      O 3711   4.404   1.335   0.411
 1167WAT     H1 3712   4.418   1.408   0.352
 1167WAT     H2 3713   4.316   1.349   0.447
 1168WAT      O 3714   3.650   0.911   1.569
 1168WAT     H1 3715   3.606   0.965   1.635
 1168WAT     H2 3716   3.635   0.821   1.598
 1169WAT      O 3717   3.973   0.945   1.862
 1169WAT     H1 3718   3.954   0.970   1.772
 1169WAT     H2 3719   4.056   0.897   1.857
 1170WAT      O 3720   4.509   1.419   1.654
 1170WAT     H1 3721   4.508   1.323   1.651
 1170WAT     H2 3722   4.441   1.442   1.717
 1171WAT      O 3723   4.683   1.259   0.935
 1171WAT     H1 3724   4.721   1.190   0.881
 1171WAT     H2 3725   4.596   1.226   0.958
 1172WAT      O 3726   4.284   1.331   0.688
 1172WAT     H1 3727   4.361   1.384   0.710
 1172WAT     H2 3728   4.211   1.392   0.688
 1173WAT      O 3729   3.502   0.890   0.239
 1173WAT     H1 3730   3.596   0.900   0.255
 1173WAT     H2 3731   3.468   0.980   0.237
 1174WAT      O 3732   4.240   1.043   0.654
 1174WAT     H1 3733   4.266   1.133   0.673
 1174WAT     H2 3734   4.187   1.017   0.730
 1175WAT      O 3735   4.445   1.590   1.362
 1175WAT     H1 3736   4.504   1.622   1.430
 1175WAT     H2 3737   4.485   1.509   1.331
 1176WAT      O 3738   4.589   1.390   1.234
 1176WAT     H1 3739   4.646   1.315   1.249
 1176WAT     H2 3740   4.649   1.461   1.210
 1177WAT      O 3741   4.758   1.471   1.552
 1177WAT     H1 3742   4.795   1.519   1.626
 1177WAT     H2 3743   4.669   1.451   1.579
 1178WAT      O 3744   3.557   1.822   0.308
 1178WAT     H1 3745   3.585   1.869   0.229
 1178WAT     H2 3746   3.541   1.891   0.373
 1179WAT      O 3747   3.527   0.257   1.651
 1179WAT     H1 3748   3.438   0.263   1.687
 1179WAT     H2 3749   3.553   0.166   1.664
 1180WAT      O 3750   3.544   1.647   1.719
 1180WAT     H1 3751   3.550   1.551   1.715
 1180WAT     H2 3752   3.464   1.668   1.669
 1181WAT      O 3753   4.339   1.468   1.872
 1181WAT     H1 3754   4.302   1.397   1.924
 1181WAT     H2 3755   4.266   1.531   1.863
 1182WAT      O 3756   4.152   1.563   0.372
 1182WAT     H1 3757   4.148   1.617   0.293
 1182WAT     H2 3758   4.064   1.527   0.380
 1183WAT      O 3759   3.699   1.088   0.445
 1183WAT     H1 3760   3.629   1.151   0.429
 1183WAT     H2 3761   3.738   1.074   0.359
 1184WAT      O 3762   4.652   0.476   1.398
 1184WAT     H1 3763   4.706   0.430   1.462
 1184WAT     H2 3764   4.572   0.499   1.446
 1185WAT      O 3765   4.200   0.616   0.629
 1185WAT     H1 3766   4.126   0.661   0.670
 1185WAT     H2 3767   4.232   0.557   0.697
 1186WAT      O 3768   4.347   0.765   1.436
 1186WAT     H1 3769   4.406   0.810   1.496
 1186WAT     H2 3770   4.368   0.672   1.446
 1187WAT      O 3771   4.596   0.311   0.775
 1187WAT     H1 3772   4.580   0.294   0.682
 1187WAT     H2 3773   4.689   0.290   0.787
 1188WAT      O 3774   4.306   1.815   0.706
 1188WAT     H1 3775   4.343   1.818   0.618
 1188WAT     H2 3776   4.212   1.801   0.691
 1189WAT      O 3777   4.004   0.469   0.359
 1189WAT     H1 3778   4.096   0.496   0.358
 1189WAT     H2 3779   3.984   0.457   0.452
 1190WAT      O 3780   3.780   0.837   0.292
 1190WAT     H1 3781   3.767   0.743   0.283
 1190WAT     H2 3782   3.874   0.847   0.310
 1191WAT      O 3783   3.860   1.845   1.003
 1191WAT     H1 3784   3.927   1.782   1.031
 1191WAT     H2 3785   3.909   1.925   0.985
 1192WAT      O 3786   3.537   1.449   0.587
 1192WAT     H1 3787   3.447   1.482   0.586
 1192WAT     H2 3788   3.591   1.525   0.565
 1193WAT      O 3789   3.764   1.747   1.923
 1193WAT     H1 3790   3.844   1.782   1.963
 1193WAT     H2 3791   3.710   1.721   1.998
 1194WAT      O 3792   4.646   1.366   1.918
 1194WAT     H1 3793   4.592   1.365   1.838
 1194WAT     H2 3794   4.610   1.295   1.971
 1195WAT      O 3795   3.537   1.015   1.814
 1195WAT     H1 3796   3.585   0.946   1.859
 1195WAT     H2 3797   3.457   1.027   1.864
 1196WAT      O 3798   4.240   1.152   1.761
 1196WAT     H1 3799   4.160   1.205   1.760
 1196WAT     H2 3800   4.247   1.118   1.671
 1197WAT      O 3801   4.547   1.186   0.226
 1197WAT     H1 3802   4.491   1.221   0.295
 1197WAT     H2 3803   4.600   1.119   0.270
 1198WAT      O 3804   3.723   0.817   1.896
 1198WAT     H1 3805   3.728   0.799   1.990
 1198WAT     H2 3806   3.811   0.848   1.873
 1199WAT      O 3807   4.099   1.071   0.421
 1199WAT     H1 3808   4.155   1.061   0.498
 1199WAT     H2 3809   4.115   0.992   0.369
 1200WAT      O 3810   3.928   0.672   1.695
 1200WAT     H1 3811   3.867   0.631   1.635
 1200WAT     H2 3812   3.991   0.717   1.639
 1201WAT      O 3813   3.976   0.375   1.712
 1201WAT     H1 3814   3.981   0.308   1.644
 1201WAT     H2 3815   3.903   0.430   1.687
 1202WAT      O 3816   4.255   0.246   1.418
 1202WAT     H1 3817   4.222   0.243   1.328
 1202WAT     H2 3818   4.196   0.188   1.466
 1203WAT      O 3819   4.274   1.119   1.479
 1203WAT     H1 3820   4.334   1.189   1.455
 1203WAT     H2 3821   4.195   1.135   1.427
 1204WAT      O 3822   4.519   0.876   1.613
 1204WAT     H1 3823   4.548   0.832   1.693
 1204WAT     H2 3824   4.600   0.892   1.565
 1205WAT      O 3825   4.740   0.957   1.488
 1205WAT     H1 3826   4.728   0.967   1.394
 1205WAT     H2 3827   4.803   1.025   1.512
 1206WAT      O 3828   4.090   1.760   1.585
 1206WAT     H1 3829   4.012   1.808   1.556
 1206WAT     H2 3830   4.107   1.697   1.515
 1207WAT      O 3831   4.212   0.540   1.729
 1207WAT     H1 3832   4.262   0.505   1.803
 1207WAT     H2 3833   4.132   0.489   1.729
 1208WAT      O 3834   4.685   0.511   1.773
 1208WAT     H1 3835   4.613   0.453   1.747
 1208WAT     H2 3836   4.756   0.451   1.796
 1209WAT      O 3837   4.360   1.866   1.607
 1209WAT     H1 3838   4.351   1.955   1.641
 1209WAT     H2 3839   4.271   1.832   1.603
 1210WAT      O 3840   4.416   1.787   0.378
 1210WAT     H1 3841   4.501   1.832   0.371
 1210WAT     H2 3842   4.419   1.720   0.310
 1211WAT      O 3843   3.774   1.304   0.200
 1211WAT     H1 3844   3.812   1.378   0.246
 1211WAT     H2 3845   3.850   1.250   0.176
 1212WAT      O 3846   3.503   1.599   0.943
 1212WAT     H1 3847   3.543   1.516   0.920
 1212WAT     H2 3848   3.538   1.620   1.030
 1213WAT      O 3849   3.974   1.438   0.708
 1213WAT     H1 3850   3.941   1.407   0.793
 1213WAT     H2 3851   3.957   1.366   0.648
 1214WAT      O 3852   3.551   1.690   1.207
 1214WAT     H1 3853   3.507   1.703   1.291
 1214WAT     H2 3854   3.597   1.772   1.190
 1215WAT      O 3855   3.530   0.935   0.837
 1215WAT     H1 3856   3.465   0.913   0.771
 1215WAT     H2 3857   3.614   0.922   0.794
 1216WAT      O 3858   3.649   0.976   1.300
 1216WAT     H1 3859   3.662   0.959   1.393
 1216WAT     H2 3860   3.586   0.909   1.273
 1217WAT      O 3861   3.588   0.674   1.696
 1217WAT     H1 3862   3.500   0.659   1.732
 1217WAT     H2 3863   3.639   0.707   1.770
 1218WAT      O 3864   3.452   0.657   0.414
 1218WAT     H1 3865   3.366   0.689   0.440
 1218WAT     H2 3866   3.484   0.722   0.352
 1219WAT      O 3867   3.720   0.572   0.235
 1219WAT     H1 3868   3.787   0.514   0.200
 1219WAT     H2 3869   3.647   0.565   0.173
 1220WAT      O 3870   3.773   1.432   1.817
 1220WAT     H1 3871   3.771   1.396   1.906
 1220WAT     H2 3872   3.780   1.527   1.830
 1221WAT      O 3873   4.152   1.584   1.381
 1221WAT     H1 3874   4.125   1.606   1.292
 1221WAT     H2 3875   4.247   1.588   1.379
 1222WAT      O 3876   4.366   0.226   1.764
 1222WAT     H1 3877   4.369   0.302   1.822
 1222WAT     H2 3878   4.456   0.214   1.735
 1223WAT      O 3879   3.761   1.726   1.541
 1223WAT     H1 3880   3.696   1.707   1.608
 1223WAT     H2 3881   3.763   1.647   1.487
 1224WAT      O 3882   3.729   1.473   1.421
 1224WAT     H1 3883   3.648   1.421   1.425
 1224WAT     H2 3884   3.744   1.486   1.327
 1225WAT      O 3885   4.094   1.678   1.113
 1225WAT     H1 3886   4.136   1.622   1.048
 1225WAT     H2 3887   4.161   1.742   1.137
 1226WAT      O 3888   4.360   1.772   1.174
 1226WAT     H1 3889   4.405   1.751   1.092
 1226WAT     H2 3890   4.398   1.713   1.238
 1227WAT      O 3891   3.561   1.791   0.742
 1227WAT     H1 3892   3.543   1.731   0.814
 1227WAT     H2 3893   3.475   1.811   0.705
 1228WAT      O 3894   3.619   0.189   0.504
 1228WAT     H1 3895   3.692   0.197   0.442
 1228WAT     H2 3896   3.555   0.253   0.474
 1229WAT      O 3897   4.259   0.388   0.802
 1229WAT     H1 3898   4.185   0.340   0.763
 1229WAT     H2 3899   4.331   0.326   0.801
 1230WAT      O 3900   3.701   1.658   0.494
 1230WAT     H1 3901   3.665   1.704   0.419
 1230WAT     H2 3902   3.700   1.723   0.565
 1231WAT      O 3903   4.363   1.867   1.924
 1231WAT     H1 3904   4.455   1.840   1.928
 1231WAT     H2 3905   4.365   1.948   1.872
 1232WAT      O 3906   3.990   1.874   0.381
 1232WAT     H1 3907   4.048   1.825   0.323
 1232WAT     H2 3908   4.004   1.834   0.467
 1233WAT      O 3909   3.893   1.475   0.384
 1233WAT     H1 3910   3.829   1.531   0.430
 1233WAT     H2 3911   3.899   1.397   0.439
 1234WAT      O 3912   2.761   4.629   4.614
 1234WAT     H1 3913   2.745   4.535   4.602
 1234WAT     H2 3914   2.712   4.670   4.543
 1235WAT      O 3915   2.574   4.806   4.802
 1235WAT     H1 3916   2.506   4.755   4.845
 1235WAT     H2 3917   2.645   4.744   4.788
 1236WAT      O 3918   1.966   4.850   4.898
 1236WAT     H1 3919   1.897   4.803   4.944
 1236WAT     H2 3920   2.040   4.850   4.959
 1237WAT      O 3921   2.980   5.240   4.679
 1237WAT     H1 3922   2.934   5.164   4.714
 1237WAT     H2 3923   3.054   5.252   4.737
 1238WAT      O 3924   1.975   5.242   4.924
 1238WAT     H1 3925   2.014   5.159   4.898
 1238WAT     H2 3926   2.043   5.307   4.907
 1239WAT      O 3927   1.822   4.337   4.273
 1239WAT     H1 3928   1.729   4.358   4.269
 1239WAT     H2 3929   1.846   4.317   4.183
 1240WAT      O 3930   1.601   4.575   4.852
 1240WAT     H1 3931   1.673   4.513   4.864
 1240WAT     H2 3932   1.625   4.624   4.773
 1241WAT      O 3933   2.505   5.071   4.816
 1241WAT     H1 3934   2.522   4.977   4.802
 1241WAT     H2 3935   2.575   5.098   4.876
 1242WAT      O 3936   1.736   4.144   5.051
 1242WAT     H1 3937   1.729   4.052   5.076
 1242WAT     H2 3938   1.677   4.190   5.111
 1243WAT      O 3939   2.618   4.359   4.825
 1243WAT     H1 3940   2.668   4.280   4.846
 1243WAT     H2 3941   2.632   4.373   4.732
 1244WAT      O 3942   2.039   4.194   4.382
 1244WAT     H1 3943   2.057   4.277   4.428
 1244WAT     H2 3944   1.947   4.202   4.356
 1245WAT      O 3945   3.009   4.107   4.525
 1245WAT     H1 3946   3.087   4.054   4.539
 1245WAT     H2 3947   3.010   4.170   4.597
 1246WAT      O 3948   1.796   4.382   4.911
 1246WAT     H1 3949   1.878   4.403   4.955
 1246WAT     H2 3950   1.768   4.299   4.949
 1247WAT      O 3951   2.225   4.500   4.819
 1247WAT     H1 3952   2.288   4.549   4.872
 1247WAT     H2 3953   2.268   4.416   4.803
 1248WAT      O 3954   3.419   4.308   5.187
 1248WAT     H1 3955   3.361   4.366   5.138
 1248WAT     H2 3956   3.460   4.365   5.252
 1249WAT      O 3957   2.048   3.944   5.242
 1249WAT     H1 3958   2.054   4.008   5.171
 1249WAT     H2 3959   1.963   3.903   5.231
 1250WAT      O 3960   2.689   4.965   4.385
 1250WAT     H1 3961   2.624   5.001   4.325
 1250WAT     H2 3962   2.724   5.042   4.431
 1251WAT      O 3963   2.184   4.925   5.065
 1251WAT     H1 3964   2.142   4.983   5.129
 1251WAT     H2 3965   2.200   4.981   4.989
 1252WAT      O 3966   3.038   4.288   4.803
 1252WAT     H1 3967   2.958   4.310   4.852
 1252WAT     H2 3968   3.073   4.373   4.777
 1253WAT      O 3969   2.014   4.126   5.043
 1253WAT     H1 3970   2.048   4.214   5.025
 1253WAT     H2 3971   1.919   4.137   5.045
 1254WAT      O 3972   2.100   5.126   5.238
 1254WAT     H1 3973   2.159   5.195   5.207
 1254WAT     H2 3974   2.012   5.159   5.221
 1255WAT      O 3975   1.627   5.025   4.134
 1255WAT     H1 3976   1.592   5.075   4.061
 1255WAT     H2 3977   1.643   5.090   4.203
 1256WAT      O 3978   3.179   5.265   5.043
 1256WAT     H1 3979   3.110   5.331   5.032
 1256WAT     H2 3980   3.232   5.273   4.964
 1257WAT      O 3981   3.322   4.240   4.851
 1257WAT     H1 3982   3.228   4.251   4.864
 1257WAT     H2 3983   3.361   4.315   4.896
 1258WAT      O 3984   2.380   3.877   4.670
 1258WAT     H1 3985   2.411   3.818   4.602
 1258WAT     H2 3986   2.287   3.887   4.652
 1259WAT      O 3987   3.075   5.112   4.415
 1259WAT     H1 3988   3.059   5.019   4.428
 1259WAT     H2 3989   3.047   5.152   4.498
 1260WAT      O 3990   2.890   4.940   5.038
 1260WAT     H1 3991   2.932   4.912   4.957
 1260WAT     H2 3992   2.962   4.964   5.096
 1261WAT      O 3993   2.626   4.685   4.367
 1261WAT     H1 3994   2.530   4.686   4.367
 1261WAT     H2 3995   2.650   4.775   4.347
 1262WAT      O 3996   2.623   4.299   4.026
 1262WAT     H1 3997   2.536   4.317   4.062
 1262WAT     H2 3998   2.664   4.386   4.017
 1263WAT      O 3999   3.270   4.773   5.046
 1263WAT     H1 4000   3.194   4.801   4.994
 1263WAT     H2 4001   3.342   4.826   5.013
 1264WAT      O 4002   3.023   4.838   4.407
 1264WAT     H1 4003   2.957   4.804   4.346
 1264WAT     H2 4004   3.021   4.777   4.480
 1265WAT      O 4005   2.973   4.458   5.139
 1265WAT     H1 4006   2.931   4.542   5.155
 1265WAT     H2 4007   2.901   4.396   5.126
 1266WAT      O 4008   2.180   4.725   4.622
 1266WAT     H1 4009   2.148   4.651   4.570
 1266WAT     H2 4010   2.196   4.688   4.709
 1267WAT      O 4011   2.229   5.083   4.845
 1267WAT     H1 4012   2.199   5.047   4.762
 1267WAT     H2 4013   2.324   5.095   4.834
 1268WAT      O 4014   2.053   4.404   5.010
 1268WAT     H1 4015   2.104   4.432   4.934
 1268WAT     H2 4016   2.092   4.453   5.083
 1269WAT      O 4017   2.145   5.082   5.503
 1269WAT     H1 4018   2.057   5.091   5.539
 1269WAT     H2 4019   2.133   5.090   5.408
 1270WAT      O 4020   2.846   4.767   4.104
 1270WAT     H1 4021   2.879   4.679   4.088
 1270WAT     H2 4022   2.924   4.823   4.101
 1271WAT      O 4023   2.027   4.767   5.356
 1271WAT     H1 4024   2.004   4.855   5.385
 1271WAT     H2 4025   1.943   4.724   5.339
 1272WAT      O 4026   2.637   5.254   4.498
 1272WAT     H1 4027   2.697   5.311   4.450
 1272WAT     H2 4028   2.661   5.266   4.590
 1273WAT      O 4029   2.201   5.353   5.586
 1273WAT     H1 4030   2.195   5.393   5.499
 1273WAT     H2 4031   2.198   5.259   5.569
 1274WAT      O 4032   3.187   3.891   3.930
 1274WAT     H1 4033   3.179   3.881   4.025
 1274WAT     H2 4034   3.271   3.935   3.918
 1275WAT      O 4035   1.849   4.619   4.383
 1275WAT     H1 4036   1.845   4.692   4.321
 1275WAT     H2 4037   1.831   4.542   4.330
 1276WAT      O 4038   1.610   4.933   4.962
 1276WAT     H1 4039   1.607   4.947   4.867
 1276WAT     H2 4040   1.679   4.867   4.974
 1277WAT      O 4041   1.734   5.109   4.591
 1277WAT     H1 4042   1.712   5.132   4.501
 1277WAT     H2 4043   1.824   5.076   4.586
 1278WAT      O 4044   3.327   5.142   5.425
 1278WAT     H1 4045   3.365   5.125   5.339
 1278WAT     H2 4046   3.341   5.060   5.474
 1279WAT      O 4047   2.890   5.313   4.091
 1279WAT     H1 4048   2.813   5.301   4.035
 1279WAT     H2 4049   2.960   5.269   4.043
 1280WAT      O 4050   3.331   4.358   5.521
 1280WAT     H1 4051   3.280   4.423   5.473
 1280WAT     H2 4052   3.276   4.280   5.521
 1281WAT      O 4053   1.621   5.051   5.216
 1281WAT     H1 4054   1.620   5.006   5.132
 1281WAT     H2 4055   1.680   4.999   5.270
 1282WAT      O 4056   2.102   3.963   4.717
 1282WAT     H1 4057   2.058   4.043   4.690
 1282WAT     H2 4058   2.150   3.988   4.796
 1283WAT      O 4059   2.523   4.241   5.277
 1283WAT     H1 4060   2.467   4.263   5.352
 1283WAT     H2 4061   2.486   4.160   5.243
 1284WAT      O 4062   3.037   4.341   5.381
 1284WAT     H1 4063   2.951   4.331   5.420
 1284WAT     H2 4064   3.022   4.393   5.302
 1285WAT      O 4065   2.734   4.516   5.584
 1285WAT     H1 4066   2.759   4.425   5.571
 1285WAT     H2 4067   2.813   4.558   5.618
 1286WAT      O 4068   2.403   3.920   4.201
 1286WAT     H1 4069   2.337   3.917   4.270
 1286WAT     H2 4070   2.417   3.828   4.178
 1287WAT      O 4071   2.309   4.010   4.902
 1287WAT     H1 4072   2.325   4.102   4.881
 1287WAT     H2 4073   2.355   3.961   4.835
 1288WAT      O 4074   2.078   4.473   4.498
 1288WAT     H1 4075   2.045   4.436   4.579
 1288WAT     H2 4076   2.001   4.516   4.459
 1289WAT      O 4077   2.795   4.465   4.344
 1289WAT     H1 4078   2.739   4.542   4.338
 1289WAT     H2 4079   2.844   4.464   4.262
 1290WAT      O 4080   2.321   4.560   5.549
 1290WAT     H1 4081   2.319   4.466   5.529
 1290WAT     H2 4082   2.410   4.587   5.525
 1291WAT      O 4083   2.682   4.341   4.562
 1291WAT     H1 4084   2.711   4.372   4.476
 1291WAT     H2 4085   2.686   4.245   4.555
 1292WAT      O 4086   1.841   4.204   5.371
 1292WAT     H1 4087   1.790   4.283   5.388
 1292WAT     H2 4088   1.777   4.133   5.376
 1293WAT      O 4089   1.566   3.989   4.775
 1293WAT     H1 4090   1.541   4.053   4.841
 1293WAT     H2 4091   1.633   3.935   4.817
 1294WAT      O 4092   1.596   4.391   3.885
 1294WAT     H1 4093   1.587   4.484   3.904
 1294WAT     H2 4094   1.536   4.375   3.812
 1295WAT      O 4095   2.718   4.588   4.961
 1295WAT     H1 4096   2.642   4.631   5.001
 1295WAT     H2 4097   2.682   4.507   4.924
 1296WAT      O 4098   2.363   4.261   4.798
 1296WAT     H1 4099   2.369   4.226   4.709
 1296WAT     H2 4100   2.451   4.295   4.817
 1297WAT      O 4101   1.943   4.246   4.693
 1297WAT     H1 4102   1.910   4.295   4.768
 1297WAT     H2 4103   1.865   4.211   4.651
 1298WAT      O 4104   2.375   4.362   4.120
 1298WAT     H1 4105   2.367   4.364   4.215
 1298WAT     H2 4106   2.336   4.444   4.090
 1299WAT      O 4107   2.764   4.140   4.907
 1299WAT     H1 4108   2.771   4.177   4.994
 1299WAT     H2 4109   2.729   4.051   4.921
 1300WAT      O 4110   2.268   4.600   4.024
 1300WAT     H1 4111   2.220   4.546   3.960
 1300WAT     H2 4112   2.342   4.636   3.974
 1301WAT      O 4113   3.087   3.855   5.490
 1301WAT     H1 4114   3.161   3.810   5.532
 1301WAT     H2 4115   3.111   3.857   5.397
 1302WAT      O 4116   1.785   4.971   5.431
 1302WAT     H1 4117   1.744   4.907   5.488
 1302WAT     H2 4118   1.803   5.046   5.488
 1303WAT      O 4119   2.401   4.669   4.975
 1303WAT     H1 4120   2.423   4.610   5.047
 1303WAT     H2 4121   2.363   4.746   5.018
 1304WAT      O 4122   1.691   4.137   4.585
 1304WAT     H1 4123   1.651   4.094   4.661
 1304WAT     H2 4124   1.692   4.070   4.518
 1305WAT      O 4125   2.174   4.566   5.206
 1305WAT     H1 4126   2.142   4.648   5.244
 1305WAT     H2 4127   2.269   4.570   5.215
 1306WAT      O 4128   2.038   4.992   4.274
 1306WAT     H1 4129   1.960   4.938   4.265
 1306WAT     H2 4130   2.109   4.939   4.239
 1307WAT      O 4131   3.104   4.879   4.842
 1307WAT     H1 4132   3.175   4.931   4.805
 1307WAT     H2 4133   3.079   4.819   4.772
 1308WAT      O 4134   2.651   4.032   4.257
 1308WAT     H1 4135   2.567   3.987   4.245
 1308WAT     H2 4136   2.640   4.116   4.214
 1309WAT      O 4137   2.647   4.899   5.447
 1309WAT     H1 4138   2.639   4.814   5.405
 1309WAT     H2 4139   2.568   4.908   5.501
 1310WAT      O 4140   2.921   4.463   4.095
 1310WAT     H1 4141   3.007   4.499   4.074
 1310WAT     H2 4142   2.923   4.374   4.060
 1311WAT      O 4143   2.029   4.966   4.651
 1311WAT     H1 4144   2.080   4.891   4.618
 1311WAT     H2 4145   1.989   4.934   4.731
 1312WAT      O 4146   2.532   5.086   4.164
 1312WAT     H1 4147   2.560   5.164   4.116
 1312WAT     H2 4148   2.446   5.109   4.199
 1313WAT      O 4149   1.772   4.666   5.323
 1313WAT     H1 4150   1.727   4.719   5.389
 1313WAT     H2 4151   1.759   4.576   5.351
 1314WAT      O 4152   2.094   4.699   5.617
 1314WAT     H1 4153   2.072   4.713   5.525
 1314WAT     H2 4154   2.176   4.650   5.615
 1315WAT      O 4155   2.637   5.172   5.403
 1315WAT     H1 4156   2.640   5.077   5.404
 1315WAT     H2 4157   2.567   5.195   5.465
 1316WAT      O 4158   3.152   4.600   4.033
 1316WAT     H1 4159   3.138   4.643   3.949
 1316WAT     H2 4160   3.217   4.655   4.077
 1317WAT      O 4161   3.259   4.852   5.337
 1317WAT     H1 4162   3.182   4.907   5.323
 1317WAT     H2 4163   3.299   4.846   5.250
 1318WAT      O 4164   3.265   5.273   4.298
 1318WAT     H1 4165   3.201   5.217   4.342
 1318WAT     H2 4166   3.213   5.324   4.236
 1319WAT      O 4167   2.812   5.012   4.696
 1319WAT     H1 4168   2.841   4.950   4.629
 1319WAT     H2 4169   2.723   4.985   4.717
 1320WAT      O 4170   2.407   5.087   4.443
 1320WAT     H1 4171   2.483   5.141   4.465
 1320WAT     H2 4172   2.333   5.148   4.442
 1321WAT      O 4173   1.621   4.648   3.984
 1321WAT     H1 4174   1.710   4.664   4.016
 1321WAT     H2 4175   1.584   4.736   3.971
 1322WAT      O 4176   2.360   4.800   4.408
 1322WAT     H1 4177   2.389   4.889   4.427
 1322WAT     H2 4178   2.309   4.774   4.485
 1323WAT      O 4179   2.566   5.346   5.121
 1323WAT     H1 4180   2.623   5.356   5.197
 1323WAT     H2 4181   2.600   5.269   5.076
 1324WAT      O 4182   1.946   3.822   4.450
 1324WAT     H1 4183   1.912   3.807   4.537
 1324WAT     H2 4184   1.870   3.850   4.398
 1325WAT      O 4185   2.709   5.146   4.992
 1325WAT     H1 4186   2.761   5.067   5.012
 1325WAT     H2 4187   2.774   5.209   4.961
 1326WAT      O 4188   3.086   5.165   3.962
 1326WAT     H1 4189   3.065   5.089   4.016
 1326WAT     H2 4190   3.064   5.137   3.873
 1327WAT      O 4191   2.894   5.222   5.320
 1327WAT     H1 4192   2.912   5.293   5.382
 1327WAT     H2 4193   2.801   5.201   5.334
 1328WAT      O 4194   1.641   4.004   5.389
 1328WAT     H1 4195   1.564   4.016   5.445
 1328WAT     H2 4196   1.692   3.937   5.433
 1329WAT      O 4197   3.050   4.958   4.136
 1329WAT     H1 4198   3.024   5.009   4.212
 1329WAT     H2 4199   3.134   4.918   4.162
 1330WAT      O 4200   1.673   5.402   5.459
 1330WAT     H1 4201   1.663   5.308   5.479
 1330WAT     H2 4202   1.585   5.431   5.437
 1331WAT      O 4203   2.281   5.315   4.112
 1331WAT     H1 4204   2.262   5.390   4.056
 1331WAT     H2 4205   2.195   5.276   4.130
 1332WAT      O 4206   1.825   4.841   4.196
 1332WAT     H1 4207   1.755   4.903   4.175
 1332WAT     H2 4208   1.871   4.827   4.113
 1333WAT      O 4209   2.781   4.250   5.159
 1333WAT     H1 4210   2.826   4.177   5.201
 1333WAT     H2 4211   2.696   4.255   5.204
 1334WAT      O 4212   3.126   4.147   4.251
 1334WAT     H1 4213   3.068   4.160   4.176
 1334WAT     H2 4214   3.067   4.149   4.327
 1335WAT      O 4215   2.567   5.305   3.999
 1335WAT     H1 4216   2.570   5.291   3.904
 1335WAT     H2 4217   2.473   5.308   4.019
 1336WAT      O 4218   2.321   4.371   4.384
 1336WAT     H1 4219   2.249   4.416   4.427
 1336WAT     H2 4220   2.353   4.309   4.450
 1337WAT      O 4221   2.471   4.519   5.190
 1337WAT     H1 4222   2.528   4.565   5.250
 1337WAT     H2 4223   2.491   4.426   5.204
 1338WAT      O 4224   2.730   4.055   4.529
 1338WAT     H1 4225   2.704   4.040   4.438
 1338WAT     H2 4226   2.825   4.063   4.526
 1339WAT      O 4227   2.134   4.208   4.122
 1339WAT     H1 4228   2.222   4.243   4.110
 1339WAT     H2 4229   2.114   4.224   4.214
 1340WAT      O 4230   3.208   4.140   5.273
 1340WAT     H1 4231   3.151   4.209   5.307
 1340WAT     H2 4232   3.286   4.187   5.243
 1341WAT      O 4233   3.031   4.680   4.627
 1341WAT     H1 4234   2.939   4.654   4.634
 1341WAT     H2 4235   3.079   4.604   4.659
 1342WAT      O 4236   2.024   4.833   3.976
 1342WAT     H1 4237   2.104   4.831   4.029
 1342WAT     H2 4238   2.047   4.785   3.897
 1343WAT      O 4239   1.896   4.576   4.054
 1343WAT     H1 4240   1.897   4.481   4.047
 1343WAT     H2 4241   1.989   4.601   4.055
 1344WAT      O 4242   3.241   5.373   4.798
 1344WAT     H1 4243   3.240   5.469   4.807
 1344WAT     H2 4244   3.321   5.355   4.748
 1345WAT      O 4245   1.658   5.202   4.344
 1345WAT     H1 4246   1.568   5.234   4.338
 1345WAT     H2 4247   1.711   5.277   4.319
 1346WAT      O 4248   1.664   4.771   5.571
 1346WAT     H1 4249   1.707   4.706   5.627
 1346WAT     H2 4250   1.574   4.775   5.603
 1347WAT      O 4251   2.343   5.028   3.905
 1347WAT     H1 4252   2.338   4.979   3.987
 1347WAT     H2 4253   2.338   4.962   3.837
 1348WAT      O 4254   2.377   4.911   5.508
 1348WAT     H1 4255   2.293   4.953   5.525
 1348WAT     H2 4256   2.368   4.872   5.421
 1349WAT      O 4257   2.662   4.930   3.977
 1349WAT     H1 4258   2.616   4.979   4.045
 1349WAT     H2 4259   2.725   4.876   4.025
 1350WAT      O 4260   3.073   5.067   5.562
 1350WAT     H1 4261   3.150   5.109   5.523
 1350WAT     H2 4262   2.999   5.100   5.510
 1351WAT      O 4263   2.231   4.825   4.167
 1351WAT     H1 4264   2.279   4.821   4.249
 1351WAT     H2 4265   2.250   4.742   4.123
 1352WAT      O 4266   2.033   4.428   5.441
 1352WAT     H1 4267   1.996   4.375   5.371
 1352WAT     H2 4268   2.107   4.473   5.400
 1353WAT      O 4269   2.488   4.721   3.909
 1353WAT     H1 4270   2.543   4.666   3.853
 1353WAT     H2 4271   2.543   4.797   3.927
 1354WAT      O 4272   2.931   4.859   5.436
 1354WAT     H1 4273   2.980   4.903   5.505
 1354WAT     H2 4274   2.840   4.885   5.451
 1355WAT      O 4275   2.991   4.605   5.619
 1355WAT     H1 4276   3.058   4.538   5.608
 1355WAT     H2 4277   3.007   4.667   5.548
 1356WAT      O 4278   2.111   4.124   5.450
 1356WAT     H1 4279   2.094   4.059   5.382
 1356WAT     H2 4280   2.032   4.179   5.451
 1357WAT      O 4281   2.379   3.992   5.163
 1357WAT     H1 4282   2.336   3.995   5.077
 1357WAT     H2 4283   2.313   3.953   5.221
 1358WAT      O 4284   2.399   4.871   5.228
 1358WAT     H1 4285   2.455   4.945   5.208
 1358WAT     H2 4286   2.318   4.889   5.180
 1359WAT      O 4287   2.647   4.634   5.361
 1359WAT     H1 4288   2.671   4.592   5.444
 1359WAT     H2 4289   2.730   4.644   5.315
 1360WAT      O 4290   2.874   4.700   5.221
 1360WAT     H1 4291   2.849   4.758   5.149
 1360WAT     H2 4292   2.911   4.760   5.287
 1361WAT      O 4293   2.120   4.430   3.870
 1361WAT     H1 4294   2.097   4.341   3.896
 1361WAT     H2 4295   2.103   4.433   3.776
 1362WAT      O 4296   2.336   4.291   5.491
 1362WAT     H1 4297   2.373   4.253   5.571
 1362WAT     H2 4298   2.254   4.244   5.478
 1363WAT      O 4299   2.811   4.258   5.522
 1363WAT     H1 4300   2.744   4.197   5.493
 1363WAT     H2 4301   2.878   4.203   5.562
 1364WAT      O 4302   2.862   3.917   4.112
 1364WAT     H1 4303   2.884   3.833   4.152
 1364WAT     H2 4304   2.791   3.952   4.166
 1365WAT      O 4305   2.012   4.161   3.851
 1365WAT     H1 4306   2.045   4.135   3.764
 1365WAT     H2 4307   2.074   4.121   3.912
 1366WAT      O 4308   2.330   4.045   3.956
 1366WAT     H1 4309   2.286   3.975   3.907
 1366WAT     H2 4310   2.350   4.005   4.041
 1367WAT      O 4311   1.911   5.078   3.936
 1367WAT     H1 4312   1.948   5.132   4.006
 1367WAT     H2 4313   1.950   4.992   3.949
 1368WAT      O 4314   1.620   5.345   4.706
 1368WAT     H1 4315   1.658   5.267   4.665
 1368WAT     H2 4316   1.687   5.374   4.768
 1369WAT      O 4317   2.095   5.187   4.464
 1369WAT     H1 4318   2.064   5.156   4.549
 1369WAT     H2 4319   2.077   5.115   4.404
 1370WAT      O 4320   3.237   5.399   5.395
 1370WAT     H1 4321   3.191   5.394   5.311
 1370WAT     H2 4322   3.265   5.309   5.412
 1371WAT      O 4323   3.359   5.164   3.937
 1371WAT     H1 4324   3.266   5.173   3.957
 1371WAT     H2 4325   3.385   5.249   3.902
 1372WAT      O 4326   3.301   4.839   4.175
 1372WAT     H1 4327   3.374   4.901   4.178
 1372WAT     H2 4328   3.311   4.787   4.255
 1373WAT      O 4329   1.652   4.689   4.592
 1373WAT     H1 4330   1.588   4.668   4.525
 1373WAT     H2 4331   1.737   4.678   4.549
 1374WAT      O 4332   3.416   4.932   4.681
 1374WAT     H1 4333   3.448   4.851   4.642
 1374WAT     H2 4334   3.472   5.000   4.644
 1375WAT      O 4335   3.090   5.059   5.202
 1375WAT     H1 4336   3.022   5.114   5.240
 1375WAT     H2 4337   3.141   5.120   5.147
 1376WAT      O 4338   3.337   4.872   3.900
 1376WAT     H1 4339   3.341   4.966   3.882
 1376WAT     H2 4340   3.300   4.866   3.988
 1377WAT      O 4341   2.968   4.169   4.026
 1377WAT     H1 4342   2.994   4.157   3.935
 1377WAT     H2 4343   2.917   4.090   4.047
 1378WAT      O 4344   3.300   4.668   4.395
 1378WAT     H1 4345   3.266   4.584   4.363
 1378WAT     H2 4346   3.228   4.706   4.445
 1379WAT      O 4347   1.770   4.731   5.054
 1379WAT     H1 4348   1.785   4.714   5.147
 1379WAT     H2 4349   1.709   4.663   5.027
 1380WAT      O 4350   3.248   4.576   5.363
 1380WAT     H1 4351   3.230   4.554   5.272
 1380WAT     H2 4352   3.254   4.671   5.364
 1381WAT      O 4353   1.707   4.431   5.448
 1381WAT     H1 4354   1.621   4.411   5.487
 1381WAT     H2 4355   1.766   4.435   5.523
 1382WAT      O 4356   1.578   4.410   4.183
 1382WAT     H1 4357   1.489   4.445   4.195
 1382WAT     H2 4358   1.611   4.454   4.105
 1383WAT      O 4359   3.221   4.496   4.728
 1383WAT     H1 4360   3.266   4.444   4.662
 1383WAT     H2 4361   3.290   4.527   4.786
 1384WAT      O 4362   3.246   4.493   5.081
 1384WAT     H1 4363   3.150   4.486   5.082
 1384WAT     H2 4364   3.263   4.583   5.054
 1385WAT      O 4365   1.839   4.317   3.995
 1385WAT     H1 4366   1.895   4.259   3.943
 1385WAT     H2 4367   1.759   4.326   3.944
 1386WAT      O 4368   1.788   3.927   3.884
 1386WAT     H1 4369   1.859   3.968   3.933
 1386WAT     H2 4370   1.825   3.909   3.798
 1387WAT      O 4371   3.205   4.416   4.328
 1387WAT     H1 4372   3.235   4.375   4.410
 1387WAT     H2 4373   3.162   4.346   4.280
 1388WAT      O 4374   1.770   3.842   4.881
 1388WAT     H1 4375   1.841   3.800   4.833
 1388WAT     H2 4376   1.809   3.868   4.964
 1389WAT      O 4377   3.323   4.285   4.571
 1389WAT     H1 4378   3.312   4.254   4.661
 1389WAT     H2 4379   3.405   4.246   4.542
 1390WAT      O 4380   3.174   3.870   5.223
 1390WAT     H1 4381   3.209   3.959   5.235
 1390WAT     H2 4382   3.168   3.860   5.128
 1391WAT      O 4383   3.410   4.049   3.900
 1391WAT     H1 4384   3.501   4.027   3.881
 1391WAT     H2 4385   3.413   4.089   3.987
 1392WAT      O 4386   3.417   4.136   4.165
 1392WAT     H1 4387   3.331   4.134   4.207
 1392WAT     H2 4388   3.441   4.229   4.164
 1393WAT      O 4389   1.743   3.877   5.165
 1393WAT     H1 4390   1.703   3.921   5.241
 1393WAT     H2 4391   1.712   3.787   5.171
 1394WAT      O 4392   2.275   5.324   5.138
 1394WAT     H1 4393   2.245   5.356   5.053
 1394WAT     H2 4394   2.369   5.343   5.139
 1395WAT      O 4395   2.497   3.990   5.497
 1395WAT     H1 4396   2.481   4.021   5.586
 1395WAT     H2 4397   2.592   3.982   5.491
 1396WAT      O 4398   2.771   3.971   5.480
 1396WAT     H1 4399   2.817   3.989   5.397
 1396WAT     H2 4400   2.826   3.907   5.525
 1397WAT      O 4401   1.807   3.815   5.479
 1397WAT     H1 4402   1.868   3.787   5.410
 1397WAT     H2 4403   1.808   3.743   5.542
 1398WAT      O 4404   1.884   5.478   5.291
 1398WAT     H1 4405   1.821   5.466   5.361
 1398WAT     H2 4406   1.883   5.395   5.243
 1399WAT      O 4407   2.835   3.809   5.116
 1399WAT     H1 4408   2.760   3.844   5.068
 1399WAT     H2 4409   2.798   3.746   5.178
 1400WAT      O 4410   2.916   4.030   5.250
 1400WAT     H1 4411   2.895   3.952   5.197
 1400WAT     H2 4412   3.011   4.034   5.249
 1401WAT      O 4413   1.852   5.223   5.175
 1401WAT     H1 4414   1.770   5.173   5.176
 1401WAT     H2 4415   1.871   5.237   5.083
 1402WAT      O 4416   2.221   5.416   4.882
 1402WAT     H1 4417   2.258   5.377   4.802
 1402WAT     H2 4418   2.261   5.502   4.888
 1403WAT      O 4419   2.604   3.900   5.001
 1403WAT     H1 4420   2.535   3.945   5.049
 1403WAT     H2 4421   2.563   3.819   4.970
 1404WAT      O 4422   3.051   3.963   4.805
 1404WAT     H1 4423   3.115   3.962   4.733
 1404WAT     H2 4424   3.031   4.056   4.818
 1405WAT      O 4425   3.233   3.941   4.604
 1405WAT     H1 4426   3.229   3.848   4.581
 1405WAT     H2 4427   3.314   3.950   4.654
 1406WAT      O 4428   1.746   3.935   4.251
 1406WAT     H1 4429   1.823   3.950   4.197
 1406WAT     H2 4430   1.686   4.006   4.228
 1407WAT      O 4431   2.382   4.142   4.551
 1407WAT     H1 4432   2.315   4.093   4.503
 1407WAT     H2 4433   2.447   4.077   4.575
 1408WAT      O 4434   2.841   3.809   4.680
 1408WAT     H1 4435   2.910   3.861   4.722
 1408WAT     H2 4436   2.776   3.874   4.653
 1409WAT      O 4437   3.164   3.858   4.209
 1409WAT     H1 4438   3.160   3.950   4.235
 1409WAT     H2 4439   3.078   3.822   4.235
 1410WAT      O 4440   1.819   5.411   4.253
 1410WAT     H1 4441   1.791   5.460   4.176
 1410WAT     H2 4442   1.842   5.478   4.317
 1411WAT      O 4443   1.974   3.980   4.102
 1411WAT     H1 4444   2.028   3.902   4.110
 1411WAT     H2 4445   2.035   4.053   4.115
 1412WAT      O 4446   2.198   3.967   4.405
 1412WAT     H1 4447   2.134   3.898   4.424
 1412WAT     H2 4448   2.144   4.045   4.390
 1413WAT      O 4449   2.219   3.892   5.653
 1413WAT     H1 4450   2.183   3.944   5.582
 1413WAT     H2 4451   2.239   3.807   5.613
 1414WAT      O 4452   2.014   5.228   4.142
 1414WAT     H1 4453   1.954   5.282   4.192
 1414WAT     H2 4454   2.026   5.150   4.195
 1415WAT      O 4455   2.760   4.629   2.737
 1415WAT     H1 4456   2.745   4.535   2.724
 1415WAT     H2 4457   2.712   4.671   2.666
 1416WAT      O 4458   2.574   4.806   2.925
 1416WAT     H1 4459   2.506   4.754   2.967
 1416WAT     H2 4460   2.645   4.744   2.909
 1417WAT      O 4461   1.966   4.850   3.020
 1417WAT     H1 4462   1.897   4.803   3.067
 1417WAT     H2 4463   2.040   4.850   3.082
 1418WAT      O 4464   2.979   5.241   2.802
 1418WAT     H1 4465   2.934   5.164   2.836
 1418WAT     H2 4466   3.054   5.252   2.860
 1419WAT      O 4467   1.975   5.242   3.046
 1419WAT     H1 4468   2.014   5.159   3.021
 1419WAT     H2 4469   2.043   5.307   3.029
 1420WAT      O 4470   1.822   4.336   2.396
 1420WAT     H1 4471   1.729   4.358   2.391
 1420WAT     H2 4472   1.846   4.316   2.305
 1421WAT      O 4473   1.601   4.575   2.974
 1421WAT     H1 4474   1.673   4.513   2.986
 1421WAT     H2 4475   1.625   4.624   2.895
 1422WAT      O 4476   2.505   5.071   2.938
 1422WAT     H1 4477   2.522   4.977   2.924
 1422WAT     H2 4478   2.575   5.099   2.998
 1423WAT      O 4479   1.736   4.144   3.174
 1423WAT     H1 4480   1.728   4.052   3.199
 1423WAT     H2 4481   1.677   4.191   3.233
 1424WAT      O 4482   2.618   4.359   2.948
 1424WAT     H1 4483   2.668   4.280   2.969
 1424WAT     H2 4484   2.632   4.372   2.854
 1425WAT      O 4485   2.039   4.194   2.505
 1425WAT     H1 4486   2.057   4.277   2.550
 1425WAT     H2 4487   1.947   4.202   2.478
 1426WAT      O 4488   3.002   4.096   2.667
 1426WAT     H1 4489   3.096   4.082   2.657
 1426WAT     H2 4490   2.995   4.172   2.724
 1427WAT      O 4491   1.796   4.382   3.033
 1427WAT     H1 4492   1.878   4.403   3.078
 1427WAT     H2 4493   1.768   4.299   3.072
 1428WAT      O 4494   2.225   4.500   2.941
 1428WAT     H1 4495   2.288   4.549   2.994
 1428WAT     H2 4496   2.268   4.416   2.925
 1429WAT      O 4497   3.421   4.307   3.308
 1429WAT     H1 4498   3.360   4.364   3.261
 1429WAT     H2 4499   3.460   4.364   3.375
 1430WAT      O 4500   2.050   3.945   3.366
 1430WAT     H1 4501   2.055   4.008   3.295
 1430WAT     H2 4502   1.964   3.904   3.355
 1431WAT      O 4503   2.689   4.965   2.508
 1431WAT     H1 4504   2.624   5.001   2.448
 1431WAT     H2 4505   2.725   5.042   2.553
 1432WAT      O 4506   2.185   4.924   3.188
 1432WAT     H1 4507   2.143   4.983   3.252
 1432WAT     H2 4508   2.201   4.979   3.112
 1433WAT      O 4509   3.035   4.290   2.921
 1433WAT     H1 4510   2.958   4.309   2.974
 1433WAT     H2 4511   3.072   4.376   2.901
 1434WAT      O 4512   2.014   4.126   3.166
 1434WAT     H1 4513   2.048   4.213   3.147
 1434WAT     H2 4514   1.919   4.137   3.168
 1435WAT      O 4515   2.101   5.125   3.359
 1435WAT     H1 4516   2.158   5.196   3.328
 1435WAT     H2 4517   2.013   5.159   3.346
 1436WAT      O 4518   1.627   5.025   2.257
 1436WAT     H1 4519   1.592   5.075   2.183
 1436WAT     H2 4520   1.643   5.090   2.325
 1437WAT      O 4521   3.179   5.265   3.166
 1437WAT     H1 4522   3.110   5.331   3.155
 1437WAT     H2 4523   3.232   5.273   3.086
 1438WAT      O 4524   3.324   4.245   2.968
 1438WAT     H1 4525   3.230   4.245   2.988
 1438WAT     H2 4526   3.359   4.317   3.020
 1439WAT      O 4527   2.378   3.872   2.794
 1439WAT     H1 4528   2.410   3.819   2.722
 1439WAT     H2 4529   2.286   3.888   2.773
 1440WAT      O 4530   3.075   5.112   2.538
 1440WAT     H1 4531   3.059   5.019   2.550
 1440WAT     H2 4532   3.047   5.152   2.620
 1441WAT      O 4533   2.890   4.939   3.161
 1441WAT     H1 4534   2.932   4.912   3.079
 1441WAT     H2 4535   2.962   4.965   3.218
 1442WAT      O 4536   2.625   4.685   2.490
 1442WAT     H1 4537   2.530   4.686   2.490
 1442WAT     H2 4538   2.650   4.775   2.470
 1443WAT      O 4539   2.626   4.302   2.151
 1443WAT     H1 4540   2.538   4.315   2.186
 1443WAT     H2 4541   2.659   4.390   2.134
 1444WAT      O 4542   3.270   4.772   3.167
 1444WAT     H1 4543   3.194   4.801   3.116
 1444WAT     H2 4544   3.342   4.827   3.135
 1445WAT      O 4545   3.023   4.838   2.530
 1445WAT     H1 4546   2.959   4.804   2.467
 1445WAT     H2 4547   3.019   4.777   2.603
 1446WAT      O 4548   2.973   4.458   3.261
 1446WAT     H1 4549   2.930   4.542   3.277
 1446WAT     H2 4550   2.900   4.397   3.248
 1447WAT      O 4551   2.180   4.725   2.744
 1447WAT     H1 4552   2.148   4.651   2.692
 1447WAT     H2 4553   2.195   4.687   2.831
 1448WAT      O 4554   2.229   5.083   2.968
 1448WAT     H1 4555   2.199   5.047   2.885
 1448WAT     H2 4556   2.324   5.094   2.956
 1449WAT      O 4557   2.053   4.404   3.133
 1449WAT     H1 4558   2.104   4.432   3.057
 1449WAT     H2 4559   2.092   4.452   3.206
 1450WAT      O 4560   2.143   5.078   3.623
 1450WAT     H1 4561   2.055   5.096   3.656
 1450WAT     H2 4562   2.135   5.088   3.528
 1451WAT      O 4563   2.847   4.768   2.226
 1451WAT     H1 4564   2.882   4.680   2.211
 1451WAT     H2 4565   2.924   4.825   2.224
 1452WAT      O 4566   2.024   4.769   3.485
 1452WAT     H1 4567   2.000   4.860   3.505
 1452WAT     H2 4568   1.941   4.726   3.464
 1453WAT      O 4569   2.637   5.254   2.621
 1453WAT     H1 4570   2.697   5.311   2.573
 1453WAT     H2 4571   2.661   5.267   2.713
 1454WAT      O 4572   2.214   5.347   3.707
 1454WAT     H1 4573   2.196   5.392   3.624
 1454WAT     H2 4574   2.189   5.257   3.691
 1455WAT      O 4575   1.849   4.619   2.505
 1455WAT     H1 4576   1.845   4.692   2.443
 1455WAT     H2 4577   1.831   4.542   2.452
 1456WAT      O 4578   3.417   5.417   3.850
 1456WAT     H1 4579   3.441   5.496   3.898
 1456WAT     H2 4580   3.456   5.428   3.764
 1457WAT      O 4581   1.610   4.932   3.085
 1457WAT     H1 4582   1.607   4.946   2.990
 1457WAT     H2 4583   1.679   4.867   3.097
 1458WAT      O 4584   1.734   5.109   2.714
 1458WAT     H1 4585   1.712   5.132   2.623
 1458WAT     H2 4586   1.824   5.076   2.708
 1459WAT      O 4587   3.323   5.140   3.547
 1459WAT     H1 4588   3.364   5.122   3.463
 1459WAT     H2 4589   3.346   5.065   3.602
 1460WAT      O 4590   2.890   5.314   2.212
 1460WAT     H1 4591   2.813   5.301   2.157
 1460WAT     H2 4592   2.960   5.268   2.166
 1461WAT      O 4593   3.326   4.359   3.650
 1461WAT     H1 4594   3.281   4.425   3.598
 1461WAT     H2 4595   3.271   4.281   3.643
 1462WAT      O 4596   1.622   5.053   3.339
 1462WAT     H1 4597   1.621   5.005   3.256
 1462WAT     H2 4598   1.679   5.002   3.396
 1463WAT      O 4599   2.101   3.963   2.840
 1463WAT     H1 4600   2.058   4.043   2.812
 1463WAT     H2 4601   2.151   3.988   2.918
 1464WAT      O 4602   2.523   4.242   3.399
 1464WAT     H1 4603   2.468   4.263   3.474
 1464WAT     H2 4604   2.485   4.162   3.364
 1465WAT      O 4605   3.039   4.345   3.503
 1465WAT     H1 4606   2.954   4.329   3.544
 1465WAT     H2 4607   3.018   4.394   3.424
 1466WAT      O 4608   2.734   4.519   3.713
 1466WAT     H1 4609   2.756   4.427   3.696
 1466WAT     H2 4610   2.816   4.558   3.744
 1467WAT      O 4611   2.402   3.919   2.322
 1467WAT     H1 4612   2.336   3.918   2.392
 1467WAT     H2 4613   2.415   3.827   2.301
 1468WAT      O 4614   2.308   4.010   3.025
 1468WAT     H1 4615   2.325   4.102   3.003
 1468WAT     H2 4616   2.356   3.961   2.959
 1469WAT      O 4617   2.078   4.474   2.620
 1469WAT     H1 4618   2.045   4.436   2.702
 1469WAT     H2 4619   2.001   4.516   2.581
 1470WAT      O 4620   2.797   4.467   2.469
 1470WAT     H1 4621   2.739   4.543   2.462
 1470WAT     H2 4622   2.844   4.465   2.386
 1471WAT      O 4623   2.322   4.561   3.669
 1471WAT     H1 4624   2.320   4.467   3.652
 1471WAT     H2 4625   2.409   4.589   3.640
 1472WAT      O 4626   2.682   4.341   2.685
 1472WAT     H1 4627   2.711   4.372   2.599
 1472WAT     H2 4628   2.685   4.246   2.678
 1473WAT      O 4629   1.841   4.204   3.495
 1473WAT     H1 4630   1.792   4.283   3.518
 1473WAT     H2 4631   1.777   4.134   3.499
 1474WAT      O 4632   2.490   4.200   3.806
 1474WAT     H1 4633   2.428   4.159   3.867
 1474WAT     H2 4634   2.559   4.235   3.862
 1475WAT      O 4635   1.566   3.989   2.897
 1475WAT     H1 4636   1.541   4.053   2.963
 1475WAT     H2 4637   1.633   3.935   2.940
 1476WAT      O 4638   1.596   4.391   2.007
 1476WAT     H1 4639   1.587   4.484   2.026
 1476WAT     H2 4640   1.536   4.376   1.934
 1477WAT      O 4641   2.718   4.587   3.085
 1477WAT     H1 4642   2.642   4.631   3.122
 1477WAT     H2 4643   2.683   4.507   3.046
 1478WAT      O 4644   2.363   4.261   2.922
 1478WAT     H1 4645   2.369   4.226   2.833
 1478WAT     H2 4646   2.451   4.294   2.940
 1479WAT      O 4647   1.943   4.245   2.816
 1479WAT     H1 4648   1.910   4.295   2.891
 1479WAT     H2 4649   1.865   4.210   2.773
 1480WAT      O 4650   2.375   4.361   2.242
 1480WAT     H1 4651   2.368   4.364   2.337
 1480WAT     H2 4652   2.337   4.444   2.213
 1481WAT      O 4653   2.765   4.140   3.030
 1481WAT     H1 4654   2.770   4.176   3.119
 1481WAT     H2 4655   2.729   4.053   3.041
 1482WAT      O 4656   2.268   4.600   2.146
 1482WAT     H1 4657   2.220   4.546   2.083
 1482WAT     H2 4658   2.342   4.635   2.097
 1483WAT      O 4659   1.784   4.971   3.550
 1483WAT     H1 4660   1.743   4.913   3.613
 1483WAT     H2 4661   1.816   5.045   3.602
 1484WAT      O 4662   2.401   4.669   3.097
 1484WAT     H1 4663   2.424   4.610   3.170
 1484WAT     H2 4664   2.363   4.745   3.140
 1485WAT      O 4665   1.691   4.138   2.708
 1485WAT     H1 4666   1.651   4.094   2.784
 1485WAT     H2 4667   1.692   4.070   2.640
 1486WAT      O 4668   2.173   4.565   3.332
 1486WAT     H1 4669   2.143   4.650   3.366
 1486WAT     H2 4670   2.268   4.569   3.338
 1487WAT      O 4671   2.038   4.992   2.397
 1487WAT     H1 4672   1.960   4.938   2.388
 1487WAT     H2 4673   2.109   4.939   2.361
 1488WAT      O 4674   3.104   4.879   2.965
 1488WAT     H1 4675   3.175   4.932   2.927
 1488WAT     H2 4676   3.079   4.819   2.895
 1489WAT      O 4677   2.646   4.034   2.387
 1489WAT     H1 4678   2.564   3.989   2.367
 1489WAT     H2 4679   2.643   4.114   2.334
 1490WAT      O 4680   2.642   4.900   3.571
 1490WAT     H1 4681   2.637   4.815   3.528
 1490WAT     H2 4682   2.564   4.904   3.626
 1491WAT      O 4683   2.924   4.463   2.226
 1491WAT     H1 4684   3.006   4.507   2.200
 1491WAT     H2 4685   2.917   4.389   2.166
 1492WAT      O 4686   2.029   4.966   2.773
 1492WAT     H1 4687   2.080   4.891   2.741
 1492WAT     H2 4688   1.989   4.934   2.854
 1493WAT      O 4689   2.532   5.086   2.287
 1493WAT     H1 4690   2.560   5.164   2.239
 1493WAT     H2 4691   2.446   5.109   2.322
 1494WAT      O 4692   1.773   4.665   3.446
 1494WAT     H1 4693   1.729   4.719   3.512
 1494WAT     H2 4694   1.758   4.575   3.476
 1495WAT      O 4695   2.095   4.699   3.739
 1495WAT     H1 4696   2.076   4.724   3.649
 1495WAT     H2 4697   2.178   4.652   3.734
 1496WAT      O 4698   2.633   5.174   3.528
 1496WAT     H1 4699   2.630   5.078   3.525
 1496WAT     H2 4700   2.565   5.199   3.590
 1497WAT      O 4701   3.143   4.609   2.159
 1497WAT     H1 4702   3.143   4.637   2.068
 1497WAT     H2 4703   3.225   4.643   2.195
 1498WAT      O 4704   3.255   4.850   3.458
 1498WAT     H1 4705   3.181   4.908   3.443
 1498WAT     H2 4706   3.299   4.846   3.373
 1499WAT      O 4707   3.265   5.274   2.421
 1499WAT     H1 4708   3.201   5.217   2.464
 1499WAT     H2 4709   3.213   5.324   2.357
 1500WAT      O 4710   2.813   5.012   2.819
 1500WAT     H1 4711   2.841   4.950   2.751
 1500WAT     H2 4712   2.724   4.985   2.840
 1501WAT      O 4713   2.407   5.087   2.565
 1501WAT     H1 4714   2.482   5.141   2.588
 1501WAT     H2 4715   2.333   5.148   2.564
 1502WAT      O 4716   1.621   4.648   2.107
 1502WAT     H1 4717   1.709   4.663   2.139
 1502WAT     H2 4718   1.584   4.736   2.094
 1503WAT      O 4719   2.360   4.800   2.531
 1503WAT     H1 4720   2.389   4.889   2.550
 1503WAT     H2 4721   2.309   4.774   2.608
 1504WAT      O 4722   2.566   5.346   3.243
 1504WAT     H1 4723   2.623   5.357   3.319
 1504WAT     H2 4724   2.600   5.268   3.198
 1505WAT      O 4725   1.946   3.822   2.572
 1505WAT     H1 4726   1.912   3.808   2.660
 1505WAT     H2 4727   1.871   3.850   2.520
 1506WAT      O 4728   2.709   5.145   3.114
 1506WAT     H1 4729   2.761   5.067   3.134
 1506WAT     H2 4730   2.774   5.209   3.083
 1507WAT      O 4731   3.086   5.165   2.085
 1507WAT     H1 4732   3.066   5.089   2.139
 1507WAT     H2 4733   3.065   5.137   1.996
 1508WAT      O 4734   2.892   5.224   3.442
 1508WAT     H1 4735   2.912   5.290   3.509
 1508WAT     H2 4736   2.800   5.202   3.457
 1509WAT      O 4737   1.641   4.002   3.513
 1509WAT     H1 4738   1.564   4.016   3.567
 1509WAT     H2 4739   1.691   3.934   3.560
 1510WAT      O 4740   3.049   4.959   2.259
 1510WAT     H1 4741   3.026   5.010   2.336
 1510WAT     H2 4742   3.133   4.918   2.282
 1511WAT      O 4743   1.665   5.404   3.598
 1511WAT     H1 4744   1.675   5.309   3.596
 1511WAT     H2 4745   1.584   5.421   3.551
 1512WAT      O 4746   2.462   5.224   3.751
 1512WAT     H1 4747   2.427   5.152   3.803
 1512WAT     H2 4748   2.389   5.285   3.741
 1513WAT      O 4749   2.281   5.315   2.235
 1513WAT     H1 4750   2.262   5.390   2.179
 1513WAT     H2 4751   2.195   5.276   2.252
 1514WAT      O 4752   1.825   4.841   2.318
 1514WAT     H1 4753   1.756   4.903   2.297
 1514WAT     H2 4754   1.871   4.827   2.236
 1515WAT      O 4755   2.782   4.247   3.285
 1515WAT     H1 4756   2.825   4.174   3.330
 1515WAT     H2 4757   2.696   4.254   3.327
 1516WAT      O 4758   2.567   5.305   2.121
 1516WAT     H1 4759   2.570   5.291   2.026
 1516WAT     H2 4760   2.473   5.308   2.141
 1517WAT      O 4761   2.321   4.370   2.506
 1517WAT     H1 4762   2.249   4.416   2.550
 1517WAT     H2 4763   2.353   4.309   2.572
 1518WAT      O 4764   2.470   4.519   3.313
 1518WAT     H1 4765   2.529   4.565   3.374
 1518WAT     H2 4766   2.490   4.427   3.326
 1519WAT      O 4767   2.721   4.067   2.649
 1519WAT     H1 4768   2.701   4.046   2.558
 1519WAT     H2 4769   2.816   4.059   2.656
 1520WAT      O 4770   2.133   4.209   2.245
 1520WAT     H1 4771   2.222   4.243   2.232
 1520WAT     H2 4772   2.115   4.224   2.337
 1521WAT      O 4773   3.199   4.140   3.403
 1521WAT     H1 4774   3.148   4.214   3.434
 1521WAT     H2 4775   3.278   4.179   3.366
 1522WAT      O 4776   3.030   4.680   2.750
 1522WAT     H1 4777   2.938   4.654   2.757
 1522WAT     H2 4778   3.079   4.604   2.783
 1523WAT      O 4779   2.024   4.833   2.099
 1523WAT     H1 4780   2.104   4.831   2.152
 1523WAT     H2 4781   2.047   4.785   2.019
 1524WAT      O 4782   1.896   4.576   2.177
 1524WAT     H1 4783   1.898   4.481   2.170
 1524WAT     H2 4784   1.989   4.601   2.177
 1525WAT      O 4785   3.241   5.373   2.920
 1525WAT     H1 4786   3.240   5.468   2.929
 1525WAT     H2 4787   3.321   5.355   2.871
 1526WAT      O 4788   1.658   5.202   2.466
 1526WAT     H1 4789   1.568   5.234   2.461
 1526WAT     H2 4790   1.711   5.277   2.441
 1527WAT      O 4791   2.775   5.110   3.786
 1527WAT     H1 4792   2.705   5.126   3.723
 1527WAT     H2 4793   2.737   5.049   3.849
 1528WAT      O 4794   1.660   4.770   3.691
 1528WAT     H1 4795   1.707   4.701   3.737
 1528WAT     H2 4796   1.579   4.782   3.741
 1529WAT      O 4797   2.343   5.028   2.028
 1529WAT     H1 4798   2.339   4.979   2.109
 1529WAT     H2 4799   2.338   4.962   1.959
 1530WAT      O 4800   2.365   4.908   3.636
 1530WAT     H1 4801   2.285   4.960   3.637
 1530WAT     H2 4802   2.370   4.873   3.548
 1531WAT      O 4803   2.662   4.929   2.099
 1531WAT     H1 4804   2.616   4.979   2.167
 1531WAT     H2 4805   2.726   4.877   2.148
 1532WAT      O 4806   3.075   5.073   3.695
 1532WAT     H1 4807   3.146   5.106   3.641
 1532WAT     H2 4808   2.995   5.101   3.650
 1533WAT      O 4809   1.846   4.572   3.773
 1533WAT     H1 4810   1.851   4.553   3.867
 1533WAT     H2 4811   1.934   4.603   3.751
 1534WAT      O 4812   2.231   4.825   2.290
 1534WAT     H1 4813   2.279   4.820   2.372
 1534WAT     H2 4814   2.250   4.742   2.246
 1535WAT      O 4815   2.052   4.422   3.573
 1535WAT     H1 4816   1.989   4.386   3.511
 1535WAT     H2 4817   2.114   4.471   3.518
 1536WAT      O 4818   2.489   4.721   2.032
 1536WAT     H1 4819   2.543   4.666   1.976
 1536WAT     H2 4820   2.543   4.797   2.050
 1537WAT      O 4821   2.931   4.859   3.561
 1537WAT     H1 4822   2.981   4.903   3.630
 1537WAT     H2 4823   2.841   4.890   3.575
 1538WAT      O 4824   2.996   4.608   3.746
 1538WAT     H1 4825   3.054   4.534   3.727
 1538WAT     H2 4826   3.009   4.668   3.672
 1539WAT      O 4827   2.100   4.118   3.585
 1539WAT     H1 4828   2.093   4.056   3.512
 1539WAT     H2 4829   2.032   4.183   3.568
 1540WAT      O 4830   2.376   3.995   3.287
 1540WAT     H1 4831   2.338   3.998   3.200
 1540WAT     H2 4832   2.312   3.949   3.341
 1541WAT      O 4833   2.398   4.874   3.356
 1541WAT     H1 4834   2.456   4.945   3.330
 1541WAT     H2 4835   2.318   4.889   3.306
 1542WAT      O 4836   2.647   4.634   3.486
 1542WAT     H1 4837   2.673   4.591   3.568
 1542WAT     H2 4838   2.729   4.645   3.438
 1543WAT      O 4839   2.873   4.701   3.345
 1543WAT     H1 4840   2.850   4.758   3.271
 1543WAT     H2 4841   2.911   4.760   3.410
 1544WAT      O 4842   2.120   4.430   1.992
 1544WAT     H1 4843   2.098   4.341   2.018
 1544WAT     H2 4844   2.103   4.433   1.898
 1545WAT      O 4845   2.336   4.294   3.606
 1545WAT     H1 4846   2.386   4.262   3.681
 1545WAT     H2 4847   2.255   4.243   3.608
 1546WAT      O 4848   2.815   4.260   3.646
 1546WAT     H1 4849   2.746   4.196   3.625
 1546WAT     H2 4850   2.883   4.208   3.688
 1547WAT      O 4851   2.012   4.160   1.974
 1547WAT     H1 4852   2.045   4.135   1.887
 1547WAT     H2 4853   2.075   4.121   2.034
 1548WAT      O 4854   2.329   4.045   2.079
 1548WAT     H1 4855   2.286   3.976   2.029
 1548WAT     H2 4856   2.350   4.005   2.163
 1549WAT      O 4857   1.911   5.078   2.058
 1549WAT     H1 4858   1.948   5.132   2.128
 1549WAT     H2 4859   1.950   4.992   2.071
 1550WAT      O 4860   1.620   5.345   2.829
 1550WAT     H1 4861   1.658   5.267   2.788
 1550WAT     H2 4862   1.686   5.374   2.891
 1551WAT      O 4863   2.095   5.187   2.587
 1551WAT     H1 4864   2.064   5.156   2.672
 1551WAT     H2 4865   2.077   5.115   2.527
 1552WAT      O 4866   3.248   5.401   3.511
 1552WAT     H1 4867   3.188   5.394   3.437
 1552WAT     H2 4868   3.266   5.310   3.535
 1553WAT      O 4869   3.359   5.165   2.061
 1553WAT     H1 4870   3.266   5.173   2.080
 1553WAT     H2 4871   3.384   5.250   2.024
 1554WAT      O 4872   3.299   4.845   2.302
 1554WAT     H1 4873   3.376   4.902   2.300
 1554WAT     H2 4874   3.313   4.788   2.377
 1555WAT      O 4875   1.652   4.690   2.714
 1555WAT     H1 4876   1.587   4.668   2.647
 1555WAT     H2 4877   1.737   4.678   2.670
 1556WAT      O 4878   3.417   4.932   2.805
 1556WAT     H1 4879   3.447   4.851   2.764
 1556WAT     H2 4880   3.472   5.000   2.767
 1557WAT      O 4881   3.089   5.059   3.324
 1557WAT     H1 4882   3.021   5.114   3.363
 1557WAT     H2 4883   3.141   5.119   3.270
 1558WAT      O 4884   3.337   4.874   2.022
 1558WAT     H1 4885   3.340   4.969   2.008
 1558WAT     H2 4886   3.299   4.864   2.109
 1559WAT      O 4887   3.302   4.667   2.522
 1559WAT     H1 4888   3.268   4.586   2.484
 1559WAT     H2 4889   3.227   4.707   2.565
 1560WAT      O 4890   1.770   4.731   3.177
 1560WAT     H1 4891   1.784   4.714   3.270
 1560WAT     H2 4892   1.708   4.664   3.150
 1561WAT      O 4893   3.251   4.574   3.486
 1561WAT     H1 4894   3.230   4.554   3.395
 1561WAT     H2 4895   3.256   4.669   3.490
 1562WAT      O 4896   1.711   4.429   3.573
 1562WAT     H1 4897   1.623   4.414   3.609
 1562WAT     H2 4898   1.762   4.462   3.647
 1563WAT      O 4899   3.085   4.113   3.758
 1563WAT     H1 4900   3.165   4.098   3.809
 1563WAT     H2 4901   3.083   4.041   3.695
 1564WAT      O 4902   1.578   4.410   2.306
 1564WAT     H1 4903   1.489   4.445   2.318
 1564WAT     H2 4904   1.611   4.454   2.228
 1565WAT      O 4905   3.221   4.497   2.850
 1565WAT     H1 4906   3.269   4.448   2.783
 1565WAT     H2 4907   3.288   4.528   2.910
 1566WAT      O 4908   3.246   4.492   3.202
 1566WAT     H1 4909   3.150   4.486   3.205
 1566WAT     H2 4910   3.263   4.583   3.177
 1567WAT      O 4911   1.839   4.317   2.118
 1567WAT     H1 4912   1.895   4.259   2.066
 1567WAT     H2 4913   1.759   4.326   2.067
 1568WAT      O 4914   1.788   3.927   2.007
 1568WAT     H1 4915   1.859   3.969   2.056
 1568WAT     H2 4916   1.825   3.908   1.921
 1569WAT      O 4917   3.205   4.414   2.448
 1569WAT     H1 4918   3.229   4.372   2.531
 1569WAT     H2 4919   3.140   4.356   2.410
 1570WAT      O 4920   1.769   3.840   3.005
 1570WAT     H1 4921   1.841   3.800   2.956
 1570WAT     H2 4922   1.809   3.868   3.087
 1571WAT      O 4923   3.319   4.270   2.690
 1571WAT     H1 4924   3.308   4.254   2.784
 1571WAT     H2 4925   3.410   4.248   2.673
 1572WAT      O 4926   1.744   3.877   3.290
 1572WAT     H1 4927   1.702   3.921   3.364
 1572WAT     H2 4928   1.710   3.787   3.293
 1573WAT      O 4929   1.895   5.183   3.695
 1573WAT     H1 4930   1.893   5.147   3.783
 1573WAT     H2 4931   1.909   5.277   3.707
 1574WAT      O 4932   2.275   5.325   3.261
 1574WAT     H1 4933   2.245   5.356   3.175
 1574WAT     H2 4934   2.369   5.343   3.262
 1575WAT      O 4935   2.496   3.973   3.643
 1575WAT     H1 4936   2.485   4.052   3.697
 1575WAT     H2 4937   2.588   3.976   3.616
 1576WAT      O 4938   2.761   3.975   3.600
 1576WAT     H1 4939   2.822   3.978   3.526
 1576WAT     H2 4940   2.803   3.915   3.662
 1577WAT      O 4941   1.814   3.815   3.610
 1577WAT     H1 4942   1.864   3.790   3.533
 1577WAT     H2 4943   1.820   3.739   3.668
 1578WAT      O 4944   1.885   5.477   3.419
 1578WAT     H1 4945   1.818   5.464   3.486
 1578WAT     H2 4946   1.884   5.395   3.368
 1579WAT      O 4947   2.923   4.017   3.377
 1579WAT     H1 4948   2.900   3.953   3.309
 1579WAT     H2 4949   3.015   4.037   3.361
 1580WAT      O 4950   1.851   5.227   3.298
 1580WAT     H1 4951   1.772   5.173   3.301
 1580WAT     H2 4952   1.870   5.236   3.205
 1581WAT      O 4953   2.221   5.415   3.004
 1581WAT     H1 4954   2.257   5.377   2.925
 1581WAT     H2 4955   2.261   5.502   3.010
 1582WAT      O 4956   2.606   3.909   3.120
 1582WAT     H1 4957   2.537   3.947   3.174
 1582WAT     H2 4958   2.575   3.821   3.100
 1583WAT      O 4959   3.076   3.983   2.944
 1583WAT     H1 4960   3.092   3.960   2.853
 1583WAT     H2 4961   3.023   4.062   2.941
 1584WAT      O 4962   1.746   3.935   2.374
 1584WAT     H1 4963   1.823   3.951   2.320
 1584WAT     H2 4964   1.686   4.006   2.351
 1585WAT      O 4965   2.380   4.143   2.675
 1585WAT     H1 4966   2.316   4.091   2.626
 1585WAT     H2 4967   2.452   4.081   2.694
 1586WAT      O 4968   1.819   5.411   2.375
 1586WAT     H1 4969   1.791   5.460   2.298
 1586WAT     H2 4970   1.842   5.478   2.440
 1587WAT      O 4971   1.974   3.980   2.225
 1587WAT     H1 4972   2.028   3.902   2.233
 1587WAT     H2 4973   2.035   4.053   2.237
 1588WAT      O 4974   2.198   3.967   2.528
 1588WAT     H1 4975   2.134   3.898   2.546
 1588WAT     H2 4976   2.145   4.045   2.513
 1589WAT      O 4977   2.197   3.886   3.772
 1589WAT     H1 4978   2.185   3.942   3.695
 1589WAT     H2 4979   2.251   3.813   3.740
 1590WAT      O 4980   2.014   5.228   2.264
 1590WAT     H1 4981   1.954   5.282   2.315
 1590WAT     H2 4982   2.026   5.150   2.317
 1591WAT      O 4983   2.878   3.850   3.828
 1591WAT     H1 4984   2.854   3.862   3.920
 1591WAT     H2 4985   2.973   3.850   3.827
 1592WAT      O 4986   2.760   4.629   0.859
 1592WAT     H1 4987   2.745   4.535   0.847
 1592WAT     H2 4988   2.712   4.670   0.788
 1593WAT      O 4989   2.574   4.806   1.047
 1593WAT     H1 4990   2.506   4.754   1.090
 1593WAT     H2 4991   2.645   4.744   1.032
 1594WAT      O 4992   1.966   4.850   1.143
 1594WAT     H1 4993   1.897   4.803   1.190
 1594WAT     H2 4994   2.040   4.850   1.204
 1595WAT      O 4995   2.981   5.239   0.922
 1595WAT     H1 4996   2.934   5.164   0.958
 1595WAT     H2 4997   3.054   5.253   0.983
 1596WAT      O 4998   1.975   5.242   1.168
 1596WAT     H1 4999   2.014   5.159   1.144
 1596WAT     H2 5000   2.043   5.307   1.152
 1597WAT      O 5001   1.821   4.342   0.518
 1597WAT     H1 5002   1.726   4.358   0.512
 1597WAT     H2 5003   1.846   4.318   0.429
 1598WAT      O 5004   1.601   4.575   1.097
 1598WAT     H1 5005   1.673   4.513   1.109
 1598WAT     H2 5006   1.625   4.624   1.018
 1599WAT      O 5007   2.505   5.071   1.061
 1599WAT     H1 5008   2.522   4.978   1.047
 1599WAT     H2 5009   2.575   5.099   1.121
 1600WAT      O 5010   1.735   4.144   1.296
 1600WAT     H1 5011   1.728   4.052   1.321
 1600WAT     H2 5012   1.677   4.190   1.356
 1601WAT      O 5013   2.618   4.359   1.071
 1601WAT     H1 5014   2.668   4.280   1.092
 1601WAT     H2 5015   2.632   4.372   0.977
 1602WAT      O 5016   2.040   4.195   0.626
 1602WAT     H1 5017   2.057   4.277   0.672
 1602WAT     H2 5018   1.947   4.200   0.602
 1603WAT      O 5019   3.010   4.108   0.769
 1603WAT     H1 5020   3.087   4.053   0.784
 1603WAT     H2 5021   3.009   4.169   0.843
 1604WAT      O 5022   1.796   4.382   1.156
 1604WAT     H1 5023   1.878   4.403   1.201
 1604WAT     H2 5024   1.768   4.299   1.194
 1605WAT      O 5025   2.225   4.500   1.064
 1605WAT     H1 5026   2.288   4.549   1.117
 1605WAT     H2 5027   2.268   4.416   1.048
 1606WAT      O 5028   2.049   3.945   1.489
 1606WAT     H1 5029   2.055   4.009   1.418
 1606WAT     H2 5030   1.964   3.904   1.478
 1607WAT      O 5031   2.689   4.965   0.630
 1607WAT     H1 5032   2.623   5.001   0.570
 1607WAT     H2 5033   2.723   5.041   0.677
 1608WAT      O 5034   2.185   4.924   1.311
 1608WAT     H1 5035   2.143   4.983   1.374
 1608WAT     H2 5036   2.201   4.980   1.234
 1609WAT      O 5037   3.039   4.288   1.048
 1609WAT     H1 5038   2.959   4.308   1.097
 1609WAT     H2 5039   3.073   4.374   1.023
 1610WAT      O 5040   2.014   4.126   1.289
 1610WAT     H1 5041   2.048   4.213   1.270
 1610WAT     H2 5042   1.919   4.138   1.291
 1611WAT      O 5043   2.101   5.125   1.481
 1611WAT     H1 5044   2.158   5.196   1.451
 1611WAT     H2 5045   2.013   5.159   1.469
 1612WAT      O 5046   1.622   5.023   0.383
 1612WAT     H1 5047   1.604   5.076   0.305
 1612WAT     H2 5048   1.642   5.087   0.451
 1613WAT      O 5049   3.179   5.265   1.288
 1613WAT     H1 5050   3.111   5.331   1.278
 1613WAT     H2 5051   3.232   5.273   1.208
 1614WAT      O 5052   3.322   4.241   1.104
 1614WAT     H1 5053   3.227   4.250   1.107
 1614WAT     H2 5054   3.356   4.322   1.142
 1615WAT      O 5055   2.380   3.876   0.915
 1615WAT     H1 5056   2.411   3.817   0.847
 1615WAT     H2 5057   2.287   3.887   0.896
 1616WAT      O 5058   3.074   5.114   0.660
 1616WAT     H1 5059   3.059   5.020   0.671
 1616WAT     H2 5060   3.047   5.152   0.744
 1617WAT      O 5061   2.890   4.939   1.283
 1617WAT     H1 5062   2.933   4.912   1.202
 1617WAT     H2 5063   2.961   4.965   1.341
 1618WAT      O 5064   2.625   4.685   0.612
 1618WAT     H1 5065   2.529   4.688   0.615
 1618WAT     H2 5066   2.651   4.774   0.591
 1619WAT      O 5067   2.626   4.293   0.288
 1619WAT     H1 5068   2.534   4.312   0.309
 1619WAT     H2 5069   2.660   4.376   0.254
 1620WAT      O 5070   3.270   4.773   1.291
 1620WAT     H1 5071   3.194   4.800   1.239
 1620WAT     H2 5072   3.342   4.827   1.258
 1621WAT      O 5073   3.023   4.839   0.653
 1621WAT     H1 5074   2.960   4.806   0.589
 1621WAT     H2 5075   3.020   4.777   0.725
 1622WAT      O 5076   2.973   4.457   1.383
 1622WAT     H1 5077   2.930   4.541   1.401
 1622WAT     H2 5078   2.900   4.396   1.373
 1623WAT      O 5079   2.180   4.725   0.867
 1623WAT     H1 5080   2.148   4.651   0.815
 1623WAT     H2 5081   2.196   4.688   0.954
 1624WAT      O 5082   2.229   5.083   1.091
 1624WAT     H1 5083   2.199   5.047   1.007
 1624WAT     H2 5084   2.324   5.095   1.079
 1625WAT      O 5085   2.053   4.404   1.255
 1625WAT     H1 5086   2.105   4.432   1.179
 1625WAT     H2 5087   2.092   4.452   1.329
 1626WAT      O 5088   2.143   5.078   1.745
 1626WAT     H1 5089   2.055   5.096   1.779
 1626WAT     H2 5090   2.134   5.087   1.650
 1627WAT      O 5091   2.845   4.765   0.354
 1627WAT     H1 5092   2.881   4.678   0.337
 1627WAT     H2 5093   2.921   4.823   0.347
 1628WAT      O 5094   2.024   4.769   1.607
 1628WAT     H1 5095   2.000   4.860   1.628
 1628WAT     H2 5096   1.941   4.726   1.587
 1629WAT      O 5097   2.638   5.255   0.743
 1629WAT     H1 5098   2.699   5.314   0.699
 1629WAT     H2 5099   2.659   5.264   0.836
 1630WAT      O 5100   2.214   5.347   1.829
 1630WAT     H1 5101   2.196   5.392   1.747
 1630WAT     H2 5102   2.189   5.256   1.813
 1631WAT      O 5103   3.198   3.890   0.177
 1631WAT     H1 5104   3.174   3.882   0.270
 1631WAT     H2 5105   3.279   3.941   0.178
 1632WAT      O 5106   1.850   4.619   0.629
 1632WAT     H1 5107   1.844   4.691   0.567
 1632WAT     H2 5108   1.831   4.541   0.576
 1633WAT      O 5109   3.417   5.417   1.973
 1633WAT     H1 5110   3.441   5.496   2.020
 1633WAT     H2 5111   3.456   5.428   1.886
 1634WAT      O 5112   1.610   4.932   1.207
 1634WAT     H1 5113   1.608   4.946   1.112
 1634WAT     H2 5114   1.679   4.867   1.220
 1635WAT      O 5115   1.734   5.109   0.836
 1635WAT     H1 5116   1.713   5.132   0.746
 1635WAT     H2 5117   1.824   5.077   0.832
 1636WAT      O 5118   3.324   5.140   1.670
 1636WAT     H1 5119   3.364   5.122   1.585
 1636WAT     H2 5120   3.345   5.064   1.724
 1637WAT      O 5121   2.900   5.316   0.320
 1637WAT     H1 5122   2.820   5.294   0.273
 1637WAT     H2 5123   2.960   5.244   0.298
 1638WAT      O 5124   1.622   5.053   1.461
 1638WAT     H1 5125   1.621   5.005   1.379
 1638WAT     H2 5126   1.678   5.002   1.519
 1639WAT      O 5127   2.101   3.963   0.963
 1639WAT     H1 5128   2.059   4.044   0.935
 1639WAT     H2 5129   2.151   3.987   1.041
 1640WAT      O 5130   2.522   4.245   1.519
 1640WAT     H1 5131   2.469   4.264   1.597
 1640WAT     H2 5132   2.488   4.162   1.487
 1641WAT      O 5133   3.035   4.335   1.627
 1641WAT     H1 5134   2.947   4.329   1.665
 1641WAT     H2 5135   3.024   4.389   1.549
 1642WAT      O 5136   2.733   4.520   1.838
 1642WAT     H1 5137   2.753   4.428   1.819
 1642WAT     H2 5138   2.818   4.557   1.863
 1643WAT      O 5139   2.415   3.917   0.467
 1643WAT     H1 5140   2.334   3.923   0.518
 1643WAT     H2 5141   2.407   3.834   0.420
 1644WAT      O 5142   2.307   4.010   1.147
 1644WAT     H1 5143   2.325   4.102   1.126
 1644WAT     H2 5144   2.356   3.961   1.081
 1645WAT      O 5145   2.077   4.473   0.742
 1645WAT     H1 5146   2.046   4.436   0.825
 1645WAT     H2 5147   2.001   4.516   0.705
 1646WAT      O 5148   2.797   4.467   0.590
 1646WAT     H1 5149   2.739   4.543   0.583
 1646WAT     H2 5150   2.844   4.464   0.507
 1647WAT      O 5151   2.322   4.561   1.791
 1647WAT     H1 5152   2.320   4.467   1.775
 1647WAT     H2 5153   2.409   4.589   1.763
 1648WAT      O 5154   2.682   4.340   0.807
 1648WAT     H1 5155   2.711   4.372   0.722
 1648WAT     H2 5156   2.686   4.245   0.801
 1649WAT      O 5157   1.841   4.205   1.617
 1649WAT     H1 5158   1.792   4.283   1.641
 1649WAT     H2 5159   1.777   4.134   1.621
 1650WAT      O 5160   2.487   4.202   1.929
 1650WAT     H1 5161   2.427   4.161   1.992
 1650WAT     H2 5162   2.560   4.233   1.983
 1651WAT      O 5163   1.566   3.989   1.019
 1651WAT     H1 5164   1.541   4.053   1.086
 1651WAT     H2 5165   1.633   3.935   1.062
 1652WAT      O 5166   2.718   4.588   1.206
 1652WAT     H1 5167   2.642   4.631   1.246
 1652WAT     H2 5168   2.682   4.507   1.169
 1653WAT      O 5169   2.363   4.261   1.044
 1653WAT     H1 5170   2.369   4.226   0.955
 1653WAT     H2 5171   2.451   4.294   1.063
 1654WAT      O 5172   1.943   4.246   0.938
 1654WAT     H1 5173   1.910   4.295   1.013
 1654WAT     H2 5174   1.864   4.210   0.897
 1655WAT      O 5175   2.372   4.362   0.364
 1655WAT     H1 5176   2.370   4.358   0.460
 1655WAT     H2 5177   2.335   4.447   0.342
 1656WAT      O 5178   2.763   4.140   1.152
 1656WAT     H1 5179   2.772   4.175   1.241
 1656WAT     H2 5180   2.731   4.051   1.165
 1657WAT      O 5181   2.266   4.598   0.267
 1657WAT     H1 5182   2.219   4.551   0.199
 1657WAT     H2 5183   2.343   4.634   0.223
 1658WAT      O 5184   1.784   4.971   1.672
 1658WAT     H1 5185   1.742   4.913   1.736
 1658WAT     H2 5186   1.816   5.045   1.724
 1659WAT      O 5187   2.400   4.669   1.220
 1659WAT     H1 5188   2.424   4.610   1.292
 1659WAT     H2 5189   2.363   4.746   1.263
 1660WAT      O 5190   1.691   4.137   0.830
 1660WAT     H1 5191   1.652   4.095   0.906
 1660WAT     H2 5192   1.691   4.070   0.762
 1661WAT      O 5193   2.173   4.565   1.454
 1661WAT     H1 5194   2.143   4.649   1.489
 1661WAT     H2 5195   2.268   4.569   1.461
 1662WAT      O 5196   2.036   4.994   0.519
 1662WAT     H1 5197   1.959   4.938   0.513
 1662WAT     H2 5198   2.107   4.941   0.484
 1663WAT      O 5199   3.103   4.880   1.087
 1663WAT     H1 5200   3.175   4.931   1.050
 1663WAT     H2 5201   3.079   4.819   1.018
 1664WAT      O 5202   2.654   4.035   0.503
 1664WAT     H1 5203   2.569   3.990   0.494
 1664WAT     H2 5204   2.642   4.117   0.457
 1665WAT      O 5205   2.642   4.901   1.693
 1665WAT     H1 5206   2.637   4.815   1.651
 1665WAT     H2 5207   2.564   4.904   1.749
 1666WAT      O 5208   2.921   4.465   0.340
 1666WAT     H1 5209   3.009   4.497   0.321
 1666WAT     H2 5210   2.922   4.374   0.308
 1667WAT      O 5211   2.028   4.965   0.896
 1667WAT     H1 5212   2.080   4.891   0.863
 1667WAT     H2 5213   1.989   4.934   0.977
 1668WAT      O 5214   2.527   5.090   0.412
 1668WAT     H1 5215   2.543   5.164   0.354
 1668WAT     H2 5216   2.438   5.105   0.445
 1669WAT      O 5217   1.773   4.665   1.569
 1669WAT     H1 5218   1.729   4.719   1.635
 1669WAT     H2 5219   1.758   4.575   1.598
 1670WAT      O 5220   2.095   4.700   1.862
 1670WAT     H1 5221   2.076   4.724   1.771
 1670WAT     H2 5222   2.178   4.652   1.857
 1671WAT      O 5223   2.633   5.174   1.651
 1671WAT     H1 5224   2.630   5.078   1.648
 1671WAT     H2 5225   2.565   5.199   1.713
 1672WAT      O 5226   3.154   4.601   0.280
 1672WAT     H1 5227   3.143   4.645   0.196
 1672WAT     H2 5228   3.214   4.657   0.329
 1673WAT      O 5229   3.256   4.852   1.580
 1673WAT     H1 5230   3.181   4.909   1.565
 1673WAT     H2 5231   3.298   4.845   1.494
 1674WAT      O 5232   3.265   5.271   0.541
 1674WAT     H1 5233   3.202   5.216   0.587
 1674WAT     H2 5234   3.211   5.329   0.487
 1675WAT      O 5235   2.812   5.013   0.940
 1675WAT     H1 5236   2.841   4.949   0.874
 1675WAT     H2 5237   2.723   4.984   0.963
 1676WAT      O 5238   2.406   5.086   0.690
 1676WAT     H1 5239   2.482   5.141   0.711
 1676WAT     H2 5240   2.333   5.148   0.687
 1677WAT      O 5241   1.624   4.645   0.238
 1677WAT     H1 5242   1.718   4.655   0.255
 1677WAT     H2 5243   1.590   4.734   0.237
 1678WAT      O 5244   2.362   4.798   0.654
 1678WAT     H1 5245   2.389   4.888   0.672
 1678WAT     H2 5246   2.310   4.773   0.730
 1679WAT      O 5247   2.566   5.346   1.366
 1679WAT     H1 5248   2.622   5.356   1.442
 1679WAT     H2 5249   2.601   5.268   1.321
 1680WAT      O 5250   1.947   3.822   0.695
 1680WAT     H1 5251   1.911   3.808   0.783
 1680WAT     H2 5252   1.871   3.849   0.643
 1681WAT      O 5253   2.709   5.145   1.236
 1681WAT     H1 5254   2.761   5.067   1.257
 1681WAT     H2 5255   2.774   5.210   1.208
 1682WAT      O 5256   2.892   5.225   1.563
 1682WAT     H1 5257   2.912   5.289   1.631
 1682WAT     H2 5258   2.800   5.202   1.579
 1683WAT      O 5259   1.641   4.002   1.636
 1683WAT     H1 5260   1.564   4.016   1.690
 1683WAT     H2 5261   1.691   3.935   1.683
 1684WAT      O 5262   3.048   4.955   0.378
 1684WAT     H1 5263   3.028   5.009   0.454
 1684WAT     H2 5264   3.135   4.919   0.396
 1685WAT      O 5265   1.665   5.404   1.721
 1685WAT     H1 5266   1.675   5.309   1.719
 1685WAT     H2 5267   1.584   5.421   1.673
 1686WAT      O 5268   2.462   5.224   1.873
 1686WAT     H1 5269   2.427   5.152   1.926
 1686WAT     H2 5270   2.389   5.285   1.864
 1687WAT      O 5271   2.278   5.312   0.368
 1687WAT     H1 5272   2.270   5.384   0.305
 1687WAT     H2 5273   2.188   5.280   0.379
 1688WAT      O 5274   1.822   4.842   0.446
 1688WAT     H1 5275   1.752   4.905   0.429
 1688WAT     H2 5276   1.861   4.827   0.360
 1689WAT      O 5277   2.782   4.242   1.409
 1689WAT     H1 5278   2.818   4.167   1.458
 1689WAT     H2 5279   2.695   4.256   1.447
 1690WAT      O 5280   3.126   4.148   0.497
 1690WAT     H1 5281   3.067   4.159   0.422
 1690WAT     H2 5282   3.068   4.148   0.573
 1691WAT      O 5283   2.321   4.370   0.629
 1691WAT     H1 5284   2.249   4.416   0.673
 1691WAT     H2 5285   2.354   4.309   0.695
 1692WAT      O 5286   2.471   4.520   1.435
 1692WAT     H1 5287   2.529   4.565   1.496
 1692WAT     H2 5288   2.489   4.427   1.449
 1693WAT      O 5289   2.729   4.056   0.774
 1693WAT     H1 5290   2.704   4.041   0.683
 1693WAT     H2 5291   2.825   4.063   0.771
 1694WAT      O 5292   2.131   4.213   0.365
 1694WAT     H1 5293   2.221   4.245   0.356
 1694WAT     H2 5294   2.113   4.219   0.458
 1695WAT      O 5295   3.031   4.679   0.872
 1695WAT     H1 5296   2.939   4.654   0.879
 1695WAT     H2 5297   3.079   4.604   0.905
 1696WAT      O 5298   1.903   4.592   0.293
 1696WAT     H1 5299   1.891   4.498   0.281
 1696WAT     H2 5300   1.997   4.602   0.309
 1697WAT      O 5301   3.241   5.373   1.042
 1697WAT     H1 5302   3.241   5.469   1.053
 1697WAT     H2 5303   3.321   5.355   0.993
 1698WAT      O 5304   1.659   5.202   0.587
 1698WAT     H1 5305   1.569   5.234   0.585
 1698WAT     H2 5306   1.712   5.278   0.564
 1699WAT      O 5307   2.775   5.111   1.908
 1699WAT     H1 5308   2.705   5.126   1.845
 1699WAT     H2 5309   2.737   5.049   1.972
 1700WAT      O 5310   1.660   4.770   1.813
 1700WAT     H1 5311   1.707   4.701   1.860
 1700WAT     H2 5312   1.579   4.782   1.864
 1701WAT      O 5313   2.365   4.908   1.759
 1701WAT     H1 5314   2.285   4.960   1.760
 1701WAT     H2 5315   2.370   4.873   1.670
 1702WAT      O 5316   2.670   4.940   0.226
 1702WAT     H1 5317   2.614   4.975   0.296
 1702WAT     H2 5318   2.725   4.876   0.271
 1703WAT      O 5319   3.075   5.074   1.819
 1703WAT     H1 5320   3.147   5.106   1.764
 1703WAT     H2 5321   2.996   5.100   1.772
 1704WAT      O 5322   1.846   4.572   1.896
 1704WAT     H1 5323   1.851   4.553   1.989
 1704WAT     H2 5324   1.934   4.603   1.873
 1705WAT      O 5325   2.220   4.825   0.421
 1705WAT     H1 5326   2.277   4.815   0.498
 1705WAT     H2 5327   2.238   4.747   0.368
 1706WAT      O 5328   2.051   4.423   1.696
 1706WAT     H1 5329   1.989   4.385   1.633
 1706WAT     H2 5330   2.114   4.471   1.642
 1707WAT      O 5331   2.931   4.861   1.682
 1707WAT     H1 5332   2.981   4.902   1.752
 1707WAT     H2 5333   2.841   4.890   1.698
 1708WAT      O 5334   2.995   4.603   1.865
 1708WAT     H1 5335   3.061   4.535   1.849
 1708WAT     H2 5336   3.010   4.668   1.796
 1709WAT      O 5337   2.100   4.118   1.708
 1709WAT     H1 5338   2.093   4.056   1.635
 1709WAT     H2 5339   2.032   4.183   1.690
 1710WAT      O 5340   2.377   3.994   1.409
 1710WAT     H1 5341   2.336   3.996   1.322
 1710WAT     H2 5342   2.313   3.949   1.464
 1711WAT      O 5343   2.398   4.874   1.478
 1711WAT     H1 5344   2.456   4.945   1.452
 1711WAT     H2 5345   2.318   4.889   1.428
 1712WAT      O 5346   2.647   4.634   1.609
 1712WAT     H1 5347   2.673   4.591   1.691
 1712WAT     H2 5348   2.729   4.645   1.561
 1713WAT      O 5349   2.872   4.701   1.467
 1713WAT     H1 5350   2.850   4.758   1.394
 1713WAT     H2 5351   2.912   4.759   1.532
 1714WAT      O 5352   2.335   4.295   1.729
 1714WAT     H1 5353   2.385   4.262   1.803
 1714WAT     H2 5354   2.255   4.242   1.730
 1715WAT      O 5355   2.807   4.263   1.770
 1715WAT     H1 5356   2.741   4.201   1.739
 1715WAT     H2 5357   2.878   4.207   1.803
 1716WAT      O 5358   2.870   3.927   0.370
 1716WAT     H1 5359   2.884   3.836   0.398
 1716WAT     H2 5360   2.793   3.956   0.418
 1717WAT      O 5361   1.897   5.060   0.198
 1717WAT     H1 5362   1.935   5.133   0.247
 1717WAT     H2 5363   1.971   5.004   0.176
 1718WAT      O 5364   1.620   5.344   0.951
 1718WAT     H1 5365   1.658   5.266   0.911
 1718WAT     H2 5366   1.686   5.374   1.013
 1719WAT      O 5367   2.094   5.187   0.710
 1719WAT     H1 5368   2.064   5.155   0.794
 1719WAT     H2 5369   2.077   5.115   0.649
 1720WAT      O 5370   3.248   5.401   1.633
 1720WAT     H1 5371   3.188   5.393   1.559
 1720WAT     H2 5372   3.267   5.310   1.658
 1721WAT      O 5373   3.302   4.832   0.419
 1721WAT     H1 5374   3.372   4.898   0.419
 1721WAT     H2 5375   3.314   4.786   0.502
 1722WAT      O 5376   1.652   4.690   0.837
 1722WAT     H1 5377   1.587   4.668   0.771
 1722WAT     H2 5378   1.737   4.678   0.794
 1723WAT      O 5379   3.416   4.932   0.926
 1723WAT     H1 5380   3.448   4.851   0.887
 1723WAT     H2 5381   3.473   5.000   0.890
 1724WAT      O 5382   3.089   5.059   1.446
 1724WAT     H1 5383   3.021   5.114   1.486
 1724WAT     H2 5384   3.140   5.120   1.392
 1725WAT      O 5385   2.966   4.170   0.275
 1725WAT     H1 5386   2.990   4.154   0.184
 1725WAT     H2 5387   2.917   4.092   0.301
 1726WAT      O 5388   3.301   4.666   0.644
 1726WAT     H1 5389   3.266   4.585   0.609
 1726WAT     H2 5390   3.228   4.707   0.691
 1727WAT      O 5391   1.770   4.731   1.300
 1727WAT     H1 5392   1.784   4.714   1.393
 1727WAT     H2 5393   1.708   4.663   1.273
 1728WAT      O 5394   3.254   4.576   1.608
 1728WAT     H1 5395   3.236   4.554   1.516
 1728WAT     H2 5396   3.257   4.671   1.609
 1729WAT      O 5397   1.711   4.429   1.696
 1729WAT     H1 5398   1.623   4.414   1.731
 1729WAT     H2 5399   1.762   4.462   1.770
 1730WAT      O 5400   1.576   4.411   0.414
 1730WAT     H1 5401   1.490   4.443   0.440
 1730WAT     H2 5402   1.608   4.476   0.351
 1731WAT      O 5403   3.221   4.495   0.974
 1731WAT     H1 5404   3.268   4.445   0.908
 1731WAT     H2 5405   3.289   4.528   1.033
 1732WAT      O 5406   3.245   4.491   1.321
 1732WAT     H1 5407   3.150   4.486   1.328
 1732WAT     H2 5408   3.263   4.583   1.300
 1733WAT      O 5409   1.844   4.328   0.234
 1733WAT     H1 5410   1.907   4.264   0.201
 1733WAT     H2 5411   1.770   4.320   0.174
 1734WAT      O 5412   3.209   4.415   0.571
 1734WAT     H1 5413   3.234   4.376   0.655
 1734WAT     H2 5414   3.163   4.346   0.525
 1735WAT      O 5415   1.769   3.841   1.127
 1735WAT     H1 5416   1.841   3.800   1.078
 1735WAT     H2 5417   1.809   3.868   1.209
 1736WAT      O 5418   3.324   4.285   0.817
 1736WAT     H1 5419   3.311   4.252   0.906
 1736WAT     H2 5420   3.406   4.245   0.788
 1737WAT      O 5421   3.421   4.134   0.419
 1737WAT     H1 5422   3.330   4.132   0.451
 1737WAT     H2 5423   3.440   4.227   0.409
 1738WAT      O 5424   1.744   3.877   1.412
 1738WAT     H1 5425   1.702   3.921   1.486
 1738WAT     H2 5426   1.711   3.787   1.416
 1739WAT      O 5427   1.895   5.183   1.817
 1739WAT     H1 5428   1.893   5.147   1.906
 1739WAT     H2 5429   1.909   5.277   1.829
 1740WAT      O 5430   2.275   5.325   1.384
 1740WAT     H1 5431   2.245   5.356   1.298
 1740WAT     H2 5432   2.369   5.343   1.385
 1741WAT      O 5433   2.493   3.975   1.764
 1741WAT     H1 5434   2.486   4.053   1.819
 1741WAT     H2 5435   2.586   3.970   1.741
 1742WAT      O 5436   1.814   3.815   1.733
 1742WAT     H1 5437   1.864   3.790   1.655
 1742WAT     H2 5438   1.820   3.740   1.791
 1743WAT      O 5439   1.885   5.477   1.541
 1743WAT     H1 5440   1.818   5.464   1.608
 1743WAT     H2 5441   1.884   5.395   1.490
 1744WAT      O 5442   2.841   3.806   1.348
 1744WAT     H1 5443   2.762   3.850   1.317
 1744WAT     H2 5444   2.812   3.757   1.424
 1745WAT      O 5445   1.851   5.227   1.420
 1745WAT     H1 5446   1.772   5.173   1.423
 1745WAT     H2 5447   1.870   5.236   1.327
 1746WAT      O 5448   2.221   5.415   1.127
 1746WAT     H1 5449   2.257   5.377   1.047
 1746WAT     H2 5450   2.261   5.502   1.133
 1747WAT      O 5451   2.602   3.904   1.244
 1747WAT     H1 5452   2.533   3.945   1.296
 1747WAT     H2 5453   2.564   3.820   1.217
 1748WAT      O 5454   3.051   3.964   1.049
 1748WAT     H1 5455   3.114   3.963   0.978
 1748WAT     H2 5456   3.030   4.056   1.062
 1749WAT      O 5457   3.234   3.941   0.848
 1749WAT     H1 5458   3.227   3.848   0.826
 1749WAT     H2 5459   3.315   3.948   0.898
 1750WAT      O 5460   1.743   3.934   0.494
 1750WAT     H1 5461   1.822   3.952   0.444
 1750WAT     H2 5462   1.684   4.006   0.473
 1751WAT      O 5463   2.381   4.142   0.796
 1751WAT     H1 5464   2.316   4.092   0.748
 1751WAT     H2 5465   2.448   4.078   0.819
 1752WAT      O 5466   2.841   3.809   0.921
 1752WAT     H1 5467   2.908   3.857   0.969
 1752WAT     H2 5468   2.775   3.875   0.898
 1753WAT      O 5469   3.163   3.856   0.456
 1753WAT     H1 5470   3.162   3.949   0.480
 1753WAT     H2 5471   3.076   3.824   0.479
 1754WAT      O 5472   1.817   5.411   0.497
 1754WAT     H1 5473   1.793   5.461   0.419
 1754WAT     H2 5474   1.843   5.478   0.561
 1755WAT      O 5475   1.970   3.985   0.353
 1755WAT     H1 5476   2.022   3.904   0.354
 1755WAT     H2 5477   2.034   4.055   0.352
 1756WAT      O 5478   2.197   3.967   0.650
 1756WAT     H1 5479   2.133   3.899   0.669
 1756WAT     H2 5480   2.144   4.045   0.634
 1757WAT      O 5481   2.197   3.886   1.894
 1757WAT     H1 5482   2.186   3.942   1.818
 1757WAT     H2 5483   2.252   3.814   1.863
 1758WAT      O 5484   2.013   5.230   0.385
 1758WAT     H1 5485   1.954   5.284   0.437
 1758WAT     H2 5486   2.026   5.151   0.437
 1759WAT      O 5487   2.769   2.748   4.604
 1759WAT     H1 5488   2.735   2.659   4.605
 1759WAT     H2 5489   2.697   2.802   4.573
 1760WAT      O 5490   2.580   2.930   4.799
 1760WAT     H1 5491   2.503   2.886   4.836
 1760WAT     H2 5492   2.649   2.864   4.802
 1761WAT      O 5493   1.960   2.986   4.903
 1761WAT     H1 5494   1.894   2.931   4.944
 1761WAT     H2 5495   2.040   2.968   4.953
 1762WAT      O 5496   2.975   3.376   4.688
 1762WAT     H1 5497   2.928   3.295   4.708
 1762WAT     H2 5498   3.056   3.370   4.738
 1763WAT      O 5499   1.980   3.363   4.931
 1763WAT     H1 5500   2.009   3.278   4.896
 1763WAT     H2 5501   2.046   3.425   4.901
 1764WAT      O 5502   1.833   2.468   4.264
 1764WAT     H1 5503   1.739   2.486   4.276
 1764WAT     H2 5504   1.839   2.431   4.176
 1765WAT      O 5505   1.599   2.697   4.851
 1765WAT     H1 5506   1.671   2.636   4.865
 1765WAT     H2 5507   1.625   2.747   4.773
 1766WAT      O 5508   2.597   3.602   4.663
 1766WAT     H1 5509   2.535   3.635   4.598
 1766WAT     H2 5510   2.683   3.623   4.627
 1767WAT      O 5511   2.505   3.194   4.816
 1767WAT     H1 5512   2.521   3.101   4.800
 1767WAT     H2 5513   2.575   3.220   4.875
 1768WAT      O 5514   1.735   2.264   5.050
 1768WAT     H1 5515   1.728   2.173   5.079
 1768WAT     H2 5516   1.678   2.313   5.109
 1769WAT      O 5517   2.620   2.482   4.825
 1769WAT     H1 5518   2.669   2.403   4.845
 1769WAT     H2 5519   2.631   2.495   4.731
 1770WAT      O 5520   3.000   2.228   4.538
 1770WAT     H1 5521   3.082   2.179   4.535
 1770WAT     H2 5522   3.015   2.294   4.606
 1771WAT      O 5523   1.791   2.509   4.917
 1771WAT     H1 5524   1.877   2.528   4.954
 1771WAT     H2 5525   1.771   2.420   4.947
 1772WAT      O 5526   2.220   2.602   4.840
 1772WAT     H1 5527   2.277   2.679   4.843
 1772WAT     H2 5528   2.275   2.532   4.806
 1773WAT      O 5529   3.419   2.431   5.187
 1773WAT     H1 5530   3.361   2.489   5.138
 1773WAT     H2 5531   3.460   2.487   5.252
 1774WAT      O 5532   2.049   2.065   5.241
 1774WAT     H1 5533   2.054   2.130   5.171
 1774WAT     H2 5534   1.962   2.027   5.231
 1775WAT      O 5535   2.702   3.094   4.389
 1775WAT     H1 5536   2.621   3.112   4.342
 1775WAT     H2 5537   2.721   3.175   4.436
 1776WAT      O 5538   2.190   3.047   5.066
 1776WAT     H1 5539   2.143   3.103   5.128
 1776WAT     H2 5540   2.200   3.100   4.988
 1777WAT      O 5541   3.037   2.412   4.802
 1777WAT     H1 5542   2.958   2.432   4.852
 1777WAT     H2 5543   3.073   2.497   4.778
 1778WAT      O 5544   2.014   2.247   5.044
 1778WAT     H1 5545   2.049   2.334   5.025
 1778WAT     H2 5546   1.919   2.259   5.044
 1779WAT      O 5547   2.098   3.249   5.239
 1779WAT     H1 5548   2.156   3.317   5.205
 1779WAT     H2 5549   2.010   3.280   5.220
 1780WAT      O 5550   1.627   3.148   4.134
 1780WAT     H1 5551   1.594   3.199   4.061
 1780WAT     H2 5552   1.644   3.213   4.203
 1781WAT      O 5553   3.177   3.378   5.031
 1781WAT     H1 5554   3.120   3.454   5.045
 1781WAT     H2 5555   3.230   3.402   4.955
 1782WAT      O 5556   3.323   2.363   4.851
 1782WAT     H1 5557   3.228   2.373   4.864
 1782WAT     H2 5558   3.361   2.438   4.896
 1783WAT      O 5559   2.381   2.002   4.669
 1783WAT     H1 5560   2.410   1.939   4.602
 1783WAT     H2 5561   2.287   2.010   4.654
 1784WAT      O 5562   2.942   3.572   4.901
 1784WAT     H1 5563   2.940   3.526   4.817
 1784WAT     H2 5564   2.880   3.643   4.891
 1785WAT      O 5565   3.072   3.235   4.412
 1785WAT     H1 5566   3.061   3.141   4.424
 1785WAT     H2 5567   3.051   3.273   4.498
 1786WAT      O 5568   2.890   3.061   5.039
 1786WAT     H1 5569   2.933   3.036   4.957
 1786WAT     H2 5570   2.962   3.089   5.096
 1787WAT      O 5571   3.270   2.895   5.046
 1787WAT     H1 5572   3.194   2.924   4.995
 1787WAT     H2 5573   3.342   2.949   5.013
 1788WAT      O 5574   3.027   2.961   4.407
 1788WAT     H1 5575   2.954   2.935   4.351
 1788WAT     H2 5576   3.023   2.901   4.481
 1789WAT      O 5577   2.973   2.580   5.138
 1789WAT     H1 5578   2.931   2.665   5.155
 1789WAT     H2 5579   2.900   2.519   5.126
 1790WAT      O 5580   2.231   3.212   4.842
 1790WAT     H1 5581   2.200   3.161   4.767
 1790WAT     H2 5582   2.326   3.216   4.831
 1791WAT      O 5583   2.045   2.525   5.020
 1791WAT     H1 5584   2.099   2.548   4.944
 1791WAT     H2 5585   2.085   2.573   5.093
 1792WAT      O 5586   3.036   3.573   5.214
 1792WAT     H1 5587   3.003   3.658   5.185
 1792WAT     H2 5588   2.959   3.516   5.215
 1793WAT      O 5589   2.146   3.205   5.503
 1793WAT     H1 5590   2.058   3.214   5.539
 1793WAT     H2 5591   2.134   3.212   5.409
 1794WAT      O 5592   2.854   2.880   4.112
 1794WAT     H1 5593   2.903   2.811   4.068
 1794WAT     H2 5594   2.913   2.956   4.112
 1795WAT      O 5595   2.026   2.891   5.359
 1795WAT     H1 5596   2.002   2.980   5.383
 1795WAT     H2 5597   1.943   2.848   5.339
 1796WAT      O 5598   2.653   3.366   4.499
 1796WAT     H1 5599   2.701   3.437   4.456
 1796WAT     H2 5600   2.637   3.398   4.587
 1797WAT      O 5601   2.195   3.480   5.584
 1797WAT     H1 5602   2.203   3.525   5.500
 1797WAT     H2 5603   2.198   3.387   5.562
 1798WAT      O 5604   1.828   2.751   4.382
 1798WAT     H1 5605   1.833   2.816   4.312
 1798WAT     H2 5606   1.832   2.666   4.337
 1799WAT      O 5607   1.609   3.054   4.962
 1799WAT     H1 5608   1.610   3.071   4.868
 1799WAT     H2 5609   1.679   2.990   4.976
 1800WAT      O 5610   1.733   3.231   4.593
 1800WAT     H1 5611   1.715   3.254   4.502
 1800WAT     H2 5612   1.823   3.196   4.591
 1801WAT      O 5613   3.327   3.264   5.426
 1801WAT     H1 5614   3.363   3.249   5.339
 1801WAT     H2 5615   3.340   3.182   5.472
 1802WAT      O 5616   2.728   3.640   5.297
 1802WAT     H1 5617   2.773   3.631   5.381
 1802WAT     H2 5618   2.642   3.676   5.320
 1803WAT      O 5619   2.916   3.678   4.235
 1803WAT     H1 5620   2.896   3.648   4.324
 1803WAT     H2 5621   2.914   3.599   4.181
 1804WAT      O 5622   2.161   3.645   4.398
 1804WAT     H1 5623   2.141   3.552   4.403
 1804WAT     H2 5624   2.081   3.689   4.428
 1805WAT      O 5625   2.887   3.448   4.084
 1805WAT     H1 5626   2.812   3.421   4.030
 1805WAT     H2 5627   2.960   3.397   4.050
 1806WAT      O 5628   2.846   3.585   4.501
 1806WAT     H1 5629   2.901   3.514   4.535
 1806WAT     H2 5630   2.877   3.663   4.547
 1807WAT      O 5631   3.331   2.481   5.521
 1807WAT     H1 5632   3.281   2.547   5.473
 1807WAT     H2 5633   3.275   2.403   5.520
 1808WAT      O 5634   1.621   3.173   5.217
 1808WAT     H1 5635   1.619   3.130   5.132
 1808WAT     H2 5636   1.681   3.120   5.269
 1809WAT      O 5637   2.101   2.089   4.717
 1809WAT     H1 5638   2.050   2.168   4.700
 1809WAT     H2 5639   2.151   2.110   4.796
 1810WAT      O 5640   2.524   2.363   5.278
 1810WAT     H1 5641   2.468   2.386   5.352
 1810WAT     H2 5642   2.486   2.283   5.243
 1811WAT      O 5643   3.037   2.464   5.381
 1811WAT     H1 5644   2.951   2.454   5.421
 1811WAT     H2 5645   3.021   2.516   5.302
 1812WAT      O 5646   2.735   2.639   5.585
 1812WAT     H1 5647   2.760   2.547   5.571
 1812WAT     H2 5648   2.814   2.680   5.619
 1813WAT      O 5649   2.308   2.129   4.903
 1813WAT     H1 5650   2.322   2.222   4.883
 1813WAT     H2 5651   2.357   2.082   4.836
 1814WAT      O 5652   2.778   2.584   4.325
 1814WAT     H1 5653   2.751   2.676   4.328
 1814WAT     H2 5654   2.866   2.586   4.289
 1815WAT      O 5655   2.323   2.680   5.555
 1815WAT     H1 5656   2.319   2.588   5.529
 1815WAT     H2 5657   2.407   2.711   5.522
 1816WAT      O 5658   2.684   2.465   4.561
 1816WAT     H1 5659   2.712   2.490   4.472
 1816WAT     H2 5660   2.685   2.369   4.560
 1817WAT      O 5661   1.840   2.325   5.372
 1817WAT     H1 5662   1.790   2.405   5.388
 1817WAT     H2 5663   1.774   2.255   5.376
 1818WAT      O 5664   1.566   2.109   4.776
 1818WAT     H1 5665   1.541   2.177   4.839
 1818WAT     H2 5666   1.634   2.058   4.820
 1819WAT      O 5667   1.600   2.513   3.884
 1819WAT     H1 5668   1.591   2.606   3.906
 1819WAT     H2 5669   1.538   2.499   3.812
 1820WAT      O 5670   2.715   2.712   4.958
 1820WAT     H1 5671   2.640   2.757   4.997
 1820WAT     H2 5672   2.680   2.630   4.926
 1821WAT      O 5673   2.371   2.372   4.797
 1821WAT     H1 5674   2.377   2.350   4.704
 1821WAT     H2 5675   2.454   2.415   4.817
 1822WAT      O 5676   1.941   2.334   4.702
 1822WAT     H1 5677   1.934   2.415   4.753
 1822WAT     H2 5678   1.860   2.331   4.652
 1823WAT      O 5679   2.764   2.262   4.906
 1823WAT     H1 5680   2.771   2.300   4.994
 1823WAT     H2 5681   2.729   2.174   4.921
 1824WAT      O 5682   3.087   1.976   5.490
 1824WAT     H1 5683   3.161   1.933   5.532
 1824WAT     H2 5684   3.111   1.979   5.397
 1825WAT      O 5685   1.787   3.093   5.431
 1825WAT     H1 5686   1.744   3.029   5.488
 1825WAT     H2 5687   1.803   3.169   5.488
 1826WAT      O 5688   2.413   2.796   4.976
 1826WAT     H1 5689   2.425   2.734   5.048
 1826WAT     H2 5690   2.358   2.865   5.013
 1827WAT      O 5691   1.688   2.262   4.586
 1827WAT     H1 5692   1.652   2.220   4.664
 1827WAT     H2 5693   1.683   2.194   4.518
 1828WAT      O 5694   2.173   2.685   5.214
 1828WAT     H1 5695   2.144   2.771   5.244
 1828WAT     H2 5696   2.268   2.690   5.213
 1829WAT      O 5697   2.038   3.116   4.266
 1829WAT     H1 5698   1.960   3.061   4.267
 1829WAT     H2 5699   2.110   3.055   4.282
 1830WAT      O 5700   3.105   3.002   4.843
 1830WAT     H1 5701   3.176   3.055   4.807
 1830WAT     H2 5702   3.081   2.943   4.771
 1831WAT      O 5703   2.649   2.157   4.260
 1831WAT     H1 5704   2.570   2.103   4.261
 1831WAT     H2 5705   2.620   2.242   4.228
 1832WAT      O 5706   2.647   3.021   5.449
 1832WAT     H1 5707   2.638   2.936   5.405
 1832WAT     H2 5708   2.567   3.030   5.501
 1833WAT      O 5709   2.025   3.092   4.649
 1833WAT     H1 5710   2.076   3.021   4.611
 1833WAT     H2 5711   1.988   3.055   4.729
 1834WAT      O 5712   2.519   3.203   4.150
 1834WAT     H1 5713   2.553   3.286   4.118
 1834WAT     H2 5714   2.458   3.227   4.221
 1835WAT      O 5715   1.773   2.788   5.323
 1835WAT     H1 5716   1.727   2.841   5.389
 1835WAT     H2 5717   1.758   2.698   5.351
 1836WAT      O 5718   2.094   2.820   5.618
 1836WAT     H1 5719   2.072   2.837   5.526
 1836WAT     H2 5720   2.177   2.771   5.615
 1837WAT      O 5721   2.635   3.293   5.401
 1837WAT     H1 5722   2.638   3.197   5.406
 1837WAT     H2 5723   2.568   3.318   5.464
 1838WAT      O 5724   3.259   2.975   5.337
 1838WAT     H1 5725   3.182   3.030   5.324
 1838WAT     H2 5726   3.299   2.969   5.250
 1839WAT      O 5727   3.265   3.406   4.305
 1839WAT     H1 5728   3.197   3.347   4.337
 1839WAT     H2 5729   3.227   3.446   4.227
 1840WAT      O 5730   2.817   3.136   4.695
 1840WAT     H1 5731   2.838   3.075   4.625
 1840WAT     H2 5732   2.727   3.116   4.720
 1841WAT      O 5733   2.416   3.233   4.409
 1841WAT     H1 5734   2.486   3.270   4.463
 1841WAT     H2 5735   2.335   3.264   4.450
 1842WAT      O 5736   1.623   2.771   3.977
 1842WAT     H1 5737   1.707   2.788   4.020
 1842WAT     H2 5738   1.581   2.857   3.971
 1843WAT      O 5739   2.567   3.469   5.115
 1843WAT     H1 5740   2.624   3.498   5.187
 1843WAT     H2 5741   2.608   3.388   5.084
 1844WAT      O 5742   1.947   1.950   4.452
 1844WAT     H1 5743   1.928   1.933   4.544
 1844WAT     H2 5744   1.860   1.957   4.411
 1845WAT      O 5745   2.712   3.269   4.992
 1845WAT     H1 5746   2.763   3.190   5.012
 1845WAT     H2 5747   2.777   3.333   4.965
 1846WAT      O 5748   3.084   3.290   3.961
 1846WAT     H1 5749   3.068   3.212   4.015
 1846WAT     H2 5750   3.043   3.269   3.877
 1847WAT      O 5751   2.892   3.350   5.326
 1847WAT     H1 5752   2.904   3.420   5.389
 1847WAT     H2 5753   2.799   3.327   5.333
 1848WAT      O 5754   1.681   3.708   4.034
 1848WAT     H1 5755   1.714   3.779   3.979
 1848WAT     H2 5756   1.655   3.751   4.115
 1849WAT      O 5757   1.640   2.126   5.388
 1849WAT     H1 5758   1.564   2.140   5.445
 1849WAT     H2 5759   1.692   2.059   5.433
 1850WAT      O 5760   3.046   3.082   4.137
 1850WAT     H1 5761   3.025   3.134   4.215
 1850WAT     H2 5762   3.130   3.042   4.156
 1851WAT      O 5763   1.679   3.525   5.464
 1851WAT     H1 5764   1.665   3.431   5.478
 1851WAT     H2 5765   1.594   3.558   5.435
 1852WAT      O 5766   2.281   3.431   4.120
 1852WAT     H1 5767   2.277   3.506   4.061
 1852WAT     H2 5768   2.190   3.402   4.129
 1853WAT      O 5769   1.823   2.960   4.189
 1853WAT     H1 5770   1.754   3.024   4.177
 1853WAT     H2 5771   1.870   2.959   4.105
 1854WAT      O 5772   2.781   2.372   5.159
 1854WAT     H1 5773   2.826   2.299   5.201
 1854WAT     H2 5774   2.696   2.377   5.203
 1855WAT      O 5775   2.561   3.437   3.995
 1855WAT     H1 5776   2.571   3.415   3.903
 1855WAT     H2 5777   2.468   3.421   4.013
 1856WAT      O 5778   2.468   2.641   5.193
 1856WAT     H1 5779   2.528   2.688   5.252
 1856WAT     H2 5780   2.490   2.549   5.205
 1857WAT      O 5781   2.730   2.177   4.529
 1857WAT     H1 5782   2.711   2.160   4.436
 1857WAT     H2 5783   2.825   2.186   4.532
 1858WAT      O 5784   2.428   3.696   4.459
 1858WAT     H1 5785   2.468   3.685   4.373
 1858WAT     H2 5786   2.335   3.679   4.445
 1859WAT      O 5787   3.208   2.263   5.273
 1859WAT     H1 5788   3.151   2.331   5.307
 1859WAT     H2 5789   3.286   2.309   5.243
 1860WAT      O 5790   3.035   2.800   4.624
 1860WAT     H1 5791   2.943   2.775   4.632
 1860WAT     H2 5792   3.083   2.727   4.661
 1861WAT      O 5793   2.029   2.954   3.978
 1861WAT     H1 5794   2.116   2.950   4.019
 1861WAT     H2 5795   2.040   2.906   3.895
 1862WAT      O 5796   1.898   2.697   4.037
 1862WAT     H1 5797   1.894   2.603   4.057
 1862WAT     H2 5798   1.980   2.726   4.078
 1863WAT      O 5799   3.240   3.506   4.779
 1863WAT     H1 5800   3.248   3.587   4.830
 1863WAT     H2 5801   3.328   3.490   4.745
 1864WAT      O 5802   1.983   3.722   4.757
 1864WAT     H1 5803   2.049   3.659   4.786
 1864WAT     H2 5804   2.032   3.802   4.739
 1865WAT      O 5805   1.660   3.325   4.341
 1865WAT     H1 5806   1.570   3.358   4.341
 1865WAT     H2 5807   1.713   3.402   4.320
 1866WAT      O 5808   2.280   3.625   3.932
 1866WAT     H1 5809   2.358   3.670   3.900
 1866WAT     H2 5810   2.247   3.577   3.856
 1867WAT      O 5811   2.906   3.608   5.518
 1867WAT     H1 5812   3.001   3.610   5.506
 1867WAT     H2 5813   2.890   3.667   5.592
 1868WAT      O 5814   3.191   3.555   4.086
 1868WAT     H1 5815   3.174   3.509   4.003
 1868WAT     H2 5816   3.177   3.647   4.065
 1869WAT      O 5817   1.664   2.894   5.571
 1869WAT     H1 5818   1.707   2.829   5.627
 1869WAT     H2 5819   1.574   2.897   5.603
 1870WAT      O 5820   2.347   3.157   3.897
 1870WAT     H1 5821   2.351   3.115   3.984
 1870WAT     H2 5822   2.303   3.092   3.842
 1871WAT      O 5823   2.377   3.032   5.510
 1871WAT     H1 5824   2.293   3.075   5.525
 1871WAT     H2 5825   2.370   2.998   5.421
 1872WAT      O 5826   2.665   3.052   3.976
 1872WAT     H1 5827   2.613   3.102   4.039
 1872WAT     H2 5828   2.724   2.999   4.031
 1873WAT      O 5829   3.072   3.191   5.562
 1873WAT     H1 5830   3.149   3.231   5.521
 1873WAT     H2 5831   2.998   3.224   5.511
 1874WAT      O 5832   2.037   2.547   5.440
 1874WAT     H1 5833   1.994   2.500   5.369
 1874WAT     H2 5834   2.106   2.598   5.397
 1875WAT      O 5835   2.931   2.980   5.437
 1875WAT     H1 5836   2.980   3.026   5.505
 1875WAT     H2 5837   2.840   3.008   5.450
 1876WAT      O 5838   2.991   2.728   5.619
 1876WAT     H1 5839   3.059   2.661   5.607
 1876WAT     H2 5840   3.006   2.790   5.548
 1877WAT      O 5841   2.111   2.244   5.451
 1877WAT     H1 5842   2.092   2.181   5.382
 1877WAT     H2 5843   2.036   2.303   5.451
 1878WAT      O 5844   2.379   2.112   5.163
 1878WAT     H1 5845   2.337   2.117   5.078
 1878WAT     H2 5846   2.311   2.077   5.221
 1879WAT      O 5847   2.398   2.998   5.234
 1879WAT     H1 5848   2.458   3.067   5.205
 1879WAT     H2 5849   2.320   3.010   5.181
 1880WAT      O 5850   2.648   2.756   5.361
 1880WAT     H1 5851   2.671   2.715   5.444
 1880WAT     H2 5852   2.731   2.767   5.315
 1881WAT      O 5853   2.875   2.823   5.221
 1881WAT     H1 5854   2.848   2.880   5.149
 1881WAT     H2 5855   2.911   2.882   5.287
 1882WAT      O 5856   2.215   3.638   5.338
 1882WAT     H1 5857   2.137   3.686   5.310
 1882WAT     H2 5858   2.229   3.574   5.268
 1883WAT      O 5859   2.338   2.412   5.489
 1883WAT     H1 5860   2.371   2.378   5.572
 1883WAT     H2 5861   2.254   2.368   5.477
 1884WAT      O 5862   2.812   2.381   5.522
 1884WAT     H1 5863   2.743   2.321   5.493
 1884WAT     H2 5864   2.878   2.324   5.562
 1885WAT      O 5865   2.485   3.744   5.365
 1885WAT     H1 5866   2.476   3.833   5.398
 1885WAT     H2 5867   2.395   3.711   5.360
 1886WAT      O 5868   2.542   3.676   4.139
 1886WAT     H1 5869   2.633   3.705   4.134
 1886WAT     H2 5870   2.539   3.596   4.086
 1887WAT      O 5871   1.911   3.200   3.935
 1887WAT     H1 5872   1.945   3.257   4.005
 1887WAT     H2 5873   1.951   3.115   3.952
 1888WAT      O 5874   1.625   3.477   4.698
 1888WAT     H1 5875   1.665   3.393   4.673
 1888WAT     H2 5876   1.661   3.497   4.784
 1889WAT      O 5877   2.092   3.317   4.464
 1889WAT     H1 5878   2.065   3.284   4.550
 1889WAT     H2 5879   2.078   3.243   4.405
 1890WAT      O 5880   1.672   3.567   4.961
 1890WAT     H1 5881   1.631   3.581   5.046
 1890WAT     H2 5882   1.721   3.648   4.945
 1891WAT      O 5883   3.247   3.528   5.387
 1891WAT     H1 5884   3.174   3.532   5.325
 1891WAT     H2 5885   3.260   3.434   5.402
 1892WAT      O 5886   3.361   3.286   3.942
 1892WAT     H1 5887   3.267   3.295   3.959
 1892WAT     H2 5888   3.387   3.370   3.903
 1893WAT      O 5889   3.296   2.974   4.182
 1893WAT     H1 5890   3.375   3.028   4.179
 1893WAT     H2 5891   3.312   2.912   4.254
 1894WAT      O 5892   1.652   2.813   4.594
 1894WAT     H1 5893   1.591   2.789   4.524
 1894WAT     H2 5894   1.739   2.801   4.556
 1895WAT      O 5895   3.415   3.054   4.679
 1895WAT     H1 5896   3.448   2.973   4.641
 1895WAT     H2 5897   3.472   3.122   4.644
 1896WAT      O 5898   3.091   3.184   5.203
 1896WAT     H1 5899   3.023   3.239   5.242
 1896WAT     H2 5900   3.139   3.242   5.145
 1897WAT      O 5901   3.340   2.992   3.905
 1897WAT     H1 5902   3.344   3.085   3.883
 1897WAT     H2 5903   3.297   2.989   3.990
 1898WAT      O 5904   3.303   2.789   4.398
 1898WAT     H1 5905   3.265   2.708   4.362
 1898WAT     H2 5906   3.230   2.830   4.444
 1899WAT      O 5907   1.768   2.853   5.055
 1899WAT     H1 5908   1.785   2.834   5.147
 1899WAT     H2 5909   1.710   2.783   5.027
 1900WAT      O 5910   3.249   2.699   5.363
 1900WAT     H1 5911   3.230   2.677   5.272
 1900WAT     H2 5912   3.254   2.794   5.364
 1901WAT      O 5913   1.707   2.553   5.448
 1901WAT     H1 5914   1.621   2.534   5.487
 1901WAT     H2 5915   1.766   2.558   5.523
 1902WAT      O 5916   1.583   2.545   4.192
 1902WAT     H1 5917   1.489   2.555   4.200
 1902WAT     H2 5918   1.603   2.574   4.103
 1903WAT      O 5919   3.221   2.618   4.729
 1903WAT     H1 5920   3.267   2.566   4.663
 1903WAT     H2 5921   3.290   2.651   4.787
 1904WAT      O 5922   3.246   2.616   5.080
 1904WAT     H1 5923   3.150   2.609   5.082
 1904WAT     H2 5924   3.263   2.706   5.054
 1905WAT      O 5925   1.847   2.430   3.987
 1905WAT     H1 5926   1.893   2.388   3.915
 1905WAT     H2 5927   1.761   2.451   3.952
 1906WAT      O 5928   3.192   2.536   4.325
 1906WAT     H1 5929   3.233   2.505   4.406
 1906WAT     H2 5930   3.158   2.456   4.284
 1907WAT      O 5931   1.769   1.958   4.882
 1907WAT     H1 5932   1.843   1.922   4.833
 1907WAT     H2 5933   1.808   1.993   4.962
 1908WAT      O 5934   3.323   2.407   4.570
 1908WAT     H1 5935   3.311   2.376   4.660
 1908WAT     H2 5936   3.406   2.369   4.542
 1909WAT      O 5937   3.174   1.993   5.223
 1909WAT     H1 5938   3.209   2.081   5.236
 1909WAT     H2 5939   3.168   1.983   5.128
 1910WAT      O 5940   3.123   3.665   4.571
 1910WAT     H1 5941   3.182   3.646   4.498
 1910WAT     H2 5942   3.146   3.600   4.638
 1911WAT      O 5943   1.743   2.000   5.166
 1911WAT     H1 5944   1.703   2.044   5.241
 1911WAT     H2 5945   1.712   1.910   5.172
 1912WAT      O 5946   2.274   3.461   5.135
 1912WAT     H1 5947   2.248   3.482   5.046
 1912WAT     H2 5948   2.369   3.465   5.134
 1913WAT      O 5949   2.497   2.108   5.498
 1913WAT     H1 5950   2.481   2.146   5.585
 1913WAT     H2 5951   2.592   2.104   5.492
 1914WAT      O 5952   2.772   2.094   5.480
 1914WAT     H1 5953   2.817   2.111   5.397
 1914WAT     H2 5954   2.827   2.030   5.525
 1915WAT      O 5955   3.404   3.657   5.190
 1915WAT     H1 5956   3.339   3.709   5.142
 1915WAT     H2 5957   3.353   3.613   5.258
 1916WAT      O 5958   1.806   1.937   5.479
 1916WAT     H1 5959   1.869   1.912   5.412
 1916WAT     H2 5960   1.810   1.865   5.543
 1917WAT      O 5961   1.884   3.604   5.293
 1917WAT     H1 5962   1.817   3.584   5.358
 1917WAT     H2 5963   1.888   3.525   5.239
 1918WAT      O 5964   2.836   1.931   5.116
 1918WAT     H1 5965   2.761   1.966   5.068
 1918WAT     H2 5966   2.797   1.869   5.178
 1919WAT      O 5967   2.916   2.151   5.250
 1919WAT     H1 5968   2.895   2.074   5.197
 1919WAT     H2 5969   3.011   2.156   5.249
 1920WAT      O 5970   3.163   3.736   4.942
 1920WAT     H1 5971   3.128   3.812   4.895
 1920WAT     H2 5972   3.092   3.673   4.940
 1921WAT      O 5973   1.850   3.349   5.175
 1921WAT     H1 5974   1.769   3.298   5.176
 1921WAT     H2 5975   1.869   3.362   5.083
 1922WAT      O 5976   2.216   3.557   4.867
 1922WAT     H1 5977   2.258   3.498   4.805
 1922WAT     H2 5978   2.284   3.620   4.891
 1923WAT      O 5979   2.485   3.651   4.928
 1923WAT     H1 5980   2.528   3.628   4.846
 1923WAT     H2 5981   2.520   3.590   4.992
 1924WAT      O 5982   2.604   2.022   5.001
 1924WAT     H1 5983   2.535   2.068   5.049
 1924WAT     H2 5984   2.562   1.941   4.970
 1925WAT      O 5985   3.053   2.085   4.806
 1925WAT     H1 5986   3.114   2.085   4.732
 1925WAT     H2 5987   3.029   2.177   4.818
 1926WAT      O 5988   3.235   2.063   4.603
 1926WAT     H1 5989   3.230   1.970   4.582
 1926WAT     H2 5990   3.315   2.072   4.655
 1927WAT      O 5991   1.684   3.668   4.496
 1927WAT     H1 5992   1.667   3.608   4.569
 1927WAT     H2 5993   1.597   3.688   4.460
 1928WAT      O 5994   2.392   2.260   4.544
 1928WAT     H1 5995   2.317   2.212   4.508
 1928WAT     H2 5996   2.448   2.192   4.581
 1929WAT      O 5997   2.839   1.931   4.683
 1929WAT     H1 5998   2.910   1.982   4.722
 1929WAT     H2 5999   2.777   1.997   4.652
 1930WAT      O 6000   1.822   3.536   4.250
 1930WAT     H1 6001   1.791   3.586   4.175
 1930WAT     H2 6002   1.824   3.600   4.322
 1931WAT      O 6003   2.196   2.098   4.405
 1931WAT     H1 6004   2.148   2.017   4.425
 1931WAT     H2 6005   2.128   2.164   4.397
 1932WAT      O 6006   3.315   3.690   4.371
 1932WAT     H1 6007   3.319   3.611   4.318
 1932WAT     H2 6008   3.268   3.753   4.316
 1933WAT      O 6009   2.215   2.013   5.654
 1933WAT     H1 6010   2.183   2.068   5.583
 1933WAT     H2 6011   2.241   1.932   5.611
 1934WAT      O 6012   2.112   3.746   4.129
 1934WAT     H1 6013   2.173   3.704   4.068
 1934WAT     H2 6014   2.132   3.707   4.214
 1935WAT      O 6015   2.012   3.354   4.138
 1935WAT     H1 6016   1.952   3.410   4.188
 1935WAT     H2 6017   2.023   3.276   4.193
 1936WAT      O 6018   1.965   2.970   3.018
 1936WAT     H1 6019   1.896   2.924   3.066
 1936WAT     H2 6020   2.037   2.977   3.080
 1937WAT      O 6021   1.979   3.363   3.051
 1937WAT     H1 6022   2.014   3.279   3.020
 1937WAT     H2 6023   2.044   3.428   3.024
 1938WAT      O 6024   1.822   2.459   2.396
 1938WAT     H1 6025   1.729   2.481   2.392
 1938WAT     H2 6026   1.846   2.439   2.305
 1939WAT      O 6027   1.601   2.697   2.974
 1939WAT     H1 6028   1.673   2.635   2.986
 1939WAT     H2 6029   1.625   2.746   2.896
 1940WAT      O 6030   2.599   3.598   2.785
 1940WAT     H1 6031   2.537   3.635   2.722
 1940WAT     H2 6032   2.683   3.639   2.762
 1941WAT      O 6033   1.736   2.267   3.173
 1941WAT     H1 6034   1.728   2.175   3.196
 1941WAT     H2 6035   1.678   2.313   3.234
 1942WAT      O 6036   2.611   2.475   2.946
 1942WAT     H1 6037   2.669   2.402   2.966
 1942WAT     H2 6038   2.630   2.497   2.855
 1943WAT      O 6039   2.038   2.316   2.505
 1943WAT     H1 6040   2.059   2.398   2.549
 1943WAT     H2 6041   1.946   2.326   2.478
 1944WAT      O 6042   3.008   2.228   2.648
 1944WAT     H1 6043   3.088   2.177   2.662
 1944WAT     H2 6044   3.009   2.294   2.717
 1945WAT      O 6045   1.795   2.504   3.033
 1945WAT     H1 6046   1.877   2.525   3.078
 1945WAT     H2 6047   1.768   2.421   3.071
 1946WAT      O 6048   2.224   2.620   2.942
 1946WAT     H1 6049   2.292   2.663   2.994
 1946WAT     H2 6050   2.263   2.535   2.919
 1947WAT      O 6051   3.432   2.431   3.306
 1947WAT     H1 6052   3.360   2.477   3.263
 1947WAT     H2 6053   3.468   2.496   3.368
 1948WAT      O 6054   2.057   2.060   3.359
 1948WAT     H1 6055   2.057   2.130   3.294
 1948WAT     H2 6056   1.967   2.028   3.360
 1949WAT      O 6057   2.174   3.042   3.185
 1949WAT     H1 6058   2.147   3.101   3.255
 1949WAT     H2 6059   2.197   3.101   3.113
 1950WAT      O 6060   3.040   2.412   2.931
 1950WAT     H1 6061   2.954   2.431   2.968
 1950WAT     H2 6062   3.071   2.496   2.898
 1951WAT      O 6063   2.013   2.249   3.165
 1951WAT     H1 6064   2.047   2.337   3.146
 1951WAT     H2 6065   1.918   2.260   3.169
 1952WAT      O 6066   2.102   3.246   3.360
 1952WAT     H1 6067   2.157   3.318   3.329
 1952WAT     H2 6068   2.012   3.277   3.348
 1953WAT      O 6069   1.626   3.148   2.257
 1953WAT     H1 6070   1.594   3.198   2.183
 1953WAT     H2 6071   1.644   3.213   2.325
 1954WAT      O 6072   3.322   2.358   2.977
 1954WAT     H1 6073   3.228   2.373   2.981
 1954WAT     H2 6074   3.361   2.438   3.013
 1955WAT      O 6075   2.380   1.999   2.793
 1955WAT     H1 6076   2.411   1.940   2.725
 1955WAT     H2 6077   2.286   2.009   2.776
 1956WAT      O 6078   2.622   2.803   2.482
 1956WAT     H1 6079   2.527   2.813   2.493
 1956WAT     H2 6080   2.649   2.881   2.435
 1957WAT      O 6081   2.622   2.426   2.141
 1957WAT     H1 6082   2.538   2.443   2.182
 1957WAT     H2 6083   2.674   2.504   2.159
 1958WAT      O 6084   2.179   2.848   2.745
 1958WAT     H1 6085   2.149   2.775   2.690
 1958WAT     H2 6086   2.192   2.808   2.831
 1959WAT      O 6087   2.229   3.206   2.967
 1959WAT     H1 6088   2.190   3.168   2.888
 1959WAT     H2 6089   2.320   3.223   2.943
 1960WAT      O 6090   2.052   2.527   3.133
 1960WAT     H1 6091   2.103   2.554   3.057
 1960WAT     H2 6092   2.092   2.574   3.206
 1961WAT      O 6093   2.143   3.206   3.630
 1961WAT     H1 6094   2.053   3.226   3.656
 1961WAT     H2 6095   2.141   3.207   3.534
 1962WAT      O 6096   2.023   2.890   3.493
 1962WAT     H1 6097   2.003   2.983   3.503
 1962WAT     H2 6098   1.940   2.849   3.469
 1963WAT      O 6099   2.640   3.369   2.625
 1963WAT     H1 6100   2.692   3.425   2.568
 1963WAT     H2 6101   2.636   3.416   2.708
 1964WAT      O 6102   2.212   3.479   3.708
 1964WAT     H1 6103   2.202   3.525   3.625
 1964WAT     H2 6104   2.186   3.389   3.688
 1965WAT      O 6105   3.199   2.001   2.058
 1965WAT     H1 6106   3.183   2.005   2.152
 1965WAT     H2 6107   3.275   2.058   2.043
 1966WAT      O 6108   1.849   2.742   2.505
 1966WAT     H1 6109   1.845   2.815   2.444
 1966WAT     H2 6110   1.831   2.664   2.452
 1967WAT      O 6111   3.416   3.538   3.857
 1967WAT     H1 6112   3.446   3.606   3.918
 1967WAT     H2 6113   3.448   3.567   3.772
 1968WAT      O 6114   1.610   3.054   3.085
 1968WAT     H1 6115   1.607   3.071   2.991
 1968WAT     H2 6116   1.680   2.989   3.096
 1969WAT      O 6117   1.733   3.230   2.714
 1969WAT     H1 6118   1.711   3.256   2.624
 1969WAT     H2 6119   1.824   3.200   2.708
 1970WAT      O 6120   2.162   3.645   2.524
 1970WAT     H1 6121   2.140   3.552   2.524
 1970WAT     H2 6122   2.081   3.689   2.551
 1971WAT      O 6123   1.621   3.175   3.340
 1971WAT     H1 6124   1.620   3.129   3.256
 1971WAT     H2 6125   1.680   3.123   3.395
 1972WAT      O 6126   2.103   2.086   2.840
 1972WAT     H1 6127   2.059   2.166   2.812
 1972WAT     H2 6128   2.149   2.110   2.920
 1973WAT      O 6129   2.534   2.346   3.401
 1973WAT     H1 6130   2.478   2.380   3.471
 1973WAT     H2 6131   2.481   2.279   3.359
 1974WAT      O 6132   2.403   2.042   2.323
 1974WAT     H1 6133   2.336   2.041   2.392
 1974WAT     H2 6134   2.416   1.950   2.301
 1975WAT      O 6135   2.315   2.133   3.028
 1975WAT     H1 6136   2.328   2.224   3.002
 1975WAT     H2 6137   2.357   2.082   2.959
 1976WAT      O 6138   2.077   2.598   2.621
 1976WAT     H1 6139   2.044   2.558   2.702
 1976WAT     H2 6140   2.001   2.639   2.582
 1977WAT      O 6141   2.793   2.583   2.469
 1977WAT     H1 6142   2.741   2.663   2.469
 1977WAT     H2 6143   2.841   2.585   2.386
 1978WAT      O 6144   2.333   2.675   3.693
 1978WAT     H1 6145   2.297   2.595   3.655
 1978WAT     H2 6146   2.411   2.693   3.639
 1979WAT      O 6147   2.671   2.457   2.683
 1979WAT     H1 6148   2.709   2.500   2.606
 1979WAT     H2 6149   2.689   2.364   2.670
 1980WAT      O 6150   1.840   2.328   3.492
 1980WAT     H1 6151   1.790   2.406   3.517
 1980WAT     H2 6152   1.776   2.257   3.499
 1981WAT      O 6153   1.567   2.112   2.897
 1981WAT     H1 6154   1.541   2.176   2.963
 1981WAT     H2 6155   1.633   2.058   2.940
 1982WAT      O 6156   1.596   2.513   2.007
 1982WAT     H1 6157   1.587   2.607   2.026
 1982WAT     H2 6158   1.536   2.498   1.934
 1983WAT      O 6159   2.361   2.383   2.920
 1983WAT     H1 6160   2.367   2.347   2.831
 1983WAT     H2 6161   2.449   2.416   2.939
 1984WAT      O 6162   1.943   2.368   2.816
 1984WAT     H1 6163   1.908   2.418   2.891
 1984WAT     H2 6164   1.866   2.332   2.773
 1985WAT      O 6165   2.375   2.484   2.242
 1985WAT     H1 6166   2.368   2.485   2.337
 1985WAT     H2 6167   2.337   2.567   2.214
 1986WAT      O 6168   2.767   2.259   3.028
 1986WAT     H1 6169   2.773   2.300   3.114
 1986WAT     H2 6170   2.728   2.173   3.045
 1987WAT      O 6171   2.268   2.722   2.146
 1987WAT     H1 6172   2.220   2.668   2.083
 1987WAT     H2 6173   2.340   2.760   2.096
 1988WAT      O 6174   1.787   3.092   3.550
 1988WAT     H1 6175   1.743   3.037   3.614
 1988WAT     H2 6176   1.816   3.168   3.601
 1989WAT      O 6177   1.691   2.260   2.707
 1989WAT     H1 6178   1.652   2.217   2.783
 1989WAT     H2 6179   1.693   2.192   2.640
 1990WAT      O 6180   2.175   2.688   3.341
 1990WAT     H1 6181   2.134   2.773   3.361
 1990WAT     H2 6182   2.267   2.709   3.324
 1991WAT      O 6183   2.038   3.117   2.398
 1991WAT     H1 6184   1.960   3.062   2.388
 1991WAT     H2 6185   2.109   3.064   2.362
 1992WAT      O 6186   2.652   2.153   2.378
 1992WAT     H1 6187   2.567   2.111   2.366
 1992WAT     H2 6188   2.641   2.240   2.340
 1993WAT      O 6189   2.924   2.555   2.229
 1993WAT     H1 6190   2.988   2.618   2.196
 1993WAT     H2 6191   2.939   2.476   2.177
 1994WAT      O 6192   2.033   3.091   2.776
 1994WAT     H1 6193   2.080   3.016   2.740
 1994WAT     H2 6194   1.988   3.056   2.853
 1995WAT      O 6195   2.513   3.202   2.277
 1995WAT     H1 6196   2.562   3.274   2.236
 1995WAT     H2 6197   2.437   3.245   2.317
 1996WAT      O 6198   1.774   2.788   3.446
 1996WAT     H1 6199   1.728   2.842   3.511
 1996WAT     H2 6200   1.757   2.698   3.475
 1997WAT      O 6201   2.100   2.816   3.746
 1997WAT     H1 6202   2.075   2.845   3.658
 1997WAT     H2 6203   2.179   2.764   3.732
 1998WAT      O 6204   2.632   3.309   3.534
 1998WAT     H1 6205   2.634   3.217   3.508
 1998WAT     H2 6206   2.561   3.314   3.598
 1999WAT      O 6207   3.180   2.725   2.130
 1999WAT     H1 6208   3.101   2.771   2.101
 1999WAT     H2 6209   3.190   2.750   2.222
 2000WAT      O 6210   2.406   3.207   2.585
 2000WAT     H1 6211   2.489   3.254   2.584
 2000WAT     H2 6212   2.341   3.272   2.559
 2001WAT      O 6213   1.621   2.771   2.107
 2001WAT     H1 6214   1.710   2.786   2.139
 2001WAT     H2 6215   1.585   2.858   2.094
 2002WAT      O 6216   2.359   2.923   2.530
 2002WAT     H1 6217   2.389   3.012   2.549
 2002WAT     H2 6218   2.309   2.898   2.608
 2003WAT      O 6219   2.583   3.464   3.234
 2003WAT     H1 6220   2.616   3.487   3.321
 2003WAT     H2 6221   2.623   3.379   3.215
 2004WAT      O 6222   1.947   1.945   2.572
 2004WAT     H1 6223   1.913   1.930   2.661
 2004WAT     H2 6224   1.870   1.972   2.521
 2005WAT      O 6225   1.681   3.708   2.157
 2005WAT     H1 6226   1.714   3.778   2.101
 2005WAT     H2 6227   1.655   3.751   2.238
 2006WAT      O 6228   1.646   2.121   3.516
 2006WAT     H1 6229   1.560   2.143   3.553
 2006WAT     H2 6230   1.674   2.044   3.564
 2007WAT      O 6231   1.666   3.524   3.596
 2007WAT     H1 6232   1.672   3.429   3.592
 2007WAT     H2 6233   1.587   3.545   3.547
 2008WAT      O 6234   2.463   3.345   3.750
 2008WAT     H1 6235   2.423   3.277   3.804
 2008WAT     H2 6236   2.393   3.410   3.738
 2009WAT      O 6237   2.279   3.434   2.250
 2009WAT     H1 6238   2.278   3.505   2.186
 2009WAT     H2 6239   2.189   3.402   2.251
 2010WAT      O 6240   1.825   2.964   2.318
 2010WAT     H1 6241   1.756   3.027   2.297
 2010WAT     H2 6242   1.872   2.950   2.236
 2011WAT      O 6243   2.783   2.361   3.278
 2011WAT     H1 6244   2.823   2.299   3.339
 2011WAT     H2 6245   2.700   2.384   3.320
 2012WAT      O 6246   3.124   2.265   2.374
 2012WAT     H1 6247   3.067   2.283   2.299
 2012WAT     H2 6248   3.066   2.273   2.450
 2013WAT      O 6249   2.558   3.442   2.117
 2013WAT     H1 6250   2.568   3.415   2.026
 2013WAT     H2 6251   2.467   3.418   2.139
 2014WAT      O 6252   2.317   2.489   2.504
 2014WAT     H1 6253   2.249   2.539   2.550
 2014WAT     H2 6254   2.356   2.434   2.572
 2015WAT      O 6255   2.731   2.170   2.651
 2015WAT     H1 6256   2.706   2.161   2.559
 2015WAT     H2 6257   2.826   2.184   2.649
 2016WAT      O 6258   2.430   3.694   2.581
 2016WAT     H1 6259   2.466   3.688   2.492
 2016WAT     H2 6260   2.336   3.678   2.569
 2017WAT      O 6261   2.134   2.331   2.244
 2017WAT     H1 6262   2.222   2.366   2.232
 2017WAT     H2 6263   2.115   2.346   2.337
 2018WAT      O 6264   2.023   2.955   2.099
 2018WAT     H1 6265   2.103   2.955   2.152
 2018WAT     H2 6266   2.047   2.908   2.019
 2019WAT      O 6267   1.896   2.699   2.176
 2019WAT     H1 6268   1.898   2.603   2.170
 2019WAT     H2 6269   1.988   2.725   2.178
 2020WAT      O 6270   1.982   3.722   2.880
 2020WAT     H1 6271   2.049   3.660   2.909
 2020WAT     H2 6272   2.031   3.803   2.861
 2021WAT      O 6273   1.659   3.326   2.465
 2021WAT     H1 6274   1.569   3.358   2.462
 2021WAT     H2 6275   1.713   3.402   2.442
 2022WAT      O 6276   1.887   3.624   3.801
 2022WAT     H1 6277   1.966   3.660   3.839
 2022WAT     H2 6278   1.833   3.599   3.876
 2023WAT      O 6279   2.281   3.624   2.055
 2023WAT     H1 6280   2.358   3.669   2.022
 2023WAT     H2 6281   2.246   3.577   1.979
 2024WAT      O 6282   2.780   3.235   3.794
 2024WAT     H1 6283   2.721   3.259   3.723
 2024WAT     H2 6284   2.732   3.171   3.846
 2025WAT      O 6285   1.659   2.892   3.691
 2025WAT     H1 6286   1.704   2.822   3.739
 2025WAT     H2 6287   1.578   2.906   3.740
 2026WAT      O 6288   2.338   3.153   2.025
 2026WAT     H1 6289   2.348   3.108   2.109
 2026WAT     H2 6290   2.339   3.082   1.960
 2027WAT      O 6291   1.848   2.689   3.769
 2027WAT     H1 6292   1.849   2.684   3.865
 2027WAT     H2 6293   1.935   2.720   3.746
 2028WAT      O 6294   2.227   2.947   2.291
 2028WAT     H1 6295   2.279   2.944   2.371
 2028WAT     H2 6296   2.248   2.865   2.246
 2029WAT      O 6297   2.072   2.545   3.566
 2029WAT     H1 6298   2.005   2.487   3.529
 2029WAT     H2 6299   2.101   2.598   3.492
 2030WAT      O 6300   2.487   2.848   2.032
 2030WAT     H1 6301   2.549   2.786   1.994
 2030WAT     H2 6302   2.542   2.916   2.070
 2031WAT      O 6303   2.369   2.114   3.294
 2031WAT     H1 6304   2.340   2.119   3.203
 2031WAT     H2 6305   2.298   2.070   3.340
 2032WAT      O 6306   2.122   2.552   1.991
 2032WAT     H1 6307   2.097   2.463   2.019
 2032WAT     H2 6308   2.101   2.554   1.898
 2033WAT      O 6309   2.210   3.635   3.464
 2033WAT     H1 6310   2.136   3.686   3.433
 2033WAT     H2 6311   2.228   3.573   3.393
 2034WAT      O 6312   2.861   2.038   2.232
 2034WAT     H1 6313   2.884   1.955   2.274
 2034WAT     H2 6314   2.792   2.075   2.286
 2035WAT      O 6315   2.012   2.283   1.973
 2035WAT     H1 6316   2.045   2.258   1.887
 2035WAT     H2 6317   2.073   2.244   2.035
 2036WAT      O 6318   2.482   3.742   3.475
 2036WAT     H1 6319   2.480   3.829   3.515
 2036WAT     H2 6320   2.392   3.710   3.483
 2037WAT      O 6321   2.331   2.167   2.077
 2037WAT     H1 6322   2.285   2.097   2.030
 2037WAT     H2 6323   2.350   2.129   2.163
 2038WAT      O 6324   2.542   3.673   2.269
 2038WAT     H1 6325   2.626   3.714   2.246
 2038WAT     H2 6326   2.538   3.596   2.212
 2039WAT      O 6327   1.910   3.201   2.058
 2039WAT     H1 6328   1.948   3.255   2.127
 2039WAT     H2 6329   1.950   3.115   2.070
 2040WAT      O 6330   1.625   3.477   2.821
 2040WAT     H1 6331   1.665   3.393   2.797
 2040WAT     H2 6332   1.661   3.497   2.907
 2041WAT      O 6333   2.093   3.317   2.586
 2041WAT     H1 6334   2.063   3.283   2.670
 2041WAT     H2 6335   2.080   3.244   2.525
 2042WAT      O 6336   1.674   3.567   3.084
 2042WAT     H1 6337   1.630   3.581   3.168
 2042WAT     H2 6338   1.719   3.650   3.067
 2043WAT      O 6339   1.653   2.812   2.714
 2043WAT     H1 6340   1.588   2.790   2.648
 2043WAT     H2 6341   1.737   2.800   2.670
 2044WAT      O 6342   2.972   2.288   2.145
 2044WAT     H1 6343   2.994   2.275   2.053
 2044WAT     H2 6344   2.917   2.212   2.167
 2045WAT      O 6345   1.771   2.852   3.177
 2045WAT     H1 6346   1.783   2.836   3.271
 2045WAT     H2 6347   1.707   2.787   3.149
 2046WAT      O 6348   1.710   2.551   3.573
 2046WAT     H1 6349   1.622   2.539   3.609
 2046WAT     H2 6350   1.761   2.586   3.646
 2047WAT      O 6351   1.578   2.532   2.306
 2047WAT     H1 6352   1.490   2.568   2.318
 2047WAT     H2 6353   1.611   2.577   2.228
 2048WAT      O 6354   3.228   2.612   2.863
 2048WAT     H1 6355   3.265   2.571   2.784
 2048WAT     H2 6356   3.304   2.653   2.906
 2049WAT      O 6357   3.248   2.619   3.210
 2049WAT     H1 6358   3.153   2.616   3.196
 2049WAT     H2 6359   3.277   2.697   3.163
 2050WAT      O 6360   1.839   2.439   2.118
 2050WAT     H1 6361   1.894   2.381   2.066
 2050WAT     H2 6362   1.759   2.449   2.067
 2051WAT      O 6363   1.788   2.050   2.007
 2051WAT     H1 6364   1.859   2.091   2.056
 2051WAT     H2 6365   1.825   2.031   1.921
 2052WAT      O 6366   3.211   2.535   2.434
 2052WAT     H1 6367   3.229   2.513   2.525
 2052WAT     H2 6368   3.159   2.461   2.401
 2053WAT      O 6369   1.771   1.965   3.005
 2053WAT     H1 6370   1.840   1.922   2.955
 2053WAT     H2 6371   1.813   1.990   3.087
 2054WAT      O 6372   3.324   2.405   2.694
 2054WAT     H1 6373   3.311   2.376   2.784
 2054WAT     H2 6374   3.407   2.366   2.667
 2055WAT      O 6375   3.409   2.175   2.023
 2055WAT     H1 6376   3.498   2.148   2.003
 2055WAT     H2 6377   3.413   2.212   2.111
 2056WAT      O 6378   3.416   2.259   2.287
 2056WAT     H1 6379   3.330   2.257   2.330
 2056WAT     H2 6380   3.440   2.352   2.289
 2057WAT      O 6381   1.744   1.994   3.290
 2057WAT     H1 6382   1.705   2.044   3.362
 2057WAT     H2 6383   1.695   1.912   3.289
 2058WAT      O 6384   1.894   3.310   3.695
 2058WAT     H1 6385   1.893   3.275   3.784
 2058WAT     H2 6386   1.903   3.405   3.707
 2059WAT      O 6387   2.274   3.461   3.257
 2059WAT     H1 6388   2.247   3.486   3.169
 2059WAT     H2 6389   2.369   3.472   3.257
 2060WAT      O 6390   1.883   3.603   3.418
 2060WAT     H1 6391   1.818   3.585   3.486
 2060WAT     H2 6392   1.885   3.524   3.364
 2061WAT      O 6393   1.851   3.350   3.299
 2061WAT     H1 6394   1.770   3.299   3.302
 2061WAT     H2 6395   1.866   3.364   3.205
 2062WAT      O 6396   2.216   3.555   2.991
 2062WAT     H1 6397   2.256   3.505   2.920
 2062WAT     H2 6398   2.282   3.620   3.016
 2063WAT      O 6399   2.479   3.645   3.052
 2063WAT     H1 6400   2.528   3.631   2.970
 2063WAT     H2 6401   2.525   3.591   3.116
 2064WAT      O 6402   2.609   2.026   3.124
 2064WAT     H1 6403   2.536   2.070   3.166
 2064WAT     H2 6404   2.573   1.942   3.095
 2065WAT      O 6405   3.052   2.084   2.928
 2065WAT     H1 6406   3.114   2.085   2.856
 2065WAT     H2 6407   3.029   2.176   2.942
 2066WAT      O 6408   3.234   2.063   2.726
 2066WAT     H1 6409   3.231   1.970   2.703
 2066WAT     H2 6410   3.315   2.073   2.777
 2067WAT      O 6411   1.684   3.668   2.619
 2067WAT     H1 6412   1.666   3.608   2.692
 2067WAT     H2 6413   1.598   3.688   2.583
 2068WAT      O 6414   1.746   2.057   2.373
 2068WAT     H1 6415   1.823   2.073   2.319
 2068WAT     H2 6416   1.686   2.128   2.351
 2069WAT      O 6417   2.379   2.264   2.675
 2069WAT     H1 6418   2.315   2.213   2.625
 2069WAT     H2 6419   2.448   2.202   2.697
 2070WAT      O 6420   2.841   1.931   2.805
 2070WAT     H1 6421   2.910   1.984   2.845
 2070WAT     H2 6422   2.776   1.995   2.774
 2071WAT      O 6423   3.162   1.981   2.333
 2071WAT     H1 6424   3.159   2.073   2.359
 2071WAT     H2 6425   3.077   1.945   2.360
 2072WAT      O 6426   1.822   3.536   2.373
 2072WAT     H1 6427   1.791   3.585   2.297
 2072WAT     H2 6428   1.823   3.600   2.444
 2073WAT      O 6429   1.974   2.103   2.224
 2073WAT     H1 6430   2.028   2.024   2.233
 2073WAT     H2 6431   2.035   2.176   2.238
 2074WAT      O 6432   2.198   2.089   2.526
 2074WAT     H1 6433   2.134   2.021   2.546
 2074WAT     H2 6434   2.145   2.168   2.512
 2075WAT      O 6435   2.490   3.745   3.802
 2075WAT     H1 6436   2.582   3.716   3.799
 2075WAT     H2 6437   2.489   3.825   3.749
 2076WAT      O 6438   2.113   3.746   2.252
 2076WAT     H1 6439   2.173   3.704   2.191
 2076WAT     H2 6440   2.134   3.706   2.337
 2077WAT      O 6441   2.013   3.352   2.262
 2077WAT     H1 6442   1.952   3.407   2.311
 2077WAT     H2 6443   2.024   3.274   2.317
 2078WAT      O 6444   2.758   2.751   0.862
 2078WAT     H1 6445   2.745   2.657   0.845
 2078WAT     H2 6446   2.713   2.794   0.789
 2079WAT      O 6447   2.576   2.928   1.050
 2079WAT     H1 6448   2.506   2.875   1.089
 2079WAT     H2 6449   2.643   2.865   1.024
 2080WAT      O 6450   1.967   2.971   1.143
 2080WAT     H1 6451   1.897   2.925   1.189
 2080WAT     H2 6452   2.040   2.973   1.205
 2081WAT      O 6453   2.977   3.373   0.925
 2081WAT     H1 6454   2.931   3.294   0.955
 2081WAT     H2 6455   3.055   3.378   0.980
 2082WAT      O 6456   1.979   3.363   1.172
 2082WAT     H1 6457   2.016   3.280   1.142
 2082WAT     H2 6458   2.044   3.428   1.147
 2083WAT      O 6459   1.821   2.464   0.518
 2083WAT     H1 6460   1.727   2.480   0.512
 2083WAT     H2 6461   1.846   2.441   0.428
 2084WAT      O 6462   1.601   2.697   1.097
 2084WAT     H1 6463   1.674   2.635   1.109
 2084WAT     H2 6464   1.625   2.746   1.019
 2085WAT      O 6465   2.597   3.601   0.909
 2085WAT     H1 6466   2.535   3.634   0.844
 2085WAT     H2 6467   2.683   3.625   0.875
 2086WAT      O 6468   2.504   3.192   1.062
 2086WAT     H1 6469   2.524   3.099   1.049
 2086WAT     H2 6470   2.574   3.224   1.119
 2087WAT      O 6471   1.736   2.267   1.296
 2087WAT     H1 6472   1.728   2.175   1.322
 2087WAT     H2 6473   1.677   2.313   1.356
 2088WAT      O 6474   2.619   2.484   1.070
 2088WAT     H1 6475   2.668   2.405   1.092
 2088WAT     H2 6476   2.632   2.496   0.976
 2089WAT      O 6477   2.040   2.318   0.626
 2089WAT     H1 6478   2.056   2.400   0.672
 2089WAT     H2 6479   1.948   2.321   0.602
 2090WAT      O 6480   3.009   2.229   0.770
 2090WAT     H1 6481   3.087   2.176   0.783
 2090WAT     H2 6482   3.011   2.292   0.843
 2091WAT      O 6483   1.797   2.504   1.155
 2091WAT     H1 6484   1.878   2.525   1.201
 2091WAT     H2 6485   1.768   2.421   1.194
 2092WAT      O 6486   2.225   2.622   1.063
 2092WAT     H1 6487   2.288   2.671   1.116
 2092WAT     H2 6488   2.268   2.538   1.048
 2093WAT      O 6489   3.419   2.429   1.432
 2093WAT     H1 6490   3.362   2.488   1.383
 2093WAT     H2 6491   3.465   2.487   1.493
 2094WAT      O 6492   2.050   2.068   1.489
 2094WAT     H1 6493   2.054   2.131   1.417
 2094WAT     H2 6494   1.964   2.026   1.478
 2095WAT      O 6495   2.690   3.090   0.632
 2095WAT     H1 6496   2.624   3.122   0.571
 2095WAT     H2 6497   2.720   3.168   0.678
 2096WAT      O 6498   2.186   3.046   1.311
 2096WAT     H1 6499   2.143   3.104   1.374
 2096WAT     H2 6500   2.201   3.102   1.235
 2097WAT      O 6501   3.038   2.410   1.050
 2097WAT     H1 6502   2.956   2.432   1.094
 2097WAT     H2 6503   3.073   2.495   1.022
 2098WAT      O 6504   2.014   2.249   1.289
 2098WAT     H1 6505   2.047   2.336   1.270
 2098WAT     H2 6506   1.919   2.259   1.291
 2099WAT      O 6507   2.101   3.247   1.480
 2099WAT     H1 6508   2.156   3.319   1.450
 2099WAT     H2 6509   2.011   3.279   1.468
 2100WAT      O 6510   1.621   3.147   0.383
 2100WAT     H1 6511   1.606   3.200   0.305
 2100WAT     H2 6512   1.642   3.211   0.451
 2101WAT      O 6513   3.322   2.363   1.097
 2101WAT     H1 6514   3.228   2.373   1.108
 2101WAT     H2 6515   3.360   2.439   1.141
 2102WAT      O 6516   2.379   1.999   0.916
 2102WAT     H1 6517   2.412   1.940   0.847
 2102WAT     H2 6518   2.287   2.010   0.896
 2103WAT      O 6519   2.939   3.566   1.147
 2103WAT     H1 6520   2.935   3.534   1.057
 2103WAT     H2 6521   2.882   3.643   1.147
 2104WAT      O 6522   3.071   3.236   0.657
 2104WAT     H1 6523   3.058   3.142   0.668
 2104WAT     H2 6524   3.051   3.273   0.743
 2105WAT      O 6525   2.887   3.067   1.278
 2105WAT     H1 6526   2.926   3.035   1.196
 2105WAT     H2 6527   2.963   3.086   1.334
 2106WAT      O 6528   2.625   2.807   0.613
 2106WAT     H1 6529   2.529   2.811   0.615
 2106WAT     H2 6530   2.652   2.897   0.591
 2107WAT      O 6531   2.626   2.417   0.290
 2107WAT     H1 6532   2.534   2.434   0.309
 2107WAT     H2 6533   2.659   2.498   0.253
 2108WAT      O 6534   3.260   2.895   1.291
 2108WAT     H1 6535   3.195   2.922   1.227
 2108WAT     H2 6536   3.339   2.945   1.268
 2109WAT      O 6537   3.024   2.962   0.653
 2109WAT     H1 6538   2.960   2.929   0.589
 2109WAT     H2 6539   3.020   2.900   0.725
 2110WAT      O 6540   2.959   2.590   1.390
 2110WAT     H1 6541   2.905   2.662   1.359
 2110WAT     H2 6542   2.905   2.512   1.376
 2111WAT      O 6543   2.181   2.847   0.867
 2111WAT     H1 6544   2.148   2.774   0.815
 2111WAT     H2 6545   2.194   2.811   0.954
 2112WAT      O 6546   2.230   3.208   1.091
 2112WAT     H1 6547   2.199   3.170   1.008
 2112WAT     H2 6548   2.324   3.217   1.079
 2113WAT      O 6549   2.054   2.526   1.256
 2113WAT     H1 6550   2.104   2.555   1.179
 2113WAT     H2 6551   2.091   2.575   1.329
 2114WAT      O 6552   2.143   3.201   1.744
 2114WAT     H1 6553   2.056   3.221   1.780
 2114WAT     H2 6554   2.132   3.211   1.649
 2115WAT      O 6555   2.845   2.888   0.356
 2115WAT     H1 6556   2.881   2.801   0.336
 2115WAT     H2 6557   2.920   2.947   0.347
 2116WAT      O 6558   2.025   2.892   1.606
 2116WAT     H1 6559   2.002   2.982   1.628
 2116WAT     H2 6560   1.941   2.850   1.587
 2117WAT      O 6561   2.649   3.368   0.740
 2117WAT     H1 6562   2.701   3.437   0.701
 2117WAT     H2 6563   2.634   3.397   0.830
 2118WAT      O 6564   2.211   3.479   1.831
 2118WAT     H1 6565   2.202   3.525   1.747
 2118WAT     H2 6566   2.187   3.389   1.811
 2119WAT      O 6567   3.198   2.013   0.177
 2119WAT     H1 6568   3.175   2.004   0.270
 2119WAT     H2 6569   3.279   2.064   0.178
 2120WAT      O 6570   1.850   2.741   0.629
 2120WAT     H1 6571   1.844   2.814   0.567
 2120WAT     H2 6572   1.831   2.664   0.576
 2121WAT      O 6573   1.610   3.054   1.208
 2121WAT     H1 6574   1.608   3.070   1.114
 2121WAT     H2 6575   1.680   2.989   1.219
 2122WAT      O 6576   1.733   3.229   0.836
 2122WAT     H1 6577   1.712   3.256   0.747
 2122WAT     H2 6578   1.824   3.200   0.831
 2123WAT      O 6579   2.723   3.637   1.542
 2123WAT     H1 6580   2.771   3.658   1.623
 2123WAT     H2 6581   2.637   3.677   1.554
 2124WAT      O 6582   2.915   3.677   0.479
 2124WAT     H1 6583   2.897   3.647   0.568
 2124WAT     H2 6584   2.915   3.597   0.427
 2125WAT      O 6585   2.160   3.645   0.643
 2125WAT     H1 6586   2.139   3.552   0.648
 2125WAT     H2 6587   2.081   3.689   0.674
 2126WAT      O 6588   2.890   3.445   0.319
 2126WAT     H1 6589   2.819   3.408   0.267
 2126WAT     H2 6590   2.960   3.379   0.314
 2127WAT      O 6591   2.847   3.583   0.745
 2127WAT     H1 6592   2.902   3.514   0.781
 2127WAT     H2 6593   2.875   3.662   0.790
 2128WAT      O 6594   3.322   2.483   1.766
 2128WAT     H1 6595   3.247   2.530   1.728
 2128WAT     H2 6596   3.291   2.393   1.777
 2129WAT      O 6597   1.621   3.175   1.462
 2129WAT     H1 6598   1.621   3.129   1.379
 2129WAT     H2 6599   1.679   3.124   1.518
 2130WAT      O 6600   2.102   2.085   0.963
 2130WAT     H1 6601   2.058   2.165   0.935
 2130WAT     H2 6602   2.149   2.111   1.042
 2131WAT      O 6603   2.522   2.366   1.520
 2131WAT     H1 6604   2.468   2.385   1.597
 2131WAT     H2 6605   2.486   2.285   1.485
 2132WAT      O 6606   3.044   2.486   1.629
 2132WAT     H1 6607   2.964   2.454   1.671
 2132WAT     H2 6608   3.015   2.517   1.544
 2133WAT      O 6609   2.415   2.039   0.468
 2133WAT     H1 6610   2.334   2.045   0.518
 2133WAT     H2 6611   2.407   1.957   0.419
 2134WAT      O 6612   2.311   2.132   1.148
 2134WAT     H1 6613   2.325   2.224   1.125
 2134WAT     H2 6614   2.355   2.083   1.079
 2135WAT      O 6615   2.077   2.596   0.742
 2135WAT     H1 6616   2.045   2.559   0.825
 2135WAT     H2 6617   2.001   2.639   0.704
 2136WAT      O 6618   2.797   2.590   0.591
 2136WAT     H1 6619   2.739   2.666   0.583
 2136WAT     H2 6620   2.844   2.586   0.508
 2137WAT      O 6621   2.316   2.683   1.788
 2137WAT     H1 6622   2.320   2.588   1.774
 2137WAT     H2 6623   2.406   2.713   1.772
 2138WAT      O 6624   2.682   2.463   0.807
 2138WAT     H1 6625   2.711   2.494   0.722
 2138WAT     H2 6626   2.686   2.367   0.800
 2139WAT      O 6627   1.841   2.327   1.617
 2139WAT     H1 6628   1.792   2.405   1.641
 2139WAT     H2 6629   1.776   2.256   1.622
 2140WAT      O 6630   2.490   2.322   1.928
 2140WAT     H1 6631   2.428   2.281   1.988
 2140WAT     H2 6632   2.557   2.360   1.985
 2141WAT      O 6633   1.566   2.112   1.019
 2141WAT     H1 6634   1.541   2.176   1.085
 2141WAT     H2 6635   1.633   2.058   1.063
 2142WAT      O 6636   2.722   2.700   1.227
 2142WAT     H1 6637   2.650   2.762   1.237
 2142WAT     H2 6638   2.685   2.629   1.174
 2143WAT      O 6639   2.364   2.383   1.044
 2143WAT     H1 6640   2.369   2.348   0.955
 2143WAT     H2 6641   2.452   2.417   1.062
 2144WAT      O 6642   1.943   2.367   0.939
 2144WAT     H1 6643   1.910   2.417   1.013
 2144WAT     H2 6644   1.865   2.332   0.896
 2145WAT      O 6645   2.371   2.484   0.364
 2145WAT     H1 6646   2.370   2.481   0.460
 2145WAT     H2 6647   2.335   2.569   0.341
 2146WAT      O 6648   2.763   2.264   1.152
 2146WAT     H1 6649   2.771   2.298   1.241
 2146WAT     H2 6650   2.731   2.174   1.164
 2147WAT      O 6651   2.267   2.720   0.267
 2147WAT     H1 6652   2.218   2.675   0.198
 2147WAT     H2 6653   2.343   2.757   0.222
 2148WAT      O 6654   3.104   2.002   1.733
 2148WAT     H1 6655   3.130   1.922   1.779
 2148WAT     H2 6656   3.118   1.982   1.641
 2149WAT      O 6657   1.786   3.093   1.673
 2149WAT     H1 6658   1.743   3.036   1.737
 2149WAT     H2 6659   1.816   3.168   1.724
 2150WAT      O 6660   2.401   2.790   1.219
 2150WAT     H1 6661   2.424   2.733   1.292
 2150WAT     H2 6662   2.362   2.867   1.260
 2151WAT      O 6663   1.692   2.260   0.830
 2151WAT     H1 6664   1.652   2.217   0.906
 2151WAT     H2 6665   1.691   2.192   0.762
 2152WAT      O 6666   2.172   2.688   1.453
 2152WAT     H1 6667   2.140   2.771   1.489
 2152WAT     H2 6668   2.267   2.693   1.462
 2153WAT      O 6669   2.036   3.118   0.521
 2153WAT     H1 6670   1.958   3.063   0.513
 2153WAT     H2 6671   2.107   3.064   0.485
 2154WAT      O 6672   3.106   3.000   1.088
 2154WAT     H1 6673   3.175   3.055   1.051
 2154WAT     H2 6674   3.079   2.943   1.016
 2155WAT      O 6675   2.653   2.158   0.504
 2155WAT     H1 6676   2.569   2.113   0.494
 2155WAT     H2 6677   2.642   2.240   0.457
 2156WAT      O 6678   2.921   2.587   0.341
 2156WAT     H1 6679   3.009   2.619   0.321
 2156WAT     H2 6680   2.921   2.497   0.308
 2157WAT      O 6681   2.030   3.089   0.896
 2157WAT     H1 6682   2.080   3.014   0.863
 2157WAT     H2 6683   1.988   3.057   0.976
 2158WAT      O 6684   2.526   3.211   0.412
 2158WAT     H1 6685   2.542   3.285   0.355
 2158WAT     H2 6686   2.438   3.226   0.448
 2159WAT      O 6687   1.773   2.788   1.569
 2159WAT     H1 6688   1.729   2.842   1.634
 2159WAT     H2 6689   1.757   2.698   1.599
 2160WAT      O 6690   2.093   2.822   1.862
 2160WAT     H1 6691   2.076   2.849   1.772
 2160WAT     H2 6692   2.176   2.775   1.857
 2161WAT      O 6693   2.636   3.296   1.656
 2161WAT     H1 6694   2.621   3.202   1.647
 2161WAT     H2 6695   2.576   3.323   1.727
 2162WAT      O 6696   3.154   2.723   0.280
 2162WAT     H1 6697   3.143   2.767   0.195
 2162WAT     H2 6698   3.215   2.779   0.328
 2163WAT      O 6699   3.266   3.403   0.548
 2163WAT     H1 6700   3.197   3.347   0.584
 2163WAT     H2 6701   3.226   3.446   0.473
 2164WAT      O 6702   2.819   3.133   0.942
 2164WAT     H1 6703   2.840   3.074   0.869
 2164WAT     H2 6704   2.727   3.115   0.962
 2165WAT      O 6705   2.407   3.208   0.689
 2165WAT     H1 6706   2.484   3.261   0.710
 2165WAT     H2 6707   2.334   3.271   0.689
 2166WAT      O 6708   1.624   2.767   0.239
 2166WAT     H1 6709   1.718   2.777   0.255
 2166WAT     H2 6710   1.591   2.857   0.236
 2167WAT      O 6711   2.363   2.920   0.655
 2167WAT     H1 6712   2.389   3.011   0.672
 2167WAT     H2 6713   2.309   2.896   0.730
 2168WAT      O 6714   2.566   3.468   1.363
 2168WAT     H1 6715   2.622   3.501   1.433
 2168WAT     H2 6716   2.610   3.389   1.332
 2169WAT      O 6717   1.947   1.945   0.695
 2169WAT     H1 6718   1.911   1.930   0.783
 2169WAT     H2 6719   1.871   1.971   0.642
 2170WAT      O 6720   2.710   3.270   1.233
 2170WAT     H1 6721   2.763   3.193   1.252
 2170WAT     H2 6722   2.774   3.338   1.212
 2171WAT      O 6723   1.678   3.700   0.308
 2171WAT     H1 6724   1.707   3.747   0.230
 2171WAT     H2 6725   1.663   3.768   0.373
 2172WAT      O 6726   1.641   2.124   1.636
 2172WAT     H1 6727   1.563   2.139   1.690
 2172WAT     H2 6728   1.691   2.057   1.683
 2173WAT      O 6729   3.048   3.079   0.378
 2173WAT     H1 6730   3.029   3.132   0.455
 2173WAT     H2 6731   3.135   3.043   0.395
 2174WAT      O 6732   1.666   3.524   1.719
 2174WAT     H1 6733   1.673   3.429   1.714
 2174WAT     H2 6734   1.587   3.545   1.669
 2175WAT      O 6735   2.463   3.347   1.875
 2175WAT     H1 6736   2.424   3.274   1.923
 2175WAT     H2 6737   2.391   3.409   1.863
 2176WAT      O 6738   2.276   3.439   0.371
 2176WAT     H1 6739   2.271   3.496   0.294
 2176WAT     H2 6740   2.187   3.404   0.380
 2177WAT      O 6741   1.822   2.965   0.446
 2177WAT     H1 6742   1.752   3.028   0.430
 2177WAT     H2 6743   1.861   2.951   0.360
 2178WAT      O 6744   2.783   2.372   1.406
 2178WAT     H1 6745   2.828   2.298   1.447
 2178WAT     H2 6746   2.698   2.376   1.450
 2179WAT      O 6747   3.126   2.271   0.497
 2179WAT     H1 6748   3.067   2.282   0.422
 2179WAT     H2 6749   3.067   2.271   0.573
 2180WAT      O 6750   2.321   2.493   0.629
 2180WAT     H1 6751   2.249   2.539   0.672
 2180WAT     H2 6752   2.353   2.431   0.695
 2181WAT      O 6753   2.472   2.642   1.438
 2181WAT     H1 6754   2.533   2.683   1.499
 2181WAT     H2 6755   2.488   2.548   1.447
 2182WAT      O 6756   2.730   2.177   0.774
 2182WAT     H1 6757   2.703   2.163   0.683
 2182WAT     H2 6758   2.825   2.185   0.771
 2183WAT      O 6759   2.427   3.693   0.706
 2183WAT     H1 6760   2.466   3.694   0.619
 2183WAT     H2 6761   2.334   3.678   0.691
 2184WAT      O 6762   2.132   2.335   0.365
 2184WAT     H1 6763   2.221   2.368   0.355
 2184WAT     H2 6764   2.113   2.342   0.458
 2185WAT      O 6765   3.209   2.263   1.518
 2185WAT     H1 6766   3.153   2.331   1.555
 2185WAT     H2 6767   3.287   2.309   1.487
 2186WAT      O 6768   3.029   2.802   0.873
 2186WAT     H1 6769   2.938   2.775   0.879
 2186WAT     H2 6770   3.079   2.727   0.904
 2187WAT      O 6771   1.903   2.714   0.294
 2187WAT     H1 6772   1.890   2.620   0.281
 2187WAT     H2 6773   1.997   2.724   0.308
 2188WAT      O 6774   3.233   3.505   1.014
 2188WAT     H1 6775   3.237   3.577   1.077
 2188WAT     H2 6776   3.324   3.488   0.991
 2189WAT      O 6777   1.983   3.722   1.002
 2189WAT     H1 6778   2.050   3.660   1.032
 2189WAT     H2 6779   2.031   3.802   0.984
 2190WAT      O 6780   1.660   3.326   0.587
 2190WAT     H1 6781   1.570   3.359   0.586
 2190WAT     H2 6782   1.714   3.402   0.565
 2191WAT      O 6783   1.886   3.625   1.923
 2191WAT     H1 6784   1.967   3.660   1.961
 2191WAT     H2 6785   1.833   3.599   1.999
 2192WAT      O 6786   3.188   3.550   0.327
 2192WAT     H1 6787   3.176   3.520   0.236
 2192WAT     H2 6788   3.181   3.645   0.322
 2193WAT      O 6789   1.659   2.892   1.813
 2193WAT     H1 6790   1.707   2.824   1.860
 2193WAT     H2 6791   1.579   2.904   1.864
 2194WAT      O 6792   2.359   3.026   1.761
 2194WAT     H1 6793   2.282   3.083   1.759
 2194WAT     H2 6794   2.371   2.999   1.670
 2195WAT      O 6795   2.672   3.065   0.227
 2195WAT     H1 6796   2.614   3.097   0.297
 2195WAT     H2 6797   2.726   2.999   0.271
 2196WAT      O 6798   1.846   2.694   1.896
 2196WAT     H1 6799   1.850   2.676   1.990
 2196WAT     H2 6800   1.933   2.727   1.874
 2197WAT      O 6801   2.220   2.948   0.421
 2197WAT     H1 6802   2.277   2.938   0.498
 2197WAT     H2 6803   2.238   2.870   0.368
 2198WAT      O 6804   2.053   2.542   1.695
 2198WAT     H1 6805   1.988   2.509   1.633
 2198WAT     H2 6806   2.112   2.595   1.642
 2199WAT      O 6807   2.101   2.240   1.707
 2199WAT     H1 6808   2.092   2.179   1.634
 2199WAT     H2 6809   2.033   2.306   1.691
 2200WAT      O 6810   2.377   2.116   1.410
 2200WAT     H1 6811   2.338   2.119   1.323
 2200WAT     H2 6812   2.311   2.072   1.464
 2201WAT      O 6813   2.403   2.997   1.477
 2201WAT     H1 6814   2.456   3.072   1.450
 2201WAT     H2 6815   2.320   3.009   1.431
 2202WAT      O 6816   2.210   3.635   1.587
 2202WAT     H1 6817   2.136   3.686   1.555
 2202WAT     H2 6818   2.230   3.574   1.516
 2203WAT      O 6819   2.338   2.416   1.728
 2203WAT     H1 6820   2.386   2.383   1.804
 2203WAT     H2 6821   2.255   2.368   1.729
 2204WAT      O 6822   2.822   2.380   1.754
 2204WAT     H1 6823   2.747   2.321   1.746
 2204WAT     H2 6824   2.883   2.333   1.812
 2205WAT      O 6825   2.870   2.049   0.370
 2205WAT     H1 6826   2.884   1.959   0.398
 2205WAT     H2 6827   2.793   2.078   0.418
 2206WAT      O 6828   2.480   3.743   1.599
 2206WAT     H1 6829   2.479   3.830   1.639
 2206WAT     H2 6830   2.390   3.713   1.606
 2207WAT      O 6831   2.535   3.668   0.374
 2207WAT     H1 6832   2.625   3.702   0.376
 2207WAT     H2 6833   2.540   3.594   0.313
 2208WAT      O 6834   1.897   3.181   0.200
 2208WAT     H1 6835   1.934   3.256   0.247
 2208WAT     H2 6836   1.972   3.128   0.175
 2209WAT      O 6837   1.625   3.477   0.943
 2209WAT     H1 6838   1.665   3.393   0.920
 2209WAT     H2 6839   1.660   3.498   1.029
 2210WAT      O 6840   2.097   3.316   0.708
 2210WAT     H1 6841   2.064   3.285   0.793
 2210WAT     H2 6842   2.079   3.244   0.648
 2211WAT      O 6843   1.673   3.567   1.206
 2211WAT     H1 6844   1.630   3.581   1.291
 2211WAT     H2 6845   1.720   3.649   1.190
 2212WAT      O 6846   3.302   2.956   0.420
 2212WAT     H1 6847   3.371   3.022   0.419
 2212WAT     H2 6848   3.314   2.909   0.502
 2213WAT      O 6849   1.653   2.812   0.838
 2213WAT     H1 6850   1.587   2.790   0.771
 2213WAT     H2 6851   1.737   2.800   0.793
 2214WAT      O 6852   3.414   3.054   0.924
 2214WAT     H1 6853   3.448   2.973   0.887
 2214WAT     H2 6854   3.472   3.122   0.889
 2215WAT      O 6855   2.966   2.292   0.275
 2215WAT     H1 6856   2.990   2.277   0.184
 2215WAT     H2 6857   2.917   2.214   0.301
 2216WAT      O 6858   3.302   2.789   0.644
 2216WAT     H1 6859   3.266   2.707   0.609
 2216WAT     H2 6860   3.229   2.829   0.690
 2217WAT      O 6861   1.771   2.852   1.300
 2217WAT     H1 6862   1.784   2.837   1.393
 2217WAT     H2 6863   1.707   2.787   1.273
 2218WAT      O 6864   1.711   2.551   1.696
 2218WAT     H1 6865   1.624   2.537   1.731
 2218WAT     H2 6866   1.762   2.585   1.770
 2219WAT      O 6867   3.084   2.231   1.882
 2219WAT     H1 6868   3.167   2.223   1.928
 2219WAT     H2 6869   3.084   2.158   1.820
 2220WAT      O 6870   1.576   2.533   0.414
 2220WAT     H1 6871   1.490   2.566   0.440
 2220WAT     H2 6872   1.608   2.599   0.352
 2221WAT      O 6873   3.220   2.618   0.973
 2221WAT     H1 6874   3.266   2.566   0.908
 2221WAT     H2 6875   3.289   2.650   1.032
 2222WAT      O 6876   3.248   2.612   1.320
 2222WAT     H1 6877   3.154   2.609   1.333
 2222WAT     H2 6878   3.267   2.704   1.303
 2223WAT      O 6879   1.844   2.450   0.234
 2223WAT     H1 6880   1.907   2.387   0.200
 2223WAT     H2 6881   1.770   2.444   0.174
 2224WAT      O 6882   3.208   2.538   0.572
 2224WAT     H1 6883   3.235   2.497   0.655
 2224WAT     H2 6884   3.163   2.468   0.525
 2225WAT      O 6885   1.769   1.963   1.127
 2225WAT     H1 6886   1.841   1.922   1.078
 2225WAT     H2 6887   1.809   1.991   1.209
 2226WAT      O 6888   3.323   2.407   0.817
 2226WAT     H1 6889   3.313   2.376   0.907
 2226WAT     H2 6890   3.405   2.368   0.787
 2227WAT      O 6891   3.171   1.992   1.464
 2227WAT     H1 6892   3.209   2.078   1.480
 2227WAT     H2 6893   3.169   1.983   1.369
 2228WAT      O 6894   3.421   2.257   0.419
 2228WAT     H1 6895   3.330   2.254   0.451
 2228WAT     H2 6896   3.440   2.350   0.409
 2229WAT      O 6897   3.122   3.664   0.814
 2229WAT     H1 6898   3.184   3.646   0.743
 2229WAT     H2 6899   3.147   3.603   0.884
 2230WAT      O 6900   1.744   1.999   1.412
 2230WAT     H1 6901   1.703   2.044   1.486
 2230WAT     H2 6902   1.710   1.910   1.416
 2231WAT      O 6903   1.896   3.309   1.817
 2231WAT     H1 6904   1.894   3.273   1.906
 2231WAT     H2 6905   1.904   3.404   1.830
 2232WAT      O 6906   2.274   3.461   1.381
 2232WAT     H1 6907   2.249   3.485   1.292
 2232WAT     H2 6908   2.370   3.467   1.381
 2233WAT      O 6909   2.497   2.096   1.766
 2233WAT     H1 6910   2.486   2.174   1.820
 2233WAT     H2 6911   2.589   2.098   1.739
 2234WAT      O 6912   2.762   2.090   1.719
 2234WAT     H1 6913   2.824   2.104   1.648
 2234WAT     H2 6914   2.809   2.035   1.782
 2235WAT      O 6915   1.815   1.938   1.733
 2235WAT     H1 6916   1.864   1.912   1.655
 2235WAT     H2 6917   1.820   1.862   1.791
 2236WAT      O 6918   1.883   3.604   1.540
 2236WAT     H1 6919   1.819   3.585   1.608
 2236WAT     H2 6920   1.885   3.524   1.487
 2237WAT      O 6921   2.835   1.932   1.361
 2237WAT     H1 6922   2.759   1.966   1.314
 2237WAT     H2 6923   2.799   1.869   1.424
 2238WAT      O 6924   2.919   2.153   1.493
 2238WAT     H1 6925   2.895   2.075   1.443
 2238WAT     H2 6926   3.015   2.152   1.494
 2239WAT      O 6927   3.166   3.726   1.182
 2239WAT     H1 6928   3.129   3.809   1.151
 2239WAT     H2 6929   3.091   3.667   1.188
 2240WAT      O 6930   1.851   3.350   1.421
 2240WAT     H1 6931   1.770   3.299   1.425
 2240WAT     H2 6932   1.866   3.364   1.327
 2241WAT      O 6933   2.216   3.556   1.113
 2241WAT     H1 6934   2.259   3.500   1.048
 2241WAT     H2 6935   2.283   3.620   1.138
 2242WAT      O 6936   2.482   3.649   1.173
 2242WAT     H1 6937   2.529   3.629   1.092
 2242WAT     H2 6938   2.521   3.591   1.239
 2243WAT      O 6939   2.604   2.022   1.246
 2243WAT     H1 6940   2.534   2.067   1.293
 2243WAT     H2 6941   2.564   1.941   1.215
 2244WAT      O 6942   3.050   2.086   1.050
 2244WAT     H1 6943   3.114   2.084   0.978
 2244WAT     H2 6944   3.032   2.179   1.063
 2245WAT      O 6945   3.233   2.063   0.850
 2245WAT     H1 6946   3.230   1.971   0.825
 2245WAT     H2 6947   3.315   2.072   0.899
 2246WAT      O 6948   1.684   3.668   0.742
 2246WAT     H1 6949   1.666   3.609   0.814
 2246WAT     H2 6950   1.598   3.689   0.705
 2247WAT      O 6951   1.743   2.057   0.495
 2247WAT     H1 6952   1.822   2.075   0.444
 2247WAT     H2 6953   1.684   2.129   0.473
 2248WAT      O 6954   2.381   2.265   0.797
 2248WAT     H1 6955   2.315   2.216   0.748
 2248WAT     H2 6956   2.448   2.200   0.818
 2249WAT      O 6957   2.840   1.931   0.925
 2249WAT     H1 6958   2.909   1.982   0.967
 2249WAT     H2 6959   2.776   1.997   0.897
 2250WAT      O 6960   3.163   1.978   0.456
 2250WAT     H1 6961   3.162   2.071   0.479
 2250WAT     H2 6962   3.076   1.947   0.479
 2251WAT      O 6963   1.823   3.535   0.494
 2251WAT     H1 6964   1.787   3.581   0.419
 2251WAT     H2 6965   1.823   3.600   0.565
 2252WAT      O 6966   1.970   2.107   0.354
 2252WAT     H1 6967   2.022   2.027   0.354
 2252WAT     H2 6968   2.034   2.178   0.352
 2253WAT      O 6969   2.197   2.090   0.651
 2253WAT     H1 6970   2.133   2.021   0.669
 2253WAT     H2 6971   2.144   2.168   0.634
 2254WAT      O 6972   2.491   3.748   1.925
 2254WAT     H1 6973   2.582   3.718   1.918
 2254WAT     H2 6974   2.488   3.828   1.872
 2255WAT      O 6975   3.316   3.690   0.617
 2255WAT     H1 6976   3.325   3.614   0.561
 2255WAT     H2 6977   3.268   3.754   0.564
 2256WAT      O 6978   2.197   2.009   1.894
 2256WAT     H1 6979   2.184   2.064   1.817
 2256WAT     H2 6980   2.250   1.935   1.862
 2257WAT      O 6981   2.112   3.750   0.381
 2257WAT     H1 6982   2.172   3.704   0.323
 2257WAT     H2 6983   2.126   3.711   0.467
 2258WAT      O 6984   2.016   3.353   0.384
 2258WAT     H1 6985   1.952   3.409   0.430
 2258WAT     H2 6986   2.022   3.274   0.439
 2259WAT      O 6987   2.874   1.958   1.950
 2259WAT     H1 6988   2.857   1.980   2.042
 2259WAT     H2 6989   2.965   1.984   1.936
 2260WAT      O 6990   2.761   0.874   4.613
 2260WAT     H1 6991   2.745   0.780   4.602
 2260WAT     H2 6992   2.711   0.915   4.543
 2261WAT      O 6993   2.573   1.050   4.801
 2261WAT     H1 6994   2.506   0.999   4.846
 2261WAT     H2 6995   2.645   0.989   4.788
 2262WAT      O 6996   1.966   1.096   4.898
 2262WAT     H1 6997   1.897   1.049   4.944
 2262WAT     H2 6998   2.040   1.095   4.958
 2263WAT      O 6999   2.976   1.498   4.687
 2263WAT     H1 7000   2.929   1.417   4.708
 2263WAT     H2 7001   3.057   1.493   4.738
 2264WAT      O 7002   1.979   1.485   4.926
 2264WAT     H1 7003   2.017   1.402   4.898
 2264WAT     H2 7004   2.044   1.551   4.903
 2265WAT      O 7005   1.821   0.586   4.274
 2265WAT     H1 7006   1.727   0.605   4.267
 2265WAT     H2 7007   1.847   0.564   4.185
 2266WAT      O 7008   1.601   0.820   4.852
 2266WAT     H1 7009   1.673   0.758   4.865
 2266WAT     H2 7010   1.626   0.869   4.774
 2267WAT      O 7011   2.597   1.724   4.666
 2267WAT     H1 7012   2.536   1.758   4.600
 2267WAT     H2 7013   2.684   1.745   4.631
 2268WAT      O 7014   2.504   1.314   4.816
 2268WAT     H1 7015   2.523   1.221   4.803
 2268WAT     H2 7016   2.574   1.345   4.874
 2269WAT      O 7017   1.733   0.389   5.051
 2269WAT     H1 7018   1.729   0.299   5.082
 2269WAT     H2 7019   1.677   0.438   5.111
 2270WAT      O 7020   2.616   0.607   4.824
 2270WAT     H1 7021   2.667   0.529   4.847
 2270WAT     H2 7022   2.631   0.619   4.730
 2271WAT      O 7023   2.041   0.445   4.376
 2271WAT     H1 7024   2.058   0.524   4.426
 2271WAT     H2 7025   1.947   0.447   4.358
 2272WAT      O 7026   3.002   0.352   4.530
 2272WAT     H1 7027   3.090   0.315   4.529
 2272WAT     H2 7028   3.006   0.419   4.599
 2273WAT      O 7029   1.795   0.628   4.912
 2273WAT     H1 7030   1.878   0.648   4.955
 2273WAT     H2 7031   1.769   0.543   4.949
 2274WAT      O 7032   2.226   0.746   4.818
 2274WAT     H1 7033   2.288   0.794   4.873
 2274WAT     H2 7034   2.268   0.661   4.804
 2275WAT      O 7035   3.420   0.553   5.186
 2275WAT     H1 7036   3.360   0.611   5.139
 2275WAT     H2 7037   3.461   0.609   5.252
 2276WAT      O 7038   2.691   1.211   4.385
 2276WAT     H1 7039   2.624   1.246   4.327
 2276WAT     H2 7040   2.723   1.287   4.434
 2277WAT      O 7041   2.184   1.170   5.065
 2277WAT     H1 7042   2.142   1.227   5.129
 2277WAT     H2 7043   2.200   1.228   4.989
 2278WAT      O 7044   3.035   0.534   4.800
 2278WAT     H1 7045   2.958   0.556   4.852
 2278WAT     H2 7046   3.074   0.618   4.776
 2279WAT      O 7047   2.016   0.371   5.040
 2279WAT     H1 7048   2.047   0.461   5.028
 2279WAT     H2 7049   1.922   0.380   5.052
 2280WAT      O 7050   2.100   1.370   5.237
 2280WAT     H1 7051   2.157   1.441   5.207
 2280WAT     H2 7052   2.011   1.402   5.220
 2281WAT      O 7053   3.176   1.501   5.031
 2281WAT     H1 7054   3.121   1.578   5.045
 2281WAT     H2 7055   3.231   1.524   4.956
 2282WAT      O 7056   3.323   0.487   4.849
 2282WAT     H1 7057   3.229   0.494   4.867
 2282WAT     H2 7058   3.362   0.559   4.897
 2283WAT      O 7059   2.941   1.694   4.901
 2283WAT     H1 7060   2.939   1.650   4.817
 2283WAT     H2 7061   2.880   1.767   4.891
 2284WAT      O 7062   3.071   1.357   4.412
 2284WAT     H1 7063   3.059   1.263   4.424
 2284WAT     H2 7064   3.052   1.395   4.498
 2285WAT      O 7065   2.890   1.184   5.038
 2285WAT     H1 7066   2.934   1.158   4.957
 2285WAT     H2 7067   2.961   1.211   5.096
 2286WAT      O 7068   2.626   0.930   4.366
 2286WAT     H1 7069   2.530   0.930   4.367
 2286WAT     H2 7070   2.650   1.020   4.347
 2287WAT      O 7071   2.622   0.545   4.025
 2287WAT     H1 7072   2.536   0.565   4.062
 2287WAT     H2 7073   2.666   0.629   4.019
 2288WAT      O 7074   3.269   1.018   5.046
 2288WAT     H1 7075   3.194   1.046   4.995
 2288WAT     H2 7076   3.342   1.071   5.013
 2289WAT      O 7077   3.022   1.083   4.406
 2289WAT     H1 7078   2.956   1.048   4.346
 2289WAT     H2 7079   3.022   1.023   4.480
 2290WAT      O 7080   2.973   0.703   5.139
 2290WAT     H1 7081   2.931   0.788   5.155
 2290WAT     H2 7082   2.900   0.642   5.126
 2291WAT      O 7083   2.180   0.970   4.622
 2291WAT     H1 7084   2.148   0.897   4.570
 2291WAT     H2 7085   2.196   0.933   4.708
 2292WAT      O 7086   2.230   1.333   4.845
 2292WAT     H1 7087   2.200   1.291   4.764
 2292WAT     H2 7088   2.325   1.339   4.835
 2293WAT      O 7089   2.052   0.651   5.010
 2293WAT     H1 7090   2.104   0.677   4.934
 2293WAT     H2 7091   2.091   0.699   5.083
 2294WAT      O 7092   3.036   1.695   5.214
 2294WAT     H1 7093   3.004   1.781   5.185
 2294WAT     H2 7094   2.959   1.639   5.215
 2295WAT      O 7095   2.145   1.326   5.502
 2295WAT     H1 7096   2.058   1.338   5.540
 2295WAT     H2 7097   2.132   1.335   5.408
 2296WAT      O 7098   2.847   1.012   4.103
 2296WAT     H1 7099   2.879   0.923   4.089
 2296WAT     H2 7100   2.925   1.067   4.101
 2297WAT      O 7101   2.027   1.013   5.356
 2297WAT     H1 7102   2.004   1.100   5.386
 2297WAT     H2 7103   1.943   0.970   5.340
 2298WAT      O 7104   2.645   1.492   4.493
 2298WAT     H1 7105   2.703   1.559   4.456
 2298WAT     H2 7106   2.635   1.517   4.585
 2299WAT      O 7107   2.194   1.602   5.584
 2299WAT     H1 7108   2.203   1.648   5.501
 2299WAT     H2 7109   2.199   1.510   5.562
 2300WAT      O 7110   1.847   0.864   4.383
 2300WAT     H1 7111   1.845   0.934   4.318
 2300WAT     H2 7112   1.832   0.784   4.332
 2301WAT      O 7113   1.609   1.177   4.963
 2301WAT     H1 7114   1.610   1.193   4.869
 2301WAT     H2 7115   1.679   1.112   4.976
 2302WAT      O 7116   1.734   1.351   4.593
 2302WAT     H1 7117   1.717   1.379   4.503
 2302WAT     H2 7118   1.825   1.322   4.592
 2303WAT      O 7119   3.326   1.387   5.426
 2303WAT     H1 7120   3.363   1.372   5.339
 2303WAT     H2 7121   3.341   1.305   5.473
 2304WAT      O 7122   2.727   1.761   5.297
 2304WAT     H1 7123   2.773   1.753   5.381
 2304WAT     H2 7124   2.642   1.798   5.320
 2305WAT      O 7125   2.925   1.792   4.234
 2305WAT     H1 7126   2.898   1.768   4.323
 2305WAT     H2 7127   2.910   1.713   4.182
 2306WAT      O 7128   2.164   1.767   4.413
 2306WAT     H1 7129   2.138   1.675   4.405
 2306WAT     H2 7130   2.082   1.814   4.427
 2307WAT      O 7131   2.883   1.561   4.085
 2307WAT     H1 7132   2.819   1.543   4.016
 2307WAT     H2 7133   2.962   1.516   4.056
 2308WAT      O 7134   2.844   1.704   4.504
 2308WAT     H1 7135   2.903   1.636   4.537
 2308WAT     H2 7136   2.876   1.785   4.544
 2309WAT      O 7137   3.330   0.605   5.524
 2309WAT     H1 7138   3.280   0.669   5.474
 2309WAT     H2 7139   3.279   0.524   5.517
 2310WAT      O 7140   1.621   1.296   5.217
 2310WAT     H1 7141   1.620   1.252   5.132
 2310WAT     H2 7142   1.681   1.244   5.270
 2311WAT      O 7143   2.112   0.217   4.704
 2311WAT     H1 7144   2.055   0.293   4.691
 2311WAT     H2 7145   2.144   0.227   4.794
 2312WAT      O 7146   2.523   0.485   5.277
 2312WAT     H1 7147   2.467   0.506   5.352
 2312WAT     H2 7148   2.486   0.404   5.241
 2313WAT      O 7149   3.037   0.588   5.381
 2313WAT     H1 7150   2.950   0.580   5.421
 2313WAT     H2 7151   3.022   0.640   5.302
 2314WAT      O 7152   2.734   0.762   5.585
 2314WAT     H1 7153   2.760   0.671   5.571
 2314WAT     H2 7154   2.813   0.804   5.618
 2315WAT      O 7155   2.312   0.254   4.906
 2315WAT     H1 7156   2.319   0.347   4.887
 2315WAT     H2 7157   2.360   0.211   4.834
 2316WAT      O 7158   2.079   0.720   4.499
 2316WAT     H1 7159   2.046   0.679   4.579
 2316WAT     H2 7160   2.001   0.760   4.460
 2317WAT      O 7161   2.795   0.711   4.344
 2317WAT     H1 7162   2.739   0.788   4.337
 2317WAT     H2 7163   2.845   0.710   4.262
 2318WAT      O 7164   2.322   0.805   5.551
 2318WAT     H1 7165   2.319   0.712   5.530
 2318WAT     H2 7166   2.409   0.833   5.524
 2319WAT      O 7167   2.681   0.586   4.561
 2319WAT     H1 7168   2.712   0.618   4.476
 2319WAT     H2 7169   2.687   0.491   4.555
 2320WAT      O 7170   1.842   0.450   5.372
 2320WAT     H1 7171   1.791   0.529   5.388
 2320WAT     H2 7172   1.779   0.379   5.378
 2321WAT      O 7173   1.572   0.237   4.777
 2321WAT     H1 7174   1.534   0.300   4.837
 2321WAT     H2 7175   1.635   0.188   4.830
 2322WAT      O 7176   1.596   0.635   3.884
 2322WAT     H1 7177   1.587   0.728   3.904
 2322WAT     H2 7178   1.536   0.620   3.812
 2323WAT      O 7179   2.718   0.833   4.961
 2323WAT     H1 7180   2.643   0.876   5.002
 2323WAT     H2 7181   2.681   0.753   4.923
 2324WAT      O 7182   2.363   0.507   4.801
 2324WAT     H1 7183   2.369   0.473   4.711
 2324WAT     H2 7184   2.451   0.542   4.818
 2325WAT      O 7185   1.943   0.497   4.690
 2325WAT     H1 7186   1.910   0.541   4.768
 2325WAT     H2 7187   1.866   0.457   4.650
 2326WAT      O 7188   2.375   0.606   4.121
 2326WAT     H1 7189   2.367   0.611   4.216
 2326WAT     H2 7190   2.338   0.688   4.089
 2327WAT      O 7191   2.761   0.393   4.906
 2327WAT     H1 7192   2.770   0.426   4.995
 2327WAT     H2 7193   2.752   0.298   4.917
 2328WAT      O 7194   2.269   0.844   4.025
 2328WAT     H1 7195   2.221   0.793   3.960
 2328WAT     H2 7196   2.342   0.882   3.976
 2329WAT      O 7197   1.786   1.216   5.431
 2329WAT     H1 7198   1.744   1.152   5.488
 2329WAT     H2 7199   1.803   1.291   5.488
 2330WAT      O 7200   2.401   0.914   4.975
 2330WAT     H1 7201   2.424   0.855   5.046
 2330WAT     H2 7202   2.364   0.991   5.019
 2331WAT      O 7203   1.688   0.383   4.583
 2331WAT     H1 7204   1.648   0.339   4.658
 2331WAT     H2 7205   1.697   0.315   4.517
 2332WAT      O 7206   2.174   0.812   5.205
 2332WAT     H1 7207   2.143   0.893   5.244
 2332WAT     H2 7208   2.269   0.815   5.216
 2333WAT      O 7209   2.036   1.237   4.281
 2333WAT     H1 7210   1.962   1.178   4.268
 2333WAT     H2 7211   2.110   1.193   4.239
 2334WAT      O 7212   3.103   1.124   4.842
 2334WAT     H1 7213   3.176   1.176   4.807
 2334WAT     H2 7214   3.081   1.064   4.771
 2335WAT      O 7215   2.646   0.286   4.268
 2335WAT     H1 7216   2.574   0.228   4.244
 2335WAT     H2 7217   2.635   0.362   4.210
 2336WAT      O 7218   2.647   1.144   5.448
 2336WAT     H1 7219   2.638   1.058   5.406
 2336WAT     H2 7220   2.567   1.152   5.501
 2337WAT      O 7221   2.920   0.708   4.093
 2337WAT     H1 7222   3.006   0.745   4.075
 2337WAT     H2 7223   2.925   0.618   4.062
 2338WAT      O 7224   2.028   1.212   4.651
 2338WAT     H1 7225   2.078   1.137   4.617
 2338WAT     H2 7226   1.989   1.179   4.732
 2339WAT      O 7227   2.529   1.329   4.157
 2339WAT     H1 7228   2.546   1.416   4.119
 2339WAT     H2 7229   2.449   1.341   4.207
 2340WAT      O 7230   1.772   0.911   5.323
 2340WAT     H1 7231   1.727   0.964   5.389
 2340WAT     H2 7232   1.759   0.821   5.351
 2341WAT      O 7233   2.094   0.944   5.617
 2341WAT     H1 7234   2.072   0.958   5.525
 2341WAT     H2 7235   2.176   0.895   5.615
 2342WAT      O 7236   2.635   1.415   5.400
 2342WAT     H1 7237   2.638   1.319   5.406
 2342WAT     H2 7238   2.569   1.440   5.465
 2343WAT      O 7239   3.150   0.847   4.034
 2343WAT     H1 7240   3.140   0.889   3.948
 2343WAT     H2 7241   3.218   0.898   4.077
 2344WAT      O 7242   3.258   1.097   5.337
 2344WAT     H1 7243   3.182   1.153   5.323
 2344WAT     H2 7244   3.299   1.091   5.250
 2345WAT      O 7245   3.264   1.528   4.305
 2345WAT     H1 7246   3.196   1.470   4.337
 2345WAT     H2 7247   3.226   1.569   4.227
 2346WAT      O 7248   2.816   1.260   4.691
 2346WAT     H1 7249   2.842   1.193   4.629
 2346WAT     H2 7250   2.727   1.235   4.718
 2347WAT      O 7251   2.409   1.336   4.431
 2347WAT     H1 7252   2.484   1.386   4.465
 2347WAT     H2 7253   2.333   1.391   4.451
 2348WAT      O 7254   1.618   0.892   3.987
 2348WAT     H1 7255   1.709   0.905   4.015
 2348WAT     H2 7256   1.586   0.980   3.967
 2349WAT      O 7257   2.361   1.044   4.409
 2349WAT     H1 7258   2.389   1.133   4.428
 2349WAT     H2 7259   2.309   1.018   4.485
 2350WAT      O 7260   2.567   1.591   5.116
 2350WAT     H1 7261   2.623   1.621   5.187
 2350WAT     H2 7262   2.609   1.511   5.085
 2351WAT      O 7263   2.712   1.392   4.990
 2351WAT     H1 7264   2.763   1.314   5.011
 2351WAT     H2 7265   2.777   1.457   4.965
 2352WAT      O 7266   3.084   1.415   3.962
 2352WAT     H1 7267   3.067   1.337   4.016
 2352WAT     H2 7268   3.068   1.386   3.872
 2353WAT      O 7269   2.892   1.472   5.326
 2353WAT     H1 7270   2.904   1.543   5.389
 2353WAT     H2 7271   2.799   1.450   5.334
 2354WAT      O 7272   1.649   0.257   5.405
 2354WAT     H1 7273   1.560   0.259   5.438
 2354WAT     H2 7274   1.679   0.167   5.419
 2355WAT      O 7275   3.052   1.206   4.135
 2355WAT     H1 7276   3.024   1.253   4.214
 2355WAT     H2 7277   3.134   1.163   4.160
 2356WAT      O 7278   1.680   1.646   5.463
 2356WAT     H1 7279   1.663   1.553   5.479
 2356WAT     H2 7280   1.595   1.681   5.435
 2357WAT      O 7281   1.824   1.084   4.193
 2357WAT     H1 7282   1.776   1.164   4.173
 2357WAT     H2 7283   1.878   1.069   4.115
 2358WAT      O 7284   2.781   0.496   5.160
 2358WAT     H1 7285   2.826   0.422   5.201
 2358WAT     H2 7286   2.696   0.498   5.204
 2359WAT      O 7287   3.124   0.411   4.253
 2359WAT     H1 7288   3.070   0.410   4.174
 2359WAT     H2 7289   3.063   0.395   4.324
 2360WAT      O 7290   2.323   0.616   4.385
 2360WAT     H1 7291   2.249   0.662   4.425
 2360WAT     H2 7292   2.353   0.556   4.453
 2361WAT      O 7293   2.471   0.764   5.189
 2361WAT     H1 7294   2.528   0.810   5.250
 2361WAT     H2 7295   2.490   0.671   5.204
 2362WAT      O 7296   2.721   0.310   4.529
 2362WAT     H1 7297   2.703   0.292   4.437
 2362WAT     H2 7298   2.816   0.304   4.537
 2363WAT      O 7299   2.427   1.819   4.464
 2363WAT     H1 7300   2.465   1.815   4.377
 2363WAT     H2 7301   2.333   1.803   4.451
 2364WAT      O 7302   2.136   0.455   4.115
 2364WAT     H1 7303   2.221   0.499   4.114
 2364WAT     H2 7304   2.109   0.456   4.207
 2365WAT      O 7305   3.199   0.386   5.279
 2365WAT     H1 7306   3.148   0.461   5.308
 2365WAT     H2 7307   3.279   0.424   5.242
 2366WAT      O 7308   3.031   0.925   4.626
 2366WAT     H1 7309   2.939   0.899   4.634
 2366WAT     H2 7310   3.080   0.850   4.659
 2367WAT      O 7311   2.018   1.071   3.981
 2367WAT     H1 7312   2.100   1.081   4.029
 2367WAT     H2 7313   2.044   1.031   3.898
 2368WAT      O 7314   1.894   0.820   4.055
 2368WAT     H1 7315   1.900   0.725   4.049
 2368WAT     H2 7316   1.985   0.850   4.053
 2369WAT      O 7317   3.239   1.629   4.778
 2369WAT     H1 7318   3.248   1.709   4.830
 2369WAT     H2 7319   3.328   1.612   4.745
 2370WAT      O 7320   1.985   1.846   4.752
 2370WAT     H1 7321   2.050   1.784   4.785
 2370WAT     H2 7322   2.033   1.928   4.740
 2371WAT      O 7323   2.906   1.730   5.518
 2371WAT     H1 7324   3.001   1.733   5.506
 2371WAT     H2 7325   2.890   1.789   5.591
 2372WAT      O 7326   3.194   1.679   4.085
 2372WAT     H1 7327   3.175   1.630   4.005
 2372WAT     H2 7328   3.163   1.767   4.067
 2373WAT      O 7329   1.664   1.016   5.571
 2373WAT     H1 7330   1.707   0.951   5.627
 2373WAT     H2 7331   1.574   1.020   5.603
 2374WAT      O 7332   2.377   1.156   5.509
 2374WAT     H1 7333   2.293   1.198   5.525
 2374WAT     H2 7334   2.368   1.118   5.421
 2375WAT      O 7335   2.667   1.177   3.976
 2375WAT     H1 7336   2.616   1.221   4.044
 2375WAT     H2 7337   2.727   1.120   4.024
 2376WAT      O 7338   3.072   1.313   5.561
 2376WAT     H1 7339   3.149   1.353   5.522
 2376WAT     H2 7340   2.999   1.348   5.510
 2377WAT      O 7341   2.226   1.069   4.171
 2377WAT     H1 7342   2.277   1.063   4.252
 2377WAT     H2 7343   2.248   0.990   4.123
 2378WAT      O 7344   2.030   0.678   5.439
 2378WAT     H1 7345   1.996   0.620   5.371
 2378WAT     H2 7346   2.107   0.718   5.400
 2379WAT      O 7347   2.491   0.960   3.911
 2379WAT     H1 7348   2.546   0.911   3.851
 2379WAT     H2 7349   2.540   1.042   3.926
 2380WAT      O 7350   2.931   1.102   5.438
 2380WAT     H1 7351   2.981   1.149   5.505
 2380WAT     H2 7352   2.840   1.131   5.451
 2381WAT      O 7353   2.991   0.849   5.618
 2381WAT     H1 7354   3.060   0.785   5.608
 2381WAT     H2 7355   3.007   0.913   5.549
 2382WAT      O 7356   2.110   0.382   5.450
 2382WAT     H1 7357   2.097   0.307   5.391
 2382WAT     H2 7358   2.027   0.430   5.447
 2383WAT      O 7359   2.381   0.243   5.170
 2383WAT     H1 7360   2.344   0.242   5.082
 2383WAT     H2 7361   2.318   0.192   5.223
 2384WAT      O 7362   2.399   1.116   5.228
 2384WAT     H1 7363   2.456   1.190   5.209
 2384WAT     H2 7364   2.318   1.135   5.180
 2385WAT      O 7365   2.647   0.879   5.361
 2385WAT     H1 7366   2.671   0.838   5.444
 2385WAT     H2 7367   2.730   0.890   5.315
 2386WAT      O 7368   2.874   0.946   5.221
 2386WAT     H1 7369   2.850   1.003   5.149
 2386WAT     H2 7370   2.911   1.004   5.287
 2387WAT      O 7371   2.120   0.676   3.869
 2387WAT     H1 7372   2.096   0.587   3.897
 2387WAT     H2 7373   2.102   0.677   3.775
 2388WAT      O 7374   2.215   1.759   5.338
 2388WAT     H1 7375   2.138   1.810   5.311
 2388WAT     H2 7376   2.228   1.696   5.267
 2389WAT      O 7377   2.335   0.539   5.491
 2389WAT     H1 7378   2.375   0.496   5.567
 2389WAT     H2 7379   2.254   0.491   5.476
 2390WAT      O 7380   2.811   0.505   5.523
 2390WAT     H1 7381   2.741   0.449   5.490
 2390WAT     H2 7382   2.877   0.444   5.556
 2391WAT      O 7383   2.008   0.403   3.854
 2391WAT     H1 7384   2.045   0.381   3.769
 2391WAT     H2 7385   2.074   0.375   3.917
 2392WAT      O 7386   2.485   1.865   5.364
 2392WAT     H1 7387   2.478   1.954   5.398
 2392WAT     H2 7388   2.395   1.834   5.360
 2393WAT      O 7389   2.333   0.283   3.950
 2393WAT     H1 7390   2.296   0.211   3.898
 2393WAT     H2 7391   2.327   0.253   4.040
 2394WAT      O 7392   1.627   1.601   4.698
 2394WAT     H1 7393   1.667   1.516   4.679
 2394WAT     H2 7394   1.660   1.624   4.784
 2395WAT      O 7395   2.098   1.439   4.461
 2395WAT     H1 7396   2.067   1.403   4.545
 2395WAT     H2 7397   2.078   1.370   4.397
 2396WAT      O 7398   1.673   1.690   4.961
 2396WAT     H1 7399   1.630   1.704   5.045
 2396WAT     H2 7400   1.719   1.773   4.944
 2397WAT      O 7401   3.246   1.651   5.387
 2397WAT     H1 7402   3.174   1.655   5.325
 2397WAT     H2 7403   3.260   1.557   5.402
 2398WAT      O 7404   3.361   1.409   3.935
 2398WAT     H1 7405   3.269   1.419   3.959
 2398WAT     H2 7406   3.386   1.494   3.901
 2399WAT      O 7407   3.301   1.085   4.175
 2399WAT     H1 7408   3.375   1.146   4.178
 2399WAT     H2 7409   3.311   1.032   4.254
 2400WAT      O 7410   1.653   0.937   4.591
 2400WAT     H1 7411   1.589   0.911   4.526
 2400WAT     H2 7412   1.738   0.922   4.549
 2401WAT      O 7413   3.414   1.177   4.678
 2401WAT     H1 7414   3.448   1.096   4.642
 2401WAT     H2 7415   3.472   1.245   4.644
 2402WAT      O 7416   3.090   1.306   5.203
 2402WAT     H1 7417   3.023   1.362   5.242
 2402WAT     H2 7418   3.138   1.364   5.144
 2403WAT      O 7419   3.335   1.118   3.900
 2403WAT     H1 7420   3.342   1.212   3.883
 2403WAT     H2 7421   3.301   1.112   3.989
 2404WAT      O 7422   2.967   0.416   4.025
 2404WAT     H1 7423   2.999   0.400   3.937
 2404WAT     H2 7424   2.906   0.344   4.042
 2405WAT      O 7425   3.300   0.914   4.394
 2405WAT     H1 7426   3.266   0.830   4.363
 2405WAT     H2 7427   3.228   0.950   4.446
 2406WAT      O 7428   1.770   0.976   5.054
 2406WAT     H1 7429   1.786   0.959   5.147
 2406WAT     H2 7430   1.709   0.908   5.027
 2407WAT      O 7431   3.247   0.821   5.363
 2407WAT     H1 7432   3.231   0.799   5.271
 2407WAT     H2 7433   3.253   0.916   5.364
 2408WAT      O 7434   1.706   0.676   5.448
 2408WAT     H1 7435   1.621   0.656   5.487
 2408WAT     H2 7436   1.767   0.680   5.522
 2409WAT      O 7437   1.577   0.655   4.184
 2409WAT     H1 7438   1.488   0.689   4.194
 2409WAT     H2 7439   1.610   0.699   4.106
 2410WAT      O 7440   3.220   0.741   4.728
 2410WAT     H1 7441   3.266   0.689   4.662
 2410WAT     H2 7442   3.289   0.773   4.786
 2411WAT      O 7443   3.246   0.738   5.081
 2411WAT     H1 7444   3.150   0.732   5.082
 2411WAT     H2 7445   3.263   0.829   5.054
 2412WAT      O 7446   1.838   0.561   3.996
 2412WAT     H1 7447   1.894   0.504   3.943
 2412WAT     H2 7448   1.759   0.572   3.944
 2413WAT      O 7449   3.205   0.664   4.329
 2413WAT     H1 7450   3.236   0.624   4.410
 2413WAT     H2 7451   3.164   0.592   4.281
 2414WAT      O 7452   3.320   0.525   4.572
 2414WAT     H1 7453   3.314   0.500   4.664
 2414WAT     H2 7454   3.405   0.490   4.543
 2415WAT      O 7455   3.405   0.299   3.892
 2415WAT     H1 7456   3.498   0.302   3.870
 2415WAT     H2 7457   3.401   0.323   3.984
 2416WAT      O 7458   3.418   0.380   4.164
 2416WAT     H1 7459   3.331   0.375   4.204
 2416WAT     H2 7460   3.439   0.473   4.164
 2417WAT      O 7461   3.123   1.785   4.572
 2417WAT     H1 7462   3.180   1.764   4.499
 2417WAT     H2 7463   3.147   1.722   4.640
 2418WAT      O 7464   2.274   1.582   5.134
 2418WAT     H1 7465   2.249   1.607   5.045
 2418WAT     H2 7466   2.369   1.588   5.135
 2419WAT      O 7467   2.506   0.266   5.504
 2419WAT     H1 7468   2.487   0.267   5.598
 2419WAT     H2 7469   2.579   0.204   5.495
 2420WAT      O 7470   3.404   1.780   5.190
 2420WAT     H1 7471   3.339   1.832   5.142
 2420WAT     H2 7472   3.353   1.736   5.258
 2421WAT      O 7473   1.885   1.725   5.293
 2421WAT     H1 7474   1.817   1.708   5.358
 2421WAT     H2 7475   1.887   1.646   5.239
 2422WAT      O 7476   2.921   0.276   5.243
 2422WAT     H1 7477   2.907   0.189   5.204
 2422WAT     H2 7478   3.016   0.287   5.242
 2423WAT      O 7479   3.163   1.859   4.941
 2423WAT     H1 7480   3.128   1.935   4.895
 2423WAT     H2 7481   3.091   1.795   4.940
 2424WAT      O 7482   1.851   1.470   5.175
 2424WAT     H1 7483   1.769   1.421   5.178
 2424WAT     H2 7484   1.866   1.486   5.082
 2425WAT      O 7485   2.216   1.679   4.868
 2425WAT     H1 7486   2.259   1.622   4.804
 2425WAT     H2 7487   2.282   1.743   4.893
 2426WAT      O 7488   2.483   1.772   4.927
 2426WAT     H1 7489   2.529   1.751   4.846
 2426WAT     H2 7490   2.520   1.712   4.992
 2427WAT      O 7491   3.058   0.221   4.817
 2427WAT     H1 7492   3.106   0.208   4.735
 2427WAT     H2 7493   3.032   0.313   4.815
 2428WAT      O 7494   1.677   1.799   4.497
 2428WAT     H1 7495   1.671   1.736   4.568
 2428WAT     H2 7496   1.586   1.810   4.467
 2429WAT      O 7497   1.741   0.186   4.255
 2429WAT     H1 7498   1.817   0.199   4.198
 2429WAT     H2 7499   1.679   0.254   4.229
 2430WAT      O 7500   2.382   0.388   4.557
 2430WAT     H1 7501   2.308   0.340   4.521
 2430WAT     H2 7502   2.454   0.325   4.556
 2431WAT      O 7503   3.314   1.816   4.368
 2431WAT     H1 7504   3.317   1.738   4.313
 2431WAT     H2 7505   3.248   1.872   4.327
 2432WAT      O 7506   2.760   0.874   2.737
 2432WAT     H1 7507   2.745   0.780   2.724
 2432WAT     H2 7508   2.711   0.916   2.666
 2433WAT      O 7509   2.574   1.051   2.925
 2433WAT     H1 7510   2.506   0.999   2.967
 2433WAT     H2 7511   2.645   0.988   2.908
 2434WAT      O 7512   1.968   1.093   3.020
 2434WAT     H1 7513   1.897   1.048   3.066
 2434WAT     H2 7514   2.040   1.095   3.082
 2435WAT      O 7515   2.973   1.500   2.816
 2435WAT     H1 7516   2.929   1.417   2.831
 2435WAT     H2 7517   3.058   1.491   2.859
 2436WAT      O 7518   1.980   1.489   3.048
 2436WAT     H1 7519   2.016   1.405   3.020
 2436WAT     H2 7520   2.047   1.553   3.024
 2437WAT      O 7521   1.820   0.585   2.396
 2437WAT     H1 7522   1.727   0.604   2.391
 2437WAT     H2 7523   1.846   0.564   2.306
 2438WAT      O 7524   1.600   0.817   2.973
 2438WAT     H1 7525   1.674   0.757   2.986
 2438WAT     H2 7526   1.625   0.869   2.896
 2439WAT      O 7527   2.598   1.722   2.785
 2439WAT     H1 7528   2.535   1.757   2.723
 2439WAT     H2 7529   2.683   1.747   2.750
 2440WAT      O 7530   2.506   1.315   2.939
 2440WAT     H1 7531   2.523   1.222   2.925
 2440WAT     H2 7532   2.576   1.344   2.997
 2441WAT      O 7533   1.733   0.389   3.174
 2441WAT     H1 7534   1.727   0.299   3.205
 2441WAT     H2 7535   1.676   0.439   3.233
 2442WAT      O 7536   2.617   0.608   2.947
 2442WAT     H1 7537   2.667   0.530   2.970
 2442WAT     H2 7538   2.631   0.619   2.853
 2443WAT      O 7539   2.041   0.445   2.499
 2443WAT     H1 7540   2.058   0.525   2.549
 2443WAT     H2 7541   1.948   0.448   2.480
 2444WAT      O 7542   3.002   0.352   2.653
 2444WAT     H1 7543   3.090   0.315   2.651
 2444WAT     H2 7544   3.006   0.419   2.722
 2445WAT      O 7545   1.796   0.627   3.034
 2445WAT     H1 7546   1.878   0.648   3.078
 2445WAT     H2 7547   1.769   0.543   3.072
 2446WAT      O 7548   2.225   0.746   2.941
 2446WAT     H1 7549   2.289   0.794   2.994
 2446WAT     H2 7550   2.267   0.661   2.926
 2447WAT      O 7551   3.419   0.553   3.309
 2447WAT     H1 7552   3.360   0.611   3.262
 2447WAT     H2 7553   3.462   0.609   3.374
 2448WAT      O 7554   2.691   1.212   2.508
 2448WAT     H1 7555   2.624   1.245   2.448
 2448WAT     H2 7556   2.720   1.289   2.557
 2449WAT      O 7557   2.186   1.168   3.188
 2449WAT     H1 7558   2.141   1.224   3.251
 2449WAT     H2 7559   2.199   1.224   3.112
 2450WAT      O 7560   3.036   0.534   2.923
 2450WAT     H1 7561   2.958   0.556   2.974
 2450WAT     H2 7562   3.073   0.618   2.899
 2451WAT      O 7563   2.017   0.371   3.166
 2451WAT     H1 7564   2.047   0.460   3.150
 2451WAT     H2 7565   1.922   0.379   3.174
 2452WAT      O 7566   2.098   1.360   3.360
 2452WAT     H1 7567   2.150   1.438   3.339
 2452WAT     H2 7568   2.007   1.389   3.351
 2453WAT      O 7569   1.626   1.270   2.257
 2453WAT     H1 7570   1.594   1.321   2.183
 2453WAT     H2 7571   1.644   1.335   2.325
 2454WAT      O 7572   3.175   1.502   3.154
 2454WAT     H1 7573   3.121   1.581   3.162
 2454WAT     H2 7574   3.233   1.521   3.080
 2455WAT      O 7575   3.323   0.486   2.972
 2455WAT     H1 7576   3.229   0.493   2.989
 2455WAT     H2 7577   3.362   0.560   3.019
 2456WAT      O 7578   2.936   1.699   3.024
 2456WAT     H1 7579   2.943   1.645   2.945
 2456WAT     H2 7580   2.875   1.769   3.000
 2457WAT      O 7581   3.072   1.357   2.535
 2457WAT     H1 7582   3.059   1.263   2.546
 2457WAT     H2 7583   3.052   1.394   2.621
 2458WAT      O 7584   2.891   1.184   3.161
 2458WAT     H1 7585   2.932   1.157   3.079
 2458WAT     H2 7586   2.964   1.209   3.217
 2459WAT      O 7587   2.625   0.930   2.489
 2459WAT     H1 7588   2.530   0.931   2.490
 2459WAT     H2 7589   2.650   1.021   2.469
 2460WAT      O 7590   2.622   0.544   2.148
 2460WAT     H1 7591   2.536   0.565   2.185
 2460WAT     H2 7592   2.667   0.629   2.142
 2461WAT      O 7593   3.269   1.017   3.167
 2461WAT     H1 7594   3.194   1.046   3.116
 2461WAT     H2 7595   3.342   1.071   3.136
 2462WAT      O 7596   3.023   1.084   2.529
 2462WAT     H1 7597   2.957   1.049   2.468
 2462WAT     H2 7598   3.021   1.023   2.603
 2463WAT      O 7599   2.972   0.703   3.261
 2463WAT     H1 7600   2.930   0.788   3.277
 2463WAT     H2 7601   2.900   0.642   3.248
 2464WAT      O 7602   2.181   0.970   2.744
 2464WAT     H1 7603   2.147   0.896   2.692
 2464WAT     H2 7604   2.195   0.933   2.831
 2465WAT      O 7605   2.231   1.329   2.969
 2465WAT     H1 7606   2.198   1.293   2.886
 2465WAT     H2 7607   2.325   1.339   2.955
 2466WAT      O 7608   2.052   0.650   3.133
 2466WAT     H1 7609   2.103   0.677   3.057
 2466WAT     H2 7610   2.092   0.698   3.206
 2467WAT      O 7611   3.034   1.702   3.345
 2467WAT     H1 7612   2.994   1.775   3.297
 2467WAT     H2 7613   2.968   1.632   3.340
 2468WAT      O 7614   2.847   1.012   2.227
 2468WAT     H1 7615   2.879   0.924   2.210
 2468WAT     H2 7616   2.925   1.068   2.223
 2469WAT      O 7617   2.024   1.016   3.486
 2469WAT     H1 7618   1.997   1.107   3.498
 2469WAT     H2 7619   1.943   0.970   3.464
 2470WAT      O 7620   2.649   1.488   2.619
 2470WAT     H1 7621   2.699   1.558   2.576
 2470WAT     H2 7622   2.634   1.521   2.707
 2471WAT      O 7623   1.850   0.864   2.505
 2471WAT     H1 7624   1.845   0.937   2.443
 2471WAT     H2 7625   1.831   0.787   2.453
 2472WAT      O 7626   3.409   1.665   3.848
 2472WAT     H1 7627   3.446   1.726   3.911
 2472WAT     H2 7628   3.458   1.681   3.767
 2473WAT      O 7629   1.608   1.173   3.084
 2473WAT     H1 7630   1.608   1.194   2.991
 2473WAT     H2 7631   1.680   1.111   3.095
 2474WAT      O 7632   1.733   1.351   2.714
 2474WAT     H1 7633   1.711   1.379   2.624
 2474WAT     H2 7634   1.824   1.323   2.709
 2475WAT      O 7635   3.319   1.382   3.548
 2475WAT     H1 7636   3.361   1.368   3.463
 2475WAT     H2 7637   3.349   1.309   3.602
 2476WAT      O 7638   2.918   1.800   2.357
 2476WAT     H1 7639   2.896   1.770   2.446
 2476WAT     H2 7640   2.913   1.721   2.304
 2477WAT      O 7641   2.161   1.768   2.520
 2477WAT     H1 7642   2.140   1.675   2.526
 2477WAT     H2 7643   2.082   1.812   2.551
 2478WAT      O 7644   2.887   1.571   2.204
 2478WAT     H1 7645   2.811   1.544   2.153
 2478WAT     H2 7646   2.959   1.518   2.170
 2479WAT      O 7647   2.846   1.707   2.623
 2479WAT     H1 7648   2.901   1.636   2.658
 2479WAT     H2 7649   2.877   1.785   2.669
 2480WAT      O 7650   3.325   0.607   3.652
 2480WAT     H1 7651   3.280   0.671   3.598
 2480WAT     H2 7652   3.277   0.525   3.639
 2481WAT      O 7653   1.633   1.299   3.334
 2481WAT     H1 7654   1.623   1.249   3.252
 2481WAT     H2 7655   1.681   1.240   3.392
 2482WAT      O 7656   2.113   0.218   2.827
 2482WAT     H1 7657   2.055   0.292   2.812
 2482WAT     H2 7658   2.143   0.228   2.917
 2483WAT      O 7659   2.525   0.483   3.402
 2483WAT     H1 7660   2.467   0.507   3.474
 2483WAT     H2 7661   2.484   0.406   3.363
 2484WAT      O 7662   3.039   0.590   3.503
 2484WAT     H1 7663   2.953   0.576   3.544
 2484WAT     H2 7664   3.020   0.640   3.424
 2485WAT      O 7665   2.735   0.765   3.714
 2485WAT     H1 7666   2.758   0.674   3.696
 2485WAT     H2 7667   2.816   0.805   3.744
 2486WAT      O 7668   2.314   0.254   3.029
 2486WAT     H1 7669   2.319   0.347   3.009
 2486WAT     H2 7670   2.359   0.211   2.956
 2487WAT      O 7671   2.078   0.720   2.621
 2487WAT     H1 7672   2.046   0.680   2.702
 2487WAT     H2 7673   2.001   0.761   2.582
 2488WAT      O 7674   2.795   0.711   2.467
 2488WAT     H1 7675   2.739   0.788   2.460
 2488WAT     H2 7676   2.845   0.710   2.385
 2489WAT      O 7677   2.322   0.807   3.669
 2489WAT     H1 7678   2.320   0.713   3.652
 2489WAT     H2 7679   2.409   0.835   3.640
 2490WAT      O 7680   2.681   0.586   2.684
 2490WAT     H1 7681   2.711   0.618   2.599
 2490WAT     H2 7682   2.687   0.491   2.678
 2491WAT      O 7683   1.843   0.451   3.495
 2491WAT     H1 7684   1.793   0.530   3.517
 2491WAT     H2 7685   1.780   0.380   3.501
 2492WAT      O 7686   2.495   0.446   3.806
 2492WAT     H1 7687   2.430   0.406   3.864
 2492WAT     H2 7688   2.559   0.486   3.865
 2493WAT      O 7689   1.572   0.237   2.899
 2493WAT     H1 7690   1.533   0.301   2.959
 2493WAT     H2 7691   1.635   0.189   2.953
 2494WAT      O 7692   1.597   0.636   2.006
 2494WAT     H1 7693   1.588   0.729   2.027
 2494WAT     H2 7694   1.536   0.621   1.934
 2495WAT      O 7695   2.718   0.832   3.087
 2495WAT     H1 7696   2.642   0.878   3.122
 2495WAT     H2 7697   2.683   0.753   3.046
 2496WAT      O 7698   2.364   0.507   2.923
 2496WAT     H1 7699   2.369   0.473   2.834
 2496WAT     H2 7700   2.451   0.542   2.941
 2497WAT      O 7701   1.943   0.494   2.815
 2497WAT     H1 7702   1.909   0.542   2.891
 2497WAT     H2 7703   1.866   0.457   2.773
 2498WAT      O 7704   2.375   0.606   2.244
 2498WAT     H1 7705   2.367   0.611   2.339
 2498WAT     H2 7706   2.337   0.688   2.212
 2499WAT      O 7707   2.761   0.393   3.029
 2499WAT     H1 7708   2.770   0.426   3.118
 2499WAT     H2 7709   2.752   0.298   3.039
 2500WAT      O 7710   2.269   0.844   2.146
 2500WAT     H1 7711   2.220   0.791   2.083
 2500WAT     H2 7712   2.342   0.881   2.097
 2501WAT      O 7713   1.794   1.207   3.551
 2501WAT     H1 7714   1.743   1.153   3.611
 2501WAT     H2 7715   1.811   1.288   3.600
 2502WAT      O 7716   2.401   0.914   3.097
 2502WAT     H1 7717   2.424   0.855   3.170
 2502WAT     H2 7718   2.362   0.990   3.140
 2503WAT      O 7719   1.688   0.383   2.706
 2503WAT     H1 7720   1.648   0.339   2.781
 2503WAT     H2 7721   1.697   0.315   2.639
 2504WAT      O 7722   2.173   0.810   3.333
 2504WAT     H1 7723   2.144   0.895   3.365
 2504WAT     H2 7724   2.269   0.814   3.338
 2505WAT      O 7725   2.038   1.239   2.398
 2505WAT     H1 7726   1.960   1.184   2.389
 2505WAT     H2 7727   2.109   1.185   2.361
 2506WAT      O 7728   3.104   1.125   2.964
 2506WAT     H1 7729   3.176   1.175   2.929
 2506WAT     H2 7730   3.080   1.064   2.894
 2507WAT      O 7731   2.646   0.287   2.390
 2507WAT     H1 7732   2.575   0.228   2.366
 2507WAT     H2 7733   2.635   0.362   2.332
 2508WAT      O 7734   2.650   1.144   3.579
 2508WAT     H1 7735   2.640   1.061   3.532
 2508WAT     H2 7736   2.565   1.159   3.620
 2509WAT      O 7737   2.920   0.708   2.216
 2509WAT     H1 7738   3.006   0.745   2.197
 2509WAT     H2 7739   2.925   0.618   2.184
 2510WAT      O 7740   2.031   1.211   2.773
 2510WAT     H1 7741   2.081   1.136   2.741
 2510WAT     H2 7742   1.988   1.180   2.853
 2511WAT      O 7743   2.531   1.331   2.286
 2511WAT     H1 7744   2.558   1.410   2.239
 2511WAT     H2 7745   2.446   1.353   2.323
 2512WAT      O 7746   1.774   0.909   3.445
 2512WAT     H1 7747   1.730   0.965   3.509
 2512WAT     H2 7748   1.757   0.820   3.476
 2513WAT      O 7749   2.095   0.947   3.739
 2513WAT     H1 7750   2.075   0.968   3.648
 2513WAT     H2 7751   2.177   0.897   3.734
 2514WAT      O 7752   3.150   0.847   2.156
 2514WAT     H1 7753   3.138   0.888   2.071
 2514WAT     H2 7754   3.218   0.899   2.199
 2515WAT      O 7755   3.254   1.094   3.458
 2515WAT     H1 7756   3.181   1.155   3.441
 2515WAT     H2 7757   3.302   1.091   3.375
 2516WAT      O 7758   3.265   1.527   2.427
 2516WAT     H1 7759   3.196   1.469   2.459
 2516WAT     H2 7760   3.228   1.568   2.349
 2517WAT      O 7761   2.817   1.259   2.817
 2517WAT     H1 7762   2.842   1.195   2.751
 2517WAT     H2 7763   2.727   1.238   2.839
 2518WAT      O 7764   2.408   1.331   2.564
 2518WAT     H1 7765   2.484   1.384   2.588
 2518WAT     H2 7766   2.335   1.393   2.565
 2519WAT      O 7767   1.621   0.893   2.107
 2519WAT     H1 7768   1.709   0.908   2.139
 2519WAT     H2 7769   1.584   0.981   2.094
 2520WAT      O 7770   2.360   1.045   2.531
 2520WAT     H1 7771   2.388   1.135   2.550
 2520WAT     H2 7772   2.309   1.019   2.607
 2521WAT      O 7773   2.581   1.595   3.238
 2521WAT     H1 7774   2.639   1.608   3.312
 2521WAT     H2 7775   2.610   1.512   3.198
 2522WAT      O 7776   2.713   1.390   3.116
 2522WAT     H1 7777   2.765   1.312   3.133
 2522WAT     H2 7778   2.775   1.453   3.079
 2523WAT      O 7779   3.084   1.414   2.084
 2523WAT     H1 7780   3.067   1.337   2.138
 2523WAT     H2 7781   3.063   1.386   1.995
 2524WAT      O 7782   2.883   1.483   3.436
 2524WAT     H1 7783   2.907   1.526   3.518
 2524WAT     H2 7784   2.801   1.438   3.456
 2525WAT      O 7785   1.681   1.830   2.156
 2525WAT     H1 7786   1.714   1.902   2.102
 2525WAT     H2 7787   1.655   1.873   2.238
 2526WAT      O 7788   1.650   0.257   3.528
 2526WAT     H1 7789   1.561   0.262   3.565
 2526WAT     H2 7790   1.676   0.166   3.541
 2527WAT      O 7791   3.052   1.205   2.258
 2527WAT     H1 7792   3.024   1.253   2.336
 2527WAT     H2 7793   3.134   1.163   2.283
 2528WAT      O 7794   2.281   1.553   2.245
 2528WAT     H1 7795   2.278   1.628   2.185
 2528WAT     H2 7796   2.190   1.523   2.252
 2529WAT      O 7797   1.825   1.086   2.318
 2529WAT     H1 7798   1.756   1.149   2.298
 2529WAT     H2 7799   1.871   1.073   2.235
 2530WAT      O 7800   2.781   0.496   3.283
 2530WAT     H1 7801   2.827   0.423   3.324
 2530WAT     H2 7802   2.696   0.498   3.327
 2531WAT      O 7803   3.124   0.411   2.375
 2531WAT     H1 7804   3.070   0.410   2.296
 2531WAT     H2 7805   3.063   0.395   2.447
 2532WAT      O 7806   2.560   1.558   2.118
 2532WAT     H1 7807   2.572   1.535   2.026
 2532WAT     H2 7808   2.467   1.544   2.135
 2533WAT      O 7809   2.323   0.617   2.507
 2533WAT     H1 7810   2.248   0.662   2.547
 2533WAT     H2 7811   2.353   0.556   2.575
 2534WAT      O 7812   2.470   0.764   3.313
 2534WAT     H1 7813   2.529   0.810   3.373
 2534WAT     H2 7814   2.490   0.672   3.325
 2535WAT      O 7815   2.721   0.310   2.652
 2535WAT     H1 7816   2.703   0.292   2.559
 2535WAT     H2 7817   2.816   0.304   2.659
 2536WAT      O 7818   2.428   1.818   2.582
 2536WAT     H1 7819   2.467   1.810   2.495
 2536WAT     H2 7820   2.335   1.802   2.568
 2537WAT      O 7821   2.136   0.454   2.237
 2537WAT     H1 7822   2.221   0.499   2.236
 2537WAT     H2 7823   2.109   0.456   2.329
 2538WAT      O 7824   3.200   0.385   3.405
 2538WAT     H1 7825   3.148   0.461   3.432
 2538WAT     H2 7826   3.279   0.423   3.366
 2539WAT      O 7827   3.031   0.925   2.750
 2539WAT     H1 7828   2.939   0.899   2.756
 2539WAT     H2 7829   3.080   0.850   2.782
 2540WAT      O 7830   2.024   1.078   2.099
 2540WAT     H1 7831   2.104   1.076   2.152
 2540WAT     H2 7832   2.047   1.030   2.019
 2541WAT      O 7833   1.896   0.822   2.175
 2541WAT     H1 7834   1.898   0.726   2.170
 2541WAT     H2 7835   1.988   0.847   2.178
 2542WAT      O 7836   3.240   1.628   2.901
 2542WAT     H1 7837   3.247   1.709   2.952
 2542WAT     H2 7838   3.328   1.612   2.867
 2543WAT      O 7839   1.983   1.845   2.879
 2543WAT     H1 7840   2.049   1.782   2.908
 2543WAT     H2 7841   2.032   1.925   2.862
 2544WAT      O 7842   1.659   1.448   2.464
 2544WAT     H1 7843   1.569   1.481   2.463
 2544WAT     H2 7844   1.713   1.525   2.443
 2545WAT      O 7845   2.281   1.746   2.055
 2545WAT     H1 7846   2.358   1.792   2.022
 2545WAT     H2 7847   2.246   1.699   1.979
 2546WAT      O 7848   2.759   1.362   3.782
 2546WAT     H1 7849   2.692   1.345   3.715
 2546WAT     H2 7850   2.741   1.298   3.851
 2547WAT      O 7851   3.195   1.676   2.208
 2547WAT     H1 7852   3.164   1.632   2.129
 2547WAT     H2 7853   3.173   1.768   2.194
 2548WAT      O 7854   1.662   1.017   3.693
 2548WAT     H1 7855   1.709   0.946   3.736
 2548WAT     H2 7856   1.578   1.021   3.738
 2549WAT      O 7857   2.344   1.274   2.028
 2549WAT     H1 7858   2.337   1.225   2.110
 2549WAT     H2 7859   2.337   1.208   1.959
 2550WAT      O 7860   2.377   1.160   3.626
 2550WAT     H1 7861   2.285   1.184   3.643
 2550WAT     H2 7862   2.374   1.120   3.539
 2551WAT      O 7863   2.662   1.174   2.100
 2551WAT     H1 7864   2.615   1.223   2.168
 2551WAT     H2 7865   2.725   1.121   2.148
 2552WAT      O 7866   3.075   1.328   3.699
 2552WAT     H1 7867   3.151   1.349   3.644
 2552WAT     H2 7868   3.000   1.336   3.640
 2553WAT      O 7869   1.845   0.818   3.775
 2553WAT     H1 7870   1.852   0.797   3.868
 2553WAT     H2 7871   1.932   0.848   3.750
 2554WAT      O 7872   2.231   1.070   2.289
 2554WAT     H1 7873   2.279   1.066   2.372
 2554WAT     H2 7874   2.250   0.987   2.246
 2555WAT      O 7875   2.050   0.673   3.573
 2555WAT     H1 7876   1.990   0.631   3.512
 2555WAT     H2 7877   2.114   0.717   3.517
 2556WAT      O 7878   2.489   0.966   2.033
 2556WAT     H1 7879   2.543   0.911   1.975
 2556WAT     H2 7880   2.542   1.043   2.050
 2557WAT      O 7881   2.931   1.114   3.557
 2557WAT     H1 7882   2.977   1.142   3.636
 2557WAT     H2 7883   2.839   1.132   3.575
 2558WAT      O 7884   2.996   0.854   3.744
 2558WAT     H1 7885   3.053   0.778   3.730
 2558WAT     H2 7886   3.012   0.911   3.669
 2559WAT      O 7887   2.099   0.375   3.590
 2559WAT     H1 7888   2.103   0.308   3.521
 2559WAT     H2 7889   2.025   0.430   3.565
 2560WAT      O 7890   2.379   0.246   3.295
 2560WAT     H1 7891   2.345   0.243   3.205
 2560WAT     H2 7892   2.320   0.189   3.344
 2561WAT      O 7893   2.398   1.116   3.353
 2561WAT     H1 7894   2.457   1.188   3.329
 2561WAT     H2 7895   2.318   1.133   3.304
 2562WAT      O 7896   2.647   0.878   3.486
 2562WAT     H1 7897   2.673   0.836   3.568
 2562WAT     H2 7898   2.729   0.890   3.438
 2563WAT      O 7899   2.872   0.946   3.346
 2563WAT     H1 7900   2.850   1.001   3.271
 2563WAT     H2 7901   2.912   1.007   3.408
 2564WAT      O 7902   2.122   0.675   1.992
 2564WAT     H1 7903   2.095   0.587   2.019
 2564WAT     H2 7904   2.102   0.677   1.898
 2565WAT      O 7905   2.335   0.540   3.607
 2565WAT     H1 7906   2.386   0.505   3.680
 2565WAT     H2 7907   2.255   0.489   3.606
 2566WAT      O 7908   2.816   0.508   3.646
 2566WAT     H1 7909   2.742   0.450   3.625
 2566WAT     H2 7910   2.881   0.450   3.685
 2567WAT      O 7911   2.007   0.403   1.977
 2567WAT     H1 7912   2.045   0.382   1.891
 2567WAT     H2 7913   2.074   0.375   2.040
 2568WAT      O 7914   2.333   0.283   2.072
 2568WAT     H1 7915   2.296   0.211   2.021
 2568WAT     H2 7916   2.327   0.254   2.163
 2569WAT      O 7917   2.542   1.798   2.261
 2569WAT     H1 7918   2.632   1.828   2.257
 2569WAT     H2 7919   2.540   1.718   2.208
 2570WAT      O 7920   1.910   1.323   2.058
 2570WAT     H1 7921   1.947   1.378   2.127
 2570WAT     H2 7922   1.950   1.237   2.071
 2571WAT      O 7923   1.626   1.600   2.820
 2571WAT     H1 7924   1.666   1.515   2.798
 2571WAT     H2 7925   1.660   1.620   2.907
 2572WAT      O 7926   2.097   1.438   2.585
 2572WAT     H1 7927   2.064   1.410   2.670
 2572WAT     H2 7928   2.079   1.365   2.526
 2573WAT      O 7929   1.671   1.690   3.082
 2573WAT     H1 7930   1.630   1.701   3.167
 2573WAT     H2 7931   1.720   1.771   3.068
 2574WAT      O 7932   3.260   1.648   3.497
 2574WAT     H1 7933   3.176   1.655   3.450
 2574WAT     H2 7934   3.263   1.557   3.526
 2575WAT      O 7935   3.361   1.411   2.059
 2575WAT     H1 7936   3.269   1.419   2.082
 2575WAT     H2 7937   3.384   1.496   2.022
 2576WAT      O 7938   3.301   1.085   2.298
 2576WAT     H1 7939   3.375   1.146   2.301
 2576WAT     H2 7940   3.311   1.032   2.377
 2577WAT      O 7941   1.653   0.934   2.714
 2577WAT     H1 7942   1.588   0.913   2.647
 2577WAT     H2 7943   1.737   0.923   2.671
 2578WAT      O 7944   3.414   1.177   2.802
 2578WAT     H1 7945   3.447   1.096   2.764
 2578WAT     H2 7946   3.473   1.245   2.767
 2579WAT      O 7947   3.090   1.306   3.325
 2579WAT     H1 7948   3.022   1.363   3.360
 2579WAT     H2 7949   3.142   1.362   3.267
 2580WAT      O 7950   3.337   1.117   2.023
 2580WAT     H1 7951   3.341   1.211   2.004
 2580WAT     H2 7952   3.300   1.112   2.111
 2581WAT      O 7953   2.967   0.416   2.148
 2581WAT     H1 7954   2.999   0.401   2.059
 2581WAT     H2 7955   2.906   0.344   2.164
 2582WAT      O 7956   3.300   0.913   2.517
 2582WAT     H1 7957   3.266   0.830   2.485
 2582WAT     H2 7958   3.228   0.951   2.568
 2583WAT      O 7959   1.772   0.974   3.176
 2583WAT     H1 7960   1.785   0.959   3.270
 2583WAT     H2 7961   1.707   0.910   3.150
 2584WAT      O 7962   3.248   0.819   3.487
 2584WAT     H1 7963   3.231   0.799   3.395
 2584WAT     H2 7964   3.256   0.914   3.489
 2585WAT      O 7965   1.710   0.675   3.573
 2585WAT     H1 7966   1.623   0.659   3.609
 2585WAT     H2 7967   1.762   0.706   3.647
 2586WAT      O 7968   3.084   0.346   3.771
 2586WAT     H1 7969   3.174   0.346   3.805
 2586WAT     H2 7970   3.087   0.284   3.698
 2587WAT      O 7971   1.576   0.655   2.306
 2587WAT     H1 7972   1.488   0.690   2.318
 2587WAT     H2 7973   1.610   0.700   2.228
 2588WAT      O 7974   3.220   0.741   2.850
 2588WAT     H1 7975   3.266   0.689   2.785
 2588WAT     H2 7976   3.290   0.773   2.909
 2589WAT      O 7977   3.246   0.738   3.204
 2589WAT     H1 7978   3.150   0.731   3.205
 2589WAT     H2 7979   3.263   0.828   3.177
 2590WAT      O 7980   1.838   0.562   2.119
 2590WAT     H1 7981   1.893   0.504   2.065
 2590WAT     H2 7982   1.759   0.573   2.067
 2591WAT      O 7983   3.205   0.664   2.452
 2591WAT     H1 7984   3.236   0.624   2.533
 2591WAT     H2 7985   3.164   0.592   2.403
 2592WAT      O 7986   3.320   0.525   2.694
 2592WAT     H1 7987   3.315   0.500   2.786
 2592WAT     H2 7988   3.405   0.490   2.665
 2593WAT      O 7989   3.405   0.299   2.014
 2593WAT     H1 7990   3.498   0.302   1.993
 2593WAT     H2 7991   3.401   0.323   2.107
 2594WAT      O 7992   3.418   0.380   2.286
 2594WAT     H1 7993   3.331   0.375   2.326
 2594WAT     H2 7994   3.439   0.473   2.287
 2595WAT      O 7995   3.122   1.785   2.693
 2595WAT     H1 7996   3.182   1.769   2.621
 2595WAT     H2 7997   3.148   1.722   2.760
 2596WAT      O 7998   2.489   0.226   3.641
 2596WAT     H1 7999   2.491   0.302   3.699
 2596WAT     H2 8000   2.580   0.216   3.612
 2597WAT      O 8001   3.406   1.787   3.312
 2597WAT     H1 8002   3.339   1.827   3.255
 2597WAT     H2 8003   3.355   1.738   3.377
 2598WAT      O 8004   2.921   0.275   3.365
 2598WAT     H1 8005   2.906   0.189   3.326
 2598WAT     H2 8006   3.016   0.286   3.362
 2599WAT      O 8007   3.164   1.850   3.062
 2599WAT     H1 8008   3.136   1.934   3.025
 2599WAT     H2 8009   3.087   1.794   3.055
 2600WAT      O 8010   1.853   1.463   3.304
 2600WAT     H1 8011   1.768   1.419   3.306
 2600WAT     H2 8012   1.863   1.490   3.212
 2601WAT      O 8013   2.207   1.683   2.977
 2601WAT     H1 8014   2.260   1.620   2.928
 2601WAT     H2 8015   2.271   1.737   3.023
 2602WAT      O 8016   2.486   1.776   3.054
 2602WAT     H1 8017   2.526   1.751   2.971
 2602WAT     H2 8018   2.518   1.711   3.116
 2603WAT      O 8019   3.060   0.222   2.940
 2603WAT     H1 8020   3.105   0.208   2.857
 2603WAT     H2 8021   3.031   0.313   2.936
 2604WAT      O 8022   1.684   1.790   2.618
 2604WAT     H1 8023   1.667   1.731   2.691
 2604WAT     H2 8024   1.597   1.810   2.583
 2605WAT      O 8025   1.741   0.185   2.377
 2605WAT     H1 8026   1.817   0.200   2.321
 2605WAT     H2 8027   1.679   0.253   2.351
 2606WAT      O 8028   2.383   0.388   2.680
 2606WAT     H1 8029   2.308   0.341   2.643
 2606WAT     H2 8030   2.454   0.325   2.678
 2607WAT      O 8031   1.823   1.659   2.373
 2607WAT     H1 8032   1.791   1.708   2.297
 2607WAT     H2 8033   1.823   1.722   2.444
 2608WAT      O 8034   3.314   1.813   2.494
 2608WAT     H1 8035   3.320   1.734   2.440
 2608WAT     H2 8036   3.268   1.876   2.440
 2609WAT      O 8037   2.112   1.869   2.252
 2609WAT     H1 8038   2.174   1.826   2.192
 2609WAT     H2 8039   2.132   1.831   2.337
 2610WAT      O 8040   2.013   1.474   2.263
 2610WAT     H1 8041   1.953   1.530   2.311
 2610WAT     H2 8042   2.024   1.397   2.318
 2611WAT      O 8043   2.760   0.874   0.859
 2611WAT     H1 8044   2.745   0.780   0.847
 2611WAT     H2 8045   2.712   0.916   0.788
 2612WAT      O 8046   2.574   1.051   1.047
 2612WAT     H1 8047   2.506   0.999   1.090
 2612WAT     H2 8048   2.645   0.989   1.032
 2613WAT      O 8049   1.966   1.095   1.143
 2613WAT     H1 8050   1.897   1.048   1.189
 2613WAT     H2 8051   2.040   1.095   1.204
 2614WAT      O 8052   2.975   1.498   0.932
 2614WAT     H1 8053   2.929   1.417   0.953
 2614WAT     H2 8054   3.056   1.494   0.983
 2615WAT      O 8055   1.979   1.486   1.173
 2615WAT     H1 8056   2.015   1.402   1.142
 2615WAT     H2 8057   2.045   1.551   1.147
 2616WAT      O 8058   1.819   0.592   0.519
 2616WAT     H1 8059   1.725   0.604   0.511
 2616WAT     H2 8060   1.847   0.566   0.431
 2617WAT      O 8061   1.601   0.819   1.097
 2617WAT     H1 8062   1.673   0.758   1.109
 2617WAT     H2 8063   1.625   0.869   1.019
 2618WAT      O 8064   2.597   1.725   0.910
 2618WAT     H1 8065   2.535   1.757   0.844
 2618WAT     H2 8066   2.683   1.746   0.874
 2619WAT      O 8067   2.504   1.315   1.063
 2619WAT     H1 8068   2.523   1.222   1.048
 2619WAT     H2 8069   2.575   1.345   1.119
 2620WAT      O 8070   1.733   0.389   1.296
 2620WAT     H1 8071   1.728   0.299   1.328
 2620WAT     H2 8072   1.677   0.439   1.356
 2621WAT      O 8073   2.616   0.607   1.069
 2621WAT     H1 8074   2.667   0.529   1.092
 2621WAT     H2 8075   2.631   0.619   0.976
 2622WAT      O 8076   2.042   0.445   0.621
 2622WAT     H1 8077   2.057   0.525   0.670
 2622WAT     H2 8078   1.947   0.444   0.605
 2623WAT      O 8079   3.002   0.352   0.775
 2623WAT     H1 8080   3.091   0.315   0.774
 2623WAT     H2 8081   3.005   0.419   0.844
 2624WAT      O 8082   1.796   0.627   1.156
 2624WAT     H1 8083   1.878   0.648   1.200
 2624WAT     H2 8084   1.769   0.543   1.194
 2625WAT      O 8085   2.226   0.746   1.064
 2625WAT     H1 8086   2.289   0.794   1.117
 2625WAT     H2 8087   2.268   0.661   1.049
 2626WAT      O 8088   3.419   0.553   1.431
 2626WAT     H1 8089   3.360   0.611   1.384
 2626WAT     H2 8090   3.461   0.609   1.496
 2627WAT      O 8091   2.690   1.211   0.630
 2627WAT     H1 8092   2.623   1.246   0.571
 2627WAT     H2 8093   2.720   1.288   0.679
 2628WAT      O 8094   2.186   1.170   1.310
 2628WAT     H1 8095   2.142   1.227   1.374
 2628WAT     H2 8096   2.201   1.226   1.234
 2629WAT      O 8097   3.035   0.534   1.045
 2629WAT     H1 8098   2.958   0.556   1.097
 2629WAT     H2 8099   3.074   0.618   1.021
 2630WAT      O 8100   2.017   0.371   1.287
 2630WAT     H1 8101   2.047   0.461   1.273
 2630WAT     H2 8102   1.922   0.380   1.297
 2631WAT      O 8103   2.101   1.370   1.481
 2631WAT     H1 8104   2.156   1.442   1.450
 2631WAT     H2 8105   2.011   1.401   1.469
 2632WAT      O 8106   1.621   1.270   0.383
 2632WAT     H1 8107   1.606   1.322   0.305
 2632WAT     H2 8108   1.642   1.333   0.451
 2633WAT      O 8109   3.176   1.500   1.275
 2633WAT     H1 8110   3.122   1.577   1.293
 2633WAT     H2 8111   3.229   1.526   1.200
 2634WAT      O 8112   3.323   0.486   1.094
 2634WAT     H1 8113   3.229   0.494   1.111
 2634WAT     H2 8114   3.362   0.560   1.142
 2635WAT      O 8115   2.941   1.694   1.146
 2635WAT     H1 8116   2.940   1.649   1.062
 2635WAT     H2 8117   2.880   1.767   1.135
 2636WAT      O 8118   3.071   1.359   0.657
 2636WAT     H1 8119   3.058   1.264   0.667
 2636WAT     H2 8120   3.052   1.394   0.744
 2637WAT      O 8121   2.890   1.183   1.284
 2637WAT     H1 8122   2.934   1.158   1.203
 2637WAT     H2 8123   2.961   1.212   1.341
 2638WAT      O 8124   2.625   0.930   0.611
 2638WAT     H1 8125   2.529   0.933   0.615
 2638WAT     H2 8126   2.651   1.020   0.591
 2639WAT      O 8127   2.625   0.536   0.283
 2639WAT     H1 8128   2.535   0.557   0.309
 2639WAT     H2 8129   2.663   0.620   0.257
 2640WAT      O 8130   3.270   1.017   1.289
 2640WAT     H1 8131   3.194   1.046   1.239
 2640WAT     H2 8132   3.342   1.072   1.258
 2641WAT      O 8133   3.023   1.085   0.653
 2641WAT     H1 8134   2.960   1.051   0.590
 2641WAT     H2 8135   3.020   1.023   0.725
 2642WAT      O 8136   2.972   0.703   1.383
 2642WAT     H1 8137   2.930   0.788   1.399
 2642WAT     H2 8138   2.900   0.642   1.371
 2643WAT      O 8139   2.180   0.970   0.867
 2643WAT     H1 8140   2.147   0.896   0.815
 2643WAT     H2 8141   2.196   0.933   0.954
 2644WAT      O 8142   2.230   1.332   1.090
 2644WAT     H1 8143   2.199   1.292   1.009
 2644WAT     H2 8144   2.325   1.339   1.079
 2645WAT      O 8145   2.052   0.651   1.255
 2645WAT     H1 8146   2.104   0.677   1.179
 2645WAT     H2 8147   2.092   0.698   1.329
 2646WAT      O 8148   3.038   1.694   1.456
 2646WAT     H1 8149   3.004   1.780   1.432
 2646WAT     H2 8150   2.961   1.639   1.464
 2647WAT      O 8151   2.143   1.324   1.746
 2647WAT     H1 8152   2.056   1.344   1.780
 2647WAT     H2 8153   2.134   1.333   1.651
 2648WAT      O 8154   2.845   1.010   0.354
 2648WAT     H1 8155   2.881   0.923   0.336
 2648WAT     H2 8156   2.921   1.069   0.347
 2649WAT      O 8157   2.024   1.015   1.608
 2649WAT     H1 8158   1.999   1.105   1.628
 2649WAT     H2 8159   1.942   0.971   1.587
 2650WAT      O 8160   2.647   1.491   0.739
 2650WAT     H1 8161   2.701   1.560   0.701
 2650WAT     H2 8162   2.635   1.517   0.830
 2651WAT      O 8163   2.213   1.601   1.830
 2651WAT     H1 8164   2.202   1.648   1.747
 2651WAT     H2 8165   2.186   1.512   1.811
 2652WAT      O 8166   1.849   0.864   0.629
 2652WAT     H1 8167   1.844   0.936   0.566
 2652WAT     H2 8168   1.831   0.786   0.577
 2653WAT      O 8169   3.405   1.673   1.964
 2653WAT     H1 8170   3.448   1.725   2.032
 2653WAT     H2 8171   3.464   1.678   1.889
 2654WAT      O 8172   1.610   1.176   1.208
 2654WAT     H1 8173   1.608   1.193   1.114
 2654WAT     H2 8174   1.679   1.112   1.220
 2655WAT      O 8175   1.733   1.352   0.836
 2655WAT     H1 8176   1.712   1.379   0.747
 2655WAT     H2 8177   1.824   1.322   0.832
 2656WAT      O 8178   3.322   1.384   1.671
 2656WAT     H1 8179   3.362   1.369   1.585
 2656WAT     H2 8180   3.346   1.307   1.722
 2657WAT      O 8181   2.728   1.761   1.542
 2657WAT     H1 8182   2.776   1.755   1.624
 2657WAT     H2 8183   2.644   1.798   1.566
 2658WAT      O 8184   2.914   1.799   0.479
 2658WAT     H1 8185   2.896   1.769   0.568
 2658WAT     H2 8186   2.915   1.720   0.426
 2659WAT      O 8187   2.160   1.768   0.644
 2659WAT     H1 8188   2.139   1.675   0.648
 2659WAT     H2 8189   2.081   1.812   0.674
 2660WAT      O 8190   2.890   1.567   0.319
 2660WAT     H1 8191   2.819   1.530   0.268
 2660WAT     H2 8192   2.960   1.502   0.314
 2661WAT      O 8193   2.846   1.705   0.746
 2661WAT     H1 8194   2.901   1.635   0.781
 2661WAT     H2 8195   2.876   1.784   0.791
 2662WAT      O 8196   3.325   0.606   1.775
 2662WAT     H1 8197   3.280   0.671   1.721
 2662WAT     H2 8198   3.276   0.525   1.762
 2663WAT      O 8199   1.621   1.298   1.462
 2663WAT     H1 8200   1.621   1.252   1.379
 2663WAT     H2 8201   1.680   1.246   1.518
 2664WAT      O 8202   2.112   0.217   0.951
 2664WAT     H1 8203   2.055   0.292   0.935
 2664WAT     H2 8204   2.143   0.228   1.040
 2665WAT      O 8205   2.524   0.483   1.524
 2665WAT     H1 8206   2.467   0.507   1.597
 2665WAT     H2 8207   2.484   0.405   1.486
 2666WAT      O 8208   3.039   0.590   1.625
 2666WAT     H1 8209   2.953   0.576   1.666
 2666WAT     H2 8210   3.020   0.640   1.546
 2667WAT      O 8211   2.734   0.765   1.837
 2667WAT     H1 8212   2.758   0.674   1.819
 2667WAT     H2 8213   2.816   0.805   1.866
 2668WAT      O 8214   2.313   0.254   1.151
 2668WAT     H1 8215   2.319   0.347   1.132
 2668WAT     H2 8216   2.359   0.211   1.079
 2669WAT      O 8217   2.078   0.720   0.743
 2669WAT     H1 8218   2.046   0.680   0.824
 2669WAT     H2 8219   2.001   0.761   0.705
 2670WAT      O 8220   2.796   0.711   0.590
 2670WAT     H1 8221   2.739   0.788   0.583
 2670WAT     H2 8222   2.844   0.710   0.507
 2671WAT      O 8223   2.323   0.807   1.792
 2671WAT     H1 8224   2.320   0.713   1.775
 2671WAT     H2 8225   2.409   0.834   1.761
 2672WAT      O 8226   2.681   0.586   0.806
 2672WAT     H1 8227   2.711   0.618   0.721
 2672WAT     H2 8228   2.687   0.491   0.800
 2673WAT      O 8229   1.843   0.451   1.617
 2673WAT     H1 8230   1.793   0.529   1.640
 2673WAT     H2 8231   1.780   0.380   1.623
 2674WAT      O 8232   2.495   0.446   1.928
 2674WAT     H1 8233   2.430   0.406   1.986
 2674WAT     H2 8234   2.559   0.486   1.987
 2675WAT      O 8235   1.572   0.237   1.022
 2675WAT     H1 8236   1.534   0.301   1.082
 2675WAT     H2 8237   1.635   0.189   1.075
 2676WAT      O 8238   2.718   0.832   1.207
 2676WAT     H1 8239   2.643   0.877   1.245
 2676WAT     H2 8240   2.681   0.753   1.168
 2677WAT      O 8241   2.364   0.507   1.046
 2677WAT     H1 8242   2.369   0.472   0.957
 2677WAT     H2 8243   2.451   0.542   1.063
 2678WAT      O 8244   1.943   0.496   0.937
 2678WAT     H1 8245   1.909   0.542   1.013
 2678WAT     H2 8246   1.866   0.457   0.896
 2679WAT      O 8247   2.374   0.606   0.366
 2679WAT     H1 8248   2.370   0.606   0.462
 2679WAT     H2 8249   2.336   0.690   0.341
 2680WAT      O 8250   2.761   0.393   1.151
 2680WAT     H1 8251   2.770   0.426   1.240
 2680WAT     H2 8252   2.752   0.298   1.162
 2681WAT      O 8253   2.267   0.842   0.268
 2681WAT     H1 8254   2.218   0.797   0.199
 2681WAT     H2 8255   2.343   0.879   0.222
 2682WAT      O 8256   1.786   1.216   1.673
 2682WAT     H1 8257   1.743   1.159   1.736
 2682WAT     H2 8258   1.816   1.291   1.724
 2683WAT      O 8259   2.401   0.914   1.220
 2683WAT     H1 8260   2.424   0.855   1.292
 2683WAT     H2 8261   2.363   0.991   1.263
 2684WAT      O 8262   1.689   0.383   0.828
 2684WAT     H1 8263   1.648   0.338   0.903
 2684WAT     H2 8264   1.697   0.316   0.761
 2685WAT      O 8265   2.173   0.810   1.455
 2685WAT     H1 8266   2.143   0.895   1.489
 2685WAT     H2 8267   2.269   0.815   1.461
 2686WAT      O 8268   2.036   1.240   0.520
 2686WAT     H1 8269   1.959   1.185   0.514
 2686WAT     H2 8270   2.107   1.187   0.485
 2687WAT      O 8271   3.103   1.124   1.087
 2687WAT     H1 8272   3.175   1.176   1.052
 2687WAT     H2 8273   3.080   1.064   1.017
 2688WAT      O 8274   2.646   0.286   0.510
 2688WAT     H1 8275   2.571   0.230   0.488
 2688WAT     H2 8276   2.636   0.363   0.455
 2689WAT      O 8277   2.642   1.145   1.695
 2689WAT     H1 8278   2.636   1.059   1.651
 2689WAT     H2 8279   2.563   1.149   1.749
 2690WAT      O 8280   2.921   0.710   0.338
 2690WAT     H1 8281   3.009   0.744   0.322
 2690WAT     H2 8282   2.924   0.619   0.309
 2691WAT      O 8283   2.030   1.212   0.896
 2691WAT     H1 8284   2.080   1.136   0.863
 2691WAT     H2 8285   1.988   1.180   0.976
 2692WAT      O 8286   2.526   1.333   0.412
 2692WAT     H1 8287   2.541   1.409   0.355
 2692WAT     H2 8288   2.439   1.348   0.448
 2693WAT      O 8289   1.773   0.911   1.569
 2693WAT     H1 8290   1.729   0.965   1.635
 2693WAT     H2 8291   1.758   0.821   1.598
 2694WAT      O 8292   2.095   0.945   1.862
 2694WAT     H1 8293   2.076   0.970   1.772
 2694WAT     H2 8294   2.178   0.897   1.857
 2695WAT      O 8295   2.633   1.417   1.651
 2695WAT     H1 8296   2.629   1.321   1.650
 2695WAT     H2 8297   2.565   1.443   1.713
 2696WAT      O 8298   3.152   0.847   0.280
 2696WAT     H1 8299   3.144   0.891   0.195
 2696WAT     H2 8300   3.215   0.901   0.329
 2697WAT      O 8301   3.255   1.095   1.580
 2697WAT     H1 8302   3.181   1.154   1.565
 2697WAT     H2 8303   3.300   1.092   1.496
 2698WAT      O 8304   3.265   1.527   0.549
 2698WAT     H1 8305   3.197   1.469   0.583
 2698WAT     H2 8306   3.225   1.569   0.473
 2699WAT      O 8307   2.816   1.260   0.937
 2699WAT     H1 8308   2.842   1.194   0.873
 2699WAT     H2 8309   2.727   1.236   0.962
 2700WAT      O 8310   2.407   1.331   0.688
 2700WAT     H1 8311   2.484   1.384   0.710
 2700WAT     H2 8312   2.334   1.394   0.689
 2701WAT      O 8313   1.624   0.890   0.238
 2701WAT     H1 8314   1.718   0.900   0.255
 2701WAT     H2 8315   1.591   0.980   0.237
 2702WAT      O 8316   2.363   1.043   0.654
 2702WAT     H1 8317   2.389   1.133   0.672
 2702WAT     H2 8318   2.310   1.018   0.730
 2703WAT      O 8319   2.567   1.591   1.361
 2703WAT     H1 8320   2.624   1.622   1.432
 2703WAT     H2 8321   2.610   1.511   1.330
 2704WAT      O 8322   2.712   1.392   1.235
 2704WAT     H1 8323   2.764   1.313   1.256
 2704WAT     H2 8324   2.778   1.457   1.211
 2705WAT      O 8325   2.891   1.474   1.570
 2705WAT     H1 8326   2.906   1.542   1.636
 2705WAT     H2 8327   2.798   1.452   1.580
 2706WAT      O 8328   1.678   1.822   0.308
 2706WAT     H1 8329   1.707   1.870   0.230
 2706WAT     H2 8330   1.663   1.891   0.373
 2707WAT      O 8331   1.650   0.257   1.650
 2707WAT     H1 8332   1.562   0.263   1.688
 2707WAT     H2 8333   1.676   0.166   1.664
 2708WAT      O 8334   3.048   1.201   0.378
 2708WAT     H1 8335   3.029   1.253   0.456
 2708WAT     H2 8336   3.135   1.165   0.395
 2709WAT      O 8337   1.666   1.647   1.718
 2709WAT     H1 8338   1.673   1.551   1.715
 2709WAT     H2 8339   1.587   1.668   1.670
 2710WAT      O 8340   2.463   1.468   1.873
 2710WAT     H1 8341   2.425   1.397   1.924
 2710WAT     H2 8342   2.392   1.531   1.862
 2711WAT      O 8343   2.275   1.562   0.371
 2711WAT     H1 8344   2.271   1.619   0.294
 2711WAT     H2 8345   2.187   1.526   0.380
 2712WAT      O 8346   1.822   1.088   0.445
 2712WAT     H1 8347   1.752   1.151   0.430
 2712WAT     H2 8348   1.861   1.074   0.359
 2713WAT      O 8349   2.781   0.495   1.405
 2713WAT     H1 8350   2.827   0.423   1.447
 2713WAT     H2 8351   2.696   0.498   1.449
 2714WAT      O 8352   3.124   0.411   0.499
 2714WAT     H1 8353   3.069   0.410   0.421
 2714WAT     H2 8354   3.063   0.396   0.571
 2715WAT      O 8355   2.323   0.616   0.630
 2715WAT     H1 8356   2.248   0.661   0.670
 2715WAT     H2 8357   2.354   0.556   0.698
 2716WAT      O 8358   2.470   0.765   1.436
 2716WAT     H1 8359   2.529   0.810   1.496
 2716WAT     H2 8360   2.490   0.672   1.448
 2717WAT      O 8361   2.720   0.310   0.773
 2717WAT     H1 8362   2.703   0.292   0.681
 2717WAT     H2 8363   2.816   0.304   0.782
 2718WAT      O 8364   2.427   1.816   0.707
 2718WAT     H1 8365   2.466   1.817   0.619
 2718WAT     H2 8366   2.334   1.801   0.691
 2719WAT      O 8367   2.127   0.469   0.359
 2719WAT     H1 8368   2.218   0.496   0.358
 2719WAT     H2 8369   2.106   0.457   0.452
 2720WAT      O 8370   3.200   0.385   1.527
 2720WAT     H1 8371   3.148   0.461   1.555
 2720WAT     H2 8372   3.279   0.423   1.489
 2721WAT      O 8373   3.031   0.925   0.872
 2721WAT     H1 8374   2.939   0.899   0.879
 2721WAT     H2 8375   3.080   0.849   0.905
 2722WAT      O 8376   1.903   0.837   0.292
 2722WAT     H1 8377   1.891   0.742   0.283
 2722WAT     H2 8378   1.997   0.847   0.310
 2723WAT      O 8379   3.239   1.629   1.023
 2723WAT     H1 8380   3.248   1.709   1.075
 2723WAT     H2 8381   3.328   1.613   0.990
 2724WAT      O 8382   1.983   1.845   1.003
 2724WAT     H1 8383   2.050   1.782   1.031
 2724WAT     H2 8384   2.031   1.925   0.984
 2725WAT      O 8385   1.660   1.449   0.587
 2725WAT     H1 8386   1.570   1.482   0.586
 2725WAT     H2 8387   1.714   1.525   0.565
 2726WAT      O 8388   1.887   1.746   1.923
 2726WAT     H1 8389   1.966   1.783   1.962
 2726WAT     H2 8390   1.832   1.722   1.998
 2727WAT      O 8391   2.774   1.358   1.913
 2727WAT     H1 8392   2.709   1.373   1.845
 2727WAT     H2 8393   2.734   1.292   1.971
 2728WAT      O 8394   2.906   1.739   1.763
 2728WAT     H1 8395   3.000   1.729   1.776
 2728WAT     H2 8396   2.878   1.798   1.834
 2729WAT      O 8397   3.187   1.672   0.327
 2729WAT     H1 8398   3.176   1.643   0.236
 2729WAT     H2 8399   3.182   1.768   0.322
 2730WAT      O 8400   1.659   1.015   1.813
 2730WAT     H1 8401   1.707   0.946   1.860
 2730WAT     H2 8402   1.579   1.027   1.864
 2731WAT      O 8403   2.365   1.153   1.759
 2731WAT     H1 8404   2.285   1.206   1.760
 2731WAT     H2 8405   2.370   1.119   1.670
 2732WAT      O 8406   2.671   1.187   0.227
 2732WAT     H1 8407   2.614   1.220   0.296
 2732WAT     H2 8408   2.726   1.121   0.270
 2733WAT      O 8409   3.074   1.320   1.818
 2733WAT     H1 8410   3.146   1.351   1.762
 2733WAT     H2 8411   2.995   1.350   1.772
 2734WAT      O 8412   1.846   0.816   1.896
 2734WAT     H1 8413   1.851   0.799   1.990
 2734WAT     H2 8414   1.933   0.848   1.873
 2735WAT      O 8415   2.220   1.070   0.421
 2735WAT     H1 8416   2.277   1.061   0.498
 2735WAT     H2 8417   2.238   0.992   0.369
 2736WAT      O 8418   2.051   0.672   1.696
 2736WAT     H1 8419   1.990   0.631   1.634
 2736WAT     H2 8420   2.114   0.717   1.640
 2737WAT      O 8421   2.931   1.103   1.685
 2737WAT     H1 8422   2.982   1.149   1.751
 2737WAT     H2 8423   2.841   1.136   1.697
 2738WAT      O 8424   2.995   0.852   1.868
 2738WAT     H1 8425   3.055   0.780   1.849
 2738WAT     H2 8426   3.008   0.914   1.795
 2739WAT      O 8427   2.099   0.374   1.712
 2739WAT     H1 8428   2.103   0.308   1.644
 2739WAT     H2 8429   2.025   0.430   1.687
 2740WAT      O 8430   2.379   0.246   1.417
 2740WAT     H1 8431   2.345   0.243   1.328
 2740WAT     H2 8432   2.320   0.189   1.467
 2741WAT      O 8433   2.398   1.119   1.479
 2741WAT     H1 8434   2.457   1.189   1.452
 2741WAT     H2 8435   2.318   1.134   1.428
 2742WAT      O 8436   2.647   0.878   1.609
 2742WAT     H1 8437   2.673   0.836   1.691
 2742WAT     H2 8438   2.729   0.891   1.561
 2743WAT      O 8439   2.872   0.946   1.467
 2743WAT     H1 8440   2.851   1.003   1.394
 2743WAT     H2 8441   2.912   1.004   1.532
 2744WAT      O 8442   2.212   1.759   1.586
 2744WAT     H1 8443   2.136   1.808   1.556
 2744WAT     H2 8444   2.229   1.697   1.515
 2745WAT      O 8445   2.336   0.540   1.729
 2745WAT     H1 8446   2.386   0.505   1.803
 2745WAT     H2 8447   2.255   0.489   1.729
 2746WAT      O 8448   2.816   0.508   1.768
 2746WAT     H1 8449   2.742   0.450   1.747
 2746WAT     H2 8450   2.881   0.450   1.807
 2747WAT      O 8451   2.484   1.866   1.603
 2747WAT     H1 8452   2.477   1.954   1.641
 2747WAT     H2 8453   2.395   1.832   1.604
 2748WAT      O 8454   2.536   1.790   0.374
 2748WAT     H1 8455   2.625   1.825   0.376
 2748WAT     H2 8456   2.539   1.717   0.313
 2749WAT      O 8457   1.897   1.304   0.199
 2749WAT     H1 8458   1.934   1.378   0.246
 2749WAT     H2 8459   1.973   1.250   0.176
 2750WAT      O 8460   1.625   1.599   0.943
 2750WAT     H1 8461   1.665   1.516   0.920
 2750WAT     H2 8462   1.660   1.620   1.030
 2751WAT      O 8463   2.097   1.438   0.708
 2751WAT     H1 8464   2.064   1.407   0.793
 2751WAT     H2 8465   2.079   1.366   0.648
 2752WAT      O 8466   1.674   1.690   1.207
 2752WAT     H1 8467   1.630   1.704   1.290
 2752WAT     H2 8468   1.720   1.772   1.190
 2753WAT      O 8469   3.256   1.648   1.623
 2753WAT     H1 8470   3.176   1.655   1.570
 2753WAT     H2 8471   3.261   1.555   1.646
 2754WAT      O 8472   3.302   1.078   0.420
 2754WAT     H1 8473   3.371   1.144   0.419
 2754WAT     H2 8474   3.314   1.031   0.502
 2755WAT      O 8475   1.653   0.935   0.837
 2755WAT     H1 8476   1.588   0.913   0.770
 2755WAT     H2 8477   1.737   0.923   0.794
 2756WAT      O 8478   3.414   1.177   0.924
 2756WAT     H1 8479   3.448   1.096   0.887
 2756WAT     H2 8480   3.473   1.245   0.889
 2757WAT      O 8481   3.089   1.306   1.448
 2757WAT     H1 8482   3.023   1.362   1.488
 2757WAT     H2 8483   3.138   1.364   1.390
 2758WAT      O 8484   2.967   0.415   0.277
 2758WAT     H1 8485   2.991   0.402   0.185
 2758WAT     H2 8486   2.900   0.349   0.293
 2759WAT      O 8487   3.301   0.912   0.643
 2759WAT     H1 8488   3.266   0.830   0.609
 2759WAT     H2 8489   3.229   0.952   0.691
 2760WAT      O 8490   1.771   0.975   1.300
 2760WAT     H1 8491   1.785   0.960   1.393
 2760WAT     H2 8492   1.708   0.909   1.273
 2761WAT      O 8493   3.249   0.819   1.609
 2761WAT     H1 8494   3.231   0.799   1.517
 2761WAT     H2 8495   3.255   0.914   1.612
 2762WAT      O 8496   1.711   0.674   1.696
 2762WAT     H1 8497   1.623   0.659   1.732
 2762WAT     H2 8498   1.762   0.707   1.770
 2763WAT      O 8499   3.084   0.346   1.894
 2763WAT     H1 8500   3.174   0.346   1.928
 2763WAT     H2 8501   3.087   0.284   1.821
 2764WAT      O 8502   1.574   0.656   0.414
 2764WAT     H1 8503   1.488   0.690   0.439
 2764WAT     H2 8504   1.607   0.722   0.352
 2765WAT      O 8505   3.220   0.741   0.973
 2765WAT     H1 8506   3.266   0.689   0.908
 2765WAT     H2 8507   3.289   0.773   1.032
 2766WAT      O 8508   3.246   0.738   1.325
 2766WAT     H1 8509   3.150   0.732   1.327
 2766WAT     H2 8510   3.263   0.828   1.300
 2767WAT      O 8511   1.842   0.572   0.235
 2767WAT     H1 8512   1.910   0.514   0.200
 2767WAT     H2 8513   1.770   0.565   0.173
 2768WAT      O 8514   3.208   0.663   0.573
 2768WAT     H1 8515   3.236   0.624   0.656
 2768WAT     H2 8516   3.166   0.591   0.526
 2769WAT      O 8517   3.320   0.525   0.817
 2769WAT     H1 8518   3.315   0.500   0.909
 2769WAT     H2 8519   3.404   0.489   0.788
 2770WAT      O 8520   3.425   0.380   0.422
 2770WAT     H1 8521   3.333   0.373   0.447
 2770WAT     H2 8522   3.439   0.474   0.412
 2771WAT      O 8523   3.121   1.785   0.816
 2771WAT     H1 8524   3.182   1.769   0.744
 2771WAT     H2 8525   3.147   1.722   0.883
 2772WAT      O 8526   1.897   1.433   1.817
 2772WAT     H1 8527   1.894   1.396   1.906
 2772WAT     H2 8528   1.903   1.527   1.830
 2773WAT      O 8529   2.274   1.584   1.381
 2773WAT     H1 8530   2.248   1.606   1.292
 2773WAT     H2 8531   2.370   1.588   1.380
 2774WAT      O 8532   2.489   0.226   1.763
 2774WAT     H1 8533   2.491   0.302   1.821
 2774WAT     H2 8534   2.580   0.216   1.735
 2775WAT      O 8535   3.405   1.782   1.435
 2775WAT     H1 8536   3.339   1.832   1.386
 2775WAT     H2 8537   3.356   1.736   1.502
 2776WAT      O 8538   1.884   1.726   1.541
 2776WAT     H1 8539   1.819   1.707   1.608
 2776WAT     H2 8540   1.886   1.647   1.487
 2777WAT      O 8541   2.921   0.275   1.488
 2777WAT     H1 8542   2.906   0.189   1.450
 2777WAT     H2 8543   3.016   0.287   1.485
 2778WAT      O 8544   3.164   1.859   1.186
 2778WAT     H1 8545   3.127   1.935   1.140
 2778WAT     H2 8546   3.092   1.795   1.187
 2779WAT      O 8547   1.851   1.472   1.421
 2779WAT     H1 8548   1.770   1.421   1.425
 2779WAT     H2 8549   1.866   1.486   1.327
 2780WAT      O 8550   2.216   1.678   1.113
 2780WAT     H1 8551   2.259   1.622   1.048
 2780WAT     H2 8552   2.283   1.743   1.137
 2781WAT      O 8553   2.484   1.773   1.173
 2781WAT     H1 8554   2.528   1.751   1.091
 2781WAT     H2 8555   2.521   1.712   1.237
 2782WAT      O 8556   3.059   0.221   1.062
 2782WAT     H1 8557   3.106   0.209   0.980
 2782WAT     H2 8558   3.031   0.313   1.060
 2783WAT      O 8559   1.684   1.790   0.742
 2783WAT     H1 8560   1.666   1.731   0.814
 2783WAT     H2 8561   1.598   1.811   0.705
 2784WAT      O 8562   1.741   0.189   0.504
 2784WAT     H1 8563   1.814   0.196   0.442
 2784WAT     H2 8564   1.677   0.253   0.474
 2785WAT      O 8565   2.382   0.388   0.802
 2785WAT     H1 8566   2.308   0.341   0.764
 2785WAT     H2 8567   2.454   0.325   0.801
 2786WAT      O 8568   1.824   1.658   0.494
 2786WAT     H1 8569   1.787   1.704   0.419
 2786WAT     H2 8570   1.823   1.723   0.565
 2787WAT      O 8571   2.490   1.867   1.924
 2787WAT     H1 8572   2.582   1.841   1.925
 2787WAT     H2 8573   2.488   1.948   1.872
 2788WAT      O 8574   3.314   1.813   0.618
 2788WAT     H1 8575   3.325   1.736   0.562
 2788WAT     H2 8576   3.268   1.876   0.563
 2789WAT      O 8577   2.112   1.873   0.381
 2789WAT     H1 8578   2.172   1.826   0.323
 2789WAT     H2 8579   2.127   1.834   0.467
 2790WAT      O 8580   2.015   1.475   0.384
 2790WAT     H1 8581   1.952   1.531   0.430
 2790WAT     H2 8582   2.022   1.397   0.439
 2791WAT      O 8583   3.156   1.787   1.897
 2791WAT     H1 8584   3.235   1.734   1.898
 2791WAT     H2 8585   3.173   1.858   1.959
 2792WAT      O 8586   0.883   4.629   4.614
 2792WAT     H1 8587   0.868   4.535   4.601
 2792WAT     H2 8588   0.834   4.671   4.544
 2793WAT      O 8589   0.697   4.807   4.803
 2793WAT     H1 8590   0.628   4.755   4.844
 2793WAT     H2 8591   0.768   4.744   4.786
 2794WAT      O 8592   1.101   5.241   4.680
 2794WAT     H1 8593   1.056   5.164   4.714
 2794WAT     H2 8594   1.177   5.252   4.737
 2795WAT      O 8595   0.631   5.072   4.815
 2795WAT     H1 8596   0.645   4.978   4.801
 2795WAT     H2 8597   0.699   5.098   4.876
 2796WAT      O 8598   0.741   4.359   4.825
 2796WAT     H1 8599   0.791   4.281   4.846
 2796WAT     H2 8600   0.754   4.373   4.732
 2797WAT      O 8601   1.131   4.107   4.525
 2797WAT     H1 8602   1.210   4.053   4.539
 2797WAT     H2 8603   1.133   4.170   4.597
 2798WAT      O 8604   0.352   4.503   4.813
 2798WAT     H1 8605   0.410   4.549   4.874
 2798WAT     H2 8606   0.390   4.415   4.806
 2799WAT      O 8607   1.542   4.308   5.187
 2799WAT     H1 8608   1.483   4.366   5.138
 2799WAT     H2 8609   1.583   4.365   5.252
 2800WAT      O 8610   0.813   4.965   4.385
 2800WAT     H1 8611   0.747   5.000   4.324
 2800WAT     H2 8612   0.846   5.043   4.430
 2801WAT      O 8613   0.313   4.931   5.072
 2801WAT     H1 8614   0.244   4.982   5.114
 2801WAT     H2 8615   0.326   4.974   4.987
 2802WAT      O 8616   1.160   4.288   4.803
 2802WAT     H1 8617   1.081   4.310   4.852
 2802WAT     H2 8618   1.195   4.373   4.777
 2803WAT      O 8619   1.302   5.266   5.044
 2803WAT     H1 8620   1.233   5.331   5.031
 2803WAT     H2 8621   1.355   5.273   4.965
 2804WAT      O 8622   1.445   4.240   4.851
 2804WAT     H1 8623   1.350   4.251   4.864
 2804WAT     H2 8624   1.484   4.315   4.896
 2805WAT      O 8625   0.505   3.878   4.672
 2805WAT     H1 8626   0.534   3.818   4.603
 2805WAT     H2 8627   0.411   3.887   4.658
 2806WAT      O 8628   1.198   5.112   4.416
 2806WAT     H1 8629   1.181   5.019   4.427
 2806WAT     H2 8630   1.169   5.152   4.498
 2807WAT      O 8631   1.012   4.940   5.038
 2807WAT     H1 8632   1.054   4.912   4.957
 2807WAT     H2 8633   1.085   4.964   5.096
 2808WAT      O 8634   0.747   4.685   4.367
 2808WAT     H1 8635   0.652   4.688   4.367
 2808WAT     H2 8636   0.774   4.775   4.346
 2809WAT      O 8637   0.747   4.299   4.026
 2809WAT     H1 8638   0.659   4.316   4.061
 2809WAT     H2 8639   0.786   4.386   4.017
 2810WAT      O 8640   1.392   4.774   5.046
 2810WAT     H1 8641   1.317   4.801   4.994
 2810WAT     H2 8642   1.465   4.826   5.013
 2811WAT      O 8643   1.145   4.838   4.407
 2811WAT     H1 8644   1.080   4.804   4.346
 2811WAT     H2 8645   1.143   4.777   4.480
 2812WAT      O 8646   1.096   4.458   5.139
 2812WAT     H1 8647   1.053   4.542   5.155
 2812WAT     H2 8648   1.023   4.396   5.126
 2813WAT      O 8649   0.314   4.726   4.625
 2813WAT     H1 8650   0.252   4.668   4.580
 2813WAT     H2 8651   0.324   4.686   4.711
 2814WAT      O 8652   0.358   5.079   4.845
 2814WAT     H1 8653   0.331   5.042   4.761
 2814WAT     H2 8654   0.452   5.095   4.835
 2815WAT      O 8655   0.186   4.394   5.013
 2815WAT     H1 8656   0.223   4.431   4.933
 2815WAT     H2 8657   0.217   4.450   5.083
 2816WAT      O 8658   0.267   5.088   5.500
 2816WAT     H1 8659   0.180   5.081   5.538
 2816WAT     H2 8660   0.250   5.096   5.405
 2817WAT      O 8661   0.969   4.767   4.105
 2817WAT     H1 8662   1.003   4.679   4.088
 2817WAT     H2 8663   1.047   4.823   4.101
 2818WAT      O 8664   0.760   5.254   4.498
 2818WAT     H1 8665   0.821   5.311   4.451
 2818WAT     H2 8666   0.783   5.266   4.590
 2819WAT      O 8667   0.321   5.356   5.585
 2819WAT     H1 8668   0.325   5.391   5.496
 2819WAT     H2 8669   0.318   5.261   5.573
 2820WAT      O 8670   1.322   3.877   3.936
 2820WAT     H1 8671   1.307   3.882   4.030
 2820WAT     H2 8672   1.397   3.935   3.920
 2821WAT      O 8673   1.450   5.142   5.425
 2821WAT     H1 8674   1.487   5.125   5.339
 2821WAT     H2 8675   1.464   5.060   5.474
 2822WAT      O 8676   1.013   5.314   4.090
 2822WAT     H1 8677   0.935   5.301   4.036
 2822WAT     H2 8678   1.083   5.269   4.043
 2823WAT      O 8679   1.453   4.358   5.522
 2823WAT     H1 8680   1.403   4.423   5.473
 2823WAT     H2 8681   1.399   4.280   5.520
 2824WAT      O 8682   0.234   3.963   4.705
 2824WAT     H1 8683   0.172   4.035   4.696
 2824WAT     H2 8684   0.274   3.976   4.791
 2825WAT      O 8685   0.647   4.241   5.277
 2825WAT     H1 8686   0.591   4.263   5.351
 2825WAT     H2 8687   0.610   4.161   5.241
 2826WAT      O 8688   1.160   4.341   5.381
 2826WAT     H1 8689   1.073   4.331   5.420
 2826WAT     H2 8690   1.145   4.393   5.302
 2827WAT      O 8691   0.856   4.516   5.584
 2827WAT     H1 8692   0.882   4.424   5.571
 2827WAT     H2 8693   0.935   4.558   5.618
 2828WAT      O 8694   0.529   3.920   4.204
 2828WAT     H1 8695   0.461   3.917   4.271
 2828WAT     H2 8696   0.539   3.829   4.176
 2829WAT      O 8697   0.431   4.010   4.905
 2829WAT     H1 8698   0.446   4.102   4.882
 2829WAT     H2 8699   0.477   3.961   4.836
 2830WAT      O 8700   0.917   4.465   4.344
 2830WAT     H1 8701   0.861   4.542   4.338
 2830WAT     H2 8702   0.966   4.464   4.262
 2831WAT      O 8703   0.443   4.560   5.547
 2831WAT     H1 8704   0.445   4.467   5.522
 2831WAT     H2 8705   0.531   4.592   5.527
 2832WAT      O 8706   0.803   4.340   4.561
 2832WAT     H1 8707   0.834   4.372   4.476
 2832WAT     H2 8708   0.809   4.245   4.555
 2833WAT      O 8709   0.840   4.587   4.963
 2833WAT     H1 8710   0.764   4.632   4.999
 2833WAT     H2 8711   0.805   4.507   4.924
 2834WAT      O 8712   0.487   4.259   4.798
 2834WAT     H1 8713   0.494   4.225   4.709
 2834WAT     H2 8714   0.574   4.295   4.818
 2835WAT      O 8715   0.500   4.359   4.119
 2835WAT     H1 8716   0.488   4.362   4.214
 2835WAT     H2 8717   0.462   4.441   4.087
 2836WAT      O 8718   0.886   4.140   4.906
 2836WAT     H1 8719   0.894   4.177   4.994
 2836WAT     H2 8720   0.853   4.051   4.921
 2837WAT      O 8721   0.397   4.599   4.032
 2837WAT     H1 8722   0.340   4.554   3.970
 2837WAT     H2 8723   0.464   4.641   3.978
 2838WAT      O 8724   1.210   3.854   5.490
 2838WAT     H1 8725   1.283   3.811   5.532
 2838WAT     H2 8726   1.233   3.857   5.397
 2839WAT      O 8727   0.525   4.669   4.975
 2839WAT     H1 8728   0.546   4.610   5.048
 2839WAT     H2 8729   0.483   4.744   5.016
 2840WAT      O 8730   0.302   4.569   5.196
 2840WAT     H1 8731   0.276   4.656   5.225
 2840WAT     H2 8732   0.396   4.564   5.215
 2841WAT      O 8733   1.227   4.879   4.842
 2841WAT     H1 8734   1.298   4.931   4.805
 2841WAT     H2 8735   1.202   4.819   4.772
 2842WAT      O 8736   0.775   4.032   4.257
 2842WAT     H1 8737   0.691   3.988   4.245
 2842WAT     H2 8738   0.763   4.117   4.213
 2843WAT      O 8739   0.769   4.900   5.447
 2843WAT     H1 8740   0.762   4.814   5.406
 2843WAT     H2 8741   0.691   4.907   5.502
 2844WAT      O 8742   1.044   4.462   4.096
 2844WAT     H1 8743   1.130   4.499   4.074
 2844WAT     H2 8744   1.046   4.374   4.060
 2845WAT      O 8745   0.658   5.086   4.167
 2845WAT     H1 8746   0.682   5.165   4.117
 2845WAT     H2 8747   0.568   5.104   4.196
 2846WAT      O 8748   0.217   4.698   5.612
 2846WAT     H1 8749   0.189   4.708   5.521
 2846WAT     H2 8750   0.301   4.652   5.607
 2847WAT      O 8751   0.760   5.173   5.403
 2847WAT     H1 8752   0.763   5.077   5.404
 2847WAT     H2 8753   0.690   5.195   5.466
 2848WAT      O 8754   1.274   4.601   4.034
 2848WAT     H1 8755   1.260   4.643   3.949
 2848WAT     H2 8756   1.340   4.655   4.077
 2849WAT      O 8757   1.381   4.852   5.336
 2849WAT     H1 8758   1.305   4.907   5.323
 2849WAT     H2 8759   1.421   4.845   5.250
 2850WAT      O 8760   1.387   5.274   4.298
 2850WAT     H1 8761   1.324   5.217   4.342
 2850WAT     H2 8762   1.336   5.324   4.235
 2851WAT      O 8763   0.936   5.012   4.696
 2851WAT     H1 8764   0.963   4.950   4.628
 2851WAT     H2 8765   0.846   4.986   4.717
 2852WAT      O 8766   0.530   5.087   4.445
 2852WAT     H1 8767   0.606   5.141   4.465
 2852WAT     H2 8768   0.456   5.148   4.442
 2853WAT      O 8769   0.483   4.795   4.411
 2853WAT     H1 8770   0.511   4.886   4.425
 2853WAT     H2 8771   0.431   4.774   4.489
 2854WAT      O 8772   0.690   5.347   5.119
 2854WAT     H1 8773   0.745   5.355   5.197
 2854WAT     H2 8774   0.723   5.269   5.075
 2855WAT      O 8775   0.832   5.145   4.993
 2855WAT     H1 8776   0.884   5.067   5.012
 2855WAT     H2 8777   0.896   5.209   4.960
 2856WAT      O 8778   1.208   5.165   3.962
 2856WAT     H1 8779   1.188   5.089   4.016
 2856WAT     H2 8780   1.187   5.137   3.873
 2857WAT      O 8781   1.016   5.222   5.320
 2857WAT     H1 8782   1.034   5.293   5.382
 2857WAT     H2 8783   0.924   5.202   5.333
 2858WAT      O 8784   1.173   4.958   4.136
 2858WAT     H1 8785   1.146   5.009   4.212
 2858WAT     H2 8786   1.256   4.918   4.162
 2859WAT      O 8787   0.404   5.315   4.112
 2859WAT     H1 8788   0.381   5.390   4.056
 2859WAT     H2 8789   0.320   5.278   4.138
 2860WAT      O 8790   0.904   4.250   5.159
 2860WAT     H1 8791   0.949   4.177   5.200
 2860WAT     H2 8792   0.820   4.254   5.204
 2861WAT      O 8793   1.248   4.147   4.251
 2861WAT     H1 8794   1.191   4.161   4.176
 2861WAT     H2 8795   1.190   4.150   4.327
 2862WAT      O 8796   0.689   5.305   3.999
 2862WAT     H1 8797   0.693   5.291   3.904
 2862WAT     H2 8798   0.595   5.307   4.018
 2863WAT      O 8799   0.433   4.360   4.383
 2863WAT     H1 8800   0.389   4.426   4.437
 2863WAT     H2 8801   0.477   4.303   4.446
 2864WAT      O 8802   0.593   4.520   5.191
 2864WAT     H1 8803   0.653   4.565   5.251
 2864WAT     H2 8804   0.614   4.427   5.202
 2865WAT      O 8805   0.852   4.056   4.529
 2865WAT     H1 8806   0.827   4.041   4.438
 2865WAT     H2 8807   0.947   4.063   4.527
 2866WAT      O 8808   0.255   4.213   4.126
 2866WAT     H1 8809   0.344   4.240   4.106
 2866WAT     H2 8810   0.235   4.256   4.210
 2867WAT      O 8811   1.331   4.141   5.274
 2867WAT     H1 8812   1.274   4.210   5.307
 2867WAT     H2 8813   1.408   4.187   5.243
 2868WAT      O 8814   1.153   4.680   4.628
 2868WAT     H1 8815   1.061   4.654   4.634
 2868WAT     H2 8816   1.202   4.604   4.659
 2869WAT      O 8817   1.364   5.373   4.798
 2869WAT     H1 8818   1.363   5.469   4.807
 2869WAT     H2 8819   1.443   5.354   4.748
 2870WAT      O 8820   0.467   5.026   3.909
 2870WAT     H1 8821   0.450   4.980   3.990
 2870WAT     H2 8822   0.460   4.959   3.841
 2871WAT      O 8823   0.499   4.908   5.510
 2871WAT     H1 8824   0.416   4.952   5.527
 2871WAT     H2 8825   0.493   4.878   5.419
 2872WAT      O 8826   0.786   4.930   3.977
 2872WAT     H1 8827   0.738   4.979   4.044
 2872WAT     H2 8828   0.848   4.876   4.026
 2873WAT      O 8829   1.195   5.068   5.562
 2873WAT     H1 8830   1.272   5.109   5.524
 2873WAT     H2 8831   1.122   5.100   5.509
 2874WAT      O 8832   0.361   4.838   4.164
 2874WAT     H1 8833   0.402   4.820   4.248
 2874WAT     H2 8834   0.363   4.754   4.118
 2875WAT      O 8835   0.612   4.721   3.904
 2875WAT     H1 8836   0.671   4.665   3.854
 2875WAT     H2 8837   0.664   4.798   3.926
 2876WAT      O 8838   1.053   4.859   5.436
 2876WAT     H1 8839   1.103   4.902   5.506
 2876WAT     H2 8840   0.962   4.885   5.451
 2877WAT      O 8841   1.113   4.605   5.618
 2877WAT     H1 8842   1.181   4.539   5.609
 2877WAT     H2 8843   1.131   4.667   5.548
 2878WAT      O 8844   0.503   3.996   5.164
 2878WAT     H1 8845   0.463   3.999   5.077
 2878WAT     H2 8846   0.443   3.944   5.217
 2879WAT      O 8847   0.518   4.877   5.234
 2879WAT     H1 8848   0.583   4.941   5.208
 2879WAT     H2 8849   0.443   4.893   5.176
 2880WAT      O 8850   0.770   4.635   5.362
 2880WAT     H1 8851   0.794   4.593   5.444
 2880WAT     H2 8852   0.853   4.645   5.315
 2881WAT      O 8853   0.997   4.700   5.221
 2881WAT     H1 8854   0.972   4.757   5.148
 2881WAT     H2 8855   1.034   4.760   5.287
 2882WAT      O 8856   0.254   4.426   3.877
 2882WAT     H1 8857   0.221   4.341   3.906
 2882WAT     H2 8858   0.219   4.436   3.788
 2883WAT      O 8859   0.462   4.291   5.491
 2883WAT     H1 8860   0.501   4.258   5.572
 2883WAT     H2 8861   0.373   4.256   5.492
 2884WAT      O 8862   0.933   4.258   5.522
 2884WAT     H1 8863   0.867   4.195   5.493
 2884WAT     H2 8864   1.001   4.203   5.562
 2885WAT      O 8865   0.984   3.917   4.110
 2885WAT     H1 8866   1.006   3.833   4.151
 2885WAT     H2 8867   0.914   3.953   4.165
 2886WAT      O 8868   0.464   4.043   3.954
 2886WAT     H1 8869   0.405   3.982   3.909
 2886WAT     H2 8870   0.470   4.008   4.043
 2887WAT      O 8871   0.231   5.180   4.464
 2887WAT     H1 8872   0.174   5.184   4.541
 2887WAT     H2 8873   0.199   5.105   4.415
 2888WAT      O 8874   1.360   5.399   5.395
 2888WAT     H1 8875   1.314   5.393   5.311
 2888WAT     H2 8876   1.388   5.309   5.412
 2889WAT      O 8877   1.482   5.164   3.937
 2889WAT     H1 8878   1.389   5.173   3.957
 2889WAT     H2 8879   1.507   5.249   3.902
 2890WAT      O 8880   1.424   4.839   4.176
 2890WAT     H1 8881   1.497   4.901   4.178
 2890WAT     H2 8882   1.434   4.787   4.255
 2891WAT      O 8883   1.539   4.932   4.681
 2891WAT     H1 8884   1.571   4.851   4.642
 2891WAT     H2 8885   1.595   5.000   4.644
 2892WAT      O 8886   1.213   5.059   5.202
 2892WAT     H1 8887   1.144   5.114   5.240
 2892WAT     H2 8888   1.264   5.120   5.147
 2893WAT      O 8889   1.460   4.872   3.900
 2893WAT     H1 8890   1.463   4.966   3.882
 2893WAT     H2 8891   1.422   4.866   3.988
 2894WAT      O 8892   1.091   4.169   4.026
 2894WAT     H1 8893   1.117   4.157   3.935
 2894WAT     H2 8894   1.039   4.091   4.046
 2895WAT      O 8895   1.423   4.668   4.396
 2895WAT     H1 8896   1.388   4.584   4.363
 2895WAT     H2 8897   1.350   4.706   4.445
 2896WAT      O 8898   1.370   4.576   5.363
 2896WAT     H1 8899   1.354   4.554   5.271
 2896WAT     H2 8900   1.377   4.671   5.364
 2897WAT      O 8901   1.343   4.496   4.729
 2897WAT     H1 8902   1.388   4.444   4.662
 2897WAT     H2 8903   1.413   4.527   4.786
 2898WAT      O 8904   1.368   4.493   5.081
 2898WAT     H1 8905   1.273   4.486   5.082
 2898WAT     H2 8906   1.385   4.583   5.054
 2899WAT      O 8907   1.327   4.416   4.329
 2899WAT     H1 8908   1.358   4.375   4.409
 2899WAT     H2 8909   1.285   4.346   4.280
 2900WAT      O 8910   1.445   4.284   4.571
 2900WAT     H1 8911   1.434   4.253   4.661
 2900WAT     H2 8912   1.528   4.246   4.542
 2901WAT      O 8913   1.296   3.871   5.223
 2901WAT     H1 8914   1.332   3.958   5.235
 2901WAT     H2 8915   1.292   3.859   5.128
 2902WAT      O 8916   1.531   4.050   3.901
 2902WAT     H1 8917   1.621   4.026   3.879
 2902WAT     H2 8918   1.537   4.089   3.988
 2903WAT      O 8919   1.539   4.136   4.166
 2903WAT     H1 8920   1.453   4.134   4.208
 2903WAT     H2 8921   1.564   4.228   4.164
 2904WAT      O 8922   0.402   5.341   5.142
 2904WAT     H1 8923   0.366   5.359   5.055
 2904WAT     H2 8924   0.496   5.349   5.132
 2905WAT      O 8925   0.618   3.991   5.499
 2905WAT     H1 8926   0.606   4.020   5.589
 2905WAT     H2 8927   0.713   3.981   5.489
 2906WAT      O 8928   0.893   3.971   5.479
 2906WAT     H1 8929   0.939   3.988   5.397
 2906WAT     H2 8930   0.948   3.908   5.525
 2907WAT      O 8931   0.958   3.809   5.116
 2907WAT     H1 8932   0.883   3.843   5.068
 2907WAT     H2 8933   0.921   3.746   5.178
 2908WAT      O 8934   1.038   4.030   5.250
 2908WAT     H1 8935   1.018   3.952   5.198
 2908WAT     H2 8936   1.134   4.034   5.250
 2909WAT      O 8937   0.348   5.425   4.884
 2909WAT     H1 8938   0.377   5.376   4.806
 2909WAT     H2 8939   0.405   5.503   4.885
 2910WAT      O 8940   0.728   3.900   5.001
 2910WAT     H1 8941   0.657   3.946   5.047
 2910WAT     H2 8942   0.688   3.819   4.970
 2911WAT      O 8943   1.173   3.963   4.805
 2911WAT     H1 8944   1.237   3.962   4.733
 2911WAT     H2 8945   1.154   4.056   4.818
 2912WAT      O 8946   1.355   3.940   4.604
 2912WAT     H1 8947   1.352   3.848   4.580
 2912WAT     H2 8948   1.437   3.950   4.654
 2913WAT      O 8949   0.507   4.142   4.551
 2913WAT     H1 8950   0.441   4.090   4.504
 2913WAT     H2 8951   0.573   4.078   4.577
 2914WAT      O 8952   0.963   3.810   4.680
 2914WAT     H1 8953   1.032   3.861   4.722
 2914WAT     H2 8954   0.898   3.875   4.653
 2915WAT      O 8955   1.285   3.858   4.211
 2915WAT     H1 8956   1.282   3.950   4.237
 2915WAT     H2 8957   1.200   3.823   4.238
 2916WAT      O 8958   0.329   3.969   4.406
 2916WAT     H1 8959   0.275   3.894   4.430
 2916WAT     H2 8960   0.267   4.029   4.363
 2917WAT      O 8961   0.346   3.893   5.649
 2917WAT     H1 8962   0.303   3.927   5.571
 2917WAT     H2 8963   0.364   3.801   5.628
 2918WAT      O 8964   0.883   4.629   2.736
 2918WAT     H1 8965   0.868   4.535   2.723
 2918WAT     H2 8966   0.834   4.671   2.666
 2919WAT      O 8967   0.697   4.806   2.925
 2919WAT     H1 8968   0.628   4.755   2.967
 2919WAT     H2 8969   0.768   4.744   2.909
 2920WAT      O 8970   1.102   5.241   2.802
 2920WAT     H1 8971   1.056   5.164   2.836
 2920WAT     H2 8972   1.177   5.252   2.860
 2921WAT      O 8973   0.630   5.071   2.937
 2921WAT     H1 8974   0.645   4.978   2.923
 2921WAT     H2 8975   0.699   5.098   2.998
 2922WAT      O 8976   0.740   4.359   2.948
 2922WAT     H1 8977   0.791   4.281   2.969
 2922WAT     H2 8978   0.754   4.373   2.855
 2923WAT      O 8979   1.131   4.107   2.648
 2923WAT     H1 8980   1.210   4.054   2.661
 2923WAT     H2 8981   1.132   4.170   2.720
 2924WAT      O 8982   0.352   4.502   2.936
 2924WAT     H1 8983   0.410   4.549   2.996
 2924WAT     H2 8984   0.390   4.415   2.929
 2925WAT      O 8985   1.542   4.308   3.309
 2925WAT     H1 8986   1.483   4.366   3.261
 2925WAT     H2 8987   1.584   4.364   3.374
 2926WAT      O 8988   0.812   4.965   2.508
 2926WAT     H1 8989   0.747   5.000   2.447
 2926WAT     H2 8990   0.846   5.042   2.553
 2927WAT      O 8991   0.313   4.931   3.195
 2927WAT     H1 8992   0.244   4.983   3.237
 2927WAT     H2 8993   0.326   4.974   3.110
 2928WAT      O 8994   1.160   4.288   2.925
 2928WAT     H1 8995   1.081   4.310   2.976
 2928WAT     H2 8996   1.196   4.373   2.900
 2929WAT      O 8997   1.302   5.265   3.166
 2929WAT     H1 8998   1.233   5.331   3.155
 2929WAT     H2 8999   1.355   5.273   3.086
 2930WAT      O 9000   1.445   4.240   2.973
 2930WAT     H1 9001   1.351   4.251   2.987
 2930WAT     H2 9002   1.484   4.316   3.018
 2931WAT      O 9003   0.505   3.877   2.795
 2931WAT     H1 9004   0.534   3.818   2.726
 2931WAT     H2 9005   0.410   3.886   2.780
 2932WAT      O 9006   1.197   5.112   2.538
 2932WAT     H1 9007   1.182   5.019   2.550
 2932WAT     H2 9008   1.169   5.152   2.620
 2933WAT      O 9009   1.012   4.939   3.161
 2933WAT     H1 9010   1.055   4.912   3.080
 2933WAT     H2 9011   1.084   4.965   3.218
 2934WAT      O 9012   0.747   4.685   2.490
 2934WAT     H1 9013   0.652   4.688   2.490
 2934WAT     H2 9014   0.774   4.775   2.469
 2935WAT      O 9015   0.747   4.299   2.149
 2935WAT     H1 9016   0.659   4.316   2.183
 2935WAT     H2 9017   0.787   4.386   2.140
 2936WAT      O 9018   1.392   4.772   3.167
 2936WAT     H1 9019   1.317   4.801   3.116
 2936WAT     H2 9020   1.464   4.826   3.135
 2937WAT      O 9021   1.145   4.838   2.529
 2937WAT     H1 9022   1.080   4.804   2.468
 2937WAT     H2 9023   1.143   4.777   2.603
 2938WAT      O 9024   1.095   4.458   3.260
 2938WAT     H1 9025   1.052   4.542   3.277
 2938WAT     H2 9026   1.023   4.396   3.249
 2939WAT      O 9027   0.313   4.726   2.748
 2939WAT     H1 9028   0.253   4.668   2.702
 2939WAT     H2 9029   0.324   4.687   2.834
 2940WAT      O 9030   0.358   5.078   2.968
 2940WAT     H1 9031   0.331   5.042   2.883
 2940WAT     H2 9032   0.452   5.095   2.958
 2941WAT      O 9033   0.184   4.395   3.135
 2941WAT     H1 9034   0.223   4.431   3.056
 2941WAT     H2 9035   0.217   4.450   3.206
 2942WAT      O 9036   0.264   5.092   3.623
 2942WAT     H1 9037   0.177   5.078   3.660
 2942WAT     H2 9038   0.249   5.096   3.528
 2943WAT      O 9039   0.969   4.767   2.227
 2943WAT     H1 9040   1.003   4.679   2.210
 2943WAT     H2 9041   1.047   4.823   2.224
 2944WAT      O 9042   0.760   5.254   2.621
 2944WAT     H1 9043   0.821   5.311   2.573
 2944WAT     H2 9044   0.783   5.266   2.713
 2945WAT      O 9045   0.341   5.349   3.708
 2945WAT     H1 9046   0.322   5.394   3.626
 2945WAT     H2 9047   0.313   5.259   3.694
 2946WAT      O 9048   1.322   3.877   2.058
 2946WAT     H1 9049   1.307   3.882   2.152
 2946WAT     H2 9050   1.397   3.935   2.043
 2947WAT      O 9051   1.539   5.417   3.850
 2947WAT     H1 9052   1.564   5.496   3.898
 2947WAT     H2 9053   1.578   5.428   3.763
 2948WAT      O 9054   1.446   5.140   3.547
 2948WAT     H1 9055   1.487   5.122   3.463
 2948WAT     H2 9056   1.469   5.065   3.602
 2949WAT      O 9057   1.013   5.314   2.212
 2949WAT     H1 9058   0.935   5.301   2.158
 2949WAT     H2 9059   1.083   5.269   2.166
 2950WAT      O 9060   1.449   4.360   3.651
 2950WAT     H1 9061   1.402   4.425   3.598
 2950WAT     H2 9062   1.396   4.280   3.642
 2951WAT      O 9063   0.233   3.962   2.828
 2951WAT     H1 9064   0.173   4.036   2.818
 2951WAT     H2 9065   0.274   3.976   2.913
 2952WAT      O 9066   0.647   4.242   3.400
 2952WAT     H1 9067   0.592   4.264   3.474
 2952WAT     H2 9068   0.608   4.163   3.363
 2953WAT      O 9069   1.162   4.344   3.503
 2953WAT     H1 9070   1.077   4.328   3.544
 2953WAT     H2 9071   1.142   4.393   3.424
 2954WAT      O 9072   0.857   4.518   3.713
 2954WAT     H1 9073   0.879   4.427   3.696
 2954WAT     H2 9074   0.939   4.558   3.744
 2955WAT      O 9075   0.529   3.920   2.326
 2955WAT     H1 9076   0.461   3.917   2.394
 2955WAT     H2 9077   0.540   3.829   2.299
 2956WAT      O 9078   0.431   4.010   3.027
 2956WAT     H1 9079   0.446   4.102   3.005
 2956WAT     H2 9080   0.477   3.961   2.959
 2957WAT      O 9081   0.917   4.465   2.467
 2957WAT     H1 9082   0.861   4.542   2.460
 2957WAT     H2 9083   0.966   4.464   2.385
 2958WAT      O 9084   0.441   4.562   3.660
 2958WAT     H1 9085   0.445   4.467   3.646
 2958WAT     H2 9086   0.530   4.593   3.645
 2959WAT      O 9087   0.802   4.340   2.684
 2959WAT     H1 9088   0.834   4.372   2.599
 2959WAT     H2 9089   0.809   4.245   2.678
 2960WAT      O 9090   0.614   4.202   3.805
 2960WAT     H1 9091   0.555   4.158   3.865
 2960WAT     H2 9092   0.683   4.238   3.861
 2961WAT      O 9093   0.841   4.587   3.085
 2961WAT     H1 9094   0.764   4.632   3.122
 2961WAT     H2 9095   0.805   4.507   3.047
 2962WAT      O 9096   0.487   4.259   2.921
 2962WAT     H1 9097   0.495   4.225   2.832
 2962WAT     H2 9098   0.573   4.295   2.941
 2963WAT      O 9099   0.500   4.359   2.241
 2963WAT     H1 9100   0.488   4.362   2.336
 2963WAT     H2 9101   0.462   4.442   2.210
 2964WAT      O 9102   0.886   4.140   3.029
 2964WAT     H1 9103   0.895   4.177   3.117
 2964WAT     H2 9104   0.853   4.051   3.044
 2965WAT      O 9105   0.397   4.598   2.155
 2965WAT     H1 9106   0.340   4.554   2.092
 2965WAT     H2 9107   0.464   4.641   2.101
 2966WAT      O 9108   1.225   3.879   3.611
 2966WAT     H1 9109   1.253   3.800   3.656
 2966WAT     H2 9110   1.241   3.860   3.518
 2967WAT      O 9111   0.525   4.669   3.097
 2967WAT     H1 9112   0.546   4.610   3.170
 2967WAT     H2 9113   0.483   4.744   3.139
 2968WAT      O 9114   0.302   4.569   3.319
 2968WAT     H1 9115   0.278   4.657   3.347
 2968WAT     H2 9116   0.395   4.562   3.339
 2969WAT      O 9117   1.226   4.880   2.965
 2969WAT     H1 9118   1.298   4.932   2.928
 2969WAT     H2 9119   1.202   4.819   2.895
 2970WAT      O 9120   0.775   4.032   2.379
 2970WAT     H1 9121   0.691   3.988   2.367
 2970WAT     H2 9122   0.764   4.117   2.335
 2971WAT      O 9123   0.764   4.900   3.570
 2971WAT     H1 9124   0.760   4.814   3.529
 2971WAT     H2 9125   0.687   4.904   3.627
 2972WAT      O 9126   1.044   4.462   2.218
 2972WAT     H1 9127   1.130   4.499   2.197
 2972WAT     H2 9128   1.046   4.374   2.182
 2973WAT      O 9129   0.658   5.086   2.289
 2973WAT     H1 9130   0.682   5.165   2.240
 2973WAT     H2 9131   0.569   5.104   2.319
 2974WAT      O 9132   0.215   4.702   3.728
 2974WAT     H1 9133   0.193   4.711   3.636
 2974WAT     H2 9134   0.300   4.658   3.729
 2975WAT      O 9135   0.756   5.174   3.528
 2975WAT     H1 9136   0.753   5.078   3.526
 2975WAT     H2 9137   0.687   5.199   3.590
 2976WAT      O 9138   1.274   4.601   2.156
 2976WAT     H1 9139   1.260   4.643   2.071
 2976WAT     H2 9140   1.340   4.654   2.199
 2977WAT      O 9141   1.378   4.850   3.458
 2977WAT     H1 9142   1.304   4.909   3.443
 2977WAT     H2 9143   1.422   4.846   3.373
 2978WAT      O 9144   1.387   5.273   2.420
 2978WAT     H1 9145   1.323   5.217   2.464
 2978WAT     H2 9146   1.336   5.324   2.358
 2979WAT      O 9147   0.935   5.012   2.819
 2979WAT     H1 9148   0.964   4.950   2.752
 2979WAT     H2 9149   0.846   4.985   2.840
 2980WAT      O 9150   0.530   5.087   2.567
 2980WAT     H1 9151   0.606   5.141   2.588
 2980WAT     H2 9152   0.456   5.148   2.565
 2981WAT      O 9153   0.483   4.795   2.534
 2981WAT     H1 9154   0.511   4.886   2.547
 2981WAT     H2 9155   0.431   4.774   2.612
 2982WAT      O 9156   0.690   5.347   3.241
 2982WAT     H1 9157   0.744   5.356   3.320
 2982WAT     H2 9158   0.724   5.268   3.198
 2983WAT      O 9159   0.832   5.145   3.114
 2983WAT     H1 9160   0.884   5.067   3.134
 2983WAT     H2 9161   0.896   5.209   3.084
 2984WAT      O 9162   1.208   5.165   2.085
 2984WAT     H1 9163   1.188   5.089   2.139
 2984WAT     H2 9164   1.187   5.137   1.996
 2985WAT      O 9165   1.014   5.225   3.441
 2985WAT     H1 9166   1.035   5.290   3.509
 2985WAT     H2 9167   0.923   5.202   3.456
 2986WAT      O 9168   1.173   4.958   2.258
 2986WAT     H1 9169   1.146   5.009   2.335
 2986WAT     H2 9170   1.256   4.918   2.284
 2987WAT      O 9171   0.586   5.223   3.751
 2987WAT     H1 9172   0.551   5.151   3.804
 2987WAT     H2 9173   0.512   5.284   3.742
 2988WAT      O 9174   0.404   5.315   2.235
 2988WAT     H1 9175   0.381   5.390   2.179
 2988WAT     H2 9176   0.320   5.278   2.260
 2989WAT      O 9177   0.904   4.250   3.282
 2989WAT     H1 9178   0.950   4.177   3.324
 2989WAT     H2 9179   0.820   4.254   3.327
 2990WAT      O 9180   1.248   4.147   2.374
 2990WAT     H1 9181   1.191   4.161   2.299
 2990WAT     H2 9182   1.190   4.150   2.450
 2991WAT      O 9183   0.689   5.305   2.121
 2991WAT     H1 9184   0.693   5.291   2.026
 2991WAT     H2 9185   0.595   5.307   2.141
 2992WAT      O 9186   0.432   4.360   2.506
 2992WAT     H1 9187   0.390   4.427   2.560
 2992WAT     H2 9188   0.478   4.303   2.569
 2993WAT      O 9189   0.594   4.520   3.314
 2993WAT     H1 9190   0.653   4.565   3.374
 2993WAT     H2 9191   0.613   4.427   3.325
 2994WAT      O 9192   0.852   4.056   2.651
 2994WAT     H1 9193   0.827   4.041   2.560
 2994WAT     H2 9194   0.947   4.063   2.649
 2995WAT      O 9195   0.255   4.213   2.250
 2995WAT     H1 9196   0.344   4.239   2.228
 2995WAT     H2 9197   0.236   4.257   2.333
 2996WAT      O 9198   1.330   4.140   3.396
 2996WAT     H1 9199   1.273   4.209   3.432
 2996WAT     H2 9200   1.408   4.188   3.366
 2997WAT      O 9201   1.153   4.680   2.750
 2997WAT     H1 9202   1.061   4.654   2.757
 2997WAT     H2 9203   1.202   4.604   2.782
 2998WAT      O 9204   1.363   5.373   2.920
 2998WAT     H1 9205   1.363   5.469   2.930
 2998WAT     H2 9206   1.443   5.355   2.871
 2999WAT      O 9207   0.898   5.110   3.786
 2999WAT     H1 9208   0.827   5.126   3.723
 2999WAT     H2 9209   0.860   5.050   3.850
 3000WAT      O 9210   0.467   5.027   2.031
 3000WAT     H1 9211   0.450   4.980   2.113
 3000WAT     H2 9212   0.460   4.959   1.963
 3001WAT      O 9213   0.489   4.908   3.636
 3001WAT     H1 9214   0.409   4.960   3.639
 3001WAT     H2 9215   0.495   4.877   3.546
 3002WAT      O 9216   0.786   4.930   2.099
 3002WAT     H1 9217   0.738   4.979   2.166
 3002WAT     H2 9218   0.848   4.876   2.149
 3003WAT      O 9219   1.198   5.073   3.695
 3003WAT     H1 9220   1.269   5.106   3.641
 3003WAT     H2 9221   1.118   5.101   3.650
 3004WAT      O 9222   0.361   4.838   2.286
 3004WAT     H1 9223   0.402   4.820   2.371
 3004WAT     H2 9224   0.363   4.754   2.241
 3005WAT      O 9225   0.611   4.721   2.027
 3005WAT     H1 9226   0.671   4.665   1.977
 3005WAT     H2 9227   0.664   4.798   2.049
 3006WAT      O 9228   1.053   4.860   3.561
 3006WAT     H1 9229   1.104   4.903   3.630
 3006WAT     H2 9230   0.963   4.890   3.575
 3007WAT      O 9231   1.118   4.607   3.745
 3007WAT     H1 9232   1.176   4.534   3.727
 3007WAT     H2 9233   1.132   4.668   3.672
 3008WAT      O 9234   0.502   3.997   3.287
 3008WAT     H1 9235   0.463   4.000   3.200
 3008WAT     H2 9236   0.442   3.943   3.338
 3009WAT      O 9237   0.518   4.878   3.359
 3009WAT     H1 9238   0.584   4.941   3.332
 3009WAT     H2 9239   0.444   4.893   3.301
 3010WAT      O 9240   0.770   4.635   3.486
 3010WAT     H1 9241   0.796   4.591   3.568
 3010WAT     H2 9242   0.852   4.645   3.438
 3011WAT      O 9243   0.995   4.701   3.345
 3011WAT     H1 9244   0.973   4.758   3.271
 3011WAT     H2 9245   1.034   4.760   3.410
 3012WAT      O 9246   0.254   4.426   1.999
 3012WAT     H1 9247   0.222   4.341   2.028
 3012WAT     H2 9248   0.220   4.436   1.910
 3013WAT      O 9249   0.458   4.293   3.608
 3013WAT     H1 9250   0.513   4.266   3.682
 3013WAT     H2 9251   0.375   4.246   3.622
 3014WAT      O 9252   0.938   4.259   3.646
 3014WAT     H1 9253   0.870   4.196   3.624
 3014WAT     H2 9254   1.007   4.207   3.686
 3015WAT      O 9255   0.984   3.917   2.233
 3015WAT     H1 9256   1.006   3.833   2.274
 3015WAT     H2 9257   0.915   3.953   2.288
 3016WAT      O 9258   0.463   4.043   2.077
 3016WAT     H1 9259   0.405   3.982   2.032
 3016WAT     H2 9260   0.471   4.008   2.166
 3017WAT      O 9261   0.231   5.180   2.587
 3017WAT     H1 9262   0.175   5.184   2.664
 3017WAT     H2 9263   0.199   5.105   2.538
 3018WAT      O 9264   1.371   5.401   3.511
 3018WAT     H1 9265   1.311   5.394   3.436
 3018WAT     H2 9266   1.389   5.310   3.536
 3019WAT      O 9267   1.482   5.164   2.060
 3019WAT     H1 9268   1.389   5.173   2.080
 3019WAT     H2 9269   1.507   5.250   2.024
 3020WAT      O 9270   1.424   4.839   2.298
 3020WAT     H1 9271   1.497   4.901   2.301
 3020WAT     H2 9272   1.434   4.787   2.378
 3021WAT      O 9273   1.539   4.932   2.804
 3021WAT     H1 9274   1.571   4.851   2.765
 3021WAT     H2 9275   1.595   5.000   2.767
 3022WAT      O 9276   1.212   5.059   3.324
 3022WAT     H1 9277   1.144   5.114   3.363
 3022WAT     H2 9278   1.263   5.119   3.270
 3023WAT      O 9279   1.459   4.872   2.023
 3023WAT     H1 9280   1.463   4.966   2.005
 3023WAT     H2 9281   1.422   4.866   2.111
 3024WAT      O 9282   1.091   4.169   2.148
 3024WAT     H1 9283   1.118   4.157   2.057
 3024WAT     H2 9284   1.039   4.091   2.168
 3025WAT      O 9285   1.423   4.668   2.518
 3025WAT     H1 9286   1.388   4.584   2.486
 3025WAT     H2 9287   1.351   4.706   2.567
 3026WAT      O 9288   1.373   4.574   3.486
 3026WAT     H1 9289   1.353   4.554   3.395
 3026WAT     H2 9290   1.379   4.670   3.490
 3027WAT      O 9291   1.204   4.107   3.762
 3027WAT     H1 9292   1.291   4.104   3.803
 3027WAT     H2 9293   1.205   4.036   3.699
 3028WAT      O 9294   1.343   4.496   2.851
 3028WAT     H1 9295   1.389   4.444   2.785
 3028WAT     H2 9296   1.412   4.527   2.909
 3029WAT      O 9297   1.368   4.493   3.203
 3029WAT     H1 9298   1.273   4.486   3.205
 3029WAT     H2 9299   1.385   4.583   3.177
 3030WAT      O 9300   1.327   4.416   2.451
 3030WAT     H1 9301   1.357   4.375   2.532
 3030WAT     H2 9302   1.285   4.345   2.402
 3031WAT      O 9303   1.445   4.284   2.694
 3031WAT     H1 9304   1.434   4.254   2.784
 3031WAT     H2 9305   1.528   4.246   2.665
 3032WAT      O 9306   1.295   3.869   3.342
 3032WAT     H1 9307   1.331   3.956   3.358
 3032WAT     H2 9308   1.292   3.862   3.246
 3033WAT      O 9309   1.531   4.050   2.024
 3033WAT     H1 9310   1.621   4.026   2.002
 3033WAT     H2 9311   1.537   4.089   2.111
 3034WAT      O 9312   1.539   4.136   2.288
 3034WAT     H1 9313   1.453   4.135   2.330
 3034WAT     H2 9314   1.564   4.228   2.287
 3035WAT      O 9315   0.401   5.341   3.265
 3035WAT     H1 9316   0.367   5.359   3.177
 3035WAT     H2 9317   0.496   5.349   3.255
 3036WAT      O 9318   0.619   3.975   3.641
 3036WAT     H1 9319   0.608   4.051   3.698
 3036WAT     H2 9320   0.711   3.977   3.615
 3037WAT      O 9321   0.885   3.970   3.597
 3037WAT     H1 9322   0.946   3.981   3.524
 3037WAT     H2 9323   0.932   3.913   3.658
 3038WAT      O 9324   0.958   3.809   3.239
 3038WAT     H1 9325   0.882   3.844   3.192
 3038WAT     H2 9326   0.922   3.746   3.301
 3039WAT      O 9327   1.040   4.030   3.372
 3039WAT     H1 9328   1.019   3.952   3.320
 3039WAT     H2 9329   1.136   4.033   3.372
 3040WAT      O 9330   0.348   5.425   3.006
 3040WAT     H1 9331   0.377   5.376   2.929
 3040WAT     H2 9332   0.405   5.503   3.008
 3041WAT      O 9333   0.728   3.900   3.123
 3041WAT     H1 9334   0.658   3.946   3.170
 3041WAT     H2 9335   0.687   3.819   3.093
 3042WAT      O 9336   1.173   3.963   2.927
 3042WAT     H1 9337   1.237   3.962   2.856
 3042WAT     H2 9338   1.154   4.056   2.941
 3043WAT      O 9339   1.356   3.941   2.726
 3043WAT     H1 9340   1.352   3.848   2.703
 3043WAT     H2 9341   1.437   3.950   2.776
 3044WAT      O 9342   0.507   4.142   2.673
 3044WAT     H1 9343   0.441   4.090   2.627
 3044WAT     H2 9344   0.574   4.079   2.699
 3045WAT      O 9345   0.963   3.810   2.802
 3045WAT     H1 9346   1.032   3.860   2.845
 3045WAT     H2 9347   0.898   3.875   2.776
 3046WAT      O 9348   1.285   3.858   2.333
 3046WAT     H1 9349   1.283   3.950   2.360
 3046WAT     H2 9350   1.200   3.823   2.360
 3047WAT      O 9351   0.329   3.969   2.528
 3047WAT     H1 9352   0.275   3.893   2.551
 3047WAT     H2 9353   0.268   4.029   2.485
 3048WAT      O 9354   0.329   3.886   3.772
 3048WAT     H1 9355   0.306   3.929   3.690
 3048WAT     H2 9356   0.373   3.805   3.746
 3049WAT      O 9357   0.997   3.836   3.828
 3049WAT     H1 9358   0.981   3.858   3.919
 3049WAT     H2 9359   1.087   3.861   3.812
 3050WAT      O 9360   0.883   4.629   0.859
 3050WAT     H1 9361   0.868   4.535   0.846
 3050WAT     H2 9362   0.834   4.671   0.788
 3051WAT      O 9363   0.697   4.806   1.047
 3051WAT     H1 9364   0.628   4.755   1.089
 3051WAT     H2 9365   0.768   4.744   1.032
 3052WAT      O 9366   1.103   5.240   0.923
 3052WAT     H1 9367   1.056   5.164   0.958
 3052WAT     H2 9368   1.176   5.253   0.983
 3053WAT      O 9369   0.631   5.072   1.059
 3053WAT     H1 9370   0.645   4.978   1.046
 3053WAT     H2 9371   0.699   5.098   1.121
 3054WAT      O 9372   0.740   4.359   1.071
 3054WAT     H1 9373   0.791   4.281   1.091
 3054WAT     H2 9374   0.754   4.373   0.977
 3055WAT      O 9375   1.131   4.107   0.770
 3055WAT     H1 9376   1.210   4.054   0.784
 3055WAT     H2 9377   1.133   4.170   0.843
 3056WAT      O 9378   0.352   4.502   1.058
 3056WAT     H1 9379   0.410   4.549   1.119
 3056WAT     H2 9380   0.390   4.415   1.051
 3057WAT      O 9381   1.542   4.308   1.432
 3057WAT     H1 9382   1.483   4.366   1.384
 3057WAT     H2 9383   1.584   4.364   1.496
 3058WAT      O 9384   0.812   4.965   0.630
 3058WAT     H1 9385   0.746   5.001   0.570
 3058WAT     H2 9386   0.846   5.041   0.677
 3059WAT      O 9387   0.313   4.931   1.317
 3059WAT     H1 9388   0.244   4.983   1.359
 3059WAT     H2 9389   0.326   4.974   1.232
 3060WAT      O 9390   1.160   4.288   1.047
 3060WAT     H1 9391   1.081   4.310   1.098
 3060WAT     H2 9392   1.196   4.373   1.022
 3061WAT      O 9393   1.302   5.265   1.288
 3061WAT     H1 9394   1.233   5.331   1.278
 3061WAT     H2 9395   1.355   5.273   1.209
 3062WAT      O 9396   1.445   4.241   1.096
 3062WAT     H1 9397   1.350   4.251   1.109
 3062WAT     H2 9398   1.484   4.315   1.141
 3063WAT      O 9399   0.505   3.877   0.917
 3063WAT     H1 9400   0.534   3.818   0.848
 3063WAT     H2 9401   0.411   3.886   0.903
 3064WAT      O 9402   1.196   5.114   0.660
 3064WAT     H1 9403   1.181   5.020   0.671
 3064WAT     H2 9404   1.169   5.152   0.744
 3065WAT      O 9405   1.012   4.939   1.283
 3065WAT     H1 9406   1.055   4.912   1.202
 3065WAT     H2 9407   1.084   4.965   1.341
 3066WAT      O 9408   0.747   4.685   0.612
 3066WAT     H1 9409   0.651   4.690   0.615
 3066WAT     H2 9410   0.775   4.774   0.591
 3067WAT      O 9411   0.749   4.293   0.288
 3067WAT     H1 9412   0.657   4.311   0.308
 3067WAT     H2 9413   0.783   4.376   0.255
 3068WAT      O 9414   1.392   4.772   1.290
 3068WAT     H1 9415   1.317   4.801   1.239
 3068WAT     H2 9416   1.464   4.826   1.258
 3069WAT      O 9417   1.145   4.840   0.653
 3069WAT     H1 9418   1.082   4.806   0.589
 3069WAT     H2 9419   1.142   4.777   0.725
 3070WAT      O 9420   1.095   4.458   1.383
 3070WAT     H1 9421   1.052   4.542   1.399
 3070WAT     H2 9422   1.023   4.396   1.371
 3071WAT      O 9423   0.314   4.726   0.870
 3071WAT     H1 9424   0.252   4.668   0.825
 3071WAT     H2 9425   0.325   4.687   0.957
 3072WAT      O 9426   0.358   5.078   1.090
 3072WAT     H1 9427   0.331   5.042   1.006
 3072WAT     H2 9428   0.452   5.095   1.081
 3073WAT      O 9429   0.185   4.394   1.258
 3073WAT     H1 9430   0.223   4.431   1.178
 3073WAT     H2 9431   0.217   4.451   1.328
 3074WAT      O 9432   0.264   5.091   1.745
 3074WAT     H1 9433   0.177   5.078   1.783
 3074WAT     H2 9434   0.249   5.096   1.651
 3075WAT      O 9435   0.968   4.765   0.355
 3075WAT     H1 9436   1.004   4.678   0.336
 3075WAT     H2 9437   1.043   4.824   0.347
 3076WAT      O 9438   0.761   5.255   0.743
 3076WAT     H1 9439   0.823   5.314   0.700
 3076WAT     H2 9440   0.781   5.263   0.836
 3077WAT      O 9441   0.341   5.349   1.831
 3077WAT     H1 9442   0.322   5.394   1.748
 3077WAT     H2 9443   0.313   5.259   1.816
 3078WAT      O 9444   1.320   3.892   0.177
 3078WAT     H1 9445   1.297   3.882   0.270
 3078WAT     H2 9446   1.402   3.940   0.178
 3079WAT      O 9447   1.539   5.417   1.973
 3079WAT     H1 9448   1.563   5.496   2.021
 3079WAT     H2 9449   1.578   5.428   1.886
 3080WAT      O 9450   1.446   5.140   1.669
 3080WAT     H1 9451   1.487   5.122   1.585
 3080WAT     H2 9452   1.469   5.065   1.724
 3081WAT      O 9453   1.023   5.316   0.319
 3081WAT     H1 9454   0.942   5.293   0.274
 3081WAT     H2 9455   1.083   5.244   0.299
 3082WAT      O 9456   1.448   4.360   1.774
 3082WAT     H1 9457   1.402   4.425   1.721
 3082WAT     H2 9458   1.396   4.280   1.765
 3083WAT      O 9459   0.234   3.963   0.950
 3083WAT     H1 9460   0.173   4.036   0.941
 3083WAT     H2 9461   0.274   3.975   1.035
 3084WAT      O 9462   0.647   4.242   1.522
 3084WAT     H1 9463   0.592   4.264   1.597
 3084WAT     H2 9464   0.608   4.163   1.486
 3085WAT      O 9465   1.162   4.343   1.625
 3085WAT     H1 9466   1.077   4.328   1.666
 3085WAT     H2 9467   1.142   4.393   1.546
 3086WAT      O 9468   0.857   4.518   1.836
 3086WAT     H1 9469   0.879   4.427   1.819
 3086WAT     H2 9470   0.938   4.558   1.866
 3087WAT      O 9471   0.542   3.915   0.467
 3087WAT     H1 9472   0.460   3.925   0.516
 3087WAT     H2 9473   0.531   3.834   0.418
 3088WAT      O 9474   0.431   4.010   1.150
 3088WAT     H1 9475   0.446   4.102   1.128
 3088WAT     H2 9476   0.477   3.961   1.082
 3089WAT      O 9477   0.918   4.466   0.590
 3089WAT     H1 9478   0.861   4.543   0.583
 3089WAT     H2 9479   0.966   4.464   0.507
 3090WAT      O 9480   0.441   4.562   1.782
 3090WAT     H1 9481   0.445   4.467   1.769
 3090WAT     H2 9482   0.530   4.593   1.768
 3091WAT      O 9483   0.802   4.340   0.806
 3091WAT     H1 9484   0.834   4.372   0.721
 3091WAT     H2 9485   0.809   4.245   0.800
 3092WAT      O 9486   0.614   4.202   1.927
 3092WAT     H1 9487   0.554   4.158   1.988
 3092WAT     H2 9488   0.683   4.238   1.983
 3093WAT      O 9489   0.840   4.587   1.207
 3093WAT     H1 9490   0.764   4.632   1.245
 3093WAT     H2 9491   0.805   4.507   1.169
 3094WAT      O 9492   0.487   4.259   1.044
 3094WAT     H1 9493   0.494   4.225   0.954
 3094WAT     H2 9494   0.573   4.295   1.063
 3095WAT      O 9495   0.495   4.358   0.363
 3095WAT     H1 9496   0.490   4.357   0.459
 3095WAT     H2 9497   0.461   4.444   0.338
 3096WAT      O 9498   0.886   4.140   1.152
 3096WAT     H1 9499   0.895   4.177   1.240
 3096WAT     H2 9500   0.854   4.051   1.166
 3097WAT      O 9501   0.397   4.594   0.273
 3097WAT     H1 9502   0.331   4.564   0.210
 3097WAT     H2 9503   0.463   4.638   0.219
 3098WAT      O 9504   1.224   3.879   1.733
 3098WAT     H1 9505   1.253   3.800   1.779
 3098WAT     H2 9506   1.241   3.860   1.641
 3099WAT      O 9507   0.525   4.669   1.220
 3099WAT     H1 9508   0.546   4.610   1.292
 3099WAT     H2 9509   0.483   4.744   1.261
 3100WAT      O 9510   0.302   4.569   1.441
 3100WAT     H1 9511   0.278   4.657   1.470
 3100WAT     H2 9512   0.395   4.562   1.462
 3101WAT      O 9513   1.226   4.880   1.087
 3101WAT     H1 9514   1.298   4.931   1.050
 3101WAT     H2 9515   1.202   4.819   1.018
 3102WAT      O 9516   0.777   4.036   0.504
 3102WAT     H1 9517   0.693   3.991   0.495
 3102WAT     H2 9518   0.766   4.118   0.456
 3103WAT      O 9519   0.764   4.901   1.693
 3103WAT     H1 9520   0.760   4.814   1.652
 3103WAT     H2 9521   0.687   4.904   1.749
 3104WAT      O 9522   1.044   4.464   0.340
 3104WAT     H1 9523   1.132   4.497   0.321
 3104WAT     H2 9524   1.044   4.374   0.308
 3105WAT      O 9525   0.651   5.090   0.413
 3105WAT     H1 9526   0.664   5.165   0.354
 3105WAT     H2 9527   0.561   5.100   0.444
 3106WAT      O 9528   0.215   4.702   1.851
 3106WAT     H1 9529   0.193   4.711   1.758
 3106WAT     H2 9530   0.300   4.658   1.852
 3107WAT      O 9531   0.756   5.174   1.651
 3107WAT     H1 9532   0.753   5.078   1.649
 3107WAT     H2 9533   0.688   5.199   1.713
 3108WAT      O 9534   1.276   4.601   0.280
 3108WAT     H1 9535   1.265   4.645   0.196
 3108WAT     H2 9536   1.337   4.657   0.329
 3109WAT      O 9537   1.378   4.850   1.580
 3109WAT     H1 9538   1.304   4.909   1.566
 3109WAT     H2 9539   1.422   4.846   1.496
 3110WAT      O 9540   1.388   5.272   0.541
 3110WAT     H1 9541   1.325   5.216   0.587
 3110WAT     H2 9542   1.334   5.329   0.487
 3111WAT      O 9543   0.935   5.013   0.940
 3111WAT     H1 9544   0.964   4.949   0.874
 3111WAT     H2 9545   0.846   4.985   0.962
 3112WAT      O 9546   0.529   5.086   0.691
 3112WAT     H1 9547   0.605   5.141   0.711
 3112WAT     H2 9548   0.456   5.148   0.687
 3113WAT      O 9549   0.485   4.795   0.657
 3113WAT     H1 9550   0.512   4.886   0.670
 3113WAT     H2 9551   0.432   4.774   0.734
 3114WAT      O 9552   0.690   5.347   1.364
 3114WAT     H1 9553   0.744   5.356   1.442
 3114WAT     H2 9554   0.724   5.268   1.321
 3115WAT      O 9555   0.832   5.145   1.237
 3115WAT     H1 9556   0.884   5.067   1.257
 3115WAT     H2 9557   0.896   5.209   1.208
 3116WAT      O 9558   1.014   5.225   1.563
 3116WAT     H1 9559   1.035   5.290   1.631
 3116WAT     H2 9560   0.923   5.202   1.579
 3117WAT      O 9561   1.171   4.956   0.378
 3117WAT     H1 9562   1.151   5.009   0.454
 3117WAT     H2 9563   1.258   4.919   0.396
 3118WAT      O 9564   0.586   5.223   1.873
 3118WAT     H1 9565   0.551   5.151   1.927
 3118WAT     H2 9566   0.512   5.284   1.864
 3119WAT      O 9567   0.399   5.311   0.368
 3119WAT     H1 9568   0.389   5.383   0.306
 3119WAT     H2 9569   0.310   5.282   0.386
 3120WAT      O 9570   0.904   4.250   1.405
 3120WAT     H1 9571   0.950   4.177   1.446
 3120WAT     H2 9572   0.820   4.254   1.450
 3121WAT      O 9573   1.248   4.148   0.497
 3121WAT     H1 9574   1.190   4.159   0.422
 3121WAT     H2 9575   1.191   4.148   0.573
 3122WAT      O 9576   0.434   4.362   0.629
 3122WAT     H1 9577   0.389   4.425   0.684
 3122WAT     H2 9578   0.478   4.303   0.690
 3123WAT      O 9579   0.594   4.520   1.436
 3123WAT     H1 9580   0.653   4.565   1.497
 3123WAT     H2 9581   0.613   4.427   1.448
 3124WAT      O 9582   0.852   4.055   0.774
 3124WAT     H1 9583   0.827   4.042   0.683
 3124WAT     H2 9584   0.947   4.063   0.772
 3125WAT      O 9585   0.265   4.198   0.383
 3125WAT     H1 9586   0.348   4.238   0.358
 3125WAT     H2 9587   0.231   4.254   0.452
 3126WAT      O 9588   1.330   4.141   1.518
 3126WAT     H1 9589   1.273   4.209   1.554
 3126WAT     H2 9590   1.408   4.187   1.488
 3127WAT      O 9591   1.153   4.680   0.872
 3127WAT     H1 9592   1.061   4.654   0.879
 3127WAT     H2 9593   1.202   4.604   0.905
 3128WAT      O 9594   1.363   5.374   1.042
 3128WAT     H1 9595   1.364   5.469   1.053
 3128WAT     H2 9596   1.443   5.355   0.993
 3129WAT      O 9597   0.898   5.110   1.908
 3129WAT     H1 9598   0.827   5.126   1.846
 3129WAT     H2 9599   0.860   5.050   1.972
 3130WAT      O 9600   0.489   4.908   1.759
 3130WAT     H1 9601   0.409   4.960   1.762
 3130WAT     H2 9602   0.494   4.877   1.668
 3131WAT      O 9603   0.793   4.941   0.227
 3131WAT     H1 9604   0.736   4.975   0.296
 3131WAT     H2 9605   0.848   4.876   0.270
 3132WAT      O 9606   1.198   5.073   1.818
 3132WAT     H1 9607   1.269   5.106   1.764
 3132WAT     H2 9608   1.118   5.101   1.773
 3133WAT      O 9609   0.347   4.830   0.418
 3133WAT     H1 9610   0.398   4.819   0.498
 3133WAT     H2 9611   0.360   4.748   0.370
 3134WAT      O 9612   1.053   4.860   1.683
 3134WAT     H1 9613   1.104   4.903   1.752
 3134WAT     H2 9614   0.963   4.890   1.698
 3135WAT      O 9615   1.118   4.607   1.868
 3135WAT     H1 9616   1.176   4.534   1.850
 3135WAT     H2 9617   1.132   4.668   1.795
 3136WAT      O 9618   0.502   3.997   1.410
 3136WAT     H1 9619   0.463   4.000   1.323
 3136WAT     H2 9620   0.442   3.943   1.461
 3137WAT      O 9621   0.518   4.878   1.482
 3137WAT     H1 9622   0.584   4.941   1.454
 3137WAT     H2 9623   0.444   4.893   1.423
 3138WAT      O 9624   0.770   4.635   1.609
 3138WAT     H1 9625   0.796   4.591   1.690
 3138WAT     H2 9626   0.852   4.645   1.561
 3139WAT      O 9627   0.995   4.701   1.467
 3139WAT     H1 9628   0.973   4.758   1.394
 3139WAT     H2 9629   1.034   4.760   1.532
 3140WAT      O 9630   0.458   4.293   1.731
 3140WAT     H1 9631   0.513   4.266   1.804
 3140WAT     H2 9632   0.375   4.246   1.744
 3141WAT      O 9633   0.938   4.259   1.769
 3141WAT     H1 9634   0.870   4.195   1.746
 3141WAT     H2 9635   1.007   4.207   1.808
 3142WAT      O 9636   0.992   3.927   0.369
 3142WAT     H1 9637   1.006   3.836   0.398
 3142WAT     H2 9638   0.916   3.956   0.418
 3143WAT      O 9639   0.230   5.180   0.709
 3143WAT     H1 9640   0.174   5.184   0.786
 3143WAT     H2 9641   0.199   5.104   0.660
 3144WAT      O 9642   1.371   5.401   1.633
 3144WAT     H1 9643   1.311   5.393   1.559
 3144WAT     H2 9644   1.389   5.310   1.658
 3145WAT      O 9645   1.425   4.833   0.419
 3145WAT     H1 9646   1.494   4.898   0.419
 3145WAT     H2 9647   1.436   4.786   0.502
 3146WAT      O 9648   1.538   4.932   0.925
 3146WAT     H1 9649   1.571   4.851   0.887
 3146WAT     H2 9650   1.596   5.000   0.889
 3147WAT      O 9651   1.212   5.059   1.446
 3147WAT     H1 9652   1.144   5.114   1.486
 3147WAT     H2 9653   1.263   5.119   1.393
 3148WAT      O 9654   1.089   4.170   0.275
 3148WAT     H1 9655   1.115   4.153   0.184
 3148WAT     H2 9656   1.040   4.092   0.301
 3149WAT      O 9657   1.424   4.667   0.643
 3149WAT     H1 9658   1.388   4.584   0.609
 3149WAT     H2 9659   1.351   4.706   0.691
 3150WAT      O 9660   1.372   4.574   1.609
 3150WAT     H1 9661   1.353   4.554   1.517
 3150WAT     H2 9662   1.379   4.669   1.612
 3151WAT      O 9663   1.204   4.107   1.885
 3151WAT     H1 9664   1.291   4.104   1.926
 3151WAT     H2 9665   1.205   4.035   1.821
 3152WAT      O 9666   1.343   4.496   0.973
 3152WAT     H1 9667   1.389   4.443   0.908
 3152WAT     H2 9668   1.412   4.527   1.032
 3153WAT      O 9669   1.368   4.493   1.325
 3153WAT     H1 9670   1.273   4.486   1.328
 3153WAT     H2 9671   1.385   4.583   1.300
 3154WAT      O 9672   1.331   4.415   0.572
 3154WAT     H1 9673   1.357   4.376   0.655
 3154WAT     H2 9674   1.286   4.345   0.525
 3155WAT      O 9675   1.445   4.285   0.816
 3155WAT     H1 9676   1.434   4.254   0.906
 3155WAT     H2 9677   1.527   4.245   0.787
 3156WAT      O 9678   1.295   3.869   1.465
 3156WAT     H1 9679   1.332   3.956   1.481
 3156WAT     H2 9680   1.292   3.862   1.369
 3157WAT      O 9681   1.543   4.134   0.419
 3157WAT     H1 9682   1.453   4.132   0.451
 3157WAT     H2 9683   1.563   4.227   0.409
 3158WAT      O 9684   0.401   5.341   1.387
 3158WAT     H1 9685   0.367   5.359   1.300
 3158WAT     H2 9686   0.496   5.349   1.378
 3159WAT      O 9687   0.619   3.975   1.764
 3159WAT     H1 9688   0.608   4.051   1.821
 3159WAT     H2 9689   0.711   3.977   1.738
 3160WAT      O 9690   0.885   3.969   1.720
 3160WAT     H1 9691   0.946   3.981   1.647
 3160WAT     H2 9692   0.932   3.913   1.781
 3161WAT      O 9693   0.958   3.809   1.361
 3161WAT     H1 9694   0.882   3.844   1.314
 3161WAT     H2 9695   0.922   3.746   1.423
 3162WAT      O 9696   1.040   4.030   1.495
 3162WAT     H1 9697   1.019   3.952   1.443
 3162WAT     H2 9698   1.136   4.033   1.494
 3163WAT      O 9699   0.348   5.425   1.129
 3163WAT     H1 9700   0.377   5.377   1.051
 3163WAT     H2 9701   0.404   5.503   1.131
 3164WAT      O 9702   0.728   3.900   1.245
 3164WAT     H1 9703   0.658   3.946   1.292
 3164WAT     H2 9704   0.687   3.819   1.215
 3165WAT      O 9705   1.173   3.963   1.049
 3165WAT     H1 9706   1.237   3.962   0.978
 3165WAT     H2 9707   1.154   4.056   1.063
 3166WAT      O 9708   1.356   3.941   0.849
 3166WAT     H1 9709   1.353   3.848   0.825
 3166WAT     H2 9710   1.437   3.950   0.899
 3167WAT      O 9711   0.506   4.142   0.796
 3167WAT     H1 9712   0.442   4.089   0.748
 3167WAT     H2 9713   0.574   4.080   0.821
 3168WAT      O 9714   0.962   3.809   0.924
 3168WAT     H1 9715   1.032   3.860   0.967
 3168WAT     H2 9716   0.898   3.875   0.898
 3169WAT      O 9717   1.285   3.856   0.456
 3169WAT     H1 9718   1.285   3.949   0.479
 3169WAT     H2 9719   1.198   3.825   0.480
 3170WAT      O 9720   0.328   3.969   0.648
 3170WAT     H1 9721   0.272   3.897   0.677
 3170WAT     H2 9722   0.267   4.031   0.607
 3171WAT      O 9723   0.329   3.886   1.895
 3171WAT     H1 9724   0.307   3.929   1.812
 3171WAT     H2 9725   0.373   3.806   1.868
 3172WAT      O 9726   0.997   3.836   1.950
 3172WAT     H1 9727   0.981   3.858   2.042
 3172WAT     H2 9728   1.087   3.861   1.935
 3173WAT      O 9729   0.883   2.752   4.614
 3173WAT     H1 9730   0.868   2.658   4.601
 3173WAT     H2 9731   0.834   2.794   4.543
 3174WAT      O 9732   0.697   2.929   4.802
 3174WAT     H1 9733   0.629   2.876   4.844
 3174WAT     H2 9734   0.768   2.867   4.786
 3175WAT      O 9735   1.097   3.377   4.689
 3175WAT     H1 9736   1.051   3.294   4.708
 3175WAT     H2 9737   1.179   3.370   4.737
 3176WAT      O 9738   0.720   3.602   4.664
 3176WAT     H1 9739   0.658   3.636   4.598
 3176WAT     H2 9740   0.806   3.623   4.628
 3177WAT      O 9741   0.629   3.193   4.816
 3177WAT     H1 9742   0.646   3.100   4.803
 3177WAT     H2 9743   0.699   3.222   4.875
 3178WAT      O 9744   0.740   2.482   4.825
 3178WAT     H1 9745   0.791   2.404   4.846
 3178WAT     H2 9746   0.754   2.496   4.732
 3179WAT      O 9747   1.126   2.227   4.530
 3179WAT     H1 9748   1.209   2.179   4.534
 3179WAT     H2 9749   1.136   2.295   4.597
 3180WAT      O 9750   0.353   2.625   4.813
 3180WAT     H1 9751   0.410   2.671   4.874
 3180WAT     H2 9752   0.390   2.537   4.806
 3181WAT      O 9753   1.541   2.429   5.188
 3181WAT     H1 9754   1.484   2.487   5.138
 3181WAT     H2 9755   1.585   2.487   5.250
 3182WAT      O 9756   0.813   3.089   4.385
 3182WAT     H1 9757   0.748   3.124   4.324
 3182WAT     H2 9758   0.843   3.165   4.433
 3183WAT      O 9759   0.314   3.055   5.071
 3183WAT     H1 9760   0.243   3.104   5.113
 3183WAT     H2 9761   0.326   3.098   4.987
 3184WAT      O 9762   1.160   2.411   4.804
 3184WAT     H1 9763   1.081   2.434   4.853
 3184WAT     H2 9764   1.197   2.495   4.777
 3185WAT      O 9765   1.299   3.378   5.031
 3185WAT     H1 9766   1.243   3.455   5.043
 3185WAT     H2 9767   1.354   3.400   4.956
 3186WAT      O 9768   1.445   2.360   4.852
 3186WAT     H1 9769   1.351   2.375   4.863
 3186WAT     H2 9770   1.486   2.437   4.892
 3187WAT      O 9771   0.505   1.999   4.672
 3187WAT     H1 9772   0.533   1.941   4.602
 3187WAT     H2 9773   0.411   2.009   4.658
 3188WAT      O 9774   1.064   3.572   4.902
 3188WAT     H1 9775   1.063   3.525   4.818
 3188WAT     H2 9776   1.002   3.644   4.890
 3189WAT      O 9777   1.194   3.235   4.412
 3189WAT     H1 9778   1.181   3.141   4.423
 3189WAT     H2 9779   1.175   3.272   4.499
 3190WAT      O 9780   1.013   3.061   5.039
 3190WAT     H1 9781   1.056   3.035   4.957
 3190WAT     H2 9782   1.084   3.089   5.096
 3191WAT      O 9783   0.747   2.808   4.367
 3191WAT     H1 9784   0.652   2.811   4.367
 3191WAT     H2 9785   0.774   2.898   4.347
 3192WAT      O 9786   0.746   2.422   4.025
 3192WAT     H1 9787   0.659   2.440   4.060
 3192WAT     H2 9788   0.788   2.508   4.019
 3193WAT      O 9789   1.392   2.896   5.046
 3193WAT     H1 9790   1.317   2.925   4.994
 3193WAT     H2 9791   1.465   2.948   5.013
 3194WAT      O 9792   1.143   2.962   4.406
 3194WAT     H1 9793   1.079   2.926   4.346
 3194WAT     H2 9794   1.145   2.901   4.480
 3195WAT      O 9795   1.095   2.580   5.139
 3195WAT     H1 9796   1.053   2.665   5.155
 3195WAT     H2 9797   1.022   2.520   5.126
 3196WAT      O 9798   0.313   2.849   4.625
 3196WAT     H1 9799   0.253   2.791   4.580
 3196WAT     H2 9800   0.325   2.810   4.711
 3197WAT      O 9801   0.357   3.204   4.845
 3197WAT     H1 9802   0.333   3.161   4.762
 3197WAT     H2 9803   0.452   3.218   4.837
 3198WAT      O 9804   0.186   2.516   5.012
 3198WAT     H1 9805   0.223   2.554   4.933
 3198WAT     H2 9806   0.217   2.573   5.083
 3199WAT      O 9807   1.159   3.573   5.215
 3199WAT     H1 9808   1.126   3.658   5.184
 3199WAT     H2 9809   1.082   3.516   5.214
 3200WAT      O 9810   0.267   3.210   5.499
 3200WAT     H1 9811   0.180   3.206   5.539
 3200WAT     H2 9812   0.250   3.219   5.405
 3201WAT      O 9813   0.969   2.890   4.104
 3201WAT     H1 9814   1.002   2.801   4.088
 3201WAT     H2 9815   1.048   2.945   4.101
 3202WAT      O 9816   0.768   3.368   4.494
 3202WAT     H1 9817   0.823   3.436   4.454
 3202WAT     H2 9818   0.758   3.396   4.585
 3203WAT      O 9819   0.319   3.482   5.585
 3203WAT     H1 9820   0.327   3.524   5.499
 3203WAT     H2 9821   0.319   3.388   5.566
 3204WAT      O 9822   1.448   3.264   5.426
 3204WAT     H1 9823   1.485   3.249   5.339
 3204WAT     H2 9824   1.464   3.182   5.473
 3205WAT      O 9825   0.851   3.639   5.297
 3205WAT     H1 9826   0.897   3.631   5.381
 3205WAT     H2 9827   0.765   3.676   5.320
 3206WAT      O 9828   1.039   3.678   4.235
 3206WAT     H1 9829   1.019   3.647   4.323
 3206WAT     H2 9830   1.036   3.599   4.181
 3207WAT      O 9831   0.283   3.648   4.404
 3207WAT     H1 9832   0.278   3.552   4.395
 3207WAT     H2 9833   0.199   3.673   4.442
 3208WAT      O 9834   1.010   3.449   4.082
 3208WAT     H1 9835   0.934   3.420   4.031
 3208WAT     H2 9836   1.082   3.396   4.049
 3209WAT      O 9837   0.968   3.584   4.502
 3209WAT     H1 9838   1.024   3.513   4.535
 3209WAT     H2 9839   0.999   3.662   4.547
 3210WAT      O 9840   1.453   2.482   5.523
 3210WAT     H1 9841   1.403   2.547   5.473
 3210WAT     H2 9842   1.399   2.403   5.519
 3211WAT      O 9843   0.234   2.085   4.705
 3211WAT     H1 9844   0.173   2.158   4.696
 3211WAT     H2 9845   0.274   2.098   4.791
 3212WAT      O 9846   0.647   2.364   5.277
 3212WAT     H1 9847   0.591   2.386   5.351
 3212WAT     H2 9848   0.609   2.283   5.241
 3213WAT      O 9849   1.160   2.462   5.381
 3213WAT     H1 9850   1.073   2.455   5.420
 3213WAT     H2 9851   1.146   2.516   5.302
 3214WAT      O 9852   0.856   2.638   5.585
 3214WAT     H1 9853   0.882   2.547   5.571
 3214WAT     H2 9854   0.935   2.681   5.618
 3215WAT      O 9855   0.529   2.042   4.203
 3215WAT     H1 9856   0.461   2.040   4.271
 3215WAT     H2 9857   0.539   1.951   4.176
 3216WAT      O 9858   0.431   2.132   4.905
 3216WAT     H1 9859   0.446   2.224   4.882
 3216WAT     H2 9860   0.477   2.084   4.836
 3217WAT      O 9861   0.916   2.587   4.345
 3217WAT     H1 9862   0.861   2.665   4.337
 3217WAT     H2 9863   0.967   2.586   4.264
 3218WAT      O 9864   0.443   2.682   5.548
 3218WAT     H1 9865   0.446   2.590   5.521
 3218WAT     H2 9866   0.531   2.715   5.527
 3219WAT      O 9867   0.802   2.462   4.561
 3219WAT     H1 9868   0.834   2.494   4.476
 3219WAT     H2 9869   0.810   2.367   4.555
 3220WAT      O 9870   0.841   2.709   4.963
 3220WAT     H1 9871   0.765   2.755   4.999
 3220WAT     H2 9872   0.804   2.630   4.924
 3221WAT      O 9873   0.487   2.381   4.799
 3221WAT     H1 9874   0.494   2.347   4.709
 3221WAT     H2 9875   0.573   2.417   4.818
 3222WAT      O 9876   0.499   2.482   4.119
 3222WAT     H1 9877   0.488   2.485   4.214
 3222WAT     H2 9878   0.462   2.564   4.088
 3223WAT      O 9879   0.886   2.262   4.906
 3223WAT     H1 9880   0.894   2.300   4.994
 3223WAT     H2 9881   0.853   2.174   4.921
 3224WAT      O 9882   0.397   2.721   4.032
 3224WAT     H1 9883   0.340   2.676   3.970
 3224WAT     H2 9884   0.464   2.763   3.978
 3225WAT      O 9885   1.209   1.974   5.489
 3225WAT     H1 9886   1.284   1.934   5.533
 3225WAT     H2 9887   1.234   1.979   5.397
 3226WAT      O 9888   0.525   2.792   4.975
 3226WAT     H1 9889   0.546   2.733   5.047
 3226WAT     H2 9890   0.484   2.867   5.016
 3227WAT      O 9891   0.302   2.691   5.196
 3227WAT     H1 9892   0.277   2.778   5.225
 3227WAT     H2 9893   0.396   2.686   5.215
 3228WAT      O 9894   1.226   3.002   4.842
 3228WAT     H1 9895   1.299   3.053   4.807
 3228WAT     H2 9896   1.203   2.941   4.772
 3229WAT      O 9897   0.774   2.155   4.257
 3229WAT     H1 9898   0.690   2.111   4.244
 3229WAT     H2 9899   0.764   2.239   4.213
 3230WAT      O 9900   0.768   3.022   5.448
 3230WAT     H1 9901   0.762   2.936   5.406
 3230WAT     H2 9902   0.690   3.028   5.503
 3231WAT      O 9903   1.042   2.586   4.093
 3231WAT     H1 9904   1.129   2.621   4.075
 3231WAT     H2 9905   1.045   2.495   4.063
 3232WAT      O 9906   0.657   3.210   4.166
 3232WAT     H1 9907   0.681   3.289   4.118
 3232WAT     H2 9908   0.568   3.227   4.197
 3233WAT      O 9909   0.216   2.819   5.613
 3233WAT     H1 9910   0.190   2.832   5.522
 3233WAT     H2 9911   0.301   2.774   5.607
 3234WAT      O 9912   0.757   3.293   5.401
 3234WAT     H1 9913   0.762   3.197   5.406
 3234WAT     H2 9914   0.691   3.317   5.465
 3235WAT      O 9915   1.274   2.722   4.032
 3235WAT     H1 9916   1.261   2.769   3.949
 3235WAT     H2 9917   1.339   2.774   4.079
 3236WAT      O 9918   1.381   2.975   5.337
 3236WAT     H1 9919   1.305   3.031   5.322
 3236WAT     H2 9920   1.423   2.968   5.251
 3237WAT      O 9921   1.387   3.405   4.305
 3237WAT     H1 9922   1.319   3.347   4.337
 3237WAT     H2 9923   1.350   3.446   4.227
 3238WAT      O 9924   0.939   3.138   4.693
 3238WAT     H1 9925   0.965   3.072   4.628
 3238WAT     H2 9926   0.849   3.114   4.716
 3239WAT      O 9927   0.530   3.209   4.446
 3239WAT     H1 9928   0.609   3.259   4.465
 3239WAT     H2 9929   0.461   3.276   4.440
 3240WAT      O 9930   0.483   2.918   4.411
 3240WAT     H1 9931   0.512   3.008   4.425
 3240WAT     H2 9932   0.431   2.896   4.489
 3241WAT      O 9933   0.691   3.469   5.115
 3241WAT     H1 9934   0.747   3.498   5.186
 3241WAT     H2 9935   0.732   3.388   5.084
 3242WAT      O 9936   0.835   3.269   4.991
 3242WAT     H1 9937   0.886   3.190   5.011
 3242WAT     H2 9938   0.900   3.334   4.964
 3243WAT      O 9939   1.207   3.291   3.961
 3243WAT     H1 9940   1.190   3.215   4.016
 3243WAT     H2 9941   1.185   3.263   3.872
 3244WAT      O 9942   1.014   3.349   5.326
 3244WAT     H1 9943   1.027   3.420   5.389
 3244WAT     H2 9944   0.921   3.328   5.333
 3245WAT      O 9945   1.175   3.083   4.135
 3245WAT     H1 9946   1.146   3.130   4.214
 3245WAT     H2 9947   1.256   3.040   4.161
 3246WAT      O 9948   0.399   3.434   4.130
 3246WAT     H1 9949   0.400   3.506   4.066
 3246WAT     H2 9950   0.309   3.402   4.128
 3247WAT      O 9951   0.904   2.372   5.159
 3247WAT     H1 9952   0.949   2.299   5.201
 3247WAT     H2 9953   0.819   2.377   5.204
 3248WAT      O 9954   1.241   2.292   4.252
 3248WAT     H1 9955   1.184   2.286   4.175
 3248WAT     H2 9956   1.184   2.269   4.326
 3249WAT      O 9957   0.683   3.435   3.996
 3249WAT     H1 9958   0.696   3.413   3.904
 3249WAT     H2 9959   0.589   3.422   4.010
 3250WAT      O 9960   0.432   2.482   4.383
 3250WAT     H1 9961   0.390   2.549   4.438
 3250WAT     H2 9962   0.478   2.426   4.446
 3251WAT      O 9963   0.593   2.643   5.192
 3251WAT     H1 9964   0.652   2.688   5.251
 3251WAT     H2 9965   0.614   2.550   5.202
 3252WAT      O 9966   0.851   2.175   4.529
 3252WAT     H1 9967   0.828   2.162   4.437
 3252WAT     H2 9968   0.946   2.186   4.528
 3253WAT      O 9969   0.551   3.697   4.459
 3253WAT     H1 9970   0.591   3.687   4.373
 3253WAT     H2 9971   0.458   3.679   4.444
 3254WAT      O 9972   0.255   2.336   4.127
 3254WAT     H1 9973   0.344   2.362   4.106
 3254WAT     H2 9974   0.235   2.379   4.210
 3255WAT      O 9975   1.330   2.263   5.274
 3255WAT     H1 9976   1.273   2.332   5.307
 3255WAT     H2 9977   1.408   2.309   5.242
 3256WAT      O 9978   1.154   2.802   4.626
 3256WAT     H1 9979   1.062   2.776   4.634
 3256WAT     H2 9980   1.203   2.727   4.659
 3257WAT      O 9981   1.362   3.507   4.778
 3257WAT     H1 9982   1.372   3.587   4.830
 3257WAT     H2 9983   1.450   3.489   4.745
 3258WAT      O 9984   0.407   3.621   3.935
 3258WAT     H1 9985   0.483   3.669   3.900
 3258WAT     H2 9986   0.367   3.580   3.859
 3259WAT      O 9987   1.028   3.608   5.519
 3259WAT     H1 9988   1.123   3.610   5.505
 3259WAT     H2 9989   1.014   3.668   5.592
 3260WAT      O 9990   1.317   3.553   4.085
 3260WAT     H1 9991   1.287   3.509   4.006
 3260WAT     H2 9992   1.297   3.646   4.069
 3261WAT      O 9993   0.466   3.149   3.909
 3261WAT     H1 9994   0.450   3.102   3.991
 3261WAT     H2 9995   0.461   3.082   3.841
 3262WAT      O 9996   0.498   3.029   5.511
 3262WAT     H1 9997   0.416   3.075   5.526
 3262WAT     H2 9998   0.493   3.001   5.419
 3263WAT      O 9999   0.785   3.053   3.977
 3263WAT     H110000   0.737   3.100   4.045
 3263WAT     H210001   0.848   2.998   4.026
 3264WAT      O10002   1.194   3.192   5.562
 3264WAT     H110003   1.272   3.230   5.522
 3264WAT     H210004   1.121   3.225   5.508
 3265WAT      O10005   0.361   2.961   4.164
 3265WAT     H110006   0.402   2.943   4.248
 3265WAT     H210007   0.362   2.877   4.118
 3266WAT      O10008   0.611   2.844   3.904
 3266WAT     H110009   0.671   2.787   3.855
 3266WAT     H210010   0.664   2.921   3.926
 3267WAT      O10011   1.053   2.980   5.438
 3267WAT     H110012   1.103   3.026   5.505
 3267WAT     H210013   0.963   3.009   5.451
 3268WAT      O10014   1.112   2.727   5.618
 3268WAT     H110015   1.182   2.662   5.608
 3268WAT     H210016   1.129   2.791   5.548
 3269WAT      O10017   0.503   2.118   5.164
 3269WAT     H110018   0.463   2.121   5.077
 3269WAT     H210019   0.442   2.067   5.217
 3270WAT      O10020   0.518   3.000   5.235
 3270WAT     H110021   0.584   3.064   5.209
 3270WAT     H210022   0.444   3.016   5.176
 3271WAT      O10023   0.770   2.757   5.362
 3271WAT     H110024   0.794   2.715   5.444
 3271WAT     H210025   0.853   2.768   5.315
 3272WAT      O10026   0.996   2.823   5.221
 3272WAT     H110027   0.974   2.881   5.148
 3272WAT     H210028   1.034   2.882   5.287
 3273WAT      O10029   0.254   2.549   3.877
 3273WAT     H110030   0.222   2.464   3.907
 3273WAT     H210031   0.219   2.557   3.788
 3274WAT      O10032   0.334   3.638   5.338
 3274WAT     H110033   0.259   3.685   5.302
 3274WAT     H210034   0.356   3.573   5.271
 3275WAT      O10035   0.462   2.413   5.491
 3275WAT     H110036   0.501   2.381   5.572
 3275WAT     H210037   0.373   2.379   5.492
 3276WAT      O10038   0.933   2.380   5.522
 3276WAT     H110039   0.867   2.317   5.493
 3276WAT     H210040   1.002   2.327   5.561
 3277WAT      O10041   0.984   2.039   4.106
 3277WAT     H110042   1.017   1.961   4.152
 3277WAT     H210043   0.917   2.073   4.165
 3278WAT      O10044   0.608   3.745   5.364
 3278WAT     H110045   0.599   3.833   5.399
 3278WAT     H210046   0.519   3.710   5.362
 3279WAT      O10047   0.463   2.166   3.954
 3279WAT     H110048   0.405   2.105   3.909
 3279WAT     H210049   0.471   2.130   4.043
 3280WAT      O10050   0.665   3.674   4.139
 3280WAT     H110051   0.755   3.704   4.134
 3280WAT     H210052   0.663   3.595   4.086
 3281WAT      O10053   0.219   3.318   4.460
 3281WAT     H110054   0.179   3.303   4.546
 3281WAT     H210055   0.205   3.236   4.412
 3282WAT      O10056   1.369   3.528   5.387
 3282WAT     H110057   1.296   3.532   5.325
 3282WAT     H210058   1.383   3.434   5.402
 3283WAT      O10059   1.484   3.288   3.936
 3283WAT     H110060   1.391   3.296   3.959
 3283WAT     H210061   1.507   3.373   3.899
 3284WAT      O10062   1.424   2.962   4.175
 3284WAT     H110063   1.498   3.023   4.179
 3284WAT     H210064   1.433   2.909   4.253
 3285WAT      O10065   1.536   3.055   4.676
 3285WAT     H110066   1.571   2.973   4.642
 3285WAT     H210067   1.596   3.122   4.643
 3286WAT      O10068   1.213   3.183   5.203
 3286WAT     H110069   1.145   3.240   5.241
 3286WAT     H210070   1.262   3.241   5.145
 3287WAT      O10071   1.459   2.995   3.900
 3287WAT     H110072   1.463   3.089   3.882
 3287WAT     H210073   1.423   2.989   3.988
 3288WAT      O10074   1.085   2.292   4.024
 3288WAT     H110075   1.113   2.278   3.934
 3288WAT     H210076   1.037   2.212   4.047
 3289WAT      O10077   1.420   2.792   4.391
 3289WAT     H110078   1.389   2.706   4.361
 3289WAT     H210079   1.351   2.825   4.447
 3290WAT      O10080   1.369   2.698   5.363
 3290WAT     H110081   1.355   2.676   5.271
 3290WAT     H210082   1.376   2.794   5.364
 3291WAT      O10083   1.343   2.618   4.730
 3291WAT     H110084   1.388   2.566   4.663
 3291WAT     H210085   1.414   2.651   4.785
 3292WAT      O10086   1.368   2.616   5.083
 3292WAT     H110087   1.273   2.610   5.082
 3292WAT     H210088   1.386   2.706   5.054
 3293WAT      O10089   1.327   2.539   4.328
 3293WAT     H110090   1.361   2.501   4.409
 3293WAT     H210091   1.289   2.465   4.281
 3294WAT      O10092   1.443   2.408   4.573
 3294WAT     H110093   1.436   2.375   4.663
 3294WAT     H210094   1.526   2.371   4.541
 3295WAT      O10095   1.298   1.993   5.222
 3295WAT     H110096   1.332   2.081   5.237
 3295WAT     H210097   1.292   1.984   5.127
 3296WAT      O10098   1.245   3.664   4.571
 3296WAT     H110099   1.305   3.646   4.498
 3296WAT     H210100   1.270   3.600   4.638
 3297WAT      O10101   0.402   3.472   5.137
 3297WAT     H110102   0.370   3.485   5.048
 3297WAT     H210103   0.497   3.469   5.128
 3298WAT      O10104   0.618   2.112   5.499
 3298WAT     H110105   0.606   2.143   5.589
 3298WAT     H210106   0.713   2.104   5.489
 3299WAT      O10107   0.892   2.093   5.479
 3299WAT     H110108   0.939   2.111   5.397
 3299WAT     H210109   0.949   2.031   5.525
 3300WAT      O10110   1.527   3.658   5.191
 3300WAT     H110111   1.462   3.708   5.141
 3300WAT     H210112   1.476   3.614   5.258
 3301WAT      O10113   0.959   1.930   5.116
 3301WAT     H110114   0.884   1.966   5.068
 3301WAT     H210115   0.921   1.868   5.178
 3302WAT      O10116   1.038   2.151   5.251
 3302WAT     H110117   1.018   2.074   5.197
 3302WAT     H210118   1.134   2.158   5.249
 3303WAT      O10119   1.285   3.737   4.943
 3303WAT     H110120   1.250   3.812   4.895
 3303WAT     H210121   1.214   3.673   4.941
 3304WAT      O10122   0.349   3.555   4.879
 3304WAT     H110123   0.381   3.501   4.806
 3304WAT     H210124   0.416   3.622   4.890
 3305WAT      O10125   0.613   3.655   4.929
 3305WAT     H110126   0.652   3.628   4.846
 3305WAT     H210127   0.645   3.591   4.992
 3306WAT      O10128   0.728   2.022   5.001
 3306WAT     H110129   0.658   2.069   5.047
 3306WAT     H210130   0.687   1.941   4.970
 3307WAT      O10131   1.175   2.086   4.805
 3307WAT     H110132   1.237   2.087   4.732
 3307WAT     H210133   1.152   2.178   4.819
 3308WAT      O10134   1.356   2.063   4.604
 3308WAT     H110135   1.345   1.969   4.588
 3308WAT     H210136   1.437   2.070   4.656
 3309WAT      O10137   0.506   2.264   4.551
 3309WAT     H110138   0.441   2.212   4.504
 3309WAT     H210139   0.574   2.202   4.576
 3310WAT      O10140   0.965   1.930   4.680
 3310WAT     H110141   1.033   1.983   4.721
 3310WAT     H210142   0.900   1.994   4.650
 3311WAT      O10143   0.329   2.092   4.406
 3311WAT     H110144   0.274   2.017   4.430
 3311WAT     H210145   0.268   2.152   4.363
 3312WAT      O10146   1.437   3.690   4.371
 3312WAT     H110147   1.443   3.611   4.318
 3312WAT     H210148   1.391   3.753   4.316
 3313WAT      O10149   0.346   2.015   5.650
 3313WAT     H110150   0.304   2.051   5.571
 3313WAT     H210151   0.365   1.924   5.627
 3314WAT      O10152   0.226   3.732   4.136
 3314WAT     H110153   0.290   3.708   4.068
 3314WAT     H210154   0.266   3.702   4.218
 3315WAT      O10155   0.883   2.752   2.736
 3315WAT     H110156   0.868   2.658   2.723
 3315WAT     H210157   0.834   2.794   2.666
 3316WAT      O10158   0.696   2.928   2.924
 3316WAT     H110159   0.628   2.876   2.967
 3316WAT     H210160   0.768   2.867   2.909
 3317WAT      O10161   1.098   3.375   2.809
 3317WAT     H110162   1.051   3.294   2.831
 3317WAT     H210163   1.179   3.371   2.861
 3318WAT      O10164   0.720   3.602   2.786
 3318WAT     H110165   0.659   3.636   2.721
 3318WAT     H210166   0.806   3.623   2.751
 3319WAT      O10167   0.629   3.193   2.938
 3319WAT     H110168   0.646   3.100   2.925
 3319WAT     H210169   0.699   3.222   2.997
 3320WAT      O10170   0.740   2.482   2.948
 3320WAT     H110171   0.791   2.404   2.969
 3320WAT     H210172   0.754   2.496   2.855
 3321WAT      O10173   1.132   2.230   2.647
 3321WAT     H110174   1.209   2.176   2.661
 3321WAT     H210175   1.132   2.292   2.720
 3322WAT      O10176   0.352   2.625   2.935
 3322WAT     H110177   0.410   2.671   2.996
 3322WAT     H210178   0.390   2.537   2.928
 3323WAT      O10179   1.541   2.430   3.310
 3323WAT     H110180   1.483   2.489   3.261
 3323WAT     H210181   1.585   2.488   3.373
 3324WAT      O10182   0.813   3.089   2.508
 3324WAT     H110183   0.748   3.123   2.446
 3324WAT     H210184   0.843   3.166   2.556
 3325WAT      O10185   0.314   3.055   3.194
 3325WAT     H110186   0.244   3.105   3.236
 3325WAT     H210187   0.326   3.097   3.109
 3326WAT      O10188   1.160   2.411   2.926
 3326WAT     H110189   1.081   2.432   2.976
 3326WAT     H210190   1.195   2.496   2.900
 3327WAT      O10191   1.299   3.377   3.152
 3327WAT     H110192   1.245   3.454   3.171
 3327WAT     H210193   1.352   3.403   3.077
 3328WAT      O10194   1.444   2.362   2.975
 3328WAT     H110195   1.350   2.374   2.986
 3328WAT     H210196   1.483   2.439   3.017
 3329WAT      O10197   0.505   2.000   2.795
 3329WAT     H110198   0.534   1.940   2.726
 3329WAT     H210199   0.410   2.008   2.780
 3330WAT      O10200   1.064   3.571   3.023
 3330WAT     H110201   1.062   3.527   2.939
 3330WAT     H210202   1.002   3.644   3.013
 3331WAT      O10203   1.194   3.235   2.535
 3331WAT     H110204   1.181   3.141   2.546
 3331WAT     H210205   1.174   3.272   2.621
 3332WAT      O10206   1.013   3.060   3.162
 3332WAT     H110207   1.056   3.036   3.080
 3332WAT     H210208   1.084   3.090   3.219
 3333WAT      O10209   0.747   2.808   2.490
 3333WAT     H110210   0.652   2.811   2.490
 3333WAT     H210211   0.774   2.897   2.469
 3334WAT      O10212   0.747   2.422   2.148
 3334WAT     H110213   0.660   2.439   2.183
 3334WAT     H210214   0.787   2.509   2.140
 3335WAT      O10215   1.393   2.894   3.166
 3335WAT     H110216   1.316   2.924   3.117
 3335WAT     H210217   1.464   2.949   3.135
 3336WAT      O10218   1.145   2.961   2.528
 3336WAT     H110219   1.079   2.927   2.468
 3336WAT     H210220   1.144   2.900   2.602
 3337WAT      O10221   1.095   2.580   3.261
 3337WAT     H110222   1.053   2.665   3.277
 3337WAT     H210223   1.023   2.519   3.249
 3338WAT      O10224   0.313   2.850   2.748
 3338WAT     H110225   0.253   2.790   2.702
 3338WAT     H210226   0.325   2.809   2.834
 3339WAT      O10227   0.357   3.203   2.967
 3339WAT     H110228   0.333   3.161   2.885
 3339WAT     H210229   0.451   3.218   2.959
 3340WAT      O10230   0.184   2.518   3.135
 3340WAT     H110231   0.223   2.554   3.056
 3340WAT     H210232   0.217   2.573   3.206
 3341WAT      O10233   1.161   3.571   3.334
 3341WAT     H110234   1.127   3.658   3.309
 3341WAT     H210235   1.083   3.517   3.341
 3342WAT      O10236   0.265   3.216   3.623
 3342WAT     H110237   0.178   3.201   3.661
 3342WAT     H210238   0.249   3.219   3.528
 3343WAT      O10239   0.970   2.890   2.227
 3343WAT     H110240   1.002   2.802   2.210
 3343WAT     H210241   1.047   2.946   2.223
 3344WAT      O10242   0.769   3.368   2.617
 3344WAT     H110243   0.823   3.436   2.577
 3344WAT     H210244   0.758   3.397   2.708
 3345WAT      O10245   0.337   3.479   3.707
 3345WAT     H110246   0.327   3.525   3.624
 3345WAT     H210247   0.311   3.389   3.689
 3346WAT      O10248   1.322   2.000   2.058
 3346WAT     H110249   1.307   2.004   2.152
 3346WAT     H210250   1.397   2.057   2.043
 3347WAT      O10251   1.527   3.550   3.841
 3347WAT     H110252   1.570   3.602   3.909
 3347WAT     H210253   1.586   3.555   3.766
 3348WAT      O10254   1.444   3.261   3.549
 3348WAT     H110255   1.484   3.246   3.463
 3348WAT     H210256   1.469   3.184   3.600
 3349WAT      O10257   0.852   3.638   3.419
 3349WAT     H110258   0.899   3.633   3.502
 3349WAT     H210259   0.767   3.676   3.443
 3350WAT      O10260   1.038   3.678   2.357
 3350WAT     H110261   1.019   3.647   2.446
 3350WAT     H210262   1.036   3.599   2.303
 3351WAT      O10263   0.283   3.648   2.527
 3351WAT     H110264   0.278   3.553   2.517
 3351WAT     H210265   0.199   3.673   2.565
 3352WAT      O10266   1.010   3.449   2.204
 3352WAT     H110267   0.934   3.420   2.152
 3352WAT     H210268   1.082   3.396   2.171
 3353WAT      O10269   0.968   3.584   2.624
 3353WAT     H110270   1.024   3.513   2.658
 3353WAT     H210271   0.999   3.662   2.669
 3354WAT      O10272   1.446   2.481   3.651
 3354WAT     H110273   1.405   2.551   3.600
 3354WAT     H210274   1.393   2.404   3.632
 3355WAT      O10275   0.234   2.085   2.828
 3355WAT     H110276   0.173   2.158   2.818
 3355WAT     H210277   0.274   2.098   2.913
 3356WAT      O10278   0.647   2.364   3.400
 3356WAT     H110279   0.592   2.386   3.474
 3356WAT     H210280   0.608   2.285   3.363
 3357WAT      O10281   1.162   2.465   3.503
 3357WAT     H110282   1.076   2.451   3.544
 3357WAT     H210283   1.142   2.516   3.424
 3358WAT      O10284   0.856   2.641   3.713
 3358WAT     H110285   0.879   2.550   3.697
 3358WAT     H210286   0.938   2.681   3.744
 3359WAT      O10287   0.529   2.042   2.326
 3359WAT     H110288   0.461   2.039   2.393
 3359WAT     H210289   0.540   1.951   2.299
 3360WAT      O10290   0.431   2.132   3.027
 3360WAT     H110291   0.446   2.224   3.005
 3360WAT     H210292   0.477   2.083   2.960
 3361WAT      O10293   0.917   2.588   2.467
 3361WAT     H110294   0.861   2.665   2.460
 3361WAT     H210295   0.967   2.587   2.385
 3362WAT      O10296   0.441   2.684   3.660
 3362WAT     H110297   0.445   2.590   3.647
 3362WAT     H210298   0.530   2.715   3.645
 3363WAT      O10299   0.802   2.463   2.684
 3363WAT     H110300   0.834   2.494   2.599
 3363WAT     H210301   0.809   2.367   2.678
 3364WAT      O10302   0.614   2.324   3.805
 3364WAT     H110303   0.555   2.280   3.865
 3364WAT     H210304   0.682   2.361   3.861
 3365WAT      O10305   0.841   2.710   3.084
 3365WAT     H110306   0.765   2.755   3.122
 3365WAT     H210307   0.804   2.630   3.046
 3366WAT      O10308   0.487   2.381   2.921
 3366WAT     H110309   0.495   2.347   2.832
 3366WAT     H210310   0.573   2.417   2.941
 3367WAT      O10311   0.500   2.482   2.241
 3367WAT     H110312   0.488   2.485   2.336
 3367WAT     H210313   0.462   2.564   2.210
 3368WAT      O10314   0.885   2.263   3.029
 3368WAT     H110315   0.895   2.299   3.117
 3368WAT     H210316   0.854   2.174   3.043
 3369WAT      O10317   0.397   2.721   2.155
 3369WAT     H110318   0.340   2.676   2.093
 3369WAT     H210319   0.464   2.763   2.101
 3370WAT      O10320   1.237   1.987   3.619
 3370WAT     H110321   1.276   1.902   3.643
 3370WAT     H210322   1.237   1.986   3.523
 3371WAT      O10323   0.525   2.792   3.097
 3371WAT     H110324   0.546   2.733   3.170
 3371WAT     H210325   0.484   2.867   3.139
 3372WAT      O10326   0.302   2.691   3.318
 3372WAT     H110327   0.278   2.779   3.348
 3372WAT     H210328   0.395   2.683   3.339
 3373WAT      O10329   1.226   3.002   2.965
 3373WAT     H110330   1.297   3.054   2.930
 3373WAT     H210331   1.203   2.942   2.894
 3374WAT      O10332   0.775   2.155   2.379
 3374WAT     H110333   0.691   2.110   2.367
 3374WAT     H210334   0.763   2.239   2.335
 3375WAT      O10335   0.764   3.022   3.571
 3375WAT     H110336   0.760   2.936   3.530
 3375WAT     H210337   0.687   3.026   3.627
 3376WAT      O10338   1.043   2.585   2.218
 3376WAT     H110339   1.129   2.621   2.197
 3376WAT     H210340   1.046   2.496   2.182
 3377WAT      O10341   0.657   3.209   2.288
 3377WAT     H110342   0.681   3.289   2.240
 3377WAT     H210343   0.568   3.227   2.319
 3378WAT      O10344   0.215   2.825   3.728
 3378WAT     H110345   0.194   2.833   3.635
 3378WAT     H210346   0.300   2.781   3.730
 3379WAT      O10347   0.755   3.294   3.528
 3379WAT     H110348   0.752   3.199   3.527
 3379WAT     H210349   0.688   3.320   3.591
 3380WAT      O10350   1.273   2.723   2.156
 3380WAT     H110351   1.261   2.765   2.071
 3380WAT     H210352   1.341   2.776   2.199
 3381WAT      O10353   1.377   2.972   3.458
 3381WAT     H110354   1.304   3.032   3.444
 3381WAT     H210355   1.422   2.969   3.373
 3382WAT      O10356   1.388   3.405   2.427
 3382WAT     H110357   1.319   3.347   2.460
 3382WAT     H210358   1.350   3.446   2.349
 3383WAT      O10359   0.939   3.137   2.816
 3383WAT     H110360   0.964   3.072   2.751
 3383WAT     H210361   0.850   3.114   2.840
 3384WAT      O10362   0.530   3.210   2.568
 3384WAT     H110363   0.609   3.259   2.588
 3384WAT     H210364   0.461   3.276   2.563
 3385WAT      O10365   0.483   2.918   2.534
 3385WAT     H110366   0.512   3.008   2.548
 3385WAT     H210367   0.432   2.897   2.612
 3386WAT      O10368   0.690   3.468   3.238
 3386WAT     H110369   0.747   3.499   3.309
 3386WAT     H210370   0.732   3.388   3.207
 3387WAT      O10371   0.835   3.268   3.113
 3387WAT     H110372   0.886   3.190   3.133
 3387WAT     H210373   0.900   3.334   3.088
 3388WAT      O10374   1.207   3.291   2.084
 3388WAT     H110375   1.189   3.215   2.138
 3388WAT     H210376   1.186   3.263   1.995
 3389WAT      O10377   1.013   3.351   3.448
 3389WAT     H110378   1.029   3.419   3.514
 3389WAT     H210379   0.921   3.329   3.458
 3390WAT      O10380   1.174   3.083   2.258
 3390WAT     H110381   1.147   3.131   2.336
 3390WAT     H210382   1.256   3.041   2.283
 3391WAT      O10383   0.586   3.344   3.750
 3391WAT     H110384   0.548   3.273   3.802
 3391WAT     H210385   0.515   3.408   3.741
 3392WAT      O10386   0.399   3.435   2.252
 3392WAT     H110387   0.400   3.506   2.189
 3392WAT     H210388   0.309   3.402   2.249
 3393WAT      O10389   0.904   2.372   3.282
 3393WAT     H110390   0.950   2.299   3.324
 3393WAT     H210391   0.820   2.377   3.327
 3394WAT      O10392   1.248   2.270   2.374
 3394WAT     H110393   1.190   2.283   2.299
 3394WAT     H210394   1.190   2.272   2.450
 3395WAT      O10395   0.683   3.435   2.118
 3395WAT     H110396   0.697   3.413   2.026
 3395WAT     H210397   0.589   3.422   2.132
 3396WAT      O10398   0.432   2.482   2.506
 3396WAT     H110399   0.390   2.549   2.560
 3396WAT     H210400   0.478   2.426   2.568
 3397WAT      O10401   0.594   2.643   3.314
 3397WAT     H110402   0.653   2.688   3.374
 3397WAT     H210403   0.613   2.550   3.325
 3398WAT      O10404   0.852   2.178   2.651
 3398WAT     H110405   0.827   2.163   2.560
 3398WAT     H210406   0.947   2.185   2.649
 3399WAT      O10407   0.551   3.697   2.582
 3399WAT     H110408   0.591   3.687   2.496
 3399WAT     H210409   0.458   3.679   2.567
 3400WAT      O10410   0.254   2.336   2.249
 3400WAT     H110411   0.344   2.362   2.228
 3400WAT     H210412   0.236   2.379   2.333
 3401WAT      O10413   1.337   2.266   3.406
 3401WAT     H110414   1.274   2.333   3.432
 3401WAT     H210415   1.409   2.315   3.366
 3402WAT      O10416   1.154   2.802   2.749
 3402WAT     H110417   1.062   2.777   2.757
 3402WAT     H210418   1.202   2.727   2.782
 3403WAT      O10419   1.362   3.507   2.900
 3403WAT     H110420   1.370   3.587   2.952
 3403WAT     H210421   1.450   3.490   2.868
 3404WAT      O10422   0.407   3.621   2.058
 3404WAT     H110423   0.483   3.668   2.022
 3404WAT     H210424   0.367   3.580   1.981
 3405WAT      O10425   0.896   3.236   3.791
 3405WAT     H110426   0.831   3.250   3.722
 3405WAT     H210427   0.857   3.170   3.849
 3406WAT      O10428   1.028   3.617   3.641
 3406WAT     H110429   1.122   3.607   3.654
 3406WAT     H210430   1.001   3.676   3.711
 3407WAT      O10431   1.317   3.553   2.208
 3407WAT     H110432   1.288   3.509   2.128
 3407WAT     H210433   1.298   3.646   2.192
 3408WAT      O10434   0.466   3.150   2.031
 3408WAT     H110435   0.450   3.102   2.113
 3408WAT     H210436   0.461   3.083   1.963
 3409WAT      O10437   0.489   3.031   3.637
 3409WAT     H110438   0.409   3.083   3.639
 3409WAT     H210439   0.495   3.000   3.546
 3410WAT      O10440   0.785   3.052   2.100
 3410WAT     H110441   0.737   3.100   2.168
 3410WAT     H210442   0.848   2.998   2.148
 3411WAT      O10443   1.196   3.197   3.694
 3411WAT     H110444   1.269   3.228   3.640
 3411WAT     H210445   1.118   3.227   3.649
 3412WAT      O10446   0.361   2.961   2.287
 3412WAT     H110447   0.402   2.942   2.371
 3412WAT     H210448   0.362   2.877   2.240
 3413WAT      O10449   0.611   2.844   2.027
 3413WAT     H110450   0.671   2.788   1.977
 3413WAT     H210451   0.664   2.921   2.049
 3414WAT      O10452   1.053   2.980   3.563
 3414WAT     H110453   1.104   3.027   3.629
 3414WAT     H210454   0.964   3.013   3.574
 3415WAT      O10455   1.117   2.731   3.745
 3415WAT     H110456   1.176   2.658   3.727
 3415WAT     H210457   1.131   2.791   3.672
 3416WAT      O10458   0.502   2.120   3.288
 3416WAT     H110459   0.463   2.122   3.200
 3416WAT     H210460   0.442   2.064   3.338
 3417WAT      O10461   0.517   3.001   3.360
 3417WAT     H110462   0.584   3.064   3.332
 3417WAT     H210463   0.444   3.016   3.300
 3418WAT      O10464   0.770   2.757   3.486
 3418WAT     H110465   0.796   2.714   3.567
 3418WAT     H210466   0.852   2.768   3.438
 3419WAT      O10467   0.995   2.824   3.345
 3419WAT     H110468   0.975   2.881   3.271
 3419WAT     H210469   1.034   2.882   3.410
 3420WAT      O10470   0.253   2.549   2.000
 3420WAT     H110471   0.222   2.464   2.029
 3420WAT     H210472   0.220   2.557   1.910
 3421WAT      O10473   0.330   3.634   3.464
 3421WAT     H110474   0.260   3.686   3.424
 3421WAT     H210475   0.356   3.572   3.395
 3422WAT      O10476   0.458   2.415   3.608
 3422WAT     H110477   0.513   2.388   3.682
 3422WAT     H210478   0.375   2.369   3.622
 3423WAT      O10479   0.937   2.382   3.646
 3423WAT     H110480   0.868   2.319   3.624
 3423WAT     H210481   1.005   2.329   3.688
 3424WAT      O10482   0.984   2.039   2.233
 3424WAT     H110483   1.007   1.956   2.274
 3424WAT     H210484   0.914   2.075   2.288
 3425WAT      O10485   0.607   3.746   3.478
 3425WAT     H110486   0.601   3.831   3.521
 3425WAT     H210487   0.519   3.709   3.484
 3426WAT      O10488   0.463   2.166   2.077
 3426WAT     H110489   0.405   2.105   2.032
 3426WAT     H210490   0.471   2.130   2.166
 3427WAT      O10491   0.664   3.674   2.262
 3427WAT     H110492   0.755   3.704   2.257
 3427WAT     H210493   0.663   3.595   2.209
 3428WAT      O10494   0.218   3.319   2.582
 3428WAT     H110495   0.180   3.303   2.669
 3428WAT     H210496   0.205   3.236   2.535
 3429WAT      O10497   1.379   3.525   3.500
 3429WAT     H110498   1.299   3.533   3.448
 3429WAT     H210499   1.383   3.432   3.523
 3430WAT      O10500   1.484   3.288   2.059
 3430WAT     H110501   1.391   3.296   2.082
 3430WAT     H210502   1.507   3.373   2.022
 3431WAT      O10503   1.423   2.963   2.298
 3431WAT     H110504   1.497   3.024   2.301
 3431WAT     H210505   1.434   2.910   2.377
 3432WAT      O10506   1.538   3.054   2.802
 3432WAT     H110507   1.571   2.973   2.764
 3432WAT     H210508   1.595   3.122   2.767
 3433WAT      O10509   1.211   3.183   3.325
 3433WAT     H110510   1.146   3.240   3.365
 3433WAT     H210511   1.261   3.241   3.267
 3434WAT      O10512   1.459   2.994   2.023
 3434WAT     H110513   1.464   3.088   2.004
 3434WAT     H210514   1.423   2.989   2.111
 3435WAT      O10515   1.091   2.291   2.148
 3435WAT     H110516   1.117   2.279   2.057
 3435WAT     H210517   1.039   2.213   2.169
 3436WAT      O10518   1.423   2.790   2.517
 3436WAT     H110519   1.388   2.707   2.485
 3436WAT     H210520   1.351   2.828   2.568
 3437WAT      O10521   1.375   2.696   3.487
 3437WAT     H110522   1.353   2.676   3.395
 3437WAT     H210523   1.379   2.792   3.490
 3438WAT      O10524   1.198   2.219   3.767
 3438WAT     H110525   1.287   2.232   3.799
 3438WAT     H210526   1.207   2.152   3.699
 3439WAT      O10527   1.343   2.618   2.851
 3439WAT     H110528   1.389   2.566   2.785
 3439WAT     H210529   1.413   2.651   2.908
 3440WAT      O10530   1.368   2.616   3.203
 3440WAT     H110531   1.273   2.609   3.205
 3440WAT     H210532   1.386   2.706   3.177
 3441WAT      O10533   1.327   2.539   2.451
 3441WAT     H110534   1.358   2.498   2.532
 3441WAT     H210535   1.286   2.467   2.403
 3442WAT      O10536   1.445   2.407   2.694
 3442WAT     H110537   1.434   2.375   2.784
 3442WAT     H210538   1.528   2.368   2.665
 3443WAT      O10539   1.285   1.999   3.344
 3443WAT     H110540   1.334   2.081   3.353
 3443WAT     H210541   1.291   1.978   3.251
 3444WAT      O10542   1.531   2.173   2.024
 3444WAT     H110543   1.621   2.149   2.002
 3444WAT     H210544   1.537   2.212   2.111
 3445WAT      O10545   1.539   2.259   2.288
 3445WAT     H110546   1.453   2.257   2.330
 3445WAT     H210547   1.564   2.351   2.287
 3446WAT      O10548   1.245   3.663   2.693
 3446WAT     H110549   1.305   3.646   2.621
 3446WAT     H210550   1.269   3.600   2.761
 3447WAT      O10551   0.402   3.473   3.260
 3447WAT     H110552   0.370   3.485   3.171
 3447WAT     H210553   0.497   3.469   3.252
 3448WAT      O10554   0.619   2.097   3.641
 3448WAT     H110555   0.608   2.173   3.698
 3448WAT     H210556   0.711   2.100   3.616
 3449WAT      O10557   0.885   2.094   3.598
 3449WAT     H110558   0.944   2.104   3.523
 3449WAT     H210559   0.930   2.030   3.654
 3450WAT      O10560   1.528   3.659   3.312
 3450WAT     H110561   1.462   3.710   3.264
 3450WAT     H210562   1.478   3.613   3.380
 3451WAT      O10563   0.956   1.935   3.240
 3451WAT     H110564   0.880   1.967   3.192
 3451WAT     H210565   0.920   1.868   3.299
 3452WAT      O10566   1.041   2.152   3.374
 3452WAT     H110567   1.015   2.076   3.322
 3452WAT     H210568   1.137   2.151   3.371
 3453WAT      O10569   1.286   3.736   3.063
 3453WAT     H110570   1.250   3.812   3.017
 3453WAT     H210571   1.215   3.673   3.065
 3454WAT      O10572   0.348   3.555   3.001
 3454WAT     H110573   0.381   3.501   2.929
 3454WAT     H210574   0.416   3.622   3.013
 3455WAT      O10575   0.612   3.655   3.051
 3455WAT     H110576   0.653   3.629   2.969
 3455WAT     H210577   0.645   3.591   3.115
 3456WAT      O10578   0.727   2.023   3.122
 3456WAT     H110579   0.657   2.068   3.170
 3456WAT     H210580   0.687   1.941   3.092
 3457WAT      O10581   1.171   2.086   2.925
 3457WAT     H110582   1.237   2.084   2.856
 3457WAT     H210583   1.155   2.180   2.940
 3458WAT      O10584   1.356   2.063   2.727
 3458WAT     H110585   1.351   1.970   2.704
 3458WAT     H210586   1.437   2.072   2.776
 3459WAT      O10587   0.507   2.264   2.673
 3459WAT     H110588   0.441   2.212   2.627
 3459WAT     H210589   0.574   2.201   2.699
 3460WAT      O10590   0.963   1.932   2.801
 3460WAT     H110591   1.032   1.982   2.844
 3460WAT     H210592   0.898   1.998   2.776
 3461WAT      O10593   1.285   1.980   2.332
 3461WAT     H110594   1.283   2.072   2.360
 3461WAT     H210595   1.200   1.945   2.360
 3462WAT      O10596   0.329   2.092   2.528
 3462WAT     H110597   0.275   2.016   2.551
 3462WAT     H210598   0.267   2.152   2.485
 3463WAT      O10599   0.613   3.742   3.799
 3463WAT     H110600   0.706   3.719   3.802
 3463WAT     H210601   0.611   3.826   3.752
 3464WAT      O10602   1.437   3.690   2.494
 3464WAT     H110603   1.443   3.612   2.440
 3464WAT     H210604   1.391   3.753   2.439
 3465WAT      O10605   0.329   2.008   3.772
 3465WAT     H110606   0.306   2.052   3.690
 3465WAT     H210607   0.373   1.928   3.745
 3466WAT      O10608   0.226   3.731   2.259
 3466WAT     H110609   0.289   3.709   2.191
 3466WAT     H210610   0.266   3.702   2.341
 3467WAT      O10611   1.000   1.953   3.829
 3467WAT     H110612   0.981   1.976   3.920
 3467WAT     H210613   1.082   1.998   3.809
 3468WAT      O10614   1.278   3.665   3.774
 3468WAT     H110615   1.358   3.611   3.776
 3468WAT     H210616   1.296   3.735   3.837
 3469WAT      O10617   0.883   2.752   0.859
 3469WAT     H110618   0.868   2.658   0.846
 3469WAT     H210619   0.835   2.794   0.788
 3470WAT      O10620   0.696   2.928   1.047
 3470WAT     H110621   0.628   2.876   1.089
 3470WAT     H210622   0.768   2.867   1.032
 3471WAT      O10623   1.098   3.375   0.932
 3471WAT     H110624   1.051   3.295   0.953
 3471WAT     H210625   1.178   3.371   0.983
 3472WAT      O10626   0.720   3.602   0.910
 3472WAT     H110627   0.659   3.635   0.844
 3472WAT     H210628   0.806   3.624   0.875
 3473WAT      O10629   0.629   3.193   1.061
 3473WAT     H110630   0.647   3.100   1.048
 3473WAT     H210631   0.699   3.222   1.119
 3474WAT      O10632   0.740   2.482   1.071
 3474WAT     H110633   0.791   2.404   1.091
 3474WAT     H210634   0.754   2.496   0.977
 3475WAT      O10635   1.131   2.230   0.771
 3475WAT     H110636   1.210   2.176   0.784
 3475WAT     H210637   1.133   2.293   0.843
 3476WAT      O10638   0.352   2.625   1.058
 3476WAT     H110639   0.410   2.671   1.119
 3476WAT     H210640   0.390   2.537   1.051
 3477WAT      O10641   1.542   2.431   1.431
 3477WAT     H110642   1.483   2.489   1.383
 3477WAT     H210643   1.584   2.487   1.496
 3478WAT      O10644   0.812   3.089   0.631
 3478WAT     H110645   0.747   3.124   0.569
 3478WAT     H210646   0.843   3.165   0.679
 3479WAT      O10647   0.314   3.054   1.317
 3479WAT     H110648   0.244   3.104   1.359
 3479WAT     H210649   0.326   3.097   1.232
 3480WAT      O10650   1.160   2.411   1.047
 3480WAT     H110651   1.081   2.432   1.098
 3480WAT     H210652   1.196   2.496   1.022
 3481WAT      O10653   1.299   3.377   1.275
 3481WAT     H110654   1.245   3.454   1.294
 3481WAT     H210655   1.353   3.403   1.200
 3482WAT      O10656   1.445   2.363   1.096
 3482WAT     H110657   1.350   2.373   1.109
 3482WAT     H210658   1.483   2.438   1.141
 3483WAT      O10659   0.505   2.000   0.917
 3483WAT     H110660   0.534   1.941   0.848
 3483WAT     H210661   0.411   2.009   0.903
 3484WAT      O10662   1.063   3.571   1.146
 3484WAT     H110663   1.062   3.527   1.061
 3484WAT     H210664   1.002   3.644   1.136
 3485WAT      O10665   1.193   3.236   0.657
 3485WAT     H110666   1.181   3.142   0.667
 3485WAT     H210667   1.175   3.272   0.744
 3486WAT      O10668   1.013   3.060   1.284
 3486WAT     H110669   1.056   3.036   1.203
 3486WAT     H210670   1.083   3.090   1.341
 3487WAT      O10671   0.747   2.807   0.612
 3487WAT     H110672   0.651   2.812   0.615
 3487WAT     H210673   0.775   2.896   0.591
 3488WAT      O10674   0.749   2.416   0.288
 3488WAT     H110675   0.657   2.434   0.308
 3488WAT     H210676   0.783   2.499   0.255
 3489WAT      O10677   1.392   2.894   1.289
 3489WAT     H110678   1.316   2.924   1.240
 3489WAT     H210679   1.464   2.949   1.258
 3490WAT      O10680   1.145   2.963   0.653
 3490WAT     H110681   1.082   2.929   0.589
 3490WAT     H210682   1.143   2.900   0.725
 3491WAT      O10683   1.095   2.581   1.383
 3491WAT     H110684   1.053   2.665   1.399
 3491WAT     H210685   1.023   2.519   1.371
 3492WAT      O10686   0.313   2.849   0.870
 3492WAT     H110687   0.252   2.791   0.825
 3492WAT     H210688   0.325   2.810   0.957
 3493WAT      O10689   0.357   3.203   1.090
 3493WAT     H110690   0.333   3.161   1.007
 3493WAT     H210691   0.451   3.219   1.082
 3494WAT      O10692   0.184   2.518   1.258
 3494WAT     H110693   0.223   2.554   1.178
 3494WAT     H210694   0.217   2.573   1.328
 3495WAT      O10695   1.161   3.571   1.456
 3495WAT     H110696   1.128   3.658   1.432
 3495WAT     H210697   1.083   3.517   1.463
 3496WAT      O10698   0.265   3.216   1.745
 3496WAT     H110699   0.178   3.201   1.783
 3496WAT     H210700   0.249   3.218   1.651
 3497WAT      O10701   0.968   2.888   0.354
 3497WAT     H110702   1.004   2.801   0.336
 3497WAT     H210703   1.043   2.947   0.347
 3498WAT      O10704   0.769   3.369   0.739
 3498WAT     H110705   0.824   3.438   0.702
 3498WAT     H210706   0.757   3.395   0.830
 3499WAT      O10707   0.337   3.479   1.830
 3499WAT     H110708   0.327   3.525   1.747
 3499WAT     H210709   0.311   3.389   1.811
 3500WAT      O10710   1.320   2.013   0.177
 3500WAT     H110711   1.297   2.004   0.270
 3500WAT     H210712   1.402   2.064   0.177
 3501WAT      O10713   1.527   3.550   1.964
 3501WAT     H110714   1.570   3.602   2.032
 3501WAT     H210715   1.586   3.555   1.889
 3502WAT      O10716   1.444   3.261   1.671
 3502WAT     H110717   1.484   3.247   1.585
 3502WAT     H210718   1.469   3.184   1.723
 3503WAT      O10719   0.851   3.638   1.542
 3503WAT     H110720   0.899   3.633   1.624
 3503WAT     H210721   0.767   3.676   1.565
 3504WAT      O10722   1.036   3.677   0.479
 3504WAT     H110723   1.019   3.646   0.568
 3504WAT     H210724   1.038   3.597   0.426
 3505WAT      O10725   0.282   3.649   0.649
 3505WAT     H110726   0.278   3.554   0.639
 3505WAT     H210727   0.199   3.673   0.690
 3506WAT      O10728   1.012   3.445   0.319
 3506WAT     H110729   0.942   3.407   0.267
 3506WAT     H210730   1.083   3.380   0.315
 3507WAT      O10731   0.969   3.582   0.746
 3507WAT     H110732   1.025   3.513   0.781
 3507WAT     H210733   0.999   3.662   0.791
 3508WAT      O10734   1.449   2.483   1.773
 3508WAT     H110735   1.403   2.548   1.720
 3508WAT     H210736   1.396   2.403   1.765
 3509WAT      O10737   0.234   2.085   0.949
 3509WAT     H110738   0.173   2.158   0.941
 3509WAT     H210739   0.274   2.098   1.035
 3510WAT      O10740   0.647   2.365   1.522
 3510WAT     H110741   0.592   2.387   1.597
 3510WAT     H210742   0.608   2.285   1.486
 3511WAT      O10743   1.162   2.466   1.625
 3511WAT     H110744   1.077   2.451   1.666
 3511WAT     H210745   1.142   2.516   1.546
 3512WAT      O10746   0.857   2.641   1.836
 3512WAT     H110747   0.879   2.549   1.819
 3512WAT     H210748   0.938   2.681   1.866
 3513WAT      O10749   0.542   2.037   0.468
 3513WAT     H110750   0.460   2.047   0.516
 3513WAT     H210751   0.531   1.957   0.418
 3514WAT      O10752   0.431   2.132   1.150
 3514WAT     H110753   0.446   2.224   1.128
 3514WAT     H210754   0.477   2.083   1.082
 3515WAT      O10755   0.918   2.589   0.590
 3515WAT     H110756   0.861   2.665   0.583
 3515WAT     H210757   0.966   2.586   0.507
 3516WAT      O10758   0.441   2.684   1.783
 3516WAT     H110759   0.445   2.590   1.769
 3516WAT     H210760   0.530   2.715   1.768
 3517WAT      O10761   0.802   2.463   0.806
 3517WAT     H110762   0.834   2.494   0.721
 3517WAT     H210763   0.809   2.367   0.800
 3518WAT      O10764   0.614   2.324   1.927
 3518WAT     H110765   0.555   2.280   1.988
 3518WAT     H210766   0.682   2.361   1.983
 3519WAT      O10767   0.840   2.710   1.206
 3519WAT     H110768   0.765   2.754   1.245
 3519WAT     H210769   0.804   2.630   1.169
 3520WAT      O10770   0.487   2.381   1.044
 3520WAT     H110771   0.494   2.347   0.955
 3520WAT     H210772   0.573   2.417   1.063
 3521WAT      O10773   0.495   2.481   0.363
 3521WAT     H110774   0.490   2.480   0.458
 3521WAT     H210775   0.461   2.567   0.338
 3522WAT      O10776   0.886   2.263   1.151
 3522WAT     H110777   0.895   2.299   1.239
 3522WAT     H210778   0.854   2.174   1.166
 3523WAT      O10779   0.397   2.717   0.273
 3523WAT     H110780   0.331   2.687   0.210
 3523WAT     H210781   0.464   2.760   0.219
 3524WAT      O10782   1.225   2.001   1.733
 3524WAT     H110783   1.253   1.922   1.779
 3524WAT     H210784   1.241   1.982   1.641
 3525WAT      O10785   0.525   2.792   1.220
 3525WAT     H110786   0.546   2.733   1.292
 3525WAT     H210787   0.484   2.867   1.262
 3526WAT      O10788   0.302   2.691   1.441
 3526WAT     H110789   0.278   2.779   1.471
 3526WAT     H210790   0.395   2.683   1.462
 3527WAT      O10791   1.225   3.002   1.087
 3527WAT     H110792   1.297   3.054   1.053
 3527WAT     H210793   1.203   2.941   1.017
 3528WAT      O10794   0.777   2.158   0.504
 3528WAT     H110795   0.693   2.113   0.494
 3528WAT     H210796   0.766   2.241   0.456
 3529WAT      O10797   0.764   3.023   1.694
 3529WAT     H110798   0.760   2.937   1.652
 3529WAT     H210799   0.687   3.026   1.750
 3530WAT      O10800   1.044   2.587   0.340
 3530WAT     H110801   1.132   2.620   0.321
 3530WAT     H210802   1.044   2.497   0.308
 3531WAT      O10803   0.650   3.211   0.414
 3531WAT     H110804   0.664   3.285   0.355
 3531WAT     H210805   0.561   3.223   0.446
 3532WAT      O10806   0.215   2.825   1.851
 3532WAT     H110807   0.194   2.833   1.758
 3532WAT     H210808   0.300   2.781   1.852
 3533WAT      O10809   0.755   3.294   1.651
 3533WAT     H110810   0.752   3.199   1.650
 3533WAT     H210811   0.688   3.320   1.713
 3534WAT      O10812   1.276   2.724   0.280
 3534WAT     H110813   1.266   2.767   0.196
 3534WAT     H210814   1.338   2.779   0.328
 3535WAT      O10815   1.377   2.972   1.580
 3535WAT     H110816   1.304   3.032   1.566
 3535WAT     H210817   1.423   2.970   1.496
 3536WAT      O10818   1.388   3.404   0.549
 3536WAT     H110819   1.320   3.347   0.583
 3536WAT     H210820   1.348   3.446   0.473
 3537WAT      O10821   0.939   3.138   0.937
 3537WAT     H110822   0.964   3.071   0.873
 3537WAT     H210823   0.850   3.113   0.962
 3538WAT      O10824   0.529   3.210   0.691
 3538WAT     H110825   0.609   3.259   0.711
 3538WAT     H210826   0.460   3.276   0.688
 3539WAT      O10827   0.484   2.918   0.656
 3539WAT     H110828   0.513   3.008   0.671
 3539WAT     H210829   0.432   2.896   0.734
 3540WAT      O10830   0.690   3.468   1.361
 3540WAT     H110831   0.747   3.499   1.431
 3540WAT     H210832   0.732   3.388   1.329
 3541WAT      O10833   0.835   3.268   1.235
 3541WAT     H110834   0.886   3.190   1.256
 3541WAT     H210835   0.900   3.334   1.211
 3542WAT      O10836   1.013   3.351   1.570
 3542WAT     H110837   1.029   3.419   1.636
 3542WAT     H210838   0.920   3.329   1.580
 3543WAT      O10839   1.171   3.079   0.378
 3543WAT     H110840   1.152   3.131   0.456
 3543WAT     H210841   1.258   3.042   0.395
 3544WAT      O10842   0.585   3.344   1.873
 3544WAT     H110843   0.548   3.273   1.925
 3544WAT     H210844   0.515   3.408   1.864
 3545WAT      O10845   0.394   3.438   0.374
 3545WAT     H110846   0.390   3.500   0.301
 3545WAT     H210847   0.305   3.402   0.379
 3546WAT      O10848   0.904   2.372   1.404
 3546WAT     H110849   0.950   2.299   1.446
 3546WAT     H210850   0.820   2.377   1.450
 3547WAT      O10851   1.248   2.270   0.497
 3547WAT     H110852   1.190   2.282   0.422
 3547WAT     H210853   1.191   2.271   0.573
 3548WAT      O10854   0.434   2.484   0.629
 3548WAT     H110855   0.389   2.548   0.685
 3548WAT     H210856   0.478   2.426   0.690
 3549WAT      O10857   0.594   2.643   1.436
 3549WAT     H110858   0.653   2.688   1.497
 3549WAT     H210859   0.613   2.550   1.448
 3550WAT      O10860   0.852   2.177   0.774
 3550WAT     H110861   0.827   2.164   0.683
 3550WAT     H210862   0.947   2.186   0.772
 3551WAT      O10863   0.550   3.694   0.707
 3551WAT     H110864   0.590   3.694   0.620
 3551WAT     H210865   0.457   3.679   0.691
 3552WAT      O10866   0.265   2.321   0.383
 3552WAT     H110867   0.348   2.361   0.357
 3552WAT     H210868   0.231   2.377   0.452
 3553WAT      O10869   1.330   2.263   1.518
 3553WAT     H110870   1.273   2.331   1.554
 3553WAT     H210871   1.408   2.310   1.488
 3554WAT      O10872   1.153   2.802   0.871
 3554WAT     H110873   1.062   2.776   0.879
 3554WAT     H210874   1.202   2.727   0.905
 3555WAT      O10875   1.362   3.507   1.022
 3555WAT     H110876   1.370   3.587   1.075
 3555WAT     H210877   1.450   3.490   0.990
 3556WAT      O10878   0.896   3.237   1.914
 3556WAT     H110879   0.831   3.249   1.845
 3556WAT     H210880   0.857   3.170   1.971
 3557WAT      O10881   1.028   3.617   1.763
 3557WAT     H110882   1.122   3.607   1.775
 3557WAT     H210883   1.001   3.676   1.834
 3558WAT      O10884   1.309   3.549   0.327
 3558WAT     H110885   1.300   3.520   0.236
 3558WAT     H210886   1.305   3.645   0.321
 3559WAT      O10887   0.489   3.031   1.759
 3559WAT     H110888   0.409   3.083   1.762
 3559WAT     H210889   0.495   3.000   1.669
 3560WAT      O10890   0.794   3.065   0.227
 3560WAT     H110891   0.736   3.097   0.297
 3560WAT     H210892   0.849   2.999   0.269
 3561WAT      O10893   1.196   3.197   1.817
 3561WAT     H110894   1.269   3.227   1.763
 3561WAT     H210895   1.118   3.227   1.772
 3562WAT      O10896   0.348   2.954   0.418
 3562WAT     H110897   0.398   2.941   0.498
 3562WAT     H210898   0.360   2.872   0.370
 3563WAT      O10899   1.053   2.980   1.685
 3563WAT     H110900   1.105   3.027   1.751
 3563WAT     H210901   0.964   3.013   1.697
 3564WAT      O10902   1.117   2.730   1.868
 3564WAT     H110903   1.176   2.657   1.849
 3564WAT     H210904   1.131   2.791   1.795
 3565WAT      O10905   0.502   2.119   1.410
 3565WAT     H110906   0.463   2.122   1.323
 3565WAT     H210907   0.443   2.065   1.461
 3566WAT      O10908   0.517   3.002   1.483
 3566WAT     H110909   0.584   3.064   1.454
 3566WAT     H210910   0.444   3.016   1.423
 3567WAT      O10911   0.770   2.757   1.609
 3567WAT     H110912   0.796   2.713   1.690
 3567WAT     H210913   0.852   2.768   1.561
 3568WAT      O10914   0.995   2.824   1.467
 3568WAT     H110915   0.975   2.881   1.393
 3568WAT     H210916   1.035   2.881   1.532
 3569WAT      O10917   0.330   3.634   1.587
 3569WAT     H110918   0.260   3.686   1.547
 3569WAT     H210919   0.356   3.572   1.518
 3570WAT      O10920   0.458   2.415   1.731
 3570WAT     H110921   0.513   2.388   1.804
 3570WAT     H210922   0.375   2.369   1.744
 3571WAT      O10923   0.938   2.382   1.769
 3571WAT     H110924   0.870   2.318   1.747
 3571WAT     H210925   1.008   2.330   1.808
 3572WAT      O10926   0.992   2.049   0.369
 3572WAT     H110927   1.006   1.959   0.398
 3572WAT     H210928   0.916   2.078   0.418
 3573WAT      O10929   0.607   3.745   1.601
 3573WAT     H110930   0.601   3.831   1.644
 3573WAT     H210931   0.519   3.709   1.607
 3574WAT      O10932   0.657   3.667   0.373
 3574WAT     H110933   0.746   3.702   0.378
 3574WAT     H210934   0.665   3.593   0.312
 3575WAT      O10935   0.219   3.318   0.704
 3575WAT     H110936   0.180   3.304   0.790
 3575WAT     H210937   0.204   3.236   0.658
 3576WAT      O10938   1.378   3.525   1.623
 3576WAT     H110939   1.299   3.532   1.570
 3576WAT     H210940   1.383   3.432   1.646
 3577WAT      O10941   1.424   2.956   0.420
 3577WAT     H110942   1.494   3.022   0.419
 3577WAT     H210943   1.436   2.909   0.502
 3578WAT      O10944   1.537   3.054   0.924
 3578WAT     H110945   1.571   2.973   0.887
 3578WAT     H210946   1.595   3.122   0.889
 3579WAT      O10947   1.211   3.183   1.447
 3579WAT     H110948   1.146   3.240   1.488
 3579WAT     H210949   1.261   3.241   1.390
 3580WAT      O10950   1.089   2.292   0.275
 3580WAT     H110951   1.114   2.276   0.184
 3580WAT     H210952   1.040   2.214   0.300
 3581WAT      O10953   1.424   2.789   0.643
 3581WAT     H110954   1.388   2.707   0.609
 3581WAT     H210955   1.352   2.829   0.691
 3582WAT      O10956   1.373   2.697   1.609
 3582WAT     H110957   1.353   2.677   1.517
 3582WAT     H210958   1.379   2.792   1.612
 3583WAT      O10959   1.204   2.230   1.884
 3583WAT     H110960   1.290   2.227   1.926
 3583WAT     H210961   1.205   2.158   1.821
 3584WAT      O10962   1.343   2.618   0.974
 3584WAT     H110963   1.389   2.566   0.908
 3584WAT     H210964   1.412   2.650   1.032
 3585WAT      O10965   1.368   2.615   1.325
 3585WAT     H110966   1.273   2.609   1.327
 3585WAT     H210967   1.385   2.706   1.300
 3586WAT      O10968   1.331   2.538   0.572
 3586WAT     H110969   1.357   2.498   0.655
 3586WAT     H210970   1.286   2.467   0.525
 3587WAT      O10971   1.445   2.407   0.816
 3587WAT     H110972   1.434   2.376   0.906
 3587WAT     H210973   1.527   2.367   0.787
 3588WAT      O10974   1.296   1.991   1.464
 3588WAT     H110975   1.331   2.079   1.481
 3588WAT     H210976   1.292   1.985   1.369
 3589WAT      O10977   1.543   2.256   0.419
 3589WAT     H110978   1.453   2.255   0.451
 3589WAT     H210979   1.563   2.349   0.409
 3590WAT      O10980   1.243   3.662   0.815
 3590WAT     H110981   1.305   3.647   0.744
 3590WAT     H210982   1.270   3.600   0.883
 3591WAT      O10983   0.402   3.473   1.383
 3591WAT     H110984   0.370   3.485   1.294
 3591WAT     H210985   0.497   3.469   1.375
 3592WAT      O10986   0.619   2.097   1.764
 3592WAT     H110987   0.608   2.173   1.821
 3592WAT     H210988   0.711   2.099   1.738
 3593WAT      O10989   0.885   2.092   1.720
 3593WAT     H110990   0.946   2.104   1.647
 3593WAT     H210991   0.932   2.036   1.781
 3594WAT      O10992   1.528   3.658   1.434
 3594WAT     H110993   1.462   3.710   1.387
 3594WAT     H210994   1.478   3.613   1.503
 3595WAT      O10995   0.958   1.931   1.361
 3595WAT     H110996   0.883   1.966   1.314
 3595WAT     H210997   0.922   1.868   1.423
 3596WAT      O10998   1.040   2.152   1.495
 3596WAT     H110999   1.019   2.074   1.443
 3596WAT     H211000   1.136   2.156   1.494
 3597WAT      O11001   1.286   3.736   1.185
 3597WAT     H111002   1.250   3.812   1.140
 3597WAT     H211003   1.215   3.672   1.187
 3598WAT      O11004   0.348   3.555   1.123
 3598WAT     H111005   0.381   3.501   1.052
 3598WAT     H211006   0.416   3.622   1.136
 3599WAT      O11007   0.612   3.655   1.174
 3599WAT     H111008   0.653   3.629   1.091
 3599WAT     H211009   0.645   3.591   1.238
 3600WAT      O11010   0.728   2.022   1.245
 3600WAT     H111011   0.658   2.068   1.292
 3600WAT     H211012   0.687   1.941   1.215
 3601WAT      O11013   1.173   2.086   1.049
 3601WAT     H111014   1.237   2.085   0.978
 3601WAT     H211015   1.154   2.178   1.063
 3602WAT      O11016   1.356   2.063   0.849
 3602WAT     H111017   1.353   1.971   0.825
 3602WAT     H211018   1.437   2.073   0.899
 3603WAT      O11019   0.506   2.264   0.796
 3603WAT     H111020   0.441   2.212   0.748
 3603WAT     H211021   0.574   2.202   0.821
 3604WAT      O11022   0.962   1.931   0.925
 3604WAT     H111023   1.032   1.982   0.967
 3604WAT     H211024   0.898   1.997   0.897
 3605WAT      O11025   1.285   1.978   0.456
 3605WAT     H111026   1.285   2.071   0.479
 3605WAT     H211027   1.198   1.947   0.480
 3606WAT      O11028   0.328   2.091   0.648
 3606WAT     H111029   0.272   2.020   0.678
 3606WAT     H211030   0.267   2.154   0.607
 3607WAT      O11031   0.613   3.742   1.921
 3607WAT     H111032   0.706   3.719   1.924
 3607WAT     H211033   0.611   3.826   1.875
 3608WAT      O11034   1.436   3.691   0.619
 3608WAT     H111035   1.448   3.614   0.562
 3608WAT     H211036   1.390   3.754   0.563
 3609WAT      O11037   0.329   2.009   1.895
 3609WAT     H111038   0.306   2.052   1.812
 3609WAT     H211039   0.373   1.928   1.868
 3610WAT      O11040   0.220   3.710   0.380
 3610WAT     H111041   0.294   3.732   0.324
 3610WAT     H211042   0.258   3.706   0.468
 3611WAT      O11043   0.997   1.958   1.950
 3611WAT     H111044   0.981   1.981   2.042
 3611WAT     H211045   1.087   1.984   1.935
 3612WAT      O11046   1.278   3.665   1.897
 3612WAT     H111047   1.358   3.611   1.898
 3612WAT     H211048   1.296   3.735   1.959
 3613WAT      O11049   0.884   0.874   4.613
 3613WAT     H111050   0.868   0.781   4.601
 3613WAT     H211051   0.834   0.916   4.544
 3614WAT      O11052   0.697   1.051   4.802
 3614WAT     H111053   0.628   1.000   4.845
 3614WAT     H211054   0.768   0.989   4.787
 3615WAT      O11055   1.099   1.499   4.685
 3615WAT     H111056   1.051   1.419   4.706
 3615WAT     H211057   1.179   1.494   4.739
 3616WAT      O11058   0.720   1.723   4.662
 3616WAT     H111059   0.658   1.757   4.599
 3616WAT     H211060   0.806   1.748   4.628
 3617WAT      O11061   0.630   1.316   4.815
 3617WAT     H111062   0.647   1.222   4.803
 3617WAT     H211063   0.699   1.344   4.875
 3618WAT      O11064   0.739   0.607   4.824
 3618WAT     H111065   0.790   0.529   4.846
 3618WAT     H211066   0.754   0.619   4.730
 3619WAT      O11067   1.124   0.352   4.531
 3619WAT     H111068   1.212   0.314   4.528
 3619WAT     H211069   1.129   0.419   4.600
 3620WAT      O11070   0.353   0.748   4.812
 3620WAT     H111071   0.410   0.794   4.874
 3620WAT     H211072   0.390   0.660   4.807
 3621WAT      O11073   1.542   0.553   5.186
 3621WAT     H111074   1.483   0.611   5.139
 3621WAT     H211075   1.583   0.609   5.252
 3622WAT      O11076   0.815   1.213   4.384
 3622WAT     H111077   0.749   1.245   4.323
 3622WAT     H211078   0.841   1.290   4.434
 3623WAT      O11079   0.314   1.177   5.072
 3623WAT     H111080   0.243   1.225   5.114
 3623WAT     H211081   0.326   1.220   4.987
 3624WAT      O11082   1.158   0.534   4.800
 3624WAT     H111083   1.081   0.556   4.852
 3624WAT     H211084   1.196   0.618   4.776
 3625WAT      O11085   1.298   1.501   5.030
 3625WAT     H111086   1.244   1.577   5.046
 3625WAT     H211087   1.353   1.525   4.956
 3626WAT      O11088   1.445   0.487   4.848
 3626WAT     H111089   1.352   0.493   4.867
 3626WAT     H211090   1.484   0.559   4.898
 3627WAT      O11091   1.064   1.694   4.901
 3627WAT     H111092   1.060   1.649   4.817
 3627WAT     H211093   1.002   1.767   4.893
 3628WAT      O11094   1.198   1.356   4.416
 3628WAT     H111095   1.181   1.262   4.424
 3628WAT     H211096   1.171   1.393   4.500
 3629WAT      O11097   1.013   1.183   5.039
 3629WAT     H111098   1.056   1.158   4.957
 3629WAT     H211099   1.084   1.211   5.096
 3630WAT      O11100   0.747   0.930   4.367
 3630WAT     H111101   0.651   0.933   4.368
 3630WAT     H211102   0.774   1.020   4.346
 3631WAT      O11103   0.746   0.544   4.026
 3631WAT     H111104   0.659   0.564   4.062
 3631WAT     H211105   0.789   0.630   4.019
 3632WAT      O11106   1.392   1.018   5.046
 3632WAT     H111107   1.316   1.046   4.995
 3632WAT     H211108   1.464   1.072   5.014
 3633WAT      O11109   1.145   1.083   4.404
 3633WAT     H111110   1.077   1.049   4.346
 3633WAT     H211111   1.144   1.023   4.479
 3634WAT      O11112   1.096   0.703   5.139
 3634WAT     H111113   1.054   0.788   5.155
 3634WAT     H211114   1.023   0.642   5.126
 3635WAT      O11115   0.314   0.972   4.625
 3635WAT     H111116   0.252   0.914   4.580
 3635WAT     H211117   0.325   0.932   4.711
 3636WAT      O11118   0.358   1.325   4.845
 3636WAT     H111119   0.332   1.285   4.762
 3636WAT     H211120   0.452   1.341   4.836
 3637WAT      O11121   0.185   0.639   5.012
 3637WAT     H111122   0.223   0.677   4.933
 3637WAT     H211123   0.217   0.696   5.083
 3638WAT      O11124   1.159   1.695   5.213
 3638WAT     H111125   1.127   1.781   5.185
 3638WAT     H211126   1.081   1.639   5.215
 3639WAT      O11127   0.267   1.332   5.499
 3639WAT     H111128   0.181   1.328   5.539
 3639WAT     H211129   0.250   1.342   5.405
 3640WAT      O11130   0.970   1.012   4.107
 3640WAT     H111131   1.001   0.923   4.088
 3640WAT     H211132   1.047   1.067   4.099
 3641WAT      O11133   0.771   1.489   4.495
 3641WAT     H111134   0.822   1.558   4.453
 3641WAT     H211135   0.757   1.520   4.584
 3642WAT      O11136   0.320   1.605   5.585
 3642WAT     H111137   0.327   1.647   5.499
 3642WAT     H211138   0.319   1.511   5.566
 3643WAT      O11139   1.448   1.387   5.426
 3643WAT     H111140   1.485   1.372   5.339
 3643WAT     H211141   1.464   1.306   5.473
 3644WAT      O11142   0.851   1.761   5.297
 3644WAT     H111143   0.896   1.753   5.381
 3644WAT     H211144   0.765   1.798   5.320
 3645WAT      O11145   1.034   1.796   4.231
 3645WAT     H111146   1.017   1.768   4.321
 3645WAT     H211147   1.030   1.715   4.180
 3646WAT      O11148   0.283   1.770   4.404
 3646WAT     H111149   0.277   1.675   4.395
 3646WAT     H211150   0.199   1.796   4.441
 3647WAT      O11151   1.014   1.565   4.084
 3647WAT     H111152   0.937   1.543   4.032
 3647WAT     H211153   1.086   1.517   4.042
 3648WAT      O11154   0.973   1.706   4.500
 3648WAT     H111155   1.023   1.636   4.542
 3648WAT     H211156   0.999   1.785   4.548
 3649WAT      O11157   1.453   0.605   5.524
 3649WAT     H111158   1.402   0.669   5.474
 3649WAT     H211159   1.401   0.524   5.517
 3650WAT      O11160   0.243   0.221   4.698
 3650WAT     H111161   0.166   0.278   4.697
 3650WAT     H211162   0.274   0.225   4.788
 3651WAT      O11163   0.647   0.485   5.277
 3651WAT     H111164   0.591   0.507   5.351
 3651WAT     H211165   0.609   0.405   5.241
 3652WAT      O11166   1.159   0.588   5.381
 3652WAT     H111167   1.072   0.580   5.421
 3652WAT     H211168   1.145   0.640   5.302
 3653WAT      O11169   0.856   0.762   5.585
 3653WAT     H111170   0.882   0.671   5.571
 3653WAT     H211171   0.935   0.805   5.618
 3654WAT      O11172   0.430   0.255   4.907
 3654WAT     H111173   0.441   0.348   4.888
 3654WAT     H211174   0.481   0.211   4.840
 3655WAT      O11175   0.917   0.711   4.344
 3655WAT     H111176   0.861   0.788   4.337
 3655WAT     H211177   0.967   0.710   4.263
 3656WAT      O11178   0.443   0.806   5.548
 3656WAT     H111179   0.444   0.714   5.523
 3656WAT     H211180   0.531   0.838   5.526
 3657WAT      O11181   0.801   0.586   4.560
 3657WAT     H111182   0.834   0.618   4.476
 3657WAT     H211183   0.810   0.491   4.555
 3658WAT      O11184   0.841   0.832   4.962
 3658WAT     H111185   0.765   0.878   5.000
 3658WAT     H211186   0.804   0.753   4.923
 3659WAT      O11187   0.488   0.504   4.801
 3659WAT     H111188   0.494   0.471   4.711
 3659WAT     H211189   0.574   0.542   4.819
 3660WAT      O11190   0.498   0.603   4.119
 3660WAT     H111191   0.488   0.609   4.214
 3660WAT     H211192   0.463   0.686   4.086
 3661WAT      O11193   0.883   0.393   4.906
 3661WAT     H111194   0.893   0.426   4.995
 3661WAT     H211195   0.876   0.298   4.917
 3662WAT      O11196   0.398   0.842   4.032
 3662WAT     H111197   0.340   0.800   3.969
 3662WAT     H211198   0.465   0.886   3.978
 3663WAT      O11199   0.525   0.915   4.975
 3663WAT     H111200   0.546   0.855   5.047
 3663WAT     H211201   0.483   0.990   5.016
 3664WAT      O11202   0.303   0.814   5.195
 3664WAT     H111203   0.276   0.901   5.226
 3664WAT     H211204   0.396   0.809   5.216
 3665WAT      O11205   1.226   1.124   4.843
 3665WAT     H111206   1.297   1.176   4.807
 3665WAT     H211207   1.203   1.064   4.772
 3666WAT      O11208   0.766   0.288   4.269
 3666WAT     H111209   0.699   0.226   4.241
 3666WAT     H211210   0.758   0.361   4.209
 3667WAT      O11211   0.769   1.144   5.448
 3667WAT     H111212   0.761   1.058   5.406
 3667WAT     H211213   0.690   1.151   5.502
 3668WAT      O11214   1.042   0.707   4.094
 3668WAT     H111215   1.128   0.745   4.075
 3668WAT     H211216   1.047   0.618   4.061
 3669WAT      O11217   0.657   1.332   4.166
 3669WAT     H111218   0.681   1.411   4.117
 3669WAT     H211219   0.567   1.349   4.196
 3670WAT      O11220   0.216   0.941   5.613
 3670WAT     H111221   0.189   0.954   5.522
 3670WAT     H211222   0.301   0.897   5.607
 3671WAT      O11223   0.758   1.415   5.400
 3671WAT     H111224   0.761   1.320   5.406
 3671WAT     H211225   0.692   1.441   5.465
 3672WAT      O11226   1.271   0.847   4.035
 3672WAT     H111227   1.259   0.885   3.948
 3672WAT     H211228   1.344   0.896   4.073
 3673WAT      O11229   1.381   1.097   5.337
 3673WAT     H111230   1.305   1.153   5.323
 3673WAT     H211231   1.422   1.091   5.250
 3674WAT      O11232   1.373   1.533   4.301
 3674WAT     H111233   1.318   1.467   4.342
 3674WAT     H211234   1.320   1.568   4.229
 3675WAT      O11235   0.940   1.260   4.692
 3675WAT     H111236   0.963   1.193   4.628
 3675WAT     H211237   0.850   1.239   4.718
 3676WAT      O11238   0.530   1.331   4.446
 3676WAT     H111239   0.609   1.381   4.466
 3676WAT     H211240   0.461   1.397   4.440
 3677WAT      O11241   0.483   1.040   4.411
 3677WAT     H111242   0.511   1.131   4.425
 3677WAT     H211243   0.431   1.019   4.489
 3678WAT      O11244   0.691   1.591   5.115
 3678WAT     H111245   0.747   1.621   5.187
 3678WAT     H211246   0.731   1.510   5.084
 3679WAT      O11247   0.835   1.391   4.991
 3679WAT     H111248   0.886   1.313   5.011
 3679WAT     H211249   0.899   1.457   4.966
 3680WAT      O11250   1.214   1.413   3.962
 3680WAT     H111251   1.193   1.336   4.014
 3680WAT     H211252   1.189   1.390   3.873
 3681WAT      O11253   1.014   1.472   5.326
 3681WAT     H111254   1.027   1.543   5.389
 3681WAT     H211255   0.922   1.450   5.333
 3682WAT      O11256   1.175   1.204   4.134
 3682WAT     H111257   1.142   1.252   4.210
 3682WAT     H211258   1.255   1.162   4.165
 3683WAT      O11259   0.399   1.556   4.130
 3683WAT     H111260   0.401   1.628   4.066
 3683WAT     H211261   0.308   1.525   4.128
 3684WAT      O11262   0.904   0.496   5.159
 3684WAT     H111263   0.950   0.422   5.201
 3684WAT     H211264   0.819   0.499   5.203
 3685WAT      O11265   1.247   0.412   4.253
 3685WAT     H111266   1.193   0.410   4.173
 3685WAT     H211267   1.186   0.395   4.324
 3686WAT      O11268   0.683   1.557   3.996
 3686WAT     H111269   0.697   1.535   3.904
 3686WAT     H211270   0.589   1.545   4.010
 3687WAT      O11271   0.435   0.605   4.384
 3687WAT     H111272   0.387   0.671   4.434
 3687WAT     H211273   0.479   0.552   4.450
 3688WAT      O11274   0.593   0.765   5.191
 3688WAT     H111275   0.653   0.810   5.251
 3688WAT     H211276   0.613   0.672   5.203
 3689WAT      O11277   0.843   0.311   4.530
 3689WAT     H111278   0.825   0.292   4.438
 3689WAT     H211279   0.938   0.304   4.538
 3690WAT      O11280   0.551   1.818   4.460
 3690WAT     H111281   0.591   1.811   4.373
 3690WAT     H211282   0.458   1.802   4.444
 3691WAT      O11283   0.261   0.451   4.123
 3691WAT     H111284   0.345   0.495   4.108
 3691WAT     H211285   0.230   0.487   4.207
 3692WAT      O11286   1.321   0.386   5.278
 3692WAT     H111287   1.271   0.461   5.308
 3692WAT     H211288   1.402   0.423   5.242
 3693WAT      O11289   1.154   0.926   4.626
 3693WAT     H111290   1.062   0.900   4.633
 3693WAT     H211291   1.203   0.850   4.659
 3694WAT      O11292   1.362   1.628   4.779
 3694WAT     H111293   1.368   1.709   4.830
 3694WAT     H211294   1.451   1.613   4.746
 3695WAT      O11295   0.408   1.743   3.936
 3695WAT     H111296   0.483   1.791   3.900
 3695WAT     H211297   0.367   1.702   3.859
 3696WAT      O11298   1.029   1.729   5.519
 3696WAT     H111299   1.124   1.733   5.505
 3696WAT     H211300   1.013   1.790   5.591
 3697WAT      O11301   0.467   1.272   3.909
 3697WAT     H111302   0.449   1.224   3.990
 3697WAT     H211303   0.460   1.206   3.841
 3698WAT      O11304   0.498   1.152   5.511
 3698WAT     H111305   0.416   1.198   5.526
 3698WAT     H211306   0.493   1.124   5.419
 3699WAT      O11307   0.785   1.174   3.978
 3699WAT     H111308   0.737   1.223   4.045
 3699WAT     H211309   0.847   1.120   4.027
 3700WAT      O11310   1.194   1.313   5.561
 3700WAT     H111311   1.272   1.353   5.522
 3700WAT     H211312   1.121   1.349   5.510
 3701WAT      O11313   0.361   1.083   4.163
 3701WAT     H111314   0.402   1.065   4.248
 3701WAT     H211315   0.363   0.999   4.118
 3702WAT      O11316   0.612   0.966   3.906
 3702WAT     H111317   0.669   0.911   3.852
 3702WAT     H211318   0.664   1.043   3.926
 3703WAT      O11319   1.053   1.102   5.438
 3703WAT     H111320   1.103   1.150   5.504
 3703WAT     H211321   0.963   1.131   5.451
 3704WAT      O11322   1.112   0.849   5.618
 3704WAT     H111323   1.183   0.785   5.608
 3704WAT     H211324   1.129   0.914   5.549
 3705WAT      O11325   0.502   0.244   5.172
 3705WAT     H111326   0.468   0.242   5.083
 3705WAT     H211327   0.441   0.189   5.222
 3706WAT      O11328   0.518   1.122   5.235
 3706WAT     H111329   0.584   1.186   5.209
 3706WAT     H211330   0.444   1.139   5.177
 3707WAT      O11331   0.770   0.879   5.361
 3707WAT     H111332   0.794   0.838   5.444
 3707WAT     H211333   0.853   0.890   5.315
 3708WAT      O11334   0.996   0.946   5.221
 3708WAT     H111335   0.973   1.003   5.149
 3708WAT     H211336   1.034   1.004   5.287
 3709WAT      O11337   0.253   0.671   3.878
 3709WAT     H111338   0.218   0.585   3.903
 3709WAT     H211339   0.222   0.683   3.788
 3710WAT      O11340   0.334   1.760   5.338
 3710WAT     H111341   0.260   1.808   5.302
 3710WAT     H211342   0.356   1.696   5.270
 3711WAT      O11343   0.460   0.540   5.492
 3711WAT     H111344   0.502   0.499   5.567
 3711WAT     H211345   0.374   0.498   5.485
 3712WAT      O11346   0.933   0.505   5.523
 3712WAT     H111347   0.864   0.448   5.489
 3712WAT     H211348   1.000   0.445   5.556
 3713WAT      O11349   0.608   1.867   5.364
 3713WAT     H111350   0.599   1.955   5.399
 3713WAT     H211351   0.519   1.832   5.362
 3714WAT      O11352   0.467   0.277   3.952
 3714WAT     H111353   0.408   0.219   3.902
 3714WAT     H211354   0.446   0.259   4.044
 3715WAT      O11355   0.665   1.796   4.140
 3715WAT     H111356   0.754   1.829   4.134
 3715WAT     H211357   0.664   1.718   4.086
 3716WAT      O11358   0.220   1.440   4.460
 3716WAT     H111359   0.179   1.427   4.545
 3716WAT     H211360   0.204   1.359   4.412
 3717WAT      O11361   1.369   1.651   5.387
 3717WAT     H111362   1.296   1.655   5.325
 3717WAT     H211363   1.383   1.557   5.402
 3718WAT      O11364   1.426   1.088   4.181
 3718WAT     H111365   1.500   1.145   4.200
 3718WAT     H211366   1.424   1.026   4.254
 3719WAT      O11367   1.535   1.177   4.676
 3719WAT     H111368   1.571   1.095   4.642
 3719WAT     H211369   1.597   1.244   4.646
 3720WAT      O11370   1.213   1.306   5.202
 3720WAT     H111371   1.146   1.361   5.242
 3720WAT     H211372   1.261   1.364   5.144
 3721WAT      O11373   1.471   1.121   3.908
 3721WAT     H111374   1.429   1.194   3.862
 3721WAT     H211375   1.421   1.113   3.990
 3722WAT      O11376   1.090   0.416   4.025
 3722WAT     H111377   1.123   0.400   3.937
 3722WAT     H211378   1.029   0.344   4.041
 3723WAT      O11379   1.420   0.914   4.391
 3723WAT     H111380   1.388   0.829   4.362
 3723WAT     H211381   1.350   0.949   4.447
 3724WAT      O11382   1.370   0.821   5.363
 3724WAT     H111383   1.354   0.799   5.271
 3724WAT     H211384   1.376   0.916   5.364
 3725WAT      O11385   1.343   0.742   4.727
 3725WAT     H111386   1.389   0.688   4.663
 3725WAT     H211387   1.412   0.772   4.786
 3726WAT      O11388   1.368   0.738   5.081
 3726WAT     H111389   1.272   0.732   5.082
 3726WAT     H211390   1.385   0.829   5.054
 3727WAT      O11391   1.328   0.664   4.330
 3727WAT     H111392   1.359   0.623   4.411
 3727WAT     H211393   1.287   0.593   4.281
 3728WAT      O11394   1.443   0.525   4.572
 3728WAT     H111395   1.437   0.500   4.664
 3728WAT     H211396   1.527   0.490   4.543
 3729WAT      O11397   1.528   0.299   3.892
 3729WAT     H111398   1.621   0.301   3.870
 3729WAT     H211399   1.524   0.323   3.985
 3730WAT      O11400   1.541   0.380   4.164
 3730WAT     H111401   1.454   0.375   4.204
 3730WAT     H211402   1.562   0.473   4.165
 3731WAT      O11403   1.272   1.794   4.566
 3731WAT     H111404   1.285   1.743   4.486
 3731WAT     H211405   1.274   1.729   4.636
 3732WAT      O11406   0.402   1.594   5.137
 3732WAT     H111407   0.370   1.607   5.048
 3732WAT     H211408   0.497   1.591   5.128
 3733WAT      O11409   0.626   0.268   5.508
 3733WAT     H111410   0.616   0.266   5.603
 3733WAT     H211411   0.696   0.205   5.490
 3734WAT      O11412   1.526   1.779   5.189
 3734WAT     H111413   1.463   1.833   5.143
 3734WAT     H211414   1.476   1.736   5.258
 3735WAT      O11415   1.043   0.275   5.243
 3735WAT     H111416   1.030   0.189   5.204
 3735WAT     H211417   1.138   0.288   5.242
 3736WAT      O11418   1.286   1.858   4.940
 3736WAT     H111419   1.252   1.935   4.895
 3736WAT     H211420   1.212   1.796   4.941
 3737WAT      O11421   0.349   1.677   4.879
 3737WAT     H111422   0.381   1.624   4.806
 3737WAT     H211423   0.415   1.745   4.890
 3738WAT      O11424   0.613   1.778   4.929
 3738WAT     H111425   0.652   1.750   4.846
 3738WAT     H211426   0.644   1.713   4.992
 3739WAT      O11427   1.181   0.222   4.817
 3739WAT     H111428   1.229   0.208   4.735
 3739WAT     H211429   1.155   0.314   4.814
 3740WAT      O11430   0.508   0.387   4.556
 3740WAT     H111431   0.436   0.334   4.522
 3740WAT     H211432   0.583   0.327   4.557
 3741WAT      O11433   0.226   1.854   4.136
 3741WAT     H111434   0.290   1.831   4.068
 3741WAT     H211435   0.267   1.825   4.218
 3742WAT      O11436   0.883   0.874   2.737
 3742WAT     H111437   0.868   0.781   2.723
 3742WAT     H211438   0.834   0.917   2.667
 3743WAT      O11439   0.696   1.051   2.924
 3743WAT     H111440   0.628   0.998   2.967
 3743WAT     H211441   0.768   0.989   2.909
 3744WAT      O11442   1.100   1.496   2.806
 3744WAT     H111443   1.052   1.418   2.832
 3744WAT     H211444   1.177   1.497   2.862
 3745WAT      O11445   0.719   1.725   2.787
 3745WAT     H111446   0.659   1.758   2.720
 3745WAT     H211447   0.806   1.745   2.752
 3746WAT      O11448   0.629   1.315   2.939
 3746WAT     H111449   0.647   1.222   2.925
 3746WAT     H211450   0.700   1.346   2.996
 3747WAT      O11451   0.738   0.607   2.947
 3747WAT     H111452   0.790   0.530   2.969
 3747WAT     H211453   0.754   0.620   2.853
 3748WAT      O11454   1.124   0.352   2.654
 3748WAT     H111455   1.212   0.315   2.651
 3748WAT     H211456   1.129   0.419   2.722
 3749WAT      O11457   0.352   0.748   2.936
 3749WAT     H111458   0.410   0.795   2.996
 3749WAT     H211459   0.390   0.660   2.930
 3750WAT      O11460   1.542   0.553   3.309
 3750WAT     H111461   1.482   0.611   3.261
 3750WAT     H211462   1.584   0.610   3.373
 3751WAT      O11463   0.813   1.211   2.507
 3751WAT     H111464   0.748   1.246   2.447
 3751WAT     H211465   0.844   1.287   2.557
 3752WAT      O11466   0.314   1.177   3.195
 3752WAT     H111467   0.244   1.227   3.236
 3752WAT     H211468   0.326   1.219   3.110
 3753WAT      O11469   1.157   0.534   2.922
 3753WAT     H111470   1.081   0.557   2.975
 3753WAT     H211471   1.197   0.618   2.899
 3754WAT      O11472   1.293   1.496   3.147
 3754WAT     H111473   1.248   1.573   3.182
 3754WAT     H211474   1.348   1.530   3.077
 3755WAT      O11475   1.446   0.486   2.972
 3755WAT     H111476   1.352   0.494   2.989
 3755WAT     H211477   1.485   0.561   3.017
 3756WAT      O11478   1.059   1.694   3.017
 3756WAT     H111479   1.059   1.651   2.931
 3756WAT     H211480   1.000   1.769   3.006
 3757WAT      O11481   1.194   1.358   2.535
 3757WAT     H111482   1.182   1.264   2.547
 3757WAT     H211483   1.175   1.396   2.621
 3758WAT      O11484   1.013   1.181   3.162
 3758WAT     H111485   1.057   1.159   3.081
 3758WAT     H211486   1.082   1.215   3.219
 3759WAT      O11487   0.747   0.930   2.489
 3759WAT     H111488   0.651   0.934   2.490
 3759WAT     H211489   0.774   1.020   2.469
 3760WAT      O11490   0.746   0.544   2.148
 3760WAT     H111491   0.659   0.565   2.184
 3760WAT     H211492   0.790   0.629   2.143
 3761WAT      O11493   1.393   1.014   3.164
 3761WAT     H111494   1.316   1.047   3.117
 3761WAT     H211495   1.464   1.071   3.135
 3762WAT      O11496   1.146   1.083   2.528
 3762WAT     H111497   1.079   1.049   2.468
 3762WAT     H211498   1.145   1.023   2.602
 3763WAT      O11499   1.095   0.703   3.262
 3763WAT     H111500   1.053   0.788   3.277
 3763WAT     H211501   1.022   0.643   3.248
 3764WAT      O11502   0.313   0.972   2.748
 3764WAT     H111503   0.252   0.913   2.703
 3764WAT     H211504   0.325   0.932   2.834
 3765WAT      O11505   0.357   1.325   2.967
 3765WAT     H111506   0.333   1.284   2.884
 3765WAT     H211507   0.451   1.341   2.960
 3766WAT      O11508   0.184   0.641   3.135
 3766WAT     H111509   0.223   0.677   3.056
 3766WAT     H211510   0.217   0.696   3.206
 3767WAT      O11511   1.157   1.698   3.301
 3767WAT     H111512   1.115   1.784   3.305
 3767WAT     H211513   1.094   1.639   3.342
 3768WAT      O11514   0.265   1.338   3.623
 3768WAT     H111515   0.178   1.325   3.660
 3768WAT     H211516   0.250   1.342   3.528
 3769WAT      O11517   0.970   1.012   2.227
 3769WAT     H111518   1.003   0.924   2.210
 3769WAT     H211519   1.047   1.068   2.223
 3770WAT      O11520   0.768   1.490   2.617
 3770WAT     H111521   0.823   1.558   2.577
 3770WAT     H211522   0.759   1.518   2.708
 3771WAT      O11523   0.337   1.602   3.707
 3771WAT     H111524   0.327   1.648   3.624
 3771WAT     H211525   0.311   1.512   3.688
 3772WAT      O11526   0.851   1.761   3.419
 3772WAT     H111527   0.898   1.753   3.502
 3772WAT     H211528   0.766   1.798   3.443
 3773WAT      O11529   1.038   1.800   2.357
 3773WAT     H111530   1.019   1.770   2.446
 3773WAT     H211531   1.036   1.721   2.304
 3774WAT      O11532   0.283   1.770   2.527
 3774WAT     H111533   0.278   1.675   2.518
 3774WAT     H211534   0.199   1.795   2.565
 3775WAT      O11535   1.010   1.571   2.204
 3775WAT     H111536   0.934   1.543   2.152
 3775WAT     H211537   1.082   1.518   2.171
 3776WAT      O11538   0.969   1.705   2.624
 3776WAT     H111539   1.025   1.635   2.658
 3776WAT     H211540   0.999   1.784   2.669
 3777WAT      O11541   1.448   0.607   3.653
 3777WAT     H111542   1.403   0.671   3.598
 3777WAT     H211543   1.400   0.525   3.638
 3778WAT      O11544   0.242   0.220   2.820
 3778WAT     H111545   0.167   0.279   2.820
 3778WAT     H211546   0.275   0.224   2.910
 3779WAT      O11547   0.648   0.483   3.402
 3779WAT     H111548   0.590   0.508   3.474
 3779WAT     H211549   0.607   0.406   3.363
 3780WAT      O11550   1.161   0.590   3.504
 3780WAT     H111551   1.075   0.576   3.543
 3780WAT     H211552   1.143   0.640   3.424
 3781WAT      O11553   0.857   0.765   3.715
 3781WAT     H111554   0.881   0.674   3.696
 3781WAT     H211555   0.939   0.805   3.744
 3782WAT      O11556   0.429   0.255   3.029
 3782WAT     H111557   0.441   0.348   3.011
 3782WAT     H211558   0.482   0.210   2.963
 3783WAT      O11559   0.916   0.710   2.467
 3783WAT     H111560   0.861   0.788   2.460
 3783WAT     H211561   0.967   0.710   2.386
 3784WAT      O11562   0.442   0.808   3.664
 3784WAT     H111563   0.444   0.714   3.647
 3784WAT     H211564   0.530   0.838   3.642
 3785WAT      O11565   0.801   0.586   2.682
 3785WAT     H111566   0.834   0.618   2.598
 3785WAT     H211567   0.810   0.491   2.677
 3786WAT      O11568   0.617   0.447   3.806
 3786WAT     H111569   0.556   0.404   3.865
 3786WAT     H211570   0.682   0.487   3.864
 3787WAT      O11571   0.841   0.830   3.085
 3787WAT     H111572   0.766   0.878   3.122
 3787WAT     H211573   0.803   0.752   3.046
 3788WAT      O11574   0.487   0.505   2.923
 3788WAT     H111575   0.494   0.471   2.834
 3788WAT     H211576   0.573   0.542   2.942
 3789WAT      O11577   0.497   0.603   2.242
 3789WAT     H111578   0.488   0.608   2.337
 3789WAT     H211579   0.463   0.686   2.209
 3790WAT      O11580   0.882   0.393   3.028
 3790WAT     H111581   0.893   0.426   3.117
 3790WAT     H211582   0.877   0.298   3.039
 3791WAT      O11583   0.398   0.842   2.155
 3791WAT     H111584   0.341   0.800   2.092
 3791WAT     H211585   0.465   0.886   2.101
 3792WAT      O11586   0.525   0.914   3.097
 3792WAT     H111587   0.546   0.855   3.170
 3792WAT     H211588   0.484   0.990   3.139
 3793WAT      O11589   0.301   0.814   3.319
 3793WAT     H111590   0.278   0.903   3.347
 3793WAT     H211591   0.395   0.807   3.339
 3794WAT      O11592   1.224   1.124   2.965
 3794WAT     H111593   1.295   1.179   2.933
 3794WAT     H211594   1.205   1.064   2.892
 3795WAT      O11595   0.766   0.288   2.391
 3795WAT     H111596   0.698   0.226   2.363
 3795WAT     H211597   0.759   0.362   2.331
 3796WAT      O11598   0.764   1.145   3.572
 3796WAT     H111599   0.760   1.059   3.530
 3796WAT     H211600   0.686   1.148   3.627
 3797WAT      O11601   1.043   0.708   2.216
 3797WAT     H111602   1.129   0.745   2.198
 3797WAT     H211603   1.048   0.618   2.184
 3798WAT      O11604   0.656   1.332   2.288
 3798WAT     H111605   0.681   1.411   2.241
 3798WAT     H211606   0.568   1.349   2.320
 3799WAT      O11607   0.215   0.945   3.729
 3799WAT     H111608   0.193   0.957   3.636
 3799WAT     H211609   0.301   0.903   3.729
 3800WAT      O11610   0.756   1.418   3.531
 3800WAT     H111611   0.752   1.322   3.527
 3800WAT     H211612   0.687   1.442   3.592
 3801WAT      O11613   1.273   0.847   2.156
 3801WAT     H111614   1.261   0.889   2.071
 3801WAT     H211615   1.340   0.899   2.200
 3802WAT      O11616   1.374   1.092   3.458
 3802WAT     H111617   1.305   1.156   3.445
 3802WAT     H211618   1.427   1.097   3.378
 3803WAT      O11619   1.388   1.527   2.427
 3803WAT     H111620   1.319   1.470   2.460
 3803WAT     H211621   1.350   1.568   2.349
 3804WAT      O11622   0.938   1.260   2.815
 3804WAT     H111623   0.964   1.193   2.751
 3804WAT     H211624   0.849   1.236   2.840
 3805WAT      O11625   0.530   1.332   2.567
 3805WAT     H111626   0.609   1.381   2.588
 3805WAT     H211627   0.461   1.398   2.563
 3806WAT      O11628   0.483   1.040   2.534
 3806WAT     H111629   0.512   1.131   2.547
 3806WAT     H211630   0.432   1.020   2.612
 3807WAT      O11631   0.690   1.590   3.239
 3807WAT     H111632   0.748   1.622   3.308
 3807WAT     H211633   0.733   1.511   3.206
 3808WAT      O11634   0.836   1.392   3.112
 3808WAT     H111635   0.887   1.314   3.133
 3808WAT     H211636   0.901   1.458   3.091
 3809WAT      O11637   1.207   1.414   2.084
 3809WAT     H111638   1.189   1.337   2.139
 3809WAT     H211639   1.186   1.385   1.995
 3810WAT      O11640   1.014   1.473   3.446
 3810WAT     H111641   1.037   1.539   3.511
 3810WAT     H211642   0.921   1.456   3.460
 3811WAT      O11643   1.174   1.206   2.258
 3811WAT     H111644   1.147   1.253   2.336
 3811WAT     H211645   1.256   1.163   2.283
 3812WAT      O11646   0.585   1.466   3.751
 3812WAT     H111647   0.547   1.396   3.803
 3812WAT     H211648   0.514   1.530   3.741
 3813WAT      O11649   0.399   1.557   2.252
 3813WAT     H111650   0.400   1.628   2.188
 3813WAT     H211651   0.309   1.525   2.250
 3814WAT      O11652   0.904   0.495   3.282
 3814WAT     H111653   0.950   0.422   3.324
 3814WAT     H211654   0.819   0.498   3.327
 3815WAT      O11655   1.247   0.411   2.375
 3815WAT     H111656   1.193   0.410   2.296
 3815WAT     H211657   1.186   0.396   2.447
 3816WAT      O11658   0.683   1.558   2.118
 3816WAT     H111659   0.696   1.535   2.026
 3816WAT     H211660   0.589   1.544   2.133
 3817WAT      O11661   0.434   0.604   2.506
 3817WAT     H111662   0.388   0.671   2.557
 3817WAT     H211663   0.480   0.552   2.572
 3818WAT      O11664   0.593   0.765   3.314
 3818WAT     H111665   0.653   0.810   3.374
 3818WAT     H211666   0.613   0.672   3.325
 3819WAT      O11667   0.843   0.310   2.652
 3819WAT     H111668   0.825   0.292   2.560
 3819WAT     H211669   0.938   0.304   2.660
 3820WAT      O11670   0.551   1.820   2.582
 3820WAT     H111671   0.591   1.810   2.496
 3820WAT     H211672   0.458   1.802   2.567
 3821WAT      O11673   0.261   0.452   2.246
 3821WAT     H111674   0.345   0.495   2.231
 3821WAT     H211675   0.231   0.487   2.330
 3822WAT      O11676   1.323   0.385   3.406
 3822WAT     H111677   1.270   0.461   3.432
 3822WAT     H211678   1.401   0.423   3.366
 3823WAT      O11679   1.154   0.924   2.747
 3823WAT     H111680   1.062   0.899   2.757
 3823WAT     H211681   1.203   0.849   2.782
 3824WAT      O11682   1.361   1.632   2.897
 3824WAT     H111683   1.369   1.710   2.952
 3824WAT     H211684   1.451   1.615   2.867
 3825WAT      O11685   0.407   1.743   2.058
 3825WAT     H111686   0.483   1.791   2.022
 3825WAT     H211687   0.367   1.702   1.981
 3826WAT      O11688   0.898   1.358   3.792
 3826WAT     H111689   0.835   1.373   3.722
 3826WAT     H211690   0.856   1.293   3.848
 3827WAT      O11691   1.028   1.737   3.637
 3827WAT     H111692   1.122   1.719   3.635
 3827WAT     H211693   1.017   1.796   3.712
 3828WAT      O11694   1.317   1.676   2.208
 3828WAT     H111695   1.287   1.633   2.128
 3828WAT     H211696   1.297   1.769   2.193
 3829WAT      O11697   0.466   1.272   2.031
 3829WAT     H111698   0.450   1.225   2.113
 3829WAT     H211699   0.460   1.205   1.963
 3830WAT      O11700   0.488   1.153   3.637
 3830WAT     H111701   0.409   1.206   3.639
 3830WAT     H211702   0.495   1.124   3.546
 3831WAT      O11703   0.785   1.175   2.100
 3831WAT     H111704   0.737   1.222   2.167
 3831WAT     H211705   0.848   1.121   2.148
 3832WAT      O11706   1.200   1.317   3.690
 3832WAT     H111707   1.265   1.363   3.638
 3832WAT     H211708   1.116   1.350   3.658
 3833WAT      O11709   0.360   1.083   2.286
 3833WAT     H111710   0.402   1.065   2.371
 3833WAT     H211711   0.363   0.998   2.241
 3834WAT      O11712   0.612   0.966   2.028
 3834WAT     H111713   0.671   0.911   1.977
 3834WAT     H211714   0.664   1.043   2.049
 3835WAT      O11715   1.052   1.097   3.568
 3835WAT     H111716   1.107   1.152   3.624
 3835WAT     H211717   0.965   1.136   3.574
 3836WAT      O11718   1.120   0.853   3.747
 3836WAT     H111719   1.176   0.780   3.721
 3836WAT     H211720   1.127   0.915   3.674
 3837WAT      O11721   0.501   0.247   3.294
 3837WAT     H111722   0.467   0.242   3.205
 3837WAT     H211723   0.444   0.188   3.345
 3838WAT      O11724   0.517   1.124   3.361
 3838WAT     H111725   0.585   1.185   3.332
 3838WAT     H211726   0.444   1.139   3.301
 3839WAT      O11727   0.770   0.879   3.487
 3839WAT     H111728   0.797   0.837   3.568
 3839WAT     H211729   0.851   0.892   3.438
 3840WAT      O11730   0.994   0.947   3.344
 3840WAT     H111731   0.977   1.004   3.270
 3840WAT     H211732   1.035   1.003   3.410
 3841WAT      O11733   0.253   0.671   2.000
 3841WAT     H111734   0.219   0.585   2.026
 3841WAT     H211735   0.222   0.683   1.910
 3842WAT      O11736   0.330   1.757   3.464
 3842WAT     H111737   0.260   1.808   3.424
 3842WAT     H211738   0.356   1.695   3.395
 3843WAT      O11739   0.456   0.541   3.610
 3843WAT     H111740   0.512   0.509   3.681
 3843WAT     H211741   0.379   0.485   3.613
 3844WAT      O11742   0.938   0.508   3.646
 3844WAT     H111743   0.865   0.450   3.624
 3844WAT     H211744   1.004   0.450   3.684
 3845WAT      O11745   0.607   1.868   3.479
 3845WAT     H111746   0.600   1.954   3.521
 3845WAT     H211747   0.519   1.831   3.484
 3846WAT      O11748   0.466   0.277   2.074
 3846WAT     H111749   0.408   0.219   2.025
 3846WAT     H211750   0.446   0.259   2.166
 3847WAT      O11751   0.664   1.797   2.262
 3847WAT     H111752   0.755   1.827   2.258
 3847WAT     H211753   0.663   1.718   2.208
 3848WAT      O11754   0.219   1.441   2.582
 3848WAT     H111755   0.180   1.426   2.669
 3848WAT     H211756   0.204   1.359   2.535
 3849WAT      O11757   1.484   1.411   2.059
 3849WAT     H111758   1.391   1.419   2.082
 3849WAT     H211759   1.507   1.496   2.022
 3850WAT      O11760   1.424   1.085   2.298
 3850WAT     H111761   1.497   1.146   2.301
 3850WAT     H211762   1.434   1.032   2.377
 3851WAT      O11763   1.536   1.177   2.799
 3851WAT     H111764   1.572   1.095   2.764
 3851WAT     H211765   1.595   1.245   2.766
 3852WAT      O11766   1.209   1.304   3.326
 3852WAT     H111767   1.146   1.364   3.366
 3852WAT     H211768   1.262   1.359   3.269
 3853WAT      O11769   1.459   1.117   2.023
 3853WAT     H111770   1.464   1.211   2.004
 3853WAT     H211771   1.423   1.112   2.111
 3854WAT      O11772   1.090   0.416   2.148
 3854WAT     H111773   1.122   0.401   2.059
 3854WAT     H211774   1.029   0.344   2.164
 3855WAT      O11775   1.423   0.913   2.517
 3855WAT     H111776   1.387   0.830   2.485
 3855WAT     H211777   1.352   0.951   2.568
 3856WAT      O11778   1.373   0.819   3.486
 3856WAT     H111779   1.354   0.797   3.394
 3856WAT     H211780   1.377   0.914   3.488
 3857WAT      O11781   1.207   0.346   3.771
 3857WAT     H111782   1.297   0.346   3.805
 3857WAT     H211783   1.210   0.284   3.698
 3858WAT      O11784   1.342   0.740   2.851
 3858WAT     H111785   1.389   0.690   2.785
 3858WAT     H211786   1.411   0.774   2.909
 3859WAT      O11787   1.368   0.738   3.203
 3859WAT     H111788   1.272   0.732   3.205
 3859WAT     H211789   1.386   0.828   3.177
 3860WAT      O11790   1.327   0.664   2.452
 3860WAT     H111791   1.359   0.624   2.533
 3860WAT     H211792   1.287   0.591   2.403
 3861WAT      O11793   1.442   0.524   2.694
 3861WAT     H111794   1.437   0.500   2.786
 3861WAT     H211795   1.527   0.490   2.665
 3862WAT      O11796   1.528   0.299   2.014
 3862WAT     H111797   1.621   0.302   1.993
 3862WAT     H211798   1.524   0.323   2.107
 3863WAT      O11799   1.541   0.380   2.286
 3863WAT     H111800   1.454   0.375   2.326
 3863WAT     H211801   1.562   0.473   2.286
 3864WAT      O11802   1.244   1.786   2.692
 3864WAT     H111803   1.305   1.768   2.621
 3864WAT     H211804   1.269   1.725   2.761
 3865WAT      O11805   0.402   1.595   3.261
 3865WAT     H111806   0.371   1.608   3.171
 3865WAT     H211807   0.497   1.591   3.252
 3866WAT      O11808   0.610   0.231   3.636
 3866WAT     H111809   0.615   0.302   3.701
 3866WAT     H211810   0.702   0.213   3.613
 3867WAT      O11811   1.528   1.788   3.316
 3867WAT     H111812   1.453   1.819   3.265
 3867WAT     H211813   1.489   1.736   3.386
 3868WAT      O11814   1.044   0.275   3.366
 3868WAT     H111815   1.029   0.189   3.326
 3868WAT     H211816   1.139   0.287   3.363
 3869WAT      O11817   1.289   1.859   3.063
 3869WAT     H111818   1.247   1.932   3.017
 3869WAT     H211819   1.219   1.795   3.075
 3870WAT      O11820   0.349   1.677   3.001
 3870WAT     H111821   0.381   1.623   2.929
 3870WAT     H211822   0.416   1.744   3.013
 3871WAT      O11823   0.612   1.777   3.052
 3871WAT     H111824   0.653   1.751   2.969
 3871WAT     H211825   0.645   1.713   3.115
 3872WAT      O11826   1.181   0.222   2.939
 3872WAT     H111827   1.229   0.208   2.857
 3872WAT     H211828   1.155   0.314   2.936
 3873WAT      O11829   0.508   0.386   2.679
 3873WAT     H111830   0.436   0.333   2.644
 3873WAT     H211831   0.583   0.328   2.680
 3874WAT      O11832   0.613   1.865   3.799
 3874WAT     H111833   0.706   1.841   3.801
 3874WAT     H211834   0.611   1.948   3.752
 3875WAT      O11835   1.437   1.813   2.493
 3875WAT     H111836   1.443   1.734   2.440
 3875WAT     H211837   1.390   1.875   2.439
 3876WAT      O11838   0.226   1.855   2.259
 3876WAT     H111839   0.290   1.831   2.191
 3876WAT     H211840   0.266   1.825   2.341
 3877WAT      O11841   0.883   0.874   0.859
 3877WAT     H111842   0.868   0.781   0.846
 3877WAT     H211843   0.834   0.917   0.789
 3878WAT      O11844   0.696   1.051   1.047
 3878WAT     H111845   0.628   0.999   1.090
 3878WAT     H211846   0.768   0.989   1.032
 3879WAT      O11847   1.098   1.498   0.931
 3879WAT     H111848   1.052   1.417   0.953
 3879WAT     H211849   1.178   1.494   0.983
 3880WAT      O11850   0.720   1.724   0.910
 3880WAT     H111851   0.658   1.757   0.844
 3880WAT     H211852   0.806   1.747   0.875
 3881WAT      O11853   0.629   1.315   1.061
 3881WAT     H111854   0.647   1.222   1.048
 3881WAT     H211855   0.699   1.345   1.119
 3882WAT      O11856   0.739   0.607   1.069
 3882WAT     H111857   0.790   0.529   1.092
 3882WAT     H211858   0.754   0.619   0.975
 3883WAT      O11859   1.125   0.353   0.775
 3883WAT     H111860   1.213   0.315   0.774
 3883WAT     H211861   1.128   0.419   0.844
 3884WAT      O11862   0.352   0.748   1.058
 3884WAT     H111863   0.410   0.794   1.119
 3884WAT     H211864   0.390   0.660   1.052
 3885WAT      O11865   1.542   0.553   1.431
 3885WAT     H111866   1.482   0.611   1.384
 3885WAT     H211867   1.584   0.609   1.496
 3886WAT      O11868   0.812   1.211   0.630
 3886WAT     H111869   0.747   1.246   0.570
 3886WAT     H211870   0.843   1.287   0.679
 3887WAT      O11871   0.314   1.177   1.317
 3887WAT     H111872   0.243   1.226   1.359
 3887WAT     H211873   0.326   1.220   1.232
 3888WAT      O11874   1.157   0.534   1.044
 3888WAT     H111875   1.081   0.557   1.097
 3888WAT     H211876   1.197   0.618   1.021
 3889WAT      O11877   1.298   1.500   1.275
 3889WAT     H111878   1.245   1.577   1.294
 3889WAT     H211879   1.352   1.526   1.200
 3890WAT      O11880   1.445   0.486   1.094
 3890WAT     H111881   1.352   0.494   1.112
 3890WAT     H211882   1.485   0.560   1.141
 3891WAT      O11883   1.063   1.694   1.146
 3891WAT     H111884   1.062   1.650   1.061
 3891WAT     H211885   1.002   1.767   1.136
 3892WAT      O11886   1.193   1.359   0.657
 3892WAT     H111887   1.181   1.264   0.667
 3892WAT     H211888   1.175   1.395   0.744
 3893WAT      O11889   1.013   1.182   1.284
 3893WAT     H111890   1.056   1.158   1.203
 3893WAT     H211891   1.083   1.212   1.341
 3894WAT      O11892   0.747   0.930   0.611
 3894WAT     H111893   0.651   0.935   0.615
 3894WAT     H211894   0.775   1.019   0.591
 3895WAT      O11895   0.748   0.536   0.283
 3895WAT     H111896   0.657   0.557   0.307
 3895WAT     H211897   0.785   0.620   0.257
 3896WAT      O11898   1.392   1.016   1.289
 3896WAT     H111899   1.316   1.047   1.239
 3896WAT     H211900   1.464   1.072   1.258
 3897WAT      O11901   1.146   1.085   0.653
 3897WAT     H111902   1.082   1.051   0.590
 3897WAT     H211903   1.143   1.023   0.725
 3898WAT      O11904   1.095   0.704   1.383
 3898WAT     H111905   1.053   0.788   1.399
 3898WAT     H211906   1.022   0.643   1.371
 3899WAT      O11907   0.314   0.971   0.870
 3899WAT     H111908   0.251   0.914   0.826
 3899WAT     H211909   0.325   0.932   0.956
 3900WAT      O11910   0.357   1.326   1.090
 3900WAT     H111911   0.333   1.284   1.007
 3900WAT     H211912   0.452   1.341   1.082
 3901WAT      O11913   0.184   0.640   1.258
 3901WAT     H111914   0.223   0.677   1.178
 3901WAT     H211915   0.217   0.696   1.328
 3902WAT      O11916   1.161   1.694   1.456
 3902WAT     H111917   1.128   1.780   1.432
 3902WAT     H211918   1.083   1.639   1.464
 3903WAT      O11919   0.265   1.338   1.745
 3903WAT     H111920   0.178   1.324   1.783
 3903WAT     H211921   0.249   1.342   1.651
 3904WAT      O11922   0.968   1.010   0.354
 3904WAT     H111923   1.004   0.923   0.336
 3904WAT     H211924   1.043   1.069   0.347
 3905WAT      O11925   0.769   1.491   0.739
 3905WAT     H111926   0.824   1.560   0.702
 3905WAT     H211927   0.757   1.517   0.830
 3906WAT      O11928   0.337   1.602   1.830
 3906WAT     H111929   0.327   1.648   1.747
 3906WAT     H211930   0.311   1.512   1.811
 3907WAT      O11931   1.527   1.673   1.964
 3907WAT     H111932   1.570   1.725   2.032
 3907WAT     H211933   1.586   1.678   1.889
 3908WAT      O11934   1.444   1.384   1.671
 3908WAT     H111935   1.484   1.369   1.585
 3908WAT     H211936   1.469   1.308   1.723
 3909WAT      O11937   0.851   1.760   1.542
 3909WAT     H111938   0.899   1.755   1.624
 3909WAT     H211939   0.767   1.798   1.565
 3910WAT      O11940   1.036   1.799   0.479
 3910WAT     H111941   1.019   1.769   0.568
 3910WAT     H211942   1.038   1.720   0.426
 3911WAT      O11943   0.282   1.772   0.649
 3911WAT     H111944   0.278   1.677   0.640
 3911WAT     H211945   0.199   1.796   0.690
 3912WAT      O11946   1.013   1.567   0.319
 3912WAT     H111947   0.942   1.529   0.267
 3912WAT     H211948   1.083   1.503   0.315
 3913WAT      O11949   0.969   1.705   0.746
 3913WAT     H111950   1.025   1.635   0.781
 3913WAT     H211951   0.999   1.784   0.790
 3914WAT      O11952   1.448   0.606   1.775
 3914WAT     H111953   1.403   0.671   1.721
 3914WAT     H211954   1.399   0.525   1.762
 3915WAT      O11955   0.242   0.220   0.944
 3915WAT     H111956   0.167   0.279   0.942
 3915WAT     H211957   0.274   0.225   1.034
 3916WAT      O11958   0.648   0.484   1.524
 3916WAT     H111959   0.590   0.507   1.596
 3916WAT     H211960   0.607   0.406   1.486
 3917WAT      O11961   1.161   0.589   1.625
 3917WAT     H111962   1.076   0.576   1.666
 3917WAT     H211963   1.143   0.640   1.546
 3918WAT      O11964   0.856   0.764   1.837
 3918WAT     H111965   0.880   0.673   1.818
 3918WAT     H211966   0.938   0.805   1.866
 3919WAT      O11967   0.429   0.255   1.152
 3919WAT     H111968   0.441   0.348   1.134
 3919WAT     H211969   0.482   0.211   1.085
 3920WAT      O11970   0.917   0.711   0.590
 3920WAT     H111971   0.861   0.788   0.583
 3920WAT     H211972   0.967   0.710   0.508
 3921WAT      O11973   0.441   0.808   1.784
 3921WAT     H111974   0.444   0.714   1.769
 3921WAT     H211975   0.530   0.838   1.767
 3922WAT      O11976   0.801   0.586   0.805
 3922WAT     H111977   0.834   0.618   0.721
 3922WAT     H211978   0.810   0.491   0.800
 3923WAT      O11979   0.617   0.447   1.928
 3923WAT     H111980   0.556   0.404   1.987
 3923WAT     H211981   0.682   0.487   1.986
 3924WAT      O11982   0.841   0.832   1.207
 3924WAT     H111983   0.765   0.877   1.245
 3924WAT     H211984   0.804   0.753   1.168
 3925WAT      O11985   0.487   0.504   1.046
 3925WAT     H111986   0.494   0.471   0.956
 3925WAT     H211987   0.573   0.542   1.064
 3926WAT      O11988   0.497   0.603   0.365
 3926WAT     H111989   0.490   0.604   0.460
 3926WAT     H211990   0.462   0.688   0.337
 3927WAT      O11991   0.882   0.393   1.151
 3927WAT     H111992   0.893   0.426   1.240
 3927WAT     H211993   0.877   0.298   1.162
 3928WAT      O11994   0.398   0.838   0.273
 3928WAT     H111995   0.331   0.810   0.211
 3928WAT     H211996   0.463   0.884   0.219
 3929WAT      O11997   0.525   0.914   1.220
 3929WAT     H111998   0.546   0.855   1.292
 3929WAT     H211999   0.483   0.990   1.262
 3930WAT      O12000   0.302   0.815   1.441
 3930WAT     H112001   0.278   0.902   1.471
 3930WAT     H212002   0.395   0.807   1.462
 3931WAT      O12003   1.225   1.124   1.087
 3931WAT     H112004   1.297   1.177   1.053
 3931WAT     H212005   1.203   1.064   1.016
 3932WAT      O12006   0.768   0.286   0.511
 3932WAT     H112007   0.694   0.230   0.487
 3932WAT     H212008   0.759   0.363   0.454
 3933WAT      O12009   0.764   1.145   1.694
 3933WAT     H112010   0.760   1.059   1.652
 3933WAT     H212011   0.686   1.148   1.750
 3934WAT      O12012   1.043   0.710   0.339
 3934WAT     H112013   1.131   0.744   0.322
 3934WAT     H212014   1.047   0.619   0.310
 3935WAT      O12015   0.650   1.334   0.413
 3935WAT     H112016   0.664   1.408   0.355
 3935WAT     H212017   0.561   1.345   0.446
 3936WAT      O12018   0.215   0.946   1.852
 3936WAT     H112019   0.193   0.956   1.759
 3936WAT     H212020   0.301   0.903   1.851
 3937WAT      O12021   0.755   1.417   1.651
 3937WAT     H112022   0.752   1.321   1.650
 3937WAT     H212023   0.688   1.443   1.713
 3938WAT      O12024   1.275   0.847   0.280
 3938WAT     H112025   1.266   0.891   0.196
 3938WAT     H212026   1.337   0.901   0.329
 3939WAT      O12027   1.377   1.094   1.580
 3939WAT     H112028   1.304   1.155   1.566
 3939WAT     H212029   1.423   1.092   1.497
 3940WAT      O12030   1.388   1.526   0.548
 3940WAT     H112031   1.320   1.469   0.583
 3940WAT     H212032   1.348   1.569   0.473
 3941WAT      O12033   0.939   1.260   0.937
 3941WAT     H112034   0.964   1.193   0.873
 3941WAT     H212035   0.849   1.236   0.962
 3942WAT      O12036   0.529   1.332   0.690
 3942WAT     H112037   0.609   1.381   0.711
 3942WAT     H212038   0.460   1.398   0.688
 3943WAT      O12039   0.484   1.040   0.656
 3943WAT     H112040   0.512   1.131   0.671
 3943WAT     H212041   0.432   1.019   0.734
 3944WAT      O12042   0.690   1.591   1.361
 3944WAT     H112043   0.747   1.621   1.431
 3944WAT     H212044   0.732   1.510   1.330
 3945WAT      O12045   0.835   1.391   1.235
 3945WAT     H112046   0.887   1.313   1.256
 3945WAT     H212047   0.900   1.457   1.212
 3946WAT      O12048   1.013   1.473   1.571
 3946WAT     H112049   1.029   1.542   1.636
 3946WAT     H212050   0.920   1.452   1.580
 3947WAT      O12051   1.171   1.201   0.378
 3947WAT     H112052   1.152   1.254   0.456
 3947WAT     H212053   1.258   1.165   0.395
 3948WAT      O12054   0.586   1.466   1.873
 3948WAT     H112055   0.548   1.396   1.925
 3948WAT     H212056   0.515   1.530   1.864
 3949WAT      O12057   0.394   1.560   0.374
 3949WAT     H112058   0.390   1.623   0.302
 3949WAT     H212059   0.305   1.525   0.379
 3950WAT      O12060   0.904   0.495   1.405
 3950WAT     H112061   0.950   0.423   1.446
 3950WAT     H212062   0.819   0.498   1.449
 3951WAT      O12063   1.247   0.411   0.499
 3951WAT     H112064   1.192   0.410   0.421
 3951WAT     H212065   1.186   0.396   0.571
 3952WAT      O12066   0.436   0.606   0.629
 3952WAT     H112067   0.387   0.670   0.681
 3952WAT     H212068   0.480   0.551   0.694
 3953WAT      O12069   0.594   0.765   1.436
 3953WAT     H112070   0.653   0.810   1.497
 3953WAT     H212071   0.613   0.672   1.448
 3954WAT      O12072   0.842   0.310   0.774
 3954WAT     H112073   0.826   0.292   0.681
 3954WAT     H212074   0.937   0.304   0.783
 3955WAT      O12075   0.550   1.817   0.707
 3955WAT     H112076   0.590   1.818   0.620
 3955WAT     H212077   0.457   1.802   0.691
 3956WAT      O12078   0.262   0.450   0.370
 3956WAT     H112079   0.348   0.491   0.358
 3956WAT     H212080   0.231   0.484   0.454
 3957WAT      O12081   1.322   0.385   1.527
 3957WAT     H112082   1.270   0.461   1.555
 3957WAT     H212083   1.401   0.423   1.489
 3958WAT      O12084   1.154   0.924   0.871
 3958WAT     H112085   1.062   0.899   0.879
 3958WAT     H212086   1.202   0.849   0.905
 3959WAT      O12087   1.362   1.630   1.022
 3959WAT     H112088   1.370   1.709   1.075
 3959WAT     H212089   1.450   1.613   0.990
 3960WAT      O12090   0.896   1.358   1.914
 3960WAT     H112091   0.831   1.372   1.845
 3960WAT     H212092   0.857   1.293   1.971
 3961WAT      O12093   1.028   1.739   1.763
 3961WAT     H112094   1.122   1.729   1.776
 3961WAT     H212095   1.001   1.798   1.834
 3962WAT      O12096   1.309   1.672   0.327
 3962WAT     H112097   1.300   1.643   0.236
 3962WAT     H212098   1.305   1.768   0.322
 3963WAT      O12099   0.489   1.153   1.759
 3963WAT     H112100   0.409   1.206   1.762
 3963WAT     H212101   0.495   1.123   1.668
 3964WAT      O12102   0.794   1.187   0.227
 3964WAT     H112103   0.736   1.219   0.296
 3964WAT     H212104   0.849   1.121   0.270
 3965WAT      O12105   1.196   1.319   1.817
 3965WAT     H112106   1.269   1.350   1.763
 3965WAT     H212107   1.118   1.350   1.772
 3966WAT      O12108   0.348   1.076   0.418
 3966WAT     H112109   0.398   1.064   0.498
 3966WAT     H212110   0.360   0.993   0.370
 3967WAT      O12111   1.053   1.103   1.685
 3967WAT     H112112   1.105   1.150   1.751
 3967WAT     H212113   0.964   1.136   1.697
 3968WAT      O12114   1.117   0.852   1.867
 3968WAT     H112115   1.178   0.781   1.850
 3968WAT     H212116   1.131   0.914   1.796
 3969WAT      O12117   0.501   0.247   1.417
 3969WAT     H112118   0.467   0.242   1.328
 3969WAT     H212119   0.444   0.188   1.467
 3970WAT      O12120   0.518   1.124   1.483
 3970WAT     H112121   0.585   1.186   1.454
 3970WAT     H212122   0.444   1.139   1.423
 3971WAT      O12123   0.770   0.879   1.609
 3971WAT     H112124   0.796   0.836   1.691
 3971WAT     H212125   0.852   0.891   1.561
 3972WAT      O12126   0.995   0.946   1.467
 3972WAT     H112127   0.974   1.004   1.393
 3972WAT     H212128   1.035   1.004   1.532
 3973WAT      O12129   0.330   1.757   1.586
 3973WAT     H112130   0.260   1.808   1.547
 3973WAT     H212131   0.356   1.695   1.518
 3974WAT      O12132   0.457   0.541   1.733
 3974WAT     H112133   0.512   0.509   1.804
 3974WAT     H212134   0.379   0.485   1.736
 3975WAT      O12135   0.938   0.508   1.768
 3975WAT     H112136   0.865   0.449   1.747
 3975WAT     H212137   1.004   0.450   1.807
 3976WAT      O12138   0.607   1.868   1.601
 3976WAT     H112139   0.601   1.953   1.644
 3976WAT     H212140   0.519   1.831   1.607
 3977WAT      O12141   0.657   1.789   0.373
 3977WAT     H112142   0.746   1.825   0.378
 3977WAT     H212143   0.665   1.716   0.312
 3978WAT      O12144   0.220   1.440   0.704
 3978WAT     H112145   0.179   1.427   0.790
 3978WAT     H212146   0.204   1.358   0.658
 3979WAT      O12147   1.379   1.648   1.623
 3979WAT     H112148   1.299   1.655   1.570
 3979WAT     H212149   1.383   1.555   1.646
 3980WAT      O12150   1.424   1.078   0.419
 3980WAT     H112151   1.494   1.144   0.419
 3980WAT     H212152   1.436   1.031   0.502
 3981WAT      O12153   1.537   1.177   0.923
 3981WAT     H112154   1.571   1.095   0.887
 3981WAT     H212155   1.595   1.245   0.889
 3982WAT      O12156   1.211   1.305   1.447
 3982WAT     H112157   1.146   1.362   1.488
 3982WAT     H212158   1.261   1.364   1.390
 3983WAT      O12159   1.089   0.415   0.277
 3983WAT     H112160   1.115   0.402   0.186
 3983WAT     H212161   1.022   0.348   0.293
 3984WAT      O12162   1.424   0.912   0.643
 3984WAT     H112163   1.388   0.830   0.609
 3984WAT     H212164   1.352   0.952   0.692
 3985WAT      O12165   1.372   0.819   1.609
 3985WAT     H112166   1.354   0.800   1.516
 3985WAT     H212167   1.378   0.914   1.612
 3986WAT      O12168   1.207   0.346   1.894
 3986WAT     H112169   1.297   0.347   1.928
 3986WAT     H212170   1.210   0.283   1.821
 3987WAT      O12171   1.343   0.741   0.974
 3987WAT     H112172   1.389   0.689   0.908
 3987WAT     H212173   1.411   0.773   1.032
 3988WAT      O12174   1.368   0.738   1.325
 3988WAT     H112175   1.272   0.732   1.328
 3988WAT     H212176   1.385   0.828   1.300
 3989WAT      O12177   1.330   0.663   0.573
 3989WAT     H112178   1.359   0.625   0.656
 3989WAT     H212179   1.289   0.591   0.526
 3990WAT      O12180   1.443   0.525   0.817
 3990WAT     H112181   1.437   0.500   0.909
 3990WAT     H212182   1.527   0.489   0.788
 3991WAT      O12183   1.547   0.380   0.422
 3991WAT     H112184   1.455   0.373   0.447
 3991WAT     H212185   1.562   0.474   0.412
 3992WAT      O12186   1.244   1.785   0.815
 3992WAT     H112187   1.305   1.769   0.744
 3992WAT     H212188   1.270   1.723   0.883
 3993WAT      O12189   0.402   1.595   1.383
 3993WAT     H112190   0.370   1.608   1.294
 3993WAT     H212191   0.497   1.592   1.375
 3994WAT      O12192   0.610   0.232   1.758
 3994WAT     H112193   0.615   0.302   1.823
 3994WAT     H212194   0.702   0.213   1.736
 3995WAT      O12195   1.528   1.781   1.434
 3995WAT     H112196   1.462   1.833   1.387
 3995WAT     H212197   1.478   1.736   1.502
 3996WAT      O12198   1.044   0.275   1.487
 3996WAT     H112199   1.030   0.188   1.450
 3996WAT     H212200   1.139   0.287   1.485
 3997WAT      O12201   1.286   1.859   1.185
 3997WAT     H112202   1.250   1.935   1.140
 3997WAT     H212203   1.215   1.795   1.187
 3998WAT      O12204   0.348   1.677   1.123
 3998WAT     H112205   0.381   1.623   1.052
 3998WAT     H212206   0.416   1.744   1.136
 3999WAT      O12207   0.612   1.777   1.174
 3999WAT     H112208   0.653   1.751   1.091
 3999WAT     H212209   0.645   1.713   1.238
 4000WAT      O12210   1.180   0.221   1.061
 4000WAT     H112211   1.230   0.209   0.981
 4000WAT     H212212   1.155   0.314   1.059
 4001WAT      O12213   0.507   0.387   0.801
 4001WAT     H112214   0.436   0.334   0.766
 4001WAT     H212215   0.583   0.328   0.802
 4002WAT      O12216   0.613   1.865   1.921
 4002WAT     H112217   0.706   1.842   1.925
 4002WAT     H212218   0.611   1.949   1.875
 4003WAT      O12219   1.436   1.813   0.619
 4003WAT     H112220   1.448   1.737   0.562
 4003WAT     H212221   1.391   1.876   0.563
 4004WAT      O12222   0.220   1.832   0.380
 4004WAT     H112223   0.294   1.855   0.324
 4004WAT     H212224   0.258   1.829   0.468
 4005WAT      O12225   1.278   1.787   1.897
 4005WAT     H112226   1.358   1.734   1.899
 4005WAT     H212227   1.296   1.858   1.959
   4.97495   5.65703   5.83016
