Generic title
12227
    1ILE      N    1   1.586   1.558   3.818
    1ILE     H1    2   1.653   1.483   3.816
    1ILE     H2    3   1.532   1.560   3.731
    1ILE     H3    4   1.520   1.545   3.893
    1ILE     CA    5   1.657   1.687   3.834
    1ILE     HA    6   1.628   1.751   3.750
    1ILE     CB    7   1.618   1.759   3.965
    1ILE     HB    8   1.509   1.769   3.965
    1ILE    CG2    9   1.657   1.676   4.089
    1ILE   HG21   10   1.766   1.667   4.096
    1ILE   HG22   11   1.620   1.724   4.179
    1ILE   HG23   12   1.613   1.576   4.085
    1ILE    CG1   13   1.677   1.902   3.972
    1ILE   HG12   14   1.654   1.955   3.879
    1ILE   HG13   15   1.785   1.897   3.983
    1ILE    CD1   16   1.627   1.989   4.088
    1ILE   HD11   17   1.660   1.947   4.183
    1ILE   HD12   18   1.669   2.089   4.079
    1ILE   HD13   19   1.518   1.996   4.087
    1ILE      C   20   1.808   1.663   3.823
    1ILE      O   21   1.851   1.551   3.845
    2LEU      N   22   1.886   1.768   3.793
    2LEU      H   23   1.842   1.857   3.776
    2LEU     CA   24   2.031   1.775   3.810
    2LEU     HA   25   2.058   1.724   3.902
    2LEU     CB   26   2.098   1.704   3.690
    2LEU    HB2   27   2.058   1.603   3.684
    2LEU    HB3   28   2.070   1.757   3.599
    2LEU     CG   29   2.252   1.694   3.694
    2LEU     HG   30   2.296   1.793   3.686
    2LEU    CD1   31   2.304   1.627   3.822
    2LEU   HD11   32   2.265   1.526   3.830
    2LEU   HD12   33   2.413   1.624   3.819
    2LEU   HD13   34   2.275   1.683   3.911
    2LEU    CD2   35   2.301   1.615   3.573
    2LEU   HD21   36   2.267   1.664   3.482
    2LEU   HD22   37   2.410   1.613   3.573
    2LEU   HD23   38   2.263   1.513   3.576
    2LEU      C   39   2.074   1.924   3.823
    2LEU      O   40   1.992   2.013   3.804
    3ARG      N   41   2.202   1.948   3.855
    3ARG      H   42   2.261   1.867   3.871
    3ARG     CA   43   2.276   2.075   3.846
    3ARG     HA   44   2.247   2.127   3.755
    3ARG     CB   45   2.238   2.160   3.970
    3ARG    HB2   46   2.130   2.173   3.972
    3ARG    HB3   47   2.268   2.106   4.060
    3ARG     CG   48   2.304   2.298   3.971
    3ARG    HG2   49   2.411   2.286   3.982
    3ARG    HG3   50   2.281   2.351   3.878
    3ARG     CD   51   2.256   2.381   4.090
    3ARG    HD2   52   2.149   2.396   4.083
    3ARG    HD3   53   2.279   2.326   4.182
    3ARG     NE   54   2.326   2.511   4.093
    3ARG     HE   55   2.388   2.532   4.016
    3ARG     CZ   56   2.315   2.603   4.188
    3ARG    NH1   57   2.239   2.587   4.292
    3ARG   HH11   58   2.186   2.503   4.305
    3ARG   HH12   59   2.232   2.662   4.361
    3ARG    NH2   60   2.380   2.715   4.181
    3ARG   HH21   61   2.443   2.735   4.105
    3ARG   HH22   62   2.368   2.781   4.257
    3ARG      C   63   2.428   2.045   3.843
    3ARG      O   64   2.467   1.936   3.885
    4TRP      N   65   2.512   2.140   3.800
    4TRP      H   66   2.471   2.226   3.767
    4TRP     CA   67   2.658   2.146   3.830
    4TRP     HA   68   2.672   2.110   3.931
    4TRP     CB   69   2.729   2.045   3.734
    4TRP    HB2   70   2.667   1.956   3.726
    4TRP    HB3   71   2.727   2.091   3.635
    4TRP     CG   72   2.870   1.990   3.757
    4TRP    CD1   73   2.948   1.959   3.650
    4TRP    HD1   74   2.911   1.957   3.548
    4TRP    NE1   75   3.081   1.960   3.685
    4TRP    HE1   76   3.155   1.958   3.615
    4TRP    CE2   77   3.099   2.005   3.814
    4TRP    CZ2   78   3.211   2.059   3.878
    4TRP    HZ2   79   3.307   2.063   3.828
    4TRP    CH2   80   3.195   2.124   4.002
    4TRP    HH2   81   3.278   2.176   4.047
    4TRP    CZ3   82   3.068   2.128   4.060
    4TRP    HZ3   83   3.054   2.183   4.153
    4TRP    CE3   84   2.956   2.068   3.998
    4TRP    HE3   85   2.859   2.081   4.043
    4TRP    CD2   86   2.967   2.006   3.870
    4TRP      C   87   2.697   2.300   3.834
    4TRP      O   88   2.608   2.380   3.865
    5PRO      N   89   2.822   2.348   3.813
    5PRO     CD   90   2.925   2.289   3.733
    5PRO    HD2   91   2.897   2.281   3.627
    5PRO    HD3   92   2.939   2.199   3.775
    5PRO     CG   93   3.057   2.358   3.757
    5PRO    HG2   94   3.105   2.383   3.662
    5PRO    HG3   95   3.122   2.293   3.815
    5PRO     CB   96   3.022   2.478   3.842
    5PRO    HB2   97   3.074   2.565   3.803
    5PRO    HB3   98   3.050   2.460   3.945
    5PRO     CA   99   2.868   2.485   3.829
    5PRO     HA  100   2.824   2.535   3.915
    5PRO      C  101   2.835   2.561   3.703
    5PRO      O  102   2.783   2.508   3.604
    6TRP      N  103   2.875   2.686   3.705
    6TRP      H  104   2.928   2.722   3.783
    6TRP     CA  105   2.874   2.770   3.588
    6TRP     HA  106   2.914   2.711   3.506
    6TRP     CB  107   2.727   2.803   3.563
    6TRP    HB2  108   2.665   2.715   3.573
    6TRP    HB3  109   2.695   2.873   3.640
    6TRP     CG  110   2.691   2.859   3.431
    6TRP    CD1  111   2.571   2.915   3.406
    6TRP    HD1  112   2.490   2.920   3.478
    6TRP    NE1  113   2.572   2.974   3.282
    6TRP    HE1  114   2.496   3.029   3.246
    6TRP    CE2  115   2.697   2.965   3.225
    6TRP    CZ2  116   2.754   3.026   3.114
    6TRP    HZ2  117   2.698   3.096   3.055
    6TRP    CH2  118   2.888   3.001   3.086
    6TRP    HH2  119   2.934   3.053   3.007
    6TRP    CZ3  120   2.964   2.911   3.162
    6TRP    HZ3  121   3.069   2.896   3.139
    6TRP    CE3  122   2.904   2.844   3.269
    6TRP    HE3  123   2.965   2.775   3.325
    6TRP    CD2  124   2.772   2.877   3.310
    6TRP      C  125   2.963   2.892   3.615
    6TRP      O  126   3.018   2.903   3.725
    7TRP      N  127   2.977   2.979   3.516
    7TRP      H  128   2.921   2.964   3.434
    7TRP     CA  129   3.039   3.112   3.523
    7TRP     HA  130   2.997   3.158   3.612
    7TRP     CB  131   3.191   3.094   3.548
    7TRP    HB2  132   3.209   3.013   3.618
    7TRP    HB3  133   3.235   3.060   3.454
    7TRP     CG  134   3.271   3.211   3.600
    7TRP    CD1  135   3.403   3.219   3.572
    7TRP    HD1  136   3.460   3.139   3.527
    7TRP    NE1  137   3.443   3.352   3.572
    7TRP    HE1  138   3.531   3.379   3.531
    7TRP    CE2  139   3.337   3.436   3.593
    7TRP    CZ2  140   3.322   3.575   3.572
    7TRP    HZ2  141   3.405   3.634   3.538
    7TRP    CH2  142   3.193   3.631   3.577
    7TRP    HH2  143   3.177   3.734   3.549
    7TRP    CZ3  144   3.083   3.550   3.608
    7TRP    HZ3  145   2.983   3.591   3.604
    7TRP    CE3  146   3.100   3.412   3.635
    7TRP    HE3  147   3.011   3.354   3.651
    7TRP    CD2  148   3.227   3.351   3.625
    7TRP      C  149   2.985   3.192   3.399
    7TRP      O  150   2.863   3.188   3.382
    8PRO      N  151   3.060   3.264   3.310
    8PRO     CD  152   3.200   3.298   3.308
    8PRO    HD2  153   3.260   3.231   3.247
    8PRO    HD3  154   3.241   3.296   3.402
    8PRO     CG  155   3.210   3.444   3.266
    8PRO    HG2  156   3.293   3.458   3.197
    8PRO    HG3  157   3.223   3.505   3.354
    8PRO     CB  158   3.074   3.479   3.208
    8PRO    HB2  159   3.088   3.529   3.112
    8PRO    HB3  160   3.018   3.542   3.276
    8PRO     CA  161   3.009   3.341   3.196
    8PRO     HA  162   2.900   3.350   3.196
    8PRO      C  163   3.055   3.280   3.064
    8PRO      O  164   3.137   3.189   3.057
    9TRP      N  165   3.009   3.341   2.956
    9TRP      H  166   2.953   3.424   2.966
    9TRP     CA  167   3.063   3.313   2.825
    9TRP     HA  168   3.171   3.312   2.832
    9TRP     CB  169   3.013   3.173   2.784
    9TRP    HB2  170   3.048   3.104   2.858
    9TRP    HB3  171   2.904   3.174   2.784
    9TRP     CG  172   3.063   3.104   2.663
    9TRP    CD1  173   2.997   3.001   2.606
    9TRP    HD1  174   2.904   2.960   2.642
    9TRP    NE1  175   3.061   2.964   2.490
    9TRP    HE1  176   3.019   2.902   2.423
    9TRP    CE2  177   3.172   3.044   2.467
    9TRP    CZ2  178   3.256   3.061   2.356
    9TRP    HZ2  179   3.237   3.003   2.267
    9TRP    CH2  180   3.352   3.163   2.358
    9TRP    HH2  181   3.410   3.185   2.269
    9TRP    CZ3  182   3.371   3.240   2.474
    9TRP    HZ3  183   3.444   3.320   2.475
    9TRP    CE3  184   3.290   3.219   2.587
    9TRP    HE3  185   3.304   3.282   2.674
    9TRP    CD2  186   3.183   3.127   2.583
    9TRP      C  187   3.022   3.427   2.731
    9TRP      O  188   2.969   3.530   2.771
   10ARG      N  189   3.053   3.406   2.605
   10ARG      H  190   3.084   3.312   2.582
   10ARG     CA  191   3.040   3.495   2.491
   10ARG     HA  192   2.943   3.545   2.493
   10ARG     CB  193   3.154   3.599   2.503
   10ARG    HB2  194   3.143   3.651   2.598
   10ARG    HB3  195   3.251   3.549   2.502
   10ARG     CG  196   3.149   3.704   2.391
   10ARG    HG2  197   3.192   3.661   2.301
   10ARG    HG3  198   3.045   3.731   2.373
   10ARG     CD  199   3.228   3.832   2.419
   10ARG    HD2  200   3.189   3.879   2.509
   10ARG    HD3  201   3.333   3.806   2.433
   10ARG     NE  202   3.212   3.921   2.302
   10ARG     HE  203   3.148   3.889   2.231
   10ARG     CZ  204   3.274   4.034   2.277
   10ARG    NH1  205   3.360   4.087   2.360
   10ARG   HH11  206   3.376   4.043   2.448
   10ARG   HH12  207   3.403   4.176   2.336
   10ARG    NH2  208   3.250   4.097   2.166
   10ARG   HH21  209   3.185   4.061   2.099
   10ARG   HH22  210   3.311   4.172   2.134
   10ARG      C  211   3.047   3.404   2.367
   10ARG      O  212   3.041   3.283   2.380
   11ARG      N  213   3.057   3.461   2.248
   11ARG      H  214   3.041   3.560   2.245
   11ARG     CA  215   3.118   3.406   2.126
   11ARG     HA  216   3.223   3.380   2.145
   11ARG     CB  217   3.042   3.278   2.082
   11ARG    HB2  218   3.059   3.201   2.157
   11ARG    HB3  219   2.935   3.299   2.079
   11ARG     CG  220   3.087   3.217   1.949
   11ARG    HG2  221   3.055   3.281   1.867
   11ARG    HG3  222   3.195   3.204   1.949
   11ARG     CD  223   3.020   3.083   1.929
   11ARG    HD2  224   3.056   3.014   2.004
   11ARG    HD3  225   2.912   3.096   1.940
   11ARG     NE  226   3.049   3.031   1.794
   11ARG     HE  227   3.114   3.083   1.738
   11ARG     CZ  228   2.995   2.923   1.742
   11ARG    NH1  229   2.905   2.853   1.806
   11ARG   HH11  230   2.886   2.876   1.904
   11ARG   HH12  231   2.868   2.768   1.770
   11ARG    NH2  232   3.030   2.883   1.624
   11ARG   HH21  233   3.102   2.932   1.573
   11ARG   HH22  234   2.991   2.799   1.585
   11ARG      C  235   3.115   3.520   2.022
   11ARG      O  236   3.067   3.629   2.054
   12LYS      N  237   3.167   3.497   1.902
   12LYS      H  238   3.211   3.406   1.888
   12LYS     CA  239   3.139   3.572   1.780
   12LYS     HA  240   3.034   3.602   1.779
   12LYS     CB  241   3.227   3.698   1.783
   12LYS    HB2  242   3.206   3.751   1.876
   12LYS    HB3  243   3.333   3.669   1.784
   12LYS     CG  244   3.200   3.796   1.669
   12LYS    HG2  245   3.235   3.753   1.575
   12LYS    HG3  246   3.093   3.815   1.662
   12LYS     CD  247   3.275   3.927   1.693
   12LYS    HD2  248   3.238   3.974   1.784
   12LYS    HD3  249   3.381   3.907   1.702
   12LYS     CE  250   3.248   4.019   1.573
   12LYS    HE2  251   3.280   3.968   1.482
   12LYS    HE3  252   3.139   4.034   1.566
   12LYS     NZ  253   3.316   4.150   1.588
   12LYS    HZ1  254   3.417   4.140   1.596
   12LYS    HZ2  255   3.294   4.210   1.510
   12LYS    HZ3  256   3.283   4.198   1.671
   12LYS      C  257   3.162   3.480   1.658
   12LYS      O  258   3.208   3.367   1.674
   13NHE      N  259   3.129   3.523   1.537
   13NHE    HN1  260   3.088   3.614   1.525
   13NHE    HN2  261   3.148   3.464   1.458
   14Cl-    Cl-  262   3.433   4.265   1.963
   15Cl-    Cl-  263   2.804   3.947   1.725
   16Cl-    Cl-  264   1.368   1.693   3.643
   17Cl-    Cl-  265   2.225   2.861   4.458
   18Cl-    Cl-  266   2.872   2.840   2.124
   19WAT      O  267   4.621   4.644   4.618
   19WAT     H1  268   4.628   4.549   4.617
   19WAT     H2  269   4.582   4.666   4.533
   20WAT      O  270   4.455   4.811   4.800
   20WAT     H1  271   4.391   4.758   4.847
   20WAT     H2  272   4.521   4.748   4.771
   21WAT      O  273   3.843   4.851   4.898
   21WAT     H1  274   3.777   4.802   4.946
   21WAT     H2  275   3.918   4.855   4.957
   22WAT      O  276   3.856   5.242   4.925
   22WAT     H1  277   3.900   5.162   4.895
   22WAT     H2  278   3.921   5.311   4.914
   23WAT      O  279   3.700   4.336   4.271
   23WAT     H1  280   3.607   4.357   4.267
   23WAT     H2  281   3.725   4.316   4.181
   24WAT      O  282   3.478   4.570   4.846
   24WAT     H1  283   3.549   4.506   4.859
   24WAT     H2  284   3.504   4.618   4.767
   25WAT      O  285   4.375   5.071   4.819
   25WAT     H1  286   4.397   4.979   4.804
   25WAT     H2  287   4.446   5.103   4.875
   26WAT      O  288   3.610   4.147   5.052
   26WAT     H1  289   3.607   4.055   5.081
   26WAT     H2  290   3.546   4.191   5.107
   27WAT      O  291   4.497   4.360   4.827
   27WAT     H1  292   4.548   4.283   4.854
   27WAT     H2  293   4.516   4.369   4.733
   28WAT      O  294   3.917   4.198   4.381
   28WAT     H1  295   3.942   4.273   4.435
   28WAT     H2  296   3.827   4.216   4.353
   29WAT      O  297   3.675   4.379   4.910
   29WAT     H1  298   3.758   4.401   4.952
   29WAT     H2  299   3.647   4.299   4.952
   30WAT      O  300   4.105   4.505   4.821
   30WAT     H1  301   4.170   4.555   4.870
   30WAT     H2  302   4.147   4.420   4.806
   31WAT      O  303   3.927   3.943   5.240
   31WAT     H1  304   3.931   4.008   5.170
   31WAT     H2  305   3.841   3.901   5.229
   32WAT      O  306   4.566   4.962   4.374
   32WAT     H1  307   4.507   5.003   4.311
   32WAT     H2  308   4.582   5.030   4.439
   33WAT      O  309   4.061   4.930   5.064
   33WAT     H1  310   4.022   4.988   5.129
   33WAT     H2  311   4.078   4.986   4.988
   34WAT      O  312   3.890   4.128   5.044
   34WAT     H1  313   3.925   4.216   5.029
   34WAT     H2  314   3.795   4.139   5.044
   35WAT      O  315   3.979   5.129   5.237
   35WAT     H1  316   4.039   5.197   5.207
   35WAT     H2  317   3.892   5.165   5.219
   36WAT      O  318   3.502   5.020   4.138
   36WAT     H1  319   3.469   5.071   4.064
   36WAT     H2  320   3.517   5.085   4.207
   37WAT      O  321   4.255   3.876   4.666
   37WAT     H1  322   4.282   3.816   4.596
   37WAT     H2  323   4.162   3.891   4.650
   38WAT      O  324   4.507   4.690   4.364
   38WAT     H1  325   4.412   4.694   4.368
   38WAT     H2  326   4.534   4.781   4.355
   39WAT      O  327   4.498   4.303   4.025
   39WAT     H1  328   4.412   4.316   4.064
   39WAT     H2  329   4.531   4.391   4.010
   40WAT      O  330   4.057   4.721   4.616
   40WAT     H1  331   4.026   4.646   4.565
   40WAT     H2  332   4.075   4.685   4.703
   41WAT      O  333   4.103   5.083   4.843
   41WAT     H1  334   4.072   5.046   4.760
   41WAT     H2  335   4.198   5.089   4.833
   42WAT      O  336   3.930   4.407   5.011
   42WAT     H1  337   3.982   4.437   4.937
   42WAT     H2  338   3.966   4.455   5.086
   43WAT      O  339   4.026   5.085   5.501
   43WAT     H1  340   3.938   5.084   5.538
   43WAT     H2  341   4.013   5.093   5.407
   44WAT      O  342   4.730   4.771   4.086
   44WAT     H1  343   4.769   4.684   4.084
   44WAT     H2  344   4.798   4.828   4.122
   45WAT      O  345   3.904   4.766   5.355
   45WAT     H1  346   3.880   4.857   5.372
   45WAT     H2  347   3.820   4.723   5.336
   46WAT      O  348   4.506   5.246   4.498
   46WAT     H1  349   4.561   5.311   4.455
   46WAT     H2  350   4.536   5.245   4.589
   47WAT      O  351   4.082   5.350   5.584
   47WAT     H1  352   4.069   5.391   5.499
   47WAT     H2  353   4.079   5.256   5.567
   48WAT      O  354   3.727   4.617   4.384
   48WAT     H1  355   3.723   4.690   4.323
   48WAT     H2  356   3.712   4.540   4.329
   49WAT      O  357   3.483   4.931   4.966
   49WAT     H1  358   3.472   4.943   4.872
   49WAT     H2  359   3.556   4.869   4.975
   50WAT      O  360   3.608   5.109   4.589
   50WAT     H1  361   3.590   5.134   4.498
   50WAT     H2  362   3.698   5.075   4.587
   51WAT      O  363   3.501   5.057   5.215
   51WAT     H1  364   3.493   5.011   5.131
   51WAT     H2  365   3.560   5.003   5.267
   52WAT      O  366   3.980   3.968   4.720
   52WAT     H1  367   3.936   4.049   4.693
   52WAT     H2  368   4.028   3.991   4.799
   53WAT      O  369   4.394   4.242   5.277
   53WAT     H1  370   4.338   4.261   5.352
   53WAT     H2  371   4.360   4.160   5.241
   54WAT      O  372   4.618   4.517   5.584
   54WAT     H1  373   4.639   4.426   5.567
   54WAT     H2  374   4.696   4.551   5.628
   55WAT      O  375   4.278   3.922   4.199
   55WAT     H1  376   4.210   3.921   4.266
   55WAT     H2  377   4.299   3.830   4.184
   56WAT      O  378   4.188   4.012   4.901
   56WAT     H1  379   4.203   4.104   4.878
   56WAT     H2  380   4.234   3.962   4.834
   57WAT      O  381   3.953   4.472   4.502
   57WAT     H1  382   3.918   4.432   4.582
   57WAT     H2  383   3.878   4.517   4.463
   58WAT      O  384   4.659   4.460   4.344
   58WAT     H1  385   4.607   4.540   4.341
   58WAT     H2  386   4.720   4.470   4.271
   59WAT      O  387   4.199   4.557   5.550
   59WAT     H1  388   4.203   4.465   5.525
   59WAT     H2  389   4.284   4.593   5.524
   60WAT      O  390   4.559   4.340   4.565
   60WAT     H1  391   4.589   4.373   4.481
   60WAT     H2  392   4.560   4.245   4.555
   61WAT      O  393   3.721   4.202   5.370
   61WAT     H1  394   3.671   4.282   5.386
   61WAT     H2  395   3.656   4.132   5.372
   62WAT      O  396   3.444   3.987   4.771
   62WAT     H1  397   3.419   4.054   4.835
   62WAT     H2  398   3.508   3.933   4.817
   63WAT      O  399   3.478   4.390   3.880
   63WAT     H1  400   3.470   4.483   3.901
   63WAT     H2  401   3.414   4.375   3.810
   64WAT      O  402   4.590   4.599   4.971
   64WAT     H1  403   4.504   4.619   5.008
   64WAT     H2  404   4.578   4.516   4.925
   65WAT      O  405   4.241   4.264   4.796
   65WAT     H1  406   4.247   4.231   4.706
   65WAT     H2  407   4.328   4.297   4.816
   66WAT      O  408   3.815   4.249   4.686
   66WAT     H1  409   3.782   4.294   4.764
   66WAT     H2  410   3.737   4.213   4.645
   67WAT      O  411   4.252   4.363   4.123
   67WAT     H1  412   4.241   4.366   4.218
   67WAT     H2  413   4.215   4.446   4.092
   68WAT      O  414   4.631   4.129   4.900
   68WAT     H1  415   4.652   4.172   4.983
   68WAT     H2  416   4.589   4.047   4.925
   69WAT      O  417   4.145   4.599   4.019
   69WAT     H1  418   4.098   4.545   3.956
   69WAT     H2  419   4.219   4.635   3.971
   70WAT      O  420   3.667   4.969   5.430
   70WAT     H1  421   3.625   4.903   5.485
   70WAT     H2  422   3.677   5.045   5.487
   71WAT      O  423   4.277   4.669   4.975
   71WAT     H1  424   4.297   4.609   5.046
   71WAT     H2  425   4.235   4.744   5.019
   72WAT      O  426   3.570   4.137   4.582
   72WAT     H1  427   3.530   4.088   4.654
   72WAT     H2  428   3.579   4.073   4.511
   73WAT      O  429   4.050   4.563   5.210
   73WAT     H1  430   4.022   4.645   5.250
   73WAT     H2  431   4.146   4.564   5.217
   74WAT      O  432   3.918   4.993   4.277
   74WAT     H1  433   3.840   4.939   4.268
   74WAT     H2  434   3.989   4.939   4.242
   75WAT      O  435   4.525   4.036   4.259
   75WAT     H1  436   4.441   3.994   4.242
   75WAT     H2  437   4.524   4.116   4.207
   76WAT      O  438   4.515   4.903   5.442
   76WAT     H1  439   4.521   4.814   5.407
   76WAT     H2  440   4.432   4.904   5.490
   77WAT      O  441   3.907   4.966   4.654
   77WAT     H1  442   3.954   4.891   4.618
   77WAT     H2  443   3.870   4.934   4.736
   78WAT      O  444   4.417   5.087   4.169
   78WAT     H1  445   4.437   5.165   4.117
   78WAT     H2  446   4.330   5.104   4.206
   79WAT      O  447   3.646   4.666   5.321
   79WAT     H1  448   3.602   4.718   5.388
   79WAT     H2  449   3.636   4.576   5.349
   80WAT      O  450   3.970   4.699   5.619
   80WAT     H1  451   3.948   4.715   5.527
   80WAT     H2  452   4.053   4.650   5.615
   81WAT      O  453   4.513   5.170   5.404
   81WAT     H1  454   4.521   5.075   5.411
   81WAT     H2  455   4.441   5.193   5.463
   82WAT      O  456   4.672   5.014   4.679
   82WAT     H1  457   4.720   4.941   4.640
   82WAT     H2  458   4.592   4.973   4.713
   83WAT      O  459   4.278   5.085   4.440
   83WAT     H1  460   4.354   5.140   4.463
   83WAT     H2  461   4.203   5.145   4.447
   84WAT      O  462   3.496   4.643   3.987
   84WAT     H1  463   3.585   4.656   4.019
   84WAT     H2  464   3.463   4.731   3.970
   85WAT      O  465   4.240   4.806   4.410
   85WAT     H1  466   4.264   4.897   4.429
   85WAT     H2  467   4.188   4.779   4.486
   86WAT      O  468   4.436   5.340   5.124
   86WAT     H1  469   4.492   5.350   5.201
   86WAT     H2  470   4.474   5.267   5.075
   87WAT      O  471   3.827   3.817   4.449
   87WAT     H1  472   3.787   3.795   4.533
   87WAT     H2  473   3.754   3.847   4.394
   88WAT      O  474   4.587   5.149   4.985
   88WAT     H1  475   4.636   5.070   5.009
   88WAT     H2  476   4.655   5.213   4.964
   89WAT      O  477   4.754   5.237   5.301
   89WAT     H1  478   4.793   5.279   5.378
   89WAT     H2  479   4.668   5.207   5.331
   90WAT      O  480   3.524   4.007   5.390
   90WAT     H1  481   3.442   4.013   5.440
   90WAT     H2  482   3.575   3.941   5.436
   91WAT      O  483   3.542   5.403   5.454
   91WAT     H1  484   3.533   5.310   5.476
   91WAT     H2  485   3.453   5.433   5.438
   92WAT      O  486   4.160   5.315   4.103
   92WAT     H1  487   4.136   5.391   4.051
   92WAT     H2  488   4.077   5.272   4.124
   93WAT      O  489   3.704   4.839   4.195
   93WAT     H1  490   3.634   4.900   4.172
   93WAT     H2  491   3.750   4.823   4.113
   94WAT      O  492   4.646   4.227   5.151
   94WAT     H1  493   4.706   4.197   5.219
   94WAT     H2  494   4.566   4.250   5.198
   95WAT      O  495   4.435   5.305   4.008
   95WAT     H1  496   4.445   5.289   3.914
   95WAT     H2  497   4.340   5.310   4.021
   96WAT      O  498   4.195   4.370   4.385
   96WAT     H1  499   4.125   4.416   4.431
   96WAT     H2  500   4.229   4.307   4.449
   97WAT      O  501   4.342   4.518   5.190
   97WAT     H1  502   4.399   4.564   5.251
   97WAT     H2  503   4.364   4.425   5.202
   98WAT      O  504   4.599   4.056   4.525
   98WAT     H1  505   4.573   4.043   4.434
   98WAT     H2  506   4.695   4.059   4.522
   99WAT      O  507   4.012   4.201   4.121
   99WAT     H1  508   4.099   4.240   4.107
   99WAT     H2  509   3.993   4.217   4.213
  100WAT      O  510   3.901   4.835   3.976
  100WAT     H1  511   3.981   4.833   4.030
  100WAT     H2  512   3.926   4.790   3.896
  101WAT      O  513   3.769   4.575   4.051
  101WAT     H1  514   3.769   4.479   4.046
  101WAT     H2  515   3.862   4.599   4.054
  102WAT      O  516   3.534   5.204   4.341
  102WAT     H1  517   3.443   5.234   4.335
  102WAT     H2  518   3.586   5.279   4.314
  103WAT      O  519   3.543   4.771   5.569
  103WAT     H1  520   3.587   4.713   5.631
  103WAT     H2  521   3.451   4.768   5.595
  104WAT      O  522   4.222   5.025   3.900
  104WAT     H1  523   4.217   4.977   3.983
  104WAT     H2  524   4.223   4.957   3.833
  105WAT      O  525   4.252   4.909   5.508
  105WAT     H1  526   4.171   4.957   5.525
  105WAT     H2  527   4.241   4.875   5.419
  106WAT      O  528   4.532   4.926   3.975
  106WAT     H1  529   4.493   4.979   4.045
  106WAT     H2  530   4.599   4.874   4.019
  107WAT      O  531   4.109   4.824   4.168
  107WAT     H1  532   4.160   4.820   4.249
  107WAT     H2  533   4.128   4.741   4.124
  108WAT      O  534   3.900   4.428   5.435
  108WAT     H1  535   3.875   4.369   5.365
  108WAT     H2  536   3.977   4.475   5.401
  109WAT      O  537   4.367   4.715   3.910
  109WAT     H1  538   4.420   4.669   3.845
  109WAT     H2  539   4.418   4.794   3.929
  110WAT      O  540   3.990   4.119   5.449
  110WAT     H1  541   3.974   4.055   5.379
  110WAT     H2  542   3.910   4.170   5.453
  111WAT      O  543   4.259   3.997   5.163
  111WAT     H1  544   4.219   4.002   5.076
  111WAT     H2  545   4.190   3.960   5.219
  112WAT      O  546   4.267   4.868   5.230
  112WAT     H1  547   4.330   4.939   5.215
  112WAT     H2  548   4.192   4.891   5.175
  113WAT      O  549   4.516   4.631   5.365
  113WAT     H1  550   4.545   4.590   5.446
  113WAT     H2  551   4.597   4.650   5.318
  114WAT      O  552   4.738   4.714   5.240
  114WAT     H1  553   4.732   4.705   5.145
  114WAT     H2  554   4.802   4.783   5.254
  115WAT      O  555   3.996   4.427   3.867
  115WAT     H1  556   3.967   4.339   3.890
  115WAT     H2  557   3.980   4.433   3.773
  116WAT      O  558   4.214   4.286   5.490
  116WAT     H1  559   4.243   4.250   5.574
  116WAT     H2  560   4.133   4.238   5.470
  117WAT      O  561   4.683   4.259   5.532
  117WAT     H1  562   4.625   4.192   5.498
  117WAT     H2  563   4.761   4.212   5.560
  118WAT      O  564   4.731   3.912   4.106
  118WAT     H1  565   4.763   3.835   4.152
  118WAT     H2  566   4.670   3.954   4.167
  119WAT      O  567   3.892   4.161   3.849
  119WAT     H1  568   3.927   4.132   3.765
  119WAT     H2  569   3.952   4.124   3.914
  120WAT      O  570   4.208   4.039   3.954
  120WAT     H1  571   4.156   3.971   3.912
  120WAT     H2  572   4.227   4.005   4.041
  121WAT      O  573   3.789   5.081   3.936
  121WAT     H1  574   3.828   5.134   4.006
  121WAT     H2  575   3.827   4.994   3.949
  122WAT      O  576   3.498   5.338   4.712
  122WAT     H1  577   3.532   5.260   4.667
  122WAT     H2  578   3.571   5.369   4.765
  123WAT      O  579   3.981   5.179   4.471
  123WAT     H1  580   3.947   5.139   4.551
  123WAT     H2  581   3.960   5.115   4.402
  124WAT      O  582   3.526   4.688   4.587
  124WAT     H1  583   3.459   4.671   4.520
  124WAT     H2  584   3.609   4.673   4.542
  125WAT      O  585   3.648   4.728   5.051
  125WAT     H1  586   3.657   4.709   5.144
  125WAT     H2  587   3.589   4.659   5.019
  126WAT      O  588   3.583   4.428   5.445
  126WAT     H1  589   3.499   4.407   5.486
  126WAT     H2  590   3.644   4.432   5.519
  127WAT      O  591   3.453   4.409   4.182
  127WAT     H1  592   3.368   4.442   4.210
  127WAT     H2  593   3.474   4.460   4.104
  128WAT      O  594   3.716   4.312   3.998
  128WAT     H1  595   3.769   4.255   3.943
  128WAT     H2  596   3.635   4.324   3.948
  129WAT      O  597   3.665   3.929   3.887
  129WAT     H1  598   3.734   3.963   3.944
  129WAT     H2  599   3.705   3.922   3.801
  130WAT      O  600   3.644   3.832   4.884
  130WAT     H1  601   3.718   3.797   4.834
  130WAT     H2  602   3.683   3.863   4.966
  131WAT      O  603   3.622   3.882   5.166
  131WAT     H1  604   3.584   3.925   5.243
  131WAT     H2  605   3.589   3.792   5.171
  132WAT      O  606   4.153   5.317   5.140
  132WAT     H1  607   4.125   5.350   5.055
  132WAT     H2  608   4.248   5.333   5.141
  133WAT      O  609   4.375   3.985   5.495
  133WAT     H1  610   4.351   4.007   5.585
  133WAT     H2  611   4.470   3.991   5.494
  134WAT      O  612   4.654   3.978   5.476
  134WAT     H1  613   4.680   3.955   5.386
  134WAT     H2  614   4.688   3.906   5.530
  135WAT      O  615   3.685   3.812   5.481
  135WAT     H1  616   3.741   3.778   5.411
  135WAT     H2  617   3.681   3.741   5.545
  136WAT      O  618   3.760   5.476   5.296
  136WAT     H1  619   3.691   5.464   5.361
  136WAT     H2  620   3.760   5.395   5.245
  137WAT      O  621   4.715   3.829   5.131
  137WAT     H1  622   4.640   3.858   5.078
  137WAT     H2  623   4.682   3.753   5.178
  138WAT      O  624   3.730   5.226   5.172
  138WAT     H1  625   3.646   5.180   5.174
  138WAT     H2  626   3.753   5.233   5.079
  139WAT      O  627   4.095   5.413   4.885
  139WAT     H1  628   4.132   5.372   4.807
  139WAT     H2  629   4.127   5.503   4.883
  140WAT      O  630   4.479   3.899   5.001
  140WAT     H1  631   4.415   3.942   5.057
  140WAT     H2  632   4.435   3.821   4.968
  141WAT      O  633   3.624   3.936   4.251
  141WAT     H1  634   3.701   3.955   4.197
  141WAT     H2  635   3.560   4.003   4.226
  142WAT      O  636   4.257   4.143   4.547
  142WAT     H1  637   4.194   4.089   4.500
  142WAT     H2  638   4.326   4.082   4.573
  143WAT      O  639   4.719   3.811   4.658
  143WAT     H1  640   4.768   3.845   4.733
  143WAT     H2  641   4.650   3.876   4.644
  144WAT      O  642   3.696   5.411   4.254
  144WAT     H1  643   3.667   5.462   4.179
  144WAT     H2  644   3.721   5.476   4.319
  145WAT      O  645   3.849   3.978   4.097
  145WAT     H1  646   3.904   3.901   4.110
  145WAT     H2  647   3.908   4.052   4.111
  146WAT      O  648   4.073   3.970   4.404
  146WAT     H1  649   4.008   3.903   4.424
  146WAT     H2  650   4.022   4.050   4.389
  147WAT      O  651   4.104   3.898   5.650
  147WAT     H1  652   4.060   3.952   5.584
  147WAT     H2  653   4.109   3.811   5.611
  148WAT      O  654   3.893   5.230   4.146
  148WAT     H1  655   3.830   5.285   4.193
  148WAT     H2  656   3.902   5.152   4.200
  149WAT      O  657   4.618   4.644   2.742
  149WAT     H1  658   4.628   4.549   2.739
  149WAT     H2  659   4.581   4.667   2.657
  150WAT      O  660   4.455   4.811   2.922
  150WAT     H1  661   4.391   4.757   2.968
  150WAT     H2  662   4.521   4.748   2.890
  151WAT      O  663   3.844   4.850   3.020
  151WAT     H1  664   3.777   4.802   3.069
  151WAT     H2  665   3.918   4.855   3.081
  152WAT      O  666   3.856   5.242   3.048
  152WAT     H1  667   3.900   5.162   3.018
  152WAT     H2  668   3.921   5.310   3.037
  153WAT      O  669   3.697   4.323   2.389
  153WAT     H1  670   3.606   4.352   2.384
  153WAT     H2  671   3.724   4.311   2.298
  154WAT      O  672   3.479   4.570   2.968
  154WAT     H1  673   3.550   4.507   2.981
  154WAT     H2  674   3.504   4.618   2.889
  155WAT      O  675   4.375   5.071   2.942
  155WAT     H1  676   4.397   4.979   2.927
  155WAT     H2  677   4.446   5.104   2.997
  156WAT      O  678   3.612   4.150   3.176
  156WAT     H1  679   3.607   4.059   3.205
  156WAT     H2  680   3.545   4.195   3.228
  157WAT      O  681   4.496   4.360   2.950
  157WAT     H1  682   4.547   4.284   2.977
  157WAT     H2  683   4.515   4.369   2.856
  158WAT      O  684   3.910   4.194   2.506
  158WAT     H1  685   3.940   4.268   2.559
  158WAT     H2  686   3.827   4.223   2.470
  159WAT      O  687   3.677   4.379   3.030
  159WAT     H1  688   3.759   4.401   3.075
  159WAT     H2  689   3.646   4.300   3.074
  160WAT      O  690   4.105   4.504   2.943
  160WAT     H1  691   4.170   4.555   2.991
  160WAT     H2  692   4.148   4.420   2.928
  161WAT      O  693   3.928   3.942   3.363
  161WAT     H1  694   3.936   4.008   3.295
  161WAT     H2  695   3.839   3.907   3.353
  162WAT      O  696   4.565   4.962   2.498
  162WAT     H1  697   4.507   5.003   2.434
  162WAT     H2  698   4.582   5.031   2.562
  163WAT      O  699   4.063   4.928   3.187
  163WAT     H1  700   4.023   4.987   3.251
  163WAT     H2  701   4.080   4.983   3.111
  164WAT      O  702   3.891   4.128   3.168
  164WAT     H1  703   3.925   4.216   3.152
  164WAT     H2  704   3.796   4.139   3.169
  165WAT      O  705   3.979   5.128   3.356
  165WAT     H1  706   4.039   5.198   3.327
  165WAT     H2  707   3.892   5.165   3.342
  166WAT      O  708   3.505   5.021   2.260
  166WAT     H1  709   3.470   5.071   2.186
  166WAT     H2  710   3.518   5.086   2.329
  167WAT      O  711   4.254   3.874   2.791
  167WAT     H1  712   4.284   3.816   2.721
  167WAT     H2  713   4.163   3.892   2.769
  168WAT      O  714   4.507   4.690   2.487
  168WAT     H1  715   4.411   4.695   2.491
  168WAT     H2  716   4.535   4.781   2.478
  169WAT      O  717   4.498   4.302   2.148
  169WAT     H1  718   4.412   4.316   2.187
  169WAT     H2  719   4.532   4.391   2.133
  170WAT      O  720   4.057   4.721   2.739
  170WAT     H1  721   4.026   4.647   2.687
  170WAT     H2  722   4.074   4.685   2.826
  171WAT      O  723   4.103   5.081   2.966
  171WAT     H1  724   4.072   5.047   2.882
  171WAT     H2  725   4.198   5.088   2.955
  172WAT      O  726   3.931   4.406   3.135
  172WAT     H1  727   3.984   4.438   3.061
  172WAT     H2  728   3.966   4.454   3.210
  173WAT      O  729   4.020   5.081   3.619
  173WAT     H1  730   3.931   5.096   3.653
  173WAT     H2  731   4.011   5.091   3.524
  174WAT      O  732   4.729   4.770   2.210
  174WAT     H1  733   4.770   4.684   2.205
  174WAT     H2  734   4.798   4.828   2.243
  175WAT      O  735   3.900   4.771   3.483
  175WAT     H1  736   3.876   4.863   3.494
  175WAT     H2  737   3.817   4.727   3.462
  176WAT      O  738   4.507   5.245   2.620
  176WAT     H1  739   4.561   5.311   2.577
  176WAT     H2  740   4.537   5.246   2.711
  177WAT      O  741   4.094   5.343   3.704
  177WAT     H1  742   4.072   5.389   3.623
  177WAT     H2  743   4.069   5.252   3.686
  178WAT      O  744   3.728   4.617   2.505
  178WAT     H1  745   3.725   4.694   2.448
  178WAT     H2  746   3.706   4.544   2.447
  179WAT      O  747   3.483   4.930   3.090
  179WAT     H1  748   3.472   4.943   2.995
  179WAT     H2  749   3.557   4.869   3.097
  180WAT      O  750   3.608   5.110   2.711
  180WAT     H1  751   3.590   5.134   2.620
  180WAT     H2  752   3.698   5.075   2.709
  181WAT      O  753   3.501   5.060   3.338
  181WAT     H1  754   3.494   5.011   3.257
  181WAT     H2  755   3.558   5.007   3.394
  182WAT      O  756   3.977   3.974   2.842
  182WAT     H1  757   3.936   4.057   2.821
  182WAT     H2  758   4.029   3.992   2.920
  183WAT      O  759   4.396   4.242   3.399
  183WAT     H1  760   4.339   4.264   3.472
  183WAT     H2  761   4.358   4.162   3.362
  184WAT      O  762   4.614   4.520   3.719
  184WAT     H1  763   4.633   4.429   3.696
  184WAT     H2  764   4.700   4.557   3.741
  185WAT      O  765   4.280   3.922   2.321
  185WAT     H1  766   4.212   3.920   2.388
  185WAT     H2  767   4.300   3.830   2.305
  186WAT      O  768   4.188   4.012   3.024
  186WAT     H1  769   4.204   4.103   3.000
  186WAT     H2  770   4.234   3.961   2.957
  187WAT      O  771   3.952   4.472   2.623
  187WAT     H1  772   3.917   4.436   2.704
  187WAT     H2  773   3.878   4.518   2.583
  188WAT      O  774   4.659   4.460   2.467
  188WAT     H1  775   4.606   4.540   2.464
  188WAT     H2  776   4.721   4.470   2.395
  189WAT      O  777   4.200   4.561   3.666
  189WAT     H1  778   4.203   4.468   3.646
  189WAT     H2  779   4.283   4.595   3.633
  190WAT      O  780   4.557   4.339   2.688
  190WAT     H1  781   4.588   4.373   2.604
  190WAT     H2  782   4.560   4.244   2.677
  191WAT      O  783   3.721   4.205   3.497
  191WAT     H1  784   3.672   4.283   3.522
  191WAT     H2  785   3.656   4.135   3.495
  192WAT      O  786   4.367   4.194   3.807
  192WAT     H1  787   4.307   4.148   3.866
  192WAT     H2  788   4.431   4.234   3.865
  193WAT      O  789   3.455   3.994   2.888
  193WAT     H1  790   3.405   4.045   2.952
  193WAT     H2  791   3.505   3.932   2.941
  194WAT      O  792   4.591   4.598   3.097
  194WAT     H1  793   4.503   4.622   3.126
  194WAT     H2  794   4.578   4.516   3.050
  195WAT      O  795   4.241   4.263   2.920
  195WAT     H1  796   4.247   4.231   2.830
  195WAT     H2  797   4.328   4.297   2.939
  196WAT      O  798   3.816   4.241   2.814
  196WAT     H1  799   3.786   4.292   2.890
  196WAT     H2  800   3.735   4.215   2.770
  197WAT      O  801   4.252   4.363   2.246
  197WAT     H1  802   4.240   4.365   2.340
  197WAT     H2  803   4.215   4.446   2.215
  198WAT      O  804   4.631   4.130   3.022
  198WAT     H1  805   4.653   4.172   3.106
  198WAT     H2  806   4.591   4.047   3.047
  199WAT      O  807   4.146   4.599   2.143
  199WAT     H1  808   4.100   4.544   2.079
  199WAT     H2  809   4.220   4.635   2.094
  200WAT      O  810   3.665   4.969   3.546
  200WAT     H1  811   3.623   4.911   3.609
  200WAT     H2  812   3.695   5.043   3.598
  201WAT      O  813   4.277   4.669   3.097
  201WAT     H1  814   4.297   4.609   3.170
  201WAT     H2  815   4.234   4.743   3.139
  202WAT      O  816   3.569   4.145   2.703
  202WAT     H1  817   3.529   4.103   2.779
  202WAT     H2  818   3.593   4.073   2.645
  203WAT      O  819   4.049   4.561   3.339
  203WAT     H1  820   4.022   4.647   3.373
  203WAT     H2  821   4.144   4.563   3.341
  204WAT      O  822   3.919   4.994   2.400
  204WAT     H1  823   3.840   4.941   2.389
  204WAT     H2  824   3.990   4.940   2.364
  205WAT      O  825   4.525   4.037   2.382
  205WAT     H1  826   4.441   3.995   2.364
  205WAT     H2  827   4.525   4.116   2.329
  206WAT      O  828   4.505   4.905   3.568
  206WAT     H1  829   4.514   4.817   3.531
  206WAT     H2  830   4.424   4.901   3.619
  207WAT      O  831   3.908   4.967   2.777
  207WAT     H1  832   3.955   4.892   2.741
  207WAT     H2  833   3.870   4.934   2.859
  208WAT      O  834   4.417   5.087   2.292
  208WAT     H1  835   4.437   5.165   2.240
  208WAT     H2  836   4.330   5.104   2.328
  209WAT      O  837   3.646   4.666   3.445
  209WAT     H1  838   3.603   4.721   3.510
  209WAT     H2  839   3.631   4.576   3.475
  210WAT      O  840   3.972   4.702   3.740
  210WAT     H1  841   3.955   4.731   3.651
  210WAT     H2  842   4.055   4.654   3.733
  211WAT      O  843   4.507   5.173   3.530
  211WAT     H1  844   4.507   5.077   3.533
  211WAT     H2  845   4.442   5.199   3.595
  212WAT      O  846   4.672   5.014   2.803
  212WAT     H1  847   4.720   4.942   2.762
  212WAT     H2  848   4.592   4.973   2.836
  213WAT      O  849   4.278   5.085   2.563
  213WAT     H1  850   4.354   5.139   2.586
  213WAT     H2  851   4.203   5.144   2.570
  214WAT      O  852   3.494   4.656   2.137
  214WAT     H1  853   3.589   4.663   2.150
  214WAT     H2  854   3.469   4.738   2.096
  215WAT      O  855   4.240   4.806   2.533
  215WAT     H1  856   4.264   4.897   2.550
  215WAT     H2  857   4.188   4.780   2.608
  216WAT      O  858   4.436   5.340   3.246
  216WAT     H1  859   4.490   5.351   3.325
  216WAT     H2  860   4.475   5.267   3.199
  217WAT      O  861   3.824   3.799   2.575
  217WAT     H1  862   3.804   3.801   2.669
  217WAT     H2  863   3.771   3.871   2.539
  218WAT      O  864   4.587   5.148   3.107
  218WAT     H1  865   4.638   5.071   3.132
  218WAT     H2  866   4.654   5.214   3.087
  219WAT      O  867   4.751   5.238   3.427
  219WAT     H1  868   4.793   5.272   3.506
  219WAT     H2  869   4.664   5.209   3.457
  220WAT      O  870   3.522   4.000   3.513
  220WAT     H1  871   3.443   4.021   3.563
  220WAT     H2  872   3.570   3.938   3.568
  221WAT      O  873   3.536   5.405   3.593
  221WAT     H1  874   3.550   5.310   3.592
  221WAT     H2  875   3.451   5.417   3.550
  222WAT      O  876   4.339   5.223   3.750
  222WAT     H1  877   4.305   5.151   3.803
  222WAT     H2  878   4.264   5.281   3.737
  223WAT      O  879   4.160   5.315   2.226
  223WAT     H1  880   4.136   5.390   2.172
  223WAT     H2  881   4.077   5.273   2.247
  224WAT      O  882   3.707   4.841   2.321
  224WAT     H1  883   3.635   4.899   2.297
  224WAT     H2  884   3.749   4.819   2.238
  225WAT      O  885   4.647   4.226   3.274
  225WAT     H1  886   4.709   4.198   3.342
  225WAT     H2  887   4.567   4.249   3.322
  226WAT      O  888   4.435   5.305   2.131
  226WAT     H1  889   4.445   5.289   2.037
  226WAT     H2  890   4.340   5.310   2.144
  227WAT      O  891   4.193   4.368   2.507
  227WAT     H1  892   4.124   4.415   2.553
  227WAT     H2  893   4.228   4.308   2.573
  228WAT      O  894   4.341   4.519   3.314
  228WAT     H1  895   4.399   4.565   3.375
  228WAT     H2  896   4.365   4.427   3.324
  229WAT      O  897   4.599   4.056   2.647
  229WAT     H1  898   4.573   4.043   2.556
  229WAT     H2  899   4.695   4.059   2.645
  230WAT      O  900   4.013   4.201   2.244
  230WAT     H1  901   4.099   4.239   2.228
  230WAT     H2  902   3.996   4.220   2.337
  231WAT      O  903   3.903   4.837   2.098
  231WAT     H1  904   3.981   4.834   2.153
  231WAT     H2  905   3.927   4.791   2.018
  232WAT      O  906   3.773   4.577   2.176
  232WAT     H1  907   3.764   4.482   2.165
  232WAT     H2  908   3.868   4.592   2.176
  233WAT      O  909   3.533   5.204   2.464
  233WAT     H1  910   3.443   5.234   2.458
  233WAT     H2  911   3.586   5.279   2.437
  234WAT      O  912   4.654   5.113   3.795
  234WAT     H1  913   4.594   5.121   3.720
  234WAT     H2  914   4.612   5.048   3.851
  235WAT      O  915   3.538   4.773   3.690
  235WAT     H1  916   3.587   4.704   3.735
  235WAT     H2  917   3.460   4.786   3.745
  236WAT      O  918   4.223   5.025   2.023
  236WAT     H1  919   4.215   4.977   2.106
  236WAT     H2  920   4.222   4.957   1.956
  237WAT      O  921   4.236   4.905   3.637
  237WAT     H1  922   4.160   4.964   3.639
  237WAT     H2  923   4.241   4.876   3.546
  238WAT      O  924   4.532   4.925   2.098
  238WAT     H1  925   4.493   4.979   2.167
  238WAT     H2  926   4.599   4.874   2.142
  239WAT      O  927   3.721   4.575   3.771
  239WAT     H1  928   3.725   4.558   3.866
  239WAT     H2  929   3.809   4.605   3.749
  240WAT      O  930   4.110   4.824   2.290
  240WAT     H1  931   4.160   4.820   2.371
  240WAT     H2  932   4.128   4.740   2.247
  241WAT      O  933   3.932   4.417   3.574
  241WAT     H1  934   3.864   4.385   3.515
  241WAT     H2  935   3.990   4.469   3.517
  242WAT      O  936   4.367   4.715   2.031
  242WAT     H1  937   4.422   4.669   1.967
  242WAT     H2  938   4.416   4.794   2.052
  243WAT      O  939   3.980   4.110   3.585
  243WAT     H1  940   3.970   4.051   3.511
  243WAT     H2  941   3.912   4.177   3.571
  244WAT      O  942   4.254   3.998   3.287
  244WAT     H1  943   4.220   4.004   3.198
  244WAT     H2  944   4.183   3.958   3.337
  245WAT      O  945   4.267   4.872   3.359
  245WAT     H1  946   4.331   4.939   3.338
  245WAT     H2  947   4.192   4.892   3.302
  246WAT      O  948   4.514   4.631   3.493
  246WAT     H1  949   4.545   4.588   3.572
  246WAT     H2  950   4.594   4.652   3.444
  247WAT      O  951   4.734   4.716   3.364
  247WAT     H1  952   4.730   4.702   3.270
  247WAT     H2  953   4.804   4.780   3.377
  248WAT      O  954   3.999   4.425   1.992
  248WAT     H1  955   3.966   4.338   2.016
  248WAT     H2  956   3.979   4.432   1.898
  249WAT      O  957   4.217   4.291   3.603
  249WAT     H1  958   4.264   4.261   3.681
  249WAT     H2  959   4.134   4.244   3.605
  250WAT      O  960   4.683   4.264   3.653
  250WAT     H1  961   4.616   4.201   3.627
  250WAT     H2  962   4.755   4.211   3.686
  251WAT      O  963   4.731   3.912   2.228
  251WAT     H1  964   4.762   3.835   2.275
  251WAT     H2  965   4.670   3.954   2.290
  252WAT      O  966   3.893   4.161   1.974
  252WAT     H1  967   3.928   4.132   1.890
  252WAT     H2  968   3.951   4.122   2.039
  253WAT      O  969   4.208   4.040   2.076
  253WAT     H1  970   4.157   3.972   2.033
  253WAT     H2  971   4.228   4.004   2.163
  254WAT      O  972   3.790   5.082   2.058
  254WAT     H1  973   3.828   5.135   2.129
  254WAT     H2  974   3.826   4.995   2.071
  255WAT      O  975   3.498   5.338   2.834
  255WAT     H1  976   3.532   5.261   2.789
  255WAT     H2  977   3.572   5.368   2.888
  256WAT      O  978   3.982   5.179   2.594
  256WAT     H1  979   3.947   5.139   2.674
  256WAT     H2  980   3.962   5.116   2.525
  257WAT      O  981   3.525   4.687   2.708
  257WAT     H1  982   3.458   4.673   2.642
  257WAT     H2  983   3.608   4.673   2.662
  258WAT      O  984   3.649   4.726   3.174
  258WAT     H1  985   3.656   4.710   3.268
  258WAT     H2  986   3.586   4.660   3.143
  259WAT      O  987   3.587   4.428   3.575
  259WAT     H1  988   3.500   4.409   3.610
  259WAT     H2  989   3.635   4.466   3.649
  260WAT      O  990   3.450   4.398   2.305
  260WAT     H1  991   3.367   4.435   2.334
  260WAT     H2  992   3.470   4.444   2.223
  261WAT      O  993   3.712   4.319   2.112
  261WAT     H1  994   3.769   4.258   2.065
  261WAT     H2  995   3.627   4.309   2.070
  262WAT      O  996   3.676   3.900   2.014
  262WAT     H1  997   3.722   3.953   2.079
  262WAT     H2  998   3.724   3.915   1.933
  263WAT      O  999   3.644   3.827   3.008
  263WAT     H1 1000   3.718   3.793   2.957
  263WAT     H2 1001   3.684   3.868   3.084
  264WAT      O 1002   3.633   3.888   3.291
  264WAT     H1 1003   3.585   3.927   3.364
  264WAT     H2 1004   3.622   3.794   3.302
  265WAT      O 1005   3.767   5.181   3.693
  265WAT     H1 1006   3.767   5.146   3.782
  265WAT     H2 1007   3.781   5.275   3.703
  266WAT      O 1008   4.153   5.318   3.262
  266WAT     H1 1009   4.125   5.351   3.177
  266WAT     H2 1010   4.247   5.333   3.265
  267WAT      O 1011   4.380   3.971   3.645
  267WAT     H1 1012   4.363   4.049   3.697
  267WAT     H2 1013   4.471   3.980   3.617
  268WAT      O 1014   4.650   3.974   3.593
  268WAT     H1 1015   4.687   3.954   3.507
  268WAT     H2 1016   4.697   3.917   3.654
  269WAT      O 1017   3.690   3.811   3.616
  269WAT     H1 1018   3.739   3.783   3.538
  269WAT     H2 1019   3.707   3.741   3.680
  270WAT      O 1020   3.760   5.474   3.427
  270WAT     H1 1021   3.688   5.462   3.488
  270WAT     H2 1022   3.759   5.395   3.373
  271WAT      O 1023   4.715   3.830   3.253
  271WAT     H1 1024   4.641   3.859   3.200
  271WAT     H2 1025   4.683   3.753   3.301
  272WAT      O 1026   3.729   5.230   3.295
  272WAT     H1 1027   3.648   5.179   3.299
  272WAT     H2 1028   3.752   5.234   3.202
  273WAT      O 1029   4.095   5.413   3.007
  273WAT     H1 1030   4.132   5.372   2.929
  273WAT     H2 1031   4.128   5.503   3.005
  274WAT      O 1032   4.479   3.899   3.123
  274WAT     H1 1033   4.415   3.942   3.179
  274WAT     H2 1034   4.435   3.821   3.091
  275WAT      O 1035   4.257   4.143   2.671
  275WAT     H1 1036   4.196   4.089   2.622
  275WAT     H2 1037   4.329   4.084   2.694
  276WAT      O 1038   4.719   3.811   2.780
  276WAT     H1 1039   4.769   3.845   2.854
  276WAT     H2 1040   4.650   3.876   2.766
  277WAT      O 1041   3.697   5.410   2.376
  277WAT     H1 1042   3.667   5.461   2.301
  277WAT     H2 1043   3.720   5.476   2.441
  278WAT      O 1044   3.847   3.978   2.225
  278WAT     H1 1045   3.902   3.901   2.235
  278WAT     H2 1046   3.906   4.052   2.237
  279WAT      O 1047   4.078   3.971   2.527
  279WAT     H1 1048   4.017   3.898   2.540
  279WAT     H2 1049   4.021   4.047   2.513
  280WAT      O 1050   4.067   3.886   3.768
  280WAT     H1 1051   4.062   3.946   3.694
  280WAT     H2 1052   4.130   3.819   3.741
  281WAT      O 1053   3.893   5.231   2.268
  281WAT     H1 1054   3.830   5.285   2.316
  281WAT     H2 1055   3.902   5.152   2.323
  282WAT      O 1056   4.616   4.644   0.866
  282WAT     H1 1057   4.630   4.550   0.862
  282WAT     H2 1058   4.582   4.667   0.779
  283WAT      O 1059   4.456   4.811   1.045
  283WAT     H1 1060   4.391   4.756   1.090
  283WAT     H2 1061   4.520   4.748   1.010
  284WAT      O 1062   3.843   4.850   1.143
  284WAT     H1 1063   3.776   4.801   1.191
  284WAT     H2 1064   3.917   4.855   1.203
  285WAT      O 1065   3.856   5.242   1.170
  285WAT     H1 1066   3.900   5.162   1.140
  285WAT     H2 1067   3.921   5.311   1.159
  286WAT      O 1068   3.697   4.343   0.515
  286WAT     H1 1069   3.603   4.358   0.506
  286WAT     H2 1070   3.727   4.326   0.426
  287WAT      O 1071   3.479   4.572   1.089
  287WAT     H1 1072   3.550   4.509   1.102
  287WAT     H2 1073   3.504   4.619   1.010
  288WAT      O 1074   4.376   5.071   1.065
  288WAT     H1 1075   4.398   4.979   1.050
  288WAT     H2 1076   4.447   5.104   1.120
  289WAT      O 1077   3.614   4.144   1.302
  289WAT     H1 1078   3.602   4.051   1.319
  289WAT     H2 1079   3.610   4.185   1.388
  290WAT      O 1080   4.496   4.360   1.072
  290WAT     H1 1081   4.548   4.284   1.099
  290WAT     H2 1082   4.515   4.369   0.978
  291WAT      O 1083   3.918   4.199   0.625
  291WAT     H1 1084   3.940   4.277   0.676
  291WAT     H2 1085   3.826   4.213   0.600
  292WAT      O 1086   3.677   4.380   1.150
  292WAT     H1 1087   3.758   4.400   1.196
  292WAT     H2 1088   3.644   4.300   1.192
  293WAT      O 1089   4.105   4.504   1.067
  293WAT     H1 1090   4.170   4.555   1.114
  293WAT     H2 1091   4.147   4.419   1.050
  294WAT      O 1092   3.933   3.951   1.493
  294WAT     H1 1093   3.932   4.012   1.419
  294WAT     H2 1094   3.860   3.891   1.476
  295WAT      O 1095   4.565   4.964   0.619
  295WAT     H1 1096   4.504   5.005   0.557
  295WAT     H2 1097   4.581   5.032   0.684
  296WAT      O 1098   4.062   4.928   1.310
  296WAT     H1 1099   4.023   4.987   1.374
  296WAT     H2 1100   4.080   4.982   1.233
  297WAT      O 1101   3.891   4.126   1.293
  297WAT     H1 1102   3.929   4.212   1.274
  297WAT     H2 1103   3.797   4.138   1.279
  298WAT      O 1104   3.979   5.128   1.479
  298WAT     H1 1105   4.039   5.198   1.450
  298WAT     H2 1106   3.892   5.165   1.465
  299WAT      O 1107   3.497   5.018   0.387
  299WAT     H1 1108   3.496   5.071   0.308
  299WAT     H2 1109   3.512   5.081   0.458
  300WAT      O 1110   4.252   3.873   0.915
  300WAT     H1 1111   4.283   3.815   0.845
  300WAT     H2 1112   4.161   3.891   0.892
  301WAT      O 1113   4.505   4.690   0.610
  301WAT     H1 1114   4.410   4.697   0.617
  301WAT     H2 1115   4.536   4.780   0.598
  302WAT      O 1116   4.507   4.297   0.306
  302WAT     H1 1117   4.414   4.310   0.324
  302WAT     H2 1118   4.528   4.362   0.239
  303WAT      O 1119   4.057   4.721   0.861
  303WAT     H1 1120   4.026   4.647   0.810
  303WAT     H2 1121   4.073   4.685   0.949
  304WAT      O 1122   4.103   5.080   1.089
  304WAT     H1 1123   4.072   5.047   1.005
  304WAT     H2 1124   4.198   5.088   1.078
  305WAT      O 1125   3.931   4.405   1.259
  305WAT     H1 1126   3.982   4.435   1.184
  305WAT     H2 1127   3.966   4.454   1.333
  306WAT      O 1128   4.020   5.080   1.742
  306WAT     H1 1129   3.932   5.096   1.776
  306WAT     H2 1130   4.011   5.091   1.647
  307WAT      O 1131   4.725   4.764   0.341
  307WAT     H1 1132   4.768   4.681   0.324
  307WAT     H2 1133   4.796   4.823   0.365
  308WAT      O 1134   3.899   4.770   1.608
  308WAT     H1 1135   3.876   4.863   1.617
  308WAT     H2 1136   3.816   4.727   1.587
  309WAT      O 1137   4.508   5.246   0.743
  309WAT     H1 1138   4.564   5.314   0.705
  309WAT     H2 1139   4.534   5.243   0.835
  310WAT      O 1140   4.094   5.343   1.826
  310WAT     H1 1141   4.072   5.390   1.746
  310WAT     H2 1142   4.069   5.252   1.809
  311WAT      O 1143   3.729   4.615   0.631
  311WAT     H1 1144   3.722   4.689   0.571
  311WAT     H2 1145   3.711   4.539   0.577
  312WAT      O 1146   3.483   4.930   1.212
  312WAT     H1 1147   3.473   4.942   1.117
  312WAT     H2 1148   3.557   4.869   1.220
  313WAT      O 1149   3.609   5.109   0.834
  313WAT     H1 1150   3.592   5.133   0.743
  313WAT     H2 1151   3.698   5.075   0.833
  314WAT      O 1152   3.503   5.062   1.460
  314WAT     H1 1153   3.494   5.011   1.380
  314WAT     H2 1154   3.558   5.007   1.517
  315WAT      O 1155   3.978   3.969   0.967
  315WAT     H1 1156   3.937   4.050   0.938
  315WAT     H2 1157   4.029   3.994   1.044
  316WAT      O 1158   4.397   4.241   1.521
  316WAT     H1 1159   4.339   4.263   1.595
  316WAT     H2 1160   4.358   4.162   1.484
  317WAT      O 1161   4.614   4.520   1.842
  317WAT     H1 1162   4.632   4.429   1.819
  317WAT     H2 1163   4.700   4.557   1.863
  318WAT      O 1164   4.294   3.918   0.476
  318WAT     H1 1165   4.209   3.927   0.520
  318WAT     H2 1166   4.286   3.837   0.426
  319WAT      O 1167   4.190   4.013   1.148
  319WAT     H1 1168   4.206   4.103   1.122
  319WAT     H2 1169   4.232   3.960   1.080
  320WAT      O 1170   3.953   4.472   0.746
  320WAT     H1 1171   3.918   4.434   0.827
  320WAT     H2 1172   3.878   4.518   0.708
  321WAT      O 1173   4.667   4.466   0.596
  321WAT     H1 1174   4.610   4.543   0.589
  321WAT     H2 1175   4.707   4.457   0.509
  322WAT      O 1176   4.197   4.560   1.783
  322WAT     H1 1177   4.207   4.466   1.767
  322WAT     H2 1178   4.281   4.598   1.756
  323WAT      O 1179   4.557   4.339   0.810
  323WAT     H1 1180   4.590   4.374   0.728
  323WAT     H2 1181   4.560   4.244   0.798
  324WAT      O 1182   3.641   4.185   1.600
  324WAT     H1 1183   3.635   4.277   1.625
  324WAT     H2 1184   3.687   4.143   1.673
  325WAT      O 1185   4.367   4.194   1.930
  325WAT     H1 1186   4.307   4.149   1.989
  325WAT     H2 1187   4.432   4.234   1.988
  326WAT      O 1188   3.446   3.991   1.015
  326WAT     H1 1189   3.418   4.055   1.080
  326WAT     H2 1190   3.505   3.932   1.064
  327WAT      O 1191   4.591   4.597   1.221
  327WAT     H1 1192   4.502   4.623   1.247
  327WAT     H2 1193   4.579   4.516   1.172
  328WAT      O 1194   4.241   4.263   1.042
  328WAT     H1 1195   4.246   4.230   0.952
  328WAT     H2 1196   4.328   4.297   1.061
  329WAT      O 1197   3.815   4.244   0.936
  329WAT     H1 1198   3.778   4.297   1.007
  329WAT     H2 1199   3.738   4.209   0.890
  330WAT      O 1200   4.247   4.362   0.367
  330WAT     H1 1201   4.242   4.361   0.462
  330WAT     H2 1202   4.212   4.448   0.342
  331WAT      O 1203   4.631   4.130   1.145
  331WAT     H1 1204   4.653   4.172   1.228
  331WAT     H2 1205   4.591   4.047   1.169
  332WAT      O 1206   4.145   4.598   0.259
  332WAT     H1 1207   4.097   4.557   0.187
  332WAT     H2 1208   4.219   4.641   0.217
  333WAT      O 1209   3.665   4.968   1.669
  333WAT     H1 1210   3.622   4.910   1.733
  333WAT     H2 1211   3.695   5.043   1.720
  334WAT      O 1212   4.278   4.668   1.220
  334WAT     H1 1213   4.297   4.609   1.293
  334WAT     H2 1214   4.234   4.743   1.261
  335WAT      O 1215   3.573   4.137   0.825
  335WAT     H1 1216   3.531   4.088   0.896
  335WAT     H2 1217   3.577   4.074   0.753
  336WAT      O 1218   4.048   4.562   1.460
  336WAT     H1 1219   4.023   4.648   1.494
  336WAT     H2 1220   4.144   4.563   1.463
  337WAT      O 1221   3.914   4.997   0.522
  337WAT     H1 1222   3.836   4.942   0.515
  337WAT     H2 1223   3.985   4.942   0.488
  338WAT      O 1224   4.533   4.042   0.505
  338WAT     H1 1225   4.448   3.998   0.495
  338WAT     H2 1226   4.527   4.118   0.448
  339WAT      O 1227   4.505   4.905   1.691
  339WAT     H1 1228   4.514   4.818   1.653
  339WAT     H2 1229   4.424   4.901   1.742
  340WAT      O 1230   3.907   4.967   0.900
  340WAT     H1 1231   3.954   4.892   0.863
  340WAT     H2 1232   3.869   4.933   0.981
  341WAT      O 1233   4.406   5.093   0.414
  341WAT     H1 1234   4.412   5.165   0.351
  341WAT     H2 1235   4.319   5.101   0.451
  342WAT      O 1236   3.647   4.663   1.570
  342WAT     H1 1237   3.603   4.721   1.632
  342WAT     H2 1238   3.623   4.575   1.600
  343WAT      O 1239   3.973   4.699   1.863
  343WAT     H1 1240   3.955   4.732   1.775
  343WAT     H2 1241   4.058   4.655   1.854
  344WAT      O 1242   4.507   5.173   1.653
  344WAT     H1 1243   4.507   5.077   1.656
  344WAT     H2 1244   4.442   5.199   1.718
  345WAT      O 1245   4.671   5.014   0.924
  345WAT     H1 1246   4.720   4.942   0.884
  345WAT     H2 1247   4.592   4.973   0.959
  346WAT      O 1248   4.278   5.084   0.689
  346WAT     H1 1249   4.353   5.139   0.709
  346WAT     H2 1250   4.203   5.144   0.691
  347WAT      O 1251   3.504   4.636   0.247
  347WAT     H1 1252   3.599   4.643   0.256
  347WAT     H2 1253   3.473   4.727   0.249
  348WAT      O 1254   4.243   4.803   0.657
  348WAT     H1 1255   4.265   4.895   0.674
  348WAT     H2 1256   4.189   4.778   0.732
  349WAT      O 1257   4.436   5.340   1.369
  349WAT     H1 1258   4.490   5.351   1.447
  349WAT     H2 1259   4.475   5.267   1.322
  350WAT      O 1260   3.826   3.817   0.694
  350WAT     H1 1261   3.782   3.794   0.776
  350WAT     H2 1262   3.755   3.847   0.636
  351WAT      O 1263   4.588   5.148   1.230
  351WAT     H1 1264   4.638   5.071   1.254
  351WAT     H2 1265   4.654   5.215   1.210
  352WAT      O 1266   4.751   5.237   1.549
  352WAT     H1 1267   4.793   5.272   1.627
  352WAT     H2 1268   4.664   5.209   1.579
  353WAT      O 1269   3.536   5.404   1.716
  353WAT     H1 1270   3.550   5.310   1.714
  353WAT     H2 1271   3.451   5.417   1.673
  354WAT      O 1272   4.339   5.223   1.872
  354WAT     H1 1273   4.305   5.152   1.926
  354WAT     H2 1274   4.264   5.281   1.859
  355WAT      O 1275   4.159   5.307   0.367
  355WAT     H1 1276   4.152   5.379   0.304
  355WAT     H2 1277   4.068   5.277   0.379
  356WAT      O 1278   3.699   4.841   0.450
  356WAT     H1 1279   3.629   4.902   0.429
  356WAT     H2 1280   3.735   4.815   0.365
  357WAT      O 1281   4.647   4.226   1.396
  357WAT     H1 1282   4.708   4.197   1.464
  357WAT     H2 1283   4.567   4.249   1.445
  358WAT      O 1284   4.196   4.369   0.630
  358WAT     H1 1285   4.125   4.415   0.676
  358WAT     H2 1286   4.229   4.307   0.694
  359WAT      O 1287   4.340   4.519   1.438
  359WAT     H1 1288   4.398   4.565   1.497
  359WAT     H2 1289   4.365   4.427   1.445
  360WAT      O 1290   4.600   4.053   0.771
  360WAT     H1 1291   4.573   4.044   0.679
  360WAT     H2 1292   4.695   4.062   0.767
  361WAT      O 1293   4.008   4.209   0.363
  361WAT     H1 1294   4.096   4.245   0.352
  361WAT     H2 1295   3.991   4.214   0.457
  362WAT      O 1296   3.779   4.597   0.292
  362WAT     H1 1297   3.764   4.504   0.274
  362WAT     H2 1298   3.872   4.602   0.313
  363WAT      O 1299   3.535   5.203   0.585
  363WAT     H1 1300   3.444   5.235   0.581
  363WAT     H2 1301   3.587   5.279   0.560
  364WAT      O 1302   4.654   5.113   1.917
  364WAT     H1 1303   4.595   5.122   1.843
  364WAT     H2 1304   4.611   5.048   1.974
  365WAT      O 1305   3.539   4.773   1.815
  365WAT     H1 1306   3.583   4.699   1.857
  365WAT     H2 1307   3.457   4.783   1.864
  366WAT      O 1308   4.235   4.904   1.759
  366WAT     H1 1309   4.161   4.964   1.761
  366WAT     H2 1310   4.241   4.876   1.667
  367WAT      O 1311   4.542   4.937   0.226
  367WAT     H1 1312   4.494   4.977   0.298
  367WAT     H2 1313   4.598   4.872   0.268
  368WAT      O 1314   3.727   4.574   1.894
  368WAT     H1 1315   3.722   4.554   1.987
  368WAT     H2 1316   3.814   4.614   1.883
  369WAT      O 1317   4.095   4.820   0.426
  369WAT     H1 1318   4.155   4.812   0.500
  369WAT     H2 1319   4.113   4.744   0.371
  370WAT      O 1320   3.932   4.393   1.678
  370WAT     H1 1321   3.853   4.417   1.630
  370WAT     H2 1322   3.998   4.456   1.649
  371WAT      O 1323   3.976   4.115   1.713
  371WAT     H1 1324   3.964   4.062   1.634
  371WAT     H2 1325   3.948   4.203   1.687
  372WAT      O 1326   4.254   4.000   1.411
  372WAT     H1 1327   4.221   4.006   1.322
  372WAT     H2 1328   4.183   3.956   1.459
  373WAT      O 1329   4.267   4.873   1.482
  373WAT     H1 1330   4.332   4.939   1.460
  373WAT     H2 1331   4.192   4.892   1.425
  374WAT      O 1332   4.514   4.631   1.616
  374WAT     H1 1333   4.546   4.588   1.695
  374WAT     H2 1334   4.593   4.652   1.566
  375WAT      O 1335   4.733   4.716   1.487
  375WAT     H1 1336   4.730   4.702   1.392
  375WAT     H2 1337   4.804   4.780   1.498
  376WAT      O 1338   4.220   4.291   1.728
  376WAT     H1 1339   4.270   4.261   1.804
  376WAT     H2 1340   4.137   4.243   1.734
  377WAT      O 1341   4.682   4.264   1.776
  377WAT     H1 1342   4.617   4.200   1.749
  377WAT     H2 1343   4.756   4.211   1.808
  378WAT      O 1344   4.738   3.915   0.357
  378WAT     H1 1345   4.761   3.834   0.403
  378WAT     H2 1346   4.673   3.957   0.413
  379WAT      O 1347   3.774   5.054   0.202
  379WAT     H1 1348   3.810   5.128   0.252
  379WAT     H2 1349   3.851   5.009   0.168
  380WAT      O 1350   3.498   5.338   0.956
  380WAT     H1 1351   3.532   5.260   0.912
  380WAT     H2 1352   3.571   5.369   1.010
  381WAT      O 1353   3.980   5.179   0.716
  381WAT     H1 1354   3.947   5.137   0.796
  381WAT     H2 1355   3.960   5.117   0.646
  382WAT      O 1356   3.526   4.688   0.832
  382WAT     H1 1357   3.458   4.672   0.766
  382WAT     H2 1358   3.609   4.673   0.785
  383WAT      O 1359   3.648   4.725   1.298
  383WAT     H1 1360   3.655   4.709   1.392
  383WAT     H2 1361   3.584   4.662   1.268
  384WAT      O 1362   3.593   4.429   1.708
  384WAT     H1 1363   3.509   4.412   1.752
  384WAT     H2 1364   3.647   4.469   1.776
  385WAT      O 1365   3.450   4.412   0.407
  385WAT     H1 1366   3.368   4.436   0.450
  385WAT     H2 1367   3.469   4.484   0.347
  386WAT      O 1368   3.730   4.331   0.235
  386WAT     H1 1369   3.791   4.261   0.212
  386WAT     H2 1370   3.652   4.315   0.181
  387WAT      O 1371   3.646   3.829   1.132
  387WAT     H1 1372   3.712   3.790   1.074
  387WAT     H2 1373   3.696   3.876   1.198
  388WAT      O 1374   3.614   3.884   1.423
  388WAT     H1 1375   3.612   3.894   1.518
  388WAT     H2 1376   3.627   3.790   1.409
  389WAT      O 1377   3.768   5.181   1.814
  389WAT     H1 1378   3.767   5.146   1.903
  389WAT     H2 1379   3.780   5.275   1.825
  390WAT      O 1380   4.153   5.318   1.385
  390WAT     H1 1381   4.126   5.351   1.300
  390WAT     H2 1382   4.247   5.333   1.388
  391WAT      O 1383   4.379   3.971   1.768
  391WAT     H1 1384   4.364   4.050   1.821
  391WAT     H2 1385   4.470   3.979   1.739
  392WAT      O 1386   4.650   3.975   1.716
  392WAT     H1 1387   4.686   3.953   1.630
  392WAT     H2 1388   4.697   3.917   1.776
  393WAT      O 1389   3.761   5.474   1.550
  393WAT     H1 1390   3.688   5.462   1.611
  393WAT     H2 1391   3.759   5.395   1.496
  394WAT      O 1392   4.715   3.831   1.377
  394WAT     H1 1393   4.641   3.859   1.323
  394WAT     H2 1394   4.684   3.753   1.423
  395WAT      O 1395   3.730   5.230   1.418
  395WAT     H1 1396   3.649   5.179   1.422
  395WAT     H2 1397   3.751   5.233   1.325
  396WAT      O 1398   4.095   5.413   1.130
  396WAT     H1 1399   4.131   5.373   1.051
  396WAT     H2 1400   4.127   5.503   1.128
  397WAT      O 1401   4.480   3.899   1.245
  397WAT     H1 1402   4.415   3.942   1.300
  397WAT     H2 1403   4.436   3.821   1.212
  398WAT      O 1404   3.619   3.935   0.494
  398WAT     H1 1405   3.697   3.957   0.444
  398WAT     H2 1406   3.556   4.004   0.472
  399WAT      O 1407   4.255   4.143   0.793
  399WAT     H1 1408   4.194   4.089   0.744
  399WAT     H2 1409   4.329   4.085   0.813
  400WAT      O 1410   4.719   3.810   0.903
  400WAT     H1 1411   4.768   3.846   0.977
  400WAT     H2 1412   4.651   3.876   0.885
  401WAT      O 1413   3.695   5.412   0.498
  401WAT     H1 1414   3.670   5.464   0.422
  401WAT     H2 1415   3.721   5.476   0.564
  402WAT      O 1416   3.845   3.985   0.353
  402WAT     H1 1417   3.899   3.906   0.358
  402WAT     H2 1418   3.908   4.057   0.347
  403WAT      O 1419   4.071   3.972   0.652
  403WAT     H1 1420   4.006   3.904   0.668
  403WAT     H2 1421   4.019   4.051   0.636
  404WAT      O 1422   4.067   3.887   1.891
  404WAT     H1 1423   4.063   3.945   1.815
  404WAT     H2 1424   4.128   3.817   1.864
  405WAT      O 1425   3.889   5.232   0.386
  405WAT     H1 1426   3.829   5.286   0.437
  405WAT     H2 1427   3.900   5.153   0.439
  406WAT      O 1428   4.621   2.767   4.618
  406WAT     H1 1429   4.628   2.672   4.617
  406WAT     H2 1430   4.582   2.789   4.533
  407WAT      O 1431   4.453   2.933   4.799
  407WAT     H1 1432   4.390   2.879   4.847
  407WAT     H2 1433   4.521   2.872   4.771
  408WAT      O 1434   3.844   2.974   4.897
  408WAT     H1 1435   3.777   2.925   4.945
  408WAT     H2 1436   3.918   2.977   4.957
  409WAT      O 1437   3.862   3.361   4.931
  409WAT     H1 1438   3.903   3.283   4.894
  409WAT     H2 1439   3.920   3.433   4.906
  410WAT      O 1440   3.698   2.449   4.271
  410WAT     H1 1441   3.606   2.474   4.267
  410WAT     H2 1442   3.723   2.435   4.180
  411WAT      O 1443   3.478   2.692   4.845
  411WAT     H1 1444   3.549   2.629   4.859
  411WAT     H2 1445   3.504   2.740   4.767
  412WAT      O 1446   4.471   3.600   4.665
  412WAT     H1 1447   4.408   3.631   4.600
  412WAT     H2 1448   4.555   3.637   4.636
  413WAT      O 1449   4.375   3.192   4.822
  413WAT     H1 1450   4.397   3.100   4.806
  413WAT     H2 1451   4.447   3.226   4.875
  414WAT      O 1452   3.610   2.269   5.052
  414WAT     H1 1453   3.607   2.178   5.081
  414WAT     H2 1454   3.546   2.314   5.107
  415WAT      O 1455   4.497   2.482   4.827
  415WAT     H1 1456   4.548   2.406   4.854
  415WAT     H2 1457   4.515   2.491   4.733
  416WAT      O 1458   3.917   2.321   4.382
  416WAT     H1 1459   3.942   2.395   4.436
  416WAT     H2 1460   3.829   2.341   4.352
  417WAT      O 1461   3.675   2.501   4.909
  417WAT     H1 1462   3.758   2.523   4.952
  417WAT     H2 1463   3.647   2.421   4.952
  418WAT      O 1464   4.105   2.627   4.821
  418WAT     H1 1465   4.170   2.678   4.870
  418WAT     H2 1466   4.147   2.542   4.806
  419WAT      O 1467   3.927   2.065   5.240
  419WAT     H1 1468   3.931   2.130   5.170
  419WAT     H2 1469   3.841   2.024   5.229
  420WAT      O 1470   4.566   3.088   4.376
  420WAT     H1 1471   4.506   3.126   4.312
  420WAT     H2 1472   4.582   3.158   4.439
  421WAT      O 1473   4.063   3.053   5.063
  421WAT     H1 1474   4.021   3.110   5.127
  421WAT     H2 1475   4.079   3.110   4.988
  422WAT      O 1476   3.890   2.250   5.044
  422WAT     H1 1477   3.925   2.338   5.029
  422WAT     H2 1478   3.795   2.262   5.044
  423WAT      O 1479   3.978   3.253   5.235
  423WAT     H1 1480   4.036   3.323   5.204
  423WAT     H2 1481   3.890   3.285   5.217
  424WAT      O 1482   3.507   3.144   4.140
  424WAT     H1 1483   3.472   3.192   4.065
  424WAT     H2 1484   3.520   3.211   4.207
  425WAT      O 1485   4.255   1.998   4.667
  425WAT     H1 1486   4.282   1.939   4.596
  425WAT     H2 1487   4.162   2.013   4.650
  426WAT      O 1488   4.508   2.813   4.364
  426WAT     H1 1489   4.412   2.817   4.368
  426WAT     H2 1490   4.534   2.905   4.356
  427WAT      O 1491   4.498   2.425   4.025
  427WAT     H1 1492   4.412   2.438   4.064
  427WAT     H2 1493   4.530   2.514   4.009
  428WAT      O 1494   4.057   2.843   4.616
  428WAT     H1 1495   4.026   2.769   4.565
  428WAT     H2 1496   4.075   2.807   4.703
  429WAT      O 1497   4.104   3.211   4.842
  429WAT     H1 1498   4.072   3.170   4.762
  429WAT     H2 1499   4.199   3.212   4.832
  430WAT      O 1500   3.930   2.530   5.012
  430WAT     H1 1501   3.982   2.559   4.937
  430WAT     H2 1502   3.965   2.578   5.086
  431WAT      O 1503   4.028   3.208   5.499
  431WAT     H1 1504   3.941   3.209   5.539
  431WAT     H2 1505   4.011   3.216   5.405
  432WAT      O 1506   4.730   2.894   4.085
  432WAT     H1 1507   4.767   2.806   4.085
  432WAT     H2 1508   4.799   2.949   4.124
  433WAT      O 1509   3.903   2.889   5.355
  433WAT     H1 1510   3.879   2.980   5.373
  433WAT     H2 1511   3.820   2.845   5.336
  434WAT      O 1512   4.518   3.364   4.492
  434WAT     H1 1513   4.569   3.435   4.453
  434WAT     H2 1514   4.506   3.391   4.583
  435WAT      O 1515   4.072   3.481   5.582
  435WAT     H1 1516   4.082   3.528   5.500
  435WAT     H2 1517   4.078   3.388   5.557
  436WAT      O 1518   3.728   2.740   4.383
  436WAT     H1 1519   3.724   2.814   4.324
  436WAT     H2 1520   3.708   2.664   4.328
  437WAT      O 1521   3.482   3.053   4.967
  437WAT     H1 1522   3.473   3.067   4.873
  437WAT     H2 1523   3.556   2.992   4.975
  438WAT      O 1524   3.608   3.231   4.590
  438WAT     H1 1525   3.589   3.259   4.501
  438WAT     H2 1526   3.698   3.198   4.587
  439WAT      O 1527   4.595   3.643   5.295
  439WAT     H1 1528   4.627   3.614   5.380
  439WAT     H2 1529   4.509   3.680   5.312
  440WAT      O 1530   4.773   3.674   4.237
  440WAT     H1 1531   4.760   3.643   4.327
  440WAT     H2 1532   4.796   3.596   4.188
  441WAT      O 1533   4.037   3.639   4.395
  441WAT     H1 1534   4.012   3.548   4.408
  441WAT     H2 1535   3.960   3.689   4.422
  442WAT      O 1536   4.733   3.587   4.498
  442WAT     H1 1537   4.781   3.523   4.551
  442WAT     H2 1538   4.740   3.668   4.548
  443WAT      O 1539   3.501   3.180   5.217
  443WAT     H1 1540   3.492   3.137   5.132
  443WAT     H2 1541   3.562   3.124   5.266
  444WAT      O 1542   3.980   2.090   4.720
  444WAT     H1 1543   3.937   2.172   4.694
  444WAT     H2 1544   4.028   2.113   4.799
  445WAT      O 1545   4.394   2.365   5.277
  445WAT     H1 1546   4.338   2.384   5.352
  445WAT     H2 1547   4.359   2.283   5.242
  446WAT      O 1548   4.618   2.640   5.585
  446WAT     H1 1549   4.638   2.548   5.567
  446WAT     H2 1550   4.697   2.674   5.627
  447WAT      O 1551   4.279   2.044   4.200
  447WAT     H1 1552   4.210   2.043   4.266
  447WAT     H2 1553   4.299   1.952   4.184
  448WAT      O 1554   4.188   2.135   4.901
  448WAT     H1 1555   4.203   2.226   4.878
  448WAT     H2 1556   4.234   2.085   4.834
  449WAT      O 1557   3.953   2.595   4.502
  449WAT     H1 1558   3.917   2.555   4.582
  449WAT     H2 1559   3.878   2.640   4.462
  450WAT      O 1560   4.659   2.583   4.344
  450WAT     H1 1561   4.607   2.663   4.341
  450WAT     H2 1562   4.720   2.591   4.270
  451WAT      O 1563   4.199   2.680   5.550
  451WAT     H1 1564   4.203   2.587   5.525
  451WAT     H2 1565   4.284   2.715   5.524
  452WAT      O 1566   4.558   2.462   4.565
  452WAT     H1 1567   4.589   2.496   4.481
  452WAT     H2 1568   4.560   2.367   4.555
  453WAT      O 1569   3.721   2.325   5.370
  453WAT     H1 1570   3.671   2.405   5.387
  453WAT     H2 1571   3.656   2.255   5.372
  454WAT      O 1572   3.445   2.110   4.772
  454WAT     H1 1573   3.419   2.176   4.836
  454WAT     H2 1574   3.508   2.055   4.818
  455WAT      O 1575   3.474   2.515   3.870
  455WAT     H1 1576   3.481   2.604   3.906
  455WAT     H2 1577   3.387   2.512   3.830
  456WAT      O 1578   4.590   2.722   4.971
  456WAT     H1 1579   4.504   2.742   5.009
  456WAT     H2 1580   4.577   2.639   4.925
  457WAT      O 1581   4.241   2.386   4.796
  457WAT     H1 1582   4.247   2.353   4.707
  457WAT     H2 1583   4.328   2.419   4.816
  458WAT      O 1584   3.815   2.370   4.687
  458WAT     H1 1585   3.782   2.416   4.764
  458WAT     H2 1586   3.737   2.335   4.645
  459WAT      O 1587   4.253   2.486   4.124
  459WAT     H1 1588   4.241   2.489   4.219
  459WAT     H2 1589   4.215   2.568   4.093
  460WAT      O 1590   4.631   2.252   4.900
  460WAT     H1 1591   4.652   2.294   4.983
  460WAT     H2 1592   4.589   2.170   4.924
  461WAT      O 1593   4.145   2.722   4.020
  461WAT     H1 1594   4.099   2.667   3.956
  461WAT     H2 1595   4.219   2.758   3.971
  462WAT      O 1596   3.670   3.091   5.431
  462WAT     H1 1597   3.627   3.025   5.485
  462WAT     H2 1598   3.676   3.168   5.487
  463WAT      O 1599   4.276   2.792   4.975
  463WAT     H1 1600   4.297   2.731   5.046
  463WAT     H2 1601   4.234   2.866   5.018
  464WAT      O 1602   3.569   2.259   4.582
  464WAT     H1 1603   3.529   2.213   4.656
  464WAT     H2 1604   3.581   2.192   4.515
  465WAT      O 1605   4.050   2.685   5.210
  465WAT     H1 1606   4.022   2.768   5.250
  465WAT     H2 1607   4.146   2.687   5.217
  466WAT      O 1608   3.918   3.119   4.278
  466WAT     H1 1609   3.840   3.065   4.268
  466WAT     H2 1610   3.989   3.065   4.242
  467WAT      O 1611   4.525   2.158   4.260
  467WAT     H1 1612   4.441   2.116   4.242
  467WAT     H2 1613   4.524   2.238   4.207
  468WAT      O 1614   4.515   3.026   5.442
  468WAT     H1 1615   4.521   2.937   5.407
  468WAT     H2 1616   4.432   3.026   5.490
  469WAT      O 1617   3.911   3.091   4.655
  469WAT     H1 1618   3.956   3.016   4.618
  469WAT     H2 1619   3.871   3.057   4.735
  470WAT      O 1620   4.415   3.211   4.167
  470WAT     H1 1621   4.435   3.292   4.119
  470WAT     H2 1622   4.329   3.227   4.205
  471WAT      O 1623   3.646   2.789   5.320
  471WAT     H1 1624   3.603   2.841   5.388
  471WAT     H2 1625   3.636   2.698   5.349
  472WAT      O 1626   3.970   2.822   5.619
  472WAT     H1 1627   3.948   2.838   5.527
  472WAT     H2 1628   4.053   2.772   5.615
  473WAT      O 1629   4.515   3.294   5.406
  473WAT     H1 1630   4.523   3.198   5.413
  473WAT     H2 1631   4.440   3.316   5.462
  474WAT      O 1632   4.680   3.133   4.687
  474WAT     H1 1633   4.720   3.060   4.638
  474WAT     H2 1634   4.594   3.100   4.713
  475WAT      O 1635   4.280   3.207   4.440
  475WAT     H1 1636   4.358   3.259   4.462
  475WAT     H2 1637   4.208   3.270   4.446
  476WAT      O 1638   3.492   2.759   3.985
  476WAT     H1 1639   3.580   2.784   4.013
  476WAT     H2 1640   3.453   2.841   3.955
  477WAT      O 1641   4.240   2.929   4.410
  477WAT     H1 1642   4.264   3.019   4.429
  477WAT     H2 1643   4.188   2.901   4.485
  478WAT      O 1644   4.439   3.468   5.115
  478WAT     H1 1645   4.496   3.505   5.182
  478WAT     H2 1646   4.483   3.388   5.087
  479WAT      O 1647   3.828   1.938   4.450
  479WAT     H1 1648   3.789   1.918   4.534
  479WAT     H2 1649   3.754   1.966   4.395
  480WAT      O 1650   4.589   3.270   4.987
  480WAT     H1 1651   4.640   3.192   5.009
  480WAT     H2 1652   4.654   3.334   4.960
  481WAT      O 1653   4.762   3.344   5.303
  481WAT     H1 1654   4.796   3.399   5.373
  481WAT     H2 1655   4.672   3.323   5.330
  482WAT      O 1656   3.566   3.716   4.034
  482WAT     H1 1657   3.598   3.790   3.982
  482WAT     H2 1658   3.536   3.756   4.116
  483WAT      O 1659   3.524   2.130   5.390
  483WAT     H1 1660   3.442   2.136   5.440
  483WAT     H2 1661   3.575   2.063   5.436
  484WAT      O 1662   3.552   3.525   5.461
  484WAT     H1 1663   3.536   3.432   5.477
  484WAT     H2 1664   3.466   3.560   5.436
  485WAT      O 1665   4.162   3.424   4.119
  485WAT     H1 1666   4.156   3.502   4.063
  485WAT     H2 1667   4.072   3.394   4.128
  486WAT      O 1668   3.706   2.962   4.196
  486WAT     H1 1669   3.635   3.022   4.174
  486WAT     H2 1670   3.750   2.945   4.113
  487WAT      O 1671   4.646   2.349   5.151
  487WAT     H1 1672   4.706   2.320   5.219
  487WAT     H2 1673   4.566   2.372   5.198
  488WAT      O 1674   4.427   3.440   4.003
  488WAT     H1 1675   4.448   3.408   3.915
  488WAT     H2 1676   4.334   3.422   4.013
  489WAT      O 1677   4.195   2.492   4.385
  489WAT     H1 1678   4.125   2.538   4.431
  489WAT     H2 1679   4.228   2.430   4.450
  490WAT      O 1680   4.342   2.640   5.190
  490WAT     H1 1681   4.399   2.687   5.251
  490WAT     H2 1682   4.364   2.548   5.202
  491WAT      O 1683   4.599   2.178   4.525
  491WAT     H1 1684   4.572   2.165   4.434
  491WAT     H2 1685   4.695   2.181   4.522
  492WAT      O 1686   4.304   3.693   4.457
  492WAT     H1 1687   4.347   3.685   4.371
  492WAT     H2 1688   4.212   3.674   4.439
  493WAT      O 1689   4.012   2.325   4.121
  493WAT     H1 1690   4.099   2.363   4.106
  493WAT     H2 1691   3.995   2.341   4.214
  494WAT      O 1692   3.901   2.958   3.976
  494WAT     H1 1693   3.981   2.956   4.030
  494WAT     H2 1694   3.926   2.912   3.896
  495WAT      O 1695   3.770   2.698   4.049
  495WAT     H1 1696   3.770   2.602   4.043
  495WAT     H2 1697   3.862   2.722   4.053
  496WAT      O 1698   3.863   3.725   4.758
  496WAT     H1 1699   3.930   3.665   4.790
  496WAT     H2 1700   3.912   3.806   4.739
  497WAT      O 1701   3.535   3.329   4.342
  497WAT     H1 1702   3.445   3.362   4.339
  497WAT     H2 1703   3.588   3.404   4.316
  498WAT      O 1704   4.152   3.622   3.934
  498WAT     H1 1705   4.228   3.671   3.903
  498WAT     H2 1706   4.123   3.572   3.858
  499WAT      O 1707   3.542   2.894   5.569
  499WAT     H1 1708   3.586   2.836   5.631
  499WAT     H2 1709   3.450   2.891   5.595
  500WAT      O 1710   4.225   3.149   3.900
  500WAT     H1 1711   4.214   3.103   3.984
  500WAT     H2 1712   4.223   3.080   3.834
  501WAT      O 1713   4.252   3.032   5.509
  501WAT     H1 1714   4.171   3.080   5.525
  501WAT     H2 1715   4.242   2.998   5.419
  502WAT      O 1716   4.533   3.049   3.974
  502WAT     H1 1717   4.493   3.100   4.045
  502WAT     H2 1718   4.600   2.997   4.018
  503WAT      O 1719   4.110   2.947   4.167
  503WAT     H1 1720   4.160   2.943   4.249
  503WAT     H2 1721   4.127   2.864   4.124
  504WAT      O 1722   3.901   2.550   5.436
  504WAT     H1 1723   3.874   2.492   5.365
  504WAT     H2 1724   3.977   2.597   5.401
  505WAT      O 1725   4.367   2.838   3.910
  505WAT     H1 1726   4.419   2.791   3.845
  505WAT     H2 1727   4.418   2.917   3.929
  506WAT      O 1728   3.990   2.241   5.449
  506WAT     H1 1729   3.974   2.178   5.379
  506WAT     H2 1730   3.910   2.293   5.453
  507WAT      O 1731   4.259   2.119   5.163
  507WAT     H1 1732   4.219   2.124   5.076
  507WAT     H2 1733   4.190   2.083   5.219
  508WAT      O 1734   4.267   2.991   5.231
  508WAT     H1 1735   4.331   3.060   5.214
  508WAT     H2 1736   4.193   3.014   5.175
  509WAT      O 1737   4.516   2.753   5.365
  509WAT     H1 1738   4.545   2.712   5.447
  509WAT     H2 1739   4.597   2.773   5.318
  510WAT      O 1740   4.738   2.836   5.240
  510WAT     H1 1741   4.732   2.828   5.145
  510WAT     H2 1742   4.801   2.906   5.255
  511WAT      O 1743   3.999   2.549   3.866
  511WAT     H1 1744   3.970   2.461   3.891
  511WAT     H2 1745   3.979   2.555   3.773
  512WAT      O 1746   4.094   3.637   5.340
  512WAT     H1 1747   4.013   3.682   5.315
  512WAT     H2 1748   4.109   3.575   5.269
  513WAT      O 1749   4.214   2.408   5.490
  513WAT     H1 1750   4.243   2.372   5.574
  513WAT     H2 1751   4.133   2.361   5.470
  514WAT      O 1752   4.683   2.382   5.532
  514WAT     H1 1753   4.625   2.314   5.498
  514WAT     H2 1754   4.762   2.335   5.560
  515WAT      O 1755   4.732   2.035   4.106
  515WAT     H1 1756   4.763   1.958   4.153
  515WAT     H2 1757   4.670   2.077   4.167
  516WAT      O 1758   3.892   2.283   3.850
  516WAT     H1 1759   3.926   2.255   3.765
  516WAT     H2 1760   3.953   2.246   3.914
  517WAT      O 1761   4.358   3.741   5.367
  517WAT     H1 1762   4.350   3.830   5.402
  517WAT     H2 1763   4.267   3.710   5.361
  518WAT      O 1764   4.208   2.165   3.956
  518WAT     H1 1765   4.159   2.097   3.909
  518WAT     H2 1766   4.227   2.126   4.041
  519WAT      O 1767   4.419   3.678   4.153
  519WAT     H1 1768   4.507   3.714   4.137
  519WAT     H2 1769   4.416   3.597   4.102
  520WAT      O 1770   3.792   3.204   3.927
  520WAT     H1 1771   3.826   3.257   4.000
  520WAT     H2 1772   3.826   3.117   3.944
  521WAT      O 1773   3.504   3.477   4.700
  521WAT     H1 1774   3.544   3.394   4.676
  521WAT     H2 1775   3.537   3.496   4.787
  522WAT      O 1776   3.980   3.314   4.466
  522WAT     H1 1777   3.949   3.274   4.548
  522WAT     H2 1778   3.962   3.248   4.399
  523WAT      O 1779   3.550   3.569   4.958
  523WAT     H1 1780   3.506   3.583   5.043
  523WAT     H2 1781   3.588   3.654   4.937
  524WAT      O 1782   3.526   2.810   4.587
  524WAT     H1 1783   3.459   2.794   4.520
  524WAT     H2 1784   3.609   2.796   4.542
  525WAT      O 1785   3.649   2.849   5.050
  525WAT     H1 1786   3.658   2.832   5.144
  525WAT     H2 1787   3.588   2.782   5.019
  526WAT      O 1788   3.583   2.551   5.445
  526WAT     H1 1789   3.499   2.530   5.486
  526WAT     H2 1790   3.644   2.555   5.519
  527WAT      O 1791   3.456   2.539   4.190
  527WAT     H1 1792   3.368   2.570   4.210
  527WAT     H2 1793   3.482   2.588   4.112
  528WAT      O 1794   3.716   2.435   3.997
  528WAT     H1 1795   3.772   2.378   3.945
  528WAT     H2 1796   3.636   2.445   3.946
  529WAT      O 1797   3.667   2.036   3.888
  529WAT     H1 1798   3.734   2.083   3.938
  529WAT     H2 1799   3.701   2.035   3.798
  530WAT      O 1800   3.644   1.954   4.884
  530WAT     H1 1801   3.718   1.919   4.834
  530WAT     H2 1802   3.683   1.985   4.966
  531WAT      O 1803   3.622   2.005   5.166
  531WAT     H1 1804   3.584   2.048   5.243
  531WAT     H2 1805   3.589   1.915   5.172
  532WAT      O 1806   4.150   3.458   5.136
  532WAT     H1 1807   4.125   3.483   5.047
  532WAT     H2 1808   4.246   3.459   5.134
  533WAT      O 1809   4.375   2.107   5.496
  533WAT     H1 1810   4.351   2.130   5.585
  533WAT     H2 1811   4.470   2.113   5.494
  534WAT      O 1812   4.654   2.100   5.476
  534WAT     H1 1813   4.680   2.078   5.386
  534WAT     H2 1814   4.688   2.029   5.530
  535WAT      O 1815   3.685   1.935   5.481
  535WAT     H1 1816   3.741   1.901   5.411
  535WAT     H2 1817   3.681   1.864   5.545
  536WAT      O 1818   3.761   3.604   5.297
  536WAT     H1 1819   3.691   3.582   5.358
  536WAT     H2 1820   3.767   3.528   5.239
  537WAT      O 1821   4.715   1.951   5.130
  537WAT     H1 1822   4.640   1.981   5.078
  537WAT     H2 1823   4.682   1.875   5.178
  538WAT      O 1824   3.729   3.352   5.173
  538WAT     H1 1825   3.644   3.308   5.176
  538WAT     H2 1826   3.749   3.360   5.080
  539WAT      O 1827   4.094   3.557   4.868
  539WAT     H1 1828   4.133   3.497   4.805
  539WAT     H2 1829   4.164   3.619   4.888
  540WAT      O 1830   4.359   3.651   4.923
  540WAT     H1 1831   4.406   3.628   4.842
  540WAT     H2 1832   4.394   3.590   4.988
  541WAT      O 1833   4.479   2.022   5.001
  541WAT     H1 1834   4.415   2.064   5.057
  541WAT     H2 1835   4.434   1.944   4.968
  542WAT      O 1836   3.565   3.662   4.490
  542WAT     H1 1837   3.547   3.607   4.566
  542WAT     H2 1838   3.479   3.684   4.455
  543WAT      O 1839   3.629   2.052   4.250
  543WAT     H1 1840   3.707   2.065   4.196
  543WAT     H2 1841   3.579   2.133   4.239
  544WAT      O 1842   4.257   2.266   4.547
  544WAT     H1 1843   4.194   2.212   4.500
  544WAT     H2 1844   4.326   2.205   4.572
  545WAT      O 1845   4.719   1.933   4.658
  545WAT     H1 1846   4.768   1.967   4.733
  545WAT     H2 1847   4.650   1.998   4.643
  546WAT      O 1848   3.697   3.537   4.252
  546WAT     H1 1849   3.669   3.589   4.177
  546WAT     H2 1850   3.688   3.596   4.327
  547WAT      O 1851   3.850   2.102   4.101
  547WAT     H1 1852   3.906   2.025   4.111
  547WAT     H2 1853   3.910   2.176   4.112
  548WAT      O 1854   4.073   2.093   4.404
  548WAT     H1 1855   4.008   2.026   4.424
  548WAT     H2 1856   4.022   2.173   4.389
  549WAT      O 1857   4.104   2.021   5.650
  549WAT     H1 1858   4.060   2.075   5.584
  549WAT     H2 1859   4.109   1.934   5.611
  550WAT      O 1860   3.995   3.750   4.129
  550WAT     H1 1861   4.050   3.706   4.065
  550WAT     H2 1862   4.014   3.705   4.212
  551WAT      O 1863   3.890   3.355   4.142
  551WAT     H1 1864   3.827   3.412   4.188
  551WAT     H2 1865   3.897   3.278   4.198
  552WAT      O 1866   4.618   2.767   2.742
  552WAT     H1 1867   4.628   2.672   2.740
  552WAT     H2 1868   4.582   2.789   2.656
  553WAT      O 1869   4.454   2.933   2.922
  553WAT     H1 1870   4.391   2.878   2.968
  553WAT     H2 1871   4.521   2.871   2.890
  554WAT      O 1872   3.846   2.975   3.018
  554WAT     H1 1873   3.775   2.929   3.064
  554WAT     H2 1874   3.919   2.974   3.080
  555WAT      O 1875   3.883   3.360   3.091
  555WAT     H1 1876   3.880   3.285   3.032
  555WAT     H2 1877   3.925   3.429   3.039
  556WAT      O 1878   3.702   2.460   2.394
  556WAT     H1 1879   3.609   2.481   2.389
  556WAT     H2 1880   3.727   2.439   2.304
  557WAT      O 1881   3.481   2.695   2.979
  557WAT     H1 1882   3.549   2.628   2.988
  557WAT     H2 1883   3.505   2.742   2.899
  558WAT      O 1884   4.471   3.602   2.789
  558WAT     H1 1885   4.409   3.631   2.722
  558WAT     H2 1886   4.555   3.636   2.760
  559WAT      O 1887   4.378   3.192   2.942
  559WAT     H1 1888   4.400   3.100   2.928
  559WAT     H2 1889   4.449   3.226   2.997
  560WAT      O 1890   3.613   2.268   3.174
  560WAT     H1 1891   3.605   2.177   3.204
  560WAT     H2 1892   3.548   2.316   3.225
  561WAT      O 1893   4.497   2.483   2.950
  561WAT     H1 1894   4.547   2.407   2.977
  561WAT     H2 1895   4.515   2.492   2.856
  562WAT      O 1896   3.918   2.320   2.505
  562WAT     H1 1897   3.941   2.395   2.558
  562WAT     H2 1898   3.828   2.337   2.476
  563WAT      O 1899   3.675   2.501   3.032
  563WAT     H1 1900   3.758   2.523   3.075
  563WAT     H2 1901   3.647   2.420   3.075
  564WAT      O 1902   4.106   2.627   2.944
  564WAT     H1 1903   4.172   2.677   2.992
  564WAT     H2 1904   4.147   2.542   2.928
  565WAT      O 1905   3.930   2.067   3.365
  565WAT     H1 1906   3.933   2.132   3.295
  565WAT     H2 1907   3.845   2.023   3.354
  566WAT      O 1908   4.565   3.088   2.499
  566WAT     H1 1909   4.506   3.126   2.435
  566WAT     H2 1910   4.582   3.159   2.562
  567WAT      O 1911   4.067   3.052   3.186
  567WAT     H1 1912   4.023   3.109   3.249
  567WAT     H2 1913   4.081   3.107   3.109
  568WAT      O 1914   3.891   2.251   3.168
  568WAT     H1 1915   3.924   2.339   3.152
  568WAT     H2 1916   3.796   2.260   3.167
  569WAT      O 1917   3.976   3.258   3.353
  569WAT     H1 1918   4.040   3.322   3.323
  569WAT     H2 1919   3.896   3.280   3.304
  570WAT      O 1920   4.254   1.998   2.790
  570WAT     H1 1921   4.282   1.939   2.720
  570WAT     H2 1922   4.162   2.014   2.773
  571WAT      O 1923   4.508   2.813   2.487
  571WAT     H1 1924   4.412   2.816   2.490
  571WAT     H2 1925   4.534   2.905   2.479
  572WAT      O 1926   4.498   2.425   2.149
  572WAT     H1 1927   4.412   2.438   2.187
  572WAT     H2 1928   4.530   2.514   2.131
  573WAT      O 1929   4.057   2.843   2.739
  573WAT     H1 1930   4.026   2.769   2.688
  573WAT     H2 1931   4.074   2.807   2.826
  574WAT      O 1932   4.108   3.207   2.964
  574WAT     H1 1933   4.074   3.169   2.883
  574WAT     H2 1934   4.203   3.209   2.951
  575WAT      O 1935   3.930   2.529   3.135
  575WAT     H1 1936   3.982   2.560   3.060
  575WAT     H2 1937   3.966   2.577   3.210
  576WAT      O 1938   4.020   3.202   3.617
  576WAT     H1 1939   3.936   3.227   3.655
  576WAT     H2 1940   4.009   3.216   3.523
  577WAT      O 1941   4.730   2.894   2.208
  577WAT     H1 1942   4.767   2.806   2.206
  577WAT     H2 1943   4.800   2.949   2.245
  578WAT      O 1944   3.909   2.891   3.481
  578WAT     H1 1945   3.890   2.983   3.500
  578WAT     H2 1946   3.823   2.853   3.460
  579WAT      O 1947   4.518   3.365   2.615
  579WAT     H1 1948   4.570   3.435   2.576
  579WAT     H2 1949   4.506   3.391   2.706
  580WAT      O 1950   4.093   3.479   3.706
  580WAT     H1 1951   4.085   3.527   3.623
  580WAT     H2 1952   4.062   3.391   3.685
  581WAT      O 1953   3.727   2.738   2.506
  581WAT     H1 1954   3.723   2.810   2.442
  581WAT     H2 1955   3.711   2.659   2.454
  582WAT      O 1956   3.501   3.074   3.094
  582WAT     H1 1957   3.495   3.077   2.999
  582WAT     H2 1958   3.558   2.999   3.111
  583WAT      O 1959   3.631   3.250   2.715
  583WAT     H1 1960   3.576   3.217   2.643
  583WAT     H2 1961   3.705   3.190   2.718
  584WAT      O 1962   4.596   3.642   3.414
  584WAT     H1 1963   4.628   3.610   3.499
  584WAT     H2 1964   4.510   3.679   3.434
  585WAT      O 1965   4.773   3.675   2.360
  585WAT     H1 1966   4.759   3.643   2.449
  585WAT     H2 1967   4.797   3.597   2.310
  586WAT      O 1968   4.039   3.637   2.519
  586WAT     H1 1969   4.018   3.544   2.529
  586WAT     H2 1970   3.959   3.682   2.546
  587WAT      O 1971   4.732   3.586   2.621
  587WAT     H1 1972   4.782   3.523   2.672
  587WAT     H2 1973   4.740   3.668   2.670
  588WAT      O 1974   3.981   2.090   2.843
  588WAT     H1 1975   3.936   2.171   2.816
  588WAT     H2 1976   4.027   2.115   2.923
  589WAT      O 1977   4.395   2.364   3.399
  589WAT     H1 1978   4.338   2.386   3.472
  589WAT     H2 1979   4.357   2.285   3.362
  590WAT      O 1980   4.615   2.643   3.719
  590WAT     H1 1981   4.632   2.551   3.696
  590WAT     H2 1982   4.700   2.679   3.741
  591WAT      O 1983   4.279   2.044   2.322
  591WAT     H1 1984   4.210   2.042   2.388
  591WAT     H2 1985   4.299   1.952   2.306
  592WAT      O 1986   4.191   2.135   3.025
  592WAT     H1 1987   4.205   2.226   3.000
  592WAT     H2 1988   4.234   2.084   2.957
  593WAT      O 1989   3.953   2.595   2.626
  593WAT     H1 1990   3.918   2.554   2.705
  593WAT     H2 1991   3.878   2.639   2.586
  594WAT      O 1992   4.660   2.583   2.468
  594WAT     H1 1993   4.607   2.663   2.464
  594WAT     H2 1994   4.720   2.590   2.393
  595WAT      O 1995   4.201   2.684   3.666
  595WAT     H1 1996   4.202   2.590   3.647
  595WAT     H2 1997   4.285   2.716   3.632
  596WAT      O 1998   4.558   2.462   2.688
  596WAT     H1 1999   4.589   2.496   2.604
  596WAT     H2 2000   4.560   2.367   2.678
  597WAT      O 2001   3.725   2.331   3.499
  597WAT     H1 2002   3.672   2.407   3.521
  597WAT     H2 2003   3.662   2.259   3.493
  598WAT      O 2004   4.367   2.317   3.807
  598WAT     H1 2005   4.306   2.272   3.866
  598WAT     H2 2006   4.432   2.356   3.865
  599WAT      O 2007   3.445   2.110   2.893
  599WAT     H1 2008   3.416   2.176   2.956
  599WAT     H2 2009   3.507   2.056   2.942
  600WAT      O 2010   3.475   2.519   2.004
  600WAT     H1 2011   3.468   2.613   2.020
  600WAT     H2 2012   3.408   2.502   1.937
  601WAT      O 2013   4.590   2.721   3.097
  601WAT     H1 2014   4.502   2.744   3.126
  601WAT     H2 2015   4.579   2.639   3.049
  602WAT      O 2016   4.241   2.386   2.919
  602WAT     H1 2017   4.247   2.353   2.829
  602WAT     H2 2018   4.328   2.419   2.938
  603WAT      O 2019   3.815   2.370   2.810
  603WAT     H1 2020   3.781   2.417   2.886
  603WAT     H2 2021   3.737   2.334   2.767
  604WAT      O 2022   4.252   2.486   2.246
  604WAT     H1 2023   4.241   2.489   2.341
  604WAT     H2 2024   4.214   2.569   2.215
  605WAT      O 2025   4.631   2.253   3.023
  605WAT     H1 2026   4.652   2.295   3.106
  605WAT     H2 2027   4.591   2.170   3.047
  606WAT      O 2028   4.144   2.722   2.142
  606WAT     H1 2029   4.097   2.668   2.078
  606WAT     H2 2030   4.218   2.757   2.093
  607WAT      O 2031   4.278   2.791   3.097
  607WAT     H1 2032   4.298   2.732   3.170
  607WAT     H2 2033   4.232   2.865   3.138
  608WAT      O 2034   3.572   2.258   2.705
  608WAT     H1 2035   3.531   2.211   2.777
  608WAT     H2 2036   3.577   2.195   2.633
  609WAT      O 2037   4.050   2.683   3.338
  609WAT     H1 2038   4.025   2.768   3.374
  609WAT     H2 2039   4.146   2.683   3.341
  610WAT      O 2040   3.919   3.117   2.402
  610WAT     H1 2041   3.844   3.058   2.396
  610WAT     H2 2042   3.992   3.067   2.365
  611WAT      O 2043   4.525   2.158   2.382
  611WAT     H1 2044   4.441   2.117   2.365
  611WAT     H2 2045   4.524   2.238   2.329
  612WAT      O 2046   4.506   3.028   3.570
  612WAT     H1 2047   4.516   2.941   3.532
  612WAT     H2 2048   4.424   3.024   3.619
  613WAT      O 2049   3.908   3.089   2.776
  613WAT     H1 2050   3.956   3.014   2.740
  613WAT     H2 2051   3.871   3.056   2.857
  614WAT      O 2052   4.415   3.212   2.289
  614WAT     H1 2053   4.435   3.292   2.241
  614WAT     H2 2054   4.329   3.228   2.328
  615WAT      O 2055   3.652   2.794   3.447
  615WAT     H1 2056   3.603   2.844   3.512
  615WAT     H2 2057   3.644   2.703   3.475
  616WAT      O 2058   3.975   2.824   3.740
  616WAT     H1 2059   3.958   2.850   3.649
  616WAT     H2 2060   4.057   2.775   3.736
  617WAT      O 2061   4.510   3.295   3.533
  617WAT     H1 2062   4.508   3.200   3.533
  617WAT     H2 2063   4.443   3.321   3.597
  618WAT      O 2064   4.680   3.133   2.810
  618WAT     H1 2065   4.720   3.061   2.761
  618WAT     H2 2066   4.594   3.099   2.836
  619WAT      O 2067   4.280   3.208   2.563
  619WAT     H1 2068   4.358   3.259   2.584
  619WAT     H2 2069   4.208   3.270   2.569
  620WAT      O 2070   3.508   2.779   2.095
  620WAT     H1 2071   3.595   2.770   2.135
  620WAT     H2 2072   3.467   2.851   2.143
  621WAT      O 2073   4.240   2.929   2.532
  621WAT     H1 2074   4.264   3.019   2.552
  621WAT     H2 2075   4.188   2.901   2.608
  622WAT      O 2076   4.438   3.468   3.238
  622WAT     H1 2077   4.496   3.505   3.305
  622WAT     H2 2078   4.483   3.388   3.209
  623WAT      O 2079   3.827   1.939   2.571
  623WAT     H1 2080   3.787   1.918   2.655
  623WAT     H2 2081   3.755   1.970   2.517
  624WAT      O 2082   4.589   3.270   3.110
  624WAT     H1 2083   4.640   3.192   3.131
  624WAT     H2 2084   4.654   3.335   3.082
  625WAT      O 2085   4.757   3.347   3.428
  625WAT     H1 2086   4.796   3.389   3.505
  625WAT     H2 2087   4.668   3.327   3.455
  626WAT      O 2088   3.573   3.706   2.169
  626WAT     H1 2089   3.605   3.768   2.103
  626WAT     H2 2090   3.529   3.761   2.234
  627WAT      O 2091   3.528   2.124   3.517
  627WAT     H1 2092   3.451   2.138   3.572
  627WAT     H2 2093   3.580   2.058   3.563
  628WAT      O 2094   4.337   3.345   3.747
  628WAT     H1 2095   4.302   3.273   3.798
  628WAT     H2 2096   4.263   3.405   3.736
  629WAT      O 2097   4.162   3.427   2.243
  629WAT     H1 2098   4.156   3.503   2.186
  629WAT     H2 2099   4.071   3.395   2.250
  630WAT      O 2100   3.705   2.961   2.318
  630WAT     H1 2101   3.645   3.032   2.294
  630WAT     H2 2102   3.753   2.944   2.237
  631WAT      O 2103   4.647   2.350   3.274
  631WAT     H1 2104   4.707   2.318   3.341
  631WAT     H2 2105   4.567   2.371   3.322
  632WAT      O 2106   4.428   3.440   2.125
  632WAT     H1 2107   4.450   3.409   2.038
  632WAT     H2 2108   4.334   3.422   2.134
  633WAT      O 2109   4.195   2.493   2.508
  633WAT     H1 2110   4.124   2.538   2.554
  633WAT     H2 2111   4.228   2.429   2.572
  634WAT      O 2112   4.341   2.642   3.314
  634WAT     H1 2113   4.399   2.687   3.375
  634WAT     H2 2114   4.364   2.549   3.323
  635WAT      O 2115   4.599   2.178   2.647
  635WAT     H1 2116   4.572   2.166   2.556
  635WAT     H2 2117   4.695   2.181   2.644
  636WAT      O 2118   4.305   3.693   2.579
  636WAT     H1 2119   4.349   3.685   2.494
  636WAT     H2 2120   4.213   3.673   2.561
  637WAT      O 2121   4.012   2.325   2.244
  637WAT     H1 2122   4.099   2.362   2.229
  637WAT     H2 2123   3.994   2.340   2.336
  638WAT      O 2124   3.901   2.958   2.099
  638WAT     H1 2125   3.981   2.956   2.152
  638WAT     H2 2126   3.926   2.913   2.018
  639WAT      O 2127   3.767   2.698   2.173
  639WAT     H1 2128   3.765   2.603   2.169
  639WAT     H2 2129   3.860   2.720   2.175
  640WAT      O 2130   3.864   3.730   2.875
  640WAT     H1 2131   3.927   3.666   2.909
  640WAT     H2 2132   3.915   3.810   2.865
  641WAT      O 2133   3.759   3.615   3.796
  641WAT     H1 2134   3.841   3.648   3.833
  641WAT     H2 2135   3.703   3.600   3.873
  642WAT      O 2136   4.151   3.622   2.056
  642WAT     H1 2137   4.228   3.671   2.024
  642WAT     H2 2138   4.122   3.572   1.980
  643WAT      O 2139   4.645   3.245   3.800
  643WAT     H1 2140   4.597   3.241   3.718
  643WAT     H2 2141   4.610   3.173   3.853
  644WAT      O 2142   4.223   3.149   2.023
  644WAT     H1 2143   4.217   3.100   2.106
  644WAT     H2 2144   4.223   3.081   1.955
  645WAT      O 2145   4.237   3.029   3.637
  645WAT     H1 2146   4.161   3.086   3.639
  645WAT     H2 2147   4.242   2.998   3.547
  646WAT      O 2148   4.533   3.049   2.097
  646WAT     H1 2149   4.493   3.100   2.168
  646WAT     H2 2150   4.600   2.997   2.141
  647WAT      O 2151   3.729   2.689   3.766
  647WAT     H1 2152   3.723   2.686   3.862
  647WAT     H2 2153   3.816   2.723   3.749
  648WAT      O 2154   4.109   2.947   2.290
  648WAT     H1 2155   4.160   2.942   2.371
  648WAT     H2 2156   4.127   2.864   2.246
  649WAT      O 2157   3.931   2.544   3.571
  649WAT     H1 2158   3.870   2.500   3.512
  649WAT     H2 2159   3.991   2.592   3.514
  650WAT      O 2160   4.367   2.838   2.033
  650WAT     H1 2161   4.418   2.791   1.967
  650WAT     H2 2162   4.419   2.917   2.052
  651WAT      O 2163   3.979   2.234   3.585
  651WAT     H1 2164   3.973   2.172   3.511
  651WAT     H2 2165   3.907   2.295   3.570
  652WAT      O 2166   4.254   2.121   3.289
  652WAT     H1 2167   4.220   2.127   3.199
  652WAT     H2 2168   4.183   2.079   3.338
  653WAT      O 2169   4.267   2.996   3.362
  653WAT     H1 2170   4.334   3.059   3.336
  653WAT     H2 2171   4.194   3.014   3.301
  654WAT      O 2172   4.514   2.754   3.493
  654WAT     H1 2173   4.545   2.710   3.572
  654WAT     H2 2174   4.594   2.774   3.444
  655WAT      O 2175   4.733   2.840   3.364
  655WAT     H1 2176   4.730   2.825   3.269
  655WAT     H2 2177   4.805   2.902   3.376
  656WAT      O 2178   3.994   2.551   1.989
  656WAT     H1 2179   3.968   2.462   2.013
  656WAT     H2 2180   3.980   2.555   1.894
  657WAT      O 2181   4.087   3.633   3.466
  657WAT     H1 2182   4.022   3.692   3.429
  657WAT     H2 2183   4.109   3.573   3.395
  658WAT      O 2184   4.216   2.414   3.604
  658WAT     H1 2185   4.263   2.383   3.681
  658WAT     H2 2186   4.134   2.364   3.605
  659WAT      O 2187   4.683   2.387   3.654
  659WAT     H1 2188   4.616   2.324   3.627
  659WAT     H2 2189   4.755   2.334   3.686
  660WAT      O 2190   4.732   2.035   2.229
  660WAT     H1 2191   4.763   1.958   2.275
  660WAT     H2 2192   4.670   2.077   2.290
  661WAT      O 2193   3.893   2.285   1.972
  661WAT     H1 2194   3.926   2.255   1.887
  661WAT     H2 2195   3.953   2.246   2.036
  662WAT      O 2196   4.357   3.743   3.482
  662WAT     H1 2197   4.349   3.830   3.521
  662WAT     H2 2198   4.268   3.707   3.484
  663WAT      O 2199   4.208   2.165   2.078
  663WAT     H1 2200   4.159   2.097   2.032
  663WAT     H2 2201   4.227   2.126   2.164
  664WAT      O 2202   4.419   3.678   2.277
  664WAT     H1 2203   4.506   3.714   2.259
  664WAT     H2 2204   4.416   3.597   2.226
  665WAT      O 2205   3.777   3.198   2.066
  665WAT     H1 2206   3.822   3.256   2.127
  665WAT     H2 2207   3.824   3.115   2.071
  666WAT      O 2208   3.501   3.476   2.816
  666WAT     H1 2209   3.551   3.399   2.790
  666WAT     H2 2210   3.530   3.494   2.906
  667WAT      O 2211   3.982   3.315   2.588
  667WAT     H1 2212   3.944   3.281   2.669
  667WAT     H2 2213   3.964   3.248   2.523
  668WAT      O 2214   3.567   3.572   3.087
  668WAT     H1 2215   3.489   3.588   3.141
  668WAT     H2 2216   3.589   3.659   3.052
  669WAT      O 2217   3.543   2.797   2.728
  669WAT     H1 2218   3.469   2.806   2.668
  669WAT     H2 2219   3.619   2.787   2.671
  670WAT      O 2220   3.650   2.850   3.171
  670WAT     H1 2221   3.655   2.831   3.265
  670WAT     H2 2222   3.588   2.786   3.136
  671WAT      O 2223   3.589   2.557   3.576
  671WAT     H1 2224   3.506   2.548   3.624
  671WAT     H2 2225   3.651   2.590   3.641
  672WAT      O 2226   3.458   2.534   2.306
  672WAT     H1 2227   3.371   2.553   2.341
  672WAT     H2 2228   3.459   2.573   2.219
  673WAT      O 2229   3.716   2.436   2.119
  673WAT     H1 2230   3.770   2.378   2.066
  673WAT     H2 2231   3.635   2.446   2.070
  674WAT      O 2232   3.661   2.051   2.008
  674WAT     H1 2233   3.733   2.086   2.061
  674WAT     H2 2234   3.700   2.036   1.922
  675WAT      O 2235   3.644   1.954   3.008
  675WAT     H1 2236   3.718   1.919   2.957
  675WAT     H2 2237   3.683   1.985   3.089
  676WAT      O 2238   3.625   2.003   3.292
  676WAT     H1 2239   3.584   2.048   3.366
  676WAT     H2 2240   3.585   1.916   3.292
  677WAT      O 2241   3.784   3.331   3.690
  677WAT     H1 2242   3.770   3.276   3.767
  677WAT     H2 2243   3.783   3.421   3.724
  678WAT      O 2244   4.152   3.462   3.261
  678WAT     H1 2245   4.124   3.480   3.171
  678WAT     H2 2246   4.247   3.461   3.257
  679WAT      O 2247   4.381   2.093   3.645
  679WAT     H1 2248   4.363   2.171   3.697
  679WAT     H2 2249   4.471   2.103   3.617
  680WAT      O 2250   4.651   2.098   3.593
  680WAT     H1 2251   4.686   2.076   3.507
  680WAT     H2 2252   4.696   2.039   3.653
  681WAT      O 2253   3.696   1.934   3.614
  681WAT     H1 2254   3.738   1.902   3.534
  681WAT     H2 2255   3.701   1.861   3.675
  682WAT      O 2256   3.742   3.614   3.409
  682WAT     H1 2257   3.731   3.559   3.487
  682WAT     H2 2258   3.764   3.552   3.339
  683WAT      O 2259   4.715   1.953   3.254
  683WAT     H1 2260   4.640   1.981   3.201
  683WAT     H2 2261   4.683   1.876   3.301
  684WAT      O 2262   4.094   3.560   2.988
  684WAT     H1 2263   4.133   3.496   2.928
  684WAT     H2 2264   4.167   3.619   3.009
  685WAT      O 2265   4.359   3.650   3.046
  685WAT     H1 2266   4.405   3.629   2.965
  685WAT     H2 2267   4.395   3.589   3.111
  686WAT      O 2268   4.480   2.021   3.123
  686WAT     H1 2269   4.414   2.064   3.178
  686WAT     H2 2270   4.435   1.943   3.090
  687WAT      O 2271   3.624   2.058   2.373
  687WAT     H1 2272   3.700   2.077   2.319
  687WAT     H2 2273   3.560   2.126   2.349
  688WAT      O 2274   4.256   2.266   2.670
  688WAT     H1 2275   4.193   2.212   2.622
  688WAT     H2 2276   4.327   2.206   2.694
  689WAT      O 2277   4.719   1.933   2.780
  689WAT     H1 2278   4.769   1.967   2.855
  689WAT     H2 2279   4.650   1.998   2.766
  690WAT      O 2280   3.711   3.533   2.359
  690WAT     H1 2281   3.670   3.585   2.289
  690WAT     H2 2282   3.723   3.595   2.430
  691WAT      O 2283   3.849   2.101   2.220
  691WAT     H1 2284   3.904   2.024   2.232
  691WAT     H2 2285   3.908   2.175   2.233
  692WAT      O 2286   4.073   2.093   2.527
  692WAT     H1 2287   4.008   2.025   2.546
  692WAT     H2 2288   4.022   2.172   2.512
  693WAT      O 2289   4.356   3.747   3.803
  693WAT     H1 2290   4.445   3.715   3.813
  693WAT     H2 2291   4.364   3.828   3.751
  694WAT      O 2292   4.072   2.012   3.771
  694WAT     H1 2293   4.058   2.067   3.693
  694WAT     H2 2294   4.124   1.939   3.739
  695WAT      O 2295   3.997   3.750   2.256
  695WAT     H1 2296   4.048   3.707   2.187
  695WAT     H2 2297   4.018   3.701   2.335
  696WAT      O 2298   3.894   3.351   2.262
  696WAT     H1 2299   3.830   3.410   2.303
  696WAT     H2 2300   3.900   3.277   2.322
  697WAT      O 2301   4.616   2.767   0.866
  697WAT     H1 2302   4.630   2.672   0.862
  697WAT     H2 2303   4.582   2.790   0.779
  698WAT      O 2304   4.455   2.933   1.045
  698WAT     H1 2305   4.391   2.877   1.090
  698WAT     H2 2306   4.520   2.872   1.010
  699WAT      O 2307   3.845   2.974   1.142
  699WAT     H1 2308   3.776   2.926   1.190
  699WAT     H2 2309   3.919   2.977   1.203
  700WAT      O 2310   3.863   3.360   1.177
  700WAT     H1 2311   3.902   3.281   1.139
  700WAT     H2 2312   3.921   3.431   1.150
  701WAT      O 2313   3.697   2.466   0.515
  701WAT     H1 2314   3.603   2.481   0.506
  701WAT     H2 2315   3.727   2.449   0.426
  702WAT      O 2316   3.479   2.693   1.092
  702WAT     H1 2317   3.550   2.629   1.104
  702WAT     H2 2318   3.504   2.741   1.013
  703WAT      O 2319   4.471   3.600   0.911
  703WAT     H1 2320   4.408   3.629   0.845
  703WAT     H2 2321   4.554   3.638   0.883
  704WAT      O 2322   4.375   3.192   1.068
  704WAT     H1 2323   4.398   3.101   1.052
  704WAT     H2 2324   4.447   3.226   1.120
  705WAT      O 2325   3.611   2.269   1.298
  705WAT     H1 2326   3.607   2.177   1.326
  705WAT     H2 2327   3.546   2.313   1.352
  706WAT      O 2328   4.497   2.483   1.072
  706WAT     H1 2329   4.548   2.407   1.099
  706WAT     H2 2330   4.515   2.492   0.978
  707WAT      O 2331   3.918   2.321   0.624
  707WAT     H1 2332   3.940   2.398   0.677
  707WAT     H2 2333   3.826   2.335   0.600
  708WAT      O 2334   3.675   2.501   1.154
  708WAT     H1 2335   3.758   2.523   1.198
  708WAT     H2 2336   3.647   2.421   1.197
  709WAT      O 2337   4.106   2.627   1.067
  709WAT     H1 2338   4.172   2.677   1.114
  709WAT     H2 2339   4.147   2.542   1.050
  710WAT      O 2340   3.930   2.067   1.488
  710WAT     H1 2341   3.933   2.132   1.418
  710WAT     H2 2342   3.846   2.023   1.477
  711WAT      O 2343   4.565   3.090   0.622
  711WAT     H1 2344   4.505   3.126   0.557
  711WAT     H2 2345   4.580   3.162   0.684
  712WAT      O 2346   4.065   3.051   1.308
  712WAT     H1 2347   4.022   3.108   1.372
  712WAT     H2 2348   4.080   3.107   1.233
  713WAT      O 2349   3.891   2.251   1.291
  713WAT     H1 2350   3.925   2.339   1.275
  713WAT     H2 2351   3.796   2.261   1.290
  714WAT      O 2352   3.979   3.253   1.477
  714WAT     H1 2353   4.035   3.324   1.445
  714WAT     H2 2354   3.890   3.285   1.463
  715WAT      O 2355   3.496   3.143   0.388
  715WAT     H1 2356   3.499   3.196   0.308
  715WAT     H2 2357   3.512   3.205   0.458
  716WAT      O 2358   4.254   1.997   0.914
  716WAT     H1 2359   4.282   1.938   0.843
  716WAT     H2 2360   4.162   2.014   0.895
  717WAT      O 2361   4.506   2.813   0.610
  717WAT     H1 2362   4.411   2.820   0.617
  717WAT     H2 2363   4.536   2.903   0.599
  718WAT      O 2364   4.507   2.420   0.306
  718WAT     H1 2365   4.414   2.433   0.324
  718WAT     H2 2366   4.528   2.485   0.238
  719WAT      O 2367   4.057   2.843   0.862
  719WAT     H1 2368   4.026   2.769   0.810
  719WAT     H2 2369   4.074   2.806   0.948
  720WAT      O 2370   4.104   3.209   1.088
  720WAT     H1 2371   4.071   3.170   1.007
  720WAT     H2 2372   4.200   3.211   1.077
  721WAT      O 2373   3.930   2.529   1.257
  721WAT     H1 2374   3.983   2.560   1.183
  721WAT     H2 2375   3.965   2.577   1.332
  722WAT      O 2376   4.021   3.208   1.742
  722WAT     H1 2377   3.934   3.226   1.777
  722WAT     H2 2378   4.011   3.214   1.647
  723WAT      O 2379   4.725   2.887   0.340
  723WAT     H1 2380   4.767   2.803   0.324
  723WAT     H2 2381   4.796   2.946   0.365
  724WAT      O 2382   3.900   2.896   1.606
  724WAT     H1 2383   3.871   2.987   1.618
  724WAT     H2 2384   3.821   2.849   1.583
  725WAT      O 2385   4.520   3.364   0.738
  725WAT     H1 2386   4.569   3.436   0.699
  725WAT     H2 2387   4.505   3.391   0.829
  726WAT      O 2388   4.095   3.478   1.827
  726WAT     H1 2389   4.086   3.527   1.746
  726WAT     H2 2390   4.064   3.390   1.806
  727WAT      O 2391   3.728   2.738   0.631
  727WAT     H1 2392   3.722   2.812   0.571
  727WAT     H2 2393   3.711   2.661   0.577
  728WAT      O 2394   3.476   3.045   1.212
  728WAT     H1 2395   3.468   3.063   1.119
  728WAT     H2 2396   3.554   2.989   1.219
  729WAT      O 2397   3.608   3.230   0.835
  729WAT     H1 2398   3.590   3.259   0.745
  729WAT     H2 2399   3.698   3.198   0.832
  730WAT      O 2400   4.596   3.642   1.537
  730WAT     H1 2401   4.628   3.610   1.621
  730WAT     H2 2402   4.510   3.679   1.557
  731WAT      O 2403   4.772   3.674   0.483
  731WAT     H1 2404   4.759   3.643   0.573
  731WAT     H2 2405   4.804   3.597   0.435
  732WAT      O 2406   4.035   3.640   0.643
  732WAT     H1 2407   4.011   3.548   0.654
  732WAT     H2 2408   3.958   3.688   0.671
  733WAT      O 2409   4.735   3.587   0.743
  733WAT     H1 2410   4.780   3.522   0.797
  733WAT     H2 2411   4.740   3.668   0.793
  734WAT      O 2412   3.521   3.188   1.450
  734WAT     H1 2413   3.499   3.132   1.375
  734WAT     H2 2414   3.562   3.129   1.513
  735WAT      O 2415   3.980   2.090   0.966
  735WAT     H1 2416   3.937   2.171   0.938
  735WAT     H2 2417   4.027   2.115   1.046
  736WAT      O 2418   4.396   2.363   1.522
  736WAT     H1 2419   4.338   2.386   1.595
  736WAT     H2 2420   4.357   2.284   1.484
  737WAT      O 2421   4.615   2.643   1.842
  737WAT     H1 2422   4.632   2.551   1.819
  737WAT     H2 2423   4.701   2.679   1.863
  738WAT      O 2424   4.294   2.041   0.476
  738WAT     H1 2425   4.210   2.050   0.520
  738WAT     H2 2426   4.286   1.959   0.426
  739WAT      O 2427   4.191   2.135   1.148
  739WAT     H1 2428   4.205   2.226   1.122
  739WAT     H2 2429   4.233   2.084   1.079
  740WAT      O 2430   3.952   2.594   0.747
  740WAT     H1 2431   3.918   2.554   0.827
  740WAT     H2 2432   3.877   2.640   0.709
  741WAT      O 2433   4.667   2.588   0.596
  741WAT     H1 2434   4.611   2.665   0.589
  741WAT     H2 2435   4.706   2.579   0.509
  742WAT      O 2436   4.201   2.684   1.790
  742WAT     H1 2437   4.202   2.590   1.770
  742WAT     H2 2438   4.283   2.717   1.754
  743WAT      O 2439   4.558   2.461   0.810
  743WAT     H1 2440   4.591   2.497   0.728
  743WAT     H2 2441   4.560   2.366   0.798
  744WAT      O 2442   3.723   2.330   1.621
  744WAT     H1 2443   3.671   2.407   1.644
  744WAT     H2 2444   3.660   2.258   1.620
  745WAT      O 2445   4.366   2.317   1.929
  745WAT     H1 2446   4.306   2.272   1.989
  745WAT     H2 2447   4.432   2.356   1.987
  746WAT      O 2448   3.445   2.111   1.016
  746WAT     H1 2449   3.419   2.177   1.080
  746WAT     H2 2450   3.508   2.055   1.062
  747WAT      O 2451   4.591   2.720   1.222
  747WAT     H1 2452   4.502   2.745   1.247
  747WAT     H2 2453   4.580   2.639   1.172
  748WAT      O 2454   4.241   2.386   1.041
  748WAT     H1 2455   4.246   2.353   0.952
  748WAT     H2 2456   4.328   2.419   1.060
  749WAT      O 2457   3.814   2.371   0.932
  749WAT     H1 2458   3.781   2.417   1.009
  749WAT     H2 2459   3.737   2.334   0.890
  750WAT      O 2460   4.247   2.485   0.367
  750WAT     H1 2461   4.242   2.483   0.463
  750WAT     H2 2462   4.212   2.571   0.343
  751WAT      O 2463   4.631   2.253   1.145
  751WAT     H1 2464   4.652   2.295   1.229
  751WAT     H2 2465   4.591   2.170   1.170
  752WAT      O 2466   4.145   2.721   0.259
  752WAT     H1 2467   4.096   2.679   0.188
  752WAT     H2 2468   4.219   2.763   0.217
  753WAT      O 2469   3.674   3.088   1.672
  753WAT     H1 2470   3.626   3.036   1.736
  753WAT     H2 2471   3.695   3.170   1.718
  754WAT      O 2472   4.278   2.791   1.220
  754WAT     H1 2473   4.298   2.732   1.293
  754WAT     H2 2474   4.233   2.865   1.261
  755WAT      O 2475   3.571   2.259   0.826
  755WAT     H1 2476   3.531   2.210   0.898
  755WAT     H2 2477   3.578   2.195   0.755
  756WAT      O 2478   4.049   2.684   1.462
  756WAT     H1 2479   4.024   2.770   1.496
  756WAT     H2 2480   4.145   2.684   1.464
  757WAT      O 2481   3.915   3.122   0.523
  757WAT     H1 2482   3.836   3.068   0.516
  757WAT     H2 2483   3.985   3.067   0.489
  758WAT      O 2484   4.533   2.164   0.505
  758WAT     H1 2485   4.448   2.120   0.495
  758WAT     H2 2486   4.527   2.241   0.449
  759WAT      O 2487   4.506   3.028   1.693
  759WAT     H1 2488   4.516   2.941   1.654
  759WAT     H2 2489   4.424   3.023   1.742
  760WAT      O 2490   3.911   3.092   0.901
  760WAT     H1 2491   3.956   3.016   0.863
  760WAT     H2 2492   3.871   3.058   0.980
  761WAT      O 2493   4.406   3.213   0.416
  761WAT     H1 2494   4.411   3.285   0.354
  761WAT     H2 2495   4.319   3.221   0.455
  762WAT      O 2496   3.648   2.787   1.565
  762WAT     H1 2497   3.608   2.843   1.631
  762WAT     H2 2498   3.634   2.698   1.598
  763WAT      O 2499   3.974   2.826   1.862
  763WAT     H1 2500   3.956   2.855   1.773
  763WAT     H2 2501   4.056   2.777   1.856
  764WAT      O 2502   4.511   3.295   1.657
  764WAT     H1 2503   4.508   3.200   1.656
  764WAT     H2 2504   4.443   3.321   1.720
  765WAT      O 2505   4.681   3.133   0.934
  765WAT     H1 2506   4.720   3.063   0.882
  765WAT     H2 2507   4.594   3.099   0.958
  766WAT      O 2508   4.279   3.207   0.689
  766WAT     H1 2509   4.357   3.258   0.708
  766WAT     H2 2510   4.207   3.270   0.693
  767WAT      O 2511   3.504   2.759   0.247
  767WAT     H1 2512   3.599   2.765   0.257
  767WAT     H2 2513   3.474   2.850   0.248
  768WAT      O 2514   4.243   2.926   0.657
  768WAT     H1 2515   4.265   3.017   0.674
  768WAT     H2 2516   4.189   2.900   0.732
  769WAT      O 2517   4.439   3.468   1.360
  769WAT     H1 2518   4.496   3.505   1.427
  769WAT     H2 2519   4.483   3.388   1.331
  770WAT      O 2520   3.826   1.939   0.695
  770WAT     H1 2521   3.784   1.917   0.778
  770WAT     H2 2522   3.754   1.968   0.638
  771WAT      O 2523   4.589   3.270   1.233
  771WAT     H1 2524   4.640   3.191   1.252
  771WAT     H2 2525   4.654   3.335   1.205
  772WAT      O 2526   4.758   3.347   1.550
  772WAT     H1 2527   4.796   3.390   1.627
  772WAT     H2 2528   4.668   3.326   1.577
  773WAT      O 2529   3.563   3.702   0.320
  773WAT     H1 2530   3.587   3.743   0.237
  773WAT     H2 2531   3.553   3.775   0.381
  774WAT      O 2532   3.525   2.126   1.640
  774WAT     H1 2533   3.441   2.130   1.686
  774WAT     H2 2534   3.575   2.060   1.688
  775WAT      O 2535   4.337   3.345   1.870
  775WAT     H1 2536   4.301   3.273   1.921
  775WAT     H2 2537   4.263   3.404   1.857
  776WAT      O 2538   4.155   3.436   0.367
  776WAT     H1 2539   4.151   3.483   0.284
  776WAT     H2 2540   4.066   3.404   0.381
  777WAT      O 2541   3.699   2.965   0.450
  777WAT     H1 2542   3.629   3.026   0.430
  777WAT     H2 2543   3.735   2.941   0.364
  778WAT      O 2544   4.647   2.350   1.397
  778WAT     H1 2545   4.706   2.316   1.464
  778WAT     H2 2546   4.567   2.371   1.445
  779WAT      O 2547   4.196   2.492   0.631
  779WAT     H1 2548   4.125   2.537   0.677
  779WAT     H2 2549   4.229   2.429   0.694
  780WAT      O 2550   4.340   2.642   1.438
  780WAT     H1 2551   4.399   2.687   1.498
  780WAT     H2 2552   4.364   2.549   1.446
  781WAT      O 2553   4.600   2.176   0.771
  781WAT     H1 2554   4.573   2.167   0.679
  781WAT     H2 2555   4.696   2.183   0.767
  782WAT      O 2556   4.304   3.690   0.706
  782WAT     H1 2557   4.345   3.698   0.620
  782WAT     H2 2558   4.212   3.673   0.687
  783WAT      O 2559   4.008   2.332   0.362
  783WAT     H1 2560   4.096   2.367   0.352
  783WAT     H2 2561   3.991   2.337   0.456
  784WAT      O 2562   3.779   2.719   0.292
  784WAT     H1 2563   3.764   2.627   0.274
  784WAT     H2 2564   3.872   2.725   0.313
  785WAT      O 2565   3.863   3.725   1.004
  785WAT     H1 2566   3.930   3.664   1.033
  785WAT     H2 2567   3.911   3.805   0.984
  786WAT      O 2568   3.536   3.328   0.585
  786WAT     H1 2569   3.446   3.361   0.585
  786WAT     H2 2570   3.590   3.403   0.561
  787WAT      O 2571   3.763   3.597   1.918
  787WAT     H1 2572   3.838   3.651   1.944
  787WAT     H2 2573   3.701   3.605   1.991
  788WAT      O 2574   4.645   3.246   1.923
  788WAT     H1 2575   4.598   3.241   1.840
  788WAT     H2 2576   4.609   3.173   1.975
  789WAT      O 2577   3.539   2.887   1.813
  789WAT     H1 2578   3.602   2.825   1.848
  789WAT     H2 2579   3.464   2.882   1.872
  790WAT      O 2580   4.236   3.030   1.760
  790WAT     H1 2581   4.160   3.088   1.761
  790WAT     H2 2582   4.241   2.999   1.669
  791WAT      O 2583   4.544   3.062   0.226
  791WAT     H1 2584   4.494   3.099   0.299
  791WAT     H2 2585   4.599   2.995   0.267
  792WAT      O 2586   3.724   2.698   1.889
  792WAT     H1 2587   3.726   2.680   1.983
  792WAT     H2 2588   3.813   2.726   1.869
  793WAT      O 2589   4.095   2.944   0.426
  793WAT     H1 2590   4.155   2.935   0.500
  793WAT     H2 2591   4.113   2.867   0.371
  794WAT      O 2592   3.930   2.545   1.697
  794WAT     H1 2593   3.867   2.504   1.638
  794WAT     H2 2594   3.989   2.593   1.638
  795WAT      O 2595   3.978   2.234   1.707
  795WAT     H1 2596   3.972   2.173   1.634
  795WAT     H2 2597   3.907   2.296   1.692
  796WAT      O 2598   4.254   2.121   1.412
  796WAT     H1 2599   4.221   2.128   1.322
  796WAT     H2 2600   4.183   2.078   1.460
  797WAT      O 2601   4.266   2.996   1.484
  797WAT     H1 2602   4.333   3.060   1.458
  797WAT     H2 2603   4.193   3.014   1.425
  798WAT      O 2604   4.514   2.754   1.616
  798WAT     H1 2605   4.545   2.710   1.695
  798WAT     H2 2606   4.593   2.775   1.567
  799WAT      O 2607   4.733   2.840   1.486
  799WAT     H1 2608   4.729   2.824   1.392
  799WAT     H2 2609   4.805   2.902   1.497
  800WAT      O 2610   4.090   3.634   1.589
  800WAT     H1 2611   4.015   3.684   1.557
  800WAT     H2 2612   4.110   3.573   1.518
  801WAT      O 2613   4.215   2.414   1.726
  801WAT     H1 2614   4.263   2.383   1.803
  801WAT     H2 2615   4.134   2.364   1.727
  802WAT      O 2616   4.682   2.387   1.777
  802WAT     H1 2617   4.616   2.324   1.749
  802WAT     H2 2618   4.755   2.334   1.808
  803WAT      O 2619   4.738   2.037   0.357
  803WAT     H1 2620   4.761   1.957   0.403
  803WAT     H2 2621   4.673   2.079   0.413
  804WAT      O 2622   4.358   3.742   1.606
  804WAT     H1 2623   4.349   3.829   1.644
  804WAT     H2 2624   4.269   3.707   1.606
  805WAT      O 2625   4.414   3.670   0.382
  805WAT     H1 2626   4.499   3.714   0.374
  805WAT     H2 2627   4.417   3.600   0.318
  806WAT      O 2628   3.775   3.174   0.204
  806WAT     H1 2629   3.808   3.251   0.251
  806WAT     H2 2630   3.853   3.132   0.169
  807WAT      O 2631   3.504   3.476   0.943
  807WAT     H1 2632   3.542   3.391   0.920
  807WAT     H2 2633   3.538   3.495   1.030
  808WAT      O 2634   3.980   3.314   0.712
  808WAT     H1 2635   3.949   3.273   0.793
  808WAT     H2 2636   3.962   3.249   0.644
  809WAT      O 2637   3.561   3.568   1.195
  809WAT     H1 2638   3.508   3.576   1.274
  809WAT     H2 2639   3.588   3.658   1.175
  810WAT      O 2640   3.526   2.810   0.833
  810WAT     H1 2641   3.459   2.794   0.767
  810WAT     H2 2642   3.609   2.795   0.787
  811WAT      O 2643   3.651   2.848   1.295
  811WAT     H1 2644   3.658   2.831   1.389
  811WAT     H2 2645   3.589   2.783   1.263
  812WAT      O 2646   3.583   2.552   1.696
  812WAT     H1 2647   3.497   2.532   1.733
  812WAT     H2 2648   3.633   2.587   1.770
  813WAT      O 2649   3.450   2.535   0.407
  813WAT     H1 2650   3.368   2.560   0.449
  813WAT     H2 2651   3.469   2.607   0.347
  814WAT      O 2652   3.729   2.454   0.235
  814WAT     H1 2653   3.791   2.384   0.212
  814WAT     H2 2654   3.653   2.437   0.180
  815WAT      O 2655   3.644   1.956   1.130
  815WAT     H1 2656   3.717   1.920   1.079
  815WAT     H2 2657   3.684   1.985   1.212
  816WAT      O 2658   3.622   2.004   1.415
  816WAT     H1 2659   3.583   2.048   1.490
  816WAT     H2 2660   3.585   1.916   1.416
  817WAT      O 2661   3.776   3.313   1.823
  817WAT     H1 2662   3.769   3.273   1.910
  817WAT     H2 2663   3.775   3.407   1.840
  818WAT      O 2664   4.151   3.462   1.382
  818WAT     H1 2665   4.126   3.484   1.293
  818WAT     H2 2666   4.247   3.460   1.380
  819WAT      O 2667   4.381   2.093   1.768
  819WAT     H1 2668   4.363   2.172   1.820
  819WAT     H2 2669   4.471   2.103   1.739
  820WAT      O 2670   4.651   2.098   1.716
  820WAT     H1 2671   4.686   2.075   1.630
  820WAT     H2 2672   4.696   2.039   1.776
  821WAT      O 2673   3.695   1.935   1.738
  821WAT     H1 2674   3.737   1.904   1.657
  821WAT     H2 2675   3.701   1.861   1.798
  822WAT      O 2676   3.735   3.618   1.524
  822WAT     H1 2677   3.728   3.593   1.616
  822WAT     H2 2678   3.740   3.535   1.477
  823WAT      O 2679   4.715   1.953   1.376
  823WAT     H1 2680   4.641   1.981   1.323
  823WAT     H2 2681   4.683   1.876   1.424
  824WAT      O 2682   3.731   3.362   1.420
  824WAT     H1 2683   3.653   3.307   1.428
  824WAT     H2 2684   3.750   3.362   1.326
  825WAT      O 2685   4.095   3.557   1.113
  825WAT     H1 2686   4.132   3.497   1.048
  825WAT     H2 2687   4.166   3.618   1.132
  826WAT      O 2688   4.360   3.651   1.169
  826WAT     H1 2689   4.405   3.629   1.087
  826WAT     H2 2690   4.395   3.589   1.233
  827WAT      O 2691   4.480   2.021   1.246
  827WAT     H1 2692   4.414   2.065   1.300
  827WAT     H2 2693   4.436   1.943   1.212
  828WAT      O 2694   3.566   3.665   0.741
  828WAT     H1 2695   3.545   3.606   0.813
  828WAT     H2 2696   3.480   3.686   0.702
  829WAT      O 2697   3.618   2.057   0.492
  829WAT     H1 2698   3.697   2.079   0.444
  829WAT     H2 2699   3.556   2.127   0.472
  830WAT      O 2700   4.256   2.266   0.793
  830WAT     H1 2701   4.194   2.211   0.744
  830WAT     H2 2702   4.328   2.206   0.814
  831WAT      O 2703   4.718   1.932   0.903
  831WAT     H1 2704   4.767   1.967   0.978
  831WAT     H2 2705   4.651   1.998   0.886
  832WAT      O 2706   3.698   3.536   0.496
  832WAT     H1 2707   3.659   3.583   0.423
  832WAT     H2 2708   3.691   3.595   0.571
  833WAT      O 2709   3.845   2.108   0.353
  833WAT     H1 2710   3.899   2.029   0.358
  833WAT     H2 2711   3.908   2.179   0.348
  834WAT      O 2712   4.071   2.094   0.651
  834WAT     H1 2713   4.006   2.026   0.668
  834WAT     H2 2714   4.020   2.173   0.635
  835WAT      O 2715   4.356   3.748   1.927
  835WAT     H1 2716   4.446   3.714   1.933
  835WAT     H2 2717   4.364   3.828   1.875
  836WAT      O 2718   4.071   2.012   1.893
  836WAT     H1 2719   4.058   2.067   1.816
  836WAT     H2 2720   4.124   1.939   1.862
  837WAT      O 2721   3.998   3.757   0.386
  837WAT     H1 2722   4.044   3.702   0.323
  837WAT     H2 2723   4.008   3.713   0.470
  838WAT      O 2724   3.890   3.357   0.385
  838WAT     H1 2725   3.827   3.414   0.429
  838WAT     H2 2726   3.895   3.279   0.441
  839WAT      O 2727   4.622   0.889   4.617
  839WAT     H1 2728   4.627   0.794   4.617
  839WAT     H2 2729   4.582   0.911   4.533
  840WAT      O 2730   4.454   1.055   4.799
  840WAT     H1 2731   4.390   1.001   4.847
  840WAT     H2 2732   4.521   0.994   4.771
  841WAT      O 2733   3.843   1.097   4.898
  841WAT     H1 2734   3.776   1.048   4.945
  841WAT     H2 2735   3.918   1.099   4.957
  842WAT      O 2736   3.862   1.484   4.931
  842WAT     H1 2737   3.903   1.406   4.894
  842WAT     H2 2738   3.920   1.556   4.906
  843WAT      O 2739   3.697   0.587   4.273
  843WAT     H1 2740   3.604   0.605   4.266
  843WAT     H2 2741   3.724   0.566   4.183
  844WAT      O 2742   3.478   0.814   4.845
  844WAT     H1 2743   3.549   0.751   4.860
  844WAT     H2 2744   3.505   0.863   4.767
  845WAT      O 2745   4.471   1.722   4.665
  845WAT     H1 2746   4.408   1.753   4.600
  845WAT     H2 2747   4.555   1.760   4.637
  846WAT      O 2748   4.375   1.315   4.821
  846WAT     H1 2749   4.397   1.223   4.806
  846WAT     H2 2750   4.447   1.348   4.875
  847WAT      O 2751   3.607   0.393   5.054
  847WAT     H1 2752   3.608   0.305   5.092
  847WAT     H2 2753   3.544   0.441   5.108
  848WAT      O 2754   4.496   0.610   4.825
  848WAT     H1 2755   4.547   0.534   4.853
  848WAT     H2 2756   4.513   0.618   4.731
  849WAT      O 2757   3.919   0.448   4.370
  849WAT     H1 2758   3.945   0.518   4.430
  849WAT     H2 2759   3.826   0.464   4.353
  850WAT      O 2760   3.674   0.625   4.911
  850WAT     H1 2761   3.758   0.646   4.952
  850WAT     H2 2762   3.647   0.543   4.953
  851WAT      O 2763   4.105   0.751   4.821
  851WAT     H1 2764   4.170   0.801   4.871
  851WAT     H2 2765   4.146   0.666   4.807
  852WAT      O 2766   4.566   1.211   4.376
  852WAT     H1 2767   4.506   1.248   4.312
  852WAT     H2 2768   4.581   1.281   4.439
  853WAT      O 2769   4.063   1.175   5.063
  853WAT     H1 2770   4.021   1.232   5.127
  853WAT     H2 2771   4.079   1.233   4.988
  854WAT      O 2772   3.893   0.373   5.037
  854WAT     H1 2773   3.925   0.463   5.031
  854WAT     H2 2774   3.798   0.382   5.050
  855WAT      O 2775   3.978   1.376   5.235
  855WAT     H1 2776   4.035   1.445   5.204
  855WAT     H2 2777   3.889   1.408   5.217
  856WAT      O 2778   3.502   1.267   4.139
  856WAT     H1 2779   3.473   1.318   4.063
  856WAT     H2 2780   3.519   1.331   4.207
  857WAT      O 2781   4.508   0.936   4.364
  857WAT     H1 2782   4.412   0.939   4.368
  857WAT     H2 2783   4.534   1.028   4.356
  858WAT      O 2784   4.498   0.548   4.027
  858WAT     H1 2785   4.412   0.562   4.067
  858WAT     H2 2786   4.533   0.636   4.012
  859WAT      O 2787   4.057   0.965   4.616
  859WAT     H1 2788   4.025   0.891   4.565
  859WAT     H2 2789   4.075   0.929   4.703
  860WAT      O 2790   4.104   1.334   4.842
  860WAT     H1 2791   4.072   1.292   4.762
  860WAT     H2 2792   4.199   1.334   4.832
  861WAT      O 2793   3.928   0.654   5.012
  861WAT     H1 2794   3.981   0.682   4.937
  861WAT     H2 2795   3.965   0.702   5.086
  862WAT      O 2796   4.028   1.331   5.500
  862WAT     H1 2797   3.941   1.331   5.540
  862WAT     H2 2798   4.011   1.338   5.406
  863WAT      O 2799   4.730   1.016   4.085
  863WAT     H1 2800   4.769   0.929   4.085
  863WAT     H2 2801   4.798   1.072   4.124
  864WAT      O 2802   3.904   1.012   5.354
  864WAT     H1 2803   3.878   1.102   5.373
  864WAT     H2 2804   3.822   0.967   5.336
  865WAT      O 2805   4.519   1.486   4.493
  865WAT     H1 2806   4.569   1.557   4.453
  865WAT     H2 2807   4.505   1.514   4.583
  866WAT      O 2808   4.072   1.604   5.582
  866WAT     H1 2809   4.082   1.651   5.499
  866WAT     H2 2810   4.078   1.511   5.558
  867WAT      O 2811   3.727   0.862   4.384
  867WAT     H1 2812   3.722   0.934   4.322
  867WAT     H2 2813   3.712   0.784   4.331
  868WAT      O 2814   3.482   1.175   4.967
  868WAT     H1 2815   3.474   1.189   4.873
  868WAT     H2 2816   3.555   1.114   4.976
  869WAT      O 2817   3.608   1.353   4.590
  869WAT     H1 2818   3.590   1.381   4.500
  869WAT     H2 2819   3.698   1.321   4.588
  870WAT      O 2820   4.595   1.765   5.295
  870WAT     H1 2821   4.626   1.737   5.381
  870WAT     H2 2822   4.509   1.803   5.312
  871WAT      O 2823   4.775   1.797   4.238
  871WAT     H1 2824   4.760   1.766   4.327
  871WAT     H2 2825   4.795   1.718   4.187
  872WAT      O 2826   4.038   1.762   4.395
  872WAT     H1 2827   4.012   1.670   4.408
  872WAT     H2 2828   3.961   1.812   4.422
  873WAT      O 2829   4.734   1.709   4.498
  873WAT     H1 2830   4.780   1.645   4.551
  873WAT     H2 2831   4.740   1.791   4.548
  874WAT      O 2832   3.501   1.303   5.217
  874WAT     H1 2833   3.492   1.259   5.132
  874WAT     H2 2834   3.561   1.248   5.266
  875WAT      O 2835   3.995   0.228   4.702
  875WAT     H1 2836   3.934   0.302   4.691
  875WAT     H2 2837   4.018   0.230   4.795
  876WAT      O 2838   4.394   0.489   5.274
  876WAT     H1 2839   4.341   0.506   5.351
  876WAT     H2 2840   4.359   0.407   5.238
  877WAT      O 2841   4.619   0.764   5.585
  877WAT     H1 2842   4.641   0.672   5.568
  877WAT     H2 2843   4.697   0.799   5.628
  878WAT      O 2844   4.197   0.256   4.909
  878WAT     H1 2845   4.195   0.349   4.889
  878WAT     H2 2846   4.238   0.216   4.832
  879WAT      O 2847   3.954   0.719   4.503
  879WAT     H1 2848   3.919   0.674   4.580
  879WAT     H2 2849   3.878   0.762   4.464
  880WAT      O 2850   4.658   0.706   4.341
  880WAT     H1 2851   4.606   0.786   4.341
  880WAT     H2 2852   4.722   0.719   4.271
  881WAT      O 2853   4.199   0.804   5.550
  881WAT     H1 2854   4.202   0.711   5.528
  881WAT     H2 2855   4.284   0.838   5.524
  882WAT      O 2856   4.558   0.589   4.564
  882WAT     H1 2857   4.589   0.621   4.479
  882WAT     H2 2858   4.562   0.494   4.557
  883WAT      O 2859   3.723   0.448   5.373
  883WAT     H1 2860   3.673   0.529   5.386
  883WAT     H2 2861   3.659   0.378   5.380
  884WAT      O 2862   3.453   0.240   4.777
  884WAT     H1 2863   3.409   0.308   4.829
  884WAT     H2 2864   3.506   0.193   4.840
  885WAT      O 2865   3.479   0.635   3.879
  885WAT     H1 2866   3.471   0.728   3.901
  885WAT     H2 2867   3.414   0.621   3.810
  886WAT      O 2868   4.589   0.844   4.972
  886WAT     H1 2869   4.503   0.865   5.008
  886WAT     H2 2870   4.576   0.763   4.924
  887WAT      O 2871   4.240   0.510   4.800
  887WAT     H1 2872   4.246   0.477   4.711
  887WAT     H2 2873   4.328   0.545   4.819
  888WAT      O 2874   3.814   0.501   4.683
  888WAT     H1 2875   3.782   0.541   4.763
  888WAT     H2 2876   3.736   0.462   4.643
  889WAT      O 2877   4.252   0.608   4.125
  889WAT     H1 2878   4.242   0.613   4.220
  889WAT     H2 2879   4.216   0.691   4.093
  890WAT      O 2880   4.634   0.388   4.900
  890WAT     H1 2881   4.649   0.426   4.986
  890WAT     H2 2882   4.620   0.295   4.918
  891WAT      O 2883   4.146   0.843   4.020
  891WAT     H1 2884   4.098   0.790   3.955
  891WAT     H2 2885   4.219   0.880   3.971
  892WAT      O 2886   3.669   1.214   5.431
  892WAT     H1 2887   3.626   1.148   5.485
  892WAT     H2 2888   3.677   1.290   5.489
  893WAT      O 2889   4.278   0.915   4.975
  893WAT     H1 2890   4.298   0.854   5.046
  893WAT     H2 2891   4.234   0.988   5.018
  894WAT      O 2892   3.568   0.382   4.578
  894WAT     H1 2893   3.529   0.333   4.650
  894WAT     H2 2894   3.585   0.317   4.510
  895WAT      O 2895   4.051   0.809   5.208
  895WAT     H1 2896   4.022   0.890   5.250
  895WAT     H2 2897   4.147   0.810   5.217
  896WAT      O 2898   3.918   1.241   4.278
  896WAT     H1 2899   3.840   1.186   4.270
  896WAT     H2 2900   3.989   1.187   4.243
  897WAT      O 2901   4.520   0.289   4.268
  897WAT     H1 2902   4.455   0.229   4.233
  897WAT     H2 2903   4.521   0.362   4.207
  898WAT      O 2904   4.515   1.148   5.442
  898WAT     H1 2905   4.521   1.059   5.407
  898WAT     H2 2906   4.432   1.149   5.490
  899WAT      O 2907   3.911   1.213   4.655
  899WAT     H1 2908   3.956   1.138   4.618
  899WAT     H2 2909   3.871   1.180   4.735
  900WAT      O 2910   4.415   1.334   4.167
  900WAT     H1 2911   4.435   1.414   4.119
  900WAT     H2 2912   4.329   1.350   4.205
  901WAT      O 2913   3.646   0.912   5.320
  901WAT     H1 2914   3.602   0.963   5.388
  901WAT     H2 2915   3.637   0.821   5.349
  902WAT      O 2916   3.971   0.946   5.619
  902WAT     H1 2917   3.948   0.960   5.527
  902WAT     H2 2918   4.053   0.897   5.616
  903WAT      O 2919   4.515   1.416   5.406
  903WAT     H1 2920   4.523   1.321   5.413
  903WAT     H2 2921   4.440   1.438   5.462
  904WAT      O 2922   4.681   1.255   4.687
  904WAT     H1 2923   4.719   1.181   4.638
  904WAT     H2 2924   4.595   1.224   4.714
  905WAT      O 2925   4.280   1.330   4.441
  905WAT     H1 2926   4.358   1.381   4.462
  905WAT     H2 2927   4.208   1.393   4.445
  906WAT      O 2928   3.495   0.888   3.988
  906WAT     H1 2929   3.585   0.899   4.019
  906WAT     H2 2930   3.464   0.977   3.971
  907WAT      O 2931   4.240   1.051   4.410
  907WAT     H1 2932   4.264   1.142   4.429
  907WAT     H2 2933   4.188   1.023   4.485
  908WAT      O 2934   4.439   1.591   5.115
  908WAT     H1 2935   4.496   1.627   5.183
  908WAT     H2 2936   4.483   1.511   5.087
  909WAT      O 2937   4.589   1.392   4.987
  909WAT     H1 2938   4.640   1.314   5.009
  909WAT     H2 2939   4.654   1.457   4.960
  910WAT      O 2940   4.762   1.466   5.304
  910WAT     H1 2941   4.795   1.523   5.373
  910WAT     H2 2942   4.672   1.446   5.330
  911WAT      O 2943   3.565   1.832   4.035
  911WAT     H1 2944   3.598   1.903   3.979
  911WAT     H2 2945   3.538   1.876   4.115
  912WAT      O 2946   3.529   0.257   5.404
  912WAT     H1 2947   3.437   0.258   5.428
  912WAT     H2 2948   3.556   0.166   5.417
  913WAT      O 2949   3.552   1.648   5.461
  913WAT     H1 2950   3.536   1.555   5.477
  913WAT     H2 2951   3.466   1.682   5.436
  914WAT      O 2952   4.162   1.547   4.119
  914WAT     H1 2953   4.156   1.624   4.063
  914WAT     H2 2954   4.071   1.517   4.128
  915WAT      O 2955   3.705   1.085   4.195
  915WAT     H1 2956   3.635   1.146   4.172
  915WAT     H2 2957   3.751   1.069   4.112
  916WAT      O 2958   4.647   0.465   5.155
  916WAT     H1 2959   4.707   0.451   5.229
  916WAT     H2 2960   4.565   0.492   5.196
  917WAT      O 2961   4.427   1.562   4.003
  917WAT     H1 2962   4.447   1.532   3.914
  917WAT     H2 2963   4.334   1.545   4.014
  918WAT      O 2964   4.198   0.618   4.388
  918WAT     H1 2965   4.124   0.662   4.430
  918WAT     H2 2966   4.229   0.556   4.453
  919WAT      O 2967   4.342   0.763   5.189
  919WAT     H1 2968   4.399   0.809   5.251
  919WAT     H2 2969   4.362   0.670   5.202
  920WAT      O 2970   4.589   0.316   4.529
  920WAT     H1 2971   4.574   0.300   4.436
  920WAT     H2 2972   4.680   0.288   4.543
  921WAT      O 2973   4.305   1.815   4.456
  921WAT     H1 2974   4.347   1.808   4.371
  921WAT     H2 2975   4.212   1.797   4.439
  922WAT      O 2976   4.021   0.444   4.111
  922WAT     H1 2977   4.099   0.499   4.112
  922WAT     H2 2978   3.988   0.447   4.201
  923WAT      O 2979   3.901   1.080   3.976
  923WAT     H1 2980   3.980   1.078   4.030
  923WAT     H2 2981   3.925   1.035   3.895
  924WAT      O 2982   3.768   0.821   4.050
  924WAT     H1 2983   3.768   0.725   4.047
  924WAT     H2 2984   3.861   0.844   4.054
  925WAT      O 2985   3.864   1.848   4.758
  925WAT     H1 2986   3.930   1.787   4.790
  925WAT     H2 2987   3.912   1.929   4.739
  926WAT      O 2988   3.535   1.451   4.341
  926WAT     H1 2989   3.445   1.484   4.339
  926WAT     H2 2990   3.589   1.526   4.315
  927WAT      O 2991   4.152   1.745   3.933
  927WAT     H1 2992   4.228   1.794   3.902
  927WAT     H2 2993   4.123   1.694   3.857
  928WAT      O 2994   3.543   1.017   5.569
  928WAT     H1 2995   3.587   0.958   5.630
  928WAT     H2 2996   3.451   1.013   5.595
  929WAT      O 2997   4.224   1.272   3.901
  929WAT     H1 2998   4.214   1.224   3.983
  929WAT     H2 2999   4.222   1.203   3.834
  930WAT      O 3000   4.252   1.155   5.508
  930WAT     H1 3001   4.171   1.203   5.526
  930WAT     H2 3002   4.242   1.121   5.420
  931WAT      O 3003   4.533   1.172   3.975
  931WAT     H1 3004   4.493   1.223   4.045
  931WAT     H2 3005   4.600   1.119   4.019
  932WAT      O 3006   4.109   1.069   4.167
  932WAT     H1 3007   4.160   1.065   4.248
  932WAT     H2 3008   4.128   0.985   4.124
  933WAT      O 3009   3.894   0.682   5.432
  933WAT     H1 3010   3.875   0.615   5.367
  933WAT     H2 3011   3.976   0.722   5.403
  934WAT      O 3012   4.368   0.960   3.911
  934WAT     H1 3013   4.417   0.915   3.843
  934WAT     H2 3014   4.418   1.040   3.929
  935WAT      O 3015   3.987   0.383   5.448
  935WAT     H1 3016   3.979   0.309   5.388
  935WAT     H2 3017   3.901   0.424   5.447
  936WAT      O 3018   4.260   0.251   5.176
  936WAT     H1 3019   4.233   0.252   5.084
  936WAT     H2 3020   4.195   0.196   5.220
  937WAT      O 3021   4.267   1.113   5.231
  937WAT     H1 3022   4.331   1.182   5.214
  937WAT     H2 3023   4.193   1.136   5.175
  938WAT      O 3024   4.516   0.876   5.365
  938WAT     H1 3025   4.545   0.835   5.447
  938WAT     H2 3026   4.597   0.894   5.318
  939WAT      O 3027   4.739   0.957   5.241
  939WAT     H1 3028   4.731   0.951   5.146
  939WAT     H2 3029   4.799   1.031   5.255
  940WAT      O 3030   3.995   0.673   3.866
  940WAT     H1 3031   3.966   0.585   3.891
  940WAT     H2 3032   3.979   0.678   3.772
  941WAT      O 3033   4.094   1.760   5.339
  941WAT     H1 3034   4.013   1.805   5.315
  941WAT     H2 3035   4.109   1.697   5.269
  942WAT      O 3036   4.213   0.536   5.489
  942WAT     H1 3037   4.255   0.485   5.558
  942WAT     H2 3038   4.131   0.491   5.472
  943WAT      O 3039   4.684   0.505   5.528
  943WAT     H1 3040   4.610   0.450   5.500
  943WAT     H2 3041   4.753   0.442   5.549
  944WAT      O 3042   3.886   0.405   3.856
  944WAT     H1 3043   3.926   0.382   3.772
  944WAT     H2 3044   3.952   0.381   3.921
  945WAT      O 3045   4.358   1.864   5.367
  945WAT     H1 3046   4.350   1.953   5.402
  945WAT     H2 3047   4.267   1.833   5.361
  946WAT      O 3048   4.216   0.277   3.947
  946WAT     H1 3049   4.179   0.204   3.897
  946WAT     H2 3050   4.182   0.265   4.036
  947WAT      O 3051   4.419   1.800   4.154
  947WAT     H1 3052   4.506   1.837   4.135
  947WAT     H2 3053   4.416   1.720   4.103
  948WAT      O 3054   3.788   1.326   3.935
  948WAT     H1 3055   3.826   1.380   4.004
  948WAT     H2 3056   3.827   1.239   3.948
  949WAT      O 3057   3.504   1.600   4.699
  949WAT     H1 3058   3.544   1.516   4.676
  949WAT     H2 3059   3.537   1.619   4.787
  950WAT      O 3060   3.979   1.436   4.466
  950WAT     H1 3061   3.949   1.397   4.548
  950WAT     H2 3062   3.962   1.370   4.400
  951WAT      O 3063   3.549   1.692   4.958
  951WAT     H1 3064   3.506   1.705   5.042
  951WAT     H2 3065   3.588   1.777   4.937
  952WAT      O 3066   3.526   0.933   4.587
  952WAT     H1 3067   3.460   0.917   4.519
  952WAT     H2 3068   3.610   0.918   4.543
  953WAT      O 3069   3.648   0.973   5.050
  953WAT     H1 3070   3.658   0.955   5.144
  953WAT     H2 3071   3.589   0.904   5.019
  954WAT      O 3072   3.582   0.674   5.445
  954WAT     H1 3073   3.498   0.653   5.487
  954WAT     H2 3074   3.645   0.677   5.517
  955WAT      O 3075   3.451   0.653   4.181
  955WAT     H1 3076   3.366   0.686   4.209
  955WAT     H2 3077   3.472   0.705   4.104
  956WAT      O 3078   3.714   0.558   4.000
  956WAT     H1 3079   3.768   0.501   3.945
  956WAT     H2 3080   3.634   0.572   3.949
  957WAT      O 3081   4.150   1.580   5.136
  957WAT     H1 3082   4.125   1.606   5.047
  957WAT     H2 3083   4.246   1.582   5.135
  958WAT      O 3084   4.413   0.281   5.528
  958WAT     H1 3085   4.358   0.254   5.601
  958WAT     H2 3086   4.439   0.199   5.485
  959WAT      O 3087   3.761   1.726   5.297
  959WAT     H1 3088   3.691   1.705   5.358
  959WAT     H2 3089   3.767   1.650   5.239
  960WAT      O 3090   3.729   1.475   5.173
  960WAT     H1 3091   3.645   1.430   5.176
  960WAT     H2 3092   3.749   1.483   5.080
  961WAT      O 3093   4.094   1.679   4.868
  961WAT     H1 3094   4.133   1.619   4.805
  961WAT     H2 3095   4.164   1.741   4.888
  962WAT      O 3096   4.359   1.773   4.923
  962WAT     H1 3097   4.406   1.751   4.842
  962WAT     H2 3098   4.394   1.712   4.988
  963WAT      O 3099   3.564   1.786   4.489
  963WAT     H1 3100   3.546   1.730   4.565
  963WAT     H2 3101   3.477   1.808   4.455
  964WAT      O 3102   3.614   0.190   4.254
  964WAT     H1 3103   3.693   0.212   4.204
  964WAT     H2 3104   3.548   0.252   4.224
  965WAT      O 3105   4.257   0.391   4.555
  965WAT     H1 3106   4.183   0.335   4.530
  965WAT     H2 3107   4.333   0.335   4.546
  966WAT      O 3108   3.697   1.659   4.251
  966WAT     H1 3109   3.669   1.711   4.176
  966WAT     H2 3110   3.689   1.719   4.325
  967WAT      O 3111   3.995   1.872   4.130
  967WAT     H1 3112   4.050   1.829   4.064
  967WAT     H2 3113   4.015   1.827   4.212
  968WAT      O 3114   3.890   1.477   4.143
  968WAT     H1 3115   3.828   1.534   4.188
  968WAT     H2 3116   3.898   1.401   4.200
  969WAT      O 3117   4.619   0.889   2.742
  969WAT     H1 3118   4.627   0.794   2.740
  969WAT     H2 3119   4.581   0.912   2.657
  970WAT      O 3120   4.455   1.055   2.922
  970WAT     H1 3121   4.391   1.001   2.968
  970WAT     H2 3122   4.521   0.994   2.890
  971WAT      O 3123   3.844   1.097   3.020
  971WAT     H1 3124   3.776   1.048   3.068
  971WAT     H2 3125   3.918   1.099   3.081
  972WAT      O 3126   3.861   1.483   3.053
  972WAT     H1 3127   3.903   1.405   3.017
  972WAT     H2 3128   3.920   1.555   3.028
  973WAT      O 3129   3.697   0.587   2.395
  973WAT     H1 3130   3.604   0.605   2.389
  973WAT     H2 3131   3.724   0.566   2.306
  974WAT      O 3132   3.478   0.814   2.967
  974WAT     H1 3133   3.549   0.751   2.982
  974WAT     H2 3134   3.505   0.863   2.889
  975WAT      O 3135   4.471   1.723   2.788
  975WAT     H1 3136   4.408   1.753   2.722
  975WAT     H2 3137   4.555   1.759   2.759
  976WAT      O 3138   4.375   1.315   2.944
  976WAT     H1 3139   4.398   1.223   2.929
  976WAT     H2 3140   4.447   1.349   2.997
  977WAT      O 3141   3.608   0.393   3.178
  977WAT     H1 3142   3.607   0.305   3.214
  977WAT     H2 3143   3.544   0.442   3.230
  978WAT      O 3144   4.496   0.611   2.948
  978WAT     H1 3145   4.546   0.535   2.976
  978WAT     H2 3146   4.513   0.618   2.854
  979WAT      O 3147   3.919   0.448   2.493
  979WAT     H1 3148   3.945   0.519   2.552
  979WAT     H2 3149   3.827   0.463   2.475
  980WAT      O 3150   3.674   0.625   3.033
  980WAT     H1 3151   3.758   0.646   3.075
  980WAT     H2 3152   3.647   0.543   3.075
  981WAT      O 3153   4.106   0.751   2.945
  981WAT     H1 3154   4.172   0.800   2.992
  981WAT     H2 3155   4.146   0.666   2.929
  982WAT      O 3156   4.566   1.211   2.500
  982WAT     H1 3157   4.506   1.248   2.434
  982WAT     H2 3158   4.581   1.282   2.561
  983WAT      O 3159   4.065   1.173   3.186
  983WAT     H1 3160   4.022   1.230   3.250
  983WAT     H2 3161   4.080   1.230   3.110
  984WAT      O 3162   3.893   0.373   3.162
  984WAT     H1 3163   3.924   0.463   3.154
  984WAT     H2 3164   3.798   0.382   3.174
  985WAT      O 3165   3.979   1.375   3.355
  985WAT     H1 3166   4.035   1.446   3.324
  985WAT     H2 3167   3.890   1.407   3.341
  986WAT      O 3168   3.502   1.267   2.261
  986WAT     H1 3169   3.472   1.318   2.186
  986WAT     H2 3170   3.519   1.331   2.329
  987WAT      O 3171   4.508   0.936   2.487
  987WAT     H1 3172   4.412   0.939   2.491
  987WAT     H2 3173   4.534   1.028   2.479
  988WAT      O 3174   4.498   0.547   2.150
  988WAT     H1 3175   4.412   0.562   2.190
  988WAT     H2 3176   4.533   0.635   2.134
  989WAT      O 3177   4.057   0.965   2.739
  989WAT     H1 3178   4.025   0.892   2.687
  989WAT     H2 3179   4.074   0.928   2.826
  990WAT      O 3180   4.104   1.332   2.965
  990WAT     H1 3181   4.071   1.293   2.885
  990WAT     H2 3182   4.199   1.334   2.954
  991WAT      O 3183   3.928   0.654   3.135
  991WAT     H1 3184   3.982   0.683   3.060
  991WAT     H2 3185   3.965   0.701   3.210
  992WAT      O 3186   4.020   1.331   3.620
  992WAT     H1 3187   3.933   1.347   3.655
  992WAT     H2 3188   4.010   1.338   3.525
  993WAT      O 3189   4.730   1.016   2.208
  993WAT     H1 3190   4.769   0.929   2.206
  993WAT     H2 3191   4.799   1.072   2.245
  994WAT      O 3192   3.900   1.018   3.483
  994WAT     H1 3193   3.873   1.109   3.495
  994WAT     H2 3194   3.819   0.971   3.462
  995WAT      O 3195   4.519   1.486   2.616
  995WAT     H1 3196   4.569   1.557   2.575
  995WAT     H2 3197   4.506   1.514   2.706
  996WAT      O 3198   4.096   1.601   3.705
  996WAT     H1 3199   4.084   1.650   3.624
  996WAT     H2 3200   4.064   1.513   3.683
  997WAT      O 3201   3.727   0.862   2.507
  997WAT     H1 3202   3.722   0.935   2.444
  997WAT     H2 3203   3.712   0.784   2.454
  998WAT      O 3204   3.482   1.175   3.090
  998WAT     H1 3205   3.474   1.189   2.996
  998WAT     H2 3206   3.556   1.114   3.099
  999WAT      O 3207   3.608   1.354   2.712
  999WAT     H1 3208   3.590   1.381   2.623
  999WAT     H2 3209   3.698   1.321   2.710
 1000WAT      O 3210   4.597   1.765   3.415
 1000WAT     H1 3211   4.627   1.732   3.500
 1000WAT     H2 3212   4.510   1.802   3.434
 1001WAT      O 3213   4.774   1.797   2.360
 1001WAT     H1 3214   4.760   1.766   2.449
 1001WAT     H2 3215   4.795   1.719   2.310
 1002WAT      O 3216   4.037   1.762   2.518
 1002WAT     H1 3217   4.012   1.671   2.530
 1002WAT     H2 3218   3.960   1.812   2.545
 1003WAT      O 3219   4.733   1.709   2.620
 1003WAT     H1 3220   4.781   1.645   2.672
 1003WAT     H2 3221   4.740   1.790   2.670
 1004WAT      O 3222   3.498   1.304   3.341
 1004WAT     H1 3223   3.494   1.257   3.257
 1004WAT     H2 3224   3.558   1.253   3.394
 1005WAT      O 3225   3.996   0.229   2.825
 1005WAT     H1 3226   3.934   0.301   2.813
 1005WAT     H2 3227   4.017   0.231   2.919
 1006WAT      O 3228   4.398   0.483   3.403
 1006WAT     H1 3229   4.337   0.507   3.473
 1006WAT     H2 3230   4.358   0.406   3.362
 1007WAT      O 3231   4.616   0.767   3.720
 1007WAT     H1 3232   4.636   0.676   3.697
 1007WAT     H2 3233   4.700   0.806   3.740
 1008WAT      O 3234   4.198   0.256   3.031
 1008WAT     H1 3235   4.196   0.349   3.011
 1008WAT     H2 3236   4.236   0.215   2.954
 1009WAT      O 3237   3.954   0.719   2.626
 1009WAT     H1 3238   3.918   0.674   2.703
 1009WAT     H2 3239   3.878   0.762   2.586
 1010WAT      O 3240   4.659   0.706   2.465
 1010WAT     H1 3241   4.606   0.786   2.464
 1010WAT     H2 3242   4.722   0.718   2.394
 1011WAT      O 3243   4.202   0.807   3.669
 1011WAT     H1 3244   4.201   0.714   3.649
 1011WAT     H2 3245   4.284   0.839   3.630
 1012WAT      O 3246   4.558   0.589   2.687
 1012WAT     H1 3247   4.588   0.621   2.603
 1012WAT     H2 3248   4.563   0.494   2.680
 1013WAT      O 3249   3.726   0.454   3.499
 1013WAT     H1 3250   3.673   0.531   3.521
 1013WAT     H2 3251   3.664   0.381   3.503
 1014WAT      O 3252   4.374   0.442   3.806
 1014WAT     H1 3253   4.312   0.393   3.861
 1014WAT     H2 3254   4.432   0.484   3.869
 1015WAT      O 3255   3.453   0.241   2.899
 1015WAT     H1 3256   3.409   0.308   2.951
 1015WAT     H2 3257   3.505   0.192   2.963
 1016WAT      O 3258   3.479   0.635   2.002
 1016WAT     H1 3259   3.471   0.728   2.024
 1016WAT     H2 3260   3.414   0.621   1.933
 1017WAT      O 3261   4.590   0.842   3.100
 1017WAT     H1 3262   4.502   0.869   3.124
 1017WAT     H2 3263   4.578   0.762   3.048
 1018WAT      O 3264   4.240   0.511   2.923
 1018WAT     H1 3265   4.246   0.476   2.834
 1018WAT     H2 3266   4.328   0.545   2.941
 1019WAT      O 3267   3.814   0.501   2.806
 1019WAT     H1 3268   3.781   0.542   2.886
 1019WAT     H2 3269   3.737   0.461   2.766
 1020WAT      O 3270   4.252   0.608   2.248
 1020WAT     H1 3271   4.242   0.614   2.343
 1020WAT     H2 3272   4.216   0.691   2.215
 1021WAT      O 3273   4.633   0.388   3.023
 1021WAT     H1 3274   4.649   0.427   3.109
 1021WAT     H2 3275   4.622   0.295   3.040
 1022WAT      O 3276   4.146   0.843   2.142
 1022WAT     H1 3277   4.098   0.790   2.078
 1022WAT     H2 3278   4.219   0.880   2.094
 1023WAT      O 3279   3.667   1.217   3.547
 1023WAT     H1 3280   3.625   1.158   3.611
 1023WAT     H2 3281   3.696   1.291   3.600
 1024WAT      O 3282   4.279   0.914   3.098
 1024WAT     H1 3283   4.298   0.855   3.170
 1024WAT     H2 3284   4.233   0.987   3.139
 1025WAT      O 3285   3.568   0.383   2.701
 1025WAT     H1 3286   3.529   0.332   2.772
 1025WAT     H2 3287   3.585   0.318   2.632
 1026WAT      O 3288   4.049   0.807   3.339
 1026WAT     H1 3289   4.024   0.892   3.373
 1026WAT     H2 3290   4.145   0.808   3.341
 1027WAT      O 3291   3.918   1.241   2.401
 1027WAT     H1 3292   3.840   1.187   2.392
 1027WAT     H2 3293   3.989   1.188   2.365
 1028WAT      O 3294   4.519   0.289   2.391
 1028WAT     H1 3295   4.455   0.228   2.354
 1028WAT     H2 3296   4.521   0.362   2.329
 1029WAT      O 3297   4.506   1.150   3.570
 1029WAT     H1 3298   4.514   1.063   3.532
 1029WAT     H2 3299   4.423   1.147   3.619
 1030WAT      O 3300   3.911   1.214   2.778
 1030WAT     H1 3301   3.956   1.138   2.740
 1030WAT     H2 3302   3.871   1.180   2.858
 1031WAT      O 3303   4.415   1.334   2.290
 1031WAT     H1 3304   4.436   1.414   2.241
 1031WAT     H2 3305   4.328   1.350   2.327
 1032WAT      O 3306   3.647   0.912   3.444
 1032WAT     H1 3307   3.603   0.966   3.510
 1032WAT     H2 3308   3.633   0.822   3.475
 1033WAT      O 3309   3.974   0.949   3.740
 1033WAT     H1 3310   3.955   0.976   3.651
 1033WAT     H2 3311   4.055   0.899   3.734
 1034WAT      O 3312   4.511   1.418   3.534
 1034WAT     H1 3313   4.508   1.322   3.534
 1034WAT     H2 3314   4.443   1.444   3.596
 1035WAT      O 3315   4.681   1.255   2.811
 1035WAT     H1 3316   4.720   1.183   2.761
 1035WAT     H2 3317   4.594   1.223   2.836
 1036WAT      O 3318   4.280   1.329   2.564
 1036WAT     H1 3319   4.358   1.381   2.584
 1036WAT     H2 3320   4.208   1.393   2.568
 1037WAT      O 3321   3.495   0.887   2.111
 1037WAT     H1 3322   3.584   0.900   2.142
 1037WAT     H2 3323   3.463   0.976   2.092
 1038WAT      O 3324   4.240   1.051   2.532
 1038WAT     H1 3325   4.264   1.142   2.552
 1038WAT     H2 3326   4.188   1.024   2.608
 1039WAT      O 3327   4.439   1.590   3.238
 1039WAT     H1 3328   4.496   1.627   3.305
 1039WAT     H2 3329   4.484   1.511   3.209
 1040WAT      O 3330   4.589   1.392   3.110
 1040WAT     H1 3331   4.641   1.315   3.130
 1040WAT     H2 3332   4.653   1.458   3.082
 1041WAT      O 3333   4.758   1.469   3.428
 1041WAT     H1 3334   4.796   1.513   3.504
 1041WAT     H2 3335   4.668   1.449   3.455
 1042WAT      O 3336   3.566   1.833   2.154
 1042WAT     H1 3337   3.596   1.906   2.101
 1042WAT     H2 3338   3.535   1.874   2.235
 1043WAT      O 3339   3.531   0.258   3.529
 1043WAT     H1 3340   3.440   0.264   3.558
 1043WAT     H2 3341   3.554   0.166   3.538
 1044WAT      O 3342   3.539   1.649   3.589
 1044WAT     H1 3343   3.551   1.554   3.593
 1044WAT     H2 3344   3.453   1.661   3.549
 1045WAT      O 3345   4.338   1.468   3.747
 1045WAT     H1 3346   4.302   1.396   3.799
 1045WAT     H2 3347   4.264   1.527   3.733
 1046WAT      O 3348   4.162   1.548   2.242
 1046WAT     H1 3349   4.156   1.625   2.185
 1046WAT     H2 3350   4.071   1.518   2.251
 1047WAT      O 3351   3.705   1.085   2.318
 1047WAT     H1 3352   3.635   1.146   2.294
 1047WAT     H2 3353   3.750   1.069   2.235
 1048WAT      O 3354   4.648   0.467   3.278
 1048WAT     H1 3355   4.708   0.449   3.350
 1048WAT     H2 3356   4.565   0.489   3.322
 1049WAT      O 3357   4.427   1.562   2.126
 1049WAT     H1 3358   4.448   1.532   2.037
 1049WAT     H2 3359   4.334   1.545   2.136
 1050WAT      O 3360   4.199   0.619   2.511
 1050WAT     H1 3361   4.124   0.662   2.552
 1050WAT     H2 3362   4.229   0.556   2.576
 1051WAT      O 3363   4.340   0.764   3.315
 1051WAT     H1 3364   4.399   0.809   3.375
 1051WAT     H2 3365   4.362   0.671   3.323
 1052WAT      O 3366   4.590   0.317   2.651
 1052WAT     H1 3367   4.574   0.300   2.558
 1052WAT     H2 3368   4.680   0.287   2.665
 1053WAT      O 3369   4.305   1.815   2.579
 1053WAT     H1 3370   4.347   1.808   2.494
 1053WAT     H2 3371   4.212   1.797   2.562
 1054WAT      O 3372   4.021   0.443   2.234
 1054WAT     H1 3373   4.099   0.499   2.235
 1054WAT     H2 3374   3.988   0.447   2.324
 1055WAT      O 3375   3.901   1.081   2.099
 1055WAT     H1 3376   3.980   1.078   2.152
 1055WAT     H2 3377   3.925   1.036   2.018
 1056WAT      O 3378   3.769   0.821   2.173
 1056WAT     H1 3379   3.768   0.725   2.170
 1056WAT     H2 3380   3.862   0.844   2.176
 1057WAT      O 3381   3.863   1.848   2.881
 1057WAT     H1 3382   3.930   1.787   2.912
 1057WAT     H2 3383   3.912   1.929   2.862
 1058WAT      O 3384   3.535   1.451   2.463
 1058WAT     H1 3385   3.445   1.483   2.461
 1058WAT     H2 3386   3.589   1.526   2.438
 1059WAT      O 3387   3.766   1.738   3.804
 1059WAT     H1 3388   3.845   1.779   3.839
 1059WAT     H2 3389   3.709   1.727   3.880
 1060WAT      O 3390   4.152   1.744   2.056
 1060WAT     H1 3391   4.228   1.794   2.025
 1060WAT     H2 3392   4.123   1.694   1.979
 1061WAT      O 3393   4.647   1.366   3.800
 1061WAT     H1 3394   4.597   1.365   3.718
 1061WAT     H2 3395   4.610   1.295   3.852
 1062WAT      O 3396   3.538   1.018   3.690
 1062WAT     H1 3397   3.589   0.949   3.733
 1062WAT     H2 3398   3.461   1.029   3.745
 1063WAT      O 3399   4.224   1.271   2.024
 1063WAT     H1 3400   4.214   1.223   2.106
 1063WAT     H2 3401   4.222   1.204   1.956
 1064WAT      O 3402   4.236   1.153   3.637
 1064WAT     H1 3403   4.160   1.211   3.639
 1064WAT     H2 3404   4.240   1.122   3.546
 1065WAT      O 3405   4.534   1.172   2.097
 1065WAT     H1 3406   4.493   1.223   2.167
 1065WAT     H2 3407   4.600   1.119   2.142
 1066WAT      O 3408   3.720   0.821   3.772
 1066WAT     H1 3409   3.726   0.806   3.866
 1066WAT     H2 3410   3.808   0.847   3.746
 1067WAT      O 3411   4.109   1.069   2.290
 1067WAT     H1 3412   4.160   1.065   2.371
 1067WAT     H2 3413   4.127   0.985   2.246
 1068WAT      O 3414   3.926   0.678   3.574
 1068WAT     H1 3415   3.867   0.627   3.519
 1068WAT     H2 3416   3.988   0.718   3.513
 1069WAT      O 3417   4.368   0.960   2.035
 1069WAT     H1 3418   4.416   0.915   1.965
 1069WAT     H2 3419   4.419   1.040   2.052
 1070WAT      O 3420   3.976   0.375   3.592
 1070WAT     H1 3421   3.991   0.309   3.525
 1070WAT     H2 3422   3.896   0.419   3.565
 1071WAT      O 3423   4.257   0.259   3.299
 1071WAT     H1 3424   4.230   0.255   3.208
 1071WAT     H2 3425   4.206   0.192   3.343
 1072WAT      O 3426   4.267   1.118   3.361
 1072WAT     H1 3427   4.333   1.183   3.336
 1072WAT     H2 3428   4.193   1.136   3.303
 1073WAT      O 3429   4.514   0.875   3.493
 1073WAT     H1 3430   4.546   0.833   3.573
 1073WAT     H2 3431   4.594   0.896   3.444
 1074WAT      O 3432   4.735   0.960   3.365
 1074WAT     H1 3433   4.729   0.946   3.270
 1074WAT     H2 3434   4.803   1.027   3.375
 1075WAT      O 3435   3.995   0.673   1.988
 1075WAT     H1 3436   3.965   0.585   2.013
 1075WAT     H2 3437   3.979   0.678   1.894
 1076WAT      O 3438   4.091   1.759   3.465
 1076WAT     H1 3439   4.009   1.802   3.439
 1076WAT     H2 3440   4.109   1.697   3.394
 1077WAT      O 3441   4.215   0.539   3.605
 1077WAT     H1 3442   4.263   0.504   3.680
 1077WAT     H2 3443   4.133   0.488   3.603
 1078WAT      O 3444   4.686   0.512   3.651
 1078WAT     H1 3445   4.608   0.462   3.629
 1078WAT     H2 3446   4.751   0.446   3.675
 1079WAT      O 3447   3.886   0.405   1.979
 1079WAT     H1 3448   3.926   0.383   1.894
 1079WAT     H2 3449   3.952   0.381   2.043
 1080WAT      O 3450   4.357   1.864   3.483
 1080WAT     H1 3451   4.348   1.952   3.521
 1080WAT     H2 3452   4.268   1.830   3.481
 1081WAT      O 3453   4.217   0.277   2.070
 1081WAT     H1 3454   4.180   0.205   2.020
 1081WAT     H2 3455   4.182   0.265   2.159
 1082WAT      O 3456   4.419   1.800   2.277
 1082WAT     H1 3457   4.506   1.837   2.258
 1082WAT     H2 3458   4.416   1.719   2.226
 1083WAT      O 3459   3.789   1.327   2.058
 1083WAT     H1 3460   3.827   1.380   2.127
 1083WAT     H2 3461   3.826   1.240   2.070
 1084WAT      O 3462   3.504   1.599   2.822
 1084WAT     H1 3463   3.544   1.516   2.799
 1084WAT     H2 3464   3.537   1.619   2.910
 1085WAT      O 3465   3.979   1.436   2.589
 1085WAT     H1 3466   3.948   1.397   2.671
 1085WAT     H2 3467   3.962   1.370   2.522
 1086WAT      O 3468   3.550   1.692   3.080
 1086WAT     H1 3469   3.509   1.706   3.165
 1086WAT     H2 3470   3.588   1.777   3.057
 1087WAT      O 3471   3.526   0.933   2.709
 1087WAT     H1 3472   3.459   0.917   2.642
 1087WAT     H2 3473   3.609   0.918   2.664
 1088WAT      O 3474   3.648   0.972   3.174
 1088WAT     H1 3475   3.657   0.955   3.267
 1088WAT     H2 3476   3.589   0.904   3.142
 1089WAT      O 3477   3.585   0.675   3.574
 1089WAT     H1 3478   3.499   0.655   3.611
 1089WAT     H2 3479   3.635   0.711   3.648
 1090WAT      O 3480   3.451   0.653   2.304
 1090WAT     H1 3481   3.366   0.686   2.332
 1090WAT     H2 3482   3.473   0.705   2.226
 1091WAT      O 3483   3.714   0.558   2.122
 1091WAT     H1 3484   3.768   0.501   2.067
 1091WAT     H2 3485   3.634   0.572   2.072
 1092WAT      O 3486   3.769   1.435   3.694
 1092WAT     H1 3487   3.769   1.398   3.783
 1092WAT     H2 3488   3.773   1.530   3.708
 1093WAT      O 3489   4.151   1.583   3.260
 1093WAT     H1 3490   4.125   1.607   3.171
 1093WAT     H2 3491   4.247   1.582   3.258
 1094WAT      O 3492   4.361   0.221   3.645
 1094WAT     H1 3493   4.369   0.300   3.699
 1094WAT     H2 3494   4.448   0.209   3.608
 1095WAT      O 3495   3.760   1.726   3.426
 1095WAT     H1 3496   3.690   1.706   3.488
 1095WAT     H2 3497   3.763   1.650   3.368
 1096WAT      O 3498   3.729   1.478   3.297
 1096WAT     H1 3499   3.646   1.430   3.300
 1096WAT     H2 3500   3.749   1.484   3.203
 1097WAT      O 3501   4.094   1.679   2.991
 1097WAT     H1 3502   4.133   1.619   2.927
 1097WAT     H2 3503   4.164   1.741   3.011
 1098WAT      O 3504   4.360   1.773   3.046
 1098WAT     H1 3505   4.406   1.751   2.965
 1098WAT     H2 3506   4.394   1.712   3.110
 1099WAT      O 3507   3.565   1.784   2.613
 1099WAT     H1 3508   3.547   1.729   2.689
 1099WAT     H2 3509   3.479   1.807   2.578
 1100WAT      O 3510   3.615   0.191   2.378
 1100WAT     H1 3511   3.692   0.211   2.326
 1100WAT     H2 3512   3.548   0.253   2.347
 1101WAT      O 3513   4.256   0.391   2.678
 1101WAT     H1 3514   4.183   0.336   2.652
 1101WAT     H2 3515   4.334   0.335   2.668
 1102WAT      O 3516   3.697   1.660   2.374
 1102WAT     H1 3517   3.669   1.712   2.299
 1102WAT     H2 3518   3.688   1.719   2.449
 1103WAT      O 3519   4.358   1.870   3.805
 1103WAT     H1 3520   4.448   1.838   3.810
 1103WAT     H2 3521   4.363   1.949   3.752
 1104WAT      O 3522   3.995   1.872   2.252
 1104WAT     H1 3523   4.050   1.829   2.187
 1104WAT     H2 3524   4.015   1.828   2.334
 1105WAT      O 3525   3.890   1.478   2.266
 1105WAT     H1 3526   3.828   1.534   2.311
 1105WAT     H2 3527   3.898   1.401   2.323
 1106WAT      O 3528   4.617   0.890   0.865
 1106WAT     H1 3529   4.629   0.795   0.862
 1106WAT     H2 3530   4.582   0.912   0.779
 1107WAT      O 3531   4.455   1.056   1.045
 1107WAT     H1 3532   4.391   1.000   1.090
 1107WAT     H2 3533   4.520   0.994   1.011
 1108WAT      O 3534   3.844   1.097   1.143
 1108WAT     H1 3535   3.776   1.048   1.190
 1108WAT     H2 3536   3.918   1.099   1.203
 1109WAT      O 3537   3.862   1.484   1.176
 1109WAT     H1 3538   3.903   1.405   1.140
 1109WAT     H2 3539   3.920   1.555   1.150
 1110WAT      O 3540   3.694   0.597   0.517
 1110WAT     H1 3541   3.600   0.607   0.504
 1110WAT     H2 3542   3.728   0.576   0.429
 1111WAT      O 3543   3.478   0.814   1.090
 1111WAT     H1 3544   3.549   0.751   1.104
 1111WAT     H2 3545   3.505   0.863   1.012
 1112WAT      O 3546   4.471   1.722   0.911
 1112WAT     H1 3547   4.408   1.751   0.846
 1112WAT     H2 3548   4.554   1.762   0.883
 1113WAT      O 3549   4.375   1.315   1.067
 1113WAT     H1 3550   4.398   1.223   1.051
 1113WAT     H2 3551   4.447   1.349   1.120
 1114WAT      O 3552   3.608   0.393   1.300
 1114WAT     H1 3553   3.607   0.305   1.337
 1114WAT     H2 3554   3.544   0.442   1.353
 1115WAT      O 3555   4.496   0.611   1.071
 1115WAT     H1 3556   4.547   0.535   1.098
 1115WAT     H2 3557   4.513   0.618   0.977
 1116WAT      O 3558   3.919   0.447   0.617
 1116WAT     H1 3559   3.943   0.521   0.673
 1116WAT     H2 3560   3.824   0.456   0.604
 1117WAT      O 3561   3.675   0.624   1.156
 1117WAT     H1 3562   3.758   0.646   1.197
 1117WAT     H2 3563   3.647   0.543   1.198
 1118WAT      O 3564   4.105   0.751   1.067
 1118WAT     H1 3565   4.172   0.800   1.115
 1118WAT     H2 3566   4.145   0.666   1.051
 1119WAT      O 3567   4.565   1.212   0.622
 1119WAT     H1 3568   4.505   1.249   0.557
 1119WAT     H2 3569   4.580   1.284   0.684
 1120WAT      O 3570   4.065   1.173   1.309
 1120WAT     H1 3571   4.022   1.230   1.373
 1120WAT     H2 3572   4.080   1.229   1.233
 1121WAT      O 3573   3.893   0.373   1.285
 1121WAT     H1 3574   3.924   0.463   1.277
 1121WAT     H2 3575   3.798   0.382   1.296
 1122WAT      O 3576   3.979   1.375   1.477
 1122WAT     H1 3577   4.035   1.446   1.446
 1122WAT     H2 3578   3.890   1.407   1.464
 1123WAT      O 3579   3.496   1.265   0.387
 1123WAT     H1 3580   3.499   1.318   0.308
 1123WAT     H2 3581   3.513   1.328   0.458
 1124WAT      O 3582   4.506   0.936   0.610
 1124WAT     H1 3583   4.411   0.942   0.617
 1124WAT     H2 3584   4.535   1.026   0.599
 1125WAT      O 3585   4.504   0.534   0.298
 1125WAT     H1 3586   4.413   0.554   0.321
 1125WAT     H2 3587   4.530   0.608   0.243
 1126WAT      O 3588   4.057   0.965   0.862
 1126WAT     H1 3589   4.025   0.892   0.810
 1126WAT     H2 3590   4.074   0.928   0.948
 1127WAT      O 3591   4.104   1.332   1.088
 1127WAT     H1 3592   4.071   1.293   1.007
 1127WAT     H2 3593   4.199   1.334   1.077
 1128WAT      O 3594   3.928   0.654   1.257
 1128WAT     H1 3595   3.982   0.683   1.183
 1128WAT     H2 3596   3.965   0.701   1.333
 1129WAT      O 3597   4.021   1.331   1.743
 1129WAT     H1 3598   3.933   1.346   1.777
 1129WAT     H2 3599   4.011   1.338   1.648
 1130WAT      O 3600   4.725   1.008   0.340
 1130WAT     H1 3601   4.770   0.926   0.323
 1130WAT     H2 3602   4.795   1.069   0.366
 1131WAT      O 3603   3.900   1.018   1.606
 1131WAT     H1 3604   3.872   1.109   1.617
 1131WAT     H2 3605   3.819   0.971   1.585
 1132WAT      O 3606   4.520   1.486   0.739
 1132WAT     H1 3607   4.569   1.559   0.699
 1132WAT     H2 3608   4.505   1.514   0.829
 1133WAT      O 3609   4.095   1.601   1.827
 1133WAT     H1 3610   4.084   1.650   1.746
 1133WAT     H2 3611   4.064   1.512   1.805
 1134WAT      O 3612   3.727   0.861   0.632
 1134WAT     H1 3613   3.721   0.933   0.569
 1134WAT     H2 3614   3.711   0.783   0.580
 1135WAT      O 3615   3.482   1.175   1.213
 1135WAT     H1 3616   3.473   1.189   1.119
 1135WAT     H2 3617   3.556   1.114   1.221
 1136WAT      O 3618   3.608   1.354   0.835
 1136WAT     H1 3619   3.591   1.381   0.745
 1136WAT     H2 3620   3.698   1.321   0.833
 1137WAT      O 3621   4.597   1.765   1.538
 1137WAT     H1 3622   4.627   1.731   1.622
 1137WAT     H2 3623   4.510   1.802   1.557
 1138WAT      O 3624   4.773   1.796   0.483
 1138WAT     H1 3625   4.760   1.766   0.573
 1138WAT     H2 3626   4.803   1.719   0.435
 1139WAT      O 3627   4.036   1.762   0.642
 1139WAT     H1 3628   4.011   1.670   0.654
 1139WAT     H2 3629   3.958   1.811   0.671
 1140WAT      O 3630   4.735   1.709   0.742
 1140WAT     H1 3631   4.779   1.644   0.797
 1140WAT     H2 3632   4.740   1.790   0.793
 1141WAT      O 3633   3.501   1.305   1.463
 1141WAT     H1 3634   3.494   1.258   1.380
 1141WAT     H2 3635   3.559   1.252   1.516
 1142WAT      O 3636   3.994   0.227   0.950
 1142WAT     H1 3637   3.935   0.301   0.936
 1142WAT     H2 3638   4.016   0.231   1.043
 1143WAT      O 3639   4.398   0.482   1.526
 1143WAT     H1 3640   4.337   0.507   1.595
 1143WAT     H2 3641   4.358   0.406   1.485
 1144WAT      O 3642   4.616   0.767   1.843
 1144WAT     H1 3643   4.636   0.676   1.820
 1144WAT     H2 3644   4.701   0.806   1.862
 1145WAT      O 3645   4.198   0.256   1.154
 1145WAT     H1 3646   4.197   0.349   1.134
 1145WAT     H2 3647   4.235   0.215   1.075
 1146WAT      O 3648   3.953   0.718   0.748
 1146WAT     H1 3649   3.919   0.674   0.825
 1146WAT     H2 3650   3.877   0.762   0.710
 1147WAT      O 3651   4.665   0.710   0.593
 1147WAT     H1 3652   4.609   0.788   0.588
 1147WAT     H2 3653   4.712   0.709   0.510
 1148WAT      O 3654   4.203   0.808   1.792
 1148WAT     H1 3655   4.201   0.714   1.771
 1148WAT     H2 3656   4.284   0.839   1.752
 1149WAT      O 3657   4.557   0.588   0.810
 1149WAT     H1 3658   4.590   0.622   0.727
 1149WAT     H2 3659   4.562   0.493   0.801
 1150WAT      O 3660   3.726   0.454   1.621
 1150WAT     H1 3661   3.673   0.531   1.644
 1150WAT     H2 3662   3.664   0.381   1.625
 1151WAT      O 3663   4.373   0.442   1.929
 1151WAT     H1 3664   4.312   0.393   1.984
 1151WAT     H2 3665   4.433   0.484   1.992
 1152WAT      O 3666   3.452   0.240   1.022
 1152WAT     H1 3667   3.409   0.309   1.073
 1152WAT     H2 3668   3.506   0.193   1.085
 1153WAT      O 3669   4.590   0.842   1.223
 1153WAT     H1 3670   4.501   0.869   1.246
 1153WAT     H2 3671   4.579   0.762   1.171
 1154WAT      O 3672   4.240   0.511   1.046
 1154WAT     H1 3673   4.246   0.476   0.957
 1154WAT     H2 3674   4.328   0.545   1.063
 1155WAT      O 3675   3.814   0.501   0.929
 1155WAT     H1 3676   3.781   0.542   1.009
 1155WAT     H2 3677   3.736   0.461   0.889
 1156WAT      O 3678   4.250   0.608   0.370
 1156WAT     H1 3679   4.243   0.608   0.465
 1156WAT     H2 3680   4.213   0.692   0.343
 1157WAT      O 3681   4.633   0.389   1.146
 1157WAT     H1 3682   4.649   0.427   1.232
 1157WAT     H2 3683   4.621   0.295   1.163
 1158WAT      O 3684   4.145   0.842   0.260
 1158WAT     H1 3685   4.095   0.802   0.189
 1158WAT     H2 3686   4.218   0.886   0.215
 1159WAT      O 3687   3.669   1.215   1.670
 1159WAT     H1 3688   3.625   1.158   1.733
 1159WAT     H2 3689   3.697   1.290   1.722
 1160WAT      O 3690   4.279   0.914   1.220
 1160WAT     H1 3691   4.298   0.855   1.293
 1160WAT     H2 3692   4.232   0.987   1.261
 1161WAT      O 3693   3.569   0.382   0.823
 1161WAT     H1 3694   3.529   0.332   0.894
 1161WAT     H2 3695   3.584   0.318   0.753
 1162WAT      O 3696   4.049   0.807   1.462
 1162WAT     H1 3697   4.024   0.893   1.496
 1162WAT     H2 3698   4.145   0.808   1.464
 1163WAT      O 3699   3.915   1.244   0.523
 1163WAT     H1 3700   3.836   1.190   0.517
 1163WAT     H2 3701   3.985   1.189   0.489
 1164WAT      O 3702   4.518   0.291   0.512
 1164WAT     H1 3703   4.450   0.235   0.475
 1164WAT     H2 3704   4.524   0.365   0.451
 1165WAT      O 3705   4.506   1.150   1.693
 1165WAT     H1 3706   4.514   1.063   1.654
 1165WAT     H2 3707   4.423   1.147   1.741
 1166WAT      O 3708   3.911   1.214   0.901
 1166WAT     H1 3709   3.956   1.138   0.863
 1166WAT     H2 3710   3.871   1.180   0.981
 1167WAT      O 3711   4.406   1.335   0.415
 1167WAT     H1 3712   4.410   1.408   0.354
 1167WAT     H2 3713   4.320   1.342   0.456
 1168WAT      O 3714   3.647   0.911   1.567
 1168WAT     H1 3715   3.603   0.966   1.633
 1168WAT     H2 3716   3.633   0.822   1.597
 1169WAT      O 3717   3.974   0.949   1.863
 1169WAT     H1 3718   3.955   0.976   1.773
 1169WAT     H2 3719   4.055   0.899   1.856
 1170WAT      O 3720   4.511   1.418   1.657
 1170WAT     H1 3721   4.508   1.322   1.657
 1170WAT     H2 3722   4.443   1.444   1.719
 1171WAT      O 3723   4.681   1.255   0.934
 1171WAT     H1 3724   4.719   1.184   0.882
 1171WAT     H2 3725   4.594   1.223   0.958
 1172WAT      O 3726   4.279   1.329   0.688
 1172WAT     H1 3727   4.357   1.381   0.708
 1172WAT     H2 3728   4.207   1.392   0.693
 1173WAT      O 3729   3.503   0.882   0.247
 1173WAT     H1 3730   3.598   0.888   0.256
 1173WAT     H2 3731   3.474   0.974   0.248
 1174WAT      O 3732   4.243   1.048   0.657
 1174WAT     H1 3733   4.265   1.140   0.675
 1174WAT     H2 3734   4.189   1.022   0.732
 1175WAT      O 3735   4.439   1.590   1.360
 1175WAT     H1 3736   4.496   1.627   1.427
 1175WAT     H2 3737   4.484   1.511   1.332
 1176WAT      O 3738   4.589   1.392   1.233
 1176WAT     H1 3739   4.641   1.314   1.251
 1176WAT     H2 3740   4.653   1.458   1.205
 1177WAT      O 3741   4.758   1.469   1.551
 1177WAT     H1 3742   4.796   1.513   1.627
 1177WAT     H2 3743   4.668   1.449   1.577
 1178WAT      O 3744   3.562   1.825   0.320
 1178WAT     H1 3745   3.588   1.866   0.237
 1178WAT     H2 3746   3.555   1.898   0.381
 1179WAT      O 3747   3.531   0.258   1.651
 1179WAT     H1 3748   3.440   0.264   1.680
 1179WAT     H2 3749   3.553   0.165   1.661
 1180WAT      O 3750   3.540   1.646   1.714
 1180WAT     H1 3751   3.550   1.551   1.710
 1180WAT     H2 3752   3.455   1.662   1.672
 1181WAT      O 3753   4.338   1.468   1.870
 1181WAT     H1 3754   4.302   1.396   1.921
 1181WAT     H2 3755   4.263   1.527   1.856
 1182WAT      O 3756   4.155   1.558   0.367
 1182WAT     H1 3757   4.151   1.606   0.284
 1182WAT     H2 3758   4.066   1.526   0.381
 1183WAT      O 3759   3.699   1.087   0.449
 1183WAT     H1 3760   3.629   1.149   0.429
 1183WAT     H2 3761   3.735   1.063   0.363
 1184WAT      O 3762   4.648   0.467   1.401
 1184WAT     H1 3763   4.708   0.448   1.473
 1184WAT     H2 3764   4.565   0.490   1.444
 1185WAT      O 3765   4.199   0.617   0.633
 1185WAT     H1 3766   4.125   0.661   0.675
 1185WAT     H2 3767   4.230   0.556   0.699
 1186WAT      O 3768   4.339   0.764   1.438
 1186WAT     H1 3769   4.399   0.809   1.498
 1186WAT     H2 3770   4.363   0.672   1.446
 1187WAT      O 3771   4.589   0.316   0.772
 1187WAT     H1 3772   4.573   0.300   0.679
 1187WAT     H2 3773   4.680   0.289   0.786
 1188WAT      O 3774   4.304   1.813   0.706
 1188WAT     H1 3775   4.345   1.821   0.620
 1188WAT     H2 3776   4.212   1.795   0.686
 1189WAT      O 3777   4.000   0.470   0.355
 1189WAT     H1 3778   4.091   0.499   0.354
 1189WAT     H2 3779   3.980   0.454   0.447
 1190WAT      O 3780   3.779   0.843   0.291
 1190WAT     H1 3781   3.762   0.750   0.276
 1190WAT     H2 3782   3.871   0.847   0.316
 1191WAT      O 3783   3.863   1.848   1.005
 1191WAT     H1 3784   3.930   1.787   1.035
 1191WAT     H2 3785   3.911   1.928   0.985
 1192WAT      O 3786   3.536   1.451   0.585
 1192WAT     H1 3787   3.446   1.485   0.585
 1192WAT     H2 3788   3.590   1.526   0.560
 1193WAT      O 3789   3.764   1.742   1.929
 1193WAT     H1 3790   3.847   1.776   1.962
 1193WAT     H2 3791   3.712   1.727   2.007
 1194WAT      O 3792   4.647   1.366   1.922
 1194WAT     H1 3793   4.598   1.364   1.840
 1194WAT     H2 3794   4.609   1.296   1.975
 1195WAT      O 3795   3.538   1.018   1.812
 1195WAT     H1 3796   3.588   0.949   1.856
 1195WAT     H2 3797   3.461   1.030   1.867
 1196WAT      O 3798   4.237   1.153   1.759
 1196WAT     H1 3799   4.160   1.211   1.761
 1196WAT     H2 3800   4.241   1.122   1.669
 1197WAT      O 3801   4.544   1.184   0.226
 1197WAT     H1 3802   4.494   1.222   0.298
 1197WAT     H2 3803   4.599   1.117   0.267
 1198WAT      O 3804   3.720   0.821   1.895
 1198WAT     H1 3805   3.726   0.806   1.989
 1198WAT     H2 3806   3.808   0.847   1.868
 1199WAT      O 3807   4.096   1.066   0.425
 1199WAT     H1 3808   4.155   1.057   0.500
 1199WAT     H2 3809   4.113   0.989   0.372
 1200WAT      O 3810   3.927   0.678   1.697
 1200WAT     H1 3811   3.867   0.627   1.642
 1200WAT     H2 3812   3.988   0.718   1.635
 1201WAT      O 3813   3.976   0.375   1.715
 1201WAT     H1 3814   3.991   0.308   1.647
 1201WAT     H2 3815   3.896   0.419   1.688
 1202WAT      O 3816   4.258   0.259   1.422
 1202WAT     H1 3817   4.231   0.255   1.330
 1202WAT     H2 3818   4.205   0.192   1.466
 1203WAT      O 3819   4.267   1.119   1.484
 1203WAT     H1 3820   4.333   1.183   1.458
 1203WAT     H2 3821   4.193   1.136   1.425
 1204WAT      O 3822   4.514   0.875   1.616
 1204WAT     H1 3823   4.546   0.833   1.696
 1204WAT     H2 3824   4.594   0.896   1.567
 1205WAT      O 3825   4.735   0.960   1.488
 1205WAT     H1 3826   4.728   0.946   1.393
 1205WAT     H2 3827   4.802   1.027   1.497
 1206WAT      O 3828   4.091   1.758   1.588
 1206WAT     H1 3829   4.009   1.801   1.562
 1206WAT     H2 3830   4.109   1.697   1.517
 1207WAT      O 3831   4.215   0.539   1.727
 1207WAT     H1 3832   4.263   0.505   1.802
 1207WAT     H2 3833   4.133   0.488   1.726
 1208WAT      O 3834   4.686   0.512   1.774
 1208WAT     H1 3835   4.608   0.462   1.750
 1208WAT     H2 3836   4.751   0.446   1.797
 1209WAT      O 3837   4.357   1.864   1.606
 1209WAT     H1 3838   4.348   1.952   1.644
 1209WAT     H2 3839   4.268   1.830   1.603
 1210WAT      O 3840   4.414   1.793   0.382
 1210WAT     H1 3841   4.499   1.837   0.374
 1210WAT     H2 3842   4.417   1.722   0.318
 1211WAT      O 3843   3.774   1.298   0.204
 1211WAT     H1 3844   3.809   1.374   0.251
 1211WAT     H2 3845   3.852   1.254   0.169
 1212WAT      O 3846   3.504   1.599   0.945
 1212WAT     H1 3847   3.544   1.516   0.922
 1212WAT     H2 3848   3.536   1.619   1.032
 1213WAT      O 3849   3.980   1.436   0.712
 1213WAT     H1 3850   3.949   1.396   0.793
 1213WAT     H2 3851   3.962   1.371   0.644
 1214WAT      O 3852   3.549   1.692   1.202
 1214WAT     H1 3853   3.506   1.705   1.287
 1214WAT     H2 3854   3.588   1.777   1.182
 1215WAT      O 3855   3.526   0.933   0.833
 1215WAT     H1 3856   3.459   0.917   0.766
 1215WAT     H2 3857   3.609   0.918   0.787
 1216WAT      O 3858   3.649   0.972   1.296
 1216WAT     H1 3859   3.657   0.955   1.390
 1216WAT     H2 3860   3.588   0.905   1.265
 1217WAT      O 3861   3.586   0.675   1.697
 1217WAT     H1 3862   3.499   0.655   1.733
 1217WAT     H2 3863   3.635   0.711   1.770
 1218WAT      O 3864   3.448   0.658   0.407
 1218WAT     H1 3865   3.366   0.684   0.449
 1218WAT     H2 3866   3.468   0.730   0.347
 1219WAT      O 3867   3.727   0.578   0.236
 1219WAT     H1 3868   3.795   0.515   0.213
 1219WAT     H2 3869   3.654   0.557   0.178
 1220WAT      O 3870   3.769   1.434   1.816
 1220WAT     H1 3871   3.769   1.398   1.905
 1220WAT     H2 3872   3.773   1.529   1.829
 1221WAT      O 3873   4.151   1.583   1.383
 1221WAT     H1 3874   4.125   1.607   1.294
 1221WAT     H2 3875   4.247   1.582   1.380
 1222WAT      O 3876   4.362   0.220   1.769
 1222WAT     H1 3877   4.369   0.300   1.822
 1222WAT     H2 3878   4.448   0.210   1.729
 1223WAT      O 3879   3.760   1.727   1.548
 1223WAT     H1 3880   3.690   1.706   1.611
 1223WAT     H2 3881   3.763   1.651   1.490
 1224WAT      O 3882   3.729   1.478   1.419
 1224WAT     H1 3883   3.646   1.430   1.423
 1224WAT     H2 3884   3.749   1.484   1.326
 1225WAT      O 3885   4.094   1.679   1.114
 1225WAT     H1 3886   4.133   1.619   1.049
 1225WAT     H2 3887   4.164   1.741   1.133
 1226WAT      O 3888   4.360   1.773   1.168
 1226WAT     H1 3889   4.405   1.751   1.087
 1226WAT     H2 3890   4.395   1.712   1.233
 1227WAT      O 3891   3.566   1.786   0.738
 1227WAT     H1 3892   3.547   1.729   0.813
 1227WAT     H2 3893   3.479   1.808   0.702
 1228WAT      O 3894   3.615   0.192   0.506
 1228WAT     H1 3895   3.689   0.206   0.446
 1228WAT     H2 3896   3.548   0.254   0.476
 1229WAT      O 3897   4.257   0.391   0.801
 1229WAT     H1 3898   4.184   0.336   0.771
 1229WAT     H2 3899   4.334   0.336   0.789
 1230WAT      O 3900   3.698   1.658   0.496
 1230WAT     H1 3901   3.659   1.706   0.423
 1230WAT     H2 3902   3.691   1.718   0.571
 1231WAT      O 3903   4.357   1.870   1.928
 1231WAT     H1 3904   4.447   1.837   1.931
 1231WAT     H2 3905   4.363   1.949   1.875
 1232WAT      O 3906   3.997   1.880   0.386
 1232WAT     H1 3907   4.044   1.824   0.324
 1232WAT     H2 3908   4.008   1.836   0.470
 1233WAT      O 3909   3.890   1.479   0.385
 1233WAT     H1 3910   3.828   1.536   0.430
 1233WAT     H2 3911   3.895   1.401   0.441
 1234WAT      O 3912   2.760   4.626   4.611
 1234WAT     H1 3913   2.742   4.533   4.607
 1234WAT     H2 3914   2.711   4.664   4.538
 1235WAT      O 3915   2.577   4.807   4.800
 1235WAT     H1 3916   2.511   4.756   4.846
 1235WAT     H2 3917   2.647   4.745   4.782
 1236WAT      O 3918   1.966   4.852   4.898
 1236WAT     H1 3919   1.899   4.803   4.946
 1236WAT     H2 3920   2.041   4.855   4.958
 1237WAT      O 3921   2.984   5.233   4.667
 1237WAT     H1 3922   2.936   5.159   4.705
 1237WAT     H2 3923   3.054   5.250   4.730
 1238WAT      O 3924   1.978   5.242   4.925
 1238WAT     H1 3925   2.021   5.162   4.895
 1238WAT     H2 3926   2.044   5.310   4.914
 1239WAT      O 3927   1.823   4.336   4.272
 1239WAT     H1 3928   1.730   4.357   4.267
 1239WAT     H2 3929   1.848   4.316   4.181
 1240WAT      O 3930   1.601   4.570   4.846
 1240WAT     H1 3931   1.671   4.506   4.859
 1240WAT     H2 3932   1.627   4.618   4.767
 1241WAT      O 3933   2.501   5.069   4.820
 1241WAT     H1 3934   2.522   4.977   4.805
 1241WAT     H2 3935   2.570   5.099   4.880
 1242WAT      O 3936   1.733   4.147   5.052
 1242WAT     H1 3937   1.730   4.055   5.080
 1242WAT     H2 3938   1.668   4.191   5.107
 1243WAT      O 3939   2.619   4.358   4.823
 1243WAT     H1 3940   2.669   4.282   4.852
 1243WAT     H2 3941   2.639   4.366   4.730
 1244WAT      O 3942   2.040   4.198   4.382
 1244WAT     H1 3943   2.063   4.275   4.435
 1244WAT     H2 3944   1.950   4.215   4.353
 1245WAT      O 3945   3.013   4.109   4.521
 1245WAT     H1 3946   3.089   4.053   4.538
 1245WAT     H2 3947   3.014   4.173   4.592
 1246WAT      O 3948   1.797   4.379   4.910
 1246WAT     H1 3949   1.880   4.401   4.952
 1246WAT     H2 3950   1.769   4.298   4.952
 1247WAT      O 3951   2.228   4.505   4.821
 1247WAT     H1 3952   2.293   4.555   4.871
 1247WAT     H2 3953   2.269   4.420   4.806
 1248WAT      O 3954   3.419   4.309   5.188
 1248WAT     H1 3955   3.362   4.371   5.144
 1248WAT     H2 3956   3.463   4.360   5.256
 1249WAT      O 3957   2.049   3.943   5.240
 1249WAT     H1 3958   2.053   4.008   5.170
 1249WAT     H2 3959   1.964   3.901   5.229
 1250WAT      O 3960   2.689   4.965   4.380
 1250WAT     H1 3961   2.630   4.998   4.312
 1250WAT     H2 3962   2.713   5.043   4.430
 1251WAT      O 3963   2.185   4.929   5.064
 1251WAT     H1 3964   2.145   4.987   5.129
 1251WAT     H2 3965   2.202   4.985   4.989
 1252WAT      O 3966   3.043   4.282   4.801
 1252WAT     H1 3967   2.960   4.299   4.845
 1252WAT     H2 3968   3.077   4.369   4.779
 1253WAT      O 3969   2.012   4.128   5.044
 1253WAT     H1 3970   2.046   4.216   5.029
 1253WAT     H2 3971   1.917   4.139   5.044
 1254WAT      O 3972   2.101   5.129   5.237
 1254WAT     H1 3973   2.161   5.197   5.207
 1254WAT     H2 3974   2.014   5.164   5.219
 1255WAT      O 3975   1.625   5.020   4.138
 1255WAT     H1 3976   1.592   5.071   4.064
 1255WAT     H2 3977   1.639   5.085   4.207
 1256WAT      O 3978   3.174   5.267   5.048
 1256WAT     H1 3979   3.107   5.334   5.033
 1256WAT     H2 3980   3.230   5.272   4.971
 1257WAT      O 3981   3.321   4.237   4.853
 1257WAT     H1 3982   3.226   4.248   4.862
 1257WAT     H2 3983   3.358   4.311   4.900
 1258WAT      O 3984   2.378   3.878   4.667
 1258WAT     H1 3985   2.407   3.817   4.599
 1258WAT     H2 3986   2.285   3.890   4.649
 1259WAT      O 3987   3.077   5.112   4.416
 1259WAT     H1 3988   3.060   5.019   4.429
 1259WAT     H2 3989   3.042   5.154   4.495
 1260WAT      O 3990   2.895   4.938   5.037
 1260WAT     H1 3991   2.941   4.910   4.958
 1260WAT     H2 3992   2.964   4.968   5.096
 1261WAT      O 3993   2.628   4.691   4.373
 1261WAT     H1 3994   2.532   4.694   4.371
 1261WAT     H2 3995   2.656   4.781   4.356
 1262WAT      O 3996   2.622   4.299   4.026
 1262WAT     H1 3997   2.536   4.318   4.062
 1262WAT     H2 3998   2.668   4.383   4.028
 1263WAT      O 3999   3.268   4.774   5.048
 1263WAT     H1 4000   3.197   4.804   4.991
 1263WAT     H2 4001   3.344   4.824   5.017
 1264WAT      O 4002   3.021   4.840   4.412
 1264WAT     H1 4003   2.953   4.807   4.353
 1264WAT     H2 4004   3.019   4.782   4.487
 1265WAT      O 4005   2.973   4.458   5.138
 1265WAT     H1 4006   2.931   4.543   5.153
 1265WAT     H2 4007   2.900   4.397   5.127
 1266WAT      O 4008   2.180   4.720   4.617
 1266WAT     H1 4009   2.149   4.646   4.565
 1266WAT     H2 4010   2.197   4.683   4.703
 1267WAT      O 4011   2.227   5.082   4.843
 1267WAT     H1 4012   2.195   5.047   4.760
 1267WAT     H2 4013   2.322   5.088   4.832
 1268WAT      O 4014   2.052   4.407   5.011
 1268WAT     H1 4015   2.104   4.437   4.937
 1268WAT     H2 4016   2.088   4.455   5.086
 1269WAT      O 4017   2.149   5.086   5.501
 1269WAT     H1 4018   2.061   5.082   5.538
 1269WAT     H2 4019   2.135   5.094   5.407
 1270WAT      O 4020   2.847   4.769   4.103
 1270WAT     H1 4021   2.880   4.680   4.089
 1270WAT     H2 4022   2.925   4.824   4.102
 1271WAT      O 4023   2.026   4.766   5.354
 1271WAT     H1 4024   2.002   4.857   5.371
 1271WAT     H2 4025   1.943   4.722   5.335
 1272WAT      O 4026   2.636   5.246   4.498
 1272WAT     H1 4027   2.693   5.303   4.446
 1272WAT     H2 4028   2.666   5.257   4.588
 1273WAT      O 4029   2.207   5.351   5.583
 1273WAT     H1 4030   2.190   5.391   5.498
 1273WAT     H2 4031   2.201   5.256   5.567
 1274WAT      O 4032   3.184   3.888   3.930
 1274WAT     H1 4033   3.177   3.879   4.025
 1274WAT     H2 4034   3.268   3.932   3.916
 1275WAT      O 4035   1.850   4.617   4.384
 1275WAT     H1 4036   1.846   4.690   4.322
 1275WAT     H2 4037   1.835   4.539   4.329
 1276WAT      O 4038   1.606   4.931   4.966
 1276WAT     H1 4039   1.595   4.943   4.872
 1276WAT     H2 4040   1.678   4.869   4.975
 1277WAT      O 4041   1.731   5.110   4.589
 1277WAT     H1 4042   1.713   5.134   4.498
 1277WAT     H2 4043   1.820   5.075   4.587
 1278WAT      O 4044   3.331   5.138   5.424
 1278WAT     H1 4045   3.373   5.125   5.339
 1278WAT     H2 4046   3.336   5.052   5.466
 1279WAT      O 4047   2.890   5.317   4.090
 1279WAT     H1 4048   2.809   5.301   4.042
 1279WAT     H2 4049   2.957   5.270   4.040
 1280WAT      O 4050   3.330   4.360   5.518
 1280WAT     H1 4051   3.289   4.432   5.470
 1280WAT     H2 4052   3.265   4.290   5.516
 1281WAT      O 4053   1.623   5.057   5.215
 1281WAT     H1 4054   1.615   5.011   5.131
 1281WAT     H2 4055   1.683   5.003   5.267
 1282WAT      O 4056   2.102   3.967   4.720
 1282WAT     H1 4057   2.059   4.048   4.693
 1282WAT     H2 4058   2.149   3.991   4.800
 1283WAT      O 4059   2.519   4.241   5.274
 1283WAT     H1 4060   2.465   4.260   5.351
 1283WAT     H2 4061   2.483   4.159   5.240
 1284WAT      O 4062   3.043   4.333   5.378
 1284WAT     H1 4063   2.958   4.325   5.421
 1284WAT     H2 4064   3.025   4.389   5.302
 1285WAT      O 4065   2.734   4.514   5.582
 1285WAT     H1 4066   2.757   4.422   5.570
 1285WAT     H2 4067   2.814   4.555   5.616
 1286WAT      O 4068   2.403   3.921   4.201
 1286WAT     H1 4069   2.333   3.919   4.266
 1286WAT     H2 4070   2.422   3.829   4.183
 1287WAT      O 4071   2.311   4.013   4.901
 1287WAT     H1 4072   2.325   4.104   4.877
 1287WAT     H2 4073   2.355   3.962   4.833
 1288WAT      O 4074   2.075   4.472   4.503
 1288WAT     H1 4075   2.039   4.431   4.581
 1288WAT     H2 4076   2.001   4.516   4.462
 1289WAT      O 4077   2.789   4.464   4.341
 1289WAT     H1 4078   2.735   4.543   4.337
 1289WAT     H2 4079   2.838   4.464   4.258
 1290WAT      O 4080   2.320   4.558   5.545
 1290WAT     H1 4081   2.324   4.465   5.525
 1290WAT     H2 4082   2.409   4.590   5.529
 1291WAT      O 4083   2.690   4.341   4.564
 1291WAT     H1 4084   2.718   4.375   4.478
 1291WAT     H2 4085   2.689   4.246   4.553
 1292WAT      O 4086   1.845   4.203   5.371
 1292WAT     H1 4087   1.794   4.283   5.387
 1292WAT     H2 4088   1.780   4.133   5.372
 1293WAT      O 4089   1.566   3.987   4.771
 1293WAT     H1 4090   1.542   4.054   4.835
 1293WAT     H2 4091   1.631   3.933   4.816
 1294WAT      O 4092   1.600   4.390   3.881
 1294WAT     H1 4093   1.592   4.483   3.901
 1294WAT     H2 4094   1.537   4.375   3.810
 1295WAT      O 4095   2.715   4.585   4.959
 1295WAT     H1 4096   2.640   4.622   5.005
 1295WAT     H2 4097   2.680   4.505   4.918
 1296WAT      O 4098   2.363   4.264   4.796
 1296WAT     H1 4099   2.368   4.231   4.706
 1296WAT     H2 4100   2.451   4.297   4.814
 1297WAT      O 4101   1.938   4.251   4.686
 1297WAT     H1 4102   1.904   4.295   4.764
 1297WAT     H2 4103   1.860   4.213   4.644
 1298WAT      O 4104   2.376   4.364   4.124
 1298WAT     H1 4105   2.364   4.367   4.219
 1298WAT     H2 4106   2.338   4.446   4.092
 1299WAT      O 4107   2.762   4.141   4.909
 1299WAT     H1 4108   2.771   4.176   4.998
 1299WAT     H2 4109   2.722   4.055   4.921
 1300WAT      O 4110   2.268   4.600   4.019
 1300WAT     H1 4111   2.221   4.545   3.955
 1300WAT     H2 4112   2.342   4.635   3.969
 1301WAT      O 4113   3.082   3.839   5.486
 1301WAT     H1 4114   3.163   3.816   5.531
 1301WAT     H2 4115   3.108   3.851   5.395
 1302WAT      O 4116   1.789   4.970   5.430
 1302WAT     H1 4117   1.748   4.903   5.485
 1302WAT     H2 4118   1.800   5.045   5.488
 1303WAT      O 4119   2.401   4.669   4.975
 1303WAT     H1 4120   2.423   4.609   5.046
 1303WAT     H2 4121   2.357   4.742   5.017
 1304WAT      O 4122   1.693   4.137   4.582
 1304WAT     H1 4123   1.652   4.088   4.653
 1304WAT     H2 4124   1.702   4.073   4.511
 1305WAT      O 4125   2.173   4.564   5.209
 1305WAT     H1 4126   2.143   4.645   5.250
 1305WAT     H2 4127   2.268   4.566   5.218
 1306WAT      O 4128   2.040   4.993   4.277
 1306WAT     H1 4129   1.962   4.939   4.267
 1306WAT     H2 4130   2.111   4.939   4.242
 1307WAT      O 4131   3.106   4.875   4.840
 1307WAT     H1 4132   3.177   4.925   4.800
 1307WAT     H2 4133   3.077   4.816   4.771
 1308WAT      O 4134   2.650   4.035   4.253
 1308WAT     H1 4135   2.565   3.993   4.241
 1308WAT     H2 4136   2.642   4.119   4.209
 1309WAT      O 4137   2.647   4.899   5.448
 1309WAT     H1 4138   2.642   4.813   5.407
 1309WAT     H2 4139   2.565   4.908   5.495
 1310WAT      O 4140   2.922   4.460   4.098
 1310WAT     H1 4141   3.006   4.500   4.074
 1310WAT     H2 4142   2.928   4.371   4.063
 1311WAT      O 4143   2.031   4.967   4.655
 1311WAT     H1 4144   2.077   4.892   4.618
 1311WAT     H2 4145   1.993   4.933   4.736
 1312WAT      O 4146   2.539   5.084   4.169
 1312WAT     H1 4147   2.561   5.162   4.118
 1312WAT     H2 4148   2.453   5.104   4.207
 1313WAT      O 4149   1.769   4.667   5.321
 1313WAT     H1 4150   1.725   4.718   5.388
 1313WAT     H2 4151   1.759   4.576   5.349
 1314WAT      O 4152   2.094   4.701   5.618
 1314WAT     H1 4153   2.070   4.715   5.527
 1314WAT     H2 4154   2.175   4.651   5.615
 1315WAT      O 4155   2.640   5.171   5.400
 1315WAT     H1 4156   2.645   5.075   5.408
 1315WAT     H2 4157   2.568   5.196   5.457
 1316WAT      O 4158   3.148   4.604   4.034
 1316WAT     H1 4159   3.136   4.640   3.946
 1316WAT     H2 4160   3.214   4.661   4.074
 1317WAT      O 4161   3.257   4.852   5.331
 1317WAT     H1 4162   3.181   4.910   5.321
 1317WAT     H2 4163   3.289   4.839   5.241
 1318WAT      O 4164   3.268   5.270   4.297
 1318WAT     H1 4165   3.206   5.214   4.343
 1318WAT     H2 4166   3.215   5.321   4.236
 1319WAT      O 4167   2.812   5.011   4.695
 1319WAT     H1 4168   2.840   4.946   4.630
 1319WAT     H2 4169   2.725   4.981   4.722
 1320WAT      O 4170   2.402   5.086   4.441
 1320WAT     H1 4171   2.478   5.139   4.464
 1320WAT     H2 4172   2.328   5.147   4.447
 1321WAT      O 4173   1.618   4.643   3.987
 1321WAT     H1 4174   1.707   4.656   4.019
 1321WAT     H2 4175   1.586   4.731   3.970
 1322WAT      O 4176   2.362   4.807   4.410
 1322WAT     H1 4177   2.386   4.897   4.429
 1322WAT     H2 4178   2.310   4.780   4.486
 1323WAT      O 4179   2.558   5.340   5.123
 1323WAT     H1 4180   2.610   5.346   5.203
 1323WAT     H2 4181   2.597   5.268   5.074
 1324WAT      O 4182   1.949   3.817   4.449
 1324WAT     H1 4183   1.908   3.794   4.533
 1324WAT     H2 4184   1.877   3.847   4.394
 1325WAT      O 4185   2.710   5.144   4.992
 1325WAT     H1 4186   2.758   5.064   5.014
 1325WAT     H2 4187   2.777   5.201   4.953
 1326WAT      O 4188   3.083   5.161   3.958
 1326WAT     H1 4189   3.064   5.086   4.014
 1326WAT     H2 4190   3.065   5.129   3.869
 1327WAT      O 4191   2.902   5.219   5.332
 1327WAT     H1 4192   2.909   5.302   5.380
 1327WAT     H2 4193   2.809   5.196   5.339
 1328WAT      O 4194   1.647   4.007   5.390
 1328WAT     H1 4195   1.565   4.013   5.440
 1328WAT     H2 4196   1.698   3.941   5.436
 1329WAT      O 4197   3.053   4.957   4.137
 1329WAT     H1 4198   3.028   5.008   4.214
 1329WAT     H2 4199   3.136   4.916   4.161
 1330WAT      O 4200   1.665   5.403   5.454
 1330WAT     H1 4201   1.656   5.310   5.476
 1330WAT     H2 4202   1.575   5.432   5.438
 1331WAT      O 4203   2.286   5.316   4.103
 1331WAT     H1 4204   2.260   5.390   4.049
 1331WAT     H2 4205   2.204   5.272   4.125
 1332WAT      O 4206   1.827   4.839   4.195
 1332WAT     H1 4207   1.757   4.900   4.172
 1332WAT     H2 4208   1.872   4.822   4.113
 1333WAT      O 4209   2.779   4.251   5.160
 1333WAT     H1 4210   2.824   4.178   5.203
 1333WAT     H2 4211   2.693   4.255   5.203
 1334WAT      O 4212   3.127   4.144   4.252
 1334WAT     H1 4213   3.069   4.159   4.178
 1334WAT     H2 4214   3.069   4.144   4.329
 1335WAT      O 4215   2.564   5.300   4.002
 1335WAT     H1 4216   2.560   5.285   3.908
 1335WAT     H2 4217   2.472   5.313   4.028
 1336WAT      O 4218   2.319   4.371   4.386
 1336WAT     H1 4219   2.247   4.415   4.432
 1336WAT     H2 4220   2.350   4.306   4.450
 1337WAT      O 4221   2.466   4.518   5.190
 1337WAT     H1 4222   2.523   4.564   5.251
 1337WAT     H2 4223   2.486   4.425   5.205
 1338WAT      O 4224   2.733   4.058   4.524
 1338WAT     H1 4225   2.705   4.041   4.435
 1338WAT     H2 4226   2.828   4.068   4.518
 1339WAT      O 4227   2.134   4.202   4.121
 1339WAT     H1 4228   2.221   4.239   4.106
 1339WAT     H2 4229   2.117   4.218   4.214
 1340WAT      O 4230   3.208   4.140   5.271
 1340WAT     H1 4231   3.150   4.207   5.308
 1340WAT     H2 4232   3.285   4.189   5.242
 1341WAT      O 4233   3.030   4.686   4.634
 1341WAT     H1 4234   2.940   4.654   4.638
 1341WAT     H2 4235   3.082   4.612   4.665
 1342WAT      O 4236   2.024   4.835   3.976
 1342WAT     H1 4237   2.103   4.832   4.030
 1342WAT     H2 4238   2.048   4.790   3.895
 1343WAT      O 4239   1.892   4.575   4.052
 1343WAT     H1 4240   1.891   4.479   4.046
 1343WAT     H2 4241   1.985   4.598   4.053
 1344WAT      O 4242   3.241   5.371   4.799
 1344WAT     H1 4243   3.236   5.467   4.794
 1344WAT     H2 4244   3.324   5.349   4.757
 1345WAT      O 4245   1.656   5.204   4.341
 1345WAT     H1 4246   1.566   5.235   4.335
 1345WAT     H2 4247   1.709   5.279   4.314
 1346WAT      O 4248   1.665   4.771   5.569
 1346WAT     H1 4249   1.710   4.713   5.631
 1346WAT     H2 4250   1.573   4.768   5.595
 1347WAT      O 4251   2.347   5.025   3.900
 1347WAT     H1 4252   2.340   4.978   3.983
 1347WAT     H2 4253   2.347   4.956   3.834
 1348WAT      O 4254   2.381   4.915   5.506
 1348WAT     H1 4255   2.298   4.958   5.527
 1348WAT     H2 4256   2.368   4.878   5.419
 1349WAT      O 4257   2.662   4.928   3.977
 1349WAT     H1 4258   2.618   4.979   4.045
 1349WAT     H2 4259   2.725   4.874   4.024
 1350WAT      O 4260   3.070   5.064   5.547
 1350WAT     H1 4261   3.151   5.109   5.522
 1350WAT     H2 4262   3.001   5.113   5.503
 1351WAT      O 4263   2.232   4.824   4.167
 1351WAT     H1 4264   2.283   4.820   4.249
 1351WAT     H2 4265   2.250   4.741   4.123
 1352WAT      O 4266   2.021   4.431   5.435
 1352WAT     H1 4267   1.997   4.368   5.367
 1352WAT     H2 4268   2.099   4.474   5.401
 1353WAT      O 4269   2.491   4.719   3.907
 1353WAT     H1 4270   2.547   4.665   3.852
 1353WAT     H2 4271   2.543   4.795   3.929
 1354WAT      O 4272   2.929   4.849   5.445
 1354WAT     H1 4273   2.982   4.909   5.497
 1354WAT     H2 4274   2.839   4.878   5.458
 1355WAT      O 4275   2.993   4.601   5.613
 1355WAT     H1 4276   3.068   4.545   5.594
 1355WAT     H2 4277   3.000   4.673   5.550
 1356WAT      O 4278   2.113   4.121   5.447
 1356WAT     H1 4279   2.098   4.056   5.378
 1356WAT     H2 4280   2.030   4.169   5.452
 1357WAT      O 4281   2.384   3.999   5.162
 1357WAT     H1 4282   2.342   4.003   5.076
 1357WAT     H2 4283   2.318   3.960   5.219
 1358WAT      O 4284   2.393   4.869   5.229
 1358WAT     H1 4285   2.454   4.940   5.208
 1358WAT     H2 4286   2.315   4.889   5.176
 1359WAT      O 4287   2.646   4.635   5.359
 1359WAT     H1 4288   2.672   4.593   5.441
 1359WAT     H2 4289   2.728   4.644   5.310
 1360WAT      O 4290   2.873   4.703   5.218
 1360WAT     H1 4291   2.858   4.763   5.146
 1360WAT     H2 4292   2.908   4.757   5.289
 1361WAT      O 4293   2.118   4.428   3.866
 1361WAT     H1 4294   2.092   4.339   3.890
 1361WAT     H2 4295   2.102   4.433   3.772
 1362WAT      O 4296   2.337   4.286   5.490
 1362WAT     H1 4297   2.368   4.248   5.572
 1362WAT     H2 4298   2.257   4.238   5.470
 1363WAT      O 4299   2.815   4.257   5.522
 1363WAT     H1 4300   2.745   4.201   5.490
 1363WAT     H2 4301   2.874   4.198   5.568
 1364WAT      O 4302   2.856   3.917   4.109
 1364WAT     H1 4303   2.878   3.834   4.152
 1364WAT     H2 4304   2.787   3.954   4.163
 1365WAT      O 4305   2.016   4.162   3.850
 1365WAT     H1 4306   2.048   4.133   3.764
 1365WAT     H2 4307   2.076   4.123   3.913
 1366WAT      O 4308   2.330   4.042   3.956
 1366WAT     H1 4309   2.282   3.974   3.909
 1366WAT     H2 4310   2.350   4.003   4.041
 1367WAT      O 4311   1.912   5.081   3.936
 1367WAT     H1 4312   1.951   5.134   4.006
 1367WAT     H2 4313   1.950   4.994   3.949
 1368WAT      O 4314   1.621   5.338   4.712
 1368WAT     H1 4315   1.654   5.261   4.666
 1368WAT     H2 4316   1.694   5.368   4.765
 1369WAT      O 4317   2.102   5.179   4.471
 1369WAT     H1 4318   2.070   5.138   4.551
 1369WAT     H2 4319   2.083   5.116   4.402
 1370WAT      O 4320   3.243   5.395   5.393
 1370WAT     H1 4321   3.203   5.391   5.307
 1370WAT     H2 4322   3.269   5.305   5.412
 1371WAT      O 4323   3.358   5.159   3.937
 1371WAT     H1 4324   3.264   5.171   3.953
 1371WAT     H2 4325   3.388   5.244   3.906
 1372WAT      O 4326   3.300   4.836   4.174
 1372WAT     H1 4327   3.372   4.898   4.176
 1372WAT     H2 4328   3.310   4.785   4.254
 1373WAT      O 4329   1.648   4.688   4.587
 1373WAT     H1 4330   1.582   4.671   4.520
 1373WAT     H2 4331   1.731   4.673   4.542
 1374WAT      O 4332   3.421   4.930   4.692
 1374WAT     H1 4333   3.452   4.849   4.651
 1374WAT     H2 4334   3.473   4.999   4.651
 1375WAT      O 4335   3.085   5.056   5.201
 1375WAT     H1 4336   3.020   5.111   5.247
 1375WAT     H2 4337   3.135   5.118   5.148
 1376WAT      O 4338   3.346   4.872   3.900
 1376WAT     H1 4339   3.349   4.967   3.884
 1376WAT     H2 4340   3.306   4.864   3.986
 1377WAT      O 4341   2.969   4.168   4.027
 1377WAT     H1 4342   2.996   4.159   3.935
 1377WAT     H2 4343   2.918   4.089   4.044
 1378WAT      O 4344   3.300   4.669   4.399
 1378WAT     H1 4345   3.268   4.583   4.371
 1378WAT     H2 4346   3.226   4.709   4.444
 1379WAT      O 4347   1.770   4.728   5.051
 1379WAT     H1 4348   1.780   4.709   5.144
 1379WAT     H2 4349   1.711   4.659   5.019
 1380WAT      O 4350   3.248   4.576   5.367
 1380WAT     H1 4351   3.236   4.552   5.276
 1380WAT     H2 4352   3.251   4.672   5.366
 1381WAT      O 4353   1.705   4.428   5.445
 1381WAT     H1 4354   1.621   4.407   5.486
 1381WAT     H2 4355   1.767   4.432   5.518
 1382WAT      O 4356   1.576   4.409   4.182
 1382WAT     H1 4357   1.491   4.443   4.209
 1382WAT     H2 4358   1.598   4.457   4.103
 1383WAT      O 4359   3.217   4.499   4.728
 1383WAT     H1 4360   3.260   4.444   4.663
 1383WAT     H2 4361   3.289   4.534   4.781
 1384WAT      O 4362   3.245   4.495   5.087
 1384WAT     H1 4363   3.150   4.484   5.086
 1384WAT     H2 4364   3.259   4.584   5.057
 1385WAT      O 4365   1.839   4.313   3.998
 1385WAT     H1 4366   1.893   4.255   3.943
 1385WAT     H2 4367   1.758   4.323   3.948
 1386WAT      O 4368   1.784   3.928   3.885
 1386WAT     H1 4369   1.856   3.963   3.938
 1386WAT     H2 4370   1.823   3.913   3.799
 1387WAT      O 4371   3.214   4.415   4.337
 1387WAT     H1 4372   3.242   4.369   4.416
 1387WAT     H2 4373   3.165   4.350   4.287
 1388WAT      O 4374   1.767   3.834   4.883
 1388WAT     H1 4375   1.840   3.798   4.834
 1388WAT     H2 4376   1.806   3.863   4.966
 1389WAT      O 4377   3.325   4.289   4.573
 1389WAT     H1 4378   3.313   4.252   4.660
 1389WAT     H2 4379   3.409   4.255   4.544
 1390WAT      O 4380   3.174   3.873   5.224
 1390WAT     H1 4381   3.205   3.964   5.229
 1390WAT     H2 4382   3.168   3.855   5.130
 1391WAT      O 4383   3.408   4.043   3.902
 1391WAT     H1 4384   3.498   4.015   3.886
 1391WAT     H2 4385   3.412   4.088   3.986
 1392WAT      O 4386   3.416   4.135   4.167
 1392WAT     H1 4387   3.328   4.132   4.205
 1392WAT     H2 4388   3.440   4.227   4.167
 1393WAT      O 4389   1.744   3.882   5.166
 1393WAT     H1 4390   1.706   3.926   5.243
 1393WAT     H2 4391   1.711   3.792   5.171
 1394WAT      O 4392   2.276   5.317   5.139
 1394WAT     H1 4393   2.247   5.350   5.054
 1394WAT     H2 4394   2.370   5.333   5.140
 1395WAT      O 4395   2.500   3.989   5.493
 1395WAT     H1 4396   2.476   4.001   5.585
 1395WAT     H2 4397   2.595   3.984   5.493
 1396WAT      O 4398   2.776   3.973   5.482
 1396WAT     H1 4399   2.815   3.993   5.397
 1396WAT     H2 4400   2.837   3.910   5.522
 1397WAT      O 4401   1.808   3.812   5.480
 1397WAT     H1 4402   1.863   3.777   5.410
 1397WAT     H2 4403   1.803   3.741   5.545
 1398WAT      O 4404   1.883   5.476   5.296
 1398WAT     H1 4405   1.814   5.464   5.361
 1398WAT     H2 4406   1.883   5.395   5.245
 1399WAT      O 4407   2.835   3.806   5.117
 1399WAT     H1 4408   2.762   3.842   5.067
 1399WAT     H2 4409   2.795   3.743   5.177
 1400WAT      O 4410   2.914   4.030   5.251
 1400WAT     H1 4411   2.896   3.952   5.198
 1400WAT     H2 4412   3.009   4.036   5.253
 1401WAT      O 4413   1.853   5.226   5.172
 1401WAT     H1 4414   1.769   5.180   5.174
 1401WAT     H2 4415   1.875   5.233   5.079
 1402WAT      O 4416   2.218   5.413   4.885
 1402WAT     H1 4417   2.254   5.372   4.807
 1402WAT     H2 4418   2.250   5.503   4.882
 1403WAT      O 4419   2.604   3.901   5.002
 1403WAT     H1 4420   2.537   3.941   5.059
 1403WAT     H2 4421   2.560   3.824   4.965
 1404WAT      O 4422   3.048   3.960   4.807
 1404WAT     H1 4423   3.112   3.961   4.736
 1404WAT     H2 4424   3.028   4.052   4.823
 1405WAT      O 4425   3.227   3.944   4.604
 1405WAT     H1 4426   3.220   3.852   4.581
 1405WAT     H2 4427   3.310   3.951   4.651
 1406WAT      O 4428   1.746   3.936   4.251
 1406WAT     H1 4429   1.823   3.954   4.197
 1406WAT     H2 4430   1.682   4.003   4.225
 1407WAT      O 4431   2.380   4.143   4.547
 1407WAT     H1 4432   2.315   4.091   4.499
 1407WAT     H2 4433   2.446   4.080   4.574
 1408WAT      O 4434   2.838   3.809   4.681
 1408WAT     H1 4435   2.910   3.856   4.724
 1408WAT     H2 4436   2.778   3.879   4.653
 1409WAT      O 4437   3.162   3.858   4.208
 1409WAT     H1 4438   3.154   3.949   4.235
 1409WAT     H2 4439   3.078   3.818   4.232
 1410WAT      O 4440   1.819   5.410   4.253
 1410WAT     H1 4441   1.790   5.462   4.178
 1410WAT     H2 4442   1.843   5.475   4.319
 1411WAT      O 4443   1.971   3.978   4.098
 1411WAT     H1 4444   2.026   3.901   4.110
 1411WAT     H2 4445   2.030   4.053   4.110
 1412WAT      O 4446   2.196   3.971   4.405
 1412WAT     H1 4447   2.131   3.903   4.423
 1412WAT     H2 4448   2.143   4.050   4.389
 1413WAT      O 4449   2.229   3.898   5.649
 1413WAT     H1 4450   2.183   3.951   5.583
 1413WAT     H2 4451   2.231   3.810   5.612
 1414WAT      O 4452   2.016   5.230   4.146
 1414WAT     H1 4453   1.953   5.285   4.193
 1414WAT     H2 4454   2.026   5.152   4.200
 1415WAT      O 4455   2.759   4.627   2.735
 1415WAT     H1 4456   2.741   4.533   2.730
 1415WAT     H2 4457   2.711   4.664   2.661
 1416WAT      O 4458   2.578   4.807   2.922
 1416WAT     H1 4459   2.511   4.756   2.968
 1416WAT     H2 4460   2.647   4.744   2.902
 1417WAT      O 4461   1.966   4.851   3.021
 1417WAT     H1 4462   1.899   4.802   3.068
 1417WAT     H2 4463   2.040   4.855   3.081
 1418WAT      O 4464   2.983   5.234   2.791
 1418WAT     H1 4465   2.935   5.159   2.828
 1418WAT     H2 4466   3.054   5.250   2.853
 1419WAT      O 4467   1.978   5.242   3.048
 1419WAT     H1 4468   2.021   5.161   3.018
 1419WAT     H2 4469   2.044   5.310   3.036
 1420WAT      O 4470   1.823   4.336   2.394
 1420WAT     H1 4471   1.730   4.357   2.389
 1420WAT     H2 4472   1.848   4.316   2.304
 1421WAT      O 4473   1.601   4.570   2.968
 1421WAT     H1 4474   1.672   4.506   2.981
 1421WAT     H2 4475   1.627   4.618   2.889
 1422WAT      O 4476   2.501   5.069   2.943
 1422WAT     H1 4477   2.522   4.977   2.927
 1422WAT     H2 4478   2.570   5.100   3.002
 1423WAT      O 4479   1.733   4.147   3.175
 1423WAT     H1 4480   1.729   4.055   3.204
 1423WAT     H2 4481   1.668   4.192   3.230
 1424WAT      O 4482   2.620   4.358   2.947
 1424WAT     H1 4483   2.670   4.281   2.975
 1424WAT     H2 4484   2.639   4.365   2.853
 1425WAT      O 4485   2.040   4.198   2.505
 1425WAT     H1 4486   2.063   4.274   2.558
 1425WAT     H2 4487   1.951   4.215   2.475
 1426WAT      O 4488   3.008   4.097   2.675
 1426WAT     H1 4489   3.102   4.100   2.659
 1426WAT     H2 4490   2.991   4.171   2.733
 1427WAT      O 4491   1.798   4.379   3.032
 1427WAT     H1 4492   1.881   4.401   3.075
 1427WAT     H2 4493   1.769   4.298   3.075
 1428WAT      O 4494   2.228   4.505   2.944
 1428WAT     H1 4495   2.294   4.554   2.992
 1428WAT     H2 4496   2.269   4.420   2.928
 1429WAT      O 4497   3.419   4.307   3.309
 1429WAT     H1 4498   3.360   4.369   3.267
 1429WAT     H2 4499   3.461   4.358   3.378
 1430WAT      O 4500   2.051   3.944   3.366
 1430WAT     H1 4501   2.055   4.009   3.295
 1430WAT     H2 4502   1.966   3.902   3.354
 1431WAT      O 4503   2.689   4.965   2.503
 1431WAT     H1 4504   2.630   4.998   2.435
 1431WAT     H2 4505   2.714   5.043   2.553
 1432WAT      O 4506   2.187   4.927   3.188
 1432WAT     H1 4507   2.146   4.986   3.251
 1432WAT     H2 4508   2.203   4.982   3.111
 1433WAT      O 4509   3.035   4.287   2.913
 1433WAT     H1 4510   2.958   4.303   2.967
 1433WAT     H2 4511   3.074   4.373   2.902
 1434WAT      O 4512   2.012   4.128   3.168
 1434WAT     H1 4513   2.047   4.216   3.152
 1434WAT     H2 4514   1.917   4.139   3.168
 1435WAT      O 4515   2.102   5.128   3.356
 1435WAT     H1 4516   2.161   5.198   3.327
 1435WAT     H2 4517   2.014   5.164   3.342
 1436WAT      O 4518   1.625   5.020   2.260
 1436WAT     H1 4519   1.592   5.071   2.186
 1436WAT     H2 4520   1.639   5.085   2.329
 1437WAT      O 4521   3.174   5.266   3.170
 1437WAT     H1 4522   3.107   5.333   3.157
 1437WAT     H2 4523   3.230   5.272   3.092
 1438WAT      O 4524   3.321   4.243   2.967
 1438WAT     H1 4525   3.228   4.238   2.987
 1438WAT     H2 4526   3.353   4.312   3.025
 1439WAT      O 4527   2.375   3.871   2.791
 1439WAT     H1 4528   2.404   3.817   2.718
 1439WAT     H2 4529   2.283   3.890   2.772
 1440WAT      O 4530   3.077   5.113   2.538
 1440WAT     H1 4531   3.060   5.019   2.551
 1440WAT     H2 4532   3.042   5.154   2.617
 1441WAT      O 4533   2.895   4.937   3.160
 1441WAT     H1 4534   2.941   4.910   3.081
 1441WAT     H2 4535   2.964   4.968   3.219
 1442WAT      O 4536   2.628   4.691   2.495
 1442WAT     H1 4537   2.532   4.695   2.494
 1442WAT     H2 4538   2.655   4.781   2.479
 1443WAT      O 4539   2.625   4.302   2.149
 1443WAT     H1 4540   2.537   4.314   2.186
 1443WAT     H2 4541   2.660   4.391   2.143
 1444WAT      O 4542   3.269   4.772   3.167
 1444WAT     H1 4543   3.197   4.803   3.112
 1444WAT     H2 4544   3.344   4.824   3.139
 1445WAT      O 4545   3.022   4.841   2.535
 1445WAT     H1 4546   2.955   4.807   2.475
 1445WAT     H2 4547   3.017   4.782   2.610
 1446WAT      O 4548   2.972   4.459   3.260
 1446WAT     H1 4549   2.929   4.543   3.274
 1446WAT     H2 4550   2.899   4.397   3.248
 1447WAT      O 4551   2.180   4.720   2.739
 1447WAT     H1 4552   2.149   4.647   2.687
 1447WAT     H2 4553   2.196   4.683   2.826
 1448WAT      O 4554   2.227   5.081   2.966
 1448WAT     H1 4555   2.195   5.047   2.883
 1448WAT     H2 4556   2.322   5.088   2.954
 1449WAT      O 4557   2.052   4.407   3.134
 1449WAT     H1 4558   2.105   4.437   3.060
 1449WAT     H2 4559   2.088   4.454   3.210
 1450WAT      O 4560   2.143   5.082   3.620
 1450WAT     H1 4561   2.054   5.095   3.653
 1450WAT     H2 4562   2.134   5.090   3.525
 1451WAT      O 4563   2.848   4.770   2.225
 1451WAT     H1 4564   2.884   4.683   2.212
 1451WAT     H2 4565   2.925   4.828   2.225
 1452WAT      O 4566   2.023   4.772   3.483
 1452WAT     H1 4567   1.997   4.863   3.494
 1452WAT     H2 4568   1.941   4.726   3.462
 1453WAT      O 4569   2.636   5.246   2.621
 1453WAT     H1 4570   2.693   5.303   2.569
 1453WAT     H2 4571   2.666   5.258   2.711
 1454WAT      O 4572   2.219   5.342   3.703
 1454WAT     H1 4573   2.194   5.389   3.623
 1454WAT     H2 4574   2.192   5.252   3.686
 1455WAT      O 4575   1.850   4.617   2.506
 1455WAT     H1 4576   1.846   4.690   2.445
 1455WAT     H2 4577   1.835   4.539   2.452
 1456WAT      O 4578   3.429   5.412   3.854
 1456WAT     H1 4579   3.434   5.500   3.892
 1456WAT     H2 4580   3.462   5.423   3.765
 1457WAT      O 4581   1.606   4.930   3.089
 1457WAT     H1 4582   1.595   4.942   2.995
 1457WAT     H2 4583   1.679   4.869   3.098
 1458WAT      O 4584   1.731   5.110   2.711
 1458WAT     H1 4585   1.713   5.134   2.620
 1458WAT     H2 4586   1.820   5.075   2.709
 1459WAT      O 4587   3.323   5.136   3.545
 1459WAT     H1 4588   3.368   5.119   3.463
 1459WAT     H2 4589   3.344   5.060   3.600
 1460WAT      O 4590   2.890   5.318   2.212
 1460WAT     H1 4591   2.809   5.301   2.163
 1460WAT     H2 4592   2.957   5.270   2.163
 1461WAT      O 4593   3.325   4.362   3.649
 1461WAT     H1 4594   3.288   4.434   3.596
 1461WAT     H2 4595   3.259   4.292   3.643
 1462WAT      O 4596   1.624   5.060   3.338
 1462WAT     H1 4597   1.617   5.011   3.257
 1462WAT     H2 4598   1.681   5.007   3.394
 1463WAT      O 4599   2.102   3.968   2.842
 1463WAT     H1 4600   2.059   4.049   2.816
 1463WAT     H2 4601   2.150   3.991   2.922
 1464WAT      O 4602   2.519   4.242   3.394
 1464WAT     H1 4603   2.465   4.263   3.470
 1464WAT     H2 4604   2.481   4.161   3.359
 1465WAT      O 4605   3.042   4.341   3.501
 1465WAT     H1 4606   2.958   4.326   3.544
 1465WAT     H2 4607   3.020   4.392   3.423
 1466WAT      O 4608   2.735   4.519   3.714
 1466WAT     H1 4609   2.754   4.427   3.699
 1466WAT     H2 4610   2.819   4.556   3.745
 1467WAT      O 4611   2.400   3.920   2.321
 1467WAT     H1 4612   2.331   3.921   2.388
 1467WAT     H2 4613   2.418   3.827   2.307
 1468WAT      O 4614   2.310   4.012   3.024
 1468WAT     H1 4615   2.326   4.103   2.999
 1468WAT     H2 4616   2.356   3.961   2.958
 1469WAT      O 4617   2.075   4.472   2.625
 1469WAT     H1 4618   2.039   4.431   2.704
 1469WAT     H2 4619   2.001   4.517   2.585
 1470WAT      O 4620   2.792   4.466   2.467
 1470WAT     H1 4621   2.736   4.544   2.462
 1470WAT     H2 4622   2.839   4.465   2.383
 1471WAT      O 4623   2.321   4.562   3.665
 1471WAT     H1 4624   2.323   4.468   3.646
 1471WAT     H2 4625   2.408   4.593   3.640
 1472WAT      O 4626   2.688   4.345   2.687
 1472WAT     H1 4627   2.718   4.377   2.601
 1472WAT     H2 4628   2.687   4.249   2.677
 1473WAT      O 4629   1.845   4.208   3.498
 1473WAT     H1 4630   1.794   4.284   3.522
 1473WAT     H2 4631   1.782   4.135   3.497
 1474WAT      O 4632   2.488   4.195   3.807
 1474WAT     H1 4633   2.429   4.149   3.866
 1474WAT     H2 4634   2.553   4.235   3.865
 1475WAT      O 4635   1.567   3.987   2.894
 1475WAT     H1 4636   1.542   4.054   2.958
 1475WAT     H2 4637   1.630   3.933   2.940
 1476WAT      O 4638   1.600   4.390   2.003
 1476WAT     H1 4639   1.592   4.483   2.024
 1476WAT     H2 4640   1.537   4.375   1.933
 1477WAT      O 4641   2.716   4.583   3.084
 1477WAT     H1 4642   2.640   4.623   3.125
 1477WAT     H2 4643   2.682   4.505   3.041
 1478WAT      O 4644   2.363   4.264   2.919
 1478WAT     H1 4645   2.368   4.229   2.830
 1478WAT     H2 4646   2.451   4.297   2.937
 1479WAT      O 4647   1.938   4.250   2.809
 1479WAT     H1 4648   1.904   4.295   2.887
 1479WAT     H2 4649   1.860   4.213   2.767
 1480WAT      O 4650   2.376   4.363   2.246
 1480WAT     H1 4651   2.365   4.366   2.341
 1480WAT     H2 4652   2.339   4.445   2.215
 1481WAT      O 4653   2.764   4.142   3.034
 1481WAT     H1 4654   2.771   4.175   3.123
 1481WAT     H2 4655   2.721   4.057   3.043
 1482WAT      O 4656   2.268   4.599   2.141
 1482WAT     H1 4657   2.221   4.545   2.078
 1482WAT     H2 4658   2.342   4.635   2.092
 1483WAT      O 4659   1.788   4.969   3.546
 1483WAT     H1 4660   1.745   4.911   3.609
 1483WAT     H2 4661   1.818   5.043   3.598
 1484WAT      O 4662   2.402   4.669   3.097
 1484WAT     H1 4663   2.423   4.610   3.170
 1484WAT     H2 4664   2.355   4.742   3.138
 1485WAT      O 4665   1.693   4.137   2.704
 1485WAT     H1 4666   1.652   4.088   2.776
 1485WAT     H2 4667   1.702   4.073   2.634
 1486WAT      O 4668   2.171   4.562   3.338
 1486WAT     H1 4669   2.144   4.647   3.373
 1486WAT     H2 4670   2.267   4.563   3.342
 1487WAT      O 4671   2.040   4.993   2.400
 1487WAT     H1 4672   1.962   4.939   2.390
 1487WAT     H2 4673   2.111   4.939   2.364
 1488WAT      O 4674   3.105   4.875   2.962
 1488WAT     H1 4675   3.177   4.925   2.923
 1488WAT     H2 4676   3.076   4.817   2.893
 1489WAT      O 4677   2.644   4.036   2.384
 1489WAT     H1 4678   2.561   3.995   2.364
 1489WAT     H2 4679   2.647   4.114   2.328
 1490WAT      O 4680   2.638   4.901   3.572
 1490WAT     H1 4681   2.636   4.814   3.530
 1490WAT     H2 4682   2.557   4.905   3.622
 1491WAT      O 4683   2.928   4.464   2.228
 1491WAT     H1 4684   3.008   4.510   2.203
 1491WAT     H2 4685   2.917   4.397   2.161
 1492WAT      O 4686   2.031   4.967   2.778
 1492WAT     H1 4687   2.078   4.892   2.741
 1492WAT     H2 4688   1.993   4.934   2.859
 1493WAT      O 4689   2.539   5.084   2.292
 1493WAT     H1 4690   2.561   5.162   2.241
 1493WAT     H2 4691   2.453   5.104   2.330
 1494WAT      O 4692   1.769   4.666   3.445
 1494WAT     H1 4693   1.725   4.721   3.510
 1494WAT     H2 4694   1.755   4.576   3.475
 1495WAT      O 4695   2.096   4.703   3.740
 1495WAT     H1 4696   2.077   4.731   3.650
 1495WAT     H2 4697   2.177   4.654   3.733
 1496WAT      O 4698   2.634   5.173   3.527
 1496WAT     H1 4699   2.632   5.078   3.529
 1496WAT     H2 4700   2.566   5.201   3.588
 1497WAT      O 4701   3.142   4.611   2.157
 1497WAT     H1 4702   3.141   4.635   2.064
 1497WAT     H2 4703   3.225   4.646   2.190
 1498WAT      O 4704   3.252   4.849   3.451
 1498WAT     H1 4705   3.180   4.911   3.439
 1498WAT     H2 4706   3.289   4.838   3.363
 1499WAT      O 4707   3.269   5.271   2.420
 1499WAT     H1 4708   3.206   5.214   2.465
 1499WAT     H2 4709   3.215   5.320   2.358
 1500WAT      O 4710   2.813   5.011   2.817
 1500WAT     H1 4711   2.840   4.946   2.752
 1500WAT     H2 4712   2.726   4.981   2.845
 1501WAT      O 4713   2.401   5.086   2.564
 1501WAT     H1 4714   2.478   5.139   2.587
 1501WAT     H2 4715   2.328   5.147   2.570
 1502WAT      O 4716   1.618   4.643   2.110
 1502WAT     H1 4717   1.707   4.655   2.142
 1502WAT     H2 4718   1.586   4.731   2.093
 1503WAT      O 4719   2.362   4.807   2.532
 1503WAT     H1 4720   2.386   4.897   2.551
 1503WAT     H2 4721   2.310   4.780   2.608
 1504WAT      O 4722   2.558   5.340   3.245
 1504WAT     H1 4723   2.609   5.347   3.326
 1504WAT     H2 4724   2.598   5.268   3.198
 1505WAT      O 4725   1.950   3.816   2.571
 1505WAT     H1 4726   1.909   3.795   2.655
 1505WAT     H2 4727   1.877   3.847   2.516
 1506WAT      O 4728   2.710   5.144   3.114
 1506WAT     H1 4729   2.758   5.064   3.137
 1506WAT     H2 4730   2.776   5.202   3.077
 1507WAT      O 4731   3.083   5.161   2.081
 1507WAT     H1 4732   3.064   5.086   2.137
 1507WAT     H2 4733   3.066   5.130   1.992
 1508WAT      O 4734   2.897   5.222   3.451
 1508WAT     H1 4735   2.908   5.296   3.511
 1508WAT     H2 4736   2.805   5.197   3.461
 1509WAT      O 4737   1.648   4.004   3.517
 1509WAT     H1 4738   1.565   4.013   3.564
 1509WAT     H2 4739   1.697   3.937   3.565
 1510WAT      O 4740   3.051   4.958   2.261
 1510WAT     H1 4741   3.031   5.009   2.339
 1510WAT     H2 4742   3.135   4.916   2.281
 1511WAT      O 4743   1.658   5.405   3.593
 1511WAT     H1 4744   1.673   5.310   3.591
 1511WAT     H2 4745   1.574   5.417   3.550
 1512WAT      O 4746   2.464   5.223   3.750
 1512WAT     H1 4747   2.429   5.150   3.801
 1512WAT     H2 4748   2.389   5.281   3.735
 1513WAT      O 4749   2.286   5.316   2.226
 1513WAT     H1 4750   2.260   5.390   2.172
 1513WAT     H2 4751   2.203   5.272   2.248
 1514WAT      O 4752   1.827   4.839   2.318
 1514WAT     H1 4753   1.757   4.900   2.294
 1514WAT     H2 4754   1.872   4.822   2.235
 1515WAT      O 4755   2.781   4.246   3.288
 1515WAT     H1 4756   2.823   4.174   3.335
 1515WAT     H2 4757   2.694   4.252   3.328
 1516WAT      O 4758   2.563   5.300   2.125
 1516WAT     H1 4759   2.560   5.285   2.030
 1516WAT     H2 4760   2.472   5.312   2.150
 1517WAT      O 4761   2.318   4.371   2.509
 1517WAT     H1 4762   2.247   4.415   2.554
 1517WAT     H2 4763   2.350   4.306   2.572
 1518WAT      O 4764   2.465   4.519   3.314
 1518WAT     H1 4765   2.524   4.564   3.375
 1518WAT     H2 4766   2.485   4.426   3.327
 1519WAT      O 4767   2.719   4.074   2.646
 1519WAT     H1 4768   2.698   4.050   2.555
 1519WAT     H2 4769   2.814   4.060   2.653
 1520WAT      O 4770   2.134   4.203   2.244
 1520WAT     H1 4771   2.221   4.239   2.229
 1520WAT     H2 4772   2.117   4.218   2.337
 1521WAT      O 4773   3.196   4.138   3.405
 1521WAT     H1 4774   3.145   4.212   3.438
 1521WAT     H2 4775   3.274   4.178   3.366
 1522WAT      O 4776   3.028   4.686   2.757
 1522WAT     H1 4777   2.938   4.654   2.761
 1522WAT     H2 4778   3.081   4.612   2.788
 1523WAT      O 4779   2.024   4.835   2.099
 1523WAT     H1 4780   2.103   4.832   2.152
 1523WAT     H2 4781   2.048   4.790   2.018
 1524WAT      O 4782   1.892   4.575   2.174
 1524WAT     H1 4783   1.891   4.479   2.169
 1524WAT     H2 4784   1.985   4.598   2.175
 1525WAT      O 4785   3.241   5.371   2.922
 1525WAT     H1 4786   3.236   5.466   2.916
 1525WAT     H2 4787   3.324   5.349   2.879
 1526WAT      O 4788   1.656   5.204   2.463
 1526WAT     H1 4789   1.566   5.234   2.458
 1526WAT     H2 4790   1.709   5.279   2.436
 1527WAT      O 4791   2.780   5.106   3.785
 1527WAT     H1 4792   2.706   5.128   3.728
 1527WAT     H2 4793   2.743   5.046   3.850
 1528WAT      O 4794   1.661   4.773   3.690
 1528WAT     H1 4795   1.711   4.704   3.734
 1528WAT     H2 4796   1.583   4.785   3.745
 1529WAT      O 4797   2.347   5.025   2.023
 1529WAT     H1 4798   2.341   4.978   2.106
 1529WAT     H2 4799   2.347   4.956   1.956
 1530WAT      O 4800   2.365   4.911   3.635
 1530WAT     H1 4801   2.286   4.966   3.638
 1530WAT     H2 4802   2.367   4.878   3.545
 1531WAT      O 4803   2.662   4.928   2.099
 1531WAT     H1 4804   2.619   4.978   2.168
 1531WAT     H2 4805   2.726   4.874   2.146
 1532WAT      O 4806   3.074   5.070   3.691
 1532WAT     H1 4807   3.143   5.106   3.635
 1532WAT     H2 4808   2.994   5.111   3.658
 1533WAT      O 4809   1.843   4.576   3.772
 1533WAT     H1 4810   1.848   4.558   3.866
 1533WAT     H2 4811   1.931   4.603   3.748
 1534WAT      O 4812   2.232   4.824   2.290
 1534WAT     H1 4813   2.282   4.819   2.371
 1534WAT     H2 4814   2.250   4.741   2.246
 1535WAT      O 4815   2.052   4.423   3.575
 1535WAT     H1 4816   1.988   4.382   3.516
 1535WAT     H2 4817   2.111   4.469   3.516
 1536WAT      O 4818   2.491   4.718   2.030
 1536WAT     H1 4819   2.548   4.665   1.974
 1536WAT     H2 4820   2.543   4.795   2.052
 1537WAT      O 4821   2.928   4.853   3.570
 1537WAT     H1 4822   2.982   4.908   3.626
 1537WAT     H2 4823   2.839   4.886   3.584
 1538WAT      O 4824   3.001   4.605   3.743
 1538WAT     H1 4825   3.060   4.537   3.711
 1538WAT     H2 4826   3.004   4.673   3.676
 1539WAT      O 4827   2.101   4.112   3.584
 1539WAT     H1 4828   2.095   4.050   3.512
 1539WAT     H2 4829   2.029   4.173   3.569
 1540WAT      O 4830   2.380   4.004   3.287
 1540WAT     H1 4831   2.343   4.007   3.199
 1540WAT     H2 4832   2.317   3.954   3.338
 1541WAT      O 4833   2.392   4.874   3.359
 1541WAT     H1 4834   2.456   4.940   3.331
 1541WAT     H2 4835   2.316   4.890   3.304
 1542WAT      O 4836   2.646   4.634   3.486
 1542WAT     H1 4837   2.674   4.592   3.567
 1542WAT     H2 4838   2.726   4.645   3.435
 1543WAT      O 4839   2.871   4.704   3.344
 1543WAT     H1 4840   2.858   4.763   3.270
 1543WAT     H2 4841   2.908   4.759   3.413
 1544WAT      O 4842   2.117   4.428   1.989
 1544WAT     H1 4843   2.092   4.339   2.013
 1544WAT     H2 4844   2.102   4.433   1.895
 1545WAT      O 4845   2.340   4.292   3.603
 1545WAT     H1 4846   2.387   4.260   3.679
 1545WAT     H2 4847   2.258   4.241   3.603
 1546WAT      O 4848   2.820   4.260   3.649
 1546WAT     H1 4849   2.754   4.195   3.627
 1546WAT     H2 4850   2.887   4.210   3.696
 1547WAT      O 4851   2.016   4.161   1.972
 1547WAT     H1 4852   2.048   4.133   1.887
 1547WAT     H2 4853   2.077   4.123   2.035
 1548WAT      O 4854   2.329   4.043   2.079
 1548WAT     H1 4855   2.282   3.975   2.031
 1548WAT     H2 4856   2.350   4.003   2.164
 1549WAT      O 4857   1.913   5.081   2.058
 1549WAT     H1 4858   1.951   5.134   2.129
 1549WAT     H2 4859   1.950   4.994   2.071
 1550WAT      O 4860   1.621   5.338   2.834
 1550WAT     H1 4861   1.654   5.261   2.789
 1550WAT     H2 4862   1.694   5.368   2.888
 1551WAT      O 4863   2.102   5.179   2.593
 1551WAT     H1 4864   2.070   5.138   2.673
 1551WAT     H2 4865   2.083   5.116   2.524
 1552WAT      O 4866   3.259   5.398   3.508
 1552WAT     H1 4867   3.200   5.393   3.433
 1552WAT     H2 4868   3.273   5.307   3.534
 1553WAT      O 4869   3.358   5.160   2.061
 1553WAT     H1 4870   3.264   5.171   2.076
 1553WAT     H2 4871   3.388   5.245   2.029
 1554WAT      O 4872   3.298   4.845   2.301
 1554WAT     H1 4873   3.374   4.903   2.299
 1554WAT     H2 4874   3.313   4.788   2.376
 1555WAT      O 4875   1.648   4.688   2.709
 1555WAT     H1 4876   1.582   4.671   2.642
 1555WAT     H2 4877   1.731   4.673   2.663
 1556WAT      O 4878   3.422   4.930   2.816
 1556WAT     H1 4879   3.451   4.849   2.773
 1556WAT     H2 4880   3.474   4.999   2.774
 1557WAT      O 4881   3.083   5.057   3.325
 1557WAT     H1 4882   3.019   5.112   3.369
 1557WAT     H2 4883   3.134   5.118   3.272
 1558WAT      O 4884   3.345   4.874   2.022
 1558WAT     H1 4885   3.348   4.969   2.010
 1558WAT     H2 4886   3.304   4.862   2.108
 1559WAT      O 4887   3.303   4.669   2.525
 1559WAT     H1 4888   3.270   4.585   2.492
 1559WAT     H2 4889   3.226   4.711   2.562
 1560WAT      O 4890   1.770   4.727   3.174
 1560WAT     H1 4891   1.779   4.710   3.268
 1560WAT     H2 4892   1.710   4.659   3.143
 1561WAT      O 4893   3.252   4.574   3.491
 1561WAT     H1 4894   3.235   4.553   3.399
 1561WAT     H2 4895   3.255   4.670   3.493
 1562WAT      O 4896   1.708   4.429   3.574
 1562WAT     H1 4897   1.622   4.409   3.611
 1562WAT     H2 4898   1.757   4.466   3.648
 1563WAT      O 4899   3.083   4.118   3.763
 1563WAT     H1 4900   3.160   4.095   3.814
 1563WAT     H2 4901   3.077   4.050   3.696
 1564WAT      O 4902   1.576   4.409   2.305
 1564WAT     H1 4903   1.491   4.443   2.332
 1564WAT     H2 4904   1.598   4.458   2.226
 1565WAT      O 4905   3.217   4.502   2.849
 1565WAT     H1 4906   3.263   4.448   2.785
 1565WAT     H2 4907   3.287   4.535   2.906
 1566WAT      O 4908   3.244   4.493   3.208
 1566WAT     H1 4909   3.149   4.483   3.209
 1566WAT     H2 4910   3.259   4.583   3.179
 1567WAT      O 4911   1.839   4.313   2.120
 1567WAT     H1 4912   1.893   4.255   2.066
 1567WAT     H2 4913   1.758   4.323   2.070
 1568WAT      O 4914   1.784   3.928   2.008
 1568WAT     H1 4915   1.856   3.964   2.060
 1568WAT     H2 4916   1.823   3.913   1.921
 1569WAT      O 4917   3.212   4.415   2.456
 1569WAT     H1 4918   3.232   4.363   2.534
 1569WAT     H2 4919   3.132   4.374   2.421
 1570WAT      O 4920   1.766   3.833   3.007
 1570WAT     H1 4921   1.840   3.797   2.957
 1570WAT     H2 4922   1.806   3.863   3.089
 1571WAT      O 4923   3.317   4.271   2.690
 1571WAT     H1 4924   3.305   4.251   2.783
 1571WAT     H2 4925   3.409   4.253   2.673
 1572WAT      O 4926   1.744   3.881   3.292
 1572WAT     H1 4927   1.705   3.925   3.367
 1572WAT     H2 4928   1.708   3.793   3.293
 1573WAT      O 4929   1.890   5.181   3.693
 1573WAT     H1 4930   1.890   5.146   3.782
 1573WAT     H2 4931   1.903   5.275   3.704
 1574WAT      O 4932   2.276   5.319   3.262
 1574WAT     H1 4933   2.247   5.351   3.177
 1574WAT     H2 4934   2.370   5.333   3.263
 1575WAT      O 4935   2.497   3.969   3.644
 1575WAT     H1 4936   2.483   4.048   3.696
 1575WAT     H2 4937   2.589   3.974   3.617
 1576WAT      O 4938   2.763   3.979   3.603
 1576WAT     H1 4939   2.821   3.978   3.527
 1576WAT     H2 4940   2.807   3.924   3.668
 1577WAT      O 4941   1.818   3.812   3.615
 1577WAT     H1 4942   1.861   3.782   3.535
 1577WAT     H2 4943   1.824   3.738   3.675
 1578WAT      O 4944   1.883   5.474   3.428
 1578WAT     H1 4945   1.810   5.462   3.488
 1578WAT     H2 4946   1.882   5.395   3.373
 1579WAT      O 4947   2.925   4.016   3.377
 1579WAT     H1 4948   2.909   3.956   3.304
 1579WAT     H2 4949   3.017   4.041   3.368
 1580WAT      O 4950   1.852   5.230   3.295
 1580WAT     H1 4951   1.771   5.179   3.299
 1580WAT     H2 4952   1.874   5.234   3.202
 1581WAT      O 4953   2.218   5.413   3.007
 1581WAT     H1 4954   2.254   5.372   2.929
 1581WAT     H2 4955   2.251   5.503   3.005
 1582WAT      O 4956   2.605   3.914   3.121
 1582WAT     H1 4957   2.541   3.946   3.184
 1582WAT     H2 4958   2.572   3.828   3.096
 1583WAT      O 4959   3.081   3.989   2.949
 1583WAT     H1 4960   3.077   3.956   2.860
 1583WAT     H2 4961   3.023   4.065   2.949
 1584WAT      O 4962   1.746   3.936   2.374
 1584WAT     H1 4963   1.823   3.954   2.320
 1584WAT     H2 4964   1.683   4.003   2.348
 1585WAT      O 4965   2.379   4.144   2.672
 1585WAT     H1 4966   2.318   4.088   2.624
 1585WAT     H2 4967   2.455   4.088   2.688
 1586WAT      O 4968   1.819   5.410   2.376
 1586WAT     H1 4969   1.789   5.462   2.301
 1586WAT     H2 4970   1.843   5.475   2.442
 1587WAT      O 4971   1.971   3.978   2.222
 1587WAT     H1 4972   2.027   3.901   2.233
 1587WAT     H2 4973   2.030   4.053   2.233
 1588WAT      O 4974   2.196   3.970   2.528
 1588WAT     H1 4975   2.131   3.903   2.546
 1588WAT     H2 4976   2.145   4.050   2.513
 1589WAT      O 4977   2.194   3.889   3.770
 1589WAT     H1 4978   2.182   3.945   3.694
 1589WAT     H2 4979   2.249   3.818   3.739
 1590WAT      O 4980   2.016   5.230   2.268
 1590WAT     H1 4981   1.953   5.285   2.316
 1590WAT     H2 4982   2.026   5.152   2.322
 1591WAT      O 4983   2.888   3.857   3.826
 1591WAT     H1 4984   2.855   3.870   3.915
 1591WAT     H2 4985   2.983   3.846   3.838
 1592WAT      O 4986   2.760   4.627   0.856
 1592WAT     H1 4987   2.742   4.533   0.852
 1592WAT     H2 4988   2.711   4.664   0.782
 1593WAT      O 4989   2.577   4.807   1.045
 1593WAT     H1 4990   2.511   4.756   1.091
 1593WAT     H2 4991   2.648   4.745   1.027
 1594WAT      O 4992   1.966   4.851   1.143
 1594WAT     H1 4993   1.899   4.802   1.191
 1594WAT     H2 4994   2.040   4.855   1.203
 1595WAT      O 4995   2.986   5.232   0.910
 1595WAT     H1 4996   2.936   5.160   0.948
 1595WAT     H2 4997   3.054   5.251   0.975
 1596WAT      O 4998   1.978   5.242   1.170
 1596WAT     H1 4999   2.022   5.161   1.141
 1596WAT     H2 5000   2.044   5.310   1.159
 1597WAT      O 5001   1.819   4.344   0.515
 1597WAT     H1 5002   1.725   4.359   0.506
 1597WAT     H2 5003   1.850   4.327   0.426
 1598WAT      O 5004   1.601   4.569   1.090
 1598WAT     H1 5005   1.672   4.506   1.104
 1598WAT     H2 5006   1.627   4.618   1.012
 1599WAT      O 5007   2.501   5.070   1.065
 1599WAT     H1 5008   2.522   4.977   1.049
 1599WAT     H2 5009   2.570   5.100   1.125
 1600WAT      O 5010   1.733   4.146   1.297
 1600WAT     H1 5011   1.730   4.055   1.327
 1600WAT     H2 5012   1.669   4.191   1.353
 1601WAT      O 5013   2.619   4.358   1.069
 1601WAT     H1 5014   2.669   4.282   1.098
 1601WAT     H2 5015   2.639   4.365   0.975
 1602WAT      O 5016   2.040   4.199   0.624
 1602WAT     H1 5017   2.062   4.275   0.678
 1602WAT     H2 5018   1.949   4.212   0.600
 1603WAT      O 5019   3.014   4.110   0.765
 1603WAT     H1 5020   3.088   4.052   0.784
 1603WAT     H2 5021   3.013   4.172   0.838
 1604WAT      O 5022   1.798   4.379   1.155
 1604WAT     H1 5023   1.881   4.401   1.198
 1604WAT     H2 5024   1.769   4.299   1.198
 1605WAT      O 5025   2.228   4.505   1.066
 1605WAT     H1 5026   2.294   4.555   1.115
 1605WAT     H2 5027   2.269   4.420   1.051
 1606WAT      O 5028   2.051   3.944   1.489
 1606WAT     H1 5029   2.055   4.009   1.418
 1606WAT     H2 5030   1.966   3.901   1.476
 1607WAT      O 5031   2.688   4.966   0.624
 1607WAT     H1 5032   2.627   5.000   0.559
 1607WAT     H2 5033   2.712   5.042   0.677
 1608WAT      O 5034   2.186   4.927   1.310
 1608WAT     H1 5035   2.146   4.986   1.374
 1608WAT     H2 5036   2.203   4.983   1.234
 1609WAT      O 5037   3.045   4.281   1.046
 1609WAT     H1 5038   2.962   4.296   1.090
 1609WAT     H2 5039   3.077   4.369   1.025
 1610WAT      O 5040   2.012   4.128   1.290
 1610WAT     H1 5041   2.047   4.216   1.275
 1610WAT     H2 5042   1.917   4.139   1.290
 1611WAT      O 5043   2.102   5.128   1.479
 1611WAT     H1 5044   2.161   5.198   1.450
 1611WAT     H2 5045   2.014   5.164   1.465
 1612WAT      O 5046   1.619   5.018   0.387
 1612WAT     H1 5047   1.619   5.071   0.308
 1612WAT     H2 5048   1.635   5.080   0.458
 1613WAT      O 5049   3.174   5.266   1.292
 1613WAT     H1 5050   3.108   5.334   1.280
 1613WAT     H2 5051   3.229   5.272   1.214
 1614WAT      O 5052   3.319   4.239   1.107
 1614WAT     H1 5053   3.224   4.247   1.106
 1614WAT     H2 5054   3.350   4.319   1.150
 1615WAT      O 5055   2.378   3.877   0.912
 1615WAT     H1 5056   2.407   3.816   0.845
 1615WAT     H2 5057   2.285   3.890   0.893
 1616WAT      O 5058   3.075   5.114   0.660
 1616WAT     H1 5059   3.059   5.021   0.672
 1616WAT     H2 5060   3.043   5.154   0.741
 1617WAT      O 5061   2.895   4.938   1.282
 1617WAT     H1 5062   2.942   4.910   1.204
 1617WAT     H2 5063   2.963   4.968   1.342
 1618WAT      O 5064   2.627   4.690   0.618
 1618WAT     H1 5065   2.532   4.698   0.621
 1618WAT     H2 5066   2.657   4.779   0.599
 1619WAT      O 5067   2.626   4.285   0.295
 1619WAT     H1 5068   2.534   4.306   0.314
 1619WAT     H2 5069   2.664   4.368   0.266
 1620WAT      O 5070   3.269   4.774   1.292
 1620WAT     H1 5071   3.196   4.803   1.236
 1620WAT     H2 5072   3.344   4.825   1.262
 1621WAT      O 5073   3.022   4.843   0.657
 1621WAT     H1 5074   2.956   4.809   0.596
 1621WAT     H2 5075   3.018   4.782   0.732
 1622WAT      O 5076   2.973   4.457   1.384
 1622WAT     H1 5077   2.930   4.542   1.399
 1622WAT     H2 5078   2.900   4.395   1.374
 1623WAT      O 5079   2.180   4.721   0.862
 1623WAT     H1 5080   2.149   4.646   0.810
 1623WAT     H2 5081   2.196   4.684   0.949
 1624WAT      O 5082   2.227   5.081   1.089
 1624WAT     H1 5083   2.196   5.047   1.005
 1624WAT     H2 5084   2.322   5.088   1.077
 1625WAT      O 5085   2.052   4.407   1.257
 1625WAT     H1 5086   2.105   4.437   1.183
 1625WAT     H2 5087   2.088   4.454   1.332
 1626WAT      O 5088   2.143   5.082   1.742
 1626WAT     H1 5089   2.055   5.095   1.776
 1626WAT     H2 5090   2.134   5.090   1.647
 1627WAT      O 5091   2.846   4.766   0.357
 1627WAT     H1 5092   2.881   4.679   0.339
 1627WAT     H2 5093   2.921   4.824   0.349
 1628WAT      O 5094   2.023   4.772   1.605
 1628WAT     H1 5095   1.997   4.863   1.616
 1628WAT     H2 5096   1.941   4.726   1.585
 1629WAT      O 5097   2.636   5.247   0.743
 1629WAT     H1 5098   2.696   5.307   0.698
 1629WAT     H2 5099   2.662   5.252   0.835
 1630WAT      O 5100   2.219   5.342   1.825
 1630WAT     H1 5101   2.194   5.389   1.746
 1630WAT     H2 5102   2.192   5.252   1.809
 1631WAT      O 5103   3.200   3.888   0.180
 1631WAT     H1 5104   3.176   3.880   0.273
 1631WAT     H2 5105   3.279   3.942   0.182
 1632WAT      O 5106   1.851   4.615   0.632
 1632WAT     H1 5107   1.844   4.689   0.571
 1632WAT     H2 5108   1.834   4.538   0.578
 1633WAT      O 5109   3.429   5.412   1.977
 1633WAT     H1 5110   3.434   5.500   2.014
 1633WAT     H2 5111   3.461   5.423   1.887
 1634WAT      O 5112   1.605   4.930   1.212
 1634WAT     H1 5113   1.596   4.942   1.117
 1634WAT     H2 5114   1.678   4.869   1.221
 1635WAT      O 5115   1.731   5.110   0.834
 1635WAT     H1 5116   1.714   5.133   0.743
 1635WAT     H2 5117   1.821   5.075   0.833
 1636WAT      O 5118   3.324   5.136   1.668
 1636WAT     H1 5119   3.368   5.119   1.585
 1636WAT     H2 5120   3.343   5.059   1.722
 1637WAT      O 5121   2.905   5.314   0.313
 1637WAT     H1 5122   2.820   5.290   0.276
 1637WAT     H2 5123   2.959   5.236   0.303
 1638WAT      O 5124   1.624   5.060   1.461
 1638WAT     H1 5125   1.617   5.010   1.379
 1638WAT     H2 5126   1.680   5.007   1.517
 1639WAT      O 5127   2.101   3.967   0.965
 1639WAT     H1 5128   2.059   4.049   0.939
 1639WAT     H2 5129   2.151   3.990   1.044
 1640WAT      O 5130   2.517   4.246   1.515
 1640WAT     H1 5131   2.464   4.264   1.592
 1640WAT     H2 5132   2.484   4.162   1.482
 1641WAT      O 5133   3.043   4.322   1.622
 1641WAT     H1 5134   2.957   4.318   1.665
 1641WAT     H2 5135   3.030   4.382   1.549
 1642WAT      O 5136   2.734   4.521   1.840
 1642WAT     H1 5137   2.750   4.428   1.823
 1642WAT     H2 5138   2.821   4.556   1.863
 1643WAT      O 5139   2.416   3.919   0.475
 1643WAT     H1 5140   2.332   3.926   0.520
 1643WAT     H2 5141   2.410   3.836   0.427
 1644WAT      O 5142   2.309   4.013   1.146
 1644WAT     H1 5143   2.325   4.104   1.122
 1644WAT     H2 5144   2.355   3.962   1.080
 1645WAT      O 5145   2.075   4.472   0.748
 1645WAT     H1 5146   2.041   4.430   0.827
 1645WAT     H2 5147   2.000   4.517   0.710
 1646WAT      O 5148   2.791   4.466   0.587
 1646WAT     H1 5149   2.736   4.544   0.583
 1646WAT     H2 5150   2.837   4.464   0.503
 1647WAT      O 5151   2.321   4.562   1.786
 1647WAT     H1 5152   2.323   4.468   1.769
 1647WAT     H2 5153   2.408   4.593   1.763
 1648WAT      O 5154   2.690   4.341   0.808
 1648WAT     H1 5155   2.719   4.375   0.724
 1648WAT     H2 5156   2.690   4.246   0.798
 1649WAT      O 5157   1.845   4.208   1.619
 1649WAT     H1 5158   1.794   4.284   1.645
 1649WAT     H2 5159   1.782   4.135   1.620
 1650WAT      O 5160   2.487   4.197   1.929
 1650WAT     H1 5161   2.428   4.151   1.989
 1650WAT     H2 5162   2.555   4.233   1.986
 1651WAT      O 5163   1.567   3.988   1.016
 1651WAT     H1 5164   1.542   4.054   1.081
 1651WAT     H2 5165   1.631   3.933   1.062
 1652WAT      O 5166   2.715   4.585   1.203
 1652WAT     H1 5167   2.640   4.622   1.250
 1652WAT     H2 5168   2.681   4.505   1.162
 1653WAT      O 5169   2.363   4.264   1.041
 1653WAT     H1 5170   2.368   4.230   0.952
 1653WAT     H2 5171   2.451   4.297   1.060
 1654WAT      O 5172   1.937   4.251   0.930
 1654WAT     H1 5173   1.905   4.295   1.009
 1654WAT     H2 5174   1.859   4.213   0.890
 1655WAT      O 5175   2.371   4.363   0.368
 1655WAT     H1 5176   2.366   4.361   0.463
 1655WAT     H2 5177   2.336   4.449   0.343
 1656WAT      O 5178   2.762   4.142   1.156
 1656WAT     H1 5179   2.774   4.173   1.246
 1656WAT     H2 5180   2.725   4.055   1.165
 1657WAT      O 5181   2.267   4.599   0.259
 1657WAT     H1 5182   2.221   4.556   0.187
 1657WAT     H2 5183   2.344   4.639   0.218
 1658WAT      O 5184   1.787   4.970   1.668
 1658WAT     H1 5185   1.745   4.911   1.731
 1658WAT     H2 5186   1.818   5.044   1.721
 1659WAT      O 5187   2.401   4.669   1.219
 1659WAT     H1 5188   2.423   4.610   1.292
 1659WAT     H2 5189   2.355   4.742   1.261
 1660WAT      O 5190   1.693   4.137   0.826
 1660WAT     H1 5191   1.653   4.089   0.899
 1660WAT     H2 5192   1.700   4.072   0.756
 1661WAT      O 5193   2.171   4.562   1.460
 1661WAT     H1 5194   2.144   4.647   1.496
 1661WAT     H2 5195   2.267   4.563   1.465
 1662WAT      O 5196   2.037   4.997   0.521
 1662WAT     H1 5197   1.959   4.942   0.515
 1662WAT     H2 5198   2.108   4.942   0.488
 1663WAT      O 5199   3.105   4.876   1.085
 1663WAT     H1 5200   3.177   4.925   1.046
 1663WAT     H2 5201   3.077   4.816   1.016
 1664WAT      O 5202   2.654   4.041   0.501
 1664WAT     H1 5203   2.569   3.997   0.494
 1664WAT     H2 5204   2.644   4.121   0.450
 1665WAT      O 5205   2.638   4.901   1.695
 1665WAT     H1 5206   2.637   4.815   1.653
 1665WAT     H2 5207   2.556   4.904   1.745
 1666WAT      O 5208   2.923   4.462   0.342
 1666WAT     H1 5209   3.009   4.498   0.322
 1666WAT     H2 5210   2.927   4.371   0.313
 1667WAT      O 5211   2.030   4.967   0.900
 1667WAT     H1 5212   2.077   4.892   0.863
 1667WAT     H2 5213   1.993   4.934   0.981
 1668WAT      O 5214   2.529   5.091   0.415
 1668WAT     H1 5215   2.533   5.166   0.355
 1668WAT     H2 5216   2.441   5.098   0.455
 1669WAT      O 5217   1.769   4.666   1.568
 1669WAT     H1 5218   1.725   4.721   1.633
 1669WAT     H2 5219   1.755   4.576   1.598
 1670WAT      O 5220   2.096   4.704   1.862
 1670WAT     H1 5221   2.077   4.731   1.773
 1670WAT     H2 5222   2.177   4.654   1.855
 1671WAT      O 5223   2.633   5.173   1.649
 1671WAT     H1 5224   2.632   5.078   1.652
 1671WAT     H2 5225   2.566   5.201   1.711
 1672WAT      O 5226   3.152   4.607   0.282
 1672WAT     H1 5227   3.146   4.645   0.195
 1672WAT     H2 5228   3.210   4.665   0.331
 1673WAT      O 5229   3.254   4.852   1.571
 1673WAT     H1 5230   3.180   4.913   1.560
 1673WAT     H2 5231   3.286   4.837   1.483
 1674WAT      O 5232   3.269   5.269   0.541
 1674WAT     H1 5233   3.208   5.212   0.587
 1674WAT     H2 5234   3.213   5.329   0.492
 1675WAT      O 5235   2.811   5.012   0.938
 1675WAT     H1 5236   2.840   4.946   0.875
 1675WAT     H2 5237   2.725   4.980   0.967
 1676WAT      O 5238   2.401   5.085   0.689
 1676WAT     H1 5239   2.477   5.139   0.710
 1676WAT     H2 5240   2.327   5.146   0.692
 1677WAT      O 5241   1.626   4.637   0.247
 1677WAT     H1 5242   1.721   4.643   0.256
 1677WAT     H2 5243   1.596   4.727   0.249
 1678WAT      O 5244   2.365   4.804   0.657
 1678WAT     H1 5245   2.388   4.896   0.674
 1678WAT     H2 5246   2.311   4.778   0.732
 1679WAT      O 5247   2.558   5.341   1.368
 1679WAT     H1 5248   2.608   5.347   1.449
 1679WAT     H2 5249   2.598   5.267   1.321
 1680WAT      O 5250   1.949   3.817   0.695
 1680WAT     H1 5251   1.908   3.795   0.779
 1680WAT     H2 5252   1.876   3.845   0.639
 1681WAT      O 5253   2.710   5.143   1.237
 1681WAT     H1 5254   2.758   5.064   1.259
 1681WAT     H2 5255   2.777   5.203   1.202
 1682WAT      O 5256   2.896   5.223   1.572
 1682WAT     H1 5257   2.908   5.295   1.634
 1682WAT     H2 5258   2.804   5.198   1.582
 1683WAT      O 5259   1.648   4.004   1.639
 1683WAT     H1 5260   1.566   4.013   1.687
 1683WAT     H2 5261   1.697   3.937   1.688
 1684WAT      O 5262   3.051   4.954   0.378
 1684WAT     H1 5263   3.036   5.006   0.457
 1684WAT     H2 5264   3.138   4.916   0.391
 1685WAT      O 5265   1.659   5.405   1.716
 1685WAT     H1 5266   1.673   5.310   1.714
 1685WAT     H2 5267   1.574   5.417   1.673
 1686WAT      O 5268   2.464   5.223   1.872
 1686WAT     H1 5269   2.429   5.150   1.924
 1686WAT     H2 5270   2.389   5.281   1.858
 1687WAT      O 5271   2.281   5.307   0.366
 1687WAT     H1 5272   2.274   5.380   0.305
 1687WAT     H2 5273   2.191   5.276   0.378
 1688WAT      O 5274   1.822   4.840   0.450
 1688WAT     H1 5275   1.752   4.902   0.429
 1688WAT     H2 5276   1.858   4.815   0.365
 1689WAT      O 5277   2.781   4.238   1.414
 1689WAT     H1 5278   2.816   4.167   1.468
 1689WAT     H2 5279   2.692   4.253   1.447
 1690WAT      O 5280   3.128   4.145   0.499
 1690WAT     H1 5281   3.068   4.158   0.426
 1690WAT     H2 5282   3.072   4.141   0.576
 1691WAT      O 5283   2.319   4.370   0.631
 1691WAT     H1 5284   2.248   4.414   0.677
 1691WAT     H2 5285   2.352   4.306   0.694
 1692WAT      O 5286   2.466   4.520   1.436
 1692WAT     H1 5287   2.524   4.564   1.498
 1692WAT     H2 5288   2.484   4.427   1.449
 1693WAT      O 5289   2.733   4.059   0.770
 1693WAT     H1 5290   2.704   4.044   0.680
 1693WAT     H2 5291   2.828   4.067   0.763
 1694WAT      O 5292   2.130   4.210   0.362
 1694WAT     H1 5293   2.219   4.244   0.352
 1694WAT     H2 5294   2.113   4.215   0.456
 1695WAT      O 5295   3.030   4.685   0.879
 1695WAT     H1 5296   2.940   4.654   0.883
 1695WAT     H2 5297   3.082   4.612   0.910
 1696WAT      O 5298   1.902   4.597   0.292
 1696WAT     H1 5299   1.887   4.504   0.274
 1696WAT     H2 5300   1.995   4.603   0.313
 1697WAT      O 5301   3.240   5.371   1.044
 1697WAT     H1 5302   3.237   5.467   1.040
 1697WAT     H2 5303   3.323   5.349   1.001
 1698WAT      O 5304   1.657   5.203   0.585
 1698WAT     H1 5305   1.567   5.235   0.581
 1698WAT     H2 5306   1.710   5.279   0.560
 1699WAT      O 5307   2.779   5.107   1.907
 1699WAT     H1 5308   2.705   5.128   1.851
 1699WAT     H2 5309   2.743   5.046   1.972
 1700WAT      O 5310   1.661   4.773   1.813
 1700WAT     H1 5311   1.711   4.704   1.856
 1700WAT     H2 5312   1.583   4.785   1.868
 1701WAT      O 5313   2.365   4.911   1.757
 1701WAT     H1 5314   2.286   4.966   1.761
 1701WAT     H2 5315   2.367   4.877   1.668
 1702WAT      O 5316   2.669   4.939   0.228
 1702WAT     H1 5317   2.617   4.976   0.299
 1702WAT     H2 5318   2.726   4.875   0.271
 1703WAT      O 5319   3.074   5.071   1.814
 1703WAT     H1 5320   3.144   5.105   1.758
 1703WAT     H2 5321   2.994   5.111   1.780
 1704WAT      O 5322   1.842   4.576   1.894
 1704WAT     H1 5323   1.848   4.558   1.988
 1704WAT     H2 5324   1.931   4.603   1.870
 1705WAT      O 5325   2.217   4.820   0.425
 1705WAT     H1 5326   2.277   4.812   0.500
 1705WAT     H2 5327   2.236   4.744   0.371
 1706WAT      O 5328   2.050   4.424   1.698
 1706WAT     H1 5329   1.988   4.382   1.638
 1706WAT     H2 5330   2.112   4.469   1.640
 1707WAT      O 5331   2.927   4.854   1.692
 1707WAT     H1 5332   2.982   4.907   1.749
 1707WAT     H2 5333   2.839   4.887   1.706
 1708WAT      O 5334   3.002   4.598   1.861
 1708WAT     H1 5335   3.069   4.537   1.832
 1708WAT     H2 5336   3.007   4.671   1.798
 1709WAT      O 5337   2.100   4.112   1.707
 1709WAT     H1 5338   2.095   4.050   1.635
 1709WAT     H2 5339   2.028   4.173   1.691
 1710WAT      O 5340   2.380   4.003   1.408
 1710WAT     H1 5341   2.341   4.006   1.321
 1710WAT     H2 5342   2.317   3.954   1.461
 1711WAT      O 5343   2.392   4.874   1.481
 1711WAT     H1 5344   2.456   4.940   1.454
 1711WAT     H2 5345   2.315   4.890   1.426
 1712WAT      O 5346   2.646   4.634   1.609
 1712WAT     H1 5347   2.674   4.592   1.691
 1712WAT     H2 5348   2.726   4.645   1.559
 1713WAT      O 5349   2.870   4.703   1.466
 1713WAT     H1 5350   2.858   4.763   1.392
 1713WAT     H2 5351   2.908   4.758   1.535
 1714WAT      O 5352   2.338   4.292   1.725
 1714WAT     H1 5353   2.387   4.260   1.801
 1714WAT     H2 5354   2.258   4.240   1.725
 1715WAT      O 5355   2.809   4.262   1.771
 1715WAT     H1 5356   2.739   4.208   1.737
 1715WAT     H2 5357   2.873   4.200   1.806
 1716WAT      O 5358   2.870   3.930   0.374
 1716WAT     H1 5359   2.880   3.839   0.402
 1716WAT     H2 5360   2.792   3.961   0.421
 1717WAT      O 5361   1.897   5.055   0.201
 1717WAT     H1 5362   1.933   5.129   0.251
 1717WAT     H2 5363   1.973   5.008   0.169
 1718WAT      O 5364   1.620   5.338   0.956
 1718WAT     H1 5365   1.654   5.260   0.912
 1718WAT     H2 5366   1.693   5.369   1.010
 1719WAT      O 5367   2.100   5.180   0.716
 1719WAT     H1 5368   2.070   5.137   0.796
 1719WAT     H2 5369   2.082   5.118   0.646
 1720WAT      O 5370   3.260   5.398   1.631
 1720WAT     H1 5371   3.200   5.393   1.556
 1720WAT     H2 5372   3.273   5.307   1.657
 1721WAT      O 5373   3.300   4.826   0.416
 1721WAT     H1 5374   3.367   4.895   0.414
 1721WAT     H2 5375   3.313   4.783   0.500
 1722WAT      O 5376   1.649   4.688   0.832
 1722WAT     H1 5377   1.581   4.671   0.766
 1722WAT     H2 5378   1.731   4.673   0.787
 1723WAT      O 5379   3.422   4.930   0.937
 1723WAT     H1 5380   3.452   4.849   0.896
 1723WAT     H2 5381   3.474   4.999   0.896
 1724WAT      O 5382   3.082   5.057   1.447
 1724WAT     H1 5383   3.018   5.112   1.492
 1724WAT     H2 5384   3.134   5.118   1.394
 1725WAT      O 5385   2.968   4.170   0.277
 1725WAT     H1 5386   2.989   4.154   0.185
 1725WAT     H2 5387   2.920   4.092   0.304
 1726WAT      O 5388   3.302   4.669   0.648
 1726WAT     H1 5389   3.270   4.583   0.618
 1726WAT     H2 5390   3.226   4.709   0.691
 1727WAT      O 5391   1.770   4.727   1.297
 1727WAT     H1 5392   1.779   4.710   1.391
 1727WAT     H2 5393   1.710   4.659   1.266
 1728WAT      O 5394   3.253   4.576   1.611
 1728WAT     H1 5395   3.246   4.552   1.519
 1728WAT     H2 5396   3.256   4.671   1.611
 1729WAT      O 5397   1.708   4.429   1.697
 1729WAT     H1 5398   1.622   4.410   1.734
 1729WAT     H2 5399   1.758   4.465   1.770
 1730WAT      O 5400   1.572   4.412   0.407
 1730WAT     H1 5401   1.490   4.437   0.449
 1730WAT     H2 5402   1.592   4.484   0.347
 1731WAT      O 5403   3.217   4.500   0.973
 1731WAT     H1 5404   3.262   4.445   0.909
 1731WAT     H2 5405   3.288   4.534   1.028
 1732WAT      O 5406   3.244   4.490   1.325
 1732WAT     H1 5407   3.149   4.482   1.332
 1732WAT     H2 5408   3.259   4.581   1.301
 1733WAT      O 5409   1.852   4.331   0.235
 1733WAT     H1 5410   1.914   4.262   0.213
 1733WAT     H2 5411   1.775   4.314   0.180
 1734WAT      O 5412   3.221   4.413   0.579
 1734WAT     H1 5413   3.244   4.369   0.661
 1734WAT     H2 5414   3.167   4.349   0.532
 1735WAT      O 5415   1.767   3.833   1.129
 1735WAT     H1 5416   1.840   3.797   1.079
 1735WAT     H2 5417   1.806   3.863   1.211
 1736WAT      O 5418   3.326   4.290   0.819
 1736WAT     H1 5419   3.312   4.251   0.906
 1736WAT     H2 5420   3.410   4.254   0.790
 1737WAT      O 5421   3.420   4.133   0.425
 1737WAT     H1 5422   3.329   4.130   0.453
 1737WAT     H2 5423   3.438   4.226   0.411
 1738WAT      O 5424   1.744   3.882   1.414
 1738WAT     H1 5425   1.705   3.925   1.489
 1738WAT     H2 5426   1.709   3.793   1.416
 1739WAT      O 5427   1.890   5.181   1.815
 1739WAT     H1 5428   1.890   5.146   1.904
 1739WAT     H2 5429   1.903   5.275   1.826
 1740WAT      O 5430   2.276   5.319   1.385
 1740WAT     H1 5431   2.247   5.351   1.299
 1740WAT     H2 5432   2.370   5.334   1.386
 1741WAT      O 5433   2.499   3.970   1.764
 1741WAT     H1 5434   2.490   4.051   1.815
 1741WAT     H2 5435   2.592   3.965   1.743
 1742WAT      O 5436   1.817   3.812   1.738
 1742WAT     H1 5437   1.861   3.783   1.658
 1742WAT     H2 5438   1.824   3.738   1.798
 1743WAT      O 5439   1.883   5.474   1.550
 1743WAT     H1 5440   1.810   5.462   1.611
 1743WAT     H2 5441   1.882   5.395   1.496
 1744WAT      O 5442   2.841   3.798   1.339
 1744WAT     H1 5443   2.764   3.849   1.311
 1744WAT     H2 5444   2.811   3.752   1.418
 1745WAT      O 5445   1.852   5.230   1.418
 1745WAT     H1 5446   1.771   5.179   1.421
 1745WAT     H2 5447   1.874   5.234   1.325
 1746WAT      O 5448   2.217   5.413   1.130
 1746WAT     H1 5449   2.254   5.372   1.051
 1746WAT     H2 5450   2.250   5.503   1.128
 1747WAT      O 5451   2.601   3.906   1.246
 1747WAT     H1 5452   2.537   3.942   1.306
 1747WAT     H2 5453   2.561   3.826   1.213
 1748WAT      O 5454   3.047   3.959   1.052
 1748WAT     H1 5455   3.112   3.960   0.982
 1748WAT     H2 5456   3.027   4.051   1.068
 1749WAT      O 5457   3.227   3.944   0.849
 1749WAT     H1 5458   3.216   3.852   0.828
 1749WAT     H2 5459   3.310   3.949   0.895
 1750WAT      O 5460   1.740   3.933   0.491
 1750WAT     H1 5461   1.819   3.956   0.443
 1750WAT     H2 5462   1.678   4.004   0.471
 1751WAT      O 5463   2.379   4.143   0.793
 1751WAT     H1 5464   2.316   4.090   0.744
 1751WAT     H2 5465   2.448   4.082   0.817
 1752WAT      O 5466   2.837   3.808   0.920
 1752WAT     H1 5467   2.908   3.850   0.969
 1752WAT     H2 5468   2.778   3.880   0.897
 1753WAT      O 5469   3.160   3.856   0.456
 1753WAT     H1 5470   3.156   3.948   0.482
 1753WAT     H2 5471   3.073   3.821   0.476
 1754WAT      O 5472   1.817   5.412   0.498
 1754WAT     H1 5473   1.793   5.465   0.422
 1754WAT     H2 5474   1.844   5.475   0.564
 1755WAT      O 5475   1.967   3.985   0.353
 1755WAT     H1 5476   2.021   3.906   0.358
 1755WAT     H2 5477   2.031   4.056   0.348
 1756WAT      O 5478   2.193   3.972   0.650
 1756WAT     H1 5479   2.128   3.904   0.669
 1756WAT     H2 5480   2.142   4.051   0.634
 1757WAT      O 5481   2.194   3.888   1.893
 1757WAT     H1 5482   2.184   3.946   1.817
 1757WAT     H2 5483   2.251   3.818   1.862
 1758WAT      O 5484   2.012   5.232   0.386
 1758WAT     H1 5485   1.952   5.286   0.437
 1758WAT     H2 5486   2.023   5.153   0.439
 1759WAT      O 5487   2.768   2.745   4.594
 1759WAT     H1 5488   2.733   2.657   4.603
 1759WAT     H2 5489   2.692   2.801   4.585
 1760WAT      O 5490   2.586   2.929   4.795
 1760WAT     H1 5491   2.510   2.889   4.836
 1760WAT     H2 5492   2.658   2.869   4.813
 1761WAT      O 5493   1.961   2.984   4.899
 1761WAT     H1 5494   1.895   2.933   4.945
 1761WAT     H2 5495   2.040   2.975   4.952
 1762WAT      O 5496   2.973   3.378   4.685
 1762WAT     H1 5497   2.926   3.296   4.700
 1762WAT     H2 5498   3.055   3.368   4.733
 1763WAT      O 5499   1.983   3.360   4.933
 1763WAT     H1 5500   2.016   3.280   4.893
 1763WAT     H2 5501   2.045   3.428   4.904
 1764WAT      O 5502   1.839   2.474   4.258
 1764WAT     H1 5503   1.746   2.492   4.269
 1764WAT     H2 5504   1.845   2.431   4.172
 1765WAT      O 5505   1.597   2.692   4.844
 1765WAT     H1 5506   1.668   2.630   4.861
 1765WAT     H2 5507   1.625   2.740   4.766
 1766WAT      O 5508   2.595   3.599   4.666
 1766WAT     H1 5509   2.534   3.631   4.600
 1766WAT     H2 5510   2.681   3.629   4.635
 1767WAT      O 5511   2.502   3.192   4.819
 1767WAT     H1 5512   2.525   3.101   4.801
 1767WAT     H2 5513   2.571   3.223   4.879
 1768WAT      O 5514   1.732   2.266   5.051
 1768WAT     H1 5515   1.729   2.176   5.084
 1768WAT     H2 5516   1.669   2.313   5.105
 1769WAT      O 5517   2.623   2.481   4.823
 1769WAT     H1 5518   2.672   2.404   4.851
 1769WAT     H2 5519   2.641   2.487   4.729
 1770WAT      O 5520   3.004   2.233   4.540
 1770WAT     H1 5521   3.082   2.178   4.539
 1770WAT     H2 5522   3.020   2.297   4.609
 1771WAT      O 5523   1.790   2.509   4.918
 1771WAT     H1 5524   1.876   2.527   4.955
 1771WAT     H2 5525   1.769   2.421   4.950
 1772WAT      O 5526   2.220   2.603   4.841
 1772WAT     H1 5527   2.278   2.678   4.833
 1772WAT     H2 5528   2.272   2.528   4.813
 1773WAT      O 5529   3.419   2.431   5.188
 1773WAT     H1 5530   3.361   2.494   5.144
 1773WAT     H2 5531   3.463   2.483   5.255
 1774WAT      O 5532   2.049   2.064   5.240
 1774WAT     H1 5533   2.054   2.130   5.171
 1774WAT     H2 5534   1.962   2.024   5.229
 1775WAT      O 5535   2.708   3.099   4.396
 1775WAT     H1 5536   2.629   3.101   4.342
 1775WAT     H2 5537   2.711   3.185   4.437
 1776WAT      O 5538   2.191   3.050   5.063
 1776WAT     H1 5539   2.146   3.106   5.127
 1776WAT     H2 5540   2.204   3.106   4.987
 1777WAT      O 5541   3.043   2.405   4.799
 1777WAT     H1 5542   2.961   2.421   4.845
 1777WAT     H2 5543   3.077   2.492   4.780
 1778WAT      O 5544   2.012   2.248   5.044
 1778WAT     H1 5545   2.046   2.337   5.032
 1778WAT     H2 5546   1.917   2.259   5.041
 1779WAT      O 5547   2.100   3.252   5.235
 1779WAT     H1 5548   2.158   3.321   5.203
 1779WAT     H2 5549   2.012   3.284   5.217
 1780WAT      O 5550   1.626   3.144   4.138
 1780WAT     H1 5551   1.595   3.196   4.064
 1780WAT     H2 5552   1.642   3.208   4.207
 1781WAT      O 5553   3.172   3.376   5.031
 1781WAT     H1 5554   3.124   3.456   5.054
 1781WAT     H2 5555   3.222   3.401   4.953
 1782WAT      O 5556   3.321   2.359   4.852
 1782WAT     H1 5557   3.226   2.370   4.862
 1782WAT     H2 5558   3.358   2.433   4.900
 1783WAT      O 5559   2.378   2.003   4.668
 1783WAT     H1 5560   2.405   1.938   4.602
 1783WAT     H2 5561   2.285   2.014   4.653
 1784WAT      O 5562   2.941   3.575   4.899
 1784WAT     H1 5563   2.942   3.525   4.817
 1784WAT     H2 5564   2.876   3.644   4.885
 1785WAT      O 5565   3.076   3.235   4.409
 1785WAT     H1 5566   3.065   3.141   4.421
 1785WAT     H2 5567   3.043   3.273   4.491
 1786WAT      O 5568   2.896   3.059   5.039
 1786WAT     H1 5569   2.943   3.035   4.959
 1786WAT     H2 5570   2.964   3.092   5.097
 1787WAT      O 5571   3.269   2.896   5.048
 1787WAT     H1 5572   3.197   2.926   4.993
 1787WAT     H2 5573   3.344   2.947   5.018
 1788WAT      O 5574   3.026   2.963   4.411
 1788WAT     H1 5575   2.947   2.942   4.362
 1788WAT     H2 5576   3.022   2.907   4.488
 1789WAT      O 5577   2.973   2.581   5.138
 1789WAT     H1 5578   2.931   2.666   5.153
 1789WAT     H2 5579   2.899   2.520   5.127
 1790WAT      O 5580   2.229   3.208   4.841
 1790WAT     H1 5581   2.196   3.163   4.763
 1790WAT     H2 5582   2.324   3.210   4.829
 1791WAT      O 5583   2.044   2.527   5.024
 1791WAT     H1 5584   2.099   2.552   4.950
 1791WAT     H2 5585   2.079   2.575   5.099
 1792WAT      O 5586   3.038   3.573   5.213
 1792WAT     H1 5587   3.005   3.657   5.181
 1792WAT     H2 5588   2.961   3.516   5.215
 1793WAT      O 5589   2.151   3.209   5.500
 1793WAT     H1 5590   2.064   3.208   5.539
 1793WAT     H2 5591   2.135   3.216   5.406
 1794WAT      O 5592   2.859   2.883   4.113
 1794WAT     H1 5593   2.908   2.821   4.059
 1794WAT     H2 5594   2.915   2.960   4.118
 1795WAT      O 5595   2.025   2.891   5.356
 1795WAT     H1 5596   2.000   2.982   5.371
 1795WAT     H2 5597   1.943   2.846   5.336
 1796WAT      O 5598   2.654   3.362   4.502
 1796WAT     H1 5599   2.705   3.430   4.458
 1796WAT     H2 5600   2.633   3.399   4.587
 1797WAT      O 5601   2.194   3.481   5.582
 1797WAT     H1 5602   2.205   3.528   5.499
 1797WAT     H2 5603   2.200   3.389   5.558
 1798WAT      O 5604   1.818   2.751   4.383
 1798WAT     H1 5605   1.828   2.816   4.313
 1798WAT     H2 5606   1.837   2.668   4.340
 1799WAT      O 5607   1.605   3.053   4.967
 1799WAT     H1 5608   1.598   3.067   4.872
 1799WAT     H2 5609   1.678   2.991   4.976
 1800WAT      O 5610   1.731   3.232   4.592
 1800WAT     H1 5611   1.716   3.257   4.501
 1800WAT     H2 5612   1.820   3.196   4.592
 1801WAT      O 5613   3.328   3.262   5.423
 1801WAT     H1 5614   3.369   3.251   5.338
 1801WAT     H2 5615   3.334   3.176   5.464
 1802WAT      O 5616   2.724   3.634   5.297
 1802WAT     H1 5617   2.772   3.625   5.380
 1802WAT     H2 5618   2.640   3.672   5.322
 1803WAT      O 5619   2.916   3.682   4.237
 1803WAT     H1 5620   2.894   3.649   4.325
 1803WAT     H2 5621   2.914   3.604   4.182
 1804WAT      O 5622   2.160   3.639   4.395
 1804WAT     H1 5623   2.136   3.547   4.409
 1804WAT     H2 5624   2.082   3.688   4.422
 1805WAT      O 5625   2.885   3.456   4.081
 1805WAT     H1 5626   2.808   3.423   4.034
 1805WAT     H2 5627   2.958   3.403   4.048
 1806WAT      O 5628   2.849   3.584   4.503
 1806WAT     H1 5629   2.903   3.515   4.542
 1806WAT     H2 5630   2.875   3.664   4.549
 1807WAT      O 5631   3.330   2.483   5.518
 1807WAT     H1 5632   3.289   2.555   5.470
 1807WAT     H2 5633   3.265   2.413   5.516
 1808WAT      O 5634   1.623   3.180   5.216
 1808WAT     H1 5635   1.614   3.136   5.131
 1808WAT     H2 5636   1.684   3.125   5.265
 1809WAT      O 5637   2.101   2.094   4.721
 1809WAT     H1 5638   2.047   2.172   4.706
 1809WAT     H2 5639   2.151   2.115   4.800
 1810WAT      O 5640   2.521   2.362   5.275
 1810WAT     H1 5641   2.466   2.383   5.351
 1810WAT     H2 5642   2.483   2.281   5.241
 1811WAT      O 5643   3.043   2.456   5.377
 1811WAT     H1 5644   2.958   2.448   5.421
 1811WAT     H2 5645   3.025   2.512   5.301
 1812WAT      O 5646   2.735   2.637   5.583
 1812WAT     H1 5647   2.758   2.545   5.571
 1812WAT     H2 5648   2.815   2.678   5.616
 1813WAT      O 5649   2.310   2.132   4.902
 1813WAT     H1 5650   2.324   2.223   4.878
 1813WAT     H2 5651   2.356   2.082   4.835
 1814WAT      O 5652   2.774   2.584   4.319
 1814WAT     H1 5653   2.751   2.677   4.328
 1814WAT     H2 5654   2.867   2.584   4.296
 1815WAT      O 5655   2.321   2.679   5.553
 1815WAT     H1 5656   2.324   2.588   5.525
 1815WAT     H2 5657   2.406   2.715   5.527
 1816WAT      O 5658   2.690   2.466   4.560
 1816WAT     H1 5659   2.713   2.493   4.471
 1816WAT     H2 5660   2.688   2.370   4.556
 1817WAT      O 5661   1.843   2.324   5.371
 1817WAT     H1 5662   1.793   2.404   5.387
 1817WAT     H2 5663   1.778   2.255   5.372
 1818WAT      O 5664   1.566   2.108   4.773
 1818WAT     H1 5665   1.541   2.177   4.835
 1818WAT     H2 5666   1.631   2.055   4.820
 1819WAT      O 5667   1.603   2.512   3.882
 1819WAT     H1 5668   1.599   2.606   3.903
 1819WAT     H2 5669   1.538   2.500   3.814
 1820WAT      O 5670   2.709   2.715   4.951
 1820WAT     H1 5671   2.634   2.749   5.000
 1820WAT     H2 5672   2.678   2.630   4.918
 1821WAT      O 5673   2.371   2.376   4.792
 1821WAT     H1 5674   2.378   2.352   4.700
 1821WAT     H2 5675   2.456   2.415   4.812
 1822WAT      O 5676   1.941   2.325   4.697
 1822WAT     H1 5677   1.940   2.408   4.745
 1822WAT     H2 5678   1.856   2.323   4.652
 1823WAT      O 5679   2.763   2.263   4.909
 1823WAT     H1 5680   2.771   2.298   4.998
 1823WAT     H2 5681   2.722   2.177   4.921
 1824WAT      O 5682   3.082   1.960   5.486
 1824WAT     H1 5683   3.163   1.938   5.531
 1824WAT     H2 5684   3.107   1.973   5.394
 1825WAT      O 5685   1.792   3.092   5.431
 1825WAT     H1 5686   1.749   3.025   5.485
 1825WAT     H2 5687   1.800   3.168   5.488
 1826WAT      O 5688   2.414   2.801   4.976
 1826WAT     H1 5689   2.424   2.735   5.045
 1826WAT     H2 5690   2.350   2.863   5.010
 1827WAT      O 5691   1.687   2.262   4.583
 1827WAT     H1 5692   1.650   2.214   4.658
 1827WAT     H2 5693   1.690   2.198   4.513
 1828WAT      O 5694   2.171   2.682   5.219
 1828WAT     H1 5695   2.146   2.768   5.253
 1828WAT     H2 5696   2.267   2.685   5.217
 1829WAT      O 5697   2.044   3.114   4.279
 1829WAT     H1 5698   1.965   3.060   4.268
 1829WAT     H2 5699   2.110   3.052   4.311
 1830WAT      O 5700   3.107   2.997   4.841
 1830WAT     H1 5701   3.178   3.049   4.804
 1830WAT     H2 5702   3.078   2.940   4.769
 1831WAT      O 5703   2.647   2.159   4.262
 1831WAT     H1 5704   2.569   2.105   4.261
 1831WAT     H2 5705   2.617   2.246   4.234
 1832WAT      O 5706   2.647   3.019   5.450
 1832WAT     H1 5707   2.640   2.934   5.407
 1832WAT     H2 5708   2.564   3.029   5.498
 1833WAT      O 5709   2.033   3.092   4.650
 1833WAT     H1 5710   2.076   3.020   4.604
 1833WAT     H2 5711   1.995   3.051   4.728
 1834WAT      O 5712   2.521   3.198   4.152
 1834WAT     H1 5713   2.546   3.284   4.119
 1834WAT     H2 5714   2.468   3.216   4.230
 1835WAT      O 5715   1.770   2.788   5.321
 1835WAT     H1 5716   1.725   2.840   5.388
 1835WAT     H2 5717   1.758   2.698   5.350
 1836WAT      O 5718   2.093   2.822   5.620
 1836WAT     H1 5719   2.071   2.840   5.528
 1836WAT     H2 5720   2.174   2.771   5.616
 1837WAT      O 5721   2.638   3.288   5.397
 1837WAT     H1 5722   2.641   3.194   5.410
 1837WAT     H2 5723   2.568   3.318   5.455
 1838WAT      O 5724   3.257   2.975   5.331
 1838WAT     H1 5725   3.181   3.033   5.321
 1838WAT     H2 5726   3.289   2.963   5.242
 1839WAT      O 5727   3.270   3.410   4.306
 1839WAT     H1 5728   3.203   3.349   4.337
 1839WAT     H2 5729   3.233   3.446   4.225
 1840WAT      O 5730   2.823   3.137   4.693
 1840WAT     H1 5731   2.834   3.078   4.618
 1840WAT     H2 5732   2.735   3.119   4.724
 1841WAT      O 5733   2.417   3.241   4.399
 1841WAT     H1 5734   2.486   3.277   4.455
 1841WAT     H2 5735   2.336   3.260   4.447
 1842WAT      O 5736   1.619   2.768   3.976
 1842WAT     H1 5737   1.702   2.782   4.021
 1842WAT     H2 5738   1.581   2.855   3.967
 1843WAT      O 5739   2.561   3.469   5.113
 1843WAT     H1 5740   2.615   3.503   5.185
 1843WAT     H2 5741   2.607   3.389   5.085
 1844WAT      O 5742   1.949   1.940   4.455
 1844WAT     H1 5743   1.936   1.926   4.549
 1844WAT     H2 5744   1.861   1.936   4.418
 1845WAT      O 5745   2.714   3.267   4.992
 1845WAT     H1 5746   2.763   3.188   5.014
 1845WAT     H2 5747   2.782   3.328   4.961
 1846WAT      O 5748   3.080   3.289   3.958
 1846WAT     H1 5749   3.066   3.212   4.014
 1846WAT     H2 5750   3.032   3.269   3.878
 1847WAT      O 5751   2.897   3.351   5.340
 1847WAT     H1 5752   2.899   3.429   5.396
 1847WAT     H2 5753   2.806   3.323   5.340
 1848WAT      O 5754   1.687   3.711   4.031
 1848WAT     H1 5755   1.718   3.784   3.977
 1848WAT     H2 5756   1.657   3.752   4.112
 1849WAT      O 5757   1.645   2.129   5.390
 1849WAT     H1 5758   1.565   2.138   5.442
 1849WAT     H2 5759   1.697   2.063   5.436
 1850WAT      O 5760   3.046   3.085   4.139
 1850WAT     H1 5761   3.030   3.136   4.218
 1850WAT     H2 5762   3.130   3.043   4.155
 1851WAT      O 5763   1.674   3.526   5.461
 1851WAT     H1 5764   1.660   3.432   5.475
 1851WAT     H2 5765   1.588   3.559   5.436
 1852WAT      O 5766   2.287   3.427   4.112
 1852WAT     H1 5767   2.277   3.505   4.056
 1852WAT     H2 5768   2.197   3.398   4.127
 1853WAT      O 5769   1.826   2.959   4.185
 1853WAT     H1 5770   1.755   3.022   4.170
 1853WAT     H2 5771   1.874   2.958   4.102
 1854WAT      O 5772   2.779   2.374   5.160
 1854WAT     H1 5773   2.824   2.301   5.203
 1854WAT     H2 5774   2.693   2.377   5.202
 1855WAT      O 5775   2.553   3.437   4.000
 1855WAT     H1 5776   2.560   3.414   3.908
 1855WAT     H2 5777   2.461   3.423   4.022
 1856WAT      O 5778   2.462   2.641   5.193
 1856WAT     H1 5779   2.521   2.687   5.253
 1856WAT     H2 5780   2.484   2.548   5.206
 1857WAT      O 5781   2.734   2.178   4.527
 1857WAT     H1 5782   2.714   2.160   4.435
 1857WAT     H2 5783   2.829   2.192   4.528
 1858WAT      O 5784   2.427   3.693   4.458
 1858WAT     H1 5785   2.471   3.682   4.374
 1858WAT     H2 5786   2.335   3.675   4.440
 1859WAT      O 5787   3.208   2.263   5.271
 1859WAT     H1 5788   3.150   2.330   5.308
 1859WAT     H2 5789   3.285   2.311   5.242
 1860WAT      O 5790   3.035   2.807   4.631
 1860WAT     H1 5791   2.945   2.774   4.633
 1860WAT     H2 5792   3.087   2.735   4.666
 1861WAT      O 5793   2.029   2.958   3.976
 1861WAT     H1 5794   2.114   2.954   4.019
 1861WAT     H2 5795   2.041   2.908   3.895
 1862WAT      O 5796   1.895   2.695   4.036
 1862WAT     H1 5797   1.888   2.602   4.057
 1862WAT     H2 5798   1.968   2.726   4.089
 1863WAT      O 5799   3.242   3.507   4.781
 1863WAT     H1 5800   3.250   3.588   4.830
 1863WAT     H2 5801   3.330   3.491   4.746
 1864WAT      O 5802   1.985   3.725   4.759
 1864WAT     H1 5803   2.052   3.663   4.790
 1864WAT     H2 5804   2.034   3.805   4.739
 1865WAT      O 5805   1.658   3.327   4.340
 1865WAT     H1 5806   1.569   3.360   4.340
 1865WAT     H2 5807   1.712   3.403   4.316
 1866WAT      O 5808   2.276   3.626   3.931
 1866WAT     H1 5809   2.354   3.673   3.901
 1866WAT     H2 5810   2.248   3.575   3.855
 1867WAT      O 5811   2.907   3.599   5.513
 1867WAT     H1 5812   2.997   3.623   5.491
 1867WAT     H2 5813   2.886   3.652   5.589
 1868WAT      O 5814   3.192   3.555   4.088
 1868WAT     H1 5815   3.177   3.506   4.007
 1868WAT     H2 5816   3.176   3.646   4.064
 1869WAT      O 5817   1.665   2.894   5.569
 1869WAT     H1 5818   1.709   2.836   5.631
 1869WAT     H2 5819   1.573   2.891   5.595
 1870WAT      O 5820   2.351   3.155   3.889
 1870WAT     H1 5821   2.358   3.127   3.980
 1870WAT     H2 5822   2.290   3.093   3.850
 1871WAT      O 5823   2.380   3.035   5.509
 1871WAT     H1 5824   2.298   3.081   5.528
 1871WAT     H2 5825   2.371   3.005   5.419
 1872WAT      O 5826   2.667   3.050   3.975
 1872WAT     H1 5827   2.613   3.099   4.037
 1872WAT     H2 5828   2.724   2.996   4.029
 1873WAT      O 5829   3.069   3.189   5.546
 1873WAT     H1 5830   3.149   3.231   5.517
 1873WAT     H2 5831   2.999   3.240   5.505
 1874WAT      O 5832   2.027   2.547   5.435
 1874WAT     H1 5833   1.995   2.492   5.364
 1874WAT     H2 5834   2.098   2.598   5.395
 1875WAT      O 5835   2.929   2.970   5.447
 1875WAT     H1 5836   2.981   3.032   5.496
 1875WAT     H2 5837   2.839   3.000   5.458
 1876WAT      O 5838   2.993   2.724   5.614
 1876WAT     H1 5839   3.069   2.669   5.592
 1876WAT     H2 5840   2.998   2.796   5.552
 1877WAT      O 5841   2.114   2.240   5.449
 1877WAT     H1 5842   2.095   2.177   5.379
 1877WAT     H2 5843   2.035   2.295   5.454
 1878WAT      O 5844   2.384   2.120   5.162
 1878WAT     H1 5845   2.342   2.124   5.076
 1878WAT     H2 5846   2.316   2.085   5.220
 1879WAT      O 5847   2.393   2.998   5.237
 1879WAT     H1 5848   2.459   3.060   5.206
 1879WAT     H2 5849   2.318   3.011   5.178
 1880WAT      O 5850   2.646   2.756   5.359
 1880WAT     H1 5851   2.672   2.715   5.442
 1880WAT     H2 5852   2.729   2.766   5.311
 1881WAT      O 5853   2.874   2.825   5.218
 1881WAT     H1 5854   2.858   2.887   5.147
 1881WAT     H2 5855   2.908   2.879   5.289
 1882WAT      O 5856   2.218   3.638   5.339
 1882WAT     H1 5857   2.136   3.682   5.315
 1882WAT     H2 5858   2.233   3.575   5.269
 1883WAT      O 5859   2.339   2.408   5.488
 1883WAT     H1 5860   2.364   2.375   5.575
 1883WAT     H2 5861   2.258   2.362   5.468
 1884WAT      O 5862   2.816   2.380   5.522
 1884WAT     H1 5863   2.744   2.325   5.489
 1884WAT     H2 5864   2.874   2.319   5.568
 1885WAT      O 5865   2.485   3.741   5.366
 1885WAT     H1 5866   2.477   3.830   5.400
 1885WAT     H2 5867   2.394   3.709   5.361
 1886WAT      O 5868   2.542   3.677   4.152
 1886WAT     H1 5869   2.632   3.707   4.139
 1886WAT     H2 5870   2.536   3.597   4.100
 1887WAT      O 5871   1.912   3.203   3.935
 1887WAT     H1 5872   1.948   3.259   4.004
 1887WAT     H2 5873   1.952   3.118   3.951
 1888WAT      O 5874   1.626   3.477   4.699
 1888WAT     H1 5875   1.666   3.393   4.675
 1888WAT     H2 5876   1.659   3.495   4.786
 1889WAT      O 5877   2.095   3.316   4.469
 1889WAT     H1 5878   2.069   3.271   4.550
 1889WAT     H2 5879   2.083   3.250   4.401
 1890WAT      O 5880   1.670   3.569   4.957
 1890WAT     H1 5881   1.629   3.582   5.043
 1890WAT     H2 5882   1.711   3.653   4.937
 1891WAT      O 5883   3.255   3.530   5.381
 1891WAT     H1 5884   3.178   3.537   5.324
 1891WAT     H2 5885   3.264   3.436   5.397
 1892WAT      O 5886   3.359   3.279   3.946
 1892WAT     H1 5887   3.264   3.291   3.953
 1892WAT     H2 5888   3.391   3.363   3.911
 1893WAT      O 5889   3.294   2.975   4.183
 1893WAT     H1 5890   3.372   3.030   4.178
 1893WAT     H2 5891   3.311   2.914   4.254
 1894WAT      O 5892   1.646   2.812   4.591
 1894WAT     H1 5893   1.582   2.793   4.522
 1894WAT     H2 5894   1.731   2.798   4.549
 1895WAT      O 5895   3.420   3.053   4.691
 1895WAT     H1 5896   3.451   2.972   4.650
 1895WAT     H2 5897   3.473   3.121   4.651
 1896WAT      O 5898   3.083   3.182   5.203
 1896WAT     H1 5899   3.022   3.240   5.249
 1896WAT     H2 5900   3.131   3.240   5.144
 1897WAT      O 5901   3.350   2.989   3.907
 1897WAT     H1 5902   3.353   3.082   3.885
 1897WAT     H2 5903   3.303   2.986   3.990
 1898WAT      O 5904   3.302   2.790   4.400
 1898WAT     H1 5905   3.265   2.707   4.370
 1898WAT     H2 5906   3.229   2.835   4.442
 1899WAT      O 5907   1.769   2.850   5.051
 1899WAT     H1 5908   1.779   2.831   5.144
 1899WAT     H2 5909   1.714   2.779   5.018
 1900WAT      O 5910   3.248   2.699   5.367
 1900WAT     H1 5911   3.236   2.675   5.275
 1900WAT     H2 5912   3.251   2.795   5.367
 1901WAT      O 5913   1.706   2.550   5.446
 1901WAT     H1 5914   1.621   2.530   5.486
 1901WAT     H2 5915   1.767   2.554   5.520
 1902WAT      O 5916   1.585   2.544   4.192
 1902WAT     H1 5917   1.493   2.549   4.219
 1902WAT     H2 5918   1.585   2.577   4.102
 1903WAT      O 5919   3.218   2.622   4.729
 1903WAT     H1 5920   3.262   2.567   4.664
 1903WAT     H2 5921   3.289   2.657   4.782
 1904WAT      O 5922   3.245   2.617   5.086
 1904WAT     H1 5923   3.149   2.607   5.086
 1904WAT     H2 5924   3.259   2.707   5.057
 1905WAT      O 5925   1.846   2.423   3.985
 1905WAT     H1 5926   1.887   2.383   3.909
 1905WAT     H2 5927   1.758   2.447   3.955
 1906WAT      O 5928   3.199   2.534   4.334
 1906WAT     H1 5929   3.239   2.498   4.414
 1906WAT     H2 5930   3.159   2.460   4.291
 1907WAT      O 5931   1.767   1.950   4.884
 1907WAT     H1 5932   1.842   1.920   4.833
 1907WAT     H2 5933   1.806   1.988   4.964
 1908WAT      O 5934   3.324   2.413   4.571
 1908WAT     H1 5935   3.312   2.376   4.658
 1908WAT     H2 5936   3.409   2.379   4.543
 1909WAT      O 5937   3.175   1.995   5.224
 1909WAT     H1 5938   3.205   2.086   5.229
 1909WAT     H2 5939   3.168   1.978   5.130
 1910WAT      O 5940   3.132   3.668   4.576
 1910WAT     H1 5941   3.189   3.653   4.501
 1910WAT     H2 5942   3.153   3.598   4.637
 1911WAT      O 5943   1.744   2.004   5.167
 1911WAT     H1 5944   1.705   2.048   5.243
 1911WAT     H2 5945   1.712   1.914   5.172
 1912WAT      O 5946   2.273   3.458   5.136
 1912WAT     H1 5947   2.247   3.483   5.047
 1912WAT     H2 5948   2.369   3.459   5.134
 1913WAT      O 5949   2.500   2.105   5.494
 1913WAT     H1 5950   2.477   2.130   5.583
 1913WAT     H2 5951   2.596   2.105   5.493
 1914WAT      O 5952   2.777   2.096   5.482
 1914WAT     H1 5953   2.815   2.116   5.397
 1914WAT     H2 5954   2.838   2.033   5.521
 1915WAT      O 5955   3.405   3.661   5.184
 1915WAT     H1 5956   3.337   3.711   5.140
 1915WAT     H2 5957   3.360   3.614   5.254
 1916WAT      O 5958   1.807   1.935   5.481
 1916WAT     H1 5959   1.865   1.902   5.412
 1916WAT     H2 5960   1.806   1.864   5.546
 1917WAT      O 5961   1.883   3.605   5.297
 1917WAT     H1 5962   1.813   3.582   5.358
 1917WAT     H2 5963   1.890   3.529   5.239
 1918WAT      O 5964   2.836   1.928   5.117
 1918WAT     H1 5965   2.763   1.964   5.067
 1918WAT     H2 5966   2.795   1.865   5.177
 1919WAT      O 5967   2.914   2.152   5.251
 1919WAT     H1 5968   2.896   2.074   5.198
 1919WAT     H2 5969   3.009   2.159   5.253
 1920WAT      O 5970   3.158   3.742   4.948
 1920WAT     H1 5971   3.127   3.817   4.898
 1920WAT     H2 5972   3.087   3.678   4.942
 1921WAT      O 5973   1.851   3.353   5.174
 1921WAT     H1 5974   1.767   3.307   5.174
 1921WAT     H2 5975   1.874   3.360   5.081
 1922WAT      O 5976   2.217   3.556   4.868
 1922WAT     H1 5977   2.255   3.495   4.805
 1922WAT     H2 5978   2.287   3.619   4.887
 1923WAT      O 5979   2.484   3.653   4.922
 1923WAT     H1 5980   2.529   3.629   4.840
 1923WAT     H2 5981   2.517   3.590   4.986
 1924WAT      O 5982   2.604   2.023   5.003
 1924WAT     H1 5983   2.538   2.064   5.059
 1924WAT     H2 5984   2.559   1.947   4.966
 1925WAT      O 5985   3.051   2.080   4.809
 1925WAT     H1 5986   3.112   2.083   4.736
 1925WAT     H2 5987   3.025   2.172   4.823
 1926WAT      O 5988   3.229   2.066   4.604
 1926WAT     H1 5989   3.220   1.973   4.583
 1926WAT     H2 5990   3.311   2.073   4.652
 1927WAT      O 5991   1.688   3.663   4.491
 1927WAT     H1 5992   1.670   3.607   4.566
 1927WAT     H2 5993   1.601   3.684   4.456
 1928WAT      O 5994   2.393   2.258   4.540
 1928WAT     H1 5995   2.321   2.211   4.499
 1928WAT     H2 5996   2.447   2.189   4.580
 1929WAT      O 5997   2.836   1.932   4.684
 1929WAT     H1 5998   2.910   1.977   4.724
 1929WAT     H2 5999   2.780   2.002   4.652
 1930WAT      O 6000   1.819   3.537   4.251
 1930WAT     H1 6001   1.792   3.591   4.177
 1930WAT     H2 6002   1.812   3.596   4.326
 1931WAT      O 6003   2.193   2.106   4.406
 1931WAT     H1 6004   2.151   2.021   4.422
 1931WAT     H2 6005   2.120   2.169   4.406
 1932WAT      O 6006   3.316   3.687   4.369
 1932WAT     H1 6007   3.310   3.603   4.324
 1932WAT     H2 6008   3.274   3.749   4.309
 1933WAT      O 6009   2.224   2.020   5.651
 1933WAT     H1 6010   2.183   2.076   5.584
 1933WAT     H2 6011   2.233   1.935   5.608
 1934WAT      O 6012   2.117   3.749   4.129
 1934WAT     H1 6013   2.174   3.707   4.064
 1934WAT     H2 6014   2.138   3.704   4.211
 1935WAT      O 6015   2.012   3.355   4.142
 1935WAT     H1 6016   1.952   3.412   4.189
 1935WAT     H2 6017   2.022   3.278   4.199
 1936WAT      O 6018   1.964   2.971   3.018
 1936WAT     H1 6019   1.898   2.923   3.067
 1936WAT     H2 6020   2.037   2.981   3.079
 1937WAT      O 6021   1.983   3.361   3.054
 1937WAT     H1 6022   2.023   3.282   3.018
 1937WAT     H2 6023   2.042   3.432   3.028
 1938WAT      O 6024   1.823   2.459   2.394
 1938WAT     H1 6025   1.730   2.479   2.390
 1938WAT     H2 6026   1.848   2.439   2.304
 1939WAT      O 6027   1.601   2.692   2.968
 1939WAT     H1 6028   1.672   2.629   2.981
 1939WAT     H2 6029   1.627   2.740   2.889
 1940WAT      O 6030   2.599   3.598   2.787
 1940WAT     H1 6031   2.538   3.633   2.723
 1940WAT     H2 6032   2.679   3.648   2.774
 1941WAT      O 6033   1.733   2.269   3.174
 1941WAT     H1 6034   1.729   2.177   3.200
 1941WAT     H2 6035   1.669   2.313   3.230
 1942WAT      O 6036   2.610   2.473   2.945
 1942WAT     H1 6037   2.668   2.402   2.973
 1942WAT     H2 6038   2.633   2.488   2.853
 1943WAT      O 6039   2.039   2.319   2.504
 1943WAT     H1 6040   2.066   2.395   2.556
 1943WAT     H2 6041   1.949   2.340   2.476
 1944WAT      O 6042   3.012   2.230   2.643
 1944WAT     H1 6043   3.089   2.176   2.662
 1944WAT     H2 6044   3.013   2.297   2.712
 1945WAT      O 6045   1.797   2.501   3.032
 1945WAT     H1 6046   1.879   2.523   3.075
 1945WAT     H2 6047   1.768   2.420   3.074
 1946WAT      O 6048   2.228   2.623   2.947
 1946WAT     H1 6049   2.304   2.665   2.987
 1946WAT     H2 6050   2.260   2.537   2.921
 1947WAT      O 6051   3.435   2.434   3.305
 1947WAT     H1 6052   3.362   2.484   3.269
 1947WAT     H2 6053   3.475   2.493   3.369
 1948WAT      O 6054   2.064   2.058   3.354
 1948WAT     H1 6055   2.060   2.129   3.291
 1948WAT     H2 6056   1.974   2.025   3.358
 1949WAT      O 6057   2.175   3.044   3.185
 1949WAT     H1 6058   2.149   3.103   3.256
 1949WAT     H2 6059   2.200   3.102   3.113
 1950WAT      O 6060   3.045   2.405   2.927
 1950WAT     H1 6061   2.956   2.419   2.959
 1950WAT     H2 6062   3.075   2.492   2.901
 1951WAT      O 6063   2.012   2.251   3.166
 1951WAT     H1 6064   2.045   2.339   3.151
 1951WAT     H2 6065   1.917   2.260   3.168
 1952WAT      O 6066   2.104   3.250   3.358
 1952WAT     H1 6067   2.159   3.322   3.327
 1952WAT     H2 6068   2.015   3.281   3.345
 1953WAT      O 6069   1.624   3.144   2.261
 1953WAT     H1 6070   1.595   3.196   2.186
 1953WAT     H2 6071   1.641   3.209   2.329
 1954WAT      O 6072   3.319   2.352   2.977
 1954WAT     H1 6073   3.225   2.368   2.978
 1954WAT     H2 6074   3.357   2.432   3.015
 1955WAT      O 6075   2.378   2.000   2.791
 1955WAT     H1 6076   2.406   1.939   2.722
 1955WAT     H2 6077   2.284   2.011   2.775
 1956WAT      O 6078   2.622   2.804   2.476
 1956WAT     H1 6079   2.530   2.822   2.496
 1956WAT     H2 6080   2.651   2.880   2.424
 1957WAT      O 6081   2.624   2.429   2.141
 1957WAT     H1 6082   2.539   2.447   2.182
 1957WAT     H2 6083   2.680   2.500   2.173
 1958WAT      O 6084   2.179   2.843   2.739
 1958WAT     H1 6085   2.149   2.770   2.685
 1958WAT     H2 6086   2.190   2.804   2.826
 1959WAT      O 6087   2.228   3.203   2.963
 1959WAT     H1 6088   2.181   3.166   2.889
 1959WAT     H2 6089   2.318   3.217   2.931
 1960WAT      O 6090   2.051   2.529   3.135
 1960WAT     H1 6091   2.103   2.559   3.061
 1960WAT     H2 6092   2.086   2.576   3.210
 1961WAT      O 6093   2.141   3.214   3.629
 1961WAT     H1 6094   2.050   3.231   3.654
 1961WAT     H2 6095   2.140   3.212   3.533
 1962WAT      O 6096   2.022   2.891   3.491
 1962WAT     H1 6097   2.003   2.984   3.495
 1962WAT     H2 6098   1.938   2.850   3.469
 1963WAT      O 6099   2.629   3.367   2.628
 1963WAT     H1 6100   2.690   3.408   2.567
 1963WAT     H2 6101   2.626   3.426   2.703
 1964WAT      O 6102   2.219   3.478   3.705
 1964WAT     H1 6103   2.207   3.528   3.624
 1964WAT     H2 6104   2.189   3.390   3.684
 1965WAT      O 6105   3.200   1.995   2.061
 1965WAT     H1 6106   3.186   2.000   2.155
 1965WAT     H2 6107   3.274   2.053   2.044
 1966WAT      O 6108   1.850   2.740   2.506
 1966WAT     H1 6109   1.846   2.813   2.445
 1966WAT     H2 6110   1.835   2.662   2.452
 1967WAT      O 6111   3.428   3.534   3.869
 1967WAT     H1 6112   3.458   3.603   3.927
 1967WAT     H2 6113   3.430   3.573   3.781
 1968WAT      O 6114   1.605   3.052   3.090
 1968WAT     H1 6115   1.596   3.067   2.996
 1968WAT     H2 6116   1.680   2.992   3.097
 1969WAT      O 6117   1.730   3.231   2.712
 1969WAT     H1 6118   1.711   3.259   2.623
 1969WAT     H2 6119   1.821   3.200   2.709
 1970WAT      O 6120   2.161   3.639   2.520
 1970WAT     H1 6121   2.134   3.548   2.530
 1970WAT     H2 6122   2.083   3.690   2.545
 1971WAT      O 6123   1.622   3.182   3.341
 1971WAT     H1 6124   1.616   3.136   3.257
 1971WAT     H2 6125   1.682   3.129   3.393
 1972WAT      O 6126   2.104   2.090   2.844
 1972WAT     H1 6127   2.061   2.171   2.816
 1972WAT     H2 6128   2.149   2.114   2.925
 1973WAT      O 6129   2.532   2.336   3.398
 1973WAT     H1 6130   2.474   2.377   3.462
 1973WAT     H2 6131   2.478   2.268   3.357
 1974WAT      O 6132   2.402   2.044   2.323
 1974WAT     H1 6133   2.333   2.044   2.389
 1974WAT     H2 6134   2.420   1.952   2.307
 1975WAT      O 6135   2.318   2.135   3.028
 1975WAT     H1 6136   2.330   2.226   2.999
 1975WAT     H2 6137   2.358   2.082   2.959
 1976WAT      O 6138   2.075   2.597   2.627
 1976WAT     H1 6139   2.037   2.552   2.703
 1976WAT     H2 6140   2.000   2.640   2.585
 1977WAT      O 6141   2.786   2.579   2.472
 1977WAT     H1 6142   2.736   2.661   2.469
 1977WAT     H2 6143   2.837   2.579   2.391
 1978WAT      O 6144   2.330   2.671   3.696
 1978WAT     H1 6145   2.280   2.602   3.651
 1978WAT     H2 6146   2.409   2.682   3.643
 1979WAT      O 6147   2.676   2.454   2.686
 1979WAT     H1 6148   2.712   2.500   2.610
 1979WAT     H2 6149   2.689   2.361   2.666
 1980WAT      O 6150   1.844   2.333   3.494
 1980WAT     H1 6151   1.791   2.408   3.518
 1980WAT     H2 6152   1.783   2.259   3.498
 1981WAT      O 6153   1.567   2.110   2.893
 1981WAT     H1 6154   1.542   2.176   2.958
 1981WAT     H2 6155   1.631   2.055   2.939
 1982WAT      O 6156   1.600   2.512   2.003
 1982WAT     H1 6157   1.593   2.606   2.024
 1982WAT     H2 6158   1.537   2.498   1.933
 1983WAT      O 6159   2.358   2.384   2.916
 1983WAT     H1 6160   2.364   2.350   2.826
 1983WAT     H2 6161   2.446   2.416   2.935
 1984WAT      O 6162   1.937   2.374   2.809
 1984WAT     H1 6163   1.902   2.417   2.887
 1984WAT     H2 6164   1.861   2.335   2.767
 1985WAT      O 6165   2.377   2.486   2.245
 1985WAT     H1 6166   2.364   2.487   2.340
 1985WAT     H2 6167   2.339   2.569   2.215
 1986WAT      O 6168   2.767   2.259   3.029
 1986WAT     H1 6169   2.776   2.297   3.117
 1986WAT     H2 6170   2.724   2.175   3.043
 1987WAT      O 6171   2.267   2.722   2.141
 1987WAT     H1 6172   2.221   2.667   2.078
 1987WAT     H2 6173   2.339   2.760   2.091
 1988WAT      O 6174   1.791   3.092   3.547
 1988WAT     H1 6175   1.747   3.035   3.611
 1988WAT     H2 6176   1.818   3.168   3.598
 1989WAT      O 6177   1.693   2.259   2.704
 1989WAT     H1 6178   1.653   2.210   2.776
 1989WAT     H2 6179   1.703   2.195   2.633
 1990WAT      O 6180   2.170   2.690   3.342
 1990WAT     H1 6181   2.130   2.772   3.369
 1990WAT     H2 6182   2.260   2.715   3.318
 1991WAT      O 6183   2.040   3.119   2.401
 1991WAT     H1 6184   1.962   3.064   2.391
 1991WAT     H2 6185   2.111   3.066   2.366
 1992WAT      O 6186   2.652   2.155   2.374
 1992WAT     H1 6187   2.566   2.115   2.362
 1992WAT     H2 6188   2.643   2.243   2.338
 1993WAT      O 6189   2.935   2.542   2.244
 1993WAT     H1 6190   2.952   2.620   2.191
 1993WAT     H2 6191   2.945   2.469   2.183
 1994WAT      O 6192   2.038   3.093   2.781
 1994WAT     H1 6193   2.081   3.018   2.740
 1994WAT     H2 6194   1.994   3.056   2.858
 1995WAT      O 6195   2.507   3.201   2.276
 1995WAT     H1 6196   2.562   3.268   2.235
 1995WAT     H2 6197   2.433   3.249   2.312
 1996WAT      O 6198   1.770   2.789   3.445
 1996WAT     H1 6199   1.725   2.843   3.509
 1996WAT     H2 6200   1.754   2.699   3.474
 1997WAT      O 6201   2.100   2.818   3.747
 1997WAT     H1 6202   2.079   2.848   3.659
 1997WAT     H2 6203   2.179   2.766   3.736
 1998WAT      O 6204   2.627   3.317   3.528
 1998WAT     H1 6205   2.640   3.224   3.509
 1998WAT     H2 6206   2.563   3.319   3.599
 1999WAT      O 6207   3.174   2.746   2.129
 1999WAT     H1 6208   3.086   2.778   2.112
 1999WAT     H2 6209   3.179   2.736   2.224
 2000WAT      O 6210   2.403   3.203   2.589
 2000WAT     H1 6211   2.487   3.248   2.592
 2000WAT     H2 6212   2.340   3.270   2.563
 2001WAT      O 6213   1.618   2.765   2.110
 2001WAT     H1 6214   1.707   2.778   2.142
 2001WAT     H2 6215   1.586   2.854   2.093
 2002WAT      O 6216   2.363   2.930   2.533
 2002WAT     H1 6217   2.387   3.021   2.552
 2002WAT     H2 6218   2.310   2.903   2.608
 2003WAT      O 6219   2.579   3.460   3.237
 2003WAT     H1 6220   2.602   3.491   3.325
 2003WAT     H2 6221   2.626   3.377   3.227
 2004WAT      O 6222   1.950   1.939   2.572
 2004WAT     H1 6223   1.911   1.917   2.656
 2004WAT     H2 6224   1.876   1.969   2.518
 2005WAT      O 6225   1.687   3.711   2.154
 2005WAT     H1 6226   1.719   3.783   2.100
 2005WAT     H2 6227   1.658   3.753   2.235
 2006WAT      O 6228   1.648   2.121   3.517
 2006WAT     H1 6229   1.557   2.144   3.538
 2006WAT     H2 6230   1.669   2.048   3.575
 2007WAT      O 6231   1.662   3.523   3.591
 2007WAT     H1 6232   1.673   3.428   3.588
 2007WAT     H2 6233   1.577   3.539   3.549
 2008WAT      O 6234   2.465   3.348   3.748
 2008WAT     H1 6235   2.426   3.276   3.797
 2008WAT     H2 6236   2.392   3.407   3.730
 2009WAT      O 6237   2.286   3.428   2.245
 2009WAT     H1 6238   2.281   3.502   2.186
 2009WAT     H2 6239   2.195   3.396   2.252
 2010WAT      O 6240   1.828   2.963   2.318
 2010WAT     H1 6241   1.757   3.023   2.294
 2010WAT     H2 6242   1.874   2.946   2.236
 2011WAT      O 6243   2.782   2.357   3.280
 2011WAT     H1 6244   2.826   2.308   3.350
 2011WAT     H2 6245   2.696   2.378   3.316
 2012WAT      O 6246   3.124   2.259   2.375
 2012WAT     H1 6247   3.068   2.282   2.301
 2012WAT     H2 6248   3.067   2.266   2.451
 2013WAT      O 6249   2.550   3.443   2.123
 2013WAT     H1 6250   2.558   3.417   2.031
 2013WAT     H2 6251   2.460   3.420   2.147
 2014WAT      O 6252   2.313   2.489   2.506
 2014WAT     H1 6253   2.248   2.538   2.555
 2014WAT     H2 6254   2.352   2.430   2.571
 2015WAT      O 6255   2.735   2.170   2.645
 2015WAT     H1 6256   2.708   2.158   2.554
 2015WAT     H2 6257   2.830   2.187   2.640
 2016WAT      O 6258   2.429   3.692   2.579
 2016WAT     H1 6259   2.470   3.685   2.492
 2016WAT     H2 6260   2.337   3.674   2.563
 2017WAT      O 6261   2.135   2.325   2.244
 2017WAT     H1 6262   2.222   2.363   2.229
 2017WAT     H2 6263   2.117   2.340   2.336
 2018WAT      O 6264   2.022   2.958   2.099
 2018WAT     H1 6265   2.102   2.958   2.152
 2018WAT     H2 6266   2.048   2.914   2.018
 2019WAT      O 6267   1.891   2.697   2.174
 2019WAT     H1 6268   1.893   2.602   2.169
 2019WAT     H2 6269   1.984   2.723   2.176
 2020WAT      O 6270   1.985   3.726   2.881
 2020WAT     H1 6271   2.052   3.665   2.913
 2020WAT     H2 6272   2.033   3.806   2.862
 2021WAT      O 6273   1.658   3.328   2.463
 2021WAT     H1 6274   1.568   3.361   2.461
 2021WAT     H2 6275   1.711   3.403   2.438
 2022WAT      O 6276   1.887   3.619   3.806
 2022WAT     H1 6277   1.970   3.654   3.838
 2022WAT     H2 6278   1.835   3.606   3.885
 2023WAT      O 6279   2.279   3.623   2.055
 2023WAT     H1 6280   2.355   3.671   2.024
 2023WAT     H2 6281   2.249   3.573   1.980
 2024WAT      O 6282   2.789   3.236   3.798
 2024WAT     H1 6283   2.729   3.264   3.729
 2024WAT     H2 6284   2.740   3.171   3.848
 2025WAT      O 6285   1.659   2.895   3.690
 2025WAT     H1 6286   1.706   2.825   3.736
 2025WAT     H2 6287   1.581   2.910   3.743
 2026WAT      O 6288   2.342   3.151   2.019
 2026WAT     H1 6289   2.356   3.111   2.105
 2026WAT     H2 6290   2.346   3.078   1.958
 2027WAT      O 6291   1.846   2.691   3.767
 2027WAT     H1 6292   1.848   2.687   3.862
 2027WAT     H2 6293   1.934   2.718   3.742
 2028WAT      O 6294   2.227   2.944   2.293
 2028WAT     H1 6295   2.282   2.943   2.371
 2028WAT     H2 6296   2.247   2.862   2.248
 2029WAT      O 6297   2.082   2.541   3.562
 2029WAT     H1 6298   2.015   2.478   3.536
 2029WAT     H2 6299   2.101   2.591   3.483
 2030WAT      O 6300   2.493   2.845   2.036
 2030WAT     H1 6301   2.561   2.785   2.006
 2030WAT     H2 6302   2.540   2.915   2.080
 2031WAT      O 6303   2.366   2.120   3.295
 2031WAT     H1 6304   2.342   2.126   3.203
 2031WAT     H2 6305   2.291   2.078   3.337
 2032WAT      O 6306   2.119   2.550   1.988
 2032WAT     H1 6307   2.092   2.461   2.013
 2032WAT     H2 6308   2.101   2.555   1.894
 2033WAT      O 6309   2.210   3.633   3.468
 2033WAT     H1 6310   2.131   3.680   3.439
 2033WAT     H2 6311   2.229   3.574   3.396
 2034WAT      O 6312   2.855   2.036   2.226
 2034WAT     H1 6313   2.878   1.956   2.272
 2034WAT     H2 6314   2.787   2.076   2.281
 2035WAT      O 6315   2.015   2.284   1.972
 2035WAT     H1 6316   2.049   2.255   1.887
 2035WAT     H2 6317   2.076   2.246   2.036
 2036WAT      O 6318   2.478   3.740   3.472
 2036WAT     H1 6319   2.478   3.824   3.516
 2036WAT     H2 6320   2.388   3.707   3.483
 2037WAT      O 6321   2.331   2.164   2.077
 2037WAT     H1 6322   2.281   2.095   2.032
 2037WAT     H2 6323   2.350   2.127   2.163
 2038WAT      O 6324   2.542   3.674   2.281
 2038WAT     H1 6325   2.616   3.723   2.245
 2038WAT     H2 6326   2.536   3.595   2.227
 2039WAT      O 6327   1.911   3.204   2.058
 2039WAT     H1 6328   1.950   3.257   2.126
 2039WAT     H2 6329   1.949   3.117   2.070
 2040WAT      O 6330   1.626   3.477   2.822
 2040WAT     H1 6331   1.666   3.393   2.799
 2040WAT     H2 6332   1.659   3.496   2.910
 2041WAT      O 6333   2.096   3.316   2.589
 2041WAT     H1 6334   2.070   3.273   2.670
 2041WAT     H2 6335   2.083   3.249   2.521
 2042WAT      O 6336   1.672   3.569   3.080
 2042WAT     H1 6337   1.628   3.582   3.164
 2042WAT     H2 6338   1.710   3.654   3.059
 2043WAT      O 6339   1.648   2.810   2.709
 2043WAT     H1 6340   1.582   2.793   2.642
 2043WAT     H2 6341   1.732   2.795   2.664
 2044WAT      O 6342   2.974   2.283   2.141
 2044WAT     H1 6343   2.998   2.271   2.049
 2044WAT     H2 6344   2.920   2.207   2.162
 2045WAT      O 6345   1.771   2.848   3.174
 2045WAT     H1 6346   1.778   2.832   3.268
 2045WAT     H2 6347   1.709   2.782   3.142
 2046WAT      O 6348   1.705   2.552   3.574
 2046WAT     H1 6349   1.619   2.534   3.611
 2046WAT     H2 6350   1.755   2.589   3.646
 2047WAT      O 6351   1.576   2.531   2.305
 2047WAT     H1 6352   1.491   2.565   2.332
 2047WAT     H2 6353   1.599   2.580   2.226
 2048WAT      O 6354   3.229   2.614   2.868
 2048WAT     H1 6355   3.260   2.571   2.789
 2048WAT     H2 6356   3.306   2.658   2.904
 2049WAT      O 6357   3.249   2.616   3.209
 2049WAT     H1 6358   3.155   2.615   3.189
 2049WAT     H2 6359   3.284   2.688   3.157
 2050WAT      O 6360   1.839   2.435   2.121
 2050WAT     H1 6361   1.893   2.378   2.066
 2050WAT     H2 6362   1.758   2.446   2.071
 2051WAT      O 6363   1.784   2.050   2.008
 2051WAT     H1 6364   1.856   2.086   2.061
 2051WAT     H2 6365   1.823   2.037   1.922
 2052WAT      O 6366   3.221   2.534   2.434
 2052WAT     H1 6367   3.234   2.511   2.526
 2052WAT     H2 6368   3.157   2.470   2.402
 2053WAT      O 6369   1.769   1.957   3.006
 2053WAT     H1 6370   1.841   1.920   2.955
 2053WAT     H2 6371   1.810   1.984   3.089
 2054WAT      O 6372   3.325   2.412   2.695
 2054WAT     H1 6373   3.312   2.375   2.782
 2054WAT     H2 6374   3.410   2.376   2.667
 2055WAT      O 6375   3.406   2.171   2.024
 2055WAT     H1 6376   3.495   2.139   2.007
 2055WAT     H2 6377   3.412   2.213   2.110
 2056WAT      O 6378   3.414   2.258   2.289
 2056WAT     H1 6379   3.327   2.256   2.329
 2056WAT     H2 6380   3.440   2.350   2.293
 2057WAT      O 6381   1.740   1.999   3.290
 2057WAT     H1 6382   1.708   2.046   3.367
 2057WAT     H2 6383   1.688   1.918   3.288
 2058WAT      O 6384   1.888   3.312   3.694
 2058WAT     H1 6385   1.890   3.276   3.782
 2058WAT     H2 6386   1.894   3.406   3.706
 2059WAT      O 6387   2.273   3.461   3.259
 2059WAT     H1 6388   2.246   3.487   3.171
 2059WAT     H2 6389   2.369   3.466   3.256
 2060WAT      O 6390   1.881   3.604   3.425
 2060WAT     H1 6391   1.812   3.584   3.488
 2060WAT     H2 6392   1.885   3.527   3.368
 2061WAT      O 6393   1.853   3.354   3.298
 2061WAT     H1 6394   1.769   3.308   3.301
 2061WAT     H2 6395   1.872   3.362   3.205
 2062WAT      O 6396   2.216   3.557   2.991
 2062WAT     H1 6397   2.252   3.507   2.918
 2062WAT     H2 6398   2.285   3.619   3.014
 2063WAT      O 6399   2.482   3.645   3.049
 2063WAT     H1 6400   2.529   3.629   2.967
 2063WAT     H2 6401   2.525   3.588   3.113
 2064WAT      O 6402   2.608   2.028   3.122
 2064WAT     H1 6403   2.539   2.068   3.174
 2064WAT     H2 6404   2.570   1.946   3.090
 2065WAT      O 6405   3.049   2.079   2.932
 2065WAT     H1 6406   3.112   2.084   2.860
 2065WAT     H2 6407   3.025   2.170   2.948
 2066WAT      O 6408   3.227   2.067   2.727
 2066WAT     H1 6409   3.221   1.974   2.704
 2066WAT     H2 6410   3.310   2.074   2.774
 2067WAT      O 6411   1.688   3.663   2.614
 2067WAT     H1 6412   1.669   3.607   2.690
 2067WAT     H2 6413   1.601   3.685   2.579
 2068WAT      O 6414   1.745   2.058   2.372
 2068WAT     H1 6415   1.823   2.077   2.320
 2068WAT     H2 6416   1.683   2.126   2.348
 2069WAT      O 6417   2.377   2.265   2.670
 2069WAT     H1 6418   2.315   2.210   2.621
 2069WAT     H2 6419   2.447   2.205   2.696
 2070WAT      O 6420   2.838   1.930   2.805
 2070WAT     H1 6421   2.909   1.978   2.847
 2070WAT     H2 6422   2.778   1.999   2.775
 2071WAT      O 6423   3.160   1.981   2.334
 2071WAT     H1 6424   3.153   2.073   2.360
 2071WAT     H2 6425   3.076   1.942   2.358
 2072WAT      O 6426   1.819   3.537   2.374
 2072WAT     H1 6427   1.792   3.590   2.299
 2072WAT     H2 6428   1.812   3.596   2.449
 2073WAT      O 6429   1.971   2.101   2.220
 2073WAT     H1 6430   2.026   2.024   2.233
 2073WAT     H2 6431   2.030   2.175   2.234
 2074WAT      O 6432   2.196   2.093   2.525
 2074WAT     H1 6433   2.130   2.026   2.546
 2074WAT     H2 6434   2.144   2.172   2.511
 2075WAT      O 6435   2.487   3.747   3.805
 2075WAT     H1 6436   2.575   3.712   3.796
 2075WAT     H2 6437   2.487   3.827   3.752
 2076WAT      O 6438   2.118   3.749   2.252
 2076WAT     H1 6439   2.174   3.706   2.186
 2076WAT     H2 6440   2.139   3.704   2.334
 2077WAT      O 6441   2.013   3.355   2.266
 2077WAT     H1 6442   1.951   3.412   2.311
 2077WAT     H2 6443   2.021   3.278   2.321
 2078WAT      O 6444   2.753   2.748   0.862
 2078WAT     H1 6445   2.741   2.654   0.851
 2078WAT     H2 6446   2.711   2.787   0.785
 2079WAT      O 6447   2.581   2.928   1.048
 2079WAT     H1 6448   2.513   2.874   1.089
 2079WAT     H2 6449   2.641   2.865   1.008
 2080WAT      O 6450   1.968   2.972   1.143
 2080WAT     H1 6451   1.899   2.924   1.190
 2080WAT     H2 6452   2.041   2.977   1.204
 2081WAT      O 6453   2.977   3.374   0.914
 2081WAT     H1 6454   2.932   3.296   0.945
 2081WAT     H2 6455   3.054   3.382   0.971
 2082WAT      O 6456   1.984   3.361   1.175
 2082WAT     H1 6457   2.028   3.283   1.140
 2082WAT     H2 6458   2.042   3.433   1.151
 2083WAT      O 6459   1.819   2.466   0.515
 2083WAT     H1 6460   1.725   2.481   0.506
 2083WAT     H2 6461   1.849   2.449   0.426
 2084WAT      O 6462   1.601   2.691   1.090
 2084WAT     H1 6463   1.672   2.629   1.104
 2084WAT     H2 6464   1.627   2.740   1.012
 2085WAT      O 6465   2.595   3.598   0.912
 2085WAT     H1 6466   2.534   3.630   0.846
 2085WAT     H2 6467   2.680   3.632   0.885
 2086WAT      O 6468   2.501   3.190   1.066
 2086WAT     H1 6469   2.526   3.099   1.054
 2086WAT     H2 6470   2.569   3.227   1.122
 2087WAT      O 6471   1.733   2.269   1.298
 2087WAT     H1 6472   1.729   2.178   1.327
 2087WAT     H2 6473   1.669   2.314   1.352
 2088WAT      O 6474   2.622   2.485   1.069
 2088WAT     H1 6475   2.669   2.407   1.098
 2088WAT     H2 6476   2.640   2.490   0.975
 2089WAT      O 6477   2.041   2.322   0.624
 2089WAT     H1 6478   2.061   2.399   0.678
 2089WAT     H2 6479   1.949   2.334   0.599
 2090WAT      O 6480   3.014   2.231   0.766
 2090WAT     H1 6481   3.089   2.174   0.783
 2090WAT     H2 6482   3.015   2.295   0.838
 2091WAT      O 6483   1.798   2.501   1.154
 2091WAT     H1 6484   1.880   2.523   1.198
 2091WAT     H2 6485   1.769   2.421   1.197
 2092WAT      O 6486   2.228   2.627   1.066
 2092WAT     H1 6487   2.294   2.676   1.115
 2092WAT     H2 6488   2.268   2.542   1.051
 2093WAT      O 6489   3.420   2.430   1.432
 2093WAT     H1 6490   3.362   2.492   1.388
 2093WAT     H2 6491   3.467   2.483   1.496
 2094WAT      O 6492   2.051   2.067   1.488
 2094WAT     H1 6493   2.055   2.132   1.417
 2094WAT     H2 6494   1.967   2.024   1.477
 2095WAT      O 6495   2.690   3.093   0.628
 2095WAT     H1 6496   2.630   3.121   0.559
 2095WAT     H2 6497   2.707   3.173   0.679
 2096WAT      O 6498   2.188   3.049   1.310
 2096WAT     H1 6499   2.146   3.107   1.374
 2096WAT     H2 6500   2.205   3.105   1.234
 2097WAT      O 6501   3.044   2.403   1.047
 2097WAT     H1 6502   2.958   2.420   1.086
 2097WAT     H2 6503   3.077   2.490   1.024
 2098WAT      O 6504   2.013   2.251   1.290
 2098WAT     H1 6505   2.046   2.339   1.275
 2098WAT     H2 6506   1.918   2.260   1.290
 2099WAT      O 6507   2.102   3.252   1.476
 2099WAT     H1 6508   2.158   3.324   1.446
 2099WAT     H2 6509   2.013   3.285   1.463
 2100WAT      O 6510   1.619   3.143   0.387
 2100WAT     H1 6511   1.623   3.195   0.308
 2100WAT     H2 6512   1.635   3.205   0.458
 2101WAT      O 6513   3.321   2.360   1.099
 2101WAT     H1 6514   3.226   2.370   1.107
 2101WAT     H2 6515   3.357   2.435   1.146
 2102WAT      O 6516   2.377   1.999   0.913
 2102WAT     H1 6517   2.407   1.939   0.846
 2102WAT     H2 6518   2.284   2.013   0.893
 2103WAT      O 6519   2.936   3.564   1.147
 2103WAT     H1 6520   2.931   3.542   1.054
 2103WAT     H2 6521   2.880   3.641   1.157
 2104WAT      O 6522   3.074   3.237   0.655
 2104WAT     H1 6523   3.060   3.143   0.666
 2104WAT     H2 6524   3.045   3.276   0.737
 2105WAT      O 6525   2.893   3.071   1.273
 2105WAT     H1 6526   2.931   3.037   1.192
 2105WAT     H2 6527   2.968   3.087   1.330
 2106WAT      O 6528   2.628   2.814   0.620
 2106WAT     H1 6529   2.533   2.821   0.621
 2106WAT     H2 6530   2.658   2.902   0.599
 2107WAT      O 6531   2.626   2.408   0.297
 2107WAT     H1 6532   2.534   2.429   0.315
 2107WAT     H2 6533   2.663   2.490   0.264
 2108WAT      O 6534   3.256   2.893   1.293
 2108WAT     H1 6535   3.195   2.922   1.225
 2108WAT     H2 6536   3.336   2.942   1.275
 2109WAT      O 6537   3.023   2.965   0.657
 2109WAT     H1 6538   2.957   2.932   0.595
 2109WAT     H2 6539   3.018   2.906   0.731
 2110WAT      O 6540   2.950   2.595   1.388
 2110WAT     H1 6541   2.896   2.657   1.339
 2110WAT     H2 6542   2.900   2.513   1.385
 2111WAT      O 6543   2.181   2.843   0.861
 2111WAT     H1 6544   2.149   2.769   0.809
 2111WAT     H2 6545   2.194   2.806   0.949
 2112WAT      O 6546   2.228   3.207   1.089
 2112WAT     H1 6547   2.195   3.171   1.007
 2112WAT     H2 6548   2.323   3.211   1.077
 2113WAT      O 6549   2.053   2.529   1.257
 2113WAT     H1 6550   2.105   2.560   1.183
 2113WAT     H2 6551   2.087   2.577   1.332
 2114WAT      O 6552   2.142   3.207   1.740
 2114WAT     H1 6553   2.055   3.224   1.776
 2114WAT     H2 6554   2.131   3.216   1.645
 2115WAT      O 6555   2.846   2.889   0.359
 2115WAT     H1 6556   2.881   2.802   0.339
 2115WAT     H2 6557   2.921   2.947   0.350
 2116WAT      O 6558   2.023   2.894   1.603
 2116WAT     H1 6559   2.000   2.986   1.617
 2116WAT     H2 6560   1.940   2.850   1.584
 2117WAT      O 6561   2.646   3.363   0.741
 2117WAT     H1 6562   2.704   3.429   0.703
 2117WAT     H2 6563   2.626   3.397   0.829
 2118WAT      O 6564   2.217   3.478   1.828
 2118WAT     H1 6565   2.207   3.528   1.747
 2118WAT     H2 6566   2.188   3.390   1.806
 2119WAT      O 6567   3.200   2.011   0.180
 2119WAT     H1 6568   3.176   2.002   0.273
 2119WAT     H2 6569   3.280   2.065   0.181
 2120WAT      O 6570   1.852   2.738   0.631
 2120WAT     H1 6571   1.845   2.812   0.570
 2120WAT     H2 6572   1.834   2.661   0.577
 2121WAT      O 6573   1.605   3.052   1.213
 2121WAT     H1 6574   1.596   3.067   1.119
 2121WAT     H2 6575   1.679   2.991   1.220
 2122WAT      O 6576   1.730   3.230   0.835
 2122WAT     H1 6577   1.713   3.259   0.745
 2122WAT     H2 6578   1.821   3.199   0.833
 2123WAT      O 6579   2.722   3.642   1.544
 2123WAT     H1 6580   2.769   3.677   1.619
 2123WAT     H2 6581   2.633   3.676   1.554
 2124WAT      O 6582   2.913   3.678   0.479
 2124WAT     H1 6583   2.895   3.646   0.567
 2124WAT     H2 6584   2.914   3.599   0.425
 2125WAT      O 6585   2.158   3.639   0.641
 2125WAT     H1 6586   2.134   3.547   0.655
 2125WAT     H2 6587   2.081   3.688   0.671
 2126WAT      O 6588   2.887   3.446   0.318
 2126WAT     H1 6589   2.820   3.399   0.268
 2126WAT     H2 6590   2.959   3.383   0.325
 2127WAT      O 6591   2.851   3.581   0.745
 2127WAT     H1 6592   2.905   3.514   0.786
 2127WAT     H2 6593   2.873   3.662   0.790
 2128WAT      O 6594   3.318   2.482   1.768
 2128WAT     H1 6595   3.242   2.525   1.729
 2128WAT     H2 6596   3.291   2.391   1.779
 2129WAT      O 6597   1.622   3.182   1.463
 2129WAT     H1 6598   1.616   3.135   1.380
 2129WAT     H2 6599   1.682   3.130   1.516
 2130WAT      O 6600   2.102   2.090   0.966
 2130WAT     H1 6601   2.058   2.171   0.939
 2130WAT     H2 6602   2.148   2.114   1.046
 2131WAT      O 6603   2.518   2.366   1.515
 2131WAT     H1 6604   2.464   2.385   1.592
 2131WAT     H2 6605   2.482   2.284   1.480
 2132WAT      O 6606   3.054   2.484   1.624
 2132WAT     H1 6607   2.976   2.451   1.670
 2132WAT     H2 6608   3.019   2.522   1.543
 2133WAT      O 6609   2.416   2.041   0.476
 2133WAT     H1 6610   2.332   2.049   0.520
 2133WAT     H2 6611   2.410   1.959   0.427
 2134WAT      O 6612   2.313   2.135   1.148
 2134WAT     H1 6613   2.326   2.226   1.122
 2134WAT     H2 6614   2.354   2.084   1.078
 2135WAT      O 6615   2.075   2.594   0.747
 2135WAT     H1 6616   2.040   2.554   0.827
 2135WAT     H2 6617   2.000   2.640   0.709
 2136WAT      O 6618   2.792   2.590   0.589
 2136WAT     H1 6619   2.736   2.667   0.583
 2136WAT     H2 6620   2.837   2.587   0.505
 2137WAT      O 6621   2.313   2.683   1.783
 2137WAT     H1 6622   2.323   2.590   1.767
 2137WAT     H2 6623   2.402   2.719   1.781
 2138WAT      O 6624   2.690   2.463   0.808
 2138WAT     H1 6625   2.719   2.497   0.723
 2138WAT     H2 6626   2.689   2.368   0.798
 2139WAT      O 6627   1.845   2.329   1.619
 2139WAT     H1 6628   1.794   2.406   1.645
 2139WAT     H2 6629   1.781   2.257   1.620
 2140WAT      O 6630   2.489   2.318   1.929
 2140WAT     H1 6631   2.430   2.271   1.988
 2140WAT     H2 6632   2.552   2.361   1.988
 2141WAT      O 6633   1.567   2.111   1.016
 2141WAT     H1 6634   1.541   2.177   1.080
 2141WAT     H2 6635   1.630   2.056   1.062
 2142WAT      O 6636   2.725   2.692   1.234
 2142WAT     H1 6637   2.658   2.761   1.236
 2142WAT     H2 6638   2.688   2.624   1.179
 2143WAT      O 6639   2.364   2.386   1.041
 2143WAT     H1 6640   2.369   2.352   0.952
 2143WAT     H2 6641   2.452   2.420   1.058
 2144WAT      O 6642   1.937   2.372   0.932
 2144WAT     H1 6643   1.904   2.417   1.009
 2144WAT     H2 6644   1.860   2.334   0.890
 2145WAT      O 6645   2.371   2.485   0.368
 2145WAT     H1 6646   2.365   2.485   0.463
 2145WAT     H2 6647   2.336   2.571   0.342
 2146WAT      O 6648   2.761   2.266   1.155
 2146WAT     H1 6649   2.772   2.297   1.245
 2146WAT     H2 6650   2.724   2.178   1.164
 2147WAT      O 6651   2.268   2.721   0.259
 2147WAT     H1 6652   2.220   2.680   0.187
 2147WAT     H2 6653   2.343   2.762   0.217
 2148WAT      O 6654   3.102   2.003   1.732
 2148WAT     H1 6655   3.127   1.921   1.776
 2148WAT     H2 6656   3.122   1.988   1.640
 2149WAT      O 6657   1.790   3.092   1.670
 2149WAT     H1 6658   1.747   3.035   1.733
 2149WAT     H2 6659   1.820   3.168   1.721
 2150WAT      O 6660   2.403   2.790   1.218
 2150WAT     H1 6661   2.424   2.732   1.292
 2150WAT     H2 6662   2.356   2.863   1.257
 2151WAT      O 6663   1.694   2.259   0.826
 2151WAT     H1 6664   1.653   2.211   0.899
 2151WAT     H2 6665   1.700   2.195   0.755
 2152WAT      O 6666   2.169   2.686   1.459
 2152WAT     H1 6667   2.140   2.769   1.497
 2152WAT     H2 6668   2.265   2.689   1.467
 2153WAT      O 6669   2.037   3.122   0.524
 2153WAT     H1 6670   1.959   3.067   0.517
 2153WAT     H2 6671   2.107   3.067   0.489
 2154WAT      O 6672   3.108   2.996   1.084
 2154WAT     H1 6673   3.177   3.049   1.045
 2154WAT     H2 6674   3.077   2.940   1.012
 2155WAT      O 6675   2.654   2.164   0.502
 2155WAT     H1 6676   2.569   2.120   0.495
 2155WAT     H2 6677   2.644   2.244   0.450
 2156WAT      O 6678   2.923   2.584   0.344
 2156WAT     H1 6679   3.009   2.621   0.322
 2156WAT     H2 6680   2.927   2.494   0.313
 2157WAT      O 6681   2.034   3.091   0.901
 2157WAT     H1 6682   2.079   3.016   0.863
 2157WAT     H2 6683   1.993   3.058   0.981
 2158WAT      O 6684   2.527   3.210   0.416
 2158WAT     H1 6685   2.531   3.285   0.357
 2158WAT     H2 6686   2.442   3.218   0.459
 2159WAT      O 6687   1.769   2.789   1.568
 2159WAT     H1 6688   1.726   2.844   1.633
 2159WAT     H2 6689   1.755   2.699   1.598
 2160WAT      O 6690   2.091   2.826   1.862
 2160WAT     H1 6691   2.075   2.856   1.773
 2160WAT     H2 6692   2.173   2.776   1.855
 2161WAT      O 6693   2.635   3.291   1.659
 2161WAT     H1 6694   2.613   3.198   1.657
 2161WAT     H2 6695   2.581   3.327   1.730
 2162WAT      O 6696   3.151   2.729   0.282
 2162WAT     H1 6697   3.147   2.766   0.194
 2162WAT     H2 6698   3.210   2.787   0.330
 2163WAT      O 6699   3.272   3.406   0.548
 2163WAT     H1 6700   3.204   3.349   0.584
 2163WAT     H2 6701   3.232   3.444   0.469
 2164WAT      O 6702   2.824   3.134   0.938
 2164WAT     H1 6703   2.838   3.072   0.867
 2164WAT     H2 6704   2.734   3.118   0.966
 2165WAT      O 6705   2.401   3.207   0.688
 2165WAT     H1 6706   2.480   3.257   0.709
 2165WAT     H2 6707   2.330   3.271   0.693
 2166WAT      O 6708   1.626   2.759   0.248
 2166WAT     H1 6709   1.721   2.765   0.257
 2166WAT     H2 6710   1.596   2.850   0.248
 2167WAT      O 6711   2.366   2.926   0.658
 2167WAT     H1 6712   2.387   3.018   0.674
 2167WAT     H2 6713   2.310   2.901   0.732
 2168WAT      O 6714   2.560   3.469   1.363
 2168WAT     H1 6715   2.615   3.505   1.433
 2168WAT     H2 6716   2.608   3.392   1.333
 2169WAT      O 6717   1.949   1.939   0.695
 2169WAT     H1 6718   1.907   1.917   0.778
 2169WAT     H2 6719   1.877   1.968   0.639
 2170WAT      O 6720   2.711   3.272   1.231
 2170WAT     H1 6721   2.763   3.194   1.252
 2170WAT     H2 6722   2.776   3.338   1.209
 2171WAT      O 6723   1.683   3.703   0.320
 2171WAT     H1 6724   1.711   3.743   0.238
 2171WAT     H2 6725   1.678   3.776   0.382
 2172WAT      O 6726   1.648   2.126   1.639
 2172WAT     H1 6727   1.565   2.135   1.687
 2172WAT     H2 6728   1.696   2.060   1.688
 2173WAT      O 6729   3.051   3.078   0.378
 2173WAT     H1 6730   3.037   3.129   0.458
 2173WAT     H2 6731   3.138   3.039   0.391
 2174WAT      O 6732   1.662   3.523   1.714
 2174WAT     H1 6733   1.673   3.428   1.710
 2174WAT     H2 6734   1.578   3.539   1.672
 2175WAT      O 6735   2.463   3.349   1.875
 2175WAT     H1 6736   2.424   3.274   1.920
 2175WAT     H2 6737   2.389   3.406   1.856
 2176WAT      O 6738   2.279   3.435   0.365
 2176WAT     H1 6739   2.273   3.486   0.285
 2176WAT     H2 6740   2.190   3.403   0.381
 2177WAT      O 6741   1.822   2.964   0.450
 2177WAT     H1 6742   1.751   3.026   0.430
 2177WAT     H2 6743   1.858   2.941   0.364
 2178WAT      O 6744   2.784   2.372   1.409
 2178WAT     H1 6745   2.827   2.298   1.451
 2178WAT     H2 6746   2.698   2.376   1.450
 2179WAT      O 6747   3.128   2.267   0.499
 2179WAT     H1 6748   3.069   2.281   0.425
 2179WAT     H2 6749   3.071   2.264   0.575
 2180WAT      O 6750   2.320   2.493   0.632
 2180WAT     H1 6751   2.247   2.537   0.677
 2180WAT     H2 6752   2.351   2.428   0.695
 2181WAT      O 6753   2.465   2.641   1.440
 2181WAT     H1 6754   2.531   2.682   1.496
 2181WAT     H2 6755   2.481   2.547   1.448
 2182WAT      O 6756   2.734   2.179   0.770
 2182WAT     H1 6757   2.704   2.165   0.680
 2182WAT     H2 6758   2.829   2.190   0.763
 2183WAT      O 6759   2.425   3.691   0.707
 2183WAT     H1 6760   2.468   3.697   0.622
 2183WAT     H2 6761   2.333   3.673   0.687
 2184WAT      O 6762   2.130   2.332   0.362
 2184WAT     H1 6763   2.219   2.367   0.352
 2184WAT     H2 6764   2.114   2.337   0.456
 2185WAT      O 6765   3.208   2.264   1.516
 2185WAT     H1 6766   3.154   2.332   1.556
 2185WAT     H2 6767   3.286   2.311   1.486
 2186WAT      O 6768   3.028   2.808   0.878
 2186WAT     H1 6769   2.938   2.775   0.883
 2186WAT     H2 6770   3.082   2.735   0.909
 2187WAT      O 6771   1.901   2.719   0.292
 2187WAT     H1 6772   1.887   2.626   0.275
 2187WAT     H2 6773   1.995   2.725   0.312
 2188WAT      O 6774   3.232   3.503   1.011
 2188WAT     H1 6775   3.233   3.573   1.076
 2188WAT     H2 6776   3.324   3.489   0.990
 2189WAT      O 6777   1.986   3.725   1.004
 2189WAT     H1 6778   2.053   3.664   1.036
 2189WAT     H2 6779   2.033   3.805   0.985
 2190WAT      O 6780   1.659   3.328   0.585
 2190WAT     H1 6781   1.569   3.362   0.585
 2190WAT     H2 6782   1.713   3.403   0.560
 2191WAT      O 6783   1.887   3.620   1.928
 2191WAT     H1 6784   1.971   3.654   1.959
 2191WAT     H2 6785   1.836   3.605   2.008
 2192WAT      O 6786   3.187   3.549   0.328
 2192WAT     H1 6787   3.178   3.525   0.236
 2192WAT     H2 6788   3.181   3.645   0.329
 2193WAT      O 6789   1.660   2.895   1.813
 2193WAT     H1 6790   1.710   2.827   1.857
 2193WAT     H2 6791   1.583   2.908   1.867
 2194WAT      O 6792   2.358   3.028   1.759
 2194WAT     H1 6793   2.283   3.087   1.759
 2194WAT     H2 6794   2.370   3.003   1.668
 2195WAT      O 6795   2.672   3.065   0.229
 2195WAT     H1 6796   2.618   3.099   0.300
 2195WAT     H2 6797   2.727   2.999   0.271
 2196WAT      O 6798   1.842   2.698   1.895
 2196WAT     H1 6799   1.847   2.680   1.989
 2196WAT     H2 6800   1.930   2.728   1.871
 2197WAT      O 6801   2.217   2.944   0.426
 2197WAT     H1 6802   2.277   2.935   0.500
 2197WAT     H2 6803   2.235   2.867   0.371
 2198WAT      O 6804   2.052   2.541   1.698
 2198WAT     H1 6805   1.987   2.505   1.637
 2198WAT     H2 6806   2.110   2.593   1.642
 2199WAT      O 6807   2.102   2.234   1.707
 2199WAT     H1 6808   2.094   2.173   1.634
 2199WAT     H2 6809   2.032   2.298   1.693
 2200WAT      O 6810   2.381   2.123   1.410
 2200WAT     H1 6811   2.343   2.128   1.321
 2200WAT     H2 6812   2.313   2.079   1.462
 2201WAT      O 6813   2.400   2.998   1.479
 2201WAT     H1 6814   2.456   3.070   1.450
 2201WAT     H2 6815   2.319   3.010   1.429
 2202WAT      O 6816   2.210   3.634   1.590
 2202WAT     H1 6817   2.132   3.679   1.561
 2202WAT     H2 6818   2.232   3.574   1.519
 2203WAT      O 6819   2.342   2.414   1.725
 2203WAT     H1 6820   2.388   2.381   1.802
 2203WAT     H2 6821   2.259   2.367   1.725
 2204WAT      O 6822   2.834   2.380   1.754
 2204WAT     H1 6823   2.756   2.325   1.744
 2204WAT     H2 6824   2.889   2.332   1.816
 2205WAT      O 6825   2.870   2.053   0.374
 2205WAT     H1 6826   2.879   1.961   0.401
 2205WAT     H2 6827   2.792   2.084   0.421
 2206WAT      O 6828   2.476   3.742   1.595
 2206WAT     H1 6829   2.478   3.827   1.640
 2206WAT     H2 6830   2.386   3.711   1.606
 2207WAT      O 6831   2.532   3.672   0.378
 2207WAT     H1 6832   2.622   3.704   0.379
 2207WAT     H2 6833   2.535   3.595   0.322
 2208WAT      O 6834   1.897   3.175   0.205
 2208WAT     H1 6835   1.931   3.251   0.251
 2208WAT     H2 6836   1.975   3.132   0.168
 2209WAT      O 6837   1.626   3.477   0.945
 2209WAT     H1 6838   1.666   3.393   0.922
 2209WAT     H2 6839   1.659   3.497   1.032
 2210WAT      O 6840   2.103   3.314   0.712
 2210WAT     H1 6841   2.071   3.275   0.793
 2210WAT     H2 6842   2.084   3.249   0.644
 2211WAT      O 6843   1.671   3.569   1.202
 2211WAT     H1 6844   1.628   3.582   1.286
 2211WAT     H2 6845   1.711   3.654   1.182
 2212WAT      O 6846   3.300   2.950   0.416
 2212WAT     H1 6847   3.367   3.019   0.414
 2212WAT     H2 6848   3.314   2.906   0.500
 2213WAT      O 6849   1.649   2.810   0.832
 2213WAT     H1 6850   1.581   2.794   0.766
 2213WAT     H2 6851   1.731   2.795   0.787
 2214WAT      O 6852   3.419   3.052   0.935
 2214WAT     H1 6853   3.451   2.971   0.895
 2214WAT     H2 6854   3.473   3.121   0.896
 2215WAT      O 6855   2.968   2.293   0.277
 2215WAT     H1 6856   2.989   2.277   0.185
 2215WAT     H2 6857   2.920   2.214   0.304
 2216WAT      O 6858   3.302   2.791   0.648
 2216WAT     H1 6859   3.270   2.706   0.618
 2216WAT     H2 6860   3.227   2.832   0.689
 2217WAT      O 6861   1.772   2.848   1.296
 2217WAT     H1 6862   1.779   2.833   1.390
 2217WAT     H2 6863   1.709   2.783   1.266
 2218WAT      O 6864   1.709   2.552   1.697
 2218WAT     H1 6865   1.622   2.532   1.733
 2218WAT     H2 6866   1.758   2.588   1.771
 2219WAT      O 6867   3.081   2.230   1.885
 2219WAT     H1 6868   3.164   2.221   1.931
 2219WAT     H2 6869   3.082   2.158   1.821
 2220WAT      O 6870   1.573   2.534   0.407
 2220WAT     H1 6871   1.490   2.560   0.450
 2220WAT     H2 6872   1.592   2.607   0.347
 2221WAT      O 6873   3.216   2.622   0.973
 2221WAT     H1 6874   3.260   2.567   0.908
 2221WAT     H2 6875   3.286   2.657   1.027
 2222WAT      O 6876   3.245   2.610   1.322
 2222WAT     H1 6877   3.151   2.608   1.335
 2222WAT     H2 6878   3.264   2.703   1.305
 2223WAT      O 6879   1.852   2.454   0.235
 2223WAT     H1 6880   1.913   2.384   0.212
 2223WAT     H2 6881   1.775   2.438   0.180
 2224WAT      O 6882   3.220   2.536   0.579
 2224WAT     H1 6883   3.245   2.491   0.661
 2224WAT     H2 6884   3.167   2.472   0.532
 2225WAT      O 6885   1.767   1.956   1.129
 2225WAT     H1 6886   1.840   1.920   1.080
 2225WAT     H2 6887   1.805   1.985   1.212
 2226WAT      O 6888   3.325   2.412   0.818
 2226WAT     H1 6889   3.314   2.375   0.906
 2226WAT     H2 6890   3.409   2.376   0.788
 2227WAT      O 6891   3.174   1.994   1.464
 2227WAT     H1 6892   3.206   2.084   1.470
 2227WAT     H2 6893   3.168   1.977   1.370
 2228WAT      O 6894   3.420   2.255   0.425
 2228WAT     H1 6895   3.329   2.253   0.453
 2228WAT     H2 6896   3.439   2.348   0.410
 2229WAT      O 6897   3.130   3.670   0.817
 2229WAT     H1 6898   3.191   3.654   0.745
 2229WAT     H2 6899   3.153   3.603   0.882
 2230WAT      O 6900   1.744   2.004   1.414
 2230WAT     H1 6901   1.706   2.048   1.490
 2230WAT     H2 6902   1.707   1.916   1.416
 2231WAT      O 6903   1.892   3.311   1.816
 2231WAT     H1 6904   1.892   3.275   1.904
 2231WAT     H2 6905   1.897   3.405   1.828
 2232WAT      O 6906   2.274   3.460   1.383
 2232WAT     H1 6907   2.250   3.485   1.294
 2232WAT     H2 6908   2.370   3.461   1.383
 2233WAT      O 6909   2.498   2.093   1.766
 2233WAT     H1 6910   2.485   2.172   1.819
 2233WAT     H2 6911   2.590   2.096   1.740
 2234WAT      O 6912   2.763   2.092   1.721
 2234WAT     H1 6913   2.824   2.106   1.649
 2234WAT     H2 6914   2.812   2.041   1.785
 2235WAT      O 6915   1.818   1.935   1.738
 2235WAT     H1 6916   1.861   1.904   1.658
 2235WAT     H2 6917   1.824   1.861   1.798
 2236WAT      O 6918   1.881   3.605   1.547
 2236WAT     H1 6919   1.812   3.584   1.610
 2236WAT     H2 6920   1.885   3.528   1.490
 2237WAT      O 6921   2.835   1.929   1.363
 2237WAT     H1 6922   2.761   1.964   1.313
 2237WAT     H2 6923   2.796   1.865   1.422
 2238WAT      O 6924   2.919   2.151   1.496
 2238WAT     H1 6925   2.897   2.074   1.444
 2238WAT     H2 6926   3.014   2.151   1.500
 2239WAT      O 6927   3.164   3.724   1.180
 2239WAT     H1 6928   3.129   3.808   1.152
 2239WAT     H2 6929   3.088   3.668   1.191
 2240WAT      O 6930   1.852   3.355   1.419
 2240WAT     H1 6931   1.768   3.308   1.423
 2240WAT     H2 6932   1.871   3.362   1.325
 2241WAT      O 6933   2.217   3.557   1.113
 2241WAT     H1 6934   2.257   3.498   1.049
 2241WAT     H2 6935   2.287   3.619   1.135
 2242WAT      O 6936   2.482   3.651   1.168
 2242WAT     H1 6937   2.529   3.630   1.088
 2242WAT     H2 6938   2.518   3.592   1.234
 2243WAT      O 6939   2.603   2.023   1.247
 2243WAT     H1 6940   2.537   2.063   1.303
 2243WAT     H2 6941   2.560   1.946   1.210
 2244WAT      O 6942   3.047   2.082   1.052
 2244WAT     H1 6943   3.112   2.083   0.981
 2244WAT     H2 6944   3.029   2.175   1.068
 2245WAT      O 6945   3.227   2.067   0.850
 2245WAT     H1 6946   3.221   1.974   0.825
 2245WAT     H2 6947   3.310   2.074   0.896
 2246WAT      O 6948   1.688   3.663   0.737
 2246WAT     H1 6949   1.669   3.607   0.813
 2246WAT     H2 6950   1.602   3.686   0.703
 2247WAT      O 6951   1.740   2.056   0.491
 2247WAT     H1 6952   1.819   2.079   0.443
 2247WAT     H2 6953   1.678   2.127   0.471
 2248WAT      O 6954   2.379   2.266   0.793
 2248WAT     H1 6955   2.315   2.214   0.744
 2248WAT     H2 6956   2.448   2.203   0.816
 2249WAT      O 6957   2.836   1.931   0.925
 2249WAT     H1 6958   2.909   1.976   0.968
 2249WAT     H2 6959   2.778   2.001   0.896
 2250WAT      O 6960   3.161   1.978   0.456
 2250WAT     H1 6961   3.156   2.071   0.481
 2250WAT     H2 6962   3.073   1.944   0.475
 2251WAT      O 6963   1.820   3.535   0.496
 2251WAT     H1 6964   1.781   3.584   0.423
 2251WAT     H2 6965   1.814   3.595   0.571
 2252WAT      O 6966   1.967   2.108   0.353
 2252WAT     H1 6967   2.021   2.029   0.358
 2252WAT     H2 6968   2.031   2.179   0.348
 2253WAT      O 6969   2.193   2.095   0.651
 2253WAT     H1 6970   2.128   2.027   0.669
 2253WAT     H2 6971   2.142   2.174   0.635
 2254WAT      O 6972   2.488   3.750   1.928
 2254WAT     H1 6973   2.576   3.714   1.915
 2254WAT     H2 6974   2.487   3.831   1.876
 2255WAT      O 6975   3.318   3.688   0.615
 2255WAT     H1 6976   3.318   3.606   0.566
 2255WAT     H2 6977   3.275   3.751   0.558
 2256WAT      O 6978   2.193   2.010   1.892
 2256WAT     H1 6979   2.181   2.068   1.817
 2256WAT     H2 6980   2.248   1.939   1.860
 2257WAT      O 6981   2.118   3.756   0.385
 2257WAT     H1 6982   2.170   3.704   0.324
 2257WAT     H2 6983   2.130   3.713   0.470
 2258WAT      O 6984   2.013   3.357   0.385
 2258WAT     H1 6985   1.951   3.414   0.429
 2258WAT     H2 6986   2.018   3.279   0.441
 2259WAT      O 6987   2.876   1.959   1.948
 2259WAT     H1 6988   2.856   1.981   2.039
 2259WAT     H2 6989   2.969   1.981   1.939
 2260WAT      O 6990   2.761   0.872   4.610
 2260WAT     H1 6991   2.742   0.778   4.608
 2260WAT     H2 6992   2.711   0.908   4.537
 2261WAT      O 6993   2.576   1.052   4.799
 2261WAT     H1 6994   2.511   1.001   4.847
 2261WAT     H2 6995   2.647   0.990   4.783
 2262WAT      O 6996   1.966   1.098   4.898
 2262WAT     H1 6997   1.899   1.049   4.945
 2262WAT     H2 6998   2.041   1.100   4.957
 2263WAT      O 6999   2.975   1.500   4.683
 2263WAT     H1 7000   2.927   1.418   4.700
 2263WAT     H2 7001   3.055   1.491   4.734
 2264WAT      O 7002   1.983   1.484   4.928
 2264WAT     H1 7003   2.028   1.406   4.895
 2264WAT     H2 7004   2.042   1.556   4.906
 2265WAT      O 7005   1.820   0.589   4.273
 2265WAT     H1 7006   1.726   0.605   4.266
 2265WAT     H2 7007   1.848   0.566   4.184
 2266WAT      O 7008   1.600   0.814   4.845
 2266WAT     H1 7009   1.671   0.751   4.860
 2266WAT     H2 7010   1.628   0.863   4.767
 2267WAT      O 7011   2.596   1.721   4.670
 2267WAT     H1 7012   2.535   1.755   4.604
 2267WAT     H2 7013   2.682   1.749   4.640
 2268WAT      O 7014   2.501   1.313   4.820
 2268WAT     H1 7015   2.524   1.221   4.807
 2268WAT     H2 7016   2.570   1.347   4.877
 2269WAT      O 7017   1.730   0.393   5.054
 2269WAT     H1 7018   1.730   0.305   5.092
 2269WAT     H2 7019   1.667   0.441   5.108
 2270WAT      O 7020   2.616   0.608   4.822
 2270WAT     H1 7021   2.667   0.533   4.852
 2270WAT     H2 7022   2.636   0.614   4.728
 2271WAT      O 7023   2.042   0.448   4.371
 2271WAT     H1 7024   2.068   0.519   4.429
 2271WAT     H2 7025   1.949   0.463   4.354
 2272WAT      O 7026   3.005   0.356   4.530
 2272WAT     H1 7027   3.096   0.325   4.527
 2272WAT     H2 7028   3.005   0.424   4.598
 2273WAT      O 7029   1.797   0.625   4.911
 2273WAT     H1 7030   1.880   0.646   4.952
 2273WAT     H2 7031   1.770   0.543   4.953
 2274WAT      O 7032   2.228   0.752   4.821
 2274WAT     H1 7033   2.293   0.800   4.872
 2274WAT     H2 7034   2.268   0.666   4.807
 2275WAT      O 7035   3.418   0.553   5.187
 2275WAT     H1 7036   3.360   0.616   5.145
 2275WAT     H2 7037   3.462   0.604   5.256
 2276WAT      O 7038   2.691   1.211   4.382
 2276WAT     H1 7039   2.631   1.244   4.315
 2276WAT     H2 7040   2.712   1.289   4.434
 2277WAT      O 7041   2.186   1.175   5.063
 2277WAT     H1 7042   2.144   1.231   5.128
 2277WAT     H2 7043   2.202   1.233   4.989
 2278WAT      O 7044   3.040   0.527   4.795
 2278WAT     H1 7045   2.959   0.545   4.843
 2278WAT     H2 7046   3.077   0.613   4.777
 2279WAT      O 7047   2.015   0.374   5.036
 2279WAT     H1 7048   2.047   0.464   5.031
 2279WAT     H2 7049   1.921   0.382   5.050
 2280WAT      O 7050   2.101   1.375   5.234
 2280WAT     H1 7051   2.158   1.445   5.204
 2280WAT     H2 7052   2.012   1.408   5.217
 2281WAT      O 7053   3.171   1.499   5.031
 2281WAT     H1 7054   3.124   1.579   5.055
 2281WAT     H2 7055   3.222   1.524   4.953
 2282WAT      O 7056   3.321   0.482   4.851
 2282WAT     H1 7057   3.227   0.490   4.867
 2282WAT     H2 7058   3.360   0.554   4.901
 2283WAT      O 7059   2.940   1.697   4.899
 2283WAT     H1 7060   2.941   1.650   4.816
 2283WAT     H2 7061   2.877   1.768   4.885
 2284WAT      O 7062   3.075   1.357   4.410
 2284WAT     H1 7063   3.061   1.263   4.421
 2284WAT     H2 7064   3.045   1.395   4.493
 2285WAT      O 7065   2.896   1.183   5.038
 2285WAT     H1 7066   2.944   1.156   4.959
 2285WAT     H2 7067   2.963   1.215   5.097
 2286WAT      O 7068   2.629   0.936   4.371
 2286WAT     H1 7069   2.533   0.939   4.371
 2286WAT     H2 7070   2.656   1.026   4.356
 2287WAT      O 7071   2.622   0.545   4.027
 2287WAT     H1 7072   2.537   0.567   4.064
 2287WAT     H2 7073   2.672   0.627   4.031
 2288WAT      O 7074   3.268   1.019   5.047
 2288WAT     H1 7075   3.196   1.049   4.992
 2288WAT     H2 7076   3.344   1.069   5.018
 2289WAT      O 7077   3.020   1.086   4.410
 2289WAT     H1 7078   2.951   1.051   4.353
 2289WAT     H2 7079   3.020   1.028   4.486
 2290WAT      O 7080   2.973   0.704   5.138
 2290WAT     H1 7081   2.931   0.789   5.152
 2290WAT     H2 7082   2.900   0.643   5.127
 2291WAT      O 7083   2.180   0.966   4.617
 2291WAT     H1 7084   2.149   0.892   4.565
 2291WAT     H2 7085   2.197   0.929   4.703
 2292WAT      O 7086   2.228   1.333   4.843
 2292WAT     H1 7087   2.196   1.292   4.763
 2292WAT     H2 7088   2.324   1.334   4.833
 2293WAT      O 7089   2.051   0.654   5.012
 2293WAT     H1 7090   2.104   0.683   4.937
 2293WAT     H2 7091   2.087   0.702   5.086
 2294WAT      O 7092   3.038   1.696   5.212
 2294WAT     H1 7093   3.005   1.780   5.181
 2294WAT     H2 7094   2.961   1.639   5.215
 2295WAT      O 7095   2.151   1.329   5.499
 2295WAT     H1 7096   2.065   1.334   5.540
 2295WAT     H2 7097   2.133   1.337   5.405
 2296WAT      O 7098   2.848   1.014   4.102
 2296WAT     H1 7099   2.879   0.924   4.089
 2296WAT     H2 7100   2.928   1.067   4.101
 2297WAT      O 7101   2.027   1.012   5.353
 2297WAT     H1 7102   2.002   1.102   5.374
 2297WAT     H2 7103   1.944   0.967   5.336
 2298WAT      O 7104   2.641   1.489   4.493
 2298WAT     H1 7105   2.704   1.552   4.458
 2298WAT     H2 7106   2.628   1.517   4.584
 2299WAT      O 7107   2.192   1.603   5.582
 2299WAT     H1 7108   2.204   1.651   5.500
 2299WAT     H2 7109   2.202   1.511   5.557
 2300WAT      O 7110   1.847   0.860   4.384
 2300WAT     H1 7111   1.845   0.930   4.318
 2300WAT     H2 7112   1.835   0.780   4.333
 2301WAT      O 7113   1.605   1.175   4.968
 2301WAT     H1 7114   1.597   1.189   4.873
 2301WAT     H2 7115   1.678   1.114   4.977
 2302WAT      O 7116   1.733   1.350   4.590
 2302WAT     H1 7117   1.729   1.384   4.501
 2302WAT     H2 7118   1.823   1.319   4.600
 2303WAT      O 7119   3.327   1.385   5.423
 2303WAT     H1 7120   3.369   1.373   5.338
 2303WAT     H2 7121   3.335   1.299   5.465
 2304WAT      O 7122   2.724   1.756   5.297
 2304WAT     H1 7123   2.772   1.747   5.379
 2304WAT     H2 7124   2.640   1.794   5.322
 2305WAT      O 7125   2.930   1.788   4.238
 2305WAT     H1 7126   2.897   1.763   4.324
 2305WAT     H2 7127   2.911   1.712   4.183
 2306WAT      O 7128   2.163   1.761   4.414
 2306WAT     H1 7129   2.134   1.670   4.416
 2306WAT     H2 7130   2.083   1.813   4.425
 2307WAT      O 7131   2.881   1.564   4.081
 2307WAT     H1 7132   2.818   1.543   4.012
 2307WAT     H2 7133   2.962   1.518   4.054
 2308WAT      O 7134   2.846   1.702   4.507
 2308WAT     H1 7135   2.905   1.637   4.545
 2308WAT     H2 7136   2.874   1.785   4.546
 2309WAT      O 7137   3.329   0.607   5.520
 2309WAT     H1 7138   3.288   0.678   5.471
 2309WAT     H2 7139   3.269   0.534   5.512
 2310WAT      O 7140   1.623   1.303   5.217
 2310WAT     H1 7141   1.615   1.258   5.133
 2310WAT     H2 7142   1.683   1.249   5.267
 2311WAT      O 7143   2.118   0.229   4.703
 2311WAT     H1 7144   2.057   0.301   4.691
 2311WAT     H2 7145   2.139   0.230   4.797
 2312WAT      O 7146   2.520   0.486   5.272
 2312WAT     H1 7147   2.468   0.504   5.350
 2312WAT     H2 7148   2.482   0.405   5.237
 2313WAT      O 7149   3.041   0.585   5.380
 2313WAT     H1 7150   2.955   0.577   5.422
 2313WAT     H2 7151   3.024   0.638   5.302
 2314WAT      O 7152   2.734   0.761   5.584
 2314WAT     H1 7153   2.757   0.668   5.572
 2314WAT     H2 7154   2.815   0.801   5.616
 2315WAT      O 7155   2.321   0.256   4.909
 2315WAT     H1 7156   2.318   0.349   4.888
 2315WAT     H2 7157   2.357   0.215   4.830
 2316WAT      O 7158   2.077   0.719   4.504
 2316WAT     H1 7159   2.041   0.673   4.580
 2316WAT     H2 7160   2.000   0.761   4.464
 2317WAT      O 7161   2.789   0.709   4.340
 2317WAT     H1 7162   2.736   0.788   4.337
 2317WAT     H2 7163   2.838   0.710   4.258
 2318WAT      O 7164   2.320   0.805   5.547
 2318WAT     H1 7165   2.324   0.711   5.527
 2318WAT     H2 7166   2.409   0.837   5.529
 2319WAT      O 7167   2.689   0.590   4.563
 2319WAT     H1 7168   2.719   0.622   4.478
 2319WAT     H2 7169   2.690   0.495   4.554
 2320WAT      O 7170   1.846   0.448   5.373
 2320WAT     H1 7171   1.796   0.529   5.387
 2320WAT     H2 7172   1.781   0.378   5.380
 2321WAT      O 7173   1.575   0.241   4.777
 2321WAT     H1 7174   1.532   0.308   4.829
 2321WAT     H2 7175   1.628   0.192   4.840
 2322WAT      O 7176   1.601   0.634   3.880
 2322WAT     H1 7177   1.593   0.727   3.901
 2322WAT     H2 7178   1.537   0.620   3.810
 2323WAT      O 7179   2.715   0.831   4.958
 2323WAT     H1 7180   2.642   0.867   5.007
 2323WAT     H2 7181   2.680   0.753   4.916
 2324WAT      O 7182   2.362   0.511   4.800
 2324WAT     H1 7183   2.368   0.476   4.711
 2324WAT     H2 7184   2.449   0.545   4.818
 2325WAT      O 7185   1.937   0.502   4.682
 2325WAT     H1 7186   1.905   0.542   4.764
 2325WAT     H2 7187   1.859   0.462   4.643
 2326WAT      O 7188   2.374   0.608   4.125
 2326WAT     H1 7189   2.365   0.614   4.220
 2326WAT     H2 7190   2.340   0.691   4.092
 2327WAT      O 7191   2.764   0.400   4.907
 2327WAT     H1 7192   2.771   0.429   4.998
 2327WAT     H2 7193   2.761   0.305   4.912
 2328WAT      O 7194   2.270   0.844   4.020
 2328WAT     H1 7195   2.222   0.793   3.955
 2328WAT     H2 7196   2.344   0.881   3.972
 2329WAT      O 7197   1.790   1.214   5.430
 2329WAT     H1 7198   1.748   1.148   5.485
 2329WAT     H2 7199   1.801   1.290   5.489
 2330WAT      O 7200   2.401   0.915   4.975
 2330WAT     H1 7201   2.423   0.854   5.046
 2330WAT     H2 7202   2.357   0.987   5.018
 2331WAT      O 7203   1.690   0.383   4.578
 2331WAT     H1 7204   1.651   0.332   4.650
 2331WAT     H2 7205   1.708   0.317   4.510
 2332WAT      O 7206   2.174   0.810   5.207
 2332WAT     H1 7207   2.143   0.890   5.250
 2332WAT     H2 7208   2.269   0.812   5.218
 2333WAT      O 7209   2.040   1.239   4.286
 2333WAT     H1 7210   1.965   1.180   4.273
 2333WAT     H2 7211   2.113   1.194   4.243
 2334WAT      O 7212   3.105   1.120   4.840
 2334WAT     H1 7213   3.178   1.170   4.803
 2334WAT     H2 7214   3.078   1.061   4.770
 2335WAT      O 7215   2.644   0.292   4.265
 2335WAT     H1 7216   2.579   0.229   4.233
 2335WAT     H2 7217   2.637   0.367   4.206
 2336WAT      O 7218   2.647   1.142   5.449
 2336WAT     H1 7219   2.641   1.056   5.408
 2336WAT     H2 7220   2.564   1.151   5.497
 2337WAT      O 7221   2.921   0.706   4.095
 2337WAT     H1 7222   3.005   0.747   4.075
 2337WAT     H2 7223   2.931   0.615   4.065
 2338WAT      O 7224   2.031   1.214   4.655
 2338WAT     H1 7225   2.076   1.139   4.616
 2338WAT     H2 7226   1.993   1.180   4.736
 2339WAT      O 7227   2.534   1.328   4.162
 2339WAT     H1 7228   2.540   1.417   4.127
 2339WAT     H2 7229   2.456   1.330   4.219
 2340WAT      O 7230   1.769   0.912   5.320
 2340WAT     H1 7231   1.725   0.963   5.388
 2340WAT     H2 7232   1.760   0.821   5.349
 2341WAT      O 7233   2.093   0.946   5.619
 2341WAT     H1 7234   2.070   0.960   5.527
 2341WAT     H2 7235   2.175   0.897   5.615
 2342WAT      O 7236   2.638   1.411   5.396
 2342WAT     H1 7237   2.642   1.316   5.410
 2342WAT     H2 7238   2.570   1.441   5.456
 2343WAT      O 7239   3.146   0.851   4.034
 2343WAT     H1 7240   3.138   0.887   3.946
 2343WAT     H2 7241   3.215   0.903   4.075
 2344WAT      O 7242   3.256   1.098   5.331
 2344WAT     H1 7243   3.181   1.156   5.320
 2344WAT     H2 7244   3.290   1.086   5.242
 2345WAT      O 7245   3.269   1.531   4.305
 2345WAT     H1 7246   3.201   1.471   4.337
 2345WAT     H2 7247   3.232   1.569   4.226
 2346WAT      O 7248   2.820   1.262   4.687
 2346WAT     H1 7249   2.842   1.189   4.629
 2346WAT     H2 7250   2.734   1.239   4.722
 2347WAT      O 7251   2.405   1.337   4.426
 2347WAT     H1 7252   2.481   1.385   4.459
 2347WAT     H2 7253   2.330   1.390   4.452
 2348WAT      O 7254   1.615   0.887   3.989
 2348WAT     H1 7255   1.706   0.895   4.018
 2348WAT     H2 7256   1.588   0.977   3.968
 2349WAT      O 7257   2.363   1.050   4.411
 2349WAT     H1 7258   2.387   1.141   4.429
 2349WAT     H2 7259   2.311   1.023   4.486
 2350WAT      O 7260   2.561   1.591   5.114
 2350WAT     H1 7261   2.614   1.626   5.185
 2350WAT     H2 7262   2.607   1.512   5.086
 2351WAT      O 7263   2.714   1.391   4.989
 2351WAT     H1 7264   2.763   1.311   5.012
 2351WAT     H2 7265   2.782   1.453   4.962
 2352WAT      O 7266   3.085   1.414   3.961
 2352WAT     H1 7267   3.068   1.336   4.014
 2352WAT     H2 7268   3.071   1.385   3.871
 2353WAT      O 7269   2.897   1.474   5.340
 2353WAT     H1 7270   2.899   1.551   5.396
 2353WAT     H2 7271   2.805   1.446   5.341
 2354WAT      O 7272   1.652   0.257   5.404
 2354WAT     H1 7273   1.560   0.258   5.428
 2354WAT     H2 7274   1.680   0.166   5.417
 2355WAT      O 7275   3.054   1.205   4.135
 2355WAT     H1 7276   3.029   1.251   4.215
 2355WAT     H2 7277   3.136   1.162   4.158
 2356WAT      O 7278   1.675   1.647   5.461
 2356WAT     H1 7279   1.658   1.554   5.477
 2356WAT     H2 7280   1.589   1.683   5.436
 2357WAT      O 7281   1.827   1.085   4.190
 2357WAT     H1 7282   1.782   1.165   4.161
 2357WAT     H2 7283   1.883   1.061   4.116
 2358WAT      O 7284   2.779   0.496   5.162
 2358WAT     H1 7285   2.825   0.424   5.204
 2358WAT     H2 7286   2.693   0.498   5.204
 2359WAT      O 7287   3.124   0.415   4.253
 2359WAT     H1 7288   3.073   0.413   4.172
 2359WAT     H2 7289   3.061   0.392   4.322
 2360WAT      O 7290   2.321   0.618   4.388
 2360WAT     H1 7291   2.247   0.662   4.430
 2360WAT     H2 7292   2.351   0.555   4.454
 2361WAT      O 7293   2.467   0.763   5.189
 2361WAT     H1 7294   2.524   0.809   5.251
 2361WAT     H2 7295   2.486   0.670   5.204
 2362WAT      O 7296   2.719   0.317   4.527
 2362WAT     H1 7297   2.700   0.298   4.435
 2362WAT     H2 7298   2.814   0.309   4.534
 2363WAT      O 7299   2.425   1.818   4.467
 2363WAT     H1 7300   2.466   1.814   4.381
 2363WAT     H2 7301   2.333   1.798   4.450
 2364WAT      O 7302   2.142   0.445   4.111
 2364WAT     H1 7303   2.221   0.499   4.112
 2364WAT     H2 7304   2.111   0.447   4.202
 2365WAT      O 7305   3.197   0.384   5.279
 2365WAT     H1 7306   3.145   0.458   5.312
 2365WAT     H2 7307   3.276   0.425   5.242
 2366WAT      O 7308   3.031   0.931   4.632
 2366WAT     H1 7309   2.941   0.900   4.637
 2366WAT     H2 7310   3.083   0.858   4.664
 2367WAT      O 7311   2.016   1.072   3.982
 2367WAT     H1 7312   2.098   1.084   4.030
 2367WAT     H2 7313   2.043   1.036   3.897
 2368WAT      O 7314   1.888   0.819   4.052
 2368WAT     H1 7315   1.894   0.723   4.049
 2368WAT     H2 7316   1.979   0.848   4.051
 2369WAT      O 7317   3.242   1.630   4.781
 2369WAT     H1 7318   3.250   1.711   4.831
 2369WAT     H2 7319   3.330   1.614   4.747
 2370WAT      O 7320   1.988   1.851   4.750
 2370WAT     H1 7321   2.052   1.790   4.787
 2370WAT     H2 7322   2.036   1.933   4.741
 2371WAT      O 7323   2.907   1.721   5.512
 2371WAT     H1 7324   2.997   1.746   5.490
 2371WAT     H2 7325   2.885   1.775   5.588
 2372WAT      O 7326   3.195   1.680   4.088
 2372WAT     H1 7327   3.179   1.631   4.008
 2372WAT     H2 7328   3.150   1.763   4.074
 2373WAT      O 7329   1.665   1.016   5.569
 2373WAT     H1 7330   1.710   0.958   5.631
 2373WAT     H2 7331   1.573   1.013   5.595
 2374WAT      O 7332   2.381   1.159   5.507
 2374WAT     H1 7333   2.298   1.204   5.526
 2374WAT     H2 7334   2.368   1.122   5.419
 2375WAT      O 7335   2.667   1.176   3.975
 2375WAT     H1 7336   2.618   1.221   4.044
 2375WAT     H2 7337   2.727   1.118   4.023
 2376WAT      O 7338   3.068   1.312   5.546
 2376WAT     H1 7339   3.150   1.353   5.517
 2376WAT     H2 7340   2.999   1.363   5.504
 2377WAT      O 7341   2.226   1.067   4.173
 2377WAT     H1 7342   2.279   1.061   4.252
 2377WAT     H2 7343   2.247   0.987   4.124
 2378WAT      O 7344   2.016   0.683   5.432
 2378WAT     H1 7345   1.998   0.615   5.368
 2378WAT     H2 7346   2.099   0.722   5.404
 2379WAT      O 7347   2.495   0.956   3.909
 2379WAT     H1 7348   2.553   0.909   3.849
 2379WAT     H2 7349   2.539   1.039   3.926
 2380WAT      O 7350   2.929   1.093   5.446
 2380WAT     H1 7351   2.982   1.156   5.496
 2380WAT     H2 7352   2.839   1.123   5.458
 2381WAT      O 7353   2.993   0.846   5.613
 2381WAT     H1 7354   3.069   0.791   5.592
 2381WAT     H2 7355   2.999   0.919   5.552
 2382WAT      O 7356   2.110   0.384   5.447
 2382WAT     H1 7357   2.102   0.308   5.388
 2382WAT     H2 7358   2.024   0.424   5.446
 2383WAT      O 7359   2.384   0.252   5.176
 2383WAT     H1 7360   2.357   0.252   5.084
 2383WAT     H2 7361   2.320   0.196   5.220
 2384WAT      O 7362   2.393   1.114   5.229
 2384WAT     H1 7363   2.455   1.184   5.210
 2384WAT     H2 7364   2.316   1.135   5.176
 2385WAT      O 7365   2.646   0.879   5.359
 2385WAT     H1 7366   2.672   0.838   5.442
 2385WAT     H2 7367   2.728   0.889   5.311
 2386WAT      O 7368   2.873   0.948   5.219
 2386WAT     H1 7369   2.859   1.010   5.147
 2386WAT     H2 7370   2.908   1.002   5.289
 2387WAT      O 7371   2.116   0.675   3.866
 2387WAT     H1 7372   2.090   0.587   3.891
 2387WAT     H2 7373   2.101   0.678   3.771
 2388WAT      O 7374   2.217   1.759   5.340
 2388WAT     H1 7375   2.137   1.806   5.315
 2388WAT     H2 7376   2.232   1.697   5.269
 2389WAT      O 7377   2.337   0.536   5.488
 2389WAT     H1 7378   2.378   0.486   5.559
 2389WAT     H2 7379   2.254   0.491   5.471
 2390WAT      O 7380   2.811   0.502   5.520
 2390WAT     H1 7381   2.735   0.454   5.489
 2390WAT     H2 7382   2.870   0.434   5.554
 2391WAT      O 7383   2.009   0.405   3.856
 2391WAT     H1 7384   2.049   0.382   3.772
 2391WAT     H2 7385   2.076   0.381   3.921
 2392WAT      O 7386   2.484   1.861   5.365
 2392WAT     H1 7387   2.479   1.950   5.400
 2392WAT     H2 7388   2.394   1.831   5.361
 2393WAT      O 7389   2.338   0.278   3.946
 2393WAT     H1 7390   2.302   0.203   3.897
 2393WAT     H2 7391   2.306   0.264   4.036
 2394WAT      O 7392   1.629   1.601   4.700
 2394WAT     H1 7393   1.668   1.516   4.682
 2394WAT     H2 7394   1.658   1.624   4.788
 2395WAT      O 7395   2.105   1.437   4.464
 2395WAT     H1 7396   2.074   1.392   4.543
 2395WAT     H2 7397   2.083   1.376   4.393
 2396WAT      O 7398   1.671   1.693   4.957
 2396WAT     H1 7399   1.628   1.705   5.041
 2396WAT     H2 7400   1.709   1.778   4.936
 2397WAT      O 7401   3.255   1.653   5.381
 2397WAT     H1 7402   3.178   1.660   5.324
 2397WAT     H2 7403   3.264   1.559   5.397
 2398WAT      O 7404   3.360   1.403   3.935
 2398WAT     H1 7405   3.267   1.415   3.954
 2398WAT     H2 7406   3.389   1.489   3.903
 2399WAT      O 7407   3.300   1.082   4.174
 2399WAT     H1 7408   3.373   1.144   4.177
 2399WAT     H2 7409   3.310   1.030   4.254
 2400WAT      O 7410   1.650   0.935   4.586
 2400WAT     H1 7411   1.583   0.914   4.520
 2400WAT     H2 7412   1.733   0.917   4.542
 2401WAT      O 7413   3.419   1.175   4.690
 2401WAT     H1 7414   3.451   1.094   4.650
 2401WAT     H2 7415   3.473   1.244   4.651
 2402WAT      O 7416   3.083   1.305   5.203
 2402WAT     H1 7417   3.021   1.362   5.249
 2402WAT     H2 7418   3.130   1.363   5.144
 2403WAT      O 7419   3.344   1.118   3.900
 2403WAT     H1 7420   3.351   1.212   3.886
 2403WAT     H2 7421   3.307   1.110   3.987
 2404WAT      O 7422   2.969   0.418   4.025
 2404WAT     H1 7423   3.005   0.400   3.938
 2404WAT     H2 7424   2.899   0.353   4.035
 2405WAT      O 7425   3.300   0.916   4.397
 2405WAT     H1 7426   3.268   0.830   4.370
 2405WAT     H2 7427   3.227   0.954   4.446
 2406WAT      O 7428   1.770   0.972   5.050
 2406WAT     H1 7429   1.781   0.955   5.144
 2406WAT     H2 7430   1.711   0.903   5.020
 2407WAT      O 7431   3.248   0.822   5.367
 2407WAT     H1 7432   3.237   0.797   5.275
 2407WAT     H2 7433   3.250   0.918   5.366
 2408WAT      O 7434   1.705   0.673   5.445
 2408WAT     H1 7435   1.621   0.653   5.487
 2408WAT     H2 7436   1.767   0.678   5.517
 2409WAT      O 7437   1.574   0.652   4.182
 2409WAT     H1 7438   1.488   0.685   4.208
 2409WAT     H2 7439   1.596   0.703   4.104
 2410WAT      O 7440   3.217   0.745   4.727
 2410WAT     H1 7441   3.260   0.689   4.663
 2410WAT     H2 7442   3.288   0.779   4.781
 2411WAT      O 7443   3.244   0.740   5.087
 2411WAT     H1 7444   3.149   0.730   5.086
 2411WAT     H2 7445   3.259   0.829   5.057
 2412WAT      O 7446   1.837   0.556   4.000
 2412WAT     H1 7447   1.891   0.499   3.945
 2412WAT     H2 7448   1.757   0.570   3.949
 2413WAT      O 7449   3.215   0.663   4.339
 2413WAT     H1 7450   3.244   0.619   4.418
 2413WAT     H2 7451   3.168   0.595   4.290
 2414WAT      O 7452   3.322   0.529   4.574
 2414WAT     H1 7453   3.316   0.500   4.665
 2414WAT     H2 7454   3.407   0.496   4.544
 2415WAT      O 7455   3.397   0.301   3.890
 2415WAT     H1 7456   3.489   0.308   3.865
 2415WAT     H2 7457   3.397   0.324   3.984
 2416WAT      O 7458   3.414   0.378   4.163
 2416WAT     H1 7459   3.327   0.375   4.202
 2416WAT     H2 7460   3.438   0.471   4.164
 2417WAT      O 7461   3.131   1.788   4.579
 2417WAT     H1 7462   3.185   1.770   4.503
 2417WAT     H2 7463   3.154   1.719   4.642
 2418WAT      O 7464   2.273   1.580   5.136
 2418WAT     H1 7465   2.248   1.607   5.047
 2418WAT     H2 7466   2.369   1.581   5.135
 2419WAT      O 7467   2.533   0.283   5.527
 2419WAT     H1 7468   2.480   0.252   5.600
 2419WAT     H2 7469   2.564   0.202   5.485
 2420WAT      O 7470   3.405   1.783   5.184
 2420WAT     H1 7471   3.337   1.834   5.140
 2420WAT     H2 7472   3.360   1.737   5.254
 2421WAT      O 7473   1.884   1.726   5.297
 2421WAT     H1 7474   1.814   1.705   5.358
 2421WAT     H2 7475   1.889   1.649   5.240
 2422WAT      O 7476   2.924   0.278   5.244
 2422WAT     H1 7477   2.919   0.191   5.204
 2422WAT     H2 7478   3.018   0.297   5.249
 2423WAT      O 7479   3.159   1.863   4.948
 2423WAT     H1 7480   3.128   1.939   4.898
 2423WAT     H2 7481   3.087   1.800   4.942
 2424WAT      O 7482   1.852   1.474   5.172
 2424WAT     H1 7483   1.767   1.431   5.176
 2424WAT     H2 7484   1.871   1.483   5.079
 2425WAT      O 7485   2.216   1.680   4.869
 2425WAT     H1 7486   2.256   1.621   4.805
 2425WAT     H2 7487   2.286   1.742   4.890
 2426WAT      O 7488   2.482   1.774   4.922
 2426WAT     H1 7489   2.529   1.752   4.841
 2426WAT     H2 7490   2.517   1.713   4.987
 2427WAT      O 7491   3.054   0.226   4.825
 2427WAT     H1 7492   3.104   0.207   4.745
 2427WAT     H2 7493   3.033   0.319   4.818
 2428WAT      O 7494   1.676   1.802   4.496
 2428WAT     H1 7495   1.675   1.739   4.568
 2428WAT     H2 7496   1.584   1.808   4.468
 2429WAT      O 7497   1.737   0.192   4.256
 2429WAT     H1 7498   1.814   0.211   4.203
 2429WAT     H2 7499   1.671   0.253   4.224
 2430WAT      O 7500   2.380   0.390   4.556
 2430WAT     H1 7501   2.307   0.336   4.530
 2430WAT     H2 7502   2.457   0.334   4.545
 2431WAT      O 7503   3.311   1.813   4.367
 2431WAT     H1 7504   3.310   1.730   4.318
 2431WAT     H2 7505   3.250   1.869   4.319
 2432WAT      O 7506   2.759   0.872   2.734
 2432WAT     H1 7507   2.742   0.778   2.730
 2432WAT     H2 7508   2.711   0.909   2.661
 2433WAT      O 7509   2.578   1.052   2.923
 2433WAT     H1 7510   2.511   1.000   2.968
 2433WAT     H2 7511   2.647   0.989   2.901
 2434WAT      O 7512   1.967   1.094   3.019
 2434WAT     H1 7513   1.900   1.047   3.067
 2434WAT     H2 7514   2.041   1.100   3.080
 2435WAT      O 7515   2.971   1.503   2.816
 2435WAT     H1 7516   2.926   1.418   2.826
 2435WAT     H2 7517   3.057   1.489   2.855
 2436WAT      O 7518   1.985   1.489   3.052
 2436WAT     H1 7519   2.027   1.410   3.018
 2436WAT     H2 7520   2.045   1.560   3.028
 2437WAT      O 7521   1.820   0.586   2.395
 2437WAT     H1 7522   1.726   0.604   2.389
 2437WAT     H2 7523   1.846   0.565   2.305
 2438WAT      O 7524   1.600   0.811   2.966
 2438WAT     H1 7525   1.672   0.751   2.981
 2438WAT     H2 7526   1.626   0.862   2.890
 2439WAT      O 7527   2.596   1.718   2.788
 2439WAT     H1 7528   2.533   1.753   2.725
 2439WAT     H2 7529   2.680   1.752   2.759
 2440WAT      O 7530   2.503   1.313   2.943
 2440WAT     H1 7531   2.524   1.221   2.928
 2440WAT     H2 7532   2.571   1.345   3.001
 2441WAT      O 7533   1.730   0.393   3.178
 2441WAT     H1 7534   1.729   0.305   3.215
 2441WAT     H2 7535   1.667   0.442   3.230
 2442WAT      O 7536   2.617   0.609   2.944
 2442WAT     H1 7537   2.668   0.534   2.975
 2442WAT     H2 7538   2.636   0.615   2.851
 2443WAT      O 7539   2.042   0.449   2.493
 2443WAT     H1 7540   2.067   0.520   2.552
 2443WAT     H2 7541   1.949   0.464   2.475
 2444WAT      O 7542   3.005   0.355   2.654
 2444WAT     H1 7543   3.096   0.325   2.649
 2444WAT     H2 7544   3.006   0.424   2.720
 2445WAT      O 7545   1.798   0.623   3.032
 2445WAT     H1 7546   1.881   0.646   3.075
 2445WAT     H2 7547   1.770   0.542   3.075
 2446WAT      O 7548   2.228   0.751   2.945
 2446WAT     H1 7549   2.294   0.800   2.992
 2446WAT     H2 7550   2.268   0.665   2.929
 2447WAT      O 7551   3.417   0.552   3.310
 2447WAT     H1 7552   3.360   0.616   3.268
 2447WAT     H2 7553   3.464   0.603   3.377
 2448WAT      O 7554   2.691   1.215   2.504
 2448WAT     H1 7555   2.631   1.243   2.435
 2448WAT     H2 7556   2.706   1.293   2.557
 2449WAT      O 7557   2.187   1.170   3.186
 2449WAT     H1 7558   2.144   1.226   3.250
 2449WAT     H2 7559   2.202   1.227   3.110
 2450WAT      O 7560   3.040   0.527   2.919
 2450WAT     H1 7561   2.959   0.545   2.966
 2450WAT     H2 7562   3.077   0.614   2.900
 2451WAT      O 7563   2.016   0.373   3.162
 2451WAT     H1 7564   2.046   0.464   3.154
 2451WAT     H2 7565   1.921   0.381   3.173
 2452WAT      O 7566   2.097   1.360   3.358
 2452WAT     H1 7567   2.148   1.440   3.342
 2452WAT     H2 7568   2.006   1.388   3.349
 2453WAT      O 7569   1.624   1.267   2.261
 2453WAT     H1 7570   1.595   1.318   2.186
 2453WAT     H2 7571   1.641   1.331   2.329
 2454WAT      O 7572   3.171   1.501   3.153
 2454WAT     H1 7573   3.126   1.584   3.167
 2454WAT     H2 7574   3.228   1.517   3.077
 2455WAT      O 7575   3.321   0.482   2.974
 2455WAT     H1 7576   3.227   0.490   2.989
 2455WAT     H2 7577   3.359   0.555   3.024
 2456WAT      O 7578   2.933   1.704   3.020
 2456WAT     H1 7579   2.943   1.645   2.946
 2456WAT     H2 7580   2.871   1.771   2.990
 2457WAT      O 7581   3.076   1.356   2.532
 2457WAT     H1 7582   3.061   1.262   2.542
 2457WAT     H2 7583   3.044   1.394   2.614
 2458WAT      O 7584   2.897   1.182   3.160
 2458WAT     H1 7585   2.942   1.156   3.080
 2458WAT     H2 7586   2.967   1.213   3.218
 2459WAT      O 7587   2.628   0.937   2.495
 2459WAT     H1 7588   2.533   0.941   2.495
 2459WAT     H2 7589   2.656   1.027   2.478
 2460WAT      O 7590   2.622   0.544   2.150
 2460WAT     H1 7591   2.537   0.566   2.187
 2460WAT     H2 7592   2.672   0.626   2.154
 2461WAT      O 7593   3.268   1.017   3.167
 2461WAT     H1 7594   3.197   1.048   3.112
 2461WAT     H2 7595   3.344   1.069   3.139
 2462WAT      O 7596   3.021   1.086   2.532
 2462WAT     H1 7597   2.952   1.052   2.475
 2462WAT     H2 7598   3.019   1.028   2.608
 2463WAT      O 7599   2.971   0.704   3.261
 2463WAT     H1 7600   2.929   0.789   3.274
 2463WAT     H2 7601   2.899   0.643   3.248
 2464WAT      O 7602   2.181   0.965   2.738
 2464WAT     H1 7603   2.148   0.891   2.687
 2464WAT     H2 7604   2.195   0.929   2.826
 2465WAT      O 7605   2.229   1.328   2.967
 2465WAT     H1 7606   2.194   1.294   2.885
 2465WAT     H2 7607   2.323   1.333   2.953
 2466WAT      O 7608   2.051   0.654   3.135
 2466WAT     H1 7609   2.104   0.683   3.061
 2466WAT     H2 7610   2.088   0.701   3.210
 2467WAT      O 7611   3.034   1.702   3.346
 2467WAT     H1 7612   2.997   1.768   3.287
 2467WAT     H2 7613   2.971   1.630   3.346
 2468WAT      O 7614   2.848   1.014   2.227
 2468WAT     H1 7615   2.879   0.925   2.210
 2468WAT     H2 7616   2.926   1.069   2.223
 2469WAT      O 7617   2.023   1.019   3.483
 2469WAT     H1 7618   1.995   1.110   3.486
 2469WAT     H2 7619   1.944   0.970   3.461
 2470WAT      O 7620   2.646   1.484   2.619
 2470WAT     H1 7621   2.700   1.550   2.576
 2470WAT     H2 7622   2.626   1.523   2.705
 2471WAT      O 7623   1.851   0.862   2.506
 2471WAT     H1 7624   1.845   0.935   2.444
 2471WAT     H2 7625   1.835   0.784   2.453
 2472WAT      O 7626   3.417   1.660   3.852
 2472WAT     H1 7627   3.452   1.723   3.914
 2472WAT     H2 7628   3.462   1.680   3.770
 2473WAT      O 7629   1.603   1.170   3.088
 2473WAT     H1 7630   1.595   1.189   2.994
 2473WAT     H2 7631   1.680   1.113   3.094
 2474WAT      O 7632   1.730   1.352   2.712
 2474WAT     H1 7633   1.712   1.381   2.622
 2474WAT     H2 7634   1.821   1.322   2.710
 2475WAT      O 7635   3.318   1.380   3.546
 2475WAT     H1 7636   3.362   1.366   3.462
 2475WAT     H2 7637   3.348   1.308   3.601
 2476WAT      O 7638   2.917   1.803   2.358
 2476WAT     H1 7639   2.895   1.772   2.446
 2476WAT     H2 7640   2.913   1.724   2.304
 2477WAT      O 7641   2.160   1.762   2.516
 2477WAT     H1 7642   2.135   1.671   2.532
 2477WAT     H2 7643   2.084   1.812   2.545
 2478WAT      O 7644   2.887   1.577   2.200
 2478WAT     H1 7645   2.807   1.546   2.157
 2478WAT     H2 7646   2.956   1.522   2.165
 2479WAT      O 7647   2.850   1.707   2.624
 2479WAT     H1 7648   2.903   1.639   2.665
 2479WAT     H2 7649   2.874   1.787   2.670
 2480WAT      O 7650   3.324   0.611   3.651
 2480WAT     H1 7651   3.287   0.681   3.598
 2480WAT     H2 7652   3.266   0.536   3.634
 2481WAT      O 7653   1.634   1.302   3.333
 2481WAT     H1 7654   1.620   1.255   3.251
 2481WAT     H2 7655   1.685   1.242   3.387
 2482WAT      O 7656   2.119   0.230   2.826
 2482WAT     H1 7657   2.057   0.301   2.812
 2482WAT     H2 7658   2.137   0.231   2.920
 2483WAT      O 7659   2.521   0.481   3.399
 2483WAT     H1 7660   2.463   0.506   3.471
 2483WAT     H2 7661   2.480   0.404   3.360
 2484WAT      O 7662   3.043   0.586   3.501
 2484WAT     H1 7663   2.958   0.573   3.544
 2484WAT     H2 7664   3.022   0.638   3.423
 2485WAT      O 7665   2.736   0.767   3.715
 2485WAT     H1 7666   2.756   0.675   3.700
 2485WAT     H2 7667   2.819   0.805   3.745
 2486WAT      O 7668   2.322   0.255   3.032
 2486WAT     H1 7669   2.319   0.349   3.011
 2486WAT     H2 7670   2.354   0.214   2.952
 2487WAT      O 7671   2.076   0.718   2.625
 2487WAT     H1 7672   2.040   0.675   2.703
 2487WAT     H2 7673   2.001   0.762   2.585
 2488WAT      O 7674   2.789   0.710   2.463
 2488WAT     H1 7675   2.736   0.789   2.459
 2488WAT     H2 7676   2.838   0.711   2.381
 2489WAT      O 7677   2.321   0.809   3.664
 2489WAT     H1 7678   2.322   0.715   3.646
 2489WAT     H2 7679   2.408   0.839   3.640
 2490WAT      O 7680   2.689   0.590   2.685
 2490WAT     H1 7681   2.719   0.622   2.600
 2490WAT     H2 7682   2.690   0.495   2.677
 2491WAT      O 7683   1.848   0.454   3.499
 2491WAT     H1 7684   1.796   0.531   3.521
 2491WAT     H2 7685   1.787   0.381   3.503
 2492WAT      O 7686   2.496   0.443   3.806
 2492WAT     H1 7687   2.435   0.394   3.861
 2492WAT     H2 7688   2.554   0.487   3.868
 2493WAT      O 7689   1.574   0.241   2.900
 2493WAT     H1 7690   1.531   0.309   2.951
 2493WAT     H2 7691   1.628   0.193   2.963
 2494WAT      O 7692   1.602   0.635   2.002
 2494WAT     H1 7693   1.594   0.728   2.024
 2494WAT     H2 7694   1.537   0.621   1.932
 2495WAT      O 7695   2.716   0.828   3.087
 2495WAT     H1 7696   2.639   0.871   3.124
 2495WAT     H2 7697   2.682   0.752   3.041
 2496WAT      O 7698   2.363   0.511   2.923
 2496WAT     H1 7699   2.368   0.475   2.834
 2496WAT     H2 7700   2.450   0.545   2.940
 2497WAT      O 7701   1.937   0.499   2.807
 2497WAT     H1 7702   1.903   0.542   2.886
 2497WAT     H2 7703   1.859   0.461   2.766
 2498WAT      O 7704   2.375   0.608   2.248
 2498WAT     H1 7705   2.365   0.614   2.343
 2498WAT     H2 7706   2.340   0.691   2.215
 2499WAT      O 7707   2.765   0.401   3.030
 2499WAT     H1 7708   2.771   0.428   3.121
 2499WAT     H2 7709   2.760   0.305   3.034
 2500WAT      O 7710   2.270   0.843   2.142
 2500WAT     H1 7711   2.222   0.791   2.078
 2500WAT     H2 7712   2.342   0.881   2.092
 2501WAT      O 7713   1.798   1.204   3.546
 2501WAT     H1 7714   1.749   1.148   3.606
 2501WAT     H2 7715   1.815   1.284   3.596
 2502WAT      O 7716   2.403   0.914   3.097
 2502WAT     H1 7717   2.423   0.855   3.170
 2502WAT     H2 7718   2.355   0.986   3.137
 2503WAT      O 7719   1.691   0.382   2.701
 2503WAT     H1 7720   1.651   0.332   2.772
 2503WAT     H2 7721   1.707   0.318   2.632
 2504WAT      O 7722   2.172   0.807   3.339
 2504WAT     H1 7723   2.145   0.893   3.372
 2504WAT     H2 7724   2.268   0.809   3.342
 2505WAT      O 7725   2.041   1.241   2.401
 2505WAT     H1 7726   1.962   1.186   2.392
 2505WAT     H2 7727   2.111   1.187   2.365
 2506WAT      O 7728   3.105   1.120   2.962
 2506WAT     H1 7729   3.179   1.169   2.924
 2506WAT     H2 7730   3.077   1.061   2.892
 2507WAT      O 7731   2.644   0.292   2.388
 2507WAT     H1 7732   2.580   0.229   2.355
 2507WAT     H2 7733   2.637   0.367   2.328
 2508WAT      O 7734   2.650   1.146   3.581
 2508WAT     H1 7735   2.643   1.061   3.537
 2508WAT     H2 7736   2.562   1.162   3.615
 2509WAT      O 7737   2.921   0.705   2.218
 2509WAT     H1 7738   3.005   0.747   2.198
 2509WAT     H2 7739   2.931   0.615   2.187
 2510WAT      O 7740   2.035   1.214   2.778
 2510WAT     H1 7741   2.080   1.138   2.740
 2510WAT     H2 7742   1.994   1.180   2.858
 2511WAT      O 7743   2.537   1.331   2.290
 2511WAT     H1 7744   2.558   1.411   2.242
 2511WAT     H2 7745   2.452   1.348   2.329
 2512WAT      O 7746   1.771   0.909   3.443
 2512WAT     H1 7747   1.728   0.966   3.507
 2512WAT     H2 7748   1.755   0.820   3.475
 2513WAT      O 7749   2.096   0.953   3.739
 2513WAT     H1 7750   2.074   0.975   3.649
 2513WAT     H2 7751   2.175   0.900   3.732
 2514WAT      O 7752   3.146   0.851   2.157
 2514WAT     H1 7753   3.136   0.885   2.068
 2514WAT     H2 7754   3.215   0.904   2.195
 2515WAT      O 7755   3.249   1.094   3.451
 2515WAT     H1 7756   3.180   1.158   3.436
 2515WAT     H2 7757   3.292   1.084   3.366
 2516WAT      O 7758   3.271   1.530   2.428
 2516WAT     H1 7759   3.203   1.470   2.459
 2516WAT     H2 7760   3.235   1.567   2.347
 2517WAT      O 7761   2.823   1.261   2.813
 2517WAT     H1 7762   2.842   1.192   2.750
 2517WAT     H2 7763   2.733   1.243   2.841
 2518WAT      O 7764   2.403   1.330   2.563
 2518WAT     H1 7765   2.481   1.381   2.586
 2518WAT     H2 7766   2.331   1.393   2.569
 2519WAT      O 7767   1.618   0.887   2.111
 2519WAT     H1 7768   1.707   0.900   2.142
 2519WAT     H2 7769   1.585   0.976   2.093
 2520WAT      O 7770   2.362   1.052   2.532
 2520WAT     H1 7771   2.385   1.143   2.551
 2520WAT     H2 7772   2.309   1.025   2.608
 2521WAT      O 7773   2.581   1.595   3.233
 2521WAT     H1 7774   2.635   1.609   3.311
 2521WAT     H2 7775   2.614   1.513   3.195
 2522WAT      O 7776   2.716   1.388   3.115
 2522WAT     H1 7777   2.766   1.308   3.134
 2522WAT     H2 7778   2.779   1.446   3.072
 2523WAT      O 7779   3.083   1.413   2.081
 2523WAT     H1 7780   3.066   1.337   2.137
 2523WAT     H2 7781   3.063   1.383   1.993
 2524WAT      O 7782   2.886   1.480   3.442
 2524WAT     H1 7783   2.898   1.527   3.525
 2524WAT     H2 7784   2.806   1.429   3.455
 2525WAT      O 7785   1.687   1.833   2.153
 2525WAT     H1 7786   1.718   1.907   2.100
 2525WAT     H2 7787   1.658   1.874   2.235
 2526WAT      O 7788   1.654   0.258   3.529
 2526WAT     H1 7789   1.563   0.263   3.557
 2526WAT     H2 7790   1.676   0.165   3.537
 2527WAT      O 7791   3.054   1.206   2.258
 2527WAT     H1 7792   3.029   1.251   2.338
 2527WAT     H2 7793   3.136   1.162   2.281
 2528WAT      O 7794   2.288   1.547   2.239
 2528WAT     H1 7795   2.280   1.624   2.184
 2528WAT     H2 7796   2.197   1.517   2.251
 2529WAT      O 7797   1.827   1.085   2.317
 2529WAT     H1 7798   1.757   1.146   2.295
 2529WAT     H2 7799   1.873   1.069   2.235
 2530WAT      O 7800   2.779   0.496   3.286
 2530WAT     H1 7801   2.826   0.423   3.327
 2530WAT     H2 7802   2.693   0.497   3.328
 2531WAT      O 7803   3.124   0.415   2.376
 2531WAT     H1 7804   3.073   0.414   2.295
 2531WAT     H2 7805   3.061   0.392   2.444
 2532WAT      O 7806   2.554   1.557   2.123
 2532WAT     H1 7807   2.562   1.534   2.031
 2532WAT     H2 7808   2.461   1.545   2.143
 2533WAT      O 7809   2.321   0.619   2.511
 2533WAT     H1 7810   2.247   0.662   2.552
 2533WAT     H2 7811   2.351   0.555   2.576
 2534WAT      O 7812   2.464   0.764   3.315
 2534WAT     H1 7813   2.524   0.809   3.375
 2534WAT     H2 7814   2.485   0.671   3.326
 2535WAT      O 7815   2.719   0.317   2.650
 2535WAT     H1 7816   2.700   0.298   2.558
 2535WAT     H2 7817   2.814   0.309   2.656
 2536WAT      O 7818   2.427   1.815   2.581
 2536WAT     H1 7819   2.470   1.807   2.496
 2536WAT     H2 7820   2.334   1.798   2.563
 2537WAT      O 7821   2.143   0.444   2.234
 2537WAT     H1 7822   2.221   0.499   2.235
 2537WAT     H2 7823   2.111   0.447   2.324
 2538WAT      O 7824   3.199   0.384   3.409
 2538WAT     H1 7825   3.146   0.458   3.438
 2538WAT     H2 7826   3.275   0.423   3.368
 2539WAT      O 7827   3.030   0.931   2.755
 2539WAT     H1 7828   2.940   0.900   2.760
 2539WAT     H2 7829   3.083   0.858   2.787
 2540WAT      O 7830   2.024   1.080   2.099
 2540WAT     H1 7831   2.103   1.078   2.152
 2540WAT     H2 7832   2.048   1.036   2.018
 2541WAT      O 7833   1.892   0.820   2.172
 2541WAT     H1 7834   1.892   0.725   2.169
 2541WAT     H2 7835   1.984   0.844   2.176
 2542WAT      O 7836   3.242   1.627   2.901
 2542WAT     H1 7837   3.247   1.708   2.951
 2542WAT     H2 7838   3.331   1.614   2.868
 2543WAT      O 7839   1.985   1.848   2.879
 2543WAT     H1 7840   2.051   1.785   2.909
 2543WAT     H2 7841   2.035   1.928   2.862
 2544WAT      O 7842   1.658   1.450   2.462
 2544WAT     H1 7843   1.568   1.483   2.462
 2544WAT     H2 7844   1.712   1.526   2.438
 2545WAT      O 7845   2.278   1.745   2.055
 2545WAT     H1 7846   2.354   1.794   2.024
 2545WAT     H2 7847   2.249   1.695   1.979
 2546WAT      O 7848   2.755   1.357   3.778
 2546WAT     H1 7849   2.692   1.329   3.713
 2546WAT     H2 7850   2.742   1.298   3.852
 2547WAT      O 7851   3.195   1.676   2.211
 2547WAT     H1 7852   3.160   1.630   2.134
 2547WAT     H2 7853   3.171   1.768   2.196
 2548WAT      O 7854   1.664   1.018   3.691
 2548WAT     H1 7855   1.714   0.948   3.733
 2548WAT     H2 7856   1.583   1.022   3.741
 2549WAT      O 7857   2.349   1.271   2.023
 2549WAT     H1 7858   2.337   1.225   2.106
 2549WAT     H2 7859   2.346   1.202   1.957
 2550WAT      O 7860   2.381   1.164   3.622
 2550WAT     H1 7861   2.290   1.173   3.651
 2550WAT     H2 7862   2.374   1.130   3.533
 2551WAT      O 7863   2.661   1.172   2.100
 2551WAT     H1 7864   2.617   1.222   2.168
 2551WAT     H2 7865   2.725   1.118   2.147
 2552WAT      O 7866   3.077   1.330   3.697
 2552WAT     H1 7867   3.153   1.349   3.642
 2552WAT     H2 7868   3.002   1.342   3.640
 2553WAT      O 7869   1.841   0.821   3.774
 2553WAT     H1 7870   1.850   0.804   3.867
 2553WAT     H2 7871   1.929   0.847   3.746
 2554WAT      O 7872   2.232   1.069   2.290
 2554WAT     H1 7873   2.282   1.065   2.371
 2554WAT     H2 7874   2.250   0.985   2.246
 2555WAT      O 7875   2.048   0.678   3.575
 2555WAT     H1 7876   1.990   0.627   3.519
 2555WAT     H2 7877   2.110   0.719   3.515
 2556WAT      O 7878   2.491   0.963   2.031
 2556WAT     H1 7879   2.547   0.911   1.974
 2556WAT     H2 7880   2.543   1.040   2.052
 2557WAT      O 7881   2.927   1.109   3.564
 2557WAT     H1 7882   2.975   1.144   3.640
 2557WAT     H2 7883   2.836   1.130   3.582
 2558WAT      O 7884   3.002   0.852   3.740
 2558WAT     H1 7885   3.060   0.778   3.719
 2558WAT     H2 7886   3.013   0.913   3.667
 2559WAT      O 7887   2.099   0.375   3.592
 2559WAT     H1 7888   2.114   0.309   3.525
 2559WAT     H2 7889   2.018   0.419   3.565
 2560WAT      O 7890   2.382   0.259   3.299
 2560WAT     H1 7891   2.354   0.254   3.208
 2560WAT     H2 7892   2.329   0.192   3.343
 2561WAT      O 7893   2.393   1.115   3.353
 2561WAT     H1 7894   2.456   1.181   3.326
 2561WAT     H2 7895   2.316   1.132   3.300
 2562WAT      O 7896   2.646   0.879   3.486
 2562WAT     H1 7897   2.675   0.838   3.567
 2562WAT     H2 7898   2.726   0.890   3.435
 2563WAT      O 7899   2.872   0.950   3.345
 2563WAT     H1 7900   2.857   1.006   3.268
 2563WAT     H2 7901   2.909   1.008   3.410
 2564WAT      O 7902   2.118   0.673   1.988
 2564WAT     H1 7903   2.089   0.585   2.013
 2564WAT     H2 7904   2.102   0.678   1.894
 2565WAT      O 7905   2.338   0.539   3.604
 2565WAT     H1 7906   2.387   0.505   3.679
 2565WAT     H2 7907   2.257   0.488   3.603
 2566WAT      O 7908   2.820   0.509   3.648
 2566WAT     H1 7909   2.743   0.456   3.626
 2566WAT     H2 7910   2.880   0.448   3.691
 2567WAT      O 7911   2.009   0.405   1.979
 2567WAT     H1 7912   2.049   0.383   1.895
 2567WAT     H2 7913   2.075   0.381   2.044
 2568WAT      O 7914   2.338   0.277   2.069
 2568WAT     H1 7915   2.302   0.204   2.020
 2568WAT     H2 7916   2.306   0.265   2.158
 2569WAT      O 7917   2.542   1.798   2.274
 2569WAT     H1 7918   2.631   1.831   2.262
 2569WAT     H2 7919   2.538   1.718   2.222
 2570WAT      O 7920   1.911   1.327   2.058
 2570WAT     H1 7921   1.949   1.380   2.127
 2570WAT     H2 7922   1.949   1.240   2.071
 2571WAT      O 7923   1.627   1.600   2.821
 2571WAT     H1 7924   1.666   1.516   2.800
 2571WAT     H2 7925   1.658   1.620   2.909
 2572WAT      O 7926   2.103   1.437   2.588
 2572WAT     H1 7927   2.071   1.400   2.670
 2572WAT     H2 7928   2.084   1.369   2.523
 2573WAT      O 7929   1.668   1.692   3.078
 2573WAT     H1 7930   1.629   1.702   3.165
 2573WAT     H2 7931   1.710   1.777   3.061
 2574WAT      O 7932   3.268   1.649   3.491
 2574WAT     H1 7933   3.183   1.662   3.450
 2574WAT     H2 7934   3.269   1.558   3.519
 2575WAT      O 7935   3.360   1.408   2.059
 2575WAT     H1 7936   3.266   1.416   2.077
 2575WAT     H2 7937   3.386   1.493   2.024
 2576WAT      O 7938   3.300   1.083   2.297
 2576WAT     H1 7939   3.373   1.144   2.299
 2576WAT     H2 7940   3.310   1.030   2.377
 2577WAT      O 7941   1.649   0.932   2.709
 2577WAT     H1 7942   1.583   0.917   2.642
 2577WAT     H2 7943   1.732   0.918   2.664
 2578WAT      O 7944   3.419   1.176   2.813
 2578WAT     H1 7945   3.451   1.095   2.773
 2578WAT     H2 7946   3.473   1.244   2.774
 2579WAT      O 7947   3.084   1.305   3.325
 2579WAT     H1 7948   3.020   1.365   3.363
 2579WAT     H2 7949   3.135   1.360   3.265
 2580WAT      O 7950   3.346   1.117   2.023
 2580WAT     H1 7951   3.349   1.211   2.005
 2580WAT     H2 7952   3.307   1.110   2.110
 2581WAT      O 7953   2.969   0.418   2.147
 2581WAT     H1 7954   3.005   0.400   2.060
 2581WAT     H2 7955   2.899   0.353   2.157
 2582WAT      O 7956   3.300   0.916   2.521
 2582WAT     H1 7957   3.269   0.830   2.493
 2582WAT     H2 7958   3.226   0.955   2.568
 2583WAT      O 7959   1.773   0.970   3.172
 2583WAT     H1 7960   1.781   0.954   3.266
 2583WAT     H2 7961   1.709   0.905   3.143
 2584WAT      O 7962   3.249   0.819   3.490
 2584WAT     H1 7963   3.237   0.797   3.398
 2584WAT     H2 7964   3.253   0.915   3.492
 2585WAT      O 7965   1.708   0.675   3.575
 2585WAT     H1 7966   1.622   0.655   3.611
 2585WAT     H2 7967   1.757   0.710   3.648
 2586WAT      O 7968   3.086   0.346   3.778
 2586WAT     H1 7969   3.176   0.343   3.812
 2586WAT     H2 7970   3.088   0.289   3.701
 2587WAT      O 7971   1.574   0.653   2.304
 2587WAT     H1 7972   1.489   0.687   2.332
 2587WAT     H2 7973   1.596   0.705   2.227
 2588WAT      O 7974   3.217   0.745   2.850
 2588WAT     H1 7975   3.260   0.689   2.785
 2588WAT     H2 7976   3.288   0.779   2.904
 2589WAT      O 7977   3.244   0.739   3.210
 2589WAT     H1 7978   3.149   0.730   3.209
 2589WAT     H2 7979   3.259   0.829   3.180
 2590WAT      O 7980   1.837   0.558   2.122
 2590WAT     H1 7981   1.890   0.500   2.067
 2590WAT     H2 7982   1.757   0.572   2.072
 2591WAT      O 7983   3.215   0.664   2.462
 2591WAT     H1 7984   3.244   0.619   2.541
 2591WAT     H2 7985   3.168   0.596   2.412
 2592WAT      O 7986   3.322   0.529   2.696
 2592WAT     H1 7987   3.317   0.500   2.787
 2592WAT     H2 7988   3.407   0.496   2.666
 2593WAT      O 7989   3.397   0.301   2.013
 2593WAT     H1 7990   3.489   0.309   1.987
 2593WAT     H2 7991   3.397   0.323   2.106
 2594WAT      O 7992   3.414   0.378   2.286
 2594WAT     H1 7993   3.327   0.375   2.325
 2594WAT     H2 7994   3.438   0.471   2.287
 2595WAT      O 7995   3.131   1.788   2.698
 2595WAT     H1 7996   3.189   1.775   2.624
 2595WAT     H2 7997   3.155   1.719   2.760
 2596WAT      O 7998   2.486   0.221   3.646
 2596WAT     H1 7999   2.492   0.300   3.698
 2596WAT     H2 8000   2.573   0.213   3.605
 2597WAT      O 8001   3.407   1.793   3.301
 2597WAT     H1 8002   3.336   1.826   3.246
 2597WAT     H2 8003   3.363   1.743   3.369
 2598WAT      O 8004   2.925   0.278   3.367
 2598WAT     H1 8005   2.917   0.191   3.327
 2598WAT     H2 8006   3.019   0.295   3.369
 2599WAT      O 8007   3.162   1.849   3.064
 2599WAT     H1 8008   3.140   1.935   3.028
 2599WAT     H2 8009   3.083   1.797   3.052
 2600WAT      O 8010   1.854   1.467   3.305
 2600WAT     H1 8011   1.768   1.425   3.307
 2600WAT     H2 8012   1.869   1.487   3.213
 2601WAT      O 8013   2.205   1.685   2.975
 2601WAT     H1 8014   2.256   1.619   2.929
 2601WAT     H2 8015   2.270   1.739   3.019
 2602WAT      O 8016   2.485   1.777   3.049
 2602WAT     H1 8017   2.527   1.751   2.967
 2602WAT     H2 8018   2.516   1.712   3.113
 2603WAT      O 8019   3.056   0.227   2.948
 2603WAT     H1 8020   3.101   0.206   2.866
 2603WAT     H2 8021   3.033   0.319   2.940
 2604WAT      O 8022   1.688   1.785   2.613
 2604WAT     H1 8023   1.671   1.729   2.689
 2604WAT     H2 8024   1.601   1.807   2.579
 2605WAT      O 8025   1.737   0.191   2.378
 2605WAT     H1 8026   1.815   0.212   2.326
 2605WAT     H2 8027   1.670   0.253   2.347
 2606WAT      O 8028   2.380   0.391   2.679
 2606WAT     H1 8029   2.306   0.336   2.652
 2606WAT     H2 8030   2.457   0.334   2.667
 2607WAT      O 8031   1.819   1.659   2.374
 2607WAT     H1 8032   1.792   1.713   2.299
 2607WAT     H2 8033   1.812   1.718   2.449
 2608WAT      O 8034   3.315   1.810   2.492
 2608WAT     H1 8035   3.310   1.727   2.445
 2608WAT     H2 8036   3.273   1.873   2.434
 2609WAT      O 8037   2.117   1.872   2.251
 2609WAT     H1 8038   2.174   1.829   2.188
 2609WAT     H2 8039   2.137   1.828   2.334
 2610WAT      O 8040   2.014   1.478   2.266
 2610WAT     H1 8041   1.952   1.535   2.311
 2610WAT     H2 8042   2.021   1.401   2.323
 2611WAT      O 8043   2.760   0.872   0.857
 2611WAT     H1 8044   2.741   0.778   0.852
 2611WAT     H2 8045   2.711   0.909   0.783
 2612WAT      O 8046   2.577   1.052   1.045
 2612WAT     H1 8047   2.511   1.000   1.091
 2612WAT     H2 8048   2.647   0.990   1.025
 2613WAT      O 8049   1.966   1.096   1.143
 2613WAT     H1 8050   1.899   1.048   1.190
 2613WAT     H2 8051   2.041   1.099   1.203
 2614WAT      O 8052   2.973   1.501   0.928
 2614WAT     H1 8053   2.926   1.419   0.944
 2614WAT     H2 8054   3.054   1.492   0.979
 2615WAT      O 8055   1.984   1.484   1.175
 2615WAT     H1 8056   2.026   1.405   1.140
 2615WAT     H2 8057   2.043   1.555   1.151
 2616WAT      O 8058   1.817   0.596   0.517
 2616WAT     H1 8059   1.722   0.607   0.504
 2616WAT     H2 8060   1.850   0.576   0.429
 2617WAT      O 8061   1.600   0.813   1.090
 2617WAT     H1 8062   1.672   0.751   1.104
 2617WAT     H2 8063   1.627   0.863   1.012
 2618WAT      O 8064   2.595   1.722   0.913
 2618WAT     H1 8065   2.534   1.752   0.846
 2618WAT     H2 8066   2.680   1.753   0.883
 2619WAT      O 8067   2.501   1.314   1.067
 2619WAT     H1 8068   2.524   1.222   1.052
 2619WAT     H2 8069   2.571   1.347   1.124
 2620WAT      O 8070   1.730   0.393   1.300
 2620WAT     H1 8071   1.730   0.305   1.337
 2620WAT     H2 8072   1.667   0.442   1.353
 2621WAT      O 8073   2.617   0.609   1.067
 2621WAT     H1 8074   2.668   0.533   1.097
 2621WAT     H2 8075   2.636   0.615   0.973
 2622WAT      O 8076   2.042   0.447   0.617
 2622WAT     H1 8077   2.065   0.522   0.673
 2622WAT     H2 8078   1.947   0.456   0.604
 2623WAT      O 8079   3.006   0.355   0.775
 2623WAT     H1 8080   3.097   0.326   0.772
 2623WAT     H2 8081   3.005   0.424   0.842
 2624WAT      O 8082   1.797   0.624   1.155
 2624WAT     H1 8083   1.880   0.646   1.197
 2624WAT     H2 8084   1.770   0.543   1.198
 2625WAT      O 8085   2.228   0.751   1.067
 2625WAT     H1 8086   2.294   0.800   1.115
 2625WAT     H2 8087   2.268   0.665   1.052
 2626WAT      O 8088   3.418   0.553   1.432
 2626WAT     H1 8089   3.359   0.616   1.390
 2626WAT     H2 8090   3.463   0.603   1.500
 2627WAT      O 8091   2.689   1.214   0.626
 2627WAT     H1 8092   2.629   1.245   0.559
 2627WAT     H2 8093   2.707   1.291   0.680
 2628WAT      O 8094   2.188   1.173   1.309
 2628WAT     H1 8095   2.145   1.230   1.373
 2628WAT     H2 8096   2.204   1.229   1.233
 2629WAT      O 8097   3.040   0.527   1.041
 2629WAT     H1 8098   2.959   0.546   1.088
 2629WAT     H2 8099   3.077   0.613   1.022
 2630WAT      O 8100   2.015   0.373   1.283
 2630WAT     H1 8101   2.046   0.464   1.277
 2630WAT     H2 8102   1.921   0.382   1.296
 2631WAT      O 8103   2.102   1.375   1.477
 2631WAT     H1 8104   2.158   1.446   1.447
 2631WAT     H2 8105   2.012   1.407   1.464
 2632WAT      O 8106   1.619   1.266   0.387
 2632WAT     H1 8107   1.623   1.318   0.308
 2632WAT     H2 8108   1.635   1.328   0.458
 2633WAT      O 8109   3.171   1.498   1.275
 2633WAT     H1 8110   3.126   1.577   1.305
 2633WAT     H2 8111   3.220   1.526   1.197
 2634WAT      O 8112   3.321   0.482   1.096
 2634WAT     H1 8113   3.227   0.491   1.111
 2634WAT     H2 8114   3.360   0.554   1.146
 2635WAT      O 8115   2.940   1.698   1.143
 2635WAT     H1 8116   2.941   1.649   1.060
 2635WAT     H2 8117   2.876   1.767   1.129
 2636WAT      O 8118   3.075   1.359   0.655
 2636WAT     H1 8119   3.060   1.264   0.664
 2636WAT     H2 8120   3.045   1.396   0.738
 2637WAT      O 8121   2.896   1.181   1.284
 2637WAT     H1 8122   2.944   1.156   1.205
 2637WAT     H2 8123   2.963   1.216   1.343
 2638WAT      O 8124   2.627   0.936   0.617
 2638WAT     H1 8125   2.532   0.943   0.621
 2638WAT     H2 8126   2.658   1.025   0.599
 2639WAT      O 8127   2.626   0.527   0.291
 2639WAT     H1 8128   2.535   0.551   0.312
 2639WAT     H2 8129   2.668   0.610   0.268
 2640WAT      O 8130   3.269   1.017   1.290
 2640WAT     H1 8131   3.196   1.048   1.236
 2640WAT     H2 8132   3.344   1.069   1.262
 2641WAT      O 8133   3.022   1.089   0.657
 2641WAT     H1 8134   2.956   1.055   0.596
 2641WAT     H2 8135   3.019   1.029   0.731
 2642WAT      O 8136   2.971   0.705   1.383
 2642WAT     H1 8137   2.929   0.790   1.396
 2642WAT     H2 8138   2.899   0.644   1.371
 2643WAT      O 8139   2.180   0.965   0.862
 2643WAT     H1 8140   2.148   0.892   0.810
 2643WAT     H2 8141   2.196   0.928   0.948
 2644WAT      O 8142   2.229   1.331   1.088
 2644WAT     H1 8143   2.195   1.293   1.007
 2644WAT     H2 8144   2.324   1.334   1.077
 2645WAT      O 8145   2.051   0.654   1.257
 2645WAT     H1 8146   2.104   0.683   1.183
 2645WAT     H2 8147   2.087   0.701   1.333
 2646WAT      O 8148   3.041   1.693   1.454
 2646WAT     H1 8149   3.007   1.779   1.430
 2646WAT     H2 8150   2.963   1.638   1.465
 2647WAT      O 8151   2.144   1.330   1.742
 2647WAT     H1 8152   2.056   1.346   1.777
 2647WAT     H2 8153   2.133   1.337   1.647
 2648WAT      O 8154   2.846   1.011   0.357
 2648WAT     H1 8155   2.882   0.924   0.338
 2648WAT     H2 8156   2.921   1.070   0.349
 2649WAT      O 8157   2.023   1.018   1.605
 2649WAT     H1 8158   1.996   1.109   1.617
 2649WAT     H2 8159   1.942   0.971   1.585
 2650WAT      O 8160   2.644   1.486   0.740
 2650WAT     H1 8161   2.702   1.553   0.703
 2650WAT     H2 8162   2.627   1.517   0.829
 2651WAT      O 8163   2.220   1.600   1.827
 2651WAT     H1 8164   2.208   1.651   1.746
 2651WAT     H2 8165   2.187   1.513   1.806
 2652WAT      O 8166   1.850   0.861   0.632
 2652WAT     H1 8167   1.844   0.933   0.569
 2652WAT     H2 8168   1.834   0.783   0.580
 2653WAT      O 8169   3.409   1.672   1.965
 2653WAT     H1 8170   3.453   1.724   2.032
 2653WAT     H2 8171   3.467   1.677   1.889
 2654WAT      O 8172   1.605   1.174   1.213
 2654WAT     H1 8173   1.596   1.189   1.119
 2654WAT     H2 8174   1.679   1.114   1.221
 2655WAT      O 8175   1.731   1.353   0.835
 2655WAT     H1 8176   1.713   1.381   0.745
 2655WAT     H2 8177   1.821   1.322   0.833
 2656WAT      O 8178   3.321   1.381   1.668
 2656WAT     H1 8179   3.364   1.367   1.584
 2656WAT     H2 8180   3.343   1.303   1.720
 2657WAT      O 8181   2.727   1.756   1.542
 2657WAT     H1 8182   2.777   1.751   1.623
 2657WAT     H2 8183   2.643   1.794   1.567
 2658WAT      O 8184   2.913   1.801   0.479
 2658WAT     H1 8185   2.894   1.768   0.567
 2658WAT     H2 8186   2.914   1.722   0.424
 2659WAT      O 8187   2.158   1.762   0.642
 2659WAT     H1 8188   2.134   1.670   0.654
 2659WAT     H2 8189   2.081   1.811   0.671
 2660WAT      O 8190   2.887   1.568   0.319
 2660WAT     H1 8191   2.820   1.522   0.268
 2660WAT     H2 8192   2.959   1.506   0.325
 2661WAT      O 8193   2.850   1.703   0.747
 2661WAT     H1 8194   2.904   1.636   0.788
 2661WAT     H2 8195   2.874   1.784   0.792
 2662WAT      O 8196   3.324   0.610   1.773
 2662WAT     H1 8197   3.288   0.681   1.720
 2662WAT     H2 8198   3.266   0.536   1.757
 2663WAT      O 8199   1.622   1.305   1.463
 2663WAT     H1 8200   1.616   1.258   1.380
 2663WAT     H2 8201   1.682   1.252   1.516
 2664WAT      O 8202   2.118   0.228   0.950
 2664WAT     H1 8203   2.057   0.301   0.936
 2664WAT     H2 8204   2.137   0.231   1.043
 2665WAT      O 8205   2.521   0.481   1.521
 2665WAT     H1 8206   2.463   0.506   1.593
 2665WAT     H2 8207   2.480   0.404   1.482
 2666WAT      O 8208   3.043   0.586   1.623
 2666WAT     H1 8209   2.958   0.574   1.667
 2666WAT     H2 8210   3.022   0.638   1.546
 2667WAT      O 8211   2.736   0.766   1.839
 2667WAT     H1 8212   2.756   0.674   1.822
 2667WAT     H2 8213   2.818   0.805   1.868
 2668WAT      O 8214   2.322   0.255   1.154
 2668WAT     H1 8215   2.319   0.349   1.133
 2668WAT     H2 8216   2.354   0.214   1.074
 2669WAT      O 8217   2.076   0.718   0.748
 2669WAT     H1 8218   2.041   0.674   0.826
 2669WAT     H2 8219   2.000   0.762   0.710
 2670WAT      O 8220   2.790   0.711   0.586
 2670WAT     H1 8221   2.735   0.789   0.583
 2670WAT     H2 8222   2.838   0.712   0.503
 2671WAT      O 8223   2.322   0.807   1.788
 2671WAT     H1 8224   2.323   0.714   1.769
 2671WAT     H2 8225   2.408   0.839   1.761
 2672WAT      O 8226   2.689   0.590   0.808
 2672WAT     H1 8227   2.719   0.622   0.723
 2672WAT     H2 8228   2.690   0.495   0.799
 2673WAT      O 8229   1.848   0.454   1.620
 2673WAT     H1 8230   1.796   0.531   1.644
 2673WAT     H2 8231   1.786   0.381   1.625
 2674WAT      O 8232   2.496   0.443   1.929
 2674WAT     H1 8233   2.435   0.394   1.984
 2674WAT     H2 8234   2.554   0.487   1.991
 2675WAT      O 8235   1.574   0.240   1.022
 2675WAT     H1 8236   1.532   0.309   1.074
 2675WAT     H2 8237   1.629   0.194   1.085
 2676WAT      O 8238   2.716   0.828   1.207
 2676WAT     H1 8239   2.641   0.870   1.248
 2676WAT     H2 8240   2.680   0.752   1.162
 2677WAT      O 8241   2.362   0.511   1.045
 2677WAT     H1 8242   2.367   0.475   0.956
 2677WAT     H2 8243   2.450   0.545   1.063
 2678WAT      O 8244   1.936   0.501   0.929
 2678WAT     H1 8245   1.904   0.542   1.009
 2678WAT     H2 8246   1.859   0.461   0.889
 2679WAT      O 8247   2.374   0.607   0.370
 2679WAT     H1 8248   2.367   0.608   0.466
 2679WAT     H2 8249   2.337   0.692   0.343
 2680WAT      O 8250   2.765   0.400   1.152
 2680WAT     H1 8251   2.771   0.429   1.244
 2680WAT     H2 8252   2.760   0.305   1.157
 2681WAT      O 8253   2.268   0.842   0.260
 2681WAT     H1 8254   2.219   0.802   0.189
 2681WAT     H2 8255   2.343   0.884   0.217
 2682WAT      O 8256   1.791   1.215   1.670
 2682WAT     H1 8257   1.747   1.158   1.733
 2682WAT     H2 8258   1.819   1.291   1.722
 2683WAT      O 8259   2.402   0.914   1.220
 2683WAT     H1 8260   2.423   0.855   1.292
 2683WAT     H2 8261   2.355   0.987   1.260
 2684WAT      O 8262   1.691   0.382   0.823
 2684WAT     H1 8263   1.651   0.331   0.894
 2684WAT     H2 8264   1.706   0.318   0.754
 2685WAT      O 8265   2.172   0.808   1.461
 2685WAT     H1 8266   2.145   0.892   1.496
 2685WAT     H2 8267   2.267   0.809   1.465
 2686WAT      O 8268   2.037   1.244   0.523
 2686WAT     H1 8269   1.959   1.189   0.517
 2686WAT     H2 8270   2.108   1.189   0.489
 2687WAT      O 8271   3.104   1.120   1.085
 2687WAT     H1 8272   3.177   1.170   1.049
 2687WAT     H2 8273   3.077   1.061   1.014
 2688WAT      O 8274   2.645   0.293   0.506
 2688WAT     H1 8275   2.573   0.236   0.479
 2688WAT     H2 8276   2.639   0.369   0.449
 2689WAT      O 8277   2.638   1.144   1.697
 2689WAT     H1 8278   2.636   1.058   1.654
 2689WAT     H2 8279   2.555   1.148   1.746
 2690WAT      O 8280   2.923   0.708   0.341
 2690WAT     H1 8281   3.008   0.747   0.323
 2690WAT     H2 8282   2.932   0.617   0.315
 2691WAT      O 8283   2.034   1.214   0.901
 2691WAT     H1 8284   2.079   1.138   0.863
 2691WAT     H2 8285   1.993   1.180   0.981
 2692WAT      O 8286   2.527   1.333   0.416
 2692WAT     H1 8287   2.530   1.408   0.357
 2692WAT     H2 8288   2.442   1.340   0.460
 2693WAT      O 8289   1.769   0.912   1.567
 2693WAT     H1 8290   1.726   0.966   1.633
 2693WAT     H2 8291   1.756   0.822   1.598
 2694WAT      O 8292   2.096   0.949   1.863
 2694WAT     H1 8293   2.077   0.977   1.773
 2694WAT     H2 8294   2.177   0.899   1.855
 2695WAT      O 8295   2.634   1.414   1.651
 2695WAT     H1 8296   2.630   1.319   1.655
 2695WAT     H2 8297   2.566   1.444   1.712
 2696WAT      O 8298   3.150   0.853   0.283
 2696WAT     H1 8299   3.148   0.890   0.194
 2696WAT     H2 8300   3.210   0.909   0.331
 2697WAT      O 8301   3.251   1.095   1.574
 2697WAT     H1 8302   3.180   1.158   1.561
 2697WAT     H2 8303   3.290   1.085   1.487
 2698WAT      O 8304   3.271   1.530   0.548
 2698WAT     H1 8305   3.204   1.471   0.583
 2698WAT     H2 8306   3.232   1.567   0.470
 2699WAT      O 8307   2.821   1.261   0.933
 2699WAT     H1 8308   2.842   1.191   0.872
 2699WAT     H2 8309   2.734   1.240   0.965
 2700WAT      O 8310   2.402   1.330   0.687
 2700WAT     H1 8311   2.480   1.380   0.708
 2700WAT     H2 8312   2.330   1.393   0.693
 2701WAT      O 8313   1.626   0.883   0.247
 2701WAT     H1 8314   1.721   0.888   0.256
 2701WAT     H2 8315   1.597   0.974   0.249
 2702WAT      O 8316   2.365   1.049   0.657
 2702WAT     H1 8317   2.387   1.141   0.674
 2702WAT     H2 8318   2.311   1.023   0.732
 2703WAT      O 8319   2.561   1.591   1.359
 2703WAT     H1 8320   2.615   1.626   1.430
 2703WAT     H2 8321   2.608   1.512   1.330
 2704WAT      O 8322   2.715   1.391   1.236
 2704WAT     H1 8323   2.764   1.311   1.258
 2704WAT     H2 8324   2.783   1.453   1.208
 2705WAT      O 8325   2.894   1.476   1.583
 2705WAT     H1 8326   2.900   1.551   1.643
 2705WAT     H2 8327   2.802   1.450   1.587
 2706WAT      O 8328   1.683   1.826   0.320
 2706WAT     H1 8329   1.711   1.866   0.238
 2706WAT     H2 8330   1.677   1.899   0.382
 2707WAT      O 8331   1.654   0.258   1.651
 2707WAT     H1 8332   1.563   0.264   1.682
 2707WAT     H2 8333   1.677   0.165   1.661
 2708WAT      O 8334   3.051   1.200   0.378
 2708WAT     H1 8335   3.036   1.250   0.458
 2708WAT     H2 8336   3.138   1.161   0.390
 2709WAT      O 8337   1.662   1.646   1.714
 2709WAT     H1 8338   1.673   1.551   1.710
 2709WAT     H2 8339   1.578   1.662   1.672
 2710WAT      O 8340   2.464   1.467   1.871
 2710WAT     H1 8341   2.426   1.395   1.921
 2710WAT     H2 8342   2.391   1.527   1.855
 2711WAT      O 8343   2.279   1.558   0.366
 2711WAT     H1 8344   2.272   1.608   0.284
 2711WAT     H2 8345   2.190   1.525   0.381
 2712WAT      O 8346   1.822   1.087   0.449
 2712WAT     H1 8347   1.751   1.149   0.429
 2712WAT     H2 8348   1.858   1.064   0.363
 2713WAT      O 8349   2.779   0.496   1.408
 2713WAT     H1 8350   2.826   0.423   1.449
 2713WAT     H2 8351   2.693   0.497   1.450
 2714WAT      O 8352   3.124   0.415   0.501
 2714WAT     H1 8353   3.072   0.412   0.421
 2714WAT     H2 8354   3.062   0.392   0.571
 2715WAT      O 8355   2.322   0.617   0.634
 2715WAT     H1 8356   2.247   0.661   0.675
 2715WAT     H2 8357   2.352   0.555   0.699
 2716WAT      O 8358   2.465   0.764   1.437
 2716WAT     H1 8359   2.524   0.809   1.497
 2716WAT     H2 8360   2.485   0.671   1.448
 2717WAT      O 8361   2.718   0.316   0.770
 2717WAT     H1 8362   2.701   0.298   0.678
 2717WAT     H2 8363   2.813   0.309   0.778
 2718WAT      O 8364   2.425   1.813   0.708
 2718WAT     H1 8365   2.468   1.820   0.622
 2718WAT     H2 8366   2.333   1.796   0.687
 2719WAT      O 8367   2.123   0.470   0.354
 2719WAT     H1 8368   2.214   0.500   0.354
 2719WAT     H2 8369   2.103   0.455   0.447
 2720WAT      O 8370   3.199   0.384   1.531
 2720WAT     H1 8371   3.146   0.458   1.560
 2720WAT     H2 8372   3.275   0.423   1.490
 2721WAT      O 8373   3.030   0.930   0.877
 2721WAT     H1 8374   2.940   0.900   0.882
 2721WAT     H2 8375   3.082   0.857   0.910
 2722WAT      O 8376   1.902   0.843   0.291
 2722WAT     H1 8377   1.886   0.749   0.276
 2722WAT     H2 8378   1.994   0.847   0.316
 2723WAT      O 8379   3.241   1.630   1.025
 2723WAT     H1 8380   3.249   1.711   1.076
 2723WAT     H2 8381   3.330   1.614   0.992
 2724WAT      O 8382   1.985   1.847   1.004
 2724WAT     H1 8383   2.052   1.787   1.035
 2724WAT     H2 8384   2.034   1.928   0.985
 2725WAT      O 8385   1.659   1.450   0.585
 2725WAT     H1 8386   1.569   1.484   0.585
 2725WAT     H2 8387   1.713   1.525   0.560
 2726WAT      O 8388   1.888   1.741   1.929
 2726WAT     H1 8389   1.970   1.778   1.961
 2726WAT     H2 8390   1.834   1.728   2.007
 2727WAT      O 8391   2.777   1.357   1.917
 2727WAT     H1 8392   2.711   1.375   1.849
 2727WAT     H2 8393   2.737   1.290   1.972
 2728WAT      O 8394   2.905   1.737   1.764
 2728WAT     H1 8395   2.999   1.729   1.783
 2728WAT     H2 8396   2.873   1.798   1.830
 2729WAT      O 8397   3.187   1.672   0.329
 2729WAT     H1 8398   3.179   1.648   0.236
 2729WAT     H2 8399   3.182   1.768   0.329
 2730WAT      O 8400   1.660   1.018   1.812
 2730WAT     H1 8401   1.711   0.949   1.856
 2730WAT     H2 8402   1.583   1.030   1.867
 2731WAT      O 8403   2.364   1.156   1.757
 2731WAT     H1 8404   2.286   1.212   1.761
 2731WAT     H2 8405   2.366   1.123   1.667
 2732WAT      O 8406   2.671   1.187   0.228
 2732WAT     H1 8407   2.617   1.221   0.300
 2732WAT     H2 8408   2.727   1.121   0.270
 2733WAT      O 8409   3.073   1.320   1.813
 2733WAT     H1 8410   3.144   1.351   1.757
 2733WAT     H2 8411   2.994   1.362   1.777
 2734WAT      O 8412   1.842   0.821   1.895
 2734WAT     H1 8413   1.849   0.806   1.989
 2734WAT     H2 8414   1.931   0.847   1.868
 2735WAT      O 8415   2.218   1.066   0.425
 2735WAT     H1 8416   2.277   1.057   0.500
 2735WAT     H2 8417   2.236   0.989   0.371
 2736WAT      O 8418   2.049   0.677   1.697
 2736WAT     H1 8419   1.989   0.628   1.640
 2736WAT     H2 8420   2.111   0.718   1.637
 2737WAT      O 8421   2.928   1.097   1.695
 2737WAT     H1 8422   2.983   1.155   1.748
 2737WAT     H2 8423   2.840   1.131   1.706
 2738WAT      O 8424   3.001   0.850   1.865
 2738WAT     H1 8425   3.062   0.784   1.833
 2738WAT     H2 8426   3.004   0.920   1.799
 2739WAT      O 8427   2.099   0.375   1.715
 2739WAT     H1 8428   2.113   0.308   1.647
 2739WAT     H2 8429   2.019   0.420   1.688
 2740WAT      O 8430   2.382   0.259   1.422
 2740WAT     H1 8431   2.354   0.254   1.330
 2740WAT     H2 8432   2.329   0.192   1.466
 2741WAT      O 8433   2.392   1.120   1.482
 2741WAT     H1 8434   2.457   1.184   1.453
 2741WAT     H2 8435   2.316   1.135   1.426
 2742WAT      O 8436   2.646   0.878   1.608
 2742WAT     H1 8437   2.675   0.838   1.690
 2742WAT     H2 8438   2.726   0.891   1.558
 2743WAT      O 8439   2.870   0.950   1.466
 2743WAT     H1 8440   2.859   1.009   1.392
 2743WAT     H2 8441   2.909   1.004   1.535
 2744WAT      O 8442   2.214   1.758   1.588
 2744WAT     H1 8443   2.133   1.802   1.562
 2744WAT     H2 8444   2.232   1.697   1.517
 2745WAT      O 8445   2.339   0.538   1.726
 2745WAT     H1 8446   2.387   0.505   1.801
 2745WAT     H2 8447   2.257   0.489   1.725
 2746WAT      O 8448   2.820   0.509   1.770
 2746WAT     H1 8449   2.743   0.456   1.748
 2746WAT     H2 8450   2.880   0.448   1.813
 2747WAT      O 8451   2.484   1.863   1.604
 2747WAT     H1 8452   2.477   1.950   1.644
 2747WAT     H2 8453   2.394   1.830   1.603
 2748WAT      O 8454   2.533   1.795   0.379
 2748WAT     H1 8455   2.623   1.827   0.378
 2748WAT     H2 8456   2.534   1.718   0.322
 2749WAT      O 8457   1.897   1.298   0.204
 2749WAT     H1 8458   1.931   1.374   0.251
 2749WAT     H2 8459   1.975   1.254   0.169
 2750WAT      O 8460   1.626   1.600   0.945
 2750WAT     H1 8461   1.666   1.516   0.922
 2750WAT     H2 8462   1.659   1.619   1.033
 2751WAT      O 8463   2.102   1.437   0.712
 2751WAT     H1 8464   2.072   1.397   0.793
 2751WAT     H2 8465   2.084   1.371   0.644
 2752WAT      O 8466   1.672   1.692   1.202
 2752WAT     H1 8467   1.628   1.705   1.286
 2752WAT     H2 8468   1.710   1.777   1.182
 2753WAT      O 8469   3.266   1.647   1.616
 2753WAT     H1 8470   3.184   1.660   1.568
 2753WAT     H2 8471   3.266   1.555   1.640
 2754WAT      O 8472   3.300   1.073   0.416
 2754WAT     H1 8473   3.367   1.141   0.414
 2754WAT     H2 8474   3.313   1.029   0.500
 2755WAT      O 8475   1.649   0.933   0.832
 2755WAT     H1 8476   1.582   0.917   0.766
 2755WAT     H2 8477   1.732   0.918   0.787
 2756WAT      O 8478   3.420   1.176   0.936
 2756WAT     H1 8479   3.451   1.094   0.896
 2756WAT     H2 8480   3.473   1.244   0.896
 2757WAT      O 8481   3.081   1.305   1.449
 2757WAT     H1 8482   3.020   1.363   1.494
 2757WAT     H2 8483   3.130   1.362   1.390
 2758WAT      O 8484   2.965   0.417   0.278
 2758WAT     H1 8485   2.990   0.403   0.187
 2758WAT     H2 8486   2.888   0.362   0.291
 2759WAT      O 8487   3.302   0.915   0.648
 2759WAT     H1 8488   3.270   0.830   0.618
 2759WAT     H2 8489   3.227   0.955   0.692
 2760WAT      O 8490   1.771   0.971   1.296
 2760WAT     H1 8491   1.780   0.955   1.390
 2760WAT     H2 8492   1.710   0.905   1.266
 2761WAT      O 8493   3.250   0.819   1.613
 2761WAT     H1 8494   3.237   0.798   1.520
 2761WAT     H2 8495   3.253   0.915   1.615
 2762WAT      O 8496   1.708   0.675   1.697
 2762WAT     H1 8497   1.622   0.656   1.734
 2762WAT     H2 8498   1.758   0.711   1.770
 2763WAT      O 8499   3.086   0.345   1.900
 2763WAT     H1 8500   3.176   0.343   1.934
 2763WAT     H2 8501   3.088   0.289   1.823
 2764WAT      O 8502   1.570   0.658   0.407
 2764WAT     H1 8503   1.488   0.685   0.449
 2764WAT     H2 8504   1.591   0.730   0.347
 2765WAT      O 8505   3.217   0.744   0.973
 2765WAT     H1 8506   3.261   0.689   0.908
 2765WAT     H2 8507   3.288   0.779   1.027
 2766WAT      O 8508   3.244   0.739   1.331
 2766WAT     H1 8509   3.149   0.730   1.331
 2766WAT     H2 8510   3.259   0.829   1.302
 2767WAT      O 8511   1.850   0.578   0.237
 2767WAT     H1 8512   1.918   0.515   0.214
 2767WAT     H2 8513   1.777   0.557   0.178
 2768WAT      O 8514   3.220   0.662   0.582
 2768WAT     H1 8515   3.247   0.619   0.663
 2768WAT     H2 8516   3.172   0.595   0.534
 2769WAT      O 8517   3.322   0.529   0.819
 2769WAT     H1 8518   3.317   0.500   0.910
 2769WAT     H2 8519   3.407   0.496   0.788
 2770WAT      O 8520   3.423   0.380   0.427
 2770WAT     H1 8521   3.331   0.374   0.450
 2770WAT     H2 8522   3.438   0.474   0.413
 2771WAT      O 8523   3.129   1.789   0.821
 2771WAT     H1 8524   3.189   1.776   0.747
 2771WAT     H2 8525   3.153   1.720   0.883
 2772WAT      O 8526   1.892   1.434   1.816
 2772WAT     H1 8527   1.892   1.398   1.905
 2772WAT     H2 8528   1.896   1.529   1.829
 2773WAT      O 8529   2.274   1.583   1.382
 2773WAT     H1 8530   2.248   1.607   1.293
 2773WAT     H2 8531   2.370   1.582   1.380
 2774WAT      O 8532   2.486   0.221   1.768
 2774WAT     H1 8533   2.492   0.300   1.821
 2774WAT     H2 8534   2.573   0.213   1.728
 2775WAT      O 8535   3.408   1.787   1.426
 2775WAT     H1 8536   3.337   1.835   1.384
 2775WAT     H2 8537   3.365   1.738   1.496
 2776WAT      O 8538   1.882   1.726   1.548
 2776WAT     H1 8539   1.812   1.706   1.611
 2776WAT     H2 8540   1.885   1.650   1.490
 2777WAT      O 8541   2.925   0.278   1.490
 2777WAT     H1 8542   2.917   0.191   1.450
 2777WAT     H2 8543   3.019   0.295   1.491
 2778WAT      O 8544   3.159   1.864   1.191
 2778WAT     H1 8545   3.126   1.939   1.141
 2778WAT     H2 8546   3.088   1.800   1.189
 2779WAT      O 8547   1.852   1.478   1.419
 2779WAT     H1 8548   1.768   1.431   1.423
 2779WAT     H2 8549   1.871   1.484   1.326
 2780WAT      O 8550   2.218   1.679   1.114
 2780WAT     H1 8551   2.256   1.620   1.049
 2780WAT     H2 8552   2.287   1.742   1.133
 2781WAT      O 8553   2.484   1.775   1.168
 2781WAT     H1 8554   2.529   1.752   1.086
 2781WAT     H2 8555   2.518   1.712   1.232
 2782WAT      O 8556   3.054   0.226   1.070
 2782WAT     H1 8557   3.104   0.207   0.990
 2782WAT     H2 8558   3.033   0.319   1.063
 2783WAT      O 8559   1.688   1.786   0.738
 2783WAT     H1 8560   1.669   1.729   0.813
 2783WAT     H2 8561   1.602   1.808   0.703
 2784WAT      O 8562   1.737   0.193   0.506
 2784WAT     H1 8563   1.811   0.206   0.446
 2784WAT     H2 8564   1.670   0.254   0.476
 2785WAT      O 8565   2.381   0.390   0.801
 2785WAT     H1 8566   2.307   0.336   0.773
 2785WAT     H2 8567   2.457   0.334   0.790
 2786WAT      O 8568   1.820   1.658   0.496
 2786WAT     H1 8569   1.781   1.706   0.423
 2786WAT     H2 8570   1.813   1.717   0.571
 2787WAT      O 8571   2.486   1.869   1.927
 2787WAT     H1 8572   2.577   1.839   1.926
 2787WAT     H2 8573   2.486   1.949   1.875
 2788WAT      O 8574   3.315   1.811   0.618
 2788WAT     H1 8575   3.318   1.729   0.568
 2788WAT     H2 8576   3.274   1.874   0.558
 2789WAT      O 8577   2.119   1.879   0.386
 2789WAT     H1 8578   2.169   1.826   0.324
 2789WAT     H2 8579   2.130   1.836   0.470
 2790WAT      O 8580   2.013   1.479   0.385
 2790WAT     H1 8581   1.951   1.537   0.429
 2790WAT     H2 8582   2.018   1.402   0.441
 2791WAT      O 8583   3.159   1.786   1.895
 2791WAT     H1 8584   3.238   1.732   1.901
 2791WAT     H2 8585   3.173   1.857   1.957
 2792WAT      O 8586   0.882   4.627   4.612
 2792WAT     H1 8587   0.864   4.533   4.606
 2792WAT     H2 8588   0.834   4.665   4.538
 2793WAT      O 8589   0.701   4.808   4.800
 2793WAT     H1 8590   0.634   4.757   4.845
 2793WAT     H2 8591   0.770   4.745   4.780
 2794WAT      O 8592   1.104   5.234   4.669
 2794WAT     H1 8593   1.058   5.159   4.705
 2794WAT     H2 8594   1.176   5.249   4.730
 2795WAT      O 8595   0.630   5.071   4.818
 2795WAT     H1 8596   0.648   4.978   4.804
 2795WAT     H2 8597   0.697   5.099   4.880
 2796WAT      O 8598   0.742   4.358   4.823
 2796WAT     H1 8599   0.792   4.282   4.852
 2796WAT     H2 8600   0.761   4.366   4.730
 2797WAT      O 8601   1.135   4.109   4.521
 2797WAT     H1 8602   1.211   4.052   4.538
 2797WAT     H2 8603   1.137   4.173   4.592
 2798WAT      O 8604   0.356   4.509   4.814
 2798WAT     H1 8605   0.417   4.554   4.872
 2798WAT     H2 8606   0.390   4.419   4.808
 2799WAT      O 8607   1.541   4.309   5.188
 2799WAT     H1 8608   1.484   4.371   5.144
 2799WAT     H2 8609   1.586   4.360   5.256
 2800WAT      O 8610   0.814   4.966   4.380
 2800WAT     H1 8611   0.755   4.997   4.311
 2800WAT     H2 8612   0.835   5.044   4.431
 2801WAT      O 8613   0.314   4.936   5.070
 2801WAT     H1 8614   0.237   4.981   5.105
 2801WAT     H2 8615   0.331   4.979   4.986
 2802WAT      O 8616   1.166   4.282   4.801
 2802WAT     H1 8617   1.083   4.299   4.845
 2802WAT     H2 8618   1.199   4.369   4.778
 2803WAT      O 8619   1.297   5.267   5.049
 2803WAT     H1 8620   1.229   5.333   5.033
 2803WAT     H2 8621   1.354   5.272   4.972
 2804WAT      O 8622   1.443   4.237   4.853
 2804WAT     H1 8623   1.348   4.248   4.862
 2804WAT     H2 8624   1.480   4.311   4.900
 2805WAT      O 8625   0.505   3.878   4.670
 2805WAT     H1 8626   0.531   3.817   4.601
 2805WAT     H2 8627   0.410   3.889   4.657
 2806WAT      O 8628   1.200   5.112   4.416
 2806WAT     H1 8629   1.182   5.019   4.428
 2806WAT     H2 8630   1.164   5.154   4.495
 2807WAT      O 8631   1.018   4.938   5.038
 2807WAT     H1 8632   1.063   4.910   4.958
 2807WAT     H2 8633   1.087   4.968   5.096
 2808WAT      O 8634   0.749   4.691   4.373
 2808WAT     H1 8635   0.654   4.697   4.372
 2808WAT     H2 8636   0.780   4.780   4.355
 2809WAT      O 8637   0.748   4.299   4.026
 2809WAT     H1 8638   0.661   4.317   4.061
 2809WAT     H2 8639   0.792   4.384   4.028
 2810WAT      O 8640   1.391   4.775   5.048
 2810WAT     H1 8641   1.319   4.804   4.991
 2810WAT     H2 8642   1.467   4.824   5.017
 2811WAT      O 8643   1.143   4.841   4.411
 2811WAT     H1 8644   1.075   4.808   4.353
 2811WAT     H2 8645   1.141   4.782   4.487
 2812WAT      O 8646   1.096   4.458   5.138
 2812WAT     H1 8647   1.054   4.543   5.152
 2812WAT     H2 8648   1.023   4.397   5.126
 2813WAT      O 8649   0.317   4.722   4.624
 2813WAT     H1 8650   0.244   4.675   4.582
 2813WAT     H2 8651   0.333   4.674   4.705
 2814WAT      O 8652   0.360   5.072   4.840
 2814WAT     H1 8653   0.336   5.039   4.753
 2814WAT     H2 8654   0.454   5.087   4.835
 2815WAT      O 8655   0.187   4.393   5.014
 2815WAT     H1 8656   0.222   4.434   4.935
 2815WAT     H2 8657   0.218   4.449   5.085
 2816WAT      O 8658   0.269   5.090   5.498
 2816WAT     H1 8659   0.185   5.072   5.540
 2816WAT     H2 8660   0.247   5.099   5.405
 2817WAT      O 8661   0.970   4.768   4.105
 2817WAT     H1 8662   1.003   4.680   4.089
 2817WAT     H2 8663   1.048   4.824   4.102
 2818WAT      O 8664   0.758   5.246   4.498
 2818WAT     H1 8665   0.816   5.303   4.447
 2818WAT     H2 8666   0.788   5.257   4.588
 2819WAT      O 8667   0.325   5.355   5.582
 2819WAT     H1 8668   0.327   5.388   5.492
 2819WAT     H2 8669   0.319   5.260   5.572
 2820WAT      O 8670   1.322   3.870   3.939
 2820WAT     H1 8671   1.310   3.876   4.034
 2820WAT     H2 8672   1.396   3.929   3.921
 2821WAT      O 8673   1.454   5.138   5.424
 2821WAT     H1 8674   1.495   5.125   5.339
 2821WAT     H2 8675   1.459   5.052   5.466
 2822WAT      O 8676   1.014   5.318   4.089
 2822WAT     H1 8677   0.932   5.301   4.043
 2822WAT     H2 8678   1.080   5.270   4.040
 2823WAT      O 8679   1.452   4.360   5.519
 2823WAT     H1 8680   1.411   4.432   5.470
 2823WAT     H2 8681   1.388   4.289   5.516
 2824WAT      O 8682   0.235   3.962   4.704
 2824WAT     H1 8683   0.171   4.033   4.699
 2824WAT     H2 8684   0.275   3.972   4.790
 2825WAT      O 8685   0.644   4.241   5.273
 2825WAT     H1 8686   0.590   4.260   5.350
 2825WAT     H2 8687   0.607   4.160   5.238
 2826WAT      O 8688   1.165   4.333   5.378
 2826WAT     H1 8689   1.080   4.326   5.421
 2826WAT     H2 8690   1.148   4.389   5.302
 2827WAT      O 8691   0.856   4.514   5.582
 2827WAT     H1 8692   0.879   4.422   5.570
 2827WAT     H2 8693   0.936   4.555   5.615
 2828WAT      O 8694   0.531   3.921   4.201
 2828WAT     H1 8695   0.462   3.920   4.268
 2828WAT     H2 8696   0.546   3.828   4.182
 2829WAT      O 8697   0.430   4.012   4.903
 2829WAT     H1 8698   0.444   4.103   4.879
 2829WAT     H2 8699   0.477   3.962   4.837
 2830WAT      O 8700   0.910   4.464   4.341
 2830WAT     H1 8701   0.857   4.543   4.337
 2830WAT     H2 8702   0.960   4.464   4.259
 2831WAT      O 8703   0.443   4.561   5.541
 2831WAT     H1 8704   0.453   4.469   5.517
 2831WAT     H2 8705   0.531   4.598   5.532
 2832WAT      O 8706   0.810   4.341   4.562
 2832WAT     H1 8707   0.840   4.375   4.478
 2832WAT     H2 8708   0.812   4.246   4.552
 2833WAT      O 8709   0.838   4.583   4.962
 2833WAT     H1 8710   0.761   4.625   5.001
 2833WAT     H2 8711   0.803   4.505   4.919
 2834WAT      O 8712   0.487   4.261   4.796
 2834WAT     H1 8713   0.494   4.228   4.706
 2834WAT     H2 8714   0.573   4.297   4.815
 2835WAT      O 8715   0.504   4.363   4.124
 2835WAT     H1 8716   0.484   4.363   4.217
 2835WAT     H2 8717   0.466   4.444   4.091
 2836WAT      O 8718   0.885   4.141   4.909
 2836WAT     H1 8719   0.894   4.176   4.997
 2836WAT     H2 8720   0.846   4.055   4.921
 2837WAT      O 8721   0.399   4.601   4.030
 2837WAT     H1 8722   0.345   4.552   3.969
 2837WAT     H2 8723   0.467   4.641   3.976
 2838WAT      O 8724   1.204   3.840   5.486
 2838WAT     H1 8725   1.285   3.816   5.531
 2838WAT     H2 8726   1.229   3.851   5.395
 2839WAT      O 8727   0.528   4.669   4.975
 2839WAT     H1 8728   0.545   4.610   5.048
 2839WAT     H2 8729   0.475   4.740   5.013
 2840WAT      O 8730   0.306   4.570   5.193
 2840WAT     H1 8731   0.288   4.658   5.226
 2840WAT     H2 8732   0.398   4.555   5.213
 2841WAT      O 8733   1.228   4.875   4.840
 2841WAT     H1 8734   1.300   4.925   4.800
 2841WAT     H2 8735   1.199   4.816   4.771
 2842WAT      O 8736   0.775   4.036   4.252
 2842WAT     H1 8737   0.690   3.993   4.240
 2842WAT     H2 8738   0.767   4.120   4.208
 2843WAT      O 8739   0.769   4.900   5.448
 2843WAT     H1 8740   0.765   4.813   5.407
 2843WAT     H2 8741   0.688   4.907   5.498
 2844WAT      O 8742   1.045   4.459   4.098
 2844WAT     H1 8743   1.129   4.500   4.075
 2844WAT     H2 8744   1.051   4.371   4.062
 2845WAT      O 8745   0.666   5.084   4.171
 2845WAT     H1 8746   0.684   5.163   4.120
 2845WAT     H2 8747   0.576   5.096   4.202
 2846WAT      O 8748   0.218   4.701   5.612
 2846WAT     H1 8749   0.183   4.701   5.523
 2846WAT     H2 8750   0.302   4.655   5.605
 2847WAT      O 8751   0.763   5.171   5.399
 2847WAT     H1 8752   0.768   5.076   5.408
 2847WAT     H2 8753   0.691   5.196   5.457
 2848WAT      O 8754   1.270   4.604   4.034
 2848WAT     H1 8755   1.258   4.640   3.946
 2848WAT     H2 8756   1.337   4.660   4.073
 2849WAT      O 8757   1.380   4.852   5.330
 2849WAT     H1 8758   1.304   4.910   5.321
 2849WAT     H2 8759   1.412   4.839   5.241
 2850WAT      O 8760   1.391   5.271   4.297
 2850WAT     H1 8761   1.329   5.214   4.343
 2850WAT     H2 8762   1.337   5.321   4.235
 2851WAT      O 8763   0.936   5.010   4.695
 2851WAT     H1 8764   0.962   4.947   4.629
 2851WAT     H2 8765   0.848   4.983   4.721
 2852WAT      O 8766   0.525   5.084   4.443
 2852WAT     H1 8767   0.601   5.139   4.464
 2852WAT     H2 8768   0.450   5.143   4.449
 2853WAT      O 8769   0.485   4.802   4.413
 2853WAT     H1 8770   0.509   4.893   4.427
 2853WAT     H2 8771   0.433   4.778   4.490
 2854WAT      O 8772   0.686   5.344   5.120
 2854WAT     H1 8773   0.733   5.344   5.203
 2854WAT     H2 8774   0.722   5.269   5.073
 2855WAT      O 8775   0.834   5.143   4.993
 2855WAT     H1 8776   0.882   5.064   5.015
 2855WAT     H2 8777   0.899   5.201   4.953
 2856WAT      O 8778   1.206   5.161   3.958
 2856WAT     H1 8779   1.187   5.086   4.014
 2856WAT     H2 8780   1.187   5.130   3.869
 2857WAT      O 8781   1.025   5.219   5.332
 2857WAT     H1 8782   1.032   5.301   5.380
 2857WAT     H2 8783   0.932   5.196   5.339
 2858WAT      O 8784   1.175   4.957   4.137
 2858WAT     H1 8785   1.151   5.008   4.214
 2858WAT     H2 8786   1.258   4.916   4.161
 2859WAT      O 8787   0.413   5.320   4.104
 2859WAT     H1 8788   0.375   5.388   4.048
 2859WAT     H2 8789   0.338   5.271   4.137
 2860WAT      O 8790   0.903   4.251   5.160
 2860WAT     H1 8791   0.948   4.178   5.202
 2860WAT     H2 8792   0.817   4.255   5.202
 2861WAT      O 8793   1.250   4.144   4.253
 2861WAT     H1 8794   1.192   4.160   4.178
 2861WAT     H2 8795   1.191   4.145   4.329
 2862WAT      O 8796   0.686   5.301   4.002
 2862WAT     H1 8797   0.682   5.285   3.908
 2862WAT     H2 8798   0.595   5.314   4.028
 2863WAT      O 8799   0.428   4.357   4.385
 2863WAT     H1 8800   0.401   4.428   4.443
 2863WAT     H2 8801   0.471   4.294   4.442
 2864WAT      O 8802   0.588   4.519   5.193
 2864WAT     H1 8803   0.648   4.564   5.253
 2864WAT     H2 8804   0.610   4.426   5.204
 2865WAT      O 8805   0.855   4.058   4.524
 2865WAT     H1 8806   0.828   4.041   4.434
 2865WAT     H2 8807   0.950   4.068   4.519
 2866WAT      O 8808   0.254   4.217   4.129
 2866WAT     H1 8809   0.343   4.234   4.100
 2866WAT     H2 8810   0.245   4.268   4.210
 2867WAT      O 8811   1.331   4.140   5.272
 2867WAT     H1 8812   1.273   4.208   5.308
 2867WAT     H2 8813   1.408   4.189   5.242
 2868WAT      O 8814   1.153   4.686   4.634
 2868WAT     H1 8815   1.062   4.655   4.638
 2868WAT     H2 8816   1.205   4.612   4.665
 2869WAT      O 8817   1.363   5.371   4.799
 2869WAT     H1 8818   1.359   5.466   4.794
 2869WAT     H2 8819   1.446   5.349   4.756
 2870WAT      O 8820   0.468   5.022   3.906
 2870WAT     H1 8821   0.444   4.978   3.988
 2870WAT     H2 8822   0.470   4.951   3.842
 2871WAT      O 8823   0.503   4.912   5.510
 2871WAT     H1 8824   0.421   4.957   5.530
 2871WAT     H2 8825   0.494   4.885   5.418
 2872WAT      O 8826   0.785   4.928   3.976
 2872WAT     H1 8827   0.740   4.978   4.044
 2872WAT     H2 8828   0.848   4.873   4.025
 2873WAT      O 8829   1.192   5.065   5.547
 2873WAT     H1 8830   1.274   5.109   5.522
 2873WAT     H2 8831   1.124   5.113   5.501
 2874WAT      O 8832   0.367   4.844   4.161
 2874WAT     H1 8833   0.407   4.825   4.246
 2874WAT     H2 8834   0.365   4.759   4.116
 2875WAT      O 8835   0.615   4.718   3.900
 2875WAT     H1 8836   0.679   4.664   3.854
 2875WAT     H2 8837   0.663   4.797   3.926
 2876WAT      O 8838   1.051   4.849   5.445
 2876WAT     H1 8839   1.104   4.909   5.497
 2876WAT     H2 8840   0.961   4.879   5.458
 2877WAT      O 8841   1.114   4.601   5.613
 2877WAT     H1 8842   1.190   4.545   5.596
 2877WAT     H2 8843   1.123   4.672   5.550
 2878WAT      O 8844   0.512   4.004   5.161
 2878WAT     H1 8845   0.469   4.008   5.076
 2878WAT     H2 8846   0.455   3.948   5.214
 2879WAT      O 8847   0.513   4.877   5.237
 2879WAT     H1 8848   0.585   4.934   5.209
 2879WAT     H2 8849   0.441   4.898   5.177
 2880WAT      O 8850   0.770   4.636   5.360
 2880WAT     H1 8851   0.795   4.593   5.441
 2880WAT     H2 8852   0.851   4.644   5.310
 2881WAT      O 8853   0.996   4.703   5.219
 2881WAT     H1 8854   0.981   4.763   5.146
 2881WAT     H2 8855   1.031   4.758   5.289
 2882WAT      O 8856   0.260   4.421   3.879
 2882WAT     H1 8857   0.220   4.340   3.912
 2882WAT     H2 8858   0.212   4.440   3.798
 2883WAT      O 8859   0.467   4.291   5.492
 2883WAT     H1 8860   0.500   4.252   5.574
 2883WAT     H2 8861   0.378   4.257   5.484
 2884WAT      O 8862   0.937   4.257   5.522
 2884WAT     H1 8863   0.869   4.198   5.489
 2884WAT     H2 8864   0.998   4.199   5.568
 2885WAT      O 8865   0.979   3.916   4.106
 2885WAT     H1 8866   1.001   3.833   4.149
 2885WAT     H2 8867   0.910   3.954   4.160
 2886WAT      O 8868   0.463   4.044   3.956
 2886WAT     H1 8869   0.403   3.984   3.911
 2886WAT     H2 8870   0.473   4.005   4.043
 2887WAT      O 8871   0.241   5.174   4.468
 2887WAT     H1 8872   0.175   5.188   4.536
 2887WAT     H2 8873   0.205   5.104   4.413
 2888WAT      O 8874   1.366   5.395   5.393
 2888WAT     H1 8875   1.326   5.391   5.306
 2888WAT     H2 8876   1.391   5.305   5.412
 2889WAT      O 8877   1.481   5.159   3.938
 2889WAT     H1 8878   1.387   5.171   3.953
 2889WAT     H2 8879   1.511   5.244   3.906
 2890WAT      O 8880   1.423   4.836   4.174
 2890WAT     H1 8881   1.495   4.898   4.176
 2890WAT     H2 8882   1.433   4.785   4.254
 2891WAT      O 8883   1.544   4.930   4.693
 2891WAT     H1 8884   1.574   4.849   4.651
 2891WAT     H2 8885   1.596   4.999   4.651
 2892WAT      O 8886   1.208   5.057   5.201
 2892WAT     H1 8887   1.143   5.111   5.247
 2892WAT     H2 8888   1.258   5.118   5.148
 2893WAT      O 8889   1.468   4.872   3.900
 2893WAT     H1 8890   1.471   4.967   3.884
 2893WAT     H2 8891   1.428   4.864   3.986
 2894WAT      O 8892   1.093   4.168   4.026
 2894WAT     H1 8893   1.120   4.158   3.935
 2894WAT     H2 8894   1.040   4.090   4.043
 2895WAT      O 8895   1.423   4.669   4.399
 2895WAT     H1 8896   1.391   4.583   4.371
 2895WAT     H2 8897   1.348   4.709   4.444
 2896WAT      O 8898   1.371   4.576   5.367
 2896WAT     H1 8899   1.359   4.552   5.275
 2896WAT     H2 8900   1.374   4.672   5.366
 2897WAT      O 8901   1.340   4.499   4.728
 2897WAT     H1 8902   1.383   4.444   4.663
 2897WAT     H2 8903   1.412   4.534   4.781
 2898WAT      O 8904   1.367   4.495   5.088
 2898WAT     H1 8905   1.272   4.484   5.086
 2898WAT     H2 8906   1.382   4.584   5.057
 2899WAT      O 8907   1.337   4.415   4.337
 2899WAT     H1 8908   1.365   4.369   4.416
 2899WAT     H2 8909   1.288   4.350   4.287
 2900WAT      O 8910   1.447   4.289   4.573
 2900WAT     H1 8911   1.436   4.252   4.660
 2900WAT     H2 8912   1.531   4.255   4.543
 2901WAT      O 8913   1.296   3.873   5.224
 2901WAT     H1 8914   1.328   3.963   5.229
 2901WAT     H2 8915   1.291   3.854   5.130
 2902WAT      O 8916   1.528   4.045   3.903
 2902WAT     H1 8917   1.617   4.016   3.883
 2902WAT     H2 8918   1.536   4.090   3.988
 2903WAT      O 8919   1.538   4.135   4.168
 2903WAT     H1 8920   1.451   4.133   4.206
 2903WAT     H2 8921   1.563   4.227   4.168
 2904WAT      O 8922   0.404   5.339   5.148
 2904WAT     H1 8923   0.368   5.360   5.062
 2904WAT     H2 8924   0.499   5.344   5.136
 2905WAT      O 8925   0.621   3.990   5.494
 2905WAT     H1 8926   0.601   4.000   5.587
 2905WAT     H2 8927   0.716   3.984   5.490
 2906WAT      O 8928   0.897   3.972   5.480
 2906WAT     H1 8929   0.937   3.992   5.395
 2906WAT     H2 8930   0.958   3.911   5.521
 2907WAT      O 8931   0.959   3.806   5.118
 2907WAT     H1 8932   0.886   3.842   5.067
 2907WAT     H2 8933   0.918   3.742   5.177
 2908WAT      O 8934   1.036   4.030   5.251
 2908WAT     H1 8935   1.019   3.952   5.199
 2908WAT     H2 8936   1.132   4.036   5.254
 2909WAT      O 8937   0.355   5.424   4.890
 2909WAT     H1 8938   0.371   5.372   4.811
 2909WAT     H2 8939   0.404   5.505   4.875
 2910WAT      O 8940   0.729   3.903   5.001
 2910WAT     H1 8941   0.662   3.943   5.056
 2910WAT     H2 8942   0.687   3.825   4.965
 2911WAT      O 8943   1.171   3.960   4.807
 2911WAT     H1 8944   1.235   3.961   4.736
 2911WAT     H2 8945   1.151   4.052   4.823
 2912WAT      O 8946   1.349   3.944   4.604
 2912WAT     H1 8947   1.343   3.852   4.581
 2912WAT     H2 8948   1.433   3.951   4.651
 2913WAT      O 8949   0.508   4.142   4.547
 2913WAT     H1 8950   0.443   4.089   4.500
 2913WAT     H2 8951   0.574   4.079   4.575
 2914WAT      O 8952   0.960   3.809   4.681
 2914WAT     H1 8953   1.032   3.855   4.724
 2914WAT     H2 8954   0.900   3.879   4.654
 2915WAT      O 8955   1.283   3.859   4.212
 2915WAT     H1 8956   1.276   3.950   4.239
 2915WAT     H2 8957   1.199   3.821   4.236
 2916WAT      O 8958   0.333   3.972   4.399
 2916WAT     H1 8959   0.279   3.900   4.433
 2916WAT     H2 8960   0.272   4.024   4.347
 2917WAT      O 8961   0.359   3.895   5.642
 2917WAT     H1 8962   0.299   3.920   5.571
 2917WAT     H2 8963   0.361   3.799   5.638
 2918WAT      O 8964   0.882   4.627   2.734
 2918WAT     H1 8965   0.864   4.533   2.729
 2918WAT     H2 8966   0.833   4.665   2.661
 2919WAT      O 8967   0.701   4.808   2.923
 2919WAT     H1 8968   0.634   4.757   2.968
 2919WAT     H2 8969   0.770   4.745   2.903
 2920WAT      O 8970   1.106   5.233   2.790
 2920WAT     H1 8971   1.058   5.159   2.827
 2920WAT     H2 8972   1.176   5.250   2.853
 2921WAT      O 8973   0.630   5.071   2.940
 2921WAT     H1 8974   0.648   4.978   2.926
 2921WAT     H2 8975   0.697   5.100   3.002
 2922WAT      O 8976   0.742   4.358   2.946
 2922WAT     H1 8977   0.792   4.282   2.975
 2922WAT     H2 8978   0.761   4.366   2.853
 2923WAT      O 8979   1.135   4.109   2.644
 2923WAT     H1 8980   1.211   4.053   2.661
 2923WAT     H2 8981   1.136   4.173   2.715
 2924WAT      O 8982   0.356   4.508   2.937
 2924WAT     H1 8983   0.417   4.554   2.994
 2924WAT     H2 8984   0.391   4.419   2.931
 2925WAT      O 8985   1.541   4.309   3.310
 2925WAT     H1 8986   1.484   4.371   3.267
 2925WAT     H2 8987   1.587   4.360   3.377
 2926WAT      O 8988   0.814   4.965   2.503
 2926WAT     H1 8989   0.755   4.997   2.434
 2926WAT     H2 8990   0.836   5.043   2.554
 2927WAT      O 8991   0.314   4.936   3.194
 2927WAT     H1 8992   0.239   4.983   3.229
 2927WAT     H2 8993   0.332   4.978   3.109
 2928WAT      O 8994   1.165   4.282   2.923
 2928WAT     H1 8995   1.083   4.299   2.969
 2928WAT     H2 8996   1.200   4.369   2.901
 2929WAT      O 8997   1.297   5.266   3.170
 2929WAT     H1 8998   1.230   5.333   3.157
 2929WAT     H2 8999   1.353   5.272   3.093
 2930WAT      O 9000   1.443   4.237   2.975
 2930WAT     H1 9001   1.348   4.248   2.985
 2930WAT     H2 9002   1.481   4.311   3.023
 2931WAT      O 9003   0.504   3.878   2.793
 2931WAT     H1 9004   0.531   3.817   2.724
 2931WAT     H2 9005   0.410   3.889   2.780
 2932WAT      O 9006   1.200   5.112   2.539
 2932WAT     H1 9007   1.182   5.019   2.551
 2932WAT     H2 9008   1.164   5.154   2.617
 2933WAT      O 9009   1.018   4.937   3.160
 2933WAT     H1 9010   1.064   4.910   3.081
 2933WAT     H2 9011   1.087   4.968   3.219
 2934WAT      O 9012   0.749   4.691   2.495
 2934WAT     H1 9013   0.654   4.698   2.495
 2934WAT     H2 9014   0.780   4.780   2.478
 2935WAT      O 9015   0.748   4.299   2.148
 2935WAT     H1 9016   0.661   4.317   2.184
 2935WAT     H2 9017   0.793   4.384   2.151
 2936WAT      O 9018   1.391   4.773   3.168
 2936WAT     H1 9019   1.319   4.803   3.112
 2936WAT     H2 9020   1.467   4.824   3.139
 2937WAT      O 9021   1.144   4.840   2.534
 2937WAT     H1 9022   1.075   4.807   2.476
 2937WAT     H2 9023   1.141   4.782   2.609
 2938WAT      O 9024   1.095   4.459   3.260
 2938WAT     H1 9025   1.052   4.543   3.274
 2938WAT     H2 9026   1.022   4.397   3.249
 2939WAT      O 9027   0.316   4.722   2.746
 2939WAT     H1 9028   0.245   4.674   2.705
 2939WAT     H2 9029   0.333   4.674   2.828
 2940WAT      O 9030   0.359   5.071   2.962
 2940WAT     H1 9031   0.336   5.038   2.875
 2940WAT     H2 9032   0.454   5.086   2.958
 2941WAT      O 9033   0.186   4.394   3.136
 2941WAT     H1 9034   0.223   4.434   3.057
 2941WAT     H2 9035   0.217   4.450   3.208
 2942WAT      O 9036   0.264   5.094   3.620
 2942WAT     H1 9037   0.182   5.067   3.661
 2942WAT     H2 9038   0.243   5.100   3.526
 2943WAT      O 9039   0.970   4.768   2.226
 2943WAT     H1 9040   1.003   4.680   2.211
 2943WAT     H2 9041   1.048   4.824   2.225
 2944WAT      O 9042   0.758   5.247   2.621
 2944WAT     H1 9043   0.816   5.303   2.570
 2944WAT     H2 9044   0.788   5.257   2.711
 2945WAT      O 9045   0.348   5.345   3.706
 2945WAT     H1 9046   0.325   5.394   3.627
 2945WAT     H2 9047   0.316   5.257   3.690
 2946WAT      O 9048   1.322   3.870   2.061
 2946WAT     H1 9049   1.310   3.876   2.156
 2946WAT     H2 9050   1.396   3.929   2.043
 2947WAT      O 9051   1.551   5.412   3.854
 2947WAT     H1 9052   1.557   5.500   3.892
 2947WAT     H2 9053   1.584   5.422   3.765
 2948WAT      O 9054   1.446   5.136   3.546
 2948WAT     H1 9055   1.490   5.119   3.462
 2948WAT     H2 9056   1.467   5.060   3.600
 2949WAT      O 9057   1.013   5.319   2.211
 2949WAT     H1 9058   0.932   5.301   2.165
 2949WAT     H2 9059   1.080   5.271   2.162
 2950WAT      O 9060   1.446   4.363   3.650
 2950WAT     H1 9061   1.410   4.434   3.597
 2950WAT     H2 9062   1.385   4.291   3.639
 2951WAT      O 9063   0.235   3.962   2.827
 2951WAT     H1 9064   0.173   4.035   2.821
 2951WAT     H2 9065   0.275   3.971   2.913
 2952WAT      O 9066   0.643   4.242   3.395
 2952WAT     H1 9067   0.588   4.263   3.470
 2952WAT     H2 9068   0.605   4.162   3.359
 2953WAT      O 9069   1.167   4.336   3.499
 2953WAT     H1 9070   1.083   4.322   3.543
 2953WAT     H2 9071   1.146   4.389   3.423
 2954WAT      O 9072   0.858   4.518   3.715
 2954WAT     H1 9073   0.877   4.426   3.700
 2954WAT     H2 9074   0.941   4.556   3.744
 2955WAT      O 9075   0.531   3.921   2.323
 2955WAT     H1 9076   0.462   3.920   2.390
 2955WAT     H2 9077   0.547   3.828   2.304
 2956WAT      O 9078   0.431   4.012   3.026
 2956WAT     H1 9079   0.444   4.103   3.001
 2956WAT     H2 9080   0.478   3.962   2.960
 2957WAT      O 9081   0.910   4.463   2.463
 2957WAT     H1 9082   0.857   4.543   2.460
 2957WAT     H2 9083   0.960   4.464   2.382
 2958WAT      O 9084   0.439   4.564   3.651
 2958WAT     H1 9085   0.449   4.470   3.637
 2958WAT     H2 9086   0.529   4.598   3.649
 2959WAT      O 9087   0.810   4.341   2.685
 2959WAT     H1 9088   0.840   4.375   2.601
 2959WAT     H2 9089   0.812   4.246   2.675
 2960WAT      O 9090   0.616   4.196   3.805
 2960WAT     H1 9091   0.558   4.149   3.864
 2960WAT     H2 9092   0.680   4.238   3.863
 2961WAT      O 9093   0.838   4.583   3.083
 2961WAT     H1 9094   0.761   4.624   3.124
 2961WAT     H2 9095   0.803   4.505   3.041
 2962WAT      O 9096   0.487   4.261   2.919
 2962WAT     H1 9097   0.494   4.228   2.829
 2962WAT     H2 9098   0.573   4.297   2.938
 2963WAT      O 9099   0.504   4.363   2.246
 2963WAT     H1 9100   0.484   4.363   2.340
 2963WAT     H2 9101   0.466   4.444   2.214
 2964WAT      O 9102   0.884   4.142   3.032
 2964WAT     H1 9103   0.895   4.176   3.121
 2964WAT     H2 9104   0.846   4.055   3.044
 2965WAT      O 9105   0.399   4.601   2.153
 2965WAT     H1 9106   0.345   4.552   2.091
 2965WAT     H2 9107   0.467   4.641   2.099
 2966WAT      O 9108   1.223   3.880   3.610
 2966WAT     H1 9109   1.249   3.799   3.653
 2966WAT     H2 9110   1.244   3.867   3.518
 2967WAT      O 9111   0.527   4.669   3.097
 2967WAT     H1 9112   0.545   4.610   3.170
 2967WAT     H2 9113   0.475   4.739   3.136
 2968WAT      O 9114   0.305   4.571   3.315
 2968WAT     H1 9115   0.290   4.659   3.348
 2968WAT     H2 9116   0.396   4.552   3.337
 2969WAT      O 9117   1.228   4.876   2.962
 2969WAT     H1 9118   1.299   4.925   2.923
 2969WAT     H2 9119   1.199   4.816   2.893
 2970WAT      O 9120   0.775   4.036   2.375
 2970WAT     H1 9121   0.690   3.994   2.362
 2970WAT     H2 9122   0.767   4.120   2.331
 2971WAT      O 9123   0.761   4.901   3.571
 2971WAT     H1 9124   0.760   4.814   3.531
 2971WAT     H2 9125   0.681   4.904   3.624
 2972WAT      O 9126   1.045   4.459   2.221
 2972WAT     H1 9127   1.129   4.500   2.198
 2972WAT     H2 9128   1.051   4.371   2.185
 2973WAT      O 9129   0.666   5.084   2.293
 2973WAT     H1 9130   0.684   5.163   2.242
 2973WAT     H2 9131   0.577   5.096   2.325
 2974WAT      O 9132   0.213   4.701   3.725
 2974WAT     H1 9133   0.191   4.708   3.633
 2974WAT     H2 9134   0.300   4.660   3.726
 2975WAT      O 9135   0.756   5.174   3.526
 2975WAT     H1 9136   0.755   5.078   3.529
 2975WAT     H2 9137   0.689   5.200   3.588
 2976WAT      O 9138   1.270   4.604   2.156
 2976WAT     H1 9139   1.258   4.641   2.068
 2976WAT     H2 9140   1.337   4.660   2.196
 2977WAT      O 9141   1.375   4.849   3.450
 2977WAT     H1 9142   1.303   4.911   3.439
 2977WAT     H2 9143   1.411   4.838   3.363
 2978WAT      O 9144   1.391   5.270   2.419
 2978WAT     H1 9145   1.329   5.214   2.465
 2978WAT     H2 9146   1.337   5.321   2.358
 2979WAT      O 9147   0.935   5.011   2.817
 2979WAT     H1 9148   0.962   4.946   2.752
 2979WAT     H2 9149   0.848   4.983   2.844
 2980WAT      O 9150   0.525   5.084   2.565
 2980WAT     H1 9151   0.601   5.139   2.587
 2980WAT     H2 9152   0.450   5.143   2.572
 2981WAT      O 9153   0.485   4.802   2.536
 2981WAT     H1 9154   0.509   4.893   2.550
 2981WAT     H2 9155   0.434   4.779   2.613
 2982WAT      O 9156   0.685   5.343   3.242
 2982WAT     H1 9157   0.730   5.345   3.326
 2982WAT     H2 9158   0.723   5.268   3.196
 2983WAT      O 9159   0.834   5.143   3.115
 2983WAT     H1 9160   0.882   5.063   3.137
 2983WAT     H2 9161   0.899   5.201   3.078
 2984WAT      O 9162   1.206   5.161   2.081
 2984WAT     H1 9163   1.187   5.086   2.137
 2984WAT     H2 9164   1.188   5.129   1.992
 2985WAT      O 9165   1.019   5.222   3.450
 2985WAT     H1 9166   1.031   5.295   3.511
 2985WAT     H2 9167   0.927   5.197   3.460
 2986WAT      O 9168   1.175   4.957   2.260
 2986WAT     H1 9169   1.151   5.008   2.337
 2986WAT     H2 9170   1.258   4.916   2.283
 2987WAT      O 9171   0.588   5.219   3.751
 2987WAT     H1 9172   0.553   5.148   3.803
 2987WAT     H2 9173   0.514   5.278   3.736
 2988WAT      O 9174   0.413   5.320   2.226
 2988WAT     H1 9175   0.375   5.388   2.171
 2988WAT     H2 9176   0.338   5.271   2.259
 2989WAT      O 9177   0.903   4.250   3.284
 2989WAT     H1 9178   0.949   4.178   3.327
 2989WAT     H2 9179   0.818   4.254   3.327
 2990WAT      O 9180   1.250   4.144   2.375
 2990WAT     H1 9181   1.192   4.160   2.301
 2990WAT     H2 9182   1.191   4.145   2.451
 2991WAT      O 9183   0.686   5.301   2.125
 2991WAT     H1 9184   0.682   5.285   2.030
 2991WAT     H2 9185   0.595   5.314   2.151
 2992WAT      O 9186   0.427   4.357   2.507
 2992WAT     H1 9187   0.402   4.429   2.565
 2992WAT     H2 9188   0.471   4.294   2.565
 2993WAT      O 9189   0.590   4.519   3.315
 2993WAT     H1 9190   0.648   4.564   3.376
 2993WAT     H2 9191   0.610   4.426   3.326
 2994WAT      O 9192   0.855   4.058   2.646
 2994WAT     H1 9193   0.828   4.041   2.556
 2994WAT     H2 9194   0.950   4.068   2.642
 2995WAT      O 9195   0.254   4.217   2.253
 2995WAT     H1 9196   0.343   4.233   2.223
 2995WAT     H2 9197   0.246   4.269   2.333
 2996WAT      O 9198   1.330   4.140   3.393
 2996WAT     H1 9199   1.273   4.206   3.432
 2996WAT     H2 9200   1.407   4.189   3.364
 2997WAT      O 9201   1.153   4.686   2.756
 2997WAT     H1 9202   1.062   4.654   2.761
 2997WAT     H2 9203   1.205   4.612   2.787
 2998WAT      O 9204   1.363   5.371   2.922
 2998WAT     H1 9205   1.359   5.467   2.916
 2998WAT     H2 9206   1.446   5.349   2.879
 2999WAT      O 9207   0.902   5.106   3.785
 2999WAT     H1 9208   0.828   5.128   3.729
 2999WAT     H2 9209   0.866   5.046   3.850
 3000WAT      O 9210   0.468   5.022   2.028
 3000WAT     H1 9211   0.444   4.979   2.111
 3000WAT     H2 9212   0.470   4.951   1.964
 3001WAT      O 9213   0.489   4.912   3.636
 3001WAT     H1 9214   0.412   4.969   3.640
 3001WAT     H2 9215   0.493   4.884   3.544
 3002WAT      O 9216   0.785   4.928   2.099
 3002WAT     H1 9217   0.740   4.978   2.167
 3002WAT     H2 9218   0.848   4.874   2.147
 3003WAT      O 9219   1.197   5.070   3.691
 3003WAT     H1 9220   1.266   5.105   3.635
 3003WAT     H2 9221   1.117   5.111   3.658
 3004WAT      O 9222   0.366   4.843   2.284
 3004WAT     H1 9223   0.407   4.825   2.369
 3004WAT     H2 9224   0.365   4.758   2.239
 3005WAT      O 9225   0.615   4.718   2.022
 3005WAT     H1 9226   0.680   4.664   1.977
 3005WAT     H2 9227   0.663   4.797   2.049
 3006WAT      O 9228   1.050   4.853   3.570
 3006WAT     H1 9229   1.105   4.908   3.627
 3006WAT     H2 9230   0.961   4.886   3.584
 3007WAT      O 9231   1.123   4.605   3.743
 3007WAT     H1 9232   1.183   4.536   3.712
 3007WAT     H2 9233   1.128   4.673   3.676
 3008WAT      O 9234   0.510   4.005   3.286
 3008WAT     H1 9235   0.469   4.011   3.199
 3008WAT     H2 9236   0.454   3.944   3.334
 3009WAT      O 9237   0.513   4.880   3.363
 3009WAT     H1 9238   0.585   4.935   3.334
 3009WAT     H2 9239   0.442   4.899   3.302
 3010WAT      O 9240   0.770   4.635   3.486
 3010WAT     H1 9241   0.798   4.592   3.567
 3010WAT     H2 9242   0.850   4.645   3.435
 3011WAT      O 9243   0.994   4.704   3.343
 3011WAT     H1 9244   0.981   4.763   3.270
 3011WAT     H2 9245   1.031   4.759   3.412
 3012WAT      O 9246   0.260   4.421   2.002
 3012WAT     H1 9247   0.220   4.340   2.034
 3012WAT     H2 9248   0.213   4.440   1.920
 3013WAT      O 9249   0.465   4.292   3.606
 3013WAT     H1 9250   0.518   4.265   3.681
 3013WAT     H2 9251   0.381   4.249   3.621
 3014WAT      O 9252   0.944   4.258   3.650
 3014WAT     H1 9253   0.877   4.195   3.626
 3014WAT     H2 9254   1.012   4.206   3.693
 3015WAT      O 9255   0.979   3.915   2.228
 3015WAT     H1 9256   1.001   3.833   2.272
 3015WAT     H2 9257   0.910   3.954   2.283
 3016WAT      O 9258   0.462   4.044   2.079
 3016WAT     H1 9259   0.402   3.984   2.034
 3016WAT     H2 9260   0.473   4.005   2.166
 3017WAT      O 9261   0.241   5.174   2.590
 3017WAT     H1 9262   0.176   5.188   2.659
 3017WAT     H2 9263   0.205   5.104   2.537
 3018WAT      O 9264   1.382   5.398   3.508
 3018WAT     H1 9265   1.323   5.393   3.433
 3018WAT     H2 9266   1.396   5.307   3.534
 3019WAT      O 9267   1.481   5.159   2.060
 3019WAT     H1 9268   1.387   5.171   2.076
 3019WAT     H2 9269   1.511   5.244   2.029
 3020WAT      O 9270   1.423   4.836   2.297
 3020WAT     H1 9271   1.495   4.899   2.299
 3020WAT     H2 9272   1.433   4.785   2.377
 3021WAT      O 9273   1.545   4.930   2.815
 3021WAT     H1 9274   1.575   4.849   2.773
 3021WAT     H2 9275   1.596   4.999   2.774
 3022WAT      O 9276   1.206   5.057   3.325
 3022WAT     H1 9277   1.141   5.112   3.369
 3022WAT     H2 9278   1.257   5.118   3.272
 3023WAT      O 9279   1.468   4.872   2.022
 3023WAT     H1 9280   1.471   4.967   2.007
 3023WAT     H2 9281   1.428   4.864   2.109
 3024WAT      O 9282   1.093   4.168   2.149
 3024WAT     H1 9283   1.120   4.158   2.057
 3024WAT     H2 9284   1.040   4.090   2.166
 3025WAT      O 9285   1.423   4.669   2.521
 3025WAT     H1 9286   1.391   4.583   2.494
 3025WAT     H2 9287   1.348   4.709   2.567
 3026WAT      O 9288   1.373   4.574   3.491
 3026WAT     H1 9289   1.359   4.552   3.399
 3026WAT     H2 9290   1.377   4.669   3.493
 3027WAT      O 9291   1.201   4.107   3.766
 3027WAT     H1 9292   1.288   4.105   3.805
 3027WAT     H2 9293   1.202   4.036   3.701
 3028WAT      O 9294   1.340   4.499   2.850
 3028WAT     H1 9295   1.383   4.444   2.786
 3028WAT     H2 9296   1.411   4.534   2.904
 3029WAT      O 9297   1.367   4.494   3.209
 3029WAT     H1 9298   1.272   4.484   3.209
 3029WAT     H2 9299   1.381   4.584   3.179
 3030WAT      O 9300   1.336   4.415   2.460
 3030WAT     H1 9301   1.365   4.369   2.539
 3030WAT     H2 9302   1.288   4.349   2.410
 3031WAT      O 9303   1.447   4.289   2.695
 3031WAT     H1 9304   1.435   4.253   2.783
 3031WAT     H2 9305   1.532   4.255   2.666
 3032WAT      O 9306   1.298   3.871   3.341
 3032WAT     H1 9307   1.328   3.962   3.349
 3032WAT     H2 9308   1.291   3.856   3.247
 3033WAT      O 9309   1.528   4.045   2.026
 3033WAT     H1 9310   1.617   4.016   2.006
 3033WAT     H2 9311   1.536   4.089   2.110
 3034WAT      O 9312   1.538   4.135   2.290
 3034WAT     H1 9313   1.451   4.133   2.329
 3034WAT     H2 9314   1.563   4.227   2.290
 3035WAT      O 9315   0.403   5.337   3.270
 3035WAT     H1 9316   0.369   5.360   3.183
 3035WAT     H2 9317   0.498   5.344   3.260
 3036WAT      O 9318   0.621   3.971   3.642
 3036WAT     H1 9319   0.608   4.048   3.696
 3036WAT     H2 9320   0.713   3.975   3.616
 3037WAT      O 9321   0.886   3.974   3.599
 3037WAT     H1 9322   0.945   3.984   3.525
 3037WAT     H2 9323   0.935   3.920   3.662
 3038WAT      O 9324   0.959   3.806   3.240
 3038WAT     H1 9325   0.885   3.842   3.191
 3038WAT     H2 9326   0.920   3.742   3.299
 3039WAT      O 9327   1.039   4.030   3.375
 3039WAT     H1 9328   1.021   3.952   3.322
 3039WAT     H2 9329   1.135   4.035   3.377
 3040WAT      O 9330   0.354   5.424   3.012
 3040WAT     H1 9331   0.373   5.372   2.934
 3040WAT     H2 9332   0.404   5.505   2.998
 3041WAT      O 9333   0.729   3.903   3.124
 3041WAT     H1 9334   0.662   3.943   3.179
 3041WAT     H2 9335   0.686   3.825   3.088
 3042WAT      O 9336   1.170   3.960   2.929
 3042WAT     H1 9337   1.235   3.961   2.859
 3042WAT     H2 9338   1.151   4.052   2.946
 3043WAT      O 9339   1.349   3.944   2.727
 3043WAT     H1 9340   1.343   3.851   2.704
 3043WAT     H2 9341   1.433   3.951   2.774
 3044WAT      O 9342   0.508   4.142   2.670
 3044WAT     H1 9343   0.443   4.089   2.623
 3044WAT     H2 9344   0.575   4.080   2.698
 3045WAT      O 9345   0.960   3.809   2.802
 3045WAT     H1 9346   1.032   3.855   2.846
 3045WAT     H2 9347   0.900   3.880   2.776
 3046WAT      O 9348   1.283   3.859   2.334
 3046WAT     H1 9349   1.277   3.950   2.362
 3046WAT     H2 9350   1.199   3.821   2.359
 3047WAT      O 9351   0.333   3.972   2.522
 3047WAT     H1 9352   0.279   3.900   2.554
 3047WAT     H2 9353   0.273   4.025   2.469
 3048WAT      O 9354   0.329   3.888   3.771
 3048WAT     H1 9355   0.307   3.923   3.685
 3048WAT     H2 9356   0.374   3.806   3.752
 3049WAT      O 9357   0.998   3.837   3.826
 3049WAT     H1 9358   0.980   3.860   3.917
 3049WAT     H2 9359   1.091   3.859   3.814
 3050WAT      O 9360   0.882   4.627   0.857
 3050WAT     H1 9361   0.865   4.533   0.851
 3050WAT     H2 9362   0.834   4.665   0.783
 3051WAT      O 9363   0.701   4.808   1.045
 3051WAT     H1 9364   0.634   4.757   1.091
 3051WAT     H2 9365   0.770   4.745   1.026
 3052WAT      O 9366   1.108   5.232   0.910
 3052WAT     H1 9367   1.058   5.160   0.948
 3052WAT     H2 9368   1.176   5.251   0.975
 3053WAT      O 9369   0.631   5.071   1.062
 3053WAT     H1 9370   0.648   4.978   1.048
 3053WAT     H2 9371   0.697   5.100   1.125
 3054WAT      O 9372   0.742   4.358   1.068
 3054WAT     H1 9373   0.792   4.282   1.097
 3054WAT     H2 9374   0.761   4.366   0.975
 3055WAT      O 9375   1.136   4.109   0.767
 3055WAT     H1 9376   1.211   4.053   0.784
 3055WAT     H2 9377   1.137   4.173   0.839
 3056WAT      O 9378   0.356   4.508   1.059
 3056WAT     H1 9379   0.417   4.554   1.117
 3056WAT     H2 9380   0.391   4.419   1.054
 3057WAT      O 9381   1.541   4.309   1.433
 3057WAT     H1 9382   1.484   4.371   1.390
 3057WAT     H2 9383   1.587   4.360   1.500
 3058WAT      O 9384   0.812   4.966   0.624
 3058WAT     H1 9385   0.751   5.000   0.558
 3058WAT     H2 9386   0.834   5.042   0.677
 3059WAT      O 9387   0.314   4.936   1.316
 3059WAT     H1 9388   0.239   4.983   1.351
 3059WAT     H2 9389   0.332   4.978   1.232
 3060WAT      O 9390   1.165   4.282   1.045
 3060WAT     H1 9391   1.083   4.299   1.091
 3060WAT     H2 9392   1.199   4.369   1.024
 3061WAT      O 9393   1.297   5.266   1.293
 3061WAT     H1 9394   1.230   5.333   1.279
 3061WAT     H2 9395   1.352   5.272   1.215
 3062WAT      O 9396   1.443   4.237   1.097
 3062WAT     H1 9397   1.348   4.248   1.108
 3062WAT     H2 9398   1.481   4.310   1.147
 3063WAT      O 9399   0.505   3.878   0.916
 3063WAT     H1 9400   0.532   3.816   0.848
 3063WAT     H2 9401   0.410   3.889   0.902
 3064WAT      O 9402   1.198   5.115   0.660
 3064WAT     H1 9403   1.182   5.021   0.671
 3064WAT     H2 9404   1.165   5.154   0.741
 3065WAT      O 9405   1.018   4.937   1.283
 3065WAT     H1 9406   1.065   4.910   1.204
 3065WAT     H2 9407   1.086   4.968   1.342
 3066WAT      O 9408   0.749   4.691   0.618
 3066WAT     H1 9409   0.653   4.700   0.621
 3066WAT     H2 9410   0.781   4.779   0.598
 3067WAT      O 9411   0.749   4.285   0.294
 3067WAT     H1 9412   0.658   4.305   0.313
 3067WAT     H2 9413   0.787   4.368   0.267
 3068WAT      O 9414   1.391   4.773   1.290
 3068WAT     H1 9415   1.319   4.803   1.235
 3068WAT     H2 9416   1.467   4.824   1.262
 3069WAT      O 9417   1.144   4.843   0.657
 3069WAT     H1 9418   1.078   4.810   0.596
 3069WAT     H2 9419   1.140   4.783   0.731
 3070WAT      O 9420   1.095   4.459   1.383
 3070WAT     H1 9421   1.052   4.543   1.397
 3070WAT     H2 9422   1.022   4.397   1.371
 3071WAT      O 9423   0.317   4.721   0.868
 3071WAT     H1 9424   0.243   4.675   0.828
 3071WAT     H2 9425   0.333   4.674   0.950
 3072WAT      O 9426   0.360   5.071   1.085
 3072WAT     H1 9427   0.336   5.039   0.998
 3072WAT     H2 9428   0.454   5.087   1.080
 3073WAT      O 9429   0.186   4.394   1.259
 3073WAT     H1 9430   0.223   4.434   1.180
 3073WAT     H2 9431   0.218   4.450   1.330
 3074WAT      O 9432   0.264   5.094   1.742
 3074WAT     H1 9433   0.182   5.067   1.784
 3074WAT     H2 9434   0.242   5.100   1.649
 3075WAT      O 9435   0.969   4.766   0.357
 3075WAT     H1 9436   1.004   4.679   0.339
 3075WAT     H2 9437   1.044   4.824   0.349
 3076WAT      O 9438   0.759   5.247   0.743
 3076WAT     H1 9439   0.820   5.307   0.699
 3076WAT     H2 9440   0.783   5.252   0.836
 3077WAT      O 9441   0.348   5.346   1.829
 3077WAT     H1 9442   0.325   5.394   1.749
 3077WAT     H2 9443   0.316   5.257   1.813
 3078WAT      O 9444   1.322   3.890   0.180
 3078WAT     H1 9445   1.299   3.881   0.273
 3078WAT     H2 9446   1.403   3.941   0.181
 3079WAT      O 9447   1.551   5.412   1.976
 3079WAT     H1 9448   1.556   5.500   2.015
 3079WAT     H2 9449   1.584   5.423   1.887
 3080WAT      O 9450   1.446   5.136   1.668
 3080WAT     H1 9451   1.490   5.119   1.585
 3080WAT     H2 9452   1.467   5.060   1.722
 3081WAT      O 9453   1.028   5.315   0.312
 3081WAT     H1 9454   0.942   5.288   0.277
 3081WAT     H2 9455   1.082   5.236   0.303
 3082WAT      O 9456   1.446   4.363   1.773
 3082WAT     H1 9457   1.410   4.434   1.720
 3082WAT     H2 9458   1.385   4.291   1.761
 3083WAT      O 9459   0.235   3.963   0.947
 3083WAT     H1 9460   0.172   4.035   0.944
 3083WAT     H2 9461   0.276   3.970   1.034
 3084WAT      O 9462   0.643   4.242   1.517
 3084WAT     H1 9463   0.588   4.263   1.593
 3084WAT     H2 9464   0.605   4.162   1.481
 3085WAT      O 9465   1.167   4.336   1.622
 3085WAT     H1 9466   1.083   4.322   1.666
 3085WAT     H2 9467   1.146   4.389   1.545
 3086WAT      O 9468   0.858   4.518   1.837
 3086WAT     H1 9469   0.877   4.426   1.822
 3086WAT     H2 9470   0.941   4.556   1.867
 3087WAT      O 9471   0.546   3.918   0.471
 3087WAT     H1 9472   0.464   3.928   0.519
 3087WAT     H2 9473   0.538   3.833   0.426
 3088WAT      O 9474   0.430   4.012   1.149
 3088WAT     H1 9475   0.444   4.103   1.124
 3088WAT     H2 9476   0.478   3.962   1.082
 3089WAT      O 9477   0.912   4.465   0.587
 3089WAT     H1 9478   0.857   4.544   0.583
 3089WAT     H2 9479   0.959   4.464   0.504
 3090WAT      O 9480   0.439   4.564   1.773
 3090WAT     H1 9481   0.449   4.470   1.759
 3090WAT     H2 9482   0.529   4.598   1.772
 3091WAT      O 9483   0.810   4.341   0.807
 3091WAT     H1 9484   0.841   4.374   0.723
 3091WAT     H2 9485   0.812   4.246   0.797
 3092WAT      O 9486   0.616   4.196   1.928
 3092WAT     H1 9487   0.558   4.149   1.987
 3092WAT     H2 9488   0.680   4.238   1.986
 3093WAT      O 9489   0.838   4.584   1.205
 3093WAT     H1 9490   0.761   4.624   1.247
 3093WAT     H2 9491   0.803   4.505   1.163
 3094WAT      O 9492   0.486   4.261   1.041
 3094WAT     H1 9493   0.494   4.228   0.951
 3094WAT     H2 9494   0.573   4.297   1.061
 3095WAT      O 9495   0.495   4.360   0.366
 3095WAT     H1 9496   0.485   4.359   0.461
 3095WAT     H2 9497   0.464   4.446   0.339
 3096WAT      O 9498   0.885   4.142   1.154
 3096WAT     H1 9499   0.895   4.176   1.243
 3096WAT     H2 9500   0.847   4.055   1.166
 3097WAT      O 9501   0.399   4.597   0.267
 3097WAT     H1 9502   0.330   4.574   0.205
 3097WAT     H2 9503   0.464   4.644   0.214
 3098WAT      O 9504   1.223   3.880   1.733
 3098WAT     H1 9505   1.249   3.799   1.776
 3098WAT     H2 9506   1.244   3.867   1.640
 3099WAT      O 9507   0.527   4.669   1.220
 3099WAT     H1 9508   0.545   4.610   1.293
 3099WAT     H2 9509   0.474   4.739   1.258
 3100WAT      O 9510   0.305   4.571   1.437
 3100WAT     H1 9511   0.290   4.659   1.472
 3100WAT     H2 9512   0.397   4.552   1.460
 3101WAT      O 9513   1.227   4.876   1.085
 3101WAT     H1 9514   1.299   4.925   1.046
 3101WAT     H2 9515   1.199   4.816   1.015
 3102WAT      O 9516   0.780   4.044   0.502
 3102WAT     H1 9517   0.696   3.999   0.494
 3102WAT     H2 9518   0.770   4.123   0.449
 3103WAT      O 9519   0.761   4.901   1.694
 3103WAT     H1 9520   0.760   4.814   1.654
 3103WAT     H2 9521   0.681   4.904   1.746
 3104WAT      O 9522   1.046   4.462   0.343
 3104WAT     H1 9523   1.132   4.498   0.322
 3104WAT     H2 9524   1.050   4.371   0.313
 3105WAT      O 9525   0.652   5.091   0.415
 3105WAT     H1 9526   0.653   5.166   0.357
 3105WAT     H2 9527   0.565   5.091   0.454
 3106WAT      O 9528   0.213   4.700   1.848
 3106WAT     H1 9529   0.191   4.709   1.755
 3106WAT     H2 9530   0.300   4.660   1.848
 3107WAT      O 9531   0.756   5.174   1.648
 3107WAT     H1 9532   0.755   5.078   1.652
 3107WAT     H2 9533   0.689   5.201   1.711
 3108WAT      O 9534   1.274   4.607   0.282
 3108WAT     H1 9535   1.269   4.646   0.195
 3108WAT     H2 9536   1.333   4.664   0.331
 3109WAT      O 9537   1.375   4.849   1.573
 3109WAT     H1 9538   1.303   4.911   1.561
 3109WAT     H2 9539   1.411   4.838   1.486
 3110WAT      O 9540   1.392   5.269   0.541
 3110WAT     H1 9541   1.330   5.212   0.587
 3110WAT     H2 9542   1.336   5.329   0.492
 3111WAT      O 9543   0.934   5.012   0.938
 3111WAT     H1 9544   0.963   4.946   0.875
 3111WAT     H2 9545   0.848   4.982   0.967
 3112WAT      O 9546   0.525   5.084   0.689
 3112WAT     H1 9547   0.600   5.139   0.710
 3112WAT     H2 9548   0.449   5.142   0.694
 3113WAT      O 9549   0.488   4.802   0.660
 3113WAT     H1 9550   0.510   4.894   0.674
 3113WAT     H2 9551   0.435   4.778   0.736
 3114WAT      O 9552   0.685   5.344   1.364
 3114WAT     H1 9553   0.730   5.345   1.449
 3114WAT     H2 9554   0.723   5.268   1.319
 3115WAT      O 9555   0.834   5.142   1.238
 3115WAT     H1 9556   0.882   5.063   1.260
 3115WAT     H2 9557   0.900   5.202   1.203
 3116WAT      O 9558   1.019   5.223   1.572
 3116WAT     H1 9559   1.031   5.295   1.633
 3116WAT     H2 9560   0.927   5.198   1.582
 3117WAT      O 9561   1.174   4.955   0.378
 3117WAT     H1 9562   1.159   5.006   0.457
 3117WAT     H2 9563   1.261   4.916   0.391
 3118WAT      O 9564   0.588   5.219   1.873
 3118WAT     H1 9565   0.553   5.148   1.926
 3118WAT     H2 9566   0.514   5.278   1.859
 3119WAT      O 9567   0.406   5.309   0.367
 3119WAT     H1 9568   0.389   5.380   0.305
 3119WAT     H2 9569   0.319   5.277   0.391
 3120WAT      O 9570   0.903   4.250   1.406
 3120WAT     H1 9571   0.949   4.178   1.449
 3120WAT     H2 9572   0.818   4.254   1.449
 3121WAT      O 9573   1.251   4.145   0.499
 3121WAT     H1 9574   1.191   4.159   0.425
 3121WAT     H2 9575   1.194   4.142   0.576
 3122WAT      O 9576   0.432   4.361   0.631
 3122WAT     H1 9577   0.401   4.428   0.691
 3122WAT     H2 9578   0.474   4.295   0.687
 3123WAT      O 9579   0.590   4.519   1.438
 3123WAT     H1 9580   0.648   4.564   1.499
 3123WAT     H2 9581   0.611   4.426   1.449
 3124WAT      O 9582   0.856   4.057   0.770
 3124WAT     H1 9583   0.828   4.044   0.680
 3124WAT     H2 9584   0.951   4.068   0.765
 3125WAT      O 9585   0.269   4.191   0.398
 3125WAT     H1 9586   0.350   4.227   0.361
 3125WAT     H2 9587   0.234   4.262   0.452
 3126WAT      O 9588   1.330   4.140   1.515
 3126WAT     H1 9589   1.273   4.206   1.554
 3126WAT     H2 9590   1.407   4.189   1.487
 3127WAT      O 9591   1.153   4.686   0.878
 3127WAT     H1 9592   1.062   4.654   0.883
 3127WAT     H2 9593   1.205   4.612   0.910
 3128WAT      O 9594   1.363   5.371   1.044
 3128WAT     H1 9595   1.360   5.467   1.041
 3128WAT     H2 9596   1.446   5.349   1.001
 3129WAT      O 9597   0.902   5.106   1.907
 3129WAT     H1 9598   0.828   5.128   1.852
 3129WAT     H2 9599   0.867   5.046   1.973
 3130WAT      O 9600   0.489   4.912   1.758
 3130WAT     H1 9601   0.412   4.969   1.762
 3130WAT     H2 9602   0.492   4.884   1.667
 3131WAT      O 9603   0.793   4.940   0.228
 3131WAT     H1 9604   0.740   4.977   0.298
 3131WAT     H2 9605   0.849   4.875   0.271
 3132WAT      O 9606   1.197   5.070   1.814
 3132WAT     H1 9607   1.266   5.105   1.758
 3132WAT     H2 9608   1.117   5.111   1.782
 3133WAT      O 9609   0.344   4.827   0.423
 3133WAT     H1 9610   0.398   4.819   0.501
 3133WAT     H2 9611   0.359   4.746   0.374
 3134WAT      O 9612   1.050   4.854   1.692
 3134WAT     H1 9613   1.105   4.908   1.749
 3134WAT     H2 9614   0.961   4.887   1.706
 3135WAT      O 9615   1.123   4.604   1.865
 3135WAT     H1 9616   1.183   4.536   1.835
 3135WAT     H2 9617   1.128   4.673   1.798
 3136WAT      O 9618   0.509   4.005   1.408
 3136WAT     H1 9619   0.469   4.011   1.322
 3136WAT     H2 9620   0.454   3.944   1.457
 3137WAT      O 9621   0.513   4.880   1.486
 3137WAT     H1 9622   0.585   4.935   1.456
 3137WAT     H2 9623   0.442   4.899   1.425
 3138WAT      O 9624   0.770   4.635   1.609
 3138WAT     H1 9625   0.798   4.592   1.690
 3138WAT     H2 9626   0.850   4.645   1.558
 3139WAT      O 9627   0.994   4.704   1.466
 3139WAT     H1 9628   0.981   4.763   1.392
 3139WAT     H2 9629   1.031   4.759   1.535
 3140WAT      O 9630   0.465   4.292   1.729
 3140WAT     H1 9631   0.519   4.265   1.803
 3140WAT     H2 9632   0.381   4.248   1.743
 3141WAT      O 9633   0.944   4.258   1.772
 3141WAT     H1 9634   0.877   4.195   1.748
 3141WAT     H2 9635   1.012   4.206   1.816
 3142WAT      O 9636   0.992   3.930   0.373
 3142WAT     H1 9637   1.002   3.839   0.401
 3142WAT     H2 9638   0.916   3.962   0.421
 3143WAT      O 9639   0.241   5.174   0.713
 3143WAT     H1 9640   0.175   5.187   0.781
 3143WAT     H2 9641   0.205   5.103   0.659
 3144WAT      O 9642   1.382   5.398   1.631
 3144WAT     H1 9643   1.323   5.393   1.556
 3144WAT     H2 9644   1.396   5.307   1.656
 3145WAT      O 9645   1.423   4.826   0.416
 3145WAT     H1 9646   1.490   4.895   0.414
 3145WAT     H2 9647   1.436   4.783   0.500
 3146WAT      O 9648   1.544   4.930   0.937
 3146WAT     H1 9649   1.574   4.849   0.896
 3146WAT     H2 9650   1.597   4.999   0.896
 3147WAT      O 9651   1.205   5.057   1.447
 3147WAT     H1 9652   1.141   5.112   1.492
 3147WAT     H2 9653   1.257   5.118   1.394
 3148WAT      O 9654   1.091   4.170   0.277
 3148WAT     H1 9655   1.114   4.154   0.186
 3148WAT     H2 9656   1.042   4.092   0.304
 3149WAT      O 9657   1.424   4.668   0.647
 3149WAT     H1 9658   1.392   4.583   0.618
 3149WAT     H2 9659   1.349   4.708   0.691
 3150WAT      O 9660   1.373   4.574   1.613
 3150WAT     H1 9661   1.359   4.553   1.521
 3150WAT     H2 9662   1.377   4.669   1.615
 3151WAT      O 9663   1.201   4.107   1.888
 3151WAT     H1 9664   1.288   4.105   1.928
 3151WAT     H2 9665   1.202   4.036   1.824
 3152WAT      O 9666   1.340   4.500   0.973
 3152WAT     H1 9667   1.383   4.444   0.909
 3152WAT     H2 9668   1.411   4.534   1.027
 3153WAT      O 9669   1.367   4.494   1.331
 3153WAT     H1 9670   1.272   4.484   1.332
 3153WAT     H2 9671   1.381   4.584   1.302
 3154WAT      O 9672   1.343   4.413   0.579
 3154WAT     H1 9673   1.367   4.369   0.661
 3154WAT     H2 9674   1.290   4.348   0.532
 3155WAT      O 9675   1.447   4.289   0.818
 3155WAT     H1 9676   1.435   4.253   0.906
 3155WAT     H2 9677   1.531   4.254   0.789
 3156WAT      O 9678   1.298   3.871   1.464
 3156WAT     H1 9679   1.328   3.962   1.472
 3156WAT     H2 9680   1.291   3.856   1.370
 3157WAT      O 9681   1.543   4.133   0.424
 3157WAT     H1 9682   1.451   4.131   0.453
 3157WAT     H2 9683   1.561   4.226   0.410
 3158WAT      O 9684   0.403   5.337   1.392
 3158WAT     H1 9685   0.369   5.359   1.306
 3158WAT     H2 9686   0.498   5.344   1.383
 3159WAT      O 9687   0.621   3.971   1.765
 3159WAT     H1 9688   0.608   4.049   1.819
 3159WAT     H2 9689   0.713   3.975   1.739
 3160WAT      O 9690   0.886   3.973   1.722
 3160WAT     H1 9691   0.945   3.983   1.648
 3160WAT     H2 9692   0.935   3.920   1.785
 3161WAT      O 9693   0.959   3.806   1.362
 3161WAT     H1 9694   0.885   3.842   1.313
 3161WAT     H2 9695   0.920   3.742   1.421
 3162WAT      O 9696   1.039   4.030   1.497
 3162WAT     H1 9697   1.021   3.952   1.445
 3162WAT     H2 9698   1.135   4.035   1.500
 3163WAT      O 9699   0.355   5.424   1.135
 3163WAT     H1 9700   0.372   5.372   1.056
 3163WAT     H2 9701   0.403   5.505   1.121
 3164WAT      O 9702   0.729   3.903   1.246
 3164WAT     H1 9703   0.662   3.943   1.302
 3164WAT     H2 9704   0.686   3.825   1.211
 3165WAT      O 9705   1.170   3.959   1.052
 3165WAT     H1 9706   1.235   3.961   0.981
 3165WAT     H2 9707   1.150   4.052   1.068
 3166WAT      O 9708   1.350   3.944   0.850
 3166WAT     H1 9709   1.344   3.852   0.825
 3166WAT     H2 9710   1.433   3.952   0.897
 3167WAT      O 9711   0.507   4.142   0.791
 3167WAT     H1 9712   0.444   4.088   0.743
 3167WAT     H2 9713   0.575   4.081   0.818
 3168WAT      O 9714   0.959   3.809   0.924
 3168WAT     H1 9715   1.032   3.854   0.968
 3168WAT     H2 9716   0.900   3.880   0.897
 3169WAT      O 9717   1.283   3.856   0.455
 3169WAT     H1 9718   1.280   3.948   0.481
 3169WAT     H2 9719   1.196   3.822   0.475
 3170WAT      O 9720   0.330   3.970   0.639
 3170WAT     H1 9721   0.272   3.910   0.684
 3170WAT     H2 9722   0.272   4.029   0.591
 3171WAT      O 9723   0.328   3.888   1.894
 3171WAT     H1 9724   0.308   3.924   1.807
 3171WAT     H2 9725   0.374   3.806   1.875
 3172WAT      O 9726   0.998   3.837   1.948
 3172WAT     H1 9727   0.980   3.860   2.039
 3172WAT     H2 9728   1.091   3.859   1.936
 3173WAT      O 9729   0.882   2.750   4.612
 3173WAT     H1 9730   0.865   2.656   4.606
 3173WAT     H2 9731   0.834   2.788   4.538
 3174WAT      O 9732   0.700   2.930   4.800
 3174WAT     H1 9733   0.634   2.878   4.846
 3174WAT     H2 9734   0.770   2.868   4.780
 3175WAT      O 9735   1.095   3.379   4.687
 3175WAT     H1 9736   1.048   3.296   4.700
 3175WAT     H2 9737   1.178   3.368   4.733
 3176WAT      O 9738   0.718   3.599   4.667
 3176WAT     H1 9739   0.658   3.632   4.600
 3176WAT     H2 9740   0.805   3.628   4.637
 3177WAT      O 9741   0.630   3.193   4.820
 3177WAT     H1 9742   0.650   3.100   4.806
 3177WAT     H2 9743   0.698   3.224   4.879
 3178WAT      O 9744   0.742   2.481   4.823
 3178WAT     H1 9745   0.792   2.405   4.851
 3178WAT     H2 9746   0.761   2.489   4.730
 3179WAT      O 9747   1.129   2.228   4.528
 3179WAT     H1 9748   1.209   2.176   4.535
 3179WAT     H2 9749   1.140   2.298   4.592
 3180WAT      O 9750   0.357   2.631   4.813
 3180WAT     H1 9751   0.417   2.677   4.872
 3180WAT     H2 9752   0.391   2.542   4.808
 3181WAT      O 9753   1.541   2.430   5.189
 3181WAT     H1 9754   1.484   2.492   5.143
 3181WAT     H2 9755   1.588   2.483   5.253
 3182WAT      O 9756   0.813   3.090   4.380
 3182WAT     H1 9757   0.756   3.122   4.310
 3182WAT     H2 9758   0.831   3.168   4.433
 3183WAT      O 9759   0.315   3.060   5.070
 3183WAT     H1 9760   0.235   3.102   5.104
 3183WAT     H2 9761   0.331   3.104   4.986
 3184WAT      O 9762   1.167   2.406   4.803
 3184WAT     H1 9763   1.084   2.425   4.846
 3184WAT     H2 9764   1.202   2.492   4.779
 3185WAT      O 9765   1.294   3.376   5.031
 3185WAT     H1 9766   1.246   3.456   5.051
 3185WAT     H2 9767   1.347   3.399   4.954
 3186WAT      O 9768   1.444   2.356   4.854
 3186WAT     H1 9769   1.350   2.371   4.862
 3186WAT     H2 9770   1.484   2.432   4.896
 3187WAT      O 9771   0.504   1.999   4.670
 3187WAT     H1 9772   0.530   1.940   4.600
 3187WAT     H2 9773   0.410   2.012   4.658
 3188WAT      O 9774   1.064   3.575   4.899
 3188WAT     H1 9775   1.066   3.524   4.818
 3188WAT     H2 9776   0.999   3.644   4.884
 3189WAT      O 9777   1.198   3.235   4.410
 3189WAT     H1 9778   1.183   3.140   4.420
 3189WAT     H2 9779   1.168   3.272   4.493
 3190WAT      O 9780   1.019   3.059   5.038
 3190WAT     H1 9781   1.066   3.034   4.959
 3190WAT     H2 9782   1.087   3.092   5.097
 3191WAT      O 9783   0.750   2.815   4.372
 3191WAT     H1 9784   0.654   2.821   4.371
 3191WAT     H2 9785   0.780   2.904   4.356
 3192WAT      O 9786   0.747   2.423   4.024
 3192WAT     H1 9787   0.661   2.441   4.061
 3192WAT     H2 9788   0.795   2.505   4.030
 3193WAT      O 9789   1.391   2.897   5.048
 3193WAT     H1 9790   1.319   2.927   4.991
 3193WAT     H2 9791   1.467   2.946   5.017
 3194WAT      O 9792   1.140   2.966   4.411
 3194WAT     H1 9793   1.074   2.928   4.353
 3194WAT     H2 9794   1.142   2.907   4.486
 3195WAT      O 9795   1.095   2.581   5.139
 3195WAT     H1 9796   1.053   2.666   5.152
 3195WAT     H2 9797   1.022   2.521   5.126
 3196WAT      O 9798   0.316   2.845   4.624
 3196WAT     H1 9799   0.245   2.797   4.582
 3196WAT     H2 9800   0.333   2.797   4.705
 3197WAT      O 9801   0.359   3.197   4.839
 3197WAT     H1 9802   0.339   3.155   4.756
 3197WAT     H2 9803   0.454   3.211   4.836
 3198WAT      O 9804   0.187   2.516   5.014
 3198WAT     H1 9805   0.222   2.557   4.935
 3198WAT     H2 9806   0.218   2.572   5.085
 3199WAT      O 9807   1.160   3.574   5.214
 3199WAT     H1 9808   1.128   3.658   5.181
 3199WAT     H2 9809   1.083   3.517   5.214
 3200WAT      O 9810   0.271   3.214   5.496
 3200WAT     H1 9811   0.188   3.199   5.542
 3200WAT     H2 9812   0.245   3.222   5.404
 3201WAT      O 9813   0.970   2.891   4.104
 3201WAT     H1 9814   1.002   2.802   4.089
 3201WAT     H2 9815   1.050   2.945   4.100
 3202WAT      O 9816   0.766   3.363   4.494
 3202WAT     H1 9817   0.823   3.428   4.454
 3202WAT     H2 9818   0.751   3.396   4.583
 3203WAT      O 9819   0.320   3.486   5.582
 3203WAT     H1 9820   0.330   3.528   5.497
 3203WAT     H2 9821   0.321   3.392   5.562
 3204WAT      O 9822   1.450   3.262   5.423
 3204WAT     H1 9823   1.491   3.251   5.337
 3204WAT     H2 9824   1.458   3.176   5.465
 3205WAT      O 9825   0.847   3.634   5.297
 3205WAT     H1 9826   0.895   3.625   5.379
 3205WAT     H2 9827   0.763   3.672   5.322
 3206WAT      O 9828   1.038   3.681   4.236
 3206WAT     H1 9829   1.017   3.648   4.324
 3206WAT     H2 9830   1.036   3.603   4.181
 3207WAT      O 9831   0.284   3.639   4.405
 3207WAT     H1 9832   0.279   3.543   4.399
 3207WAT     H2 9833   0.199   3.665   4.439
 3208WAT      O 9834   1.009   3.455   4.077
 3208WAT     H1 9835   0.930   3.422   4.034
 3208WAT     H2 9836   1.080   3.400   4.044
 3209WAT      O 9837   0.971   3.583   4.503
 3209WAT     H1 9838   1.026   3.514   4.542
 3209WAT     H2 9839   0.997   3.663   4.549
 3210WAT      O 9840   1.452   2.484   5.519
 3210WAT     H1 9841   1.412   2.556   5.470
 3210WAT     H2 9842   1.388   2.413   5.514
 3211WAT      O 9843   0.236   2.085   4.704
 3211WAT     H1 9844   0.172   2.156   4.698
 3211WAT     H2 9845   0.275   2.094   4.790
 3212WAT      O 9846   0.644   2.363   5.273
 3212WAT     H1 9847   0.590   2.383   5.350
 3212WAT     H2 9848   0.607   2.283   5.238
 3213WAT      O 9849   1.164   2.455   5.377
 3213WAT     H1 9850   1.079   2.449   5.420
 3213WAT     H2 9851   1.150   2.512   5.302
 3214WAT      O 9852   0.855   2.637   5.583
 3214WAT     H1 9853   0.879   2.545   5.571
 3214WAT     H2 9854   0.936   2.677   5.615
 3215WAT      O 9855   0.530   2.043   4.200
 3215WAT     H1 9856   0.462   2.043   4.268
 3215WAT     H2 9857   0.546   1.951   4.182
 3216WAT      O 9858   0.431   2.134   4.903
 3216WAT     H1 9859   0.444   2.225   4.879
 3216WAT     H2 9860   0.478   2.084   4.837
 3217WAT      O 9861   0.909   2.586   4.341
 3217WAT     H1 9862   0.857   2.666   4.336
 3217WAT     H2 9863   0.960   2.585   4.261
 3218WAT      O 9864   0.443   2.683   5.542
 3218WAT     H1 9865   0.454   2.592   5.516
 3218WAT     H2 9866   0.531   2.721   5.531
 3219WAT      O 9867   0.810   2.463   4.562
 3219WAT     H1 9868   0.840   2.497   4.478
 3219WAT     H2 9869   0.812   2.368   4.552
 3220WAT      O 9870   0.838   2.705   4.962
 3220WAT     H1 9871   0.762   2.748   5.001
 3220WAT     H2 9872   0.802   2.627   4.918
 3221WAT      O 9873   0.487   2.384   4.796
 3221WAT     H1 9874   0.494   2.351   4.707
 3221WAT     H2 9875   0.573   2.419   4.815
 3222WAT      O 9876   0.503   2.485   4.124
 3222WAT     H1 9877   0.484   2.486   4.217
 3222WAT     H2 9878   0.466   2.567   4.091
 3223WAT      O 9879   0.884   2.263   4.909
 3223WAT     H1 9880   0.894   2.299   4.997
 3223WAT     H2 9881   0.845   2.177   4.922
 3224WAT      O 9882   0.399   2.724   4.030
 3224WAT     H1 9883   0.345   2.675   3.969
 3224WAT     H2 9884   0.467   2.764   3.976
 3225WAT      O 9885   1.204   1.959   5.485
 3225WAT     H1 9886   1.286   1.940   5.531
 3225WAT     H2 9887   1.230   1.973   5.394
 3226WAT      O 9888   0.527   2.792   4.975
 3226WAT     H1 9889   0.545   2.732   5.048
 3226WAT     H2 9890   0.476   2.863   5.014
 3227WAT      O 9891   0.306   2.692   5.193
 3227WAT     H1 9892   0.288   2.780   5.227
 3227WAT     H2 9893   0.398   2.677   5.212
 3228WAT      O 9894   1.228   2.998   4.840
 3228WAT     H1 9895   1.302   3.047   4.803
 3228WAT     H2 9896   1.201   2.939   4.770
 3229WAT      O 9897   0.776   2.158   4.253
 3229WAT     H1 9898   0.690   2.116   4.239
 3229WAT     H2 9899   0.769   2.242   4.208
 3230WAT      O 9900   0.769   3.020   5.450
 3230WAT     H1 9901   0.764   2.934   5.408
 3230WAT     H2 9902   0.687   3.027   5.499
 3231WAT      O 9903   1.042   2.583   4.096
 3231WAT     H1 9904   1.127   2.621   4.076
 3231WAT     H2 9905   1.049   2.492   4.067
 3232WAT      O 9906   0.664   3.209   4.170
 3232WAT     H1 9907   0.682   3.290   4.122
 3232WAT     H2 9908   0.574   3.219   4.200
 3233WAT      O 9909   0.217   2.820   5.614
 3233WAT     H1 9910   0.185   2.827   5.524
 3233WAT     H2 9911   0.301   2.775   5.606
 3234WAT      O 9912   0.761   3.289   5.397
 3234WAT     H1 9913   0.764   3.194   5.410
 3234WAT     H2 9914   0.692   3.319   5.457
 3235WAT      O 9915   1.269   2.727   4.033
 3235WAT     H1 9916   1.260   2.767   3.947
 3235WAT     H2 9917   1.337   2.778   4.076
 3236WAT      O 9918   1.379   2.975   5.331
 3236WAT     H1 9919   1.304   3.034   5.319
 3236WAT     H2 9920   1.413   2.963   5.242
 3237WAT      O 9921   1.393   3.408   4.306
 3237WAT     H1 9922   1.325   3.348   4.337
 3237WAT     H2 9923   1.356   3.445   4.225
 3238WAT      O 9924   0.944   3.139   4.688
 3238WAT     H1 9925   0.965   3.069   4.627
 3238WAT     H2 9926   0.856   3.119   4.719
 3239WAT      O 9927   0.525   3.208   4.446
 3239WAT     H1 9928   0.608   3.253   4.463
 3239WAT     H2 9929   0.460   3.278   4.443
 3240WAT      O 9930   0.485   2.925   4.413
 3240WAT     H1 9931   0.510   3.016   4.429
 3240WAT     H2 9932   0.434   2.900   4.490
 3241WAT      O 9933   0.686   3.469   5.112
 3241WAT     H1 9934   0.740   3.502   5.184
 3241WAT     H2 9935   0.731   3.389   5.084
 3242WAT      O 9936   0.838   3.267   4.992
 3242WAT     H1 9937   0.887   3.188   5.013
 3242WAT     H2 9938   0.905   3.328   4.960
 3243WAT      O 9939   1.206   3.290   3.959
 3243WAT     H1 9940   1.189   3.215   4.015
 3243WAT     H2 9941   1.186   3.260   3.870
 3244WAT      O 9942   1.020   3.351   5.340
 3244WAT     H1 9943   1.022   3.428   5.396
 3244WAT     H2 9944   0.928   3.324   5.340
 3245WAT      O 9945   1.178   3.084   4.136
 3245WAT     H1 9946   1.151   3.128   4.216
 3245WAT     H2 9947   1.259   3.039   4.159
 3246WAT      O 9948   0.405   3.432   4.129
 3246WAT     H1 9949   0.402   3.506   4.068
 3246WAT     H2 9950   0.317   3.394   4.126
 3247WAT      O 9951   0.902   2.373   5.160
 3247WAT     H1 9952   0.947   2.300   5.203
 3247WAT     H2 9953   0.817   2.377   5.203
 3248WAT      O 9954   1.235   2.301   4.255
 3248WAT     H1 9955   1.182   2.291   4.176
 3248WAT     H2 9956   1.180   2.265   4.325
 3249WAT      O 9957   0.677   3.435   4.000
 3249WAT     H1 9958   0.690   3.411   3.909
 3249WAT     H2 9959   0.583   3.423   4.015
 3250WAT      O 9960   0.427   2.480   4.385
 3250WAT     H1 9961   0.401   2.551   4.443
 3250WAT     H2 9962   0.471   2.417   4.442
 3251WAT      O 9963   0.588   2.641   5.193
 3251WAT     H1 9964   0.647   2.687   5.252
 3251WAT     H2 9965   0.611   2.549   5.203
 3252WAT      O 9966   0.854   2.177   4.525
 3252WAT     H1 9967   0.829   2.162   4.434
 3252WAT     H2 9968   0.949   2.190   4.522
 3253WAT      O 9969   0.551   3.695   4.459
 3253WAT     H1 9970   0.595   3.685   4.374
 3253WAT     H2 9971   0.459   3.676   4.441
 3254WAT      O 9972   0.254   2.340   4.129
 3254WAT     H1 9973   0.343   2.356   4.100
 3254WAT     H2 9974   0.245   2.391   4.210
 3255WAT      O 9975   1.330   2.262   5.272
 3255WAT     H1 9976   1.273   2.330   5.308
 3255WAT     H2 9977   1.407   2.310   5.242
 3256WAT      O 9978   1.154   2.808   4.632
 3256WAT     H1 9979   1.064   2.777   4.637
 3256WAT     H2 9980   1.206   2.735   4.664
 3257WAT      O 9981   1.364   3.508   4.780
 3257WAT     H1 9982   1.374   3.588   4.831
 3257WAT     H2 9983   1.452   3.491   4.745
 3258WAT      O 9984   0.405   3.620   3.936
 3258WAT     H1 9985   0.480   3.669   3.903
 3258WAT     H2 9986   0.371   3.575   3.859
 3259WAT      O 9987   1.029   3.600   5.513
 3259WAT     H1 9988   1.119   3.622   5.489
 3259WAT     H2 9989   1.011   3.653   5.590
 3260WAT      O 9990   1.316   3.553   4.088
 3260WAT     H1 9991   1.283   3.506   4.011
 3260WAT     H2 9992   1.296   3.645   4.070
 3261WAT      O 9993   0.467   3.146   3.907
 3261WAT     H1 9994   0.443   3.102   3.989
 3261WAT     H2 9995   0.470   3.075   3.842
 3262WAT      O 9996   0.502   3.032   5.510
 3262WAT     H1 9997   0.421   3.080   5.528
 3262WAT     H2 9998   0.494   3.008   5.418
 3263WAT      O 9999   0.784   3.050   3.977
 3263WAT     H110000   0.739   3.099   4.046
 3263WAT     H210001   0.847   2.996   4.024
 3264WAT      O10002   1.190   3.190   5.546
 3264WAT     H110003   1.273   3.230   5.517
 3264WAT     H210004   1.122   3.240   5.502
 3265WAT      O10005   0.368   2.967   4.161
 3265WAT     H110006   0.407   2.948   4.246
 3265WAT     H210007   0.365   2.882   4.116
 3266WAT      O10008   0.614   2.841   3.899
 3266WAT     H110009   0.679   2.786   3.855
 3266WAT     H210010   0.663   2.919   3.925
 3267WAT      O10011   1.052   2.970   5.447
 3267WAT     H110012   1.105   3.033   5.496
 3267WAT     H210013   0.962   3.001   5.459
 3268WAT      O10014   1.114   2.723   5.612
 3268WAT     H110015   1.191   2.669   5.594
 3268WAT     H210016   1.121   2.796   5.551
 3269WAT      O10017   0.512   2.126   5.161
 3269WAT     H110018   0.469   2.131   5.076
 3269WAT     H210019   0.454   2.071   5.215
 3270WAT      O10020   0.513   3.001   5.238
 3270WAT     H110021   0.586   3.057   5.210
 3270WAT     H210022   0.442   3.022   5.177
 3271WAT      O10023   0.769   2.757   5.360
 3271WAT     H110024   0.796   2.715   5.442
 3271WAT     H210025   0.851   2.768   5.311
 3272WAT      O10026   0.995   2.826   5.219
 3272WAT     H110027   0.983   2.887   5.146
 3272WAT     H210028   1.032   2.880   5.289
 3273WAT      O10029   0.260   2.544   3.879
 3273WAT     H110030   0.221   2.463   3.913
 3273WAT     H210031   0.213   2.561   3.798
 3274WAT      O10032   0.339   3.639   5.339
 3274WAT     H110033   0.259   3.680   5.304
 3274WAT     H210034   0.364   3.575   5.273
 3275WAT      O10035   0.468   2.412   5.492
 3275WAT     H110036   0.499   2.375   5.574
 3275WAT     H210037   0.378   2.380   5.484
 3276WAT      O10038   0.936   2.380   5.522
 3276WAT     H110039   0.869   2.320   5.490
 3276WAT     H210040   0.999   2.323   5.568
 3277WAT      O10041   0.981   2.037   4.103
 3277WAT     H110042   1.012   1.960   4.149
 3277WAT     H210043   0.914   2.074   4.160
 3278WAT      O10044   0.608   3.742   5.366
 3278WAT     H110045   0.600   3.830   5.403
 3278WAT     H210046   0.518   3.709   5.364
 3279WAT      O10047   0.462   2.166   3.956
 3279WAT     H110048   0.402   2.106   3.911
 3279WAT     H210049   0.474   2.128   4.043
 3280WAT      O10050   0.665   3.674   4.152
 3280WAT     H110051   0.754   3.707   4.140
 3280WAT     H210052   0.660   3.595   4.099
 3281WAT      O10053   0.225   3.324   4.459
 3281WAT     H110054   0.182   3.307   4.543
 3281WAT     H210055   0.212   3.244   4.409
 3282WAT      O10056   1.378   3.530   5.381
 3282WAT     H110057   1.301   3.537   5.325
 3282WAT     H210058   1.387   3.436   5.397
 3283WAT      O10059   1.483   3.285   3.936
 3283WAT     H110060   1.389   3.293   3.954
 3283WAT     H210061   1.509   3.370   3.901
 3284WAT      O10062   1.423   2.960   4.173
 3284WAT     H110063   1.496   3.021   4.178
 3284WAT     H210064   1.431   2.906   4.252
 3285WAT      O10065   1.541   3.054   4.689
 3285WAT     H110066   1.573   2.972   4.651
 3285WAT     H210067   1.596   3.121   4.650
 3286WAT      O10068   1.205   3.182   5.204
 3286WAT     H110069   1.144   3.240   5.248
 3286WAT     H210070   1.254   3.240   5.144
 3287WAT      O10071   1.467   2.996   3.900
 3287WAT     H110072   1.471   3.090   3.884
 3287WAT     H210073   1.428   2.988   3.987
 3288WAT      O10074   1.084   2.290   4.023
 3288WAT     H110075   1.112   2.277   3.932
 3288WAT     H210076   1.037   2.210   4.045
 3289WAT      O10077   1.419   2.794   4.394
 3289WAT     H110078   1.393   2.707   4.367
 3289WAT     H210079   1.347   2.825   4.448
 3290WAT      O10080   1.370   2.699   5.367
 3290WAT     H110081   1.361   2.674   5.275
 3290WAT     H210082   1.372   2.795   5.366
 3291WAT      O10083   1.340   2.622   4.729
 3291WAT     H110084   1.381   2.566   4.664
 3291WAT     H210085   1.413   2.658   4.780
 3292WAT      O10086   1.368   2.618   5.090
 3292WAT     H110087   1.272   2.607   5.087
 3292WAT     H210088   1.383   2.706   5.057
 3293WAT      O10089   1.340   2.538   4.336
 3293WAT     H110090   1.370   2.497   4.417
 3293WAT     H210091   1.294   2.468   4.290
 3294WAT      O10092   1.445   2.415   4.576
 3294WAT     H110093   1.436   2.375   4.662
 3294WAT     H210094   1.528   2.382   4.542
 3295WAT      O10095   1.298   1.995   5.223
 3295WAT     H110096   1.328   2.086   5.231
 3295WAT     H210097   1.292   1.980   5.129
 3296WAT      O10098   1.253   3.667   4.576
 3296WAT     H110099   1.312   3.653   4.501
 3296WAT     H210100   1.276   3.598   4.638
 3297WAT      O10101   0.405   3.471   5.141
 3297WAT     H110102   0.372   3.488   5.052
 3297WAT     H210103   0.499   3.464   5.130
 3298WAT      O10104   0.621   2.110   5.494
 3298WAT     H110105   0.601   2.123   5.587
 3298WAT     H210106   0.717   2.106   5.490
 3299WAT      O10107   0.897   2.095   5.480
 3299WAT     H110108   0.937   2.115   5.395
 3299WAT     H210109   0.959   2.034   5.522
 3300WAT      O10110   1.528   3.661   5.184
 3300WAT     H110111   1.459   3.710   5.139
 3300WAT     H210112   1.483   3.615   5.255
 3301WAT      O10113   0.959   1.927   5.117
 3301WAT     H110114   0.887   1.964   5.067
 3301WAT     H210115   0.918   1.864   5.177
 3302WAT      O10116   1.036   2.152   5.252
 3302WAT     H110117   1.020   2.074   5.198
 3302WAT     H210118   1.132   2.161   5.252
 3303WAT      O10119   1.280   3.742   4.949
 3303WAT     H110120   1.249   3.817   4.899
 3303WAT     H210121   1.210   3.678   4.943
 3304WAT      O10122   0.355   3.556   4.883
 3304WAT     H110123   0.379   3.500   4.809
 3304WAT     H210124   0.426   3.620   4.889
 3305WAT      O10125   0.617   3.659   4.923
 3305WAT     H110126   0.657   3.631   4.840
 3305WAT     H210127   0.644   3.592   4.986
 3306WAT      O10128   0.730   2.025   5.002
 3306WAT     H110129   0.663   2.066   5.056
 3306WAT     H210130   0.687   1.948   4.966
 3307WAT      O10131   1.171   2.082   4.808
 3307WAT     H110132   1.234   2.085   4.736
 3307WAT     H210133   1.148   2.173   4.824
 3308WAT      O10134   1.349   2.064   4.606
 3308WAT     H110135   1.339   1.971   4.586
 3308WAT     H210136   1.432   2.070   4.653
 3309WAT      O10137   0.507   2.265   4.547
 3309WAT     H110138   0.443   2.211   4.501
 3309WAT     H210139   0.576   2.203   4.573
 3310WAT      O10140   0.963   1.929   4.678
 3310WAT     H110141   1.034   1.977   4.723
 3310WAT     H210142   0.903   1.997   4.648
 3311WAT      O10143   0.333   2.094   4.399
 3311WAT     H110144   0.278   2.024   4.433
 3311WAT     H210145   0.273   2.148   4.347
 3312WAT      O10146   1.438   3.687   4.370
 3312WAT     H110147   1.434   3.603   4.324
 3312WAT     H210148   1.397   3.750   4.310
 3313WAT      O10149   0.358   2.017   5.642
 3313WAT     H110150   0.300   2.044   5.571
 3313WAT     H210151   0.361   1.922   5.637
 3314WAT      O10152   0.231   3.733   4.138
 3314WAT     H110153   0.289   3.707   4.066
 3314WAT     H210154   0.272   3.696   4.216
 3315WAT      O10155   0.883   2.750   2.734
 3315WAT     H110156   0.864   2.656   2.729
 3315WAT     H210157   0.834   2.788   2.661
 3316WAT      O10158   0.700   2.930   2.922
 3316WAT     H110159   0.634   2.878   2.968
 3316WAT     H210160   0.770   2.868   2.904
 3317WAT      O10161   1.096   3.378   2.805
 3317WAT     H110162   1.049   3.296   2.822
 3317WAT     H210163   1.177   3.370   2.856
 3318WAT      O10164   0.718   3.599   2.789
 3318WAT     H110165   0.658   3.632   2.723
 3318WAT     H210166   0.805   3.628   2.760
 3319WAT      O10167   0.629   3.193   2.942
 3319WAT     H110168   0.650   3.100   2.929
 3319WAT     H210169   0.698   3.224   3.001
 3320WAT      O10170   0.741   2.481   2.946
 3320WAT     H110171   0.792   2.405   2.975
 3320WAT     H210172   0.761   2.488   2.852
 3321WAT      O10173   1.136   2.231   2.643
 3321WAT     H110174   1.211   2.175   2.661
 3321WAT     H210175   1.136   2.295   2.715
 3322WAT      O10176   0.357   2.631   2.936
 3322WAT     H110177   0.417   2.676   2.994
 3322WAT     H210178   0.391   2.542   2.930
 3323WAT      O10179   1.542   2.432   3.311
 3323WAT     H110180   1.484   2.495   3.266
 3323WAT     H210181   1.590   2.486   3.375
 3324WAT      O10182   0.814   3.091   2.503
 3324WAT     H110183   0.756   3.122   2.433
 3324WAT     H210184   0.831   3.168   2.557
 3325WAT      O10185   0.315   3.060   3.193
 3325WAT     H110186   0.237   3.103   3.227
 3325WAT     H210187   0.332   3.103   3.109
 3326WAT      O10188   1.166   2.405   2.924
 3326WAT     H110189   1.083   2.421   2.969
 3326WAT     H210190   1.199   2.492   2.902
 3327WAT      O10191   1.293   3.375   3.152
 3327WAT     H110192   1.249   3.454   3.182
 3327WAT     H210193   1.343   3.403   3.075
 3328WAT      O10194   1.443   2.359   2.976
 3328WAT     H110195   1.348   2.370   2.984
 3328WAT     H210196   1.480   2.435   3.022
 3329WAT      O10197   0.504   2.001   2.793
 3329WAT     H110198   0.531   1.939   2.724
 3329WAT     H210199   0.410   2.011   2.780
 3330WAT      O10200   1.062   3.575   3.020
 3330WAT     H110201   1.063   3.527   2.937
 3330WAT     H210202   0.998   3.645   3.007
 3331WAT      O10203   1.197   3.234   2.533
 3331WAT     H110204   1.183   3.140   2.544
 3331WAT     H210205   1.167   3.273   2.615
 3332WAT      O10206   1.019   3.058   3.161
 3332WAT     H110207   1.067   3.034   3.082
 3332WAT     H210208   1.086   3.093   3.220
 3333WAT      O10209   0.750   2.814   2.495
 3333WAT     H110210   0.654   2.820   2.494
 3333WAT     H210211   0.780   2.903   2.478
 3334WAT      O10212   0.748   2.422   2.148
 3334WAT     H110213   0.661   2.440   2.184
 3334WAT     H210214   0.793   2.506   2.151
 3335WAT      O10215   1.392   2.895   3.167
 3335WAT     H110216   1.319   2.926   3.113
 3335WAT     H210217   1.467   2.947   3.139
 3336WAT      O10218   1.143   2.964   2.532
 3336WAT     H110219   1.074   2.929   2.475
 3336WAT     H210220   1.142   2.906   2.608
 3337WAT      O10221   1.095   2.581   3.261
 3337WAT     H110222   1.052   2.666   3.274
 3337WAT     H210223   1.022   2.520   3.249
 3338WAT      O10224   0.316   2.846   2.747
 3338WAT     H110225   0.245   2.797   2.705
 3338WAT     H210226   0.333   2.797   2.828
 3339WAT      O10227   0.359   3.196   2.962
 3339WAT     H110228   0.339   3.154   2.878
 3339WAT     H210229   0.454   3.211   2.959
 3340WAT      O10230   0.185   2.518   3.136
 3340WAT     H110231   0.223   2.557   3.057
 3340WAT     H210232   0.218   2.573   3.207
 3341WAT      O10233   1.164   3.570   3.332
 3341WAT     H110234   1.131   3.656   3.307
 3341WAT     H210235   1.085   3.517   3.342
 3342WAT      O10236   0.264   3.223   3.619
 3342WAT     H110237   0.185   3.192   3.664
 3342WAT     H210238   0.242   3.221   3.526
 3343WAT      O10239   0.971   2.892   2.227
 3343WAT     H110240   1.003   2.803   2.211
 3343WAT     H210241   1.049   2.947   2.223
 3344WAT      O10242   0.766   3.363   2.617
 3344WAT     H110243   0.823   3.428   2.577
 3344WAT     H210244   0.751   3.396   2.706
 3345WAT      O10245   0.345   3.479   3.705
 3345WAT     H110246   0.334   3.529   3.624
 3345WAT     H210247   0.312   3.392   3.683
 3346WAT      O10248   1.322   1.993   2.061
 3346WAT     H110249   1.310   1.999   2.156
 3346WAT     H210250   1.396   2.052   2.043
 3347WAT      O10251   1.531   3.549   3.842
 3347WAT     H110252   1.575   3.602   3.910
 3347WAT     H210253   1.589   3.555   3.766
 3348WAT      O10254   1.442   3.258   3.546
 3348WAT     H110255   1.487   3.244   3.462
 3348WAT     H210256   1.465   3.181   3.598
 3349WAT      O10257   0.850   3.633   3.419
 3349WAT     H110258   0.900   3.629   3.501
 3349WAT     H210259   0.766   3.672   3.444
 3350WAT      O10260   1.038   3.681   2.359
 3350WAT     H110261   1.018   3.648   2.446
 3350WAT     H210262   1.036   3.603   2.303
 3351WAT      O10263   0.285   3.639   2.528
 3351WAT     H110264   0.279   3.543   2.522
 3351WAT     H210265   0.200   3.665   2.563
 3352WAT      O10266   1.009   3.455   2.200
 3352WAT     H110267   0.931   3.422   2.156
 3352WAT     H210268   1.080   3.400   2.166
 3353WAT      O10269   0.972   3.582   2.625
 3353WAT     H110270   1.027   3.514   2.664
 3353WAT     H210271   0.997   3.663   2.671
 3354WAT      O10272   1.444   2.485   3.650
 3354WAT     H110273   1.414   2.561   3.600
 3354WAT     H210274   1.382   2.416   3.627
 3355WAT      O10275   0.235   2.084   2.827
 3355WAT     H110276   0.173   2.157   2.821
 3355WAT     H210277   0.275   2.093   2.913
 3356WAT      O10278   0.643   2.364   3.395
 3356WAT     H110279   0.588   2.386   3.470
 3356WAT     H210280   0.605   2.285   3.359
 3357WAT      O10281   1.167   2.458   3.500
 3357WAT     H110282   1.083   2.444   3.544
 3357WAT     H210283   1.145   2.511   3.423
 3358WAT      O10284   0.857   2.642   3.715
 3358WAT     H110285   0.876   2.549   3.700
 3358WAT     H210286   0.940   2.679   3.745
 3359WAT      O10287   0.530   2.043   2.323
 3359WAT     H110288   0.462   2.042   2.390
 3359WAT     H210289   0.547   1.951   2.304
 3360WAT      O10290   0.430   2.134   3.026
 3360WAT     H110291   0.444   2.226   3.002
 3360WAT     H210292   0.478   2.084   2.960
 3361WAT      O10293   0.910   2.586   2.463
 3361WAT     H110294   0.857   2.666   2.460
 3361WAT     H210295   0.960   2.586   2.382
 3362WAT      O10296   0.439   2.687   3.650
 3362WAT     H110297   0.449   2.593   3.637
 3362WAT     H210298   0.529   2.720   3.649
 3363WAT      O10299   0.810   2.464   2.685
 3363WAT     H110300   0.840   2.497   2.601
 3363WAT     H210301   0.812   2.369   2.676
 3364WAT      O10302   0.616   2.319   3.805
 3364WAT     H110303   0.558   2.271   3.864
 3364WAT     H210304   0.680   2.361   3.863
 3365WAT      O10305   0.838   2.706   3.083
 3365WAT     H110306   0.763   2.747   3.125
 3365WAT     H210307   0.803   2.627   3.041
 3366WAT      O10308   0.486   2.384   2.918
 3366WAT     H110309   0.494   2.350   2.829
 3366WAT     H210310   0.573   2.419   2.938
 3367WAT      O10311   0.504   2.485   2.246
 3367WAT     H110312   0.484   2.486   2.340
 3367WAT     H210313   0.466   2.567   2.214
 3368WAT      O10314   0.884   2.265   3.032
 3368WAT     H110315   0.895   2.299   3.121
 3368WAT     H210316   0.847   2.177   3.043
 3369WAT      O10317   0.399   2.724   2.153
 3369WAT     H110318   0.345   2.675   2.092
 3369WAT     H210319   0.467   2.764   2.099
 3370WAT      O10320   1.243   1.983   3.620
 3370WAT     H110321   1.280   1.897   3.640
 3370WAT     H210322   1.244   1.988   3.524
 3371WAT      O10323   0.527   2.792   3.097
 3371WAT     H110324   0.545   2.732   3.170
 3371WAT     H210325   0.475   2.862   3.136
 3372WAT      O10326   0.306   2.693   3.315
 3372WAT     H110327   0.291   2.781   3.350
 3372WAT     H210328   0.397   2.674   3.337
 3373WAT      O10329   1.227   2.997   2.963
 3373WAT     H110330   1.299   3.048   2.926
 3373WAT     H210331   1.200   2.939   2.892
 3374WAT      O10332   0.775   2.158   2.375
 3374WAT     H110333   0.690   2.116   2.362
 3374WAT     H210334   0.767   2.243   2.331
 3375WAT      O10335   0.762   3.021   3.574
 3375WAT     H110336   0.760   2.935   3.533
 3375WAT     H210337   0.681   3.024   3.625
 3376WAT      O10338   1.044   2.582   2.220
 3376WAT     H110339   1.128   2.623   2.198
 3376WAT     H210340   1.050   2.493   2.185
 3377WAT      O10341   0.664   3.209   2.292
 3377WAT     H110342   0.683   3.290   2.245
 3377WAT     H210343   0.574   3.220   2.323
 3378WAT      O10344   0.214   2.825   3.725
 3378WAT     H110345   0.191   2.830   3.632
 3378WAT     H210346   0.300   2.783   3.726
 3379WAT      O10347   0.757   3.292   3.529
 3379WAT     H110348   0.753   3.196   3.532
 3379WAT     H210349   0.689   3.320   3.590
 3380WAT      O10350   1.269   2.727   2.156
 3380WAT     H110351   1.259   2.762   2.068
 3380WAT     H210352   1.338   2.781   2.195
 3381WAT      O10353   1.374   2.971   3.451
 3381WAT     H110354   1.303   3.035   3.440
 3381WAT     H210355   1.412   2.962   3.364
 3382WAT      O10356   1.393   3.407   2.428
 3382WAT     H110357   1.325   3.348   2.460
 3382WAT     H210358   1.356   3.445   2.348
 3383WAT      O10359   0.944   3.139   2.811
 3383WAT     H110360   0.964   3.068   2.750
 3383WAT     H210361   0.856   3.119   2.843
 3384WAT      O10362   0.525   3.208   2.568
 3384WAT     H110363   0.608   3.253   2.586
 3384WAT     H210364   0.460   3.278   2.565
 3385WAT      O10365   0.485   2.925   2.536
 3385WAT     H110366   0.510   3.016   2.551
 3385WAT     H210367   0.434   2.900   2.613
 3386WAT      O10368   0.687   3.469   3.235
 3386WAT     H110369   0.740   3.503   3.306
 3386WAT     H210370   0.732   3.389   3.207
 3387WAT      O10371   0.838   3.267   3.114
 3387WAT     H110372   0.887   3.188   3.136
 3387WAT     H210373   0.905   3.330   3.085
 3388WAT      O10374   1.206   3.290   2.081
 3388WAT     H110375   1.189   3.215   2.137
 3388WAT     H210376   1.186   3.260   1.993
 3389WAT      O10377   1.017   3.353   3.461
 3389WAT     H110378   1.023   3.428   3.520
 3389WAT     H210379   0.925   3.327   3.465
 3390WAT      O10380   1.177   3.084   2.259
 3390WAT     H110381   1.151   3.129   2.339
 3390WAT     H210382   1.259   3.039   2.281
 3391WAT      O10383   0.586   3.341   3.749
 3391WAT     H110384   0.548   3.270   3.800
 3391WAT     H210385   0.514   3.402   3.734
 3392WAT      O10386   0.405   3.432   2.252
 3392WAT     H110387   0.402   3.506   2.190
 3392WAT     H210388   0.317   3.394   2.248
 3393WAT      O10389   0.904   2.372   3.284
 3393WAT     H110390   0.949   2.300   3.327
 3393WAT     H210391   0.818   2.376   3.327
 3394WAT      O10392   1.250   2.267   2.375
 3394WAT     H110393   1.192   2.282   2.301
 3394WAT     H210394   1.192   2.267   2.451
 3395WAT      O10395   0.677   3.435   2.123
 3395WAT     H110396   0.690   3.411   2.031
 3395WAT     H210397   0.583   3.423   2.138
 3396WAT      O10398   0.428   2.479   2.507
 3396WAT     H110399   0.401   2.551   2.566
 3396WAT     H210400   0.471   2.417   2.565
 3397WAT      O10401   0.590   2.641   3.315
 3397WAT     H110402   0.648   2.687   3.376
 3397WAT     H210403   0.610   2.549   3.326
 3398WAT      O10404   0.855   2.181   2.646
 3398WAT     H110405   0.828   2.164   2.556
 3398WAT     H210406   0.950   2.190   2.642
 3399WAT      O10407   0.552   3.695   2.581
 3399WAT     H110408   0.595   3.685   2.497
 3399WAT     H210409   0.459   3.677   2.563
 3400WAT      O10410   0.253   2.341   2.252
 3400WAT     H110411   0.343   2.356   2.222
 3400WAT     H210412   0.246   2.390   2.333
 3401WAT      O10413   1.341   2.266   3.406
 3401WAT     H110414   1.276   2.330   3.435
 3401WAT     H210415   1.411   2.319   3.368
 3402WAT      O10416   1.154   2.808   2.754
 3402WAT     H110417   1.063   2.778   2.760
 3402WAT     H210418   1.206   2.735   2.787
 3403WAT      O10419   1.364   3.508   2.902
 3403WAT     H110420   1.371   3.588   2.953
 3403WAT     H210421   1.452   3.492   2.869
 3404WAT      O10422   0.405   3.620   2.058
 3404WAT     H110423   0.480   3.669   2.025
 3404WAT     H210424   0.371   3.575   1.981
 3405WAT      O10425   0.898   3.236   3.796
 3405WAT     H110426   0.833   3.251   3.727
 3405WAT     H210427   0.860   3.168   3.851
 3406WAT      O10428   1.027   3.614   3.642
 3406WAT     H110429   1.121   3.606   3.659
 3406WAT     H210430   0.996   3.676   3.708
 3407WAT      O10431   1.316   3.553   2.211
 3407WAT     H110432   1.284   3.507   2.134
 3407WAT     H210433   1.297   3.645   2.193
 3408WAT      O10434   0.467   3.146   2.030
 3408WAT     H110435   0.443   3.101   2.111
 3408WAT     H210436   0.470   3.076   1.964
 3409WAT      O10437   0.489   3.035   3.636
 3409WAT     H110438   0.412   3.093   3.640
 3409WAT     H210439   0.493   3.007   3.545
 3410WAT      O10440   0.784   3.049   2.100
 3410WAT     H110441   0.739   3.099   2.168
 3410WAT     H210442   0.847   2.996   2.147
 3411WAT      O10443   1.195   3.197   3.690
 3411WAT     H110444   1.267   3.228   3.635
 3411WAT     H210445   1.117   3.240   3.654
 3412WAT      O10446   0.367   2.966   2.284
 3412WAT     H110447   0.407   2.947   2.369
 3412WAT     H210448   0.365   2.882   2.239
 3413WAT      O10449   0.614   2.840   2.022
 3413WAT     H110450   0.679   2.786   1.977
 3413WAT     H210451   0.663   2.919   2.048
 3414WAT      O10452   1.051   2.974   3.572
 3414WAT     H110453   1.106   3.032   3.625
 3414WAT     H210454   0.962   3.008   3.583
 3415WAT      O10455   1.121   2.729   3.742
 3415WAT     H110456   1.183   2.662   3.712
 3415WAT     H210457   1.125   2.797   3.676
 3416WAT      O10458   0.509   2.128   3.286
 3416WAT     H110459   0.468   2.133   3.199
 3416WAT     H210460   0.454   2.066   3.334
 3417WAT      O10461   0.513   3.004   3.364
 3417WAT     H110462   0.587   3.056   3.334
 3417WAT     H210463   0.443   3.022   3.302
 3418WAT      O10464   0.770   2.757   3.486
 3418WAT     H110465   0.798   2.715   3.567
 3418WAT     H210466   0.850   2.768   3.435
 3419WAT      O10467   0.994   2.827   3.343
 3419WAT     H110468   0.983   2.887   3.269
 3419WAT     H210469   1.032   2.881   3.413
 3420WAT      O10470   0.259   2.544   2.002
 3420WAT     H110471   0.221   2.463   2.036
 3420WAT     H210472   0.213   2.560   1.920
 3421WAT      O10473   0.334   3.635   3.466
 3421WAT     H110474   0.259   3.680   3.428
 3421WAT     H210475   0.361   3.573   3.399
 3422WAT      O10476   0.465   2.415   3.606
 3422WAT     H110477   0.518   2.388   3.681
 3422WAT     H210478   0.381   2.371   3.620
 3423WAT      O10479   0.943   2.381   3.649
 3423WAT     H110480   0.874   2.320   3.625
 3423WAT     H210481   1.008   2.327   3.696
 3424WAT      O10482   0.978   2.038   2.228
 3424WAT     H110483   1.001   1.956   2.272
 3424WAT     H210484   0.910   2.077   2.283
 3425WAT      O10485   0.607   3.743   3.478
 3425WAT     H110486   0.601   3.827   3.525
 3425WAT     H210487   0.519   3.706   3.485
 3426WAT      O10488   0.462   2.166   2.079
 3426WAT     H110489   0.403   2.107   2.034
 3426WAT     H210490   0.474   2.127   2.166
 3427WAT      O10491   0.665   3.674   2.275
 3427WAT     H110492   0.754   3.707   2.263
 3427WAT     H210493   0.661   3.595   2.222
 3428WAT      O10494   0.224   3.325   2.582
 3428WAT     H110495   0.183   3.306   2.666
 3428WAT     H210496   0.212   3.244   2.532
 3429WAT      O10497   1.389   3.525   3.494
 3429WAT     H110498   1.307   3.537   3.446
 3429WAT     H210499   1.389   3.432   3.517
 3430WAT      O10500   1.483   3.285   2.058
 3430WAT     H110501   1.389   3.294   2.076
 3430WAT     H210502   1.509   3.370   2.024
 3431WAT      O10503   1.422   2.960   2.297
 3431WAT     H110504   1.495   3.022   2.299
 3431WAT     H210505   1.433   2.908   2.376
 3432WAT      O10506   1.543   3.052   2.813
 3432WAT     H110507   1.574   2.971   2.773
 3432WAT     H210508   1.596   3.121   2.774
 3433WAT      O10509   1.204   3.182   3.326
 3433WAT     H110510   1.143   3.241   3.372
 3433WAT     H210511   1.252   3.239   3.267
 3434WAT      O10512   1.468   2.995   2.023
 3434WAT     H110513   1.472   3.089   2.006
 3434WAT     H210514   1.429   2.987   2.110
 3435WAT      O10515   1.093   2.290   2.149
 3435WAT     H110516   1.120   2.281   2.057
 3435WAT     H210517   1.040   2.212   2.166
 3436WAT      O10518   1.422   2.792   2.520
 3436WAT     H110519   1.391   2.706   2.493
 3436WAT     H210520   1.349   2.830   2.568
 3437WAT      O10521   1.377   2.696   3.491
 3437WAT     H110522   1.360   2.675   3.399
 3437WAT     H210523   1.378   2.792   3.493
 3438WAT      O10524   1.192   2.214   3.768
 3438WAT     H110525   1.280   2.235   3.800
 3438WAT     H210526   1.205   2.145   3.703
 3439WAT      O10527   1.340   2.622   2.850
 3439WAT     H110528   1.383   2.566   2.786
 3439WAT     H210529   1.411   2.657   2.904
 3440WAT      O10530   1.367   2.617   3.209
 3440WAT     H110531   1.272   2.607   3.209
 3440WAT     H210532   1.382   2.707   3.180
 3441WAT      O10533   1.336   2.537   2.460
 3441WAT     H110534   1.365   2.492   2.539
 3441WAT     H210535   1.288   2.471   2.410
 3442WAT      O10536   1.447   2.411   2.695
 3442WAT     H110537   1.435   2.374   2.783
 3442WAT     H210538   1.532   2.377   2.666
 3443WAT      O10539   1.285   2.003   3.344
 3443WAT     H110540   1.329   2.087   3.345
 3443WAT     H210541   1.290   1.974   3.253
 3444WAT      O10542   1.528   2.167   2.026
 3444WAT     H110543   1.617   2.138   2.006
 3444WAT     H210544   1.536   2.212   2.110
 3445WAT      O10545   1.538   2.257   2.290
 3445WAT     H110546   1.450   2.256   2.329
 3445WAT     H210547   1.563   2.350   2.290
 3446WAT      O10548   1.253   3.667   2.698
 3446WAT     H110549   1.312   3.652   2.624
 3446WAT     H210550   1.276   3.598   2.761
 3447WAT      O10551   0.405   3.473   3.264
 3447WAT     H110552   0.373   3.489   3.175
 3447WAT     H210553   0.500   3.465   3.254
 3448WAT      O10554   0.620   2.094   3.642
 3448WAT     H110555   0.607   2.171   3.697
 3448WAT     H210556   0.712   2.097   3.617
 3449WAT      O10557   0.885   2.096   3.599
 3449WAT     H110558   0.944   2.107   3.524
 3449WAT     H210559   0.932   2.037   3.658
 3450WAT      O10560   1.530   3.663   3.303
 3450WAT     H110561   1.460   3.714   3.263
 3450WAT     H210562   1.487   3.615   3.374
 3451WAT      O10563   0.955   1.933   3.242
 3451WAT     H110564   0.881   1.965   3.190
 3451WAT     H210565   0.917   1.865   3.298
 3452WAT      O10566   1.040   2.151   3.376
 3452WAT     H110567   1.014   2.075   3.323
 3452WAT     H210568   1.135   2.148   3.377
 3453WAT      O10569   1.282   3.741   3.068
 3453WAT     H110570   1.248   3.816   3.018
 3453WAT     H210571   1.211   3.677   3.066
 3454WAT      O10572   0.355   3.556   3.005
 3454WAT     H110573   0.379   3.500   2.931
 3454WAT     H210574   0.426   3.620   3.012
 3455WAT      O10575   0.616   3.658   3.046
 3455WAT     H110576   0.657   3.631   2.963
 3455WAT     H210577   0.644   3.592   3.109
 3456WAT      O10578   0.727   2.026   3.122
 3456WAT     H110579   0.660   2.066   3.178
 3456WAT     H210580   0.685   1.947   3.087
 3457WAT      O10581   1.168   2.082   2.928
 3457WAT     H110582   1.234   2.083   2.859
 3457WAT     H210583   1.151   2.175   2.945
 3458WAT      O10584   1.349   2.066   2.727
 3458WAT     H110585   1.342   1.974   2.705
 3458WAT     H210586   1.433   2.073   2.774
 3459WAT      O10587   0.508   2.265   2.669
 3459WAT     H110588   0.443   2.211   2.623
 3459WAT     H210589   0.575   2.203   2.698
 3460WAT      O10590   0.959   1.931   2.802
 3460WAT     H110591   1.032   1.976   2.846
 3460WAT     H210592   0.900   2.002   2.776
 3461WAT      O10593   1.283   1.981   2.334
 3461WAT     H110594   1.277   2.072   2.362
 3461WAT     H210595   1.199   1.942   2.359
 3462WAT      O10596   0.333   2.094   2.521
 3462WAT     H110597   0.279   2.022   2.555
 3462WAT     H210598   0.272   2.147   2.469
 3463WAT      O10599   0.610   3.744   3.802
 3463WAT     H110600   0.701   3.718   3.802
 3463WAT     H210601   0.609   3.828   3.755
 3464WAT      O10602   1.438   3.687   2.492
 3464WAT     H110603   1.434   3.604   2.445
 3464WAT     H210604   1.397   3.750   2.433
 3465WAT      O10605   0.328   2.010   3.771
 3465WAT     H110606   0.307   2.047   3.686
 3465WAT     H210607   0.375   1.928   3.751
 3466WAT      O10608   0.230   3.732   2.261
 3466WAT     H110609   0.288   3.707   2.189
 3466WAT     H210610   0.272   3.696   2.339
 3467WAT      O10611   1.001   1.954   3.824
 3467WAT     H110612   0.982   1.975   3.916
 3467WAT     H210613   1.087   1.994   3.808
 3468WAT      O10614   1.281   3.663   3.772
 3468WAT     H110615   1.360   3.610   3.778
 3468WAT     H210616   1.296   3.734   3.834
 3469WAT      O10617   0.883   2.750   0.857
 3469WAT     H110618   0.865   2.656   0.851
 3469WAT     H210619   0.834   2.788   0.783
 3470WAT      O10620   0.700   2.930   1.045
 3470WAT     H110621   0.634   2.878   1.091
 3470WAT     H210622   0.771   2.868   1.026
 3471WAT      O10623   1.096   3.378   0.927
 3471WAT     H110624   1.049   3.296   0.945
 3471WAT     H210625   1.177   3.370   0.979
 3472WAT      O10626   0.719   3.599   0.913
 3472WAT     H110627   0.658   3.631   0.847
 3472WAT     H210628   0.804   3.630   0.885
 3473WAT      O10629   0.630   3.193   1.065
 3473WAT     H110630   0.650   3.100   1.051
 3473WAT     H210631   0.698   3.224   1.124
 3474WAT      O10632   0.741   2.481   1.068
 3474WAT     H110633   0.792   2.405   1.097
 3474WAT     H210634   0.761   2.488   0.975
 3475WAT      O10635   1.136   2.232   0.767
 3475WAT     H110636   1.211   2.175   0.784
 3475WAT     H210637   1.137   2.296   0.838
 3476WAT      O10638   0.356   2.631   1.059
 3476WAT     H110639   0.417   2.676   1.117
 3476WAT     H210640   0.391   2.542   1.053
 3477WAT      O10641   1.542   2.431   1.432
 3477WAT     H110642   1.484   2.494   1.389
 3477WAT     H210643   1.587   2.483   1.499
 3478WAT      O10644   0.812   3.091   0.626
 3478WAT     H110645   0.754   3.123   0.557
 3478WAT     H210646   0.831   3.168   0.679
 3479WAT      O10647   0.315   3.060   1.316
 3479WAT     H110648   0.236   3.102   1.349
 3479WAT     H210649   0.332   3.103   1.232
 3480WAT      O10650   1.165   2.404   1.045
 3480WAT     H110651   1.083   2.422   1.091
 3480WAT     H210652   1.200   2.491   1.024
 3481WAT      O10653   1.293   3.375   1.274
 3481WAT     H110654   1.249   3.454   1.305
 3481WAT     H210655   1.343   3.403   1.198
 3482WAT      O10656   1.443   2.359   1.098
 3482WAT     H110657   1.348   2.370   1.107
 3482WAT     H210658   1.480   2.433   1.146
 3483WAT      O10659   0.505   2.001   0.916
 3483WAT     H110660   0.532   1.939   0.848
 3483WAT     H210661   0.410   2.011   0.903
 3484WAT      O10662   1.062   3.575   1.143
 3484WAT     H110663   1.063   3.527   1.060
 3484WAT     H210664   0.998   3.645   1.130
 3485WAT      O10665   1.197   3.236   0.654
 3485WAT     H110666   1.183   3.142   0.664
 3485WAT     H210667   1.168   3.274   0.738
 3486WAT      O10668   1.019   3.058   1.284
 3486WAT     H110669   1.067   3.034   1.205
 3486WAT     H210670   1.085   3.093   1.343
 3487WAT      O10671   0.749   2.814   0.618
 3487WAT     H110672   0.654   2.823   0.620
 3487WAT     H210673   0.781   2.902   0.599
 3488WAT      O10674   0.749   2.407   0.294
 3488WAT     H110675   0.658   2.428   0.313
 3488WAT     H210676   0.787   2.491   0.266
 3489WAT      O10677   1.391   2.894   1.290
 3489WAT     H110678   1.319   2.926   1.236
 3489WAT     H210679   1.466   2.947   1.262
 3490WAT      O10680   1.144   2.966   0.657
 3490WAT     H110681   1.079   2.932   0.596
 3490WAT     H210682   1.141   2.906   0.731
 3491WAT      O10683   1.094   2.582   1.383
 3491WAT     H110684   1.052   2.666   1.396
 3491WAT     H210685   1.022   2.520   1.371
 3492WAT      O10686   0.317   2.845   0.869
 3492WAT     H110687   0.244   2.798   0.828
 3492WAT     H210688   0.334   2.797   0.950
 3493WAT      O10689   0.359   3.196   1.085
 3493WAT     H110690   0.339   3.154   1.001
 3493WAT     H210691   0.454   3.211   1.082
 3494WAT      O10692   0.186   2.517   1.259
 3494WAT     H110693   0.222   2.557   1.180
 3494WAT     H210694   0.218   2.573   1.330
 3495WAT      O10695   1.164   3.570   1.454
 3495WAT     H110696   1.132   3.656   1.430
 3495WAT     H210697   1.085   3.517   1.464
 3496WAT      O10698   0.265   3.223   1.742
 3496WAT     H110699   0.185   3.192   1.786
 3496WAT     H210700   0.242   3.221   1.649
 3497WAT      O10701   0.969   2.889   0.357
 3497WAT     H110702   1.004   2.802   0.339
 3497WAT     H210703   1.044   2.947   0.349
 3498WAT      O10704   0.766   3.364   0.739
 3498WAT     H110705   0.825   3.430   0.703
 3498WAT     H210706   0.750   3.394   0.829
 3499WAT      O10707   0.345   3.479   1.827
 3499WAT     H110708   0.334   3.529   1.747
 3499WAT     H210709   0.312   3.392   1.806
 3500WAT      O10710   1.322   2.012   0.180
 3500WAT     H110711   1.299   2.003   0.273
 3500WAT     H210712   1.402   2.064   0.181
 3501WAT      O10713   1.531   3.549   1.965
 3501WAT     H110714   1.575   3.602   2.032
 3501WAT     H210715   1.589   3.554   1.889
 3502WAT      O10716   1.442   3.258   1.668
 3502WAT     H110717   1.486   3.244   1.584
 3502WAT     H210718   1.466   3.181   1.720
 3503WAT      O10719   0.850   3.633   1.542
 3503WAT     H110720   0.900   3.629   1.623
 3503WAT     H210721   0.766   3.672   1.566
 3504WAT      O10722   1.034   3.678   0.479
 3504WAT     H110723   1.017   3.645   0.567
 3504WAT     H210724   1.036   3.600   0.424
 3505WAT      O10725   0.281   3.645   0.651
 3505WAT     H110726   0.280   3.549   0.641
 3505WAT     H210727   0.198   3.665   0.695
 3506WAT      O10728   1.009   3.445   0.318
 3506WAT     H110729   0.943   3.397   0.268
 3506WAT     H210730   1.083   3.385   0.325
 3507WAT      O10731   0.972   3.581   0.747
 3507WAT     H110732   1.027   3.514   0.788
 3507WAT     H210733   0.997   3.662   0.791
 3508WAT      O10734   1.446   2.486   1.773
 3508WAT     H110735   1.411   2.557   1.719
 3508WAT     H210736   1.384   2.414   1.761
 3509WAT      O10737   0.235   2.085   0.947
 3509WAT     H110738   0.171   2.156   0.944
 3509WAT     H210739   0.276   2.093   1.033
 3510WAT      O10740   0.643   2.365   1.517
 3510WAT     H110741   0.588   2.386   1.593
 3510WAT     H210742   0.605   2.285   1.481
 3511WAT      O10743   1.167   2.458   1.622
 3511WAT     H110744   1.083   2.445   1.666
 3511WAT     H210745   1.146   2.512   1.545
 3512WAT      O10746   0.858   2.641   1.838
 3512WAT     H110747   0.877   2.549   1.822
 3512WAT     H210748   0.941   2.678   1.867
 3513WAT      O10749   0.546   2.040   0.471
 3513WAT     H110750   0.464   2.051   0.519
 3513WAT     H210751   0.537   1.956   0.426
 3514WAT      O10752   0.430   2.134   1.149
 3514WAT     H110753   0.444   2.225   1.124
 3514WAT     H210754   0.478   2.084   1.082
 3515WAT      O10755   0.912   2.588   0.587
 3515WAT     H110756   0.858   2.666   0.583
 3515WAT     H210757   0.959   2.587   0.504
 3516WAT      O10758   0.439   2.687   1.773
 3516WAT     H110759   0.449   2.593   1.760
 3516WAT     H210760   0.529   2.720   1.771
 3517WAT      O10761   0.810   2.463   0.807
 3517WAT     H110762   0.841   2.497   0.723
 3517WAT     H210763   0.812   2.368   0.797
 3518WAT      O10764   0.616   2.319   1.928
 3518WAT     H110765   0.558   2.271   1.987
 3518WAT     H210766   0.680   2.361   1.986
 3519WAT      O10767   0.838   2.706   1.205
 3519WAT     H110768   0.763   2.747   1.247
 3519WAT     H210769   0.803   2.628   1.163
 3520WAT      O10770   0.486   2.384   1.041
 3520WAT     H110771   0.494   2.350   0.951
 3520WAT     H210772   0.573   2.419   1.061
 3521WAT      O10773   0.495   2.482   0.366
 3521WAT     H110774   0.485   2.482   0.461
 3521WAT     H210775   0.464   2.569   0.339
 3522WAT      O10776   0.885   2.264   1.154
 3522WAT     H110777   0.895   2.299   1.243
 3522WAT     H210778   0.847   2.177   1.166
 3523WAT      O10779   0.399   2.720   0.267
 3523WAT     H110780   0.329   2.696   0.205
 3523WAT     H210781   0.464   2.765   0.214
 3524WAT      O10782   1.223   2.003   1.733
 3524WAT     H110783   1.250   1.921   1.776
 3524WAT     H210784   1.244   1.989   1.640
 3525WAT      O10785   0.527   2.792   1.220
 3525WAT     H110786   0.545   2.732   1.293
 3525WAT     H210787   0.475   2.862   1.259
 3526WAT      O10788   0.306   2.693   1.437
 3526WAT     H110789   0.291   2.781   1.473
 3526WAT     H210790   0.397   2.674   1.459
 3527WAT      O10791   1.226   2.997   1.086
 3527WAT     H110792   1.299   3.048   1.049
 3527WAT     H210793   1.200   2.939   1.014
 3528WAT      O10794   0.780   2.166   0.502
 3528WAT     H110795   0.696   2.121   0.494
 3528WAT     H210796   0.770   2.246   0.450
 3529WAT      O10797   0.761   3.021   1.697
 3529WAT     H110798   0.760   2.935   1.655
 3529WAT     H210799   0.680   3.024   1.748
 3530WAT      O10800   1.046   2.584   0.343
 3530WAT     H110801   1.132   2.621   0.322
 3530WAT     H210802   1.050   2.494   0.313
 3531WAT      O10803   0.652   3.211   0.418
 3531WAT     H110804   0.653   3.284   0.357
 3531WAT     H210805   0.563   3.212   0.454
 3532WAT      O10806   0.214   2.825   1.847
 3532WAT     H110807   0.191   2.830   1.755
 3532WAT     H210808   0.300   2.784   1.849
 3533WAT      O10809   0.757   3.292   1.652
 3533WAT     H110810   0.753   3.196   1.655
 3533WAT     H210811   0.689   3.320   1.713
 3534WAT      O10812   1.273   2.729   0.282
 3534WAT     H110813   1.270   2.767   0.194
 3534WAT     H210814   1.333   2.786   0.331
 3535WAT      O10815   1.373   2.972   1.574
 3535WAT     H110816   1.303   3.036   1.561
 3535WAT     H210817   1.413   2.963   1.487
 3536WAT      O10818   1.393   3.407   0.548
 3536WAT     H110819   1.326   3.348   0.583
 3536WAT     H210820   1.354   3.445   0.470
 3537WAT      O10821   0.944   3.139   0.933
 3537WAT     H110822   0.965   3.068   0.872
 3537WAT     H210823   0.856   3.118   0.965
 3538WAT      O10824   0.524   3.208   0.691
 3538WAT     H110825   0.607   3.253   0.708
 3538WAT     H210826   0.458   3.278   0.691
 3539WAT      O10827   0.487   2.924   0.660
 3539WAT     H110828   0.511   3.016   0.675
 3539WAT     H210829   0.435   2.900   0.736
 3540WAT      O10830   0.686   3.469   1.358
 3540WAT     H110831   0.740   3.503   1.429
 3540WAT     H210832   0.732   3.390   1.330
 3541WAT      O10833   0.838   3.267   1.236
 3541WAT     H110834   0.887   3.188   1.258
 3541WAT     H210835   0.905   3.330   1.209
 3542WAT      O10836   1.017   3.353   1.583
 3542WAT     H110837   1.024   3.428   1.642
 3542WAT     H210838   0.925   3.327   1.588
 3543WAT      O10839   1.174   3.078   0.378
 3543WAT     H110840   1.159   3.129   0.458
 3543WAT     H210841   1.260   3.039   0.390
 3544WAT      O10842   0.586   3.341   1.872
 3544WAT     H110843   0.548   3.270   1.923
 3544WAT     H210844   0.513   3.402   1.857
 3545WAT      O10845   0.399   3.430   0.368
 3545WAT     H110846   0.387   3.504   0.308
 3545WAT     H210847   0.310   3.397   0.384
 3546WAT      O10848   0.903   2.373   1.406
 3546WAT     H110849   0.949   2.300   1.449
 3546WAT     H210850   0.818   2.376   1.450
 3547WAT      O10851   1.251   2.267   0.499
 3547WAT     H110852   1.191   2.281   0.425
 3547WAT     H210853   1.194   2.265   0.576
 3548WAT      O10854   0.432   2.483   0.631
 3548WAT     H110855   0.401   2.550   0.692
 3548WAT     H210856   0.474   2.417   0.687
 3549WAT      O10857   0.590   2.642   1.438
 3549WAT     H110858   0.648   2.687   1.499
 3549WAT     H210859   0.611   2.549   1.449
 3550WAT      O10860   0.856   2.179   0.771
 3550WAT     H110861   0.828   2.167   0.680
 3550WAT     H210862   0.951   2.190   0.765
 3551WAT      O10863   0.550   3.693   0.709
 3551WAT     H110864   0.593   3.697   0.623
 3551WAT     H210865   0.458   3.677   0.689
 3552WAT      O10866   0.269   2.314   0.398
 3552WAT     H110867   0.350   2.350   0.361
 3552WAT     H210868   0.233   2.385   0.452
 3553WAT      O10869   1.330   2.262   1.515
 3553WAT     H110870   1.273   2.328   1.554
 3553WAT     H210871   1.407   2.311   1.486
 3554WAT      O10872   1.153   2.808   0.877
 3554WAT     H110873   1.063   2.777   0.882
 3554WAT     H210874   1.206   2.735   0.910
 3555WAT      O10875   1.364   3.508   1.024
 3555WAT     H110876   1.371   3.588   1.076
 3555WAT     H210877   1.452   3.492   0.992
 3556WAT      O10878   0.898   3.237   1.918
 3556WAT     H110879   0.834   3.251   1.849
 3556WAT     H210880   0.859   3.168   1.973
 3557WAT      O10881   1.027   3.615   1.764
 3557WAT     H110882   1.121   3.606   1.781
 3557WAT     H210883   0.996   3.676   1.830
 3558WAT      O10884   1.309   3.549   0.328
 3558WAT     H110885   1.303   3.525   0.236
 3558WAT     H210886   1.305   3.644   0.329
 3559WAT      O10887   0.489   3.035   1.759
 3559WAT     H110888   0.412   3.092   1.763
 3559WAT     H210889   0.493   3.007   1.667
 3560WAT      O10890   0.795   3.066   0.229
 3560WAT     H110891   0.740   3.098   0.300
 3560WAT     H210892   0.850   2.999   0.269
 3561WAT      O10893   1.195   3.197   1.813
 3561WAT     H110894   1.267   3.227   1.758
 3561WAT     H210895   1.117   3.240   1.776
 3562WAT      O10896   0.345   2.952   0.423
 3562WAT     H110897   0.398   2.941   0.502
 3562WAT     H210898   0.359   2.871   0.374
 3563WAT      O10899   1.051   2.974   1.695
 3563WAT     H110900   1.106   3.032   1.747
 3563WAT     H210901   0.963   3.009   1.705
 3564WAT      O10902   1.122   2.727   1.866
 3564WAT     H110903   1.183   2.660   1.834
 3564WAT     H210904   1.126   2.797   1.800
 3565WAT      O10905   0.510   2.128   1.408
 3565WAT     H110906   0.469   2.133   1.322
 3565WAT     H210907   0.455   2.066   1.457
 3566WAT      O10908   0.513   3.004   1.487
 3566WAT     H110909   0.587   3.056   1.456
 3566WAT     H210910   0.443   3.022   1.425
 3567WAT      O10911   0.770   2.757   1.609
 3567WAT     H110912   0.798   2.714   1.689
 3567WAT     H210913   0.850   2.768   1.558
 3568WAT      O10914   0.994   2.827   1.466
 3568WAT     H110915   0.983   2.887   1.392
 3568WAT     H210916   1.032   2.881   1.535
 3569WAT      O10917   0.334   3.635   1.589
 3569WAT     H110918   0.259   3.680   1.551
 3569WAT     H210919   0.361   3.573   1.522
 3570WAT      O10920   0.465   2.415   1.729
 3570WAT     H110921   0.518   2.388   1.803
 3570WAT     H210922   0.381   2.370   1.742
 3571WAT      O10923   0.944   2.381   1.772
 3571WAT     H110924   0.877   2.317   1.748
 3571WAT     H210925   1.012   2.329   1.816
 3572WAT      O10926   0.992   2.052   0.373
 3572WAT     H110927   1.002   1.961   0.401
 3572WAT     H210928   0.916   2.084   0.421
 3573WAT      O10929   0.607   3.743   1.601
 3573WAT     H110930   0.601   3.827   1.648
 3573WAT     H210931   0.519   3.706   1.608
 3574WAT      O10932   0.654   3.670   0.377
 3574WAT     H110933   0.743   3.704   0.380
 3574WAT     H210934   0.659   3.594   0.320
 3575WAT      O10935   0.225   3.323   0.704
 3575WAT     H110936   0.182   3.307   0.788
 3575WAT     H210937   0.212   3.243   0.654
 3576WAT      O10938   1.388   3.524   1.616
 3576WAT     H110939   1.306   3.537   1.568
 3576WAT     H210940   1.388   3.432   1.640
 3577WAT      O10941   1.422   2.950   0.416
 3577WAT     H110942   1.489   3.019   0.414
 3577WAT     H210943   1.436   2.906   0.500
 3578WAT      O10944   1.542   3.053   0.936
 3578WAT     H110945   1.574   2.971   0.896
 3578WAT     H210946   1.596   3.121   0.896
 3579WAT      O10947   1.204   3.182   1.449
 3579WAT     H110948   1.143   3.241   1.494
 3579WAT     H210949   1.252   3.239   1.389
 3580WAT      O10950   1.091   2.293   0.277
 3580WAT     H110951   1.113   2.277   0.186
 3580WAT     H210952   1.042   2.214   0.304
 3581WAT      O10953   1.425   2.791   0.647
 3581WAT     H110954   1.392   2.706   0.617
 3581WAT     H210955   1.350   2.831   0.692
 3582WAT      O10956   1.373   2.697   1.613
 3582WAT     H110957   1.359   2.675   1.521
 3582WAT     H210958   1.377   2.792   1.615
 3583WAT      O10959   1.201   2.230   1.888
 3583WAT     H110960   1.288   2.228   1.928
 3583WAT     H210961   1.202   2.159   1.824
 3584WAT      O10962   1.340   2.622   0.973
 3584WAT     H110963   1.384   2.567   0.909
 3584WAT     H210964   1.410   2.657   1.027
 3585WAT      O10965   1.367   2.617   1.331
 3585WAT     H110966   1.272   2.607   1.331
 3585WAT     H210967   1.382   2.707   1.302
 3586WAT      O10968   1.343   2.535   0.579
 3586WAT     H110969   1.367   2.492   0.661
 3586WAT     H210970   1.291   2.471   0.532
 3587WAT      O10971   1.447   2.412   0.818
 3587WAT     H110972   1.435   2.376   0.906
 3587WAT     H210973   1.531   2.376   0.789
 3588WAT      O10974   1.298   1.994   1.464
 3588WAT     H110975   1.328   2.084   1.472
 3588WAT     H210976   1.291   1.979   1.370
 3589WAT      O10977   1.542   2.255   0.424
 3589WAT     H110978   1.451   2.254   0.453
 3589WAT     H210979   1.561   2.348   0.410
 3590WAT      O10980   1.251   3.666   0.820
 3590WAT     H110981   1.311   3.653   0.747
 3590WAT     H210982   1.276   3.598   0.883
 3591WAT      O10983   0.405   3.473   1.387
 3591WAT     H110984   0.373   3.489   1.298
 3591WAT     H210985   0.500   3.465   1.377
 3592WAT      O10986   0.621   2.093   1.765
 3592WAT     H110987   0.608   2.171   1.819
 3592WAT     H210988   0.713   2.097   1.739
 3593WAT      O10989   0.886   2.096   1.722
 3593WAT     H110990   0.945   2.106   1.648
 3593WAT     H210991   0.935   2.043   1.785
 3594WAT      O10992   1.530   3.663   1.426
 3594WAT     H110993   1.460   3.714   1.386
 3594WAT     H210994   1.487   3.614   1.496
 3595WAT      O10995   0.959   1.928   1.362
 3595WAT     H110996   0.885   1.965   1.313
 3595WAT     H210997   0.919   1.865   1.421
 3596WAT      O10998   1.039   2.152   1.497
 3596WAT     H110999   1.021   2.074   1.445
 3596WAT     H211000   1.135   2.157   1.500
 3597WAT      O11001   1.282   3.741   1.190
 3597WAT     H111002   1.248   3.816   1.141
 3597WAT     H211003   1.210   3.677   1.189
 3598WAT      O11004   0.355   3.556   1.128
 3598WAT     H111005   0.380   3.500   1.054
 3598WAT     H211006   0.426   3.620   1.135
 3599WAT      O11007   0.616   3.658   1.168
 3599WAT     H111008   0.657   3.631   1.086
 3599WAT     H211009   0.644   3.592   1.232
 3600WAT      O11010   0.729   2.025   1.246
 3600WAT     H111011   0.662   2.066   1.302
 3600WAT     H211012   0.686   1.947   1.211
 3601WAT      O11013   1.170   2.082   1.052
 3601WAT     H111014   1.234   2.083   0.981
 3601WAT     H211015   1.150   2.174   1.068
 3602WAT      O11016   1.350   2.067   0.850
 3602WAT     H111017   1.344   1.974   0.826
 3602WAT     H211018   1.433   2.074   0.897
 3603WAT      O11019   0.507   2.265   0.791
 3603WAT     H111020   0.444   2.211   0.743
 3603WAT     H211021   0.575   2.204   0.818
 3604WAT      O11022   0.959   1.931   0.924
 3604WAT     H111023   1.031   1.976   0.968
 3604WAT     H211024   0.900   2.002   0.897
 3605WAT      O11025   1.283   1.978   0.455
 3605WAT     H111026   1.280   2.070   0.481
 3605WAT     H211027   1.196   1.945   0.475
 3606WAT      O11028   0.330   2.093   0.639
 3606WAT     H111029   0.271   2.033   0.685
 3606WAT     H211030   0.272   2.152   0.591
 3607WAT      O11031   0.610   3.744   1.925
 3607WAT     H111032   0.701   3.718   1.925
 3607WAT     H211033   0.609   3.828   1.878
 3608WAT      O11034   1.437   3.689   0.618
 3608WAT     H111035   1.441   3.607   0.568
 3608WAT     H211036   1.397   3.752   0.558
 3609WAT      O11037   0.329   2.011   1.894
 3609WAT     H111038   0.307   2.046   1.807
 3609WAT     H211039   0.374   1.928   1.875
 3610WAT      O11040   0.233   3.687   0.374
 3610WAT     H111041   0.284   3.753   0.328
 3610WAT     H211042   0.257   3.699   0.466
 3611WAT      O11043   0.998   1.959   1.948
 3611WAT     H111044   0.980   1.982   2.039
 3611WAT     H211045   1.091   1.981   1.936
 3612WAT      O11046   1.281   3.663   1.894
 3612WAT     H111047   1.360   3.610   1.900
 3612WAT     H211048   1.296   3.734   1.957
 3613WAT      O11049   0.884   0.873   4.610
 3613WAT     H111050   0.865   0.779   4.607
 3613WAT     H211051   0.833   0.910   4.539
 3614WAT      O11052   0.700   1.052   4.800
 3614WAT     H111053   0.634   1.001   4.846
 3614WAT     H211054   0.770   0.990   4.782
 3615WAT      O11055   1.096   1.503   4.682
 3615WAT     H111056   1.049   1.422   4.698
 3615WAT     H211057   1.177   1.494   4.733
 3616WAT      O11058   0.719   1.720   4.665
 3616WAT     H111059   0.657   1.753   4.600
 3616WAT     H211060   0.803   1.755   4.637
 3617WAT      O11061   0.631   1.316   4.818
 3617WAT     H111062   0.650   1.223   4.806
 3617WAT     H211063   0.698   1.346   4.879
 3618WAT      O11064   0.739   0.609   4.821
 3618WAT     H111065   0.790   0.534   4.852
 3618WAT     H211066   0.759   0.614   4.728
 3619WAT      O11067   1.127   0.356   4.530
 3619WAT     H111068   1.218   0.324   4.527
 3619WAT     H211069   1.129   0.424   4.598
 3620WAT      O11070   0.357   0.754   4.813
 3620WAT     H111071   0.416   0.800   4.872
 3620WAT     H211072   0.390   0.665   4.810
 3621WAT      O11073   1.541   0.553   5.187
 3621WAT     H111074   1.483   0.617   5.145
 3621WAT     H211075   1.584   0.603   5.256
 3622WAT      O11076   0.815   1.215   4.380
 3622WAT     H111077   0.757   1.244   4.310
 3622WAT     H211078   0.828   1.292   4.435
 3623WAT      O11079   0.315   1.182   5.070
 3623WAT     H111080   0.235   1.223   5.104
 3623WAT     H211081   0.330   1.227   4.987
 3624WAT      O11082   1.162   0.527   4.795
 3624WAT     H111083   1.082   0.546   4.844
 3624WAT     H211084   1.199   0.614   4.777
 3625WAT      O11085   1.293   1.499   5.030
 3625WAT     H111086   1.247   1.578   5.057
 3625WAT     H211087   1.344   1.525   4.954
 3626WAT      O11088   1.443   0.483   4.851
 3626WAT     H111089   1.349   0.490   4.867
 3626WAT     H211090   1.482   0.553   4.902
 3627WAT      O11091   1.063   1.698   4.899
 3627WAT     H111092   1.060   1.649   4.817
 3627WAT     H211093   0.997   1.767   4.888
 3628WAT      O11094   1.201   1.354   4.417
 3628WAT     H111095   1.183   1.260   4.423
 3628WAT     H211096   1.163   1.391   4.497
 3629WAT      O11097   1.019   1.182   5.038
 3629WAT     H111098   1.066   1.156   4.960
 3629WAT     H211099   1.086   1.215   5.097
 3630WAT      O11100   0.750   0.937   4.372
 3630WAT     H111101   0.654   0.944   4.373
 3630WAT     H211102   0.779   1.026   4.354
 3631WAT      O11103   0.747   0.545   4.027
 3631WAT     H111104   0.661   0.566   4.063
 3631WAT     H211105   0.796   0.627   4.031
 3632WAT      O11106   1.391   1.018   5.047
 3632WAT     H111107   1.319   1.049   4.992
 3632WAT     H211108   1.466   1.069   5.018
 3633WAT      O11109   1.143   1.085   4.407
 3633WAT     H111110   1.071   1.052   4.352
 3633WAT     H211111   1.142   1.028   4.484
 3634WAT      O11112   1.095   0.704   5.138
 3634WAT     H111113   1.054   0.789   5.152
 3634WAT     H211114   1.022   0.643   5.126
 3635WAT      O11115   0.316   0.967   4.623
 3635WAT     H111116   0.243   0.921   4.583
 3635WAT     H211117   0.334   0.920   4.704
 3636WAT      O11118   0.360   1.319   4.840
 3636WAT     H111119   0.338   1.278   4.756
 3636WAT     H211120   0.454   1.333   4.836
 3637WAT      O11121   0.187   0.638   5.013
 3637WAT     H111122   0.221   0.680   4.934
 3637WAT     H211123   0.218   0.694   5.085
 3638WAT      O11124   1.161   1.695   5.211
 3638WAT     H111125   1.129   1.780   5.181
 3638WAT     H211126   1.083   1.640   5.214
 3639WAT      O11127   0.270   1.337   5.496
 3639WAT     H111128   0.188   1.322   5.543
 3639WAT     H211129   0.244   1.345   5.404
 3640WAT      O11130   0.970   1.013   4.106
 3640WAT     H111131   1.001   0.924   4.089
 3640WAT     H211132   1.049   1.067   4.100
 3641WAT      O11133   0.768   1.484   4.496
 3641WAT     H111134   0.823   1.549   4.453
 3641WAT     H211135   0.750   1.521   4.582
 3642WAT      O11136   0.321   1.608   5.582
 3642WAT     H111137   0.330   1.651   5.497
 3642WAT     H211138   0.321   1.515   5.562
 3643WAT      O11139   1.450   1.385   5.423
 3643WAT     H111140   1.491   1.373   5.338
 3643WAT     H211141   1.458   1.300   5.466
 3644WAT      O11142   0.848   1.756   5.297
 3644WAT     H111143   0.895   1.747   5.380
 3644WAT     H211144   0.763   1.794   5.322
 3645WAT      O11145   1.026   1.796   4.232
 3645WAT     H111146   1.012   1.766   4.322
 3645WAT     H211147   1.028   1.717   4.180
 3646WAT      O11148   0.285   1.762   4.405
 3646WAT     H111149   0.279   1.666   4.399
 3646WAT     H211150   0.199   1.789   4.438
 3647WAT      O11151   1.016   1.567   4.082
 3647WAT     H111152   0.937   1.542   4.035
 3647WAT     H211153   1.087   1.521   4.037
 3648WAT      O11154   0.979   1.705   4.502
 3648WAT     H111155   1.025   1.637   4.552
 3648WAT     H211156   0.996   1.786   4.550
 3649WAT      O11157   1.452   0.607   5.520
 3649WAT     H111158   1.410   0.678   5.471
 3649WAT     H211159   1.392   0.534   5.512
 3650WAT      O11160   0.249   0.231   4.694
 3650WAT     H111161   0.165   0.276   4.698
 3650WAT     H211162   0.279   0.227   4.785
 3651WAT      O11163   0.645   0.485   5.272
 3651WAT     H111164   0.593   0.505   5.349
 3651WAT     H211165   0.605   0.406   5.236
 3652WAT      O11166   1.163   0.584   5.379
 3652WAT     H111167   1.078   0.578   5.422
 3652WAT     H211168   1.147   0.638   5.302
 3653WAT      O11169   0.856   0.760   5.584
 3653WAT     H111170   0.879   0.668   5.572
 3653WAT     H211171   0.936   0.801   5.616
 3654WAT      O11172   0.432   0.257   4.910
 3654WAT     H111173   0.437   0.350   4.890
 3654WAT     H211174   0.484   0.215   4.841
 3655WAT      O11175   0.910   0.710   4.340
 3655WAT     H111176   0.858   0.789   4.337
 3655WAT     H211177   0.960   0.710   4.258
 3656WAT      O11178   0.443   0.809   5.542
 3656WAT     H111179   0.451   0.716   5.520
 3656WAT     H211180   0.532   0.843   5.531
 3657WAT      O11181   0.809   0.590   4.561
 3657WAT     H111182   0.840   0.622   4.477
 3657WAT     H211183   0.812   0.495   4.553
 3658WAT      O11184   0.838   0.829   4.960
 3658WAT     H111185   0.763   0.870   5.003
 3658WAT     H211186   0.802   0.752   4.917
 3659WAT      O11187   0.487   0.507   4.801
 3659WAT     H111188   0.494   0.474   4.711
 3659WAT     H211189   0.573   0.545   4.819
 3660WAT      O11190   0.499   0.605   4.123
 3660WAT     H111191   0.485   0.609   4.218
 3660WAT     H211192   0.466   0.689   4.090
 3661WAT      O11193   0.886   0.400   4.907
 3661WAT     H111194   0.894   0.429   4.998
 3661WAT     H211195   0.887   0.304   4.912
 3662WAT      O11196   0.401   0.845   4.031
 3662WAT     H111197   0.345   0.798   3.969
 3662WAT     H211198   0.468   0.886   3.977
 3663WAT      O11199   0.527   0.915   4.975
 3663WAT     H111200   0.545   0.855   5.048
 3663WAT     H211201   0.475   0.985   5.014
 3664WAT      O11202   0.306   0.816   5.191
 3664WAT     H111203   0.287   0.902   5.228
 3664WAT     H211204   0.398   0.800   5.213
 3665WAT      O11205   1.227   1.119   4.841
 3665WAT     H111206   1.299   1.170   4.803
 3665WAT     H211207   1.200   1.061   4.770
 3666WAT      O11208   0.763   0.293   4.266
 3666WAT     H111209   0.704   0.227   4.229
 3666WAT     H211210   0.759   0.366   4.205
 3667WAT      O11211   0.769   1.142   5.450
 3667WAT     H111212   0.764   1.056   5.408
 3667WAT     H211213   0.687   1.150   5.499
 3668WAT      O11214   1.042   0.704   4.096
 3668WAT     H111215   1.126   0.746   4.076
 3668WAT     H211216   1.052   0.614   4.064
 3669WAT      O11217   0.664   1.332   4.170
 3669WAT     H111218   0.682   1.412   4.121
 3669WAT     H211219   0.574   1.342   4.200
 3670WAT      O11220   0.217   0.944   5.614
 3670WAT     H111221   0.184   0.949   5.525
 3670WAT     H211222   0.301   0.899   5.606
 3671WAT      O11223   0.761   1.411   5.397
 3671WAT     H111224   0.764   1.316   5.410
 3671WAT     H211225   0.692   1.441   5.456
 3672WAT      O11226   1.266   0.850   4.035
 3672WAT     H111227   1.254   0.878   3.944
 3672WAT     H211228   1.343   0.898   4.065
 3673WAT      O11229   1.379   1.098   5.331
 3673WAT     H111230   1.304   1.156   5.321
 3673WAT     H211231   1.413   1.086   5.242
 3674WAT      O11232   1.369   1.536   4.298
 3674WAT     H111233   1.319   1.468   4.342
 3674WAT     H211234   1.313   1.565   4.226
 3675WAT      O11235   0.945   1.263   4.688
 3675WAT     H111236   0.962   1.190   4.627
 3675WAT     H211237   0.857   1.246   4.721
 3676WAT      O11238   0.525   1.329   4.445
 3676WAT     H111239   0.607   1.376   4.464
 3676WAT     H211240   0.459   1.398   4.443
 3677WAT      O11241   0.486   1.047   4.413
 3677WAT     H111242   0.509   1.139   4.429
 3677WAT     H211243   0.434   1.022   4.490
 3678WAT      O11244   0.687   1.592   5.111
 3678WAT     H111245   0.739   1.625   5.184
 3678WAT     H211246   0.731   1.511   5.085
 3679WAT      O11247   0.838   1.389   4.991
 3679WAT     H111248   0.887   1.310   5.013
 3679WAT     H211249   0.905   1.451   4.963
 3680WAT      O11250   1.216   1.412   3.960
 3680WAT     H111251   1.195   1.334   4.012
 3680WAT     H211252   1.193   1.387   3.870
 3681WAT      O11253   1.020   1.474   5.340
 3681WAT     H111254   1.022   1.551   5.396
 3681WAT     H211255   0.928   1.447   5.341
 3682WAT      O11256   1.177   1.203   4.133
 3682WAT     H111257   1.144   1.250   4.210
 3682WAT     H211258   1.257   1.160   4.164
 3683WAT      O11259   0.405   1.554   4.129
 3683WAT     H111260   0.403   1.628   4.068
 3683WAT     H211261   0.317   1.518   4.126
 3684WAT      O11262   0.903   0.496   5.161
 3684WAT     H111263   0.949   0.423   5.204
 3684WAT     H211264   0.817   0.498   5.203
 3685WAT      O11265   1.247   0.416   4.253
 3685WAT     H111266   1.196   0.413   4.172
 3685WAT     H211267   1.184   0.392   4.321
 3686WAT      O11268   0.678   1.557   4.001
 3686WAT     H111269   0.690   1.534   3.909
 3686WAT     H211270   0.584   1.547   4.016
 3687WAT      O11271   0.433   0.603   4.386
 3687WAT     H111272   0.397   0.673   4.440
 3687WAT     H211273   0.475   0.543   4.448
 3688WAT      O11274   0.589   0.763   5.192
 3688WAT     H111275   0.648   0.809   5.252
 3688WAT     H211276   0.610   0.671   5.204
 3689WAT      O11277   0.840   0.317   4.528
 3689WAT     H111278   0.821   0.298   4.436
 3689WAT     H211279   0.935   0.309   4.535
 3690WAT      O11280   0.552   1.817   4.459
 3690WAT     H111281   0.595   1.809   4.374
 3690WAT     H211282   0.460   1.799   4.441
 3691WAT      O11283   0.268   0.449   4.120
 3691WAT     H111284   0.348   0.498   4.104
 3691WAT     H211285   0.234   0.484   4.202
 3692WAT      O11286   1.319   0.384   5.279
 3692WAT     H111287   1.268   0.458   5.312
 3692WAT     H211288   1.398   0.425   5.242
 3693WAT      O11289   1.154   0.932   4.631
 3693WAT     H111290   1.064   0.901   4.636
 3693WAT     H211291   1.206   0.858   4.664
 3694WAT      O11292   1.364   1.630   4.781
 3694WAT     H111293   1.370   1.711   4.832
 3694WAT     H211294   1.452   1.616   4.748
 3695WAT      O11295   0.406   1.742   3.936
 3695WAT     H111296   0.481   1.792   3.903
 3695WAT     H211297   0.371   1.698   3.859
 3696WAT      O11298   1.030   1.721   5.512
 3696WAT     H111299   1.120   1.746   5.490
 3696WAT     H211300   1.009   1.775   5.589
 3697WAT      O11301   0.467   1.268   3.907
 3697WAT     H111302   0.442   1.223   3.989
 3697WAT     H211303   0.469   1.198   3.842
 3698WAT      O11304   0.502   1.156   5.510
 3698WAT     H111305   0.421   1.203   5.529
 3698WAT     H211306   0.494   1.130   5.418
 3699WAT      O11307   0.784   1.172   3.978
 3699WAT     H111308   0.738   1.222   4.045
 3699WAT     H211309   0.847   1.118   4.026
 3700WAT      O11310   1.191   1.311   5.545
 3700WAT     H111311   1.272   1.353   5.518
 3700WAT     H211312   1.122   1.364   5.505
 3701WAT      O11313   0.368   1.088   4.160
 3701WAT     H111314   0.407   1.070   4.246
 3701WAT     H211315   0.366   1.003   4.116
 3702WAT      O11316   0.615   0.963   3.902
 3702WAT     H111317   0.677   0.911   3.851
 3702WAT     H211318   0.663   1.041   3.927
 3703WAT      O11319   1.052   1.093   5.447
 3703WAT     H111320   1.105   1.156   5.495
 3703WAT     H211321   0.962   1.124   5.459
 3704WAT      O11322   1.115   0.846   5.613
 3704WAT     H111323   1.192   0.792   5.593
 3704WAT     H211324   1.121   0.919   5.552
 3705WAT      O11325   0.505   0.252   5.177
 3705WAT     H111326   0.477   0.253   5.085
 3705WAT     H211327   0.445   0.192   5.220
 3706WAT      O11328   0.514   1.122   5.237
 3706WAT     H111329   0.585   1.180   5.211
 3706WAT     H211330   0.442   1.144   5.177
 3707WAT      O11331   0.769   0.880   5.359
 3707WAT     H111332   0.795   0.838   5.442
 3707WAT     H211333   0.851   0.890   5.311
 3708WAT      O11334   0.996   0.948   5.219
 3708WAT     H111335   0.982   1.010   5.147
 3708WAT     H211336   1.031   1.003   5.290
 3709WAT      O11337   0.258   0.666   3.881
 3709WAT     H111338   0.216   0.584   3.905
 3709WAT     H211339   0.220   0.690   3.797
 3710WAT      O11340   0.339   1.762   5.339
 3710WAT     H111341   0.259   1.802   5.305
 3710WAT     H211342   0.363   1.697   5.273
 3711WAT      O11343   0.465   0.539   5.490
 3711WAT     H111344   0.507   0.485   5.557
 3711WAT     H211345   0.379   0.500   5.478
 3712WAT      O11346   0.934   0.502   5.520
 3712WAT     H111347   0.859   0.453   5.487
 3712WAT     H211348   0.993   0.435   5.554
 3713WAT      O11349   0.608   1.864   5.366
 3713WAT     H111350   0.600   1.951   5.403
 3713WAT     H211351   0.518   1.831   5.363
 3714WAT      O11352   0.469   0.272   3.955
 3714WAT     H111353   0.412   0.216   3.902
 3714WAT     H211354   0.426   0.277   4.040
 3715WAT      O11355   0.665   1.797   4.154
 3715WAT     H111356   0.753   1.833   4.140
 3715WAT     H211357   0.663   1.718   4.100
 3716WAT      O11358   0.226   1.446   4.460
 3716WAT     H111359   0.181   1.430   4.543
 3716WAT     H211360   0.211   1.366   4.409
 3717WAT      O11361   1.378   1.653   5.381
 3717WAT     H111362   1.301   1.660   5.324
 3717WAT     H211363   1.387   1.559   5.398
 3718WAT      O11364   1.425   1.087   4.182
 3718WAT     H111365   1.497   1.145   4.207
 3718WAT     H211366   1.421   1.023   4.254
 3719WAT      O11367   1.541   1.175   4.689
 3719WAT     H111368   1.574   1.093   4.651
 3719WAT     H211369   1.597   1.243   4.651
 3720WAT      O11370   1.205   1.304   5.203
 3720WAT     H111371   1.144   1.362   5.249
 3720WAT     H211372   1.253   1.363   5.144
 3721WAT      O11373   1.473   1.123   3.908
 3721WAT     H111374   1.417   1.181   3.856
 3721WAT     H211375   1.431   1.118   3.993
 3722WAT      O11376   1.092   0.418   4.024
 3722WAT     H111377   1.128   0.400   3.938
 3722WAT     H211378   1.022   0.353   4.034
 3723WAT      O11379   1.418   0.916   4.396
 3723WAT     H111380   1.389   0.828   4.370
 3723WAT     H211381   1.347   0.950   4.449
 3724WAT      O11382   1.371   0.822   5.367
 3724WAT     H111383   1.359   0.798   5.275
 3724WAT     H211384   1.373   0.917   5.366
 3725WAT      O11385   1.340   0.745   4.727
 3725WAT     H111386   1.383   0.688   4.664
 3725WAT     H211387   1.411   0.778   4.781
 3726WAT      O11388   1.367   0.740   5.086
 3726WAT     H111389   1.272   0.730   5.086
 3726WAT     H211390   1.382   0.829   5.057
 3727WAT      O11391   1.337   0.663   4.339
 3727WAT     H111392   1.367   0.618   4.419
 3727WAT     H211393   1.291   0.596   4.290
 3728WAT      O11394   1.445   0.529   4.574
 3728WAT     H111395   1.439   0.500   4.665
 3728WAT     H211396   1.530   0.496   4.544
 3729WAT      O11397   1.520   0.302   3.890
 3729WAT     H111398   1.611   0.308   3.864
 3729WAT     H211399   1.520   0.324   3.984
 3730WAT      O11400   1.537   0.378   4.163
 3730WAT     H111401   1.450   0.375   4.202
 3730WAT     H211402   1.561   0.470   4.165
 3731WAT      O11403   1.286   1.794   4.565
 3731WAT     H111404   1.282   1.742   4.485
 3731WAT     H211405   1.289   1.729   4.635
 3732WAT      O11406   0.405   1.593   5.141
 3732WAT     H111407   0.372   1.610   5.052
 3732WAT     H211408   0.499   1.587   5.130
 3733WAT      O11409   0.645   0.284   5.527
 3733WAT     H111410   0.614   0.249   5.611
 3733WAT     H211411   0.680   0.207   5.481
 3734WAT      O11412   1.528   1.782   5.183
 3734WAT     H111413   1.460   1.835   5.142
 3734WAT     H211414   1.482   1.736   5.254
 3735WAT      O11415   1.047   0.278   5.244
 3735WAT     H111416   1.042   0.191   5.204
 3735WAT     H211417   1.140   0.297   5.249
 3736WAT      O11418   1.282   1.862   4.945
 3736WAT     H111419   1.251   1.939   4.897
 3736WAT     H211420   1.208   1.801   4.942
 3737WAT      O11421   0.355   1.678   4.883
 3737WAT     H111422   0.379   1.624   4.808
 3737WAT     H211423   0.425   1.743   4.889
 3738WAT      O11424   0.618   1.781   4.923
 3738WAT     H111425   0.657   1.752   4.840
 3738WAT     H211426   0.643   1.714   4.986
 3739WAT      O11427   1.176   0.227   4.825
 3739WAT     H111428   1.226   0.206   4.746
 3739WAT     H211429   1.157   0.320   4.817
 3740WAT      O11430   0.509   0.388   4.555
 3740WAT     H111431   0.438   0.327   4.537
 3740WAT     H211432   0.589   0.335   4.546
 3741WAT      O11433   0.230   1.854   4.138
 3741WAT     H111434   0.289   1.830   4.066
 3741WAT     H211435   0.273   1.819   4.216
 3742WAT      O11436   0.882   0.872   2.734
 3742WAT     H111437   0.864   0.779   2.728
 3742WAT     H211438   0.833   0.911   2.661
 3743WAT      O11439   0.700   1.052   2.922
 3743WAT     H111440   0.634   1.000   2.968
 3743WAT     H211441   0.770   0.990   2.903
 3744WAT      O11442   1.099   1.498   2.800
 3744WAT     H111443   1.051   1.419   2.822
 3744WAT     H211444   1.176   1.496   2.857
 3745WAT      O11445   0.718   1.722   2.789
 3745WAT     H111446   0.658   1.755   2.722
 3745WAT     H211447   0.805   1.751   2.760
 3746WAT      O11448   0.629   1.315   2.943
 3746WAT     H111449   0.651   1.223   2.930
 3746WAT     H211450   0.699   1.348   3.000
 3747WAT      O11451   0.739   0.609   2.944
 3747WAT     H111452   0.790   0.534   2.974
 3747WAT     H211453   0.758   0.615   2.850
 3748WAT      O11454   1.127   0.356   2.653
 3748WAT     H111455   1.218   0.325   2.649
 3748WAT     H211456   1.128   0.424   2.720
 3749WAT      O11457   0.356   0.754   2.936
 3749WAT     H111458   0.417   0.800   2.994
 3749WAT     H211459   0.390   0.665   2.932
 3750WAT      O11460   1.540   0.552   3.310
 3750WAT     H111461   1.482   0.615   3.267
 3750WAT     H211462   1.586   0.604   3.376
 3751WAT      O11463   0.813   1.212   2.503
 3751WAT     H111464   0.756   1.245   2.434
 3751WAT     H211465   0.832   1.289   2.557
 3752WAT      O11466   0.315   1.182   3.194
 3752WAT     H111467   0.237   1.225   3.227
 3752WAT     H211468   0.332   1.224   3.110
 3753WAT      O11469   1.163   0.528   2.918
 3753WAT     H111470   1.082   0.548   2.967
 3753WAT     H211471   1.201   0.613   2.899
 3754WAT      O11472   1.288   1.495   3.148
 3754WAT     H111473   1.248   1.571   3.190
 3754WAT     H211474   1.336   1.530   3.074
 3755WAT      O11475   1.444   0.482   2.974
 3755WAT     H111476   1.350   0.491   2.989
 3755WAT     H211477   1.483   0.556   3.021
 3756WAT      O11478   1.054   1.699   3.009
 3756WAT     H111479   1.059   1.652   2.925
 3756WAT     H211480   0.995   1.772   2.992
 3757WAT      O11481   1.197   1.358   2.533
 3757WAT     H111482   1.183   1.264   2.546
 3757WAT     H211483   1.169   1.397   2.616
 3758WAT      O11484   1.019   1.180   3.163
 3758WAT     H111485   1.068   1.157   3.083
 3758WAT     H211486   1.085   1.217   3.221
 3759WAT      O11487   0.749   0.937   2.494
 3759WAT     H111488   0.654   0.944   2.495
 3759WAT     H211489   0.780   1.026   2.478
 3760WAT      O11490   0.747   0.545   2.150
 3760WAT     H111491   0.661   0.566   2.186
 3760WAT     H211492   0.797   0.627   2.155
 3761WAT      O11493   1.391   1.013   3.164
 3761WAT     H111494   1.318   1.047   3.113
 3761WAT     H211495   1.466   1.067   3.138
 3762WAT      O11496   1.144   1.086   2.532
 3762WAT     H111497   1.074   1.052   2.475
 3762WAT     H211498   1.143   1.028   2.608
 3763WAT      O11499   1.094   0.705   3.262
 3763WAT     H111500   1.052   0.790   3.273
 3763WAT     H211501   1.021   0.644   3.248
 3764WAT      O11502   0.316   0.968   2.746
 3764WAT     H111503   0.244   0.920   2.705
 3764WAT     H211504   0.333   0.920   2.828
 3765WAT      O11505   0.359   1.318   2.963
 3765WAT     H111506   0.339   1.278   2.878
 3765WAT     H211507   0.454   1.333   2.960
 3766WAT      O11508   0.185   0.640   3.136
 3766WAT     H111509   0.222   0.680   3.057
 3766WAT     H211510   0.217   0.695   3.208
 3767WAT      O11511   1.160   1.694   3.295
 3767WAT     H111512   1.120   1.781   3.299
 3767WAT     H211513   1.097   1.637   3.340
 3768WAT      O11514   0.265   1.344   3.619
 3768WAT     H111515   0.184   1.317   3.663
 3768WAT     H211516   0.243   1.346   3.526
 3769WAT      O11517   0.971   1.014   2.226
 3769WAT     H111518   1.003   0.926   2.210
 3769WAT     H211519   1.049   1.069   2.224
 3770WAT      O11520   0.765   1.486   2.617
 3770WAT     H111521   0.824   1.550   2.578
 3770WAT     H211522   0.751   1.517   2.706
 3771WAT      O11523   0.345   1.602   3.705
 3771WAT     H111524   0.334   1.652   3.624
 3771WAT     H211525   0.312   1.514   3.683
 3772WAT      O11526   0.848   1.755   3.419
 3772WAT     H111527   0.899   1.749   3.500
 3772WAT     H211528   0.765   1.794   3.445
 3773WAT      O11529   1.038   1.803   2.359
 3773WAT     H111530   1.018   1.771   2.447
 3773WAT     H211531   1.036   1.725   2.304
 3774WAT      O11532   0.284   1.761   2.528
 3774WAT     H111533   0.279   1.666   2.522
 3774WAT     H211534   0.199   1.788   2.563
 3775WAT      O11535   1.009   1.578   2.200
 3775WAT     H111536   0.931   1.545   2.156
 3775WAT     H211537   1.080   1.523   2.167
 3776WAT      O11538   0.972   1.704   2.626
 3776WAT     H111539   1.027   1.636   2.663
 3776WAT     H211540   0.998   1.784   2.671
 3777WAT      O11541   1.447   0.611   3.651
 3777WAT     H111542   1.411   0.682   3.597
 3777WAT     H211543   1.390   0.536   3.634
 3778WAT      O11544   0.248   0.230   2.816
 3778WAT     H111545   0.165   0.277   2.822
 3778WAT     H211546   0.280   0.226   2.906
 3779WAT      O11547   0.645   0.482   3.399
 3779WAT     H111548   0.587   0.507   3.471
 3779WAT     H211549   0.604   0.405   3.360
 3780WAT      O11550   1.165   0.587   3.502
 3780WAT     H111551   1.080   0.574   3.544
 3780WAT     H211552   1.145   0.639   3.424
 3781WAT      O11553   0.860   0.767   3.716
 3781WAT     H111554   0.880   0.675   3.700
 3781WAT     H211555   0.942   0.805   3.747
 3782WAT      O11556   0.430   0.256   3.031
 3782WAT     H111557   0.437   0.350   3.012
 3782WAT     H211558   0.486   0.214   2.965
 3783WAT      O11559   0.909   0.709   2.462
 3783WAT     H111560   0.857   0.789   2.459
 3783WAT     H211561   0.961   0.710   2.381
 3784WAT      O11562   0.440   0.810   3.655
 3784WAT     H111563   0.448   0.716   3.639
 3784WAT     H211564   0.529   0.843   3.644
 3785WAT      O11565   0.808   0.590   2.684
 3785WAT     H111566   0.840   0.622   2.599
 3785WAT     H211567   0.812   0.495   2.676
 3786WAT      O11568   0.619   0.442   3.808
 3786WAT     H111569   0.563   0.390   3.865
 3786WAT     H211570   0.678   0.488   3.868
 3787WAT      O11571   0.839   0.826   3.085
 3787WAT     H111572   0.764   0.871   3.123
 3787WAT     H211573   0.802   0.751   3.040
 3788WAT      O11574   0.487   0.507   2.923
 3788WAT     H111575   0.494   0.473   2.834
 3788WAT     H211576   0.573   0.545   2.941
 3789WAT      O11577   0.499   0.605   2.246
 3789WAT     H111578   0.485   0.609   2.340
 3789WAT     H211579   0.466   0.689   2.213
 3790WAT      O11580   0.884   0.399   3.030
 3790WAT     H111581   0.893   0.428   3.121
 3790WAT     H211582   0.887   0.304   3.034
 3791WAT      O11583   0.401   0.845   2.153
 3791WAT     H111584   0.345   0.798   2.091
 3791WAT     H211585   0.468   0.887   2.099
 3792WAT      O11586   0.527   0.914   3.097
 3792WAT     H111587   0.545   0.855   3.170
 3792WAT     H211588   0.476   0.985   3.136
 3793WAT      O11589   0.305   0.816   3.316
 3793WAT     H111590   0.291   0.905   3.347
 3793WAT     H211591   0.397   0.797   3.337
 3794WAT      O11592   1.225   1.120   2.964
 3794WAT     H111593   1.296   1.174   2.930
 3794WAT     H211594   1.201   1.063   2.891
 3795WAT      O11595   0.763   0.293   2.389
 3795WAT     H111596   0.704   0.227   2.351
 3795WAT     H211597   0.760   0.366   2.327
 3796WAT      O11598   0.761   1.144   3.574
 3796WAT     H111599   0.759   1.058   3.532
 3796WAT     H211600   0.679   1.147   3.625
 3797WAT      O11601   1.044   0.705   2.219
 3797WAT     H111602   1.128   0.747   2.198
 3797WAT     H211603   1.054   0.615   2.187
 3798WAT      O11604   0.664   1.332   2.292
 3798WAT     H111605   0.682   1.413   2.245
 3798WAT     H211606   0.574   1.342   2.324
 3799WAT      O11607   0.213   0.943   3.726
 3799WAT     H111608   0.191   0.955   3.634
 3799WAT     H211609   0.301   0.905   3.725
 3800WAT      O11610   0.760   1.416   3.533
 3800WAT     H111611   0.754   1.320   3.533
 3800WAT     H211612   0.689   1.444   3.592
 3801WAT      O11613   1.268   0.851   2.157
 3801WAT     H111614   1.259   0.887   2.068
 3801WAT     H211615   1.337   0.904   2.197
 3802WAT      O11616   1.370   1.093   3.454
 3802WAT     H111617   1.302   1.160   3.440
 3802WAT     H211618   1.421   1.094   3.373
 3803WAT      O11619   1.393   1.530   2.427
 3803WAT     H111620   1.325   1.471   2.460
 3803WAT     H211621   1.356   1.567   2.347
 3804WAT      O11622   0.943   1.261   2.811
 3804WAT     H111623   0.964   1.190   2.751
 3804WAT     H211624   0.855   1.240   2.843
 3805WAT      O11625   0.525   1.330   2.567
 3805WAT     H111626   0.608   1.375   2.586
 3805WAT     H211627   0.460   1.400   2.565
 3806WAT      O11628   0.485   1.047   2.536
 3806WAT     H111629   0.510   1.138   2.551
 3806WAT     H211630   0.434   1.023   2.613
 3807WAT      O11631   0.687   1.591   3.236
 3807WAT     H111632   0.742   1.627   3.305
 3807WAT     H211633   0.733   1.513   3.206
 3808WAT      O11634   0.840   1.391   3.113
 3808WAT     H111635   0.889   1.312   3.135
 3808WAT     H211636   0.907   1.455   3.090
 3809WAT      O11637   1.206   1.413   2.081
 3809WAT     H111638   1.189   1.337   2.137
 3809WAT     H211639   1.186   1.382   1.993
 3810WAT      O11640   1.019   1.478   3.456
 3810WAT     H111641   1.032   1.550   3.518
 3810WAT     H211642   0.926   1.456   3.465
 3811WAT      O11643   1.177   1.206   2.259
 3811WAT     H111644   1.151   1.252   2.339
 3811WAT     H211645   1.259   1.162   2.281
 3812WAT      O11646   0.586   1.464   3.750
 3812WAT     H111647   0.547   1.393   3.802
 3812WAT     H211648   0.513   1.525   3.735
 3813WAT      O11649   0.405   1.554   2.251
 3813WAT     H111650   0.402   1.628   2.190
 3813WAT     H211651   0.317   1.517   2.248
 3814WAT      O11652   0.902   0.495   3.285
 3814WAT     H111653   0.949   0.423   3.327
 3814WAT     H211654   0.817   0.496   3.327
 3815WAT      O11655   1.247   0.415   2.376
 3815WAT     H111656   1.196   0.414   2.294
 3815WAT     H211657   1.184   0.392   2.444
 3816WAT      O11658   0.677   1.558   2.123
 3816WAT     H111659   0.689   1.534   2.031
 3816WAT     H211660   0.583   1.546   2.138
 3817WAT      O11661   0.433   0.603   2.508
 3817WAT     H111662   0.398   0.674   2.563
 3817WAT     H211663   0.474   0.543   2.570
 3818WAT      O11664   0.588   0.764   3.316
 3818WAT     H111665   0.648   0.809   3.376
 3818WAT     H211666   0.610   0.671   3.325
 3819WAT      O11667   0.840   0.317   2.650
 3819WAT     H111668   0.821   0.298   2.558
 3819WAT     H211669   0.935   0.309   2.657
 3820WAT      O11670   0.551   1.818   2.581
 3820WAT     H111671   0.595   1.808   2.497
 3820WAT     H211672   0.459   1.800   2.563
 3821WAT      O11673   0.267   0.449   2.242
 3821WAT     H111674   0.348   0.498   2.227
 3821WAT     H211675   0.234   0.484   2.325
 3822WAT      O11676   1.321   0.384   3.409
 3822WAT     H111677   1.268   0.459   3.438
 3822WAT     H211678   1.398   0.423   3.367
 3823WAT      O11679   1.154   0.930   2.753
 3823WAT     H111680   1.063   0.900   2.759
 3823WAT     H211681   1.206   0.857   2.787
 3824WAT      O11682   1.363   1.633   2.900
 3824WAT     H111683   1.370   1.712   2.953
 3824WAT     H211684   1.452   1.617   2.869
 3825WAT      O11685   0.405   1.742   2.058
 3825WAT     H111686   0.480   1.792   2.025
 3825WAT     H211687   0.371   1.698   1.981
 3826WAT      O11688   0.904   1.355   3.793
 3826WAT     H111689   0.840   1.376   3.726
 3826WAT     H211690   0.861   1.290   3.849
 3827WAT      O11691   1.033   1.731   3.634
 3827WAT     H111692   1.128   1.718   3.632
 3827WAT     H211693   1.019   1.793   3.706
 3828WAT      O11694   1.316   1.676   2.211
 3828WAT     H111695   1.283   1.631   2.133
 3828WAT     H211696   1.296   1.768   2.194
 3829WAT      O11697   0.467   1.269   2.029
 3829WAT     H111698   0.444   1.225   2.111
 3829WAT     H211699   0.470   1.198   1.964
 3830WAT      O11700   0.487   1.157   3.636
 3830WAT     H111701   0.412   1.216   3.640
 3830WAT     H211702   0.493   1.130   3.544
 3831WAT      O11703   0.783   1.172   2.100
 3831WAT     H111704   0.739   1.222   2.168
 3831WAT     H211705   0.847   1.118   2.147
 3832WAT      O11706   1.198   1.320   3.687
 3832WAT     H111707   1.257   1.369   3.631
 3832WAT     H211708   1.112   1.359   3.672
 3833WAT      O11709   0.367   1.088   2.284
 3833WAT     H111710   0.407   1.070   2.369
 3833WAT     H211711   0.366   1.003   2.239
 3834WAT      O11712   0.615   0.963   2.023
 3834WAT     H111713   0.679   0.910   1.976
 3834WAT     H211714   0.663   1.041   2.049
 3835WAT      O11715   1.052   1.091   3.578
 3835WAT     H111716   1.109   1.156   3.618
 3835WAT     H211717   0.964   1.130   3.584
 3836WAT      O11718   1.127   0.852   3.745
 3836WAT     H111719   1.182   0.786   3.703
 3836WAT     H211720   1.121   0.922   3.680
 3837WAT      O11721   0.505   0.259   3.298
 3837WAT     H111722   0.472   0.253   3.208
 3837WAT     H211723   0.455   0.193   3.346
 3838WAT      O11724   0.513   1.126   3.365
 3838WAT     H111725   0.587   1.179   3.334
 3838WAT     H211726   0.443   1.145   3.303
 3839WAT      O11727   0.769   0.879   3.486
 3839WAT     H111728   0.799   0.838   3.567
 3839WAT     H211729   0.849   0.892   3.435
 3840WAT      O11730   0.993   0.950   3.344
 3840WAT     H111731   0.985   1.011   3.270
 3840WAT     H211732   1.033   1.003   3.413
 3841WAT      O11733   0.258   0.667   2.003
 3841WAT     H111734   0.217   0.584   2.028
 3841WAT     H211735   0.220   0.689   1.919
 3842WAT      O11736   0.334   1.757   3.466
 3842WAT     H111737   0.259   1.803   3.428
 3842WAT     H211738   0.362   1.695   3.399
 3843WAT      O11739   0.464   0.540   3.608
 3843WAT     H111740   0.517   0.509   3.682
 3843WAT     H211741   0.389   0.482   3.606
 3844WAT      O11742   0.942   0.509   3.648
 3844WAT     H111743   0.867   0.455   3.624
 3844WAT     H211744   1.003   0.448   3.690
 3845WAT      O11745   0.606   1.866   3.479
 3845WAT     H111746   0.600   1.950   3.526
 3845WAT     H211747   0.518   1.829   3.485
 3846WAT      O11748   0.469   0.272   2.077
 3846WAT     H111749   0.411   0.216   2.025
 3846WAT     H211750   0.427   0.276   2.163
 3847WAT      O11751   0.664   1.797   2.275
 3847WAT     H111752   0.754   1.829   2.264
 3847WAT     H211753   0.661   1.718   2.222
 3848WAT      O11754   0.225   1.447   2.582
 3848WAT     H111755   0.182   1.430   2.666
 3848WAT     H211756   0.212   1.366   2.532
 3849WAT      O11757   1.483   1.407   2.058
 3849WAT     H111758   1.389   1.416   2.077
 3849WAT     H211759   1.509   1.493   2.024
 3850WAT      O11760   1.423   1.082   2.297
 3850WAT     H111761   1.495   1.144   2.299
 3850WAT     H211762   1.432   1.030   2.377
 3851WAT      O11763   1.542   1.175   2.811
 3851WAT     H111764   1.575   1.094   2.771
 3851WAT     H211765   1.595   1.244   2.772
 3852WAT      O11766   1.204   1.304   3.329
 3852WAT     H111767   1.144   1.365   3.372
 3852WAT     H211768   1.254   1.358   3.269
 3853WAT      O11769   1.468   1.117   2.023
 3853WAT     H111770   1.472   1.211   2.006
 3853WAT     H211771   1.429   1.110   2.110
 3854WAT      O11772   1.092   0.418   2.147
 3854WAT     H111773   1.128   0.400   2.060
 3854WAT     H211774   1.022   0.353   2.157
 3855WAT      O11775   1.423   0.916   2.521
 3855WAT     H111776   1.390   0.830   2.493
 3855WAT     H211777   1.350   0.955   2.569
 3856WAT      O11778   1.374   0.819   3.489
 3856WAT     H111779   1.361   0.796   3.397
 3856WAT     H211780   1.374   0.915   3.490
 3857WAT      O11781   1.209   0.345   3.778
 3857WAT     H111782   1.299   0.343   3.812
 3857WAT     H211783   1.211   0.289   3.700
 3858WAT      O11784   1.339   0.743   2.851
 3858WAT     H111785   1.384   0.690   2.786
 3858WAT     H211786   1.409   0.780   2.905
 3859WAT      O11787   1.367   0.739   3.209
 3859WAT     H111788   1.271   0.730   3.209
 3859WAT     H211789   1.383   0.828   3.180
 3860WAT      O11790   1.337   0.663   2.461
 3860WAT     H111791   1.367   0.619   2.541
 3860WAT     H211792   1.291   0.595   2.412
 3861WAT      O11793   1.444   0.528   2.696
 3861WAT     H111794   1.439   0.499   2.787
 3861WAT     H211795   1.529   0.496   2.666
 3862WAT      O11796   1.520   0.301   2.013
 3862WAT     H111797   1.612   0.309   1.987
 3862WAT     H211798   1.519   0.323   2.106
 3863WAT      O11799   1.537   0.378   2.285
 3863WAT     H111800   1.449   0.375   2.325
 3863WAT     H211801   1.560   0.471   2.287
 3864WAT      O11802   1.252   1.790   2.696
 3864WAT     H111803   1.312   1.775   2.624
 3864WAT     H211804   1.275   1.724   2.761
 3865WAT      O11805   0.405   1.595   3.264
 3865WAT     H111806   0.373   1.611   3.176
 3865WAT     H211807   0.500   1.587   3.255
 3866WAT      O11808   0.605   0.230   3.636
 3866WAT     H111809   0.616   0.302   3.698
 3866WAT     H211810   0.694   0.207   3.610
 3867WAT      O11811   1.528   1.789   3.314
 3867WAT     H111812   1.450   1.814   3.265
 3867WAT     H211813   1.494   1.741   3.389
 3868WAT      O11814   1.048   0.277   3.367
 3868WAT     H111815   1.041   0.191   3.327
 3868WAT     H211816   1.142   0.295   3.369
 3869WAT      O11817   1.285   1.864   3.070
 3869WAT     H111818   1.245   1.934   3.020
 3869WAT     H211819   1.215   1.799   3.080
 3870WAT      O11820   0.355   1.678   3.005
 3870WAT     H111821   0.380   1.622   2.932
 3870WAT     H211822   0.426   1.742   3.012
 3871WAT      O11823   0.616   1.780   3.046
 3871WAT     H111824   0.657   1.753   2.964
 3871WAT     H211825   0.644   1.714   3.110
 3872WAT      O11826   1.176   0.227   2.947
 3872WAT     H111827   1.226   0.206   2.868
 3872WAT     H211828   1.157   0.321   2.939
 3873WAT      O11829   0.510   0.388   2.678
 3873WAT     H111830   0.439   0.326   2.659
 3873WAT     H211831   0.590   0.336   2.669
 3874WAT      O11832   0.610   1.867   3.802
 3874WAT     H111833   0.702   1.840   3.801
 3874WAT     H211834   0.609   1.950   3.756
 3875WAT      O11835   1.438   1.809   2.492
 3875WAT     H111836   1.434   1.726   2.445
 3875WAT     H211837   1.397   1.872   2.432
 3876WAT      O11838   0.231   1.855   2.261
 3876WAT     H111839   0.289   1.830   2.189
 3876WAT     H211840   0.272   1.819   2.339
 3877WAT      O11841   0.883   0.872   0.857
 3877WAT     H111842   0.864   0.778   0.851
 3877WAT     H211843   0.834   0.910   0.784
 3878WAT      O11844   0.700   1.052   1.045
 3878WAT     H111845   0.634   1.000   1.091
 3878WAT     H211846   0.770   0.990   1.026
 3879WAT      O11847   1.096   1.500   0.927
 3879WAT     H111848   1.049   1.419   0.944
 3879WAT     H211849   1.177   1.493   0.978
 3880WAT      O11850   0.719   1.721   0.913
 3880WAT     H111851   0.658   1.753   0.847
 3880WAT     H211852   0.804   1.753   0.885
 3881WAT      O11853   0.630   1.315   1.065
 3881WAT     H111854   0.650   1.223   1.051
 3881WAT     H211855   0.698   1.347   1.123
 3882WAT      O11856   0.739   0.609   1.066
 3882WAT     H111857   0.790   0.534   1.097
 3882WAT     H211858   0.759   0.615   0.973
 3883WAT      O11859   1.128   0.356   0.775
 3883WAT     H111860   1.218   0.324   0.772
 3883WAT     H211861   1.128   0.424   0.842
 3884WAT      O11862   0.356   0.754   1.059
 3884WAT     H111863   0.417   0.800   1.117
 3884WAT     H211864   0.390   0.665   1.054
 3885WAT      O11865   1.540   0.553   1.432
 3885WAT     H111866   1.482   0.616   1.390
 3885WAT     H211867   1.586   0.603   1.500
 3886WAT      O11868   0.812   1.213   0.626
 3886WAT     H111869   0.754   1.245   0.557
 3886WAT     H211870   0.831   1.290   0.679
 3887WAT      O11871   0.315   1.182   1.316
 3887WAT     H111872   0.236   1.224   1.349
 3887WAT     H211873   0.332   1.225   1.232
 3888WAT      O11874   1.162   0.527   1.040
 3888WAT     H111875   1.082   0.547   1.089
 3888WAT     H211876   1.201   0.613   1.021
 3889WAT      O11877   1.293   1.497   1.274
 3889WAT     H111878   1.249   1.577   1.305
 3889WAT     H211879   1.343   1.526   1.198
 3890WAT      O11880   1.444   0.482   1.096
 3890WAT     H111881   1.350   0.491   1.112
 3890WAT     H211882   1.483   0.554   1.145
 3891WAT      O11883   1.062   1.697   1.143
 3891WAT     H111884   1.063   1.651   1.060
 3891WAT     H211885   0.998   1.768   1.130
 3892WAT      O11886   1.197   1.359   0.654
 3892WAT     H111887   1.183   1.265   0.664
 3892WAT     H211888   1.168   1.396   0.738
 3893WAT      O11889   1.019   1.181   1.284
 3893WAT     H111890   1.067   1.156   1.205
 3893WAT     H211891   1.085   1.216   1.343
 3894WAT      O11892   0.749   0.936   0.618
 3894WAT     H111893   0.654   0.946   0.621
 3894WAT     H211894   0.781   1.024   0.599
 3895WAT      O11895   0.750   0.527   0.290
 3895WAT     H111896   0.659   0.549   0.311
 3895WAT     H211897   0.791   0.610   0.268
 3896WAT      O11898   1.391   1.016   1.289
 3896WAT     H111899   1.319   1.048   1.236
 3896WAT     H211900   1.467   1.069   1.262
 3897WAT      O11901   1.144   1.089   0.657
 3897WAT     H111902   1.078   1.055   0.596
 3897WAT     H211903   1.142   1.029   0.731
 3898WAT      O11904   1.094   0.705   1.383
 3898WAT     H111905   1.052   0.790   1.396
 3898WAT     H211906   1.021   0.644   1.371
 3899WAT      O11907   0.317   0.967   0.868
 3899WAT     H111908   0.243   0.921   0.828
 3899WAT     H211909   0.334   0.919   0.949
 3900WAT      O11910   0.360   1.318   1.085
 3900WAT     H111911   0.338   1.278   1.001
 3900WAT     H211912   0.454   1.333   1.082
 3901WAT      O11913   0.185   0.640   1.259
 3901WAT     H111914   0.221   0.679   1.180
 3901WAT     H211915   0.218   0.696   1.330
 3902WAT      O11916   1.164   1.692   1.454
 3902WAT     H111917   1.131   1.779   1.430
 3902WAT     H211918   1.085   1.639   1.464
 3903WAT      O11919   0.265   1.344   1.742
 3903WAT     H111920   0.185   1.316   1.786
 3903WAT     H211921   0.242   1.345   1.649
 3904WAT      O11922   0.969   1.011   0.357
 3904WAT     H111923   1.005   0.924   0.338
 3904WAT     H211924   1.044   1.070   0.349
 3905WAT      O11925   0.766   1.486   0.740
 3905WAT     H111926   0.825   1.552   0.703
 3905WAT     H211927   0.750   1.516   0.829
 3906WAT      O11928   0.345   1.602   1.827
 3906WAT     H111929   0.334   1.652   1.747
 3906WAT     H211930   0.313   1.514   1.805
 3907WAT      O11931   1.532   1.672   1.965
 3907WAT     H111932   1.575   1.724   2.032
 3907WAT     H211933   1.589   1.678   1.889
 3908WAT      O11934   1.442   1.381   1.668
 3908WAT     H111935   1.486   1.367   1.585
 3908WAT     H211936   1.466   1.304   1.721
 3909WAT      O11937   0.850   1.755   1.542
 3909WAT     H111938   0.900   1.752   1.623
 3909WAT     H211939   0.766   1.794   1.566
 3910WAT      O11940   1.034   1.801   0.479
 3910WAT     H111941   1.017   1.768   0.567
 3910WAT     H211942   1.036   1.722   0.424
 3911WAT      O11943   0.281   1.767   0.652
 3911WAT     H111944   0.280   1.672   0.641
 3911WAT     H211945   0.198   1.788   0.695
 3912WAT      O11946   1.009   1.568   0.319
 3912WAT     H111947   0.943   1.520   0.268
 3912WAT     H211948   1.083   1.508   0.325
 3913WAT      O11949   0.972   1.703   0.747
 3913WAT     H111950   1.027   1.636   0.788
 3913WAT     H211951   0.997   1.784   0.791
 3914WAT      O11952   1.447   0.610   1.773
 3914WAT     H111953   1.411   0.681   1.720
 3914WAT     H211954   1.388   0.536   1.757
 3915WAT      O11955   0.249   0.229   0.939
 3915WAT     H111956   0.165   0.276   0.943
 3915WAT     H211957   0.279   0.227   1.030
 3916WAT      O11958   0.645   0.483   1.521
 3916WAT     H111959   0.587   0.507   1.593
 3916WAT     H211960   0.604   0.405   1.483
 3917WAT      O11961   1.165   0.585   1.623
 3917WAT     H111962   1.081   0.574   1.667
 3917WAT     H211963   1.145   0.639   1.546
 3918WAT      O11964   0.857   0.766   1.839
 3918WAT     H111965   0.878   0.674   1.822
 3918WAT     H211966   0.940   0.805   1.868
 3919WAT      O11967   0.431   0.256   1.154
 3919WAT     H111968   0.437   0.350   1.135
 3919WAT     H211969   0.484   0.214   1.087
 3920WAT      O11970   0.911   0.710   0.586
 3920WAT     H111971   0.857   0.790   0.582
 3920WAT     H211972   0.960   0.711   0.504
 3921WAT      O11973   0.439   0.810   1.776
 3921WAT     H111974   0.447   0.716   1.761
 3921WAT     H211975   0.529   0.843   1.770
 3922WAT      O11976   0.809   0.590   0.806
 3922WAT     H111977   0.840   0.622   0.722
 3922WAT     H211978   0.812   0.494   0.798
 3923WAT      O11979   0.619   0.442   1.931
 3923WAT     H111980   0.562   0.390   1.988
 3923WAT     H211981   0.678   0.488   1.991
 3924WAT      O11982   0.838   0.828   1.207
 3924WAT     H111983   0.763   0.870   1.247
 3924WAT     H211984   0.802   0.751   1.162
 3925WAT      O11985   0.487   0.507   1.046
 3925WAT     H111986   0.494   0.473   0.956
 3925WAT     H211987   0.573   0.545   1.064
 3926WAT      O11988   0.499   0.605   0.369
 3926WAT     H111989   0.487   0.606   0.463
 3926WAT     H211990   0.466   0.689   0.338
 3927WAT      O11991   0.885   0.399   1.152
 3927WAT     H111992   0.893   0.428   1.243
 3927WAT     H211993   0.887   0.304   1.157
 3928WAT      O11994   0.400   0.840   0.266
 3928WAT     H111995   0.329   0.819   0.206
 3928WAT     H211996   0.463   0.889   0.213
 3929WAT      O11997   0.527   0.914   1.220
 3929WAT     H111998   0.545   0.855   1.293
 3929WAT     H211999   0.475   0.985   1.259
 3930WAT      O12000   0.306   0.816   1.437
 3930WAT     H112001   0.290   0.904   1.472
 3930WAT     H212002   0.397   0.797   1.459
 3931WAT      O12003   1.227   1.120   1.086
 3931WAT     H112004   1.299   1.171   1.049
 3931WAT     H212005   1.200   1.062   1.014
 3932WAT      O12006   0.766   0.293   0.507
 3932WAT     H112007   0.696   0.235   0.477
 3932WAT     H212008   0.761   0.369   0.449
 3933WAT      O12009   0.761   1.144   1.697
 3933WAT     H112010   0.760   1.058   1.655
 3933WAT     H212011   0.680   1.147   1.748
 3934WAT      O12012   1.046   0.708   0.342
 3934WAT     H112013   1.131   0.747   0.324
 3934WAT     H212014   1.055   0.617   0.315
 3935WAT      O12015   0.652   1.333   0.418
 3935WAT     H112016   0.653   1.407   0.357
 3935WAT     H212017   0.563   1.334   0.455
 3936WAT      O12018   0.213   0.944   1.849
 3936WAT     H112019   0.190   0.955   1.757
 3936WAT     H212020   0.301   0.905   1.847
 3937WAT      O12021   0.757   1.414   1.652
 3937WAT     H112022   0.753   1.319   1.655
 3937WAT     H212023   0.689   1.443   1.712
 3938WAT      O12024   1.272   0.853   0.282
 3938WAT     H112025   1.271   0.891   0.195
 3938WAT     H212026   1.333   0.909   0.331
 3939WAT      O12027   1.373   1.094   1.574
 3939WAT     H112028   1.303   1.158   1.561
 3939WAT     H212029   1.413   1.085   1.487
 3940WAT      O12030   1.393   1.530   0.548
 3940WAT     H112031   1.326   1.471   0.583
 3940WAT     H212032   1.354   1.567   0.469
 3941WAT      O12033   0.944   1.261   0.933
 3941WAT     H112034   0.965   1.190   0.872
 3941WAT     H212035   0.856   1.241   0.965
 3942WAT      O12036   0.524   1.330   0.691
 3942WAT     H112037   0.606   1.376   0.708
 3942WAT     H212038   0.458   1.399   0.692
 3943WAT      O12039   0.488   1.047   0.660
 3943WAT     H112040   0.511   1.138   0.675
 3943WAT     H212041   0.435   1.022   0.736
 3944WAT      O12042   0.686   1.591   1.358
 3944WAT     H112043   0.740   1.626   1.429
 3944WAT     H212044   0.732   1.512   1.330
 3945WAT      O12045   0.839   1.390   1.236
 3945WAT     H112046   0.888   1.310   1.258
 3945WAT     H212047   0.905   1.453   1.209
 3946WAT      O12048   1.017   1.476   1.583
 3946WAT     H112049   1.024   1.551   1.642
 3946WAT     H212050   0.925   1.450   1.588
 3947WAT      O12051   1.174   1.200   0.378
 3947WAT     H112052   1.159   1.251   0.458
 3947WAT     H212053   1.260   1.161   0.390
 3948WAT      O12054   0.586   1.464   1.872
 3948WAT     H112055   0.548   1.393   1.923
 3948WAT     H212056   0.514   1.525   1.857
 3949WAT      O12057   0.399   1.552   0.367
 3949WAT     H112058   0.387   1.627   0.309
 3949WAT     H212059   0.310   1.520   0.384
 3950WAT      O12060   0.902   0.496   1.407
 3950WAT     H112061   0.949   0.423   1.449
 3950WAT     H212062   0.817   0.497   1.450
 3951WAT      O12063   1.247   0.415   0.501
 3951WAT     H112064   1.194   0.413   0.421
 3951WAT     H212065   1.185   0.393   0.571
 3952WAT      O12066   0.435   0.605   0.632
 3952WAT     H112067   0.396   0.672   0.688
 3952WAT     H212068   0.476   0.543   0.693
 3953WAT      O12069   0.589   0.764   1.438
 3953WAT     H112070   0.648   0.809   1.498
 3953WAT     H212071   0.610   0.671   1.448
 3954WAT      O12072   0.840   0.316   0.770
 3954WAT     H112073   0.822   0.298   0.678
 3954WAT     H212074   0.935   0.309   0.779
 3955WAT      O12075   0.550   1.816   0.709
 3955WAT     H112076   0.593   1.820   0.623
 3955WAT     H212077   0.458   1.800   0.689
 3956WAT      O12078   0.264   0.450   0.369
 3956WAT     H112079   0.349   0.491   0.355
 3956WAT     H212080   0.236   0.482   0.455
 3957WAT      O12081   1.321   0.383   1.530
 3957WAT     H112082   1.268   0.458   1.559
 3957WAT     H212083   1.398   0.423   1.490
 3958WAT      O12084   1.153   0.930   0.877
 3958WAT     H112085   1.063   0.900   0.882
 3958WAT     H212086   1.205   0.857   0.910
 3959WAT      O12087   1.364   1.631   1.024
 3959WAT     H112088   1.371   1.711   1.076
 3959WAT     H212089   1.452   1.615   0.992
 3960WAT      O12090   0.899   1.358   1.918
 3960WAT     H112091   0.833   1.374   1.849
 3960WAT     H212092   0.860   1.290   1.973
 3961WAT      O12093   1.027   1.737   1.764
 3961WAT     H112094   1.121   1.729   1.782
 3961WAT     H212095   0.996   1.798   1.830
 3962WAT      O12096   1.309   1.672   0.329
 3962WAT     H112097   1.303   1.648   0.236
 3962WAT     H212098   1.305   1.768   0.329
 3963WAT      O12099   0.488   1.157   1.759
 3963WAT     H112100   0.412   1.216   1.762
 3963WAT     H212101   0.493   1.130   1.667
 3964WAT      O12102   0.795   1.188   0.228
 3964WAT     H112103   0.740   1.221   0.300
 3964WAT     H212104   0.850   1.121   0.270
 3965WAT      O12105   1.195   1.319   1.812
 3965WAT     H112106   1.267   1.350   1.758
 3965WAT     H212107   1.117   1.363   1.777
 3966WAT      O12108   0.345   1.073   0.423
 3966WAT     H112109   0.399   1.064   0.501
 3966WAT     H212110   0.360   0.992   0.374
 3967WAT      O12111   1.051   1.097   1.695
 3967WAT     H112112   1.106   1.155   1.747
 3967WAT     H212113   0.963   1.132   1.706
 3968WAT      O12114   1.122   0.850   1.864
 3968WAT     H112115   1.185   0.785   1.834
 3968WAT     H212116   1.126   0.920   1.799
 3969WAT      O12117   0.505   0.259   1.420
 3969WAT     H112118   0.472   0.253   1.331
 3969WAT     H212119   0.456   0.193   1.469
 3970WAT      O12120   0.513   1.126   1.487
 3970WAT     H112121   0.587   1.179   1.456
 3970WAT     H212122   0.443   1.145   1.425
 3971WAT      O12123   0.769   0.879   1.609
 3971WAT     H112124   0.798   0.838   1.690
 3971WAT     H212125   0.850   0.891   1.558
 3972WAT      O12126   0.994   0.950   1.466
 3972WAT     H112127   0.983   1.010   1.392
 3972WAT     H212128   1.032   1.004   1.535
 3973WAT      O12129   0.334   1.757   1.589
 3973WAT     H112130   0.259   1.803   1.551
 3973WAT     H212131   0.361   1.695   1.522
 3974WAT      O12132   0.464   0.540   1.731
 3974WAT     H112133   0.517   0.510   1.804
 3974WAT     H212134   0.389   0.481   1.728
 3975WAT      O12135   0.942   0.509   1.770
 3975WAT     H112136   0.867   0.455   1.747
 3975WAT     H212137   1.003   0.449   1.813
 3976WAT      O12138   0.607   1.866   1.601
 3976WAT     H112139   0.601   1.949   1.648
 3976WAT     H212140   0.519   1.829   1.608
 3977WAT      O12141   0.653   1.792   0.377
 3977WAT     H112142   0.743   1.827   0.380
 3977WAT     H212143   0.659   1.717   0.319
 3978WAT      O12144   0.226   1.445   0.704
 3978WAT     H112145   0.181   1.430   0.788
 3978WAT     H212146   0.211   1.365   0.654
 3979WAT      O12147   1.389   1.647   1.616
 3979WAT     H112148   1.307   1.660   1.568
 3979WAT     H212149   1.389   1.554   1.640
 3980WAT      O12150   1.423   1.073   0.416
 3980WAT     H112151   1.490   1.141   0.414
 3980WAT     H212152   1.436   1.029   0.500
 3981WAT      O12153   1.542   1.175   0.935
 3981WAT     H112154   1.574   1.094   0.895
 3981WAT     H212155   1.596   1.244   0.896
 3982WAT      O12156   1.204   1.305   1.449
 3982WAT     H112157   1.143   1.363   1.494
 3982WAT     H212158   1.252   1.362   1.389
 3983WAT      O12159   1.088   0.417   0.278
 3983WAT     H112160   1.113   0.402   0.187
 3983WAT     H212161   1.011   0.362   0.291
 3984WAT      O12162   1.425   0.915   0.648
 3984WAT     H112163   1.392   0.830   0.618
 3984WAT     H212164   1.350   0.955   0.692
 3985WAT      O12165   1.373   0.819   1.613
 3985WAT     H112166   1.360   0.798   1.520
 3985WAT     H212167   1.376   0.915   1.615
 3986WAT      O12168   1.209   0.345   1.900
 3986WAT     H112169   1.299   0.343   1.935
 3986WAT     H212170   1.212   0.288   1.823
 3987WAT      O12171   1.339   0.744   0.974
 3987WAT     H112172   1.383   0.689   0.908
 3987WAT     H212173   1.410   0.779   1.027
 3988WAT      O12174   1.367   0.739   1.331
 3988WAT     H112175   1.271   0.730   1.331
 3988WAT     H212176   1.382   0.829   1.302
 3989WAT      O12177   1.343   0.662   0.582
 3989WAT     H112178   1.369   0.619   0.663
 3989WAT     H212179   1.295   0.594   0.534
 3990WAT      O12180   1.445   0.528   0.819
 3990WAT     H112181   1.439   0.500   0.910
 3990WAT     H212182   1.529   0.495   0.788
 3991WAT      O12183   1.546   0.380   0.427
 3991WAT     H112184   1.453   0.374   0.450
 3991WAT     H212185   1.560   0.474   0.412
 3992WAT      O12186   1.251   1.788   0.820
 3992WAT     H112187   1.312   1.776   0.747
 3992WAT     H212188   1.276   1.720   0.883
 3993WAT      O12189   0.405   1.595   1.387
 3993WAT     H112190   0.372   1.611   1.298
 3993WAT     H212191   0.500   1.588   1.377
 3994WAT      O12192   0.605   0.230   1.758
 3994WAT     H112193   0.616   0.302   1.820
 3994WAT     H212194   0.695   0.207   1.733
 3995WAT      O12195   1.531   1.786   1.426
 3995WAT     H112196   1.460   1.837   1.386
 3995WAT     H212197   1.488   1.737   1.496
 3996WAT      O12198   1.048   0.278   1.489
 3996WAT     H112199   1.041   0.190   1.450
 3996WAT     H212200   1.142   0.296   1.491
 3997WAT      O12201   1.282   1.863   1.190
 3997WAT     H112202   1.248   1.938   1.141
 3997WAT     H212203   1.210   1.800   1.189
 3998WAT      O12204   0.355   1.678   1.128
 3998WAT     H112205   0.380   1.622   1.054
 3998WAT     H212206   0.426   1.742   1.134
 3999WAT      O12207   0.616   1.781   1.168
 3999WAT     H112208   0.657   1.753   1.086
 3999WAT     H212209   0.644   1.714   1.232
 4000WAT      O12210   1.175   0.227   1.069
 4000WAT     H112211   1.229   0.207   0.992
 4000WAT     H212212   1.157   0.320   1.062
 4001WAT      O12213   0.509   0.388   0.800
 4001WAT     H112214   0.438   0.327   0.780
 4001WAT     H212215   0.589   0.336   0.792
 4002WAT      O12216   0.610   1.867   1.925
 4002WAT     H112217   0.702   1.841   1.926
 4002WAT     H212218   0.609   1.950   1.877
 4003WAT      O12219   1.437   1.811   0.618
 4003WAT     H112220   1.441   1.730   0.568
 4003WAT     H212221   1.397   1.874   0.558
 4004WAT      O12222   0.235   1.808   0.374
 4004WAT     H112223   0.284   1.876   0.327
 4004WAT     H212224   0.257   1.822   0.466
 4005WAT      O12225   1.281   1.785   1.894
 4005WAT     H112226   1.361   1.732   1.900
 4005WAT     H212227   1.296   1.857   1.957
   4.97495   5.65703   5.83016
