Generic title
12227
    1ILE      N    1   1.583   1.591   3.795
    1ILE     H1    2   1.628   1.509   3.834
    1ILE     H2    3   1.576   1.583   3.694
    1ILE     H3    4   1.487   1.599   3.828
    1ILE     CA    5   1.660   1.713   3.830
    1ILE     HA    6   1.639   1.787   3.753
    1ILE     CB    7   1.612   1.772   3.965
    1ILE     HB    8   1.504   1.783   3.959
    1ILE    CG2    9   1.644   1.681   4.085
    1ILE   HG21   10   1.751   1.675   4.102
    1ILE   HG22   11   1.597   1.721   4.175
    1ILE   HG23   12   1.604   1.581   4.070
    1ILE    CG1   13   1.670   1.914   3.984
    1ILE   HG12   14   1.655   1.971   3.892
    1ILE   HG13   15   1.778   1.909   4.003
    1ILE    CD1   16   1.606   1.993   4.098
    1ILE   HD11   17   1.630   1.948   4.194
    1ILE   HD12   18   1.644   2.095   4.098
    1ILE   HD13   19   1.497   1.997   4.085
    1ILE      C   20   1.810   1.683   3.828
    1ILE      O   21   1.848   1.572   3.861
    2LEU      N   22   1.894   1.781   3.791
    2LEU      H   23   1.856   1.870   3.762
    2LEU     CA   24   2.041   1.778   3.802
    2LEU     HA   25   2.068   1.727   3.895
    2LEU     CB   26   2.098   1.699   3.682
    2LEU    HB2   27   2.052   1.600   3.680
    2LEU    HB3   28   2.069   1.750   3.590
    2LEU     CG   29   2.251   1.681   3.679
    2LEU     HG   30   2.300   1.778   3.671
    2LEU    CD1   31   2.305   1.609   3.804
    2LEU   HD11   32   2.256   1.511   3.814
    2LEU   HD12   33   2.412   1.594   3.794
    2LEU   HD13   34   2.286   1.667   3.893
    2LEU    CD2   35   2.292   1.598   3.557
    2LEU   HD21   36   2.256   1.647   3.466
    2LEU   HD22   37   2.400   1.591   3.552
    2LEU   HD23   38   2.250   1.498   3.564
    2LEU      C   39   2.096   1.923   3.808
    2LEU      O   40   2.028   2.014   3.761
    3ARG      N   41   2.216   1.944   3.864
    3ARG      H   42   2.265   1.865   3.903
    3ARG     CA   43   2.288   2.073   3.864
    3ARG     HA   44   2.270   2.124   3.769
    3ARG     CB   45   2.232   2.161   3.978
    3ARG    HB2   46   2.124   2.173   3.965
    3ARG    HB3   47   2.249   2.111   4.074
    3ARG     CG   48   2.295   2.301   3.983
    3ARG    HG2   49   2.401   2.293   4.007
    3ARG    HG3   50   2.284   2.349   3.886
    3ARG     CD   51   2.229   2.389   4.090
    3ARG    HD2   52   2.123   2.402   4.065
    3ARG    HD3   53   2.236   2.340   4.187
    3ARG     NE   54   2.295   2.521   4.097
    3ARG     HE   55   2.369   2.538   4.031
    3ARG     CZ   56   2.267   2.618   4.182
    3ARG    NH1   57   2.168   2.613   4.267
    3ARG   HH11   58   2.099   2.540   4.262
    3ARG   HH12   59   2.156   2.693   4.329
    3ARG    NH2   60   2.340   2.726   4.185
    3ARG   HH21   61   2.418   2.739   4.123
    3ARG   HH22   62   2.314   2.798   4.252
    3ARG      C   63   2.440   2.052   3.880
    3ARG      O   64   2.481   1.970   3.961
    4TRP      N   65   2.521   2.131   3.809
    4TRP      H   66   2.479   2.197   3.746
    4TRP     CA   67   2.668   2.142   3.826
    4TRP     HA   68   2.691   2.108   3.926
    4TRP     CB   69   2.733   2.043   3.726
    4TRP    HB2   70   2.667   1.957   3.716
    4TRP    HB3   71   2.736   2.090   3.628
    4TRP     CG   72   2.869   1.982   3.754
    4TRP    CD1   73   2.942   1.919   3.659
    4TRP    HD1   74   2.908   1.903   3.557
    4TRP    NE1   75   3.067   1.887   3.707
    4TRP    HE1   76   3.138   1.843   3.650
    4TRP    CE2   77   3.085   1.933   3.835
    4TRP    CZ2   78   3.198   1.940   3.917
    4TRP    HZ2   79   3.294   1.904   3.882
    4TRP    CH2   80   3.187   1.998   4.045
    4TRP    HH2   81   3.273   2.006   4.109
    4TRP    CZ3   82   3.061   2.043   4.089
    4TRP    HZ3   83   3.052   2.085   4.188
    4TRP    CE3   84   2.948   2.035   4.006
    4TRP    HE3   85   2.855   2.074   4.043
    4TRP    CD2   86   2.957   1.984   3.874
    4TRP      C   87   2.706   2.294   3.821
    4TRP      O   88   2.618   2.373   3.857
    5PRO      N   89   2.828   2.344   3.788
    5PRO     CD   90   2.947   2.278   3.735
    5PRO    HD2   91   2.927   2.232   3.638
    5PRO    HD3   92   2.982   2.206   3.807
    5PRO     CG   93   3.058   2.382   3.723
    5PRO    HG2   94   3.057   2.428   3.624
    5PRO    HG3   95   3.156   2.339   3.744
    5PRO     CB   96   3.016   2.483   3.830
    5PRO    HB2   97   3.062   2.581   3.814
    5PRO    HB3   98   3.040   2.445   3.929
    5PRO     CA   99   2.864   2.485   3.810
    5PRO     HA  100   2.817   2.524   3.900
    5PRO      C  101   2.828   2.575   3.691
    5PRO      O  102   2.800   2.527   3.581
    6TRP      N  103   2.838   2.707   3.710
    6TRP      H  104   2.862   2.742   3.802
    6TRP     CA  105   2.836   2.805   3.601
    6TRP     HA  106   2.881   2.756   3.515
    6TRP     CB  107   2.691   2.839   3.567
    6TRP    HB2  108   2.634   2.746   3.560
    6TRP    HB3  109   2.649   2.896   3.650
    6TRP     CG  110   2.663   2.915   3.440
    6TRP    CD1  111   2.556   2.996   3.423
    6TRP    HD1  112   2.481   3.015   3.499
    6TRP    NE1  113   2.557   3.050   3.297
    6TRP    HE1  114   2.487   3.115   3.264
    6TRP    CE2  115   2.666   3.007   3.224
    6TRP    CZ2  116   2.709   3.035   3.094
    6TRP    HZ2  117   2.652   3.102   3.030
    6TRP    CH2  118   2.826   2.975   3.046
    6TRP    HH2  119   2.860   2.994   2.946
    6TRP    CZ3  120   2.898   2.887   3.129
    6TRP    HZ3  121   2.988   2.841   3.091
    6TRP    CE3  122   2.853   2.858   3.259
    6TRP    HE3  123   2.909   2.787   3.317
    6TRP    CD2  124   2.736   2.919   3.312
    6TRP      C  125   2.920   2.931   3.632
    6TRP      O  126   2.947   2.960   3.748
    7TRP      N  127   2.963   3.002   3.527
    7TRP      H  128   2.931   2.972   3.436
    7TRP     CA  129   3.030   3.133   3.531
    7TRP     HA  130   2.988   3.186   3.616
    7TRP     CB  131   3.180   3.111   3.564
    7TRP    HB2  132   3.186   3.034   3.641
    7TRP    HB3  133   3.229   3.071   3.476
    7TRP     CG  134   3.262   3.226   3.617
    7TRP    CD1  135   3.397   3.219   3.630
    7TRP    HD1  136   3.456   3.130   3.613
    7TRP    NE1  137   3.449   3.344   3.657
    7TRP    HE1  138   3.549   3.361   3.665
    7TRP    CE2  139   3.350   3.440   3.660
    7TRP    CZ2  140   3.354   3.579   3.673
    7TRP    HZ2  141   3.449   3.631   3.681
    7TRP    CH2  142   3.234   3.652   3.673
    7TRP    HH2  143   3.235   3.759   3.681
    7TRP    CZ3  144   3.112   3.583   3.661
    7TRP    HZ3  145   3.019   3.639   3.661
    7TRP    CE3  146   3.109   3.443   3.646
    7TRP    HE3  147   3.013   3.395   3.635
    7TRP    CD2  148   3.228   3.367   3.644
    7TRP      C  149   2.985   3.213   3.404
    7TRP      O  150   2.864   3.232   3.397
    8PRO      N  151   3.065   3.257   3.302
    8PRO     CD  152   3.205   3.297   3.307
    8PRO    HD2  153   3.269   3.222   3.260
    8PRO    HD3  154   3.239   3.317   3.406
    8PRO     CG  155   3.216   3.431   3.232
    8PRO    HG2  156   3.278   3.419   3.143
    8PRO    HG3  157   3.257   3.509   3.296
    8PRO     CB  158   3.072   3.464   3.193
    8PRO    HB2  159   3.066   3.520   3.100
    8PRO    HB3  160   3.023   3.518   3.274
    8PRO     CA  161   3.011   3.324   3.182
    8PRO     HA  162   2.902   3.331   3.185
    8PRO      C  163   3.052   3.260   3.047
    8PRO      O  164   3.143   3.176   3.041
    9TRP      N  165   2.994   3.305   2.935
    9TRP      H  166   2.918   3.371   2.943
    9TRP     CA  167   3.046   3.281   2.799
    9TRP     HA  168   3.155   3.288   2.805
    9TRP     CB  169   3.010   3.138   2.754
    9TRP    HB2  170   3.045   3.068   2.831
    9TRP    HB3  171   2.902   3.130   2.750
    9TRP     CG  172   3.066   3.089   2.624
    9TRP    CD1  173   2.999   3.009   2.538
    9TRP    HD1  174   2.898   2.971   2.554
    9TRP    NE1  175   3.077   2.981   2.428
    9TRP    HE1  176   3.048   2.920   2.351
    9TRP    CE2  177   3.199   3.043   2.436
    9TRP    CZ2  178   3.309   3.048   2.348
    9TRP    HZ2  179   3.303   2.998   2.253
    9TRP    CH2  180   3.422   3.123   2.385
    9TRP    HH2  181   3.505   3.133   2.316
    9TRP    CZ3  182   3.426   3.188   2.510
    9TRP    HZ3  183   3.512   3.247   2.536
    9TRP    CE3  184   3.316   3.180   2.598
    9TRP    HE3  185   3.323   3.230   2.693
    9TRP    CD2  186   3.198   3.110   2.563
    9TRP      C  187   2.998   3.385   2.695
    9TRP      O  188   2.890   3.441   2.709
   10ARG      N  189   3.078   3.407   2.589
   10ARG      H  190   3.162   3.350   2.583
   10ARG     CA  191   3.054   3.497   2.474
   10ARG     HA  192   2.947   3.515   2.464
   10ARG     CB  193   3.127   3.631   2.499
   10ARG    HB2  194   3.085   3.679   2.588
   10ARG    HB3  195   3.232   3.611   2.519
   10ARG     CG  196   3.118   3.730   2.381
   10ARG    HG2  197   3.158   3.683   2.292
   10ARG    HG3  198   3.013   3.755   2.363
   10ARG     CD  199   3.198   3.860   2.403
   10ARG    HD2  200   3.153   3.916   2.485
   10ARG    HD3  201   3.300   3.833   2.431
   10ARG     NE  202   3.199   3.941   2.280
   10ARG     HE  203   3.138   3.911   2.206
   10ARG     CZ  204   3.275   4.046   2.253
   10ARG    NH1  205   3.356   4.099   2.340
   10ARG   HH11  206   3.361   4.063   2.433
   10ARG   HH12  207   3.399   4.189   2.318
   10ARG    NH2  208   3.272   4.099   2.134
   10ARG   HH21  209   3.213   4.062   2.063
   10ARG   HH22  210   3.343   4.165   2.106
   10ARG      C  211   3.105   3.432   2.345
   10ARG      O  212   3.216   3.379   2.345
   11ARG      N  213   3.033   3.444   2.233
   11ARG      H  214   2.945   3.494   2.239
   11ARG     CA  215   3.078   3.403   2.098
   11ARG     HA  216   3.183   3.374   2.105
   11ARG     CB  217   2.998   3.277   2.055
   11ARG    HB2  218   3.004   3.204   2.137
   11ARG    HB3  219   2.893   3.304   2.041
   11ARG     CG  220   3.051   3.209   1.928
   11ARG    HG2  221   3.024   3.270   1.841
   11ARG    HG3  222   3.160   3.202   1.933
   11ARG     CD  223   2.995   3.068   1.905
   11ARG    HD2  224   3.028   3.003   1.987
   11ARG    HD3  225   2.886   3.073   1.907
   11ARG     NE  226   3.039   3.012   1.776
   11ARG     HE  227   3.094   3.072   1.716
   11ARG     CZ  228   3.010   2.892   1.727
   11ARG    NH1  229   2.940   2.804   1.794
   11ARG   HH11  230   2.912   2.823   1.891
   11ARG   HH12  231   2.922   2.713   1.758
   11ARG    NH2  232   3.049   2.855   1.608
   11ARG   HH21  233   3.106   2.915   1.550
   11ARG   HH22  234   3.022   2.765   1.573
   11ARG      C  235   3.071   3.521   1.999
   11ARG      O  236   3.011   3.623   2.030
   12LYS      N  237   3.134   3.506   1.883
   12LYS      H  238   3.184   3.419   1.868
   12LYS     CA  239   3.120   3.591   1.763
   12LYS     HA  240   3.021   3.637   1.764
   12LYS     CB  241   3.227   3.702   1.765
   12LYS    HB2  242   3.227   3.747   1.864
   12LYS    HB3  243   3.326   3.660   1.747
   12LYS     CG  244   3.199   3.813   1.662
   12LYS    HG2  245   3.223   3.778   1.562
   12LYS    HG3  246   3.092   3.837   1.666
   12LYS     CD  247   3.278   3.942   1.690
   12LYS    HD2  248   3.268   3.967   1.796
   12LYS    HD3  249   3.383   3.927   1.666
   12LYS     CE  250   3.220   4.057   1.606
   12LYS    HE2  251   3.231   4.035   1.500
   12LYS    HE3  252   3.113   4.064   1.628
   12LYS     NZ  253   3.284   4.187   1.639
   12LYS    HZ1  254   3.371   4.200   1.590
   12LYS    HZ2  255   3.219   4.263   1.617
   12LYS    HZ3  256   3.305   4.193   1.738
   12LYS      C  257   3.127   3.502   1.637
   12LYS      O  258   3.174   3.389   1.645
   13NHE      N  259   3.081   3.550   1.522
   13NHE    HN1  260   3.039   3.641   1.518
   13NHE    HN2  261   3.088   3.492   1.440
   14Cl-    Cl-  262   3.485   4.179   1.893
   15Cl-    Cl-  263   2.825   3.995   1.642
   16Cl-    Cl-  264   1.384   1.753   3.623
   17Cl-    Cl-  265   2.184   2.909   4.396
   18Cl-    Cl-  266   2.842   2.760   2.098
   19WAT      O  267   4.572   4.638   4.631
   19WAT     H1  268   4.590   4.544   4.633
   19WAT     H2  269   4.542   4.655   4.542
   20WAT      O  270   4.448   4.811   4.800
   20WAT     H1  271   4.400   4.761   4.866
   20WAT     H2  272   4.491   4.745   4.746
   21WAT      O  273   3.844   4.860   4.902
   21WAT     H1  274   3.781   4.799   4.940
   21WAT     H2  275   3.905   4.879   4.974
   22WAT      O  276   3.829   5.259   4.915
   22WAT     H1  277   3.873   5.182   4.880
   22WAT     H2  278   3.896   5.328   4.914
   23WAT      O  279   3.690   4.345   4.257
   23WAT     H1  280   3.595   4.357   4.257
   23WAT     H2  281   3.710   4.316   4.167
   24WAT      O  282   3.472   4.549   4.816
   24WAT     H1  283   3.542   4.484   4.826
   24WAT     H2  284   3.491   4.591   4.732
   25WAT      O  285   4.357   5.064   4.851
   25WAT     H1  286   4.383   4.975   4.828
   25WAT     H2  287   4.428   5.097   4.906
   26WAT      O  288   3.606   4.168   5.049
   26WAT     H1  289   3.599   4.075   5.071
   26WAT     H2  290   3.532   4.209   5.093
   27WAT      O  291   4.524   4.339   4.820
   27WAT     H1  292   4.555   4.258   4.860
   27WAT     H2  293   4.558   4.336   4.731
   28WAT      O  294   3.901   4.212   4.373
   28WAT     H1  295   3.920   4.267   4.449
   28WAT     H2  296   3.820   4.249   4.337
   29WAT      O  297   3.680   4.376   4.884
   29WAT     H1  298   3.761   4.406   4.925
   29WAT     H2  299   3.651   4.303   4.938
   30WAT      O  300   4.125   4.533   4.835
   30WAT     H1  301   4.189   4.579   4.889
   30WAT     H2  302   4.168   4.451   4.811
   31WAT      O  303   3.984   3.958   5.203
   31WAT     H1  304   3.951   4.028   5.147
   31WAT     H2  305   3.929   3.883   5.182
   32WAT      O  306   4.610   4.950   4.332
   32WAT     H1  307   4.553   4.988   4.266
   32WAT     H2  308   4.601   5.007   4.408
   33WAT      O  309   4.036   4.977   5.069
   33WAT     H1  310   4.004   5.035   5.139
   33WAT     H2  311   4.061   5.037   4.999
   34WAT      O  312   3.884   4.155   5.048
   34WAT     H1  313   3.914   4.245   5.032
   34WAT     H2  314   3.789   4.161   5.048
   35WAT      O  315   3.957   5.146   5.271
   35WAT     H1  316   4.023   5.207   5.239
   35WAT     H2  317   3.873   5.186   5.247
   36WAT      O  318   3.511   4.994   4.158
   36WAT     H1  319   3.478   5.043   4.083
   36WAT     H2  320   3.523   5.059   4.227
   37WAT      O  321   4.242   3.898   4.642
   37WAT     H1  322   4.261   3.827   4.582
   37WAT     H2  323   4.147   3.909   4.638
   38WAT      O  324   4.489   4.704   4.378
   38WAT     H1  325   4.395   4.722   4.375
   38WAT     H2  326   4.530   4.787   4.357
   39WAT      O  327   4.462   4.284   4.045
   39WAT     H1  328   4.374   4.307   4.076
   39WAT     H2  329   4.513   4.365   4.053
   40WAT      O  330   4.074   4.691   4.608
   40WAT     H1  331   4.023   4.623   4.563
   40WAT     H2  332   4.098   4.651   4.692
   41WAT      O  333   4.094   5.121   4.833
   41WAT     H1  334   4.059   5.060   4.768
   41WAT     H2  335   4.188   5.103   4.835
   42WAT      O  336   3.925   4.430   5.003
   42WAT     H1  337   3.984   4.466   4.937
   42WAT     H2  338   3.953   4.469   5.085
   43WAT      O  339   4.002   5.052   5.526
   43WAT     H1  340   3.977   4.960   5.538
   43WAT     H2  341   3.981   5.070   5.435
   44WAT      O  342   4.729   4.788   4.139
   44WAT     H1  343   4.824   4.802   4.131
   44WAT     H2  344   4.704   4.840   4.215
   45WAT      O  345   3.872   4.772   5.314
   45WAT     H1  346   3.826   4.856   5.322
   45WAT     H2  347   3.803   4.710   5.289
   46WAT      O  348   4.503   5.163   4.515
   46WAT     H1  349   4.532   5.250   4.542
   46WAT     H2  350   4.542   5.104   4.581
   47WAT      O  351   4.117   5.308   5.555
   47WAT     H1  352   4.062   5.355   5.492
   47WAT     H2  353   4.080   5.220   5.558
   48WAT      O  354   3.712   4.602   4.380
   48WAT     H1  355   3.719   4.674   4.317
   48WAT     H2  356   3.706   4.523   4.326
   49WAT      O  357   3.478   4.912   4.983
   49WAT     H1  358   3.458   4.923   4.890
   49WAT     H2  359   3.548   4.847   4.984
   50WAT      O  360   3.578   5.084   4.586
   50WAT     H1  361   3.558   5.120   4.500
   50WAT     H2  362   3.669   5.054   4.579
   51WAT      O  363   3.527   5.077   5.197
   51WAT     H1  364   3.507   5.024   5.120
   51WAT     H2  365   3.589   5.024   5.247
   52WAT      O  366   3.974   3.990   4.726
   52WAT     H1  367   3.923   4.067   4.701
   52WAT     H2  368   4.031   4.021   4.796
   53WAT      O  369   4.355   4.241   5.247
   53WAT     H1  370   4.313   4.244   5.333
   53WAT     H2  371   4.325   4.158   5.209
   54WAT      O  372   4.613   4.483   5.564
   54WAT     H1  373   4.638   4.392   5.547
   54WAT     H2  374   4.636   4.497   5.656
   55WAT      O  375   4.264   3.922   4.213
   55WAT     H1  376   4.190   3.926   4.275
   55WAT     H2  377   4.295   3.832   4.220
   56WAT      O  378   4.202   4.055   4.873
   56WAT     H1  379   4.221   4.144   4.846
   56WAT     H2  380   4.240   4.000   4.805
   57WAT      O  381   3.926   4.476   4.515
   57WAT     H1  382   3.881   4.418   4.576
   57WAT     H2  383   3.855   4.524   4.472
   58WAT      O  384   4.619   4.471   4.327
   58WAT     H1  385   4.564   4.548   4.339
   58WAT     H2  386   4.683   4.498   4.260
   59WAT      O  387   4.173   4.544   5.538
   59WAT     H1  388   4.175   4.449   5.526
   59WAT     H2  389   4.261   4.573   5.513
   60WAT      O  390   4.589   4.327   4.558
   60WAT     H1  391   4.598   4.374   4.474
   60WAT     H2  392   4.588   4.235   4.534
   61WAT      O  393   3.750   4.183   5.389
   61WAT     H1  394   3.698   4.258   5.358
   61WAT     H2  395   3.687   4.111   5.392
   62WAT      O  396   3.454   3.988   4.724
   62WAT     H1  397   3.418   4.048   4.789
   62WAT     H2  398   3.512   3.929   4.774
   63WAT      O  399   3.483   4.355   3.863
   63WAT     H1  400   3.472   4.436   3.912
   63WAT     H2  401   3.409   4.353   3.802
   64WAT      O  402   4.569   4.560   4.982
   64WAT     H1  403   4.481   4.598   4.981
   64WAT     H2  404   4.561   4.481   4.928
   65WAT      O  405   4.259   4.303   4.765
   65WAT     H1  406   4.260   4.270   4.675
   65WAT     H2  407   4.351   4.321   4.785
   66WAT      O  408   3.786   4.280   4.647
   66WAT     H1  409   3.747   4.311   4.728
   66WAT     H2  410   3.716   4.231   4.604
   67WAT      O  411   4.223   4.370   4.136
   67WAT     H1  412   4.211   4.386   4.230
   67WAT     H2  413   4.198   4.452   4.094
   68WAT      O  414   4.599   4.100   4.933
   68WAT     H1  415   4.622   4.142   5.016
   68WAT     H2  416   4.554   4.020   4.958
   69WAT      O  417   4.158   4.593   3.987
   69WAT     H1  418   4.104   4.543   3.926
   69WAT     H2  419   4.237   4.614   3.937
   70WAT      O  420   3.684   4.963   5.393
   70WAT     H1  421   3.636   4.897   5.443
   70WAT     H2  422   3.701   5.033   5.455
   71WAT      O  423   4.307   4.665   4.999
   71WAT     H1  424   4.308   4.596   5.066
   71WAT     H2  425   4.276   4.743   5.045
   72WAT      O  426   3.581   4.131   4.528
   72WAT     H1  427   3.543   4.068   4.590
   72WAT     H2  428   3.601   4.078   4.451
   73WAT      O  429   4.033   4.552   5.227
   73WAT     H1  430   4.020   4.645   5.245
   73WAT     H2  431   4.128   4.540   5.230
   74WAT      O  432   3.929   4.986   4.264
   74WAT     H1  433   3.853   4.929   4.256
   74WAT     H2  434   4.000   4.936   4.222
   75WAT      O  435   4.499   4.066   4.215
   75WAT     H1  436   4.413   4.023   4.211
   75WAT     H2  437   4.491   4.140   4.156
   76WAT      O  438   4.494   4.911   5.398
   76WAT     H1  439   4.513   4.819   5.381
   76WAT     H2  440   4.409   4.911   5.443
   77WAT      O  441   3.963   4.934   4.673
   77WAT     H1  442   4.001   4.852   4.643
   77WAT     H2  443   3.910   4.909   4.749
   78WAT      O  444   4.424   5.050   4.165
   78WAT     H1  445   4.416   5.135   4.121
   78WAT     H2  446   4.357   5.053   4.234
   79WAT      O  447   3.626   4.642   5.273
   79WAT     H1  448   3.594   4.688   5.351
   79WAT     H2  449   3.620   4.549   5.296
   80WAT      O  450   3.990   4.763   5.560
   80WAT     H1  451   3.945   4.747   5.477
   80WAT     H2  452   4.044   4.685   5.574
   81WAT      O  453   4.504   5.181   5.387
   81WAT     H1  454   4.507   5.085   5.389
   81WAT     H2  455   4.445   5.204   5.459
   82WAT      O  456   4.628   4.972   4.662
   82WAT     H1  457   4.685   4.901   4.635
   82WAT     H2  458   4.564   4.931   4.720
   83WAT      O  459   4.274   5.063   4.401
   83WAT     H1  460   4.345   5.108   4.446
   83WAT     H2  461   4.194   5.106   4.433
   84WAT      O  462   3.483   4.593   4.006
   84WAT     H1  463   3.578   4.595   4.018
   84WAT     H2  464   3.463   4.679   3.968
   85WAT      O  465   4.228   4.794   4.391
   85WAT     H1  466   4.241   4.888   4.406
   85WAT     H2  467   4.181   4.764   4.469
   86WAT      O  468   4.401   5.299   5.157
   86WAT     H1  469   4.435   5.268   5.241
   86WAT     H2  470   4.455   5.254   5.091
   87WAT      O  471   3.807   3.801   4.424
   87WAT     H1  472   3.741   3.751   4.472
   87WAT     H2  473   3.757   3.863   4.371
   88WAT      O  474   4.578   5.152   4.999
   88WAT     H1  475   4.625   5.136   5.081
   88WAT     H2  476   4.643   5.192   4.941
   89WAT      O  477   4.726   5.200   5.230
   89WAT     H1  478   4.797   5.241   5.280
   89WAT     H2  479   4.653   5.195   5.291
   90WAT      O  480   3.551   3.998   5.397
   90WAT     H1  481   3.468   4.017   5.442
   90WAT     H2  482   3.588   3.924   5.445
   91WAT      O  483   3.491   5.429   5.439
   91WAT     H1  484   3.484   5.368   5.512
   91WAT     H2  485   3.408   5.419   5.392
   92WAT      O  486   4.122   5.347   4.007
   92WAT     H1  487   4.105   5.335   3.914
   92WAT     H2  488   4.046   5.307   4.051
   93WAT      O  489   3.721   4.815   4.192
   93WAT     H1  490   3.645   4.872   4.177
   93WAT     H2  491   3.761   4.806   4.106
   94WAT      O  492   4.620   4.221   5.177
   94WAT     H1  493   4.667   4.282   5.234
   94WAT     H2  494   4.529   4.229   5.204
   95WAT      O  495   4.388   5.289   4.041
   95WAT     H1  496   4.406   5.280   3.948
   95WAT     H2  497   4.297   5.319   4.045
   96WAT      O  498   4.172   4.396   4.399
   96WAT     H1  499   4.096   4.429   4.447
   96WAT     H2  500   4.203   4.322   4.451
   97WAT      O  501   4.309   4.508   5.216
   97WAT     H1  502   4.376   4.552   5.269
   97WAT     H2  503   4.332   4.415   5.222
   98WAT      O  504   4.619   4.058   4.461
   98WAT     H1  505   4.565   4.058   4.382
   98WAT     H2  506   4.709   4.071   4.429
   99WAT      O  507   4.014   4.185   4.126
   99WAT     H1  508   4.096   4.233   4.117
   99WAT     H2  509   3.984   4.205   4.215
  100WAT      O  510   3.895   4.837   3.963
  100WAT     H1  511   3.975   4.830   4.014
  100WAT     H2  512   3.917   4.797   3.878
  101WAT      O  513   3.755   4.552   4.010
  101WAT     H1  514   3.752   4.456   4.014
  101WAT     H2  515   3.849   4.572   4.006
  102WAT      O  516   3.531   5.197   4.341
  102WAT     H1  517   3.442   5.228   4.324
  102WAT     H2  518   3.587   5.268   4.311
  103WAT      O  519   3.553   4.755   5.521
  103WAT     H1  520   3.595   4.722   5.600
  103WAT     H2  521   3.459   4.740   5.536
  104WAT      O  522   4.249   5.001   3.890
  104WAT     H1  523   4.229   4.945   3.965
  104WAT     H2  524   4.229   4.947   3.814
  105WAT      O  525   4.244   4.916   5.488
  105WAT     H1  526   4.179   4.973   5.528
  105WAT     H2  527   4.194   4.841   5.455
  106WAT      O  528   4.538   4.884   3.967
  106WAT     H1  529   4.489   4.942   4.026
  106WAT     H2  530   4.605   4.845   4.023
  107WAT      O  531   4.113   4.811   4.141
  107WAT     H1  532   4.159   4.802   4.224
  107WAT     H2  533   4.133   4.731   4.093
  108WAT      O  534   3.839   4.456   5.409
  108WAT     H1  535   3.864   4.364   5.418
  108WAT     H2  536   3.907   4.494   5.354
  109WAT      O  537   4.397   4.664   3.873
  109WAT     H1  538   4.463   4.612   3.827
  109WAT     H2  539   4.442   4.744   3.898
  110WAT      O  540   3.995   4.083   5.447
  110WAT     H1  541   4.007   4.035   5.366
  110WAT     H2  542   3.908   4.121   5.440
  111WAT      O  543   4.246   4.009   5.135
  111WAT     H1  544   4.226   4.031   5.044
  111WAT     H2  545   4.162   3.984   5.173
  112WAT      O  546   4.224   4.832   5.199
  112WAT     H1  547   4.278   4.896   5.244
  112WAT     H2  548   4.153   4.884   5.160
  113WAT      O  549   4.510   4.630   5.364
  113WAT     H1  550   4.544   4.581   5.438
  113WAT     H2  551   4.584   4.640   5.304
  114WAT      O  552   4.714   4.653   5.188
  114WAT     H1  553   4.665   4.620   5.112
  114WAT     H2  554   4.801   4.673   5.154
  115WAT      O  555   3.985   4.435   3.844
  115WAT     H1  556   3.965   4.343   3.861
  115WAT     H2  557   3.979   4.443   3.748
  116WAT      O  558   4.206   4.262   5.488
  116WAT     H1  559   4.271   4.194   5.506
  116WAT     H2  560   4.123   4.214   5.478
  117WAT      O  561   4.701   4.227   5.528
  117WAT     H1  562   4.656   4.146   5.504
  117WAT     H2  563   4.794   4.204   5.530
  118WAT      O  564   4.710   3.917   4.113
  118WAT     H1  565   4.696   3.833   4.157
  118WAT     H2  566   4.637   3.972   4.143
  119WAT      O  567   3.925   4.166   3.865
  119WAT     H1  568   3.962   4.100   3.807
  119WAT     H2  569   3.973   4.155   3.947
  120WAT      O  570   4.202   4.019   3.962
  120WAT     H1  571   4.140   3.958   3.922
  120WAT     H2  572   4.217   3.984   4.050
  121WAT      O  573   3.805   5.098   3.917
  121WAT     H1  574   3.839   5.147   3.992
  121WAT     H2  575   3.832   5.008   3.934
  122WAT      O  576   3.495   5.269   4.773
  122WAT     H1  577   3.522   5.205   4.707
  122WAT     H2  578   3.575   5.290   4.821
  123WAT      O  579   4.017   5.123   4.484
  123WAT     H1  580   3.992   5.064   4.555
  123WAT     H2  581   3.982   5.082   4.405
  124WAT      O  582   3.502   4.676   4.566
  124WAT     H1  583   3.430   4.680   4.502
  124WAT     H2  584   3.579   4.655   4.513
  125WAT      O  585   3.645   4.700   5.008
  125WAT     H1  586   3.641   4.675   5.100
  125WAT     H2  587   3.593   4.633   4.962
  126WAT      O  588   3.557   4.391   5.388
  126WAT     H1  589   3.481   4.381   5.446
  126WAT     H2  590   3.628   4.416   5.447
  127WAT      O  591   3.428   4.397   4.200
  127WAT     H1  592   3.355   4.421   4.257
  127WAT     H2  593   3.434   4.470   4.138
  128WAT      O  594   3.713   4.283   3.994
  128WAT     H1  595   3.775   4.234   3.941
  128WAT     H2  596   3.634   4.288   3.940
  129WAT      O  597   3.667   3.924   3.901
  129WAT     H1  598   3.732   3.955   3.965
  129WAT     H2  599   3.717   3.912   3.820
  130WAT      O  600   3.627   3.833   4.874
  130WAT     H1  601   3.714   3.803   4.849
  130WAT     H2  602   3.637   3.865   4.964
  131WAT      O  603   3.590   3.907   5.141
  131WAT     H1  604   3.588   3.942   5.230
  131WAT     H2  605   3.536   3.828   5.145
  132WAT      O  606   4.130   5.308   5.147
  132WAT     H1  607   4.112   5.352   5.064
  132WAT     H2  608   4.226   5.310   5.154
  133WAT      O  609   4.358   4.034   5.479
  133WAT     H1  610   4.307   3.980   5.539
  133WAT     H2  611   4.448   4.001   5.486
  134WAT      O  612   4.630   3.964   5.467
  134WAT     H1  613   4.634   3.938   5.375
  134WAT     H2  614   4.665   3.890   5.515
  135WAT      O  615   3.658   3.782   5.509
  135WAT     H1  616   3.739   3.754   5.468
  135WAT     H2  617   3.605   3.702   5.515
  136WAT      O  618   3.740   5.485   5.336
  136WAT     H1  619   3.654   5.474   5.376
  136WAT     H2  620   3.747   5.413   5.274
  137WAT      O  621   4.642   3.828   5.231
  137WAT     H1  622   4.592   3.854   5.153
  137WAT     H2  623   4.619   3.737   5.245
  138WAT      O  624   3.731   5.262   5.170
  138WAT     H1  625   3.650   5.211   5.173
  138WAT     H2  626   3.755   5.265   5.078
  139WAT      O  627   4.078   5.389   4.886
  139WAT     H1  628   4.094   5.298   4.858
  139WAT     H2  629   4.118   5.442   4.817
  140WAT      O  630   4.461   3.878   5.024
  140WAT     H1  631   4.391   3.922   5.073
  140WAT     H2  632   4.417   3.808   4.976
  141WAT      O  633   3.625   3.974   4.275
  141WAT     H1  634   3.697   3.987   4.214
  141WAT     H2  635   3.553   4.025   4.239
  142WAT      O  636   4.235   4.154   4.526
  142WAT     H1  637   4.170   4.109   4.471
  142WAT     H2  638   4.286   4.083   4.565
  143WAT      O  639   4.628   3.838   4.636
  143WAT     H1  640   4.636   3.879   4.722
  143WAT     H2  641   4.615   3.910   4.575
  144WAT      O  642   3.699   5.398   4.250
  144WAT     H1  643   3.671   5.444   4.171
  144WAT     H2  644   3.729   5.467   4.309
  145WAT      O  645   3.841   3.973   4.108
  145WAT     H1  646   3.894   3.894   4.116
  145WAT     H2  647   3.903   4.045   4.112
  146WAT      O  648   4.045   3.978   4.397
  146WAT     H1  649   3.982   3.908   4.416
  146WAT     H2  650   3.991   4.056   4.383
  147WAT      O  651   4.150   3.924   5.617
  147WAT     H1  652   4.090   3.981   5.569
  147WAT     H2  653   4.094   3.853   5.649
  148WAT      O  654   3.900   5.231   4.138
  148WAT     H1  655   3.836   5.281   4.188
  148WAT     H2  656   3.917   5.154   4.192
  149WAT      O  657   4.565   4.634   2.754
  149WAT     H1  658   4.583   4.540   2.753
  149WAT     H2  659   4.538   4.654   2.664
  150WAT      O  660   4.452   4.815   2.922
  150WAT     H1  661   4.402   4.766   2.988
  150WAT     H2  662   4.492   4.747   2.867
  151WAT      O  663   3.846   4.849   3.029
  151WAT     H1  664   3.780   4.794   3.072
  151WAT     H2  665   3.912   4.864   3.098
  152WAT      O  666   3.833   5.261   3.046
  152WAT     H1  667   3.878   5.183   3.014
  152WAT     H2  668   3.900   5.330   3.043
  153WAT      O  669   3.677   4.296   2.372
  153WAT     H1  670   3.587   4.329   2.372
  153WAT     H2  671   3.695   4.277   2.280
  154WAT      O  672   3.458   4.536   2.924
  154WAT     H1  673   3.535   4.485   2.951
  154WAT     H2  674   3.487   4.585   2.848
  155WAT      O  675   4.356   5.066   2.982
  155WAT     H1  676   4.389   4.979   2.957
  155WAT     H2  677   4.425   5.101   3.039
  156WAT      O  678   3.615   4.178   3.192
  156WAT     H1  679   3.607   4.084   3.208
  156WAT     H2  680   3.545   4.218   3.244
  157WAT      O  681   4.521   4.339   2.943
  157WAT     H1  682   4.553   4.257   2.979
  157WAT     H2  683   4.557   4.342   2.854
  158WAT      O  684   3.889   4.198   2.510
  158WAT     H1  685   3.907   4.269   2.571
  158WAT     H2  686   3.814   4.228   2.459
  159WAT      O  687   3.676   4.394   3.029
  159WAT     H1  688   3.761   4.420   3.065
  159WAT     H2  689   3.649   4.319   3.082
  160WAT      O  690   4.126   4.528   2.952
  160WAT     H1  691   4.191   4.575   3.004
  160WAT     H2  692   4.168   4.445   2.931
  161WAT      O  693   3.965   3.952   3.323
  161WAT     H1  694   3.956   4.033   3.271
  161WAT     H2  695   3.881   3.908   3.313
  162WAT      O  696   4.608   4.953   2.452
  162WAT     H1  697   4.550   4.986   2.384
  162WAT     H2  698   4.598   5.015   2.525
  163WAT      O  699   4.059   4.958   3.183
  163WAT     H1  700   4.016   5.015   3.247
  163WAT     H2  701   4.079   5.016   3.110
  164WAT      O  702   3.895   4.172   3.185
  164WAT     H1  703   3.922   4.262   3.165
  164WAT     H2  704   3.799   4.176   3.189
  165WAT      O  705   3.952   5.141   3.353
  165WAT     H1  706   4.015   5.209   3.330
  165WAT     H2  707   3.867   5.182   3.340
  166WAT      O  708   3.520   5.002   2.282
  166WAT     H1  709   3.485   5.049   2.206
  166WAT     H2  710   3.529   5.069   2.350
  167WAT      O  711   4.222   3.884   2.758
  167WAT     H1  712   4.258   3.810   2.710
  167WAT     H2  713   4.153   3.918   2.701
  168WAT      O  714   4.489   4.705   2.501
  168WAT     H1  715   4.395   4.725   2.499
  168WAT     H2  716   4.531   4.789   2.481
  169WAT      O  717   4.474   4.288   2.185
  169WAT     H1  718   4.384   4.310   2.206
  169WAT     H2  719   4.526   4.357   2.226
  170WAT      O  720   4.069   4.687   2.728
  170WAT     H1  721   4.018   4.620   2.681
  170WAT     H2  722   4.095   4.645   2.810
  171WAT      O  723   4.094   5.121   2.956
  171WAT     H1  724   4.060   5.061   2.889
  171WAT     H2  725   4.188   5.104   2.958
  172WAT      O  726   3.926   4.442   3.127
  172WAT     H1  727   3.988   4.475   3.062
  172WAT     H2  728   3.956   4.482   3.209
  173WAT      O  729   3.993   5.088   3.613
  173WAT     H1  730   3.904   5.097   3.647
  173WAT     H2  731   3.984   5.100   3.519
  174WAT      O  732   4.727   4.788   2.262
  174WAT     H1  733   4.817   4.814   2.241
  174WAT     H2  734   4.702   4.843   2.336
  175WAT      O  735   3.870   4.776   3.459
  175WAT     H1  736   3.831   4.863   3.462
  175WAT     H2  737   3.798   4.718   3.434
  176WAT      O  738   4.508   5.160   2.636
  176WAT     H1  739   4.532   5.250   2.660
  176WAT     H2  740   4.547   5.106   2.705
  177WAT      O  741   4.101   5.314   3.727
  177WAT     H1  742   4.066   5.379   3.666
  177WAT     H2  743   4.070   5.230   3.695
  178WAT      O  744   3.714   4.599   2.490
  178WAT     H1  745   3.721   4.679   2.437
  178WAT     H2  746   3.705   4.529   2.425
  179WAT      O  747   3.478   4.911   3.114
  179WAT     H1  748   3.461   4.920   3.020
  179WAT     H2  749   3.547   4.845   3.120
  180WAT      O  750   3.580   5.087   2.709
  180WAT     H1  751   3.559   5.125   2.624
  180WAT     H2  752   3.671   5.059   2.701
  181WAT      O  753   3.512   5.087   3.324
  181WAT     H1  754   3.494   5.032   3.248
  181WAT     H2  755   3.574   5.036   3.377
  182WAT      O  756   3.930   4.025   2.877
  182WAT     H1  757   3.896   4.112   2.858
  182WAT     H2  758   4.009   4.041   2.930
  183WAT      O  759   4.360   4.246   3.369
  183WAT     H1  760   4.316   4.261   3.453
  183WAT     H2  761   4.318   4.168   3.333
  184WAT      O  762   4.594   4.518   3.735
  184WAT     H1  763   4.604   4.426   3.710
  184WAT     H2  764   4.683   4.546   3.758
  185WAT      O  765   4.285   3.906   2.320
  185WAT     H1  766   4.197   3.886   2.353
  185WAT     H2  767   4.330   3.822   2.318
  186WAT      O  768   4.185   4.043   2.987
  186WAT     H1  769   4.214   4.130   2.959
  186WAT     H2  770   4.213   3.985   2.916
  187WAT      O  771   3.917   4.470   2.634
  187WAT     H1  772   3.871   4.421   2.702
  187WAT     H2  773   3.849   4.518   2.588
  188WAT      O  774   4.613   4.473   2.432
  188WAT     H1  775   4.559   4.549   2.450
  188WAT     H2  776   4.689   4.508   2.386
  189WAT      O  777   4.192   4.588   3.637
  189WAT     H1  778   4.206   4.495   3.621
  189WAT     H2  779   4.279   4.627   3.629
  190WAT      O  780   4.588   4.341   2.676
  190WAT     H1  781   4.595   4.382   2.590
  190WAT     H2  782   4.589   4.247   2.658
  191WAT      O  783   3.745   4.216   3.520
  191WAT     H1  784   3.683   4.287   3.536
  191WAT     H2  785   3.690   4.138   3.512
  192WAT      O  786   4.346   4.180   3.810
  192WAT     H1  787   4.290   4.126   3.865
  192WAT     H2  788   4.406   4.223   3.872
  193WAT      O  789   3.506   3.999   2.841
  193WAT     H1  790   3.442   4.046   2.894
  193WAT     H2  791   3.547   3.937   2.902
  194WAT      O  792   4.558   4.559   3.112
  194WAT     H1  793   4.470   4.596   3.105
  194WAT     H2  794   4.556   4.481   3.057
  195WAT      O  795   4.257   4.294   2.890
  195WAT     H1  796   4.263   4.260   2.800
  195WAT     H2  797   4.348   4.314   2.913
  196WAT      O  798   3.770   4.297   2.788
  196WAT     H1  799   3.740   4.330   2.873
  196WAT     H2  800   3.690   4.264   2.746
  197WAT      O  801   4.227   4.367   2.259
  197WAT     H1  802   4.209   4.380   2.352
  197WAT     H2  803   4.208   4.452   2.219
  198WAT      O  804   4.593   4.093   3.044
  198WAT     H1  805   4.619   4.135   3.126
  198WAT     H2  806   4.544   4.015   3.070
  199WAT      O  807   4.174   4.600   2.121
  199WAT     H1  808   4.110   4.552   2.069
  199WAT     H2  809   4.246   4.617   2.061
  200WAT      O  810   3.672   4.969   3.509
  200WAT     H1  811   3.624   4.909   3.566
  200WAT     H2  812   3.693   5.044   3.564
  201WAT      O  813   4.296   4.678   3.115
  201WAT     H1  814   4.299   4.620   3.191
  201WAT     H2  815   4.246   4.754   3.145
  202WAT      O  816   3.553   4.172   2.643
  202WAT     H1  817   3.544   4.103   2.709
  202WAT     H2  818   3.623   4.142   2.586
  203WAT      O  819   4.028   4.557   3.356
  203WAT     H1  820   4.007   4.645   3.388
  203WAT     H2  821   4.123   4.553   3.356
  204WAT      O  822   3.931   4.992   2.390
  204WAT     H1  823   3.855   4.935   2.382
  204WAT     H2  824   4.002   4.943   2.347
  205WAT      O  825   4.506   4.065   2.345
  205WAT     H1  826   4.424   4.017   2.334
  205WAT     H2  827   4.498   4.140   2.286
  206WAT      O  828   4.439   4.916   3.532
  206WAT     H1  829   4.466   4.824   3.527
  206WAT     H2  830   4.361   4.914   3.588
  207WAT      O  831   3.961   4.931   2.799
  207WAT     H1  832   3.998   4.849   2.766
  207WAT     H2  833   3.909   4.905   2.875
  208WAT      O  834   4.419   5.044   2.283
  208WAT     H1  835   4.413   5.129   2.239
  208WAT     H2  836   4.354   5.049   2.353
  209WAT      O  837   3.620   4.651   3.420
  209WAT     H1  838   3.578   4.710   3.482
  209WAT     H2  839   3.606   4.563   3.457
  210WAT      O  840   3.956   4.715   3.714
  210WAT     H1  841   3.935   4.748   3.626
  210WAT     H2  842   4.041   4.672   3.703
  211WAT      O  843   4.493   5.180   3.529
  211WAT     H1  844   4.481   5.085   3.527
  211WAT     H2  845   4.449   5.208   3.610
  212WAT      O  846   4.633   4.982   2.798
  212WAT     H1  847   4.695   4.916   2.769
  212WAT     H2  848   4.568   4.933   2.849
  213WAT      O  849   4.275   5.064   2.524
  213WAT     H1  850   4.348   5.108   2.568
  213WAT     H2  851   4.197   5.106   2.558
  214WAT      O  852   3.487   4.597   2.168
  214WAT     H1  853   3.583   4.590   2.168
  214WAT     H2  854   3.469   4.672   2.110
  215WAT      O  855   4.229   4.795   2.517
  215WAT     H1  856   4.242   4.888   2.533
  215WAT     H2  857   4.179   4.765   2.593
  216WAT      O  858   4.393   5.293   3.295
  216WAT     H1  859   4.427   5.264   3.380
  216WAT     H2  860   4.453   5.254   3.231
  217WAT      O  861   3.843   3.743   2.606
  217WAT     H1  862   3.853   3.736   2.701
  217WAT     H2  863   3.776   3.810   2.595
  218WAT      O  864   4.578   5.160   3.131
  218WAT     H1  865   4.628   5.160   3.213
  218WAT     H2  866   4.644   5.165   3.062
  219WAT      O  867   4.712   5.193   3.367
  219WAT     H1  868   4.784   5.227   3.420
  219WAT     H2  869   4.639   5.187   3.428
  220WAT      O  870   3.578   3.995   3.512
  220WAT     H1  871   3.489   4.005   3.545
  220WAT     H2  872   3.612   3.918   3.558
  221WAT      O  873   3.499   5.369   3.596
  221WAT     H1  874   3.517   5.275   3.589
  221WAT     H2  875   3.420   5.382   3.543
  222WAT      O  876   4.360   5.216   3.768
  222WAT     H1  877   4.329   5.138   3.814
  222WAT     H2  878   4.280   5.267   3.751
  223WAT      O  879   4.123   5.345   2.129
  223WAT     H1  880   4.104   5.334   2.036
  223WAT     H2  881   4.046   5.309   2.173
  224WAT      O  882   3.724   4.821   2.318
  224WAT     H1  883   3.649   4.878   2.303
  224WAT     H2  884   3.767   4.813   2.233
  225WAT      O  885   4.620   4.218   3.284
  225WAT     H1  886   4.673   4.272   3.343
  225WAT     H2  887   4.530   4.231   3.315
  226WAT      O  888   4.388   5.285   2.163
  226WAT     H1  889   4.407   5.279   2.069
  226WAT     H2  890   4.297   5.315   2.166
  227WAT      O  891   4.158   4.387   2.516
  227WAT     H1  892   4.084   4.421   2.567
  227WAT     H2  893   4.197   4.320   2.572
  228WAT      O  894   4.306   4.518   3.330
  228WAT     H1  895   4.358   4.560   3.398
  228WAT     H2  896   4.330   4.425   3.336
  229WAT      O  897   4.609   4.068   2.596
  229WAT     H1  898   4.567   4.064   2.510
  229WAT     H2  899   4.703   4.072   2.577
  230WAT      O  900   4.014   4.182   2.260
  230WAT     H1  901   4.096   4.229   2.248
  230WAT     H2  902   3.989   4.200   2.351
  231WAT      O  903   3.894   4.844   2.093
  231WAT     H1  904   3.975   4.834   2.145
  231WAT     H2  905   3.917   4.807   2.007
  232WAT      O  906   3.757   4.527   2.152
  232WAT     H1  907   3.732   4.436   2.141
  232WAT     H2  908   3.851   4.529   2.132
  233WAT      O  909   3.532   5.204   2.466
  233WAT     H1  910   3.442   5.233   2.449
  233WAT     H2  911   3.587   5.276   2.435
  234WAT      O  912   4.665   5.066   3.794
  234WAT     H1  913   4.592   5.119   3.762
  234WAT     H2  914   4.624   4.998   3.847
  235WAT      O  915   3.541   4.784   3.660
  235WAT     H1  916   3.599   4.717   3.697
  235WAT     H2  917   3.481   4.806   3.732
  236WAT      O  918   4.249   5.002   2.009
  236WAT     H1  919   4.226   4.951   2.086
  236WAT     H2  920   4.228   4.944   1.935
  237WAT      O  921   4.190   4.903   3.640
  237WAT     H1  922   4.119   4.968   3.637
  237WAT     H2  923   4.173   4.846   3.565
  238WAT      O  924   4.525   4.867   2.089
  238WAT     H1  925   4.479   4.929   2.145
  238WAT     H2  926   4.594   4.831   2.144
  239WAT      O  927   3.711   4.586   3.740
  239WAT     H1  928   3.715   4.565   3.834
  239WAT     H2  929   3.798   4.620   3.720
  240WAT      O  930   4.115   4.818   2.267
  240WAT     H1  931   4.159   4.809   2.352
  240WAT     H2  932   4.138   4.738   2.220
  241WAT      O  933   3.955   4.392   3.572
  241WAT     H1  934   3.884   4.335   3.541
  241WAT     H2  935   3.977   4.446   3.496
  242WAT      O  936   4.386   4.662   1.958
  242WAT     H1  937   4.458   4.609   1.924
  242WAT     H2  938   4.428   4.739   1.995
  243WAT      O  939   3.967   4.055   3.580
  243WAT     H1  940   3.980   4.022   3.491
  243WAT     H2  941   3.899   4.121   3.572
  244WAT      O  942   4.234   4.018   3.255
  244WAT     H1  943   4.212   4.033   3.163
  244WAT     H2  944   4.153   3.985   3.293
  245WAT      O  945   4.210   4.825   3.366
  245WAT     H1  946   4.289   4.878   3.378
  245WAT     H2  947   4.156   4.877   3.306
  246WAT      O  948   4.477   4.638   3.518
  246WAT     H1  949   4.515   4.594   3.595
  246WAT     H2  950   4.550   4.642   3.455
  247WAT      O  951   4.679   4.645   3.338
  247WAT     H1  952   4.639   4.612   3.257
  247WAT     H2  953   4.767   4.671   3.311
  248WAT      O  954   3.984   4.451   1.990
  248WAT     H1  955   3.965   4.357   1.984
  248WAT     H2  956   4.027   4.472   1.908
  249WAT      O  957   4.230   4.310   3.600
  249WAT     H1  958   4.267   4.267   3.677
  249WAT     H2  959   4.135   4.301   3.611
  250WAT      O  960   4.671   4.262   3.670
  250WAT     H1  961   4.646   4.186   3.617
  250WAT     H2  962   4.735   4.227   3.733
  251WAT      O  963   4.706   3.914   2.220
  251WAT     H1  964   4.701   3.832   2.268
  251WAT     H2  965   4.639   3.970   2.260
  252WAT      O  966   3.934   4.179   1.993
  252WAT     H1  967   3.963   4.107   1.937
  252WAT     H2  968   3.978   4.164   2.077
  253WAT      O  969   4.207   4.032   2.086
  253WAT     H1  970   4.150   3.972   2.037
  253WAT     H2  971   4.229   3.984   2.166
  254WAT      O  972   3.808   5.105   2.040
  254WAT     H1  973   3.841   5.155   2.115
  254WAT     H2  974   3.832   5.014   2.060
  255WAT      O  975   3.492   5.270   2.897
  255WAT     H1  976   3.518   5.206   2.830
  255WAT     H2  977   3.573   5.293   2.942
  256WAT      O  978   4.021   5.122   2.613
  256WAT     H1  979   3.993   5.062   2.682
  256WAT     H2  980   3.984   5.084   2.533
  257WAT      O  981   3.510   4.676   2.686
  257WAT     H1  982   3.435   4.682   2.626
  257WAT     H2  983   3.584   4.654   2.630
  258WAT      O  984   3.646   4.699   3.152
  258WAT     H1  985   3.641   4.682   3.246
  258WAT     H2  986   3.613   4.619   3.111
  259WAT      O  987   3.565   4.421   3.569
  259WAT     H1  988   3.482   4.402   3.613
  259WAT     H2  989   3.617   4.467   3.634
  260WAT      O  990   3.417   4.379   2.319
  260WAT     H1  991   3.344   4.408   2.373
  260WAT     H2  992   3.435   4.452   2.261
  261WAT      O  993   3.698   4.268   2.100
  261WAT     H1  994   3.777   4.233   2.059
  261WAT     H2  995   3.627   4.246   2.039
  262WAT      O  996   3.652   3.917   2.052
  262WAT     H1  997   3.727   3.944   2.105
  262WAT     H2  998   3.628   3.996   2.003
  263WAT      O  999   3.642   3.830   3.016
  263WAT     H1 1000   3.722   3.809   2.968
  263WAT     H2 1001   3.673   3.857   3.103
  264WAT      O 1002   3.694   3.875   3.290
  264WAT     H1 1003   3.653   3.920   3.363
  264WAT     H2 1004   3.695   3.783   3.315
  265WAT      O 1005   3.732   5.173   3.671
  265WAT     H1 1006   3.746   5.158   3.765
  265WAT     H2 1007   3.752   5.266   3.659
  266WAT      O 1008   4.126   5.326   3.273
  266WAT     H1 1009   4.114   5.365   3.186
  266WAT     H2 1010   4.221   5.320   3.284
  267WAT      O 1011   4.398   3.961   3.652
  267WAT     H1 1012   4.375   4.041   3.699
  267WAT     H2 1013   4.484   3.979   3.614
  268WAT      O 1014   4.653   4.004   3.557
  268WAT     H1 1015   4.648   3.969   3.468
  268WAT     H2 1016   4.719   3.950   3.600
  269WAT      O 1017   3.682   3.763   3.604
  269WAT     H1 1018   3.691   3.702   3.531
  269WAT     H2 1019   3.709   3.712   3.681
  270WAT      O 1020   3.763   5.419   3.530
  270WAT     H1 1021   3.670   5.428   3.551
  270WAT     H2 1022   3.763   5.380   3.442
  271WAT      O 1023   4.645   3.840   3.337
  271WAT     H1 1024   4.587   3.859   3.263
  271WAT     H2 1025   4.631   3.747   3.355
  272WAT      O 1026   3.718   5.273   3.295
  272WAT     H1 1027   3.638   5.221   3.295
  272WAT     H2 1028   3.745   5.274   3.203
  273WAT      O 1029   4.080   5.392   3.008
  273WAT     H1 1030   4.096   5.302   2.979
  273WAT     H2 1031   4.119   5.447   2.939
  274WAT      O 1032   4.447   3.877   3.141
  274WAT     H1 1033   4.380   3.923   3.191
  274WAT     H2 1034   4.400   3.806   3.097
  275WAT      O 1035   4.262   4.164   2.645
  275WAT     H1 1036   4.197   4.101   2.613
  275WAT     H2 1037   4.345   4.117   2.640
  276WAT      O 1038   4.628   3.837   2.763
  276WAT     H1 1039   4.644   3.876   2.849
  276WAT     H2 1040   4.608   3.911   2.707
  277WAT      O 1041   3.697   5.404   2.369
  277WAT     H1 1042   3.668   5.445   2.288
  277WAT     H2 1043   3.725   5.477   2.425
  278WAT      O 1044   3.861   3.955   2.230
  278WAT     H1 1045   3.920   3.883   2.251
  278WAT     H2 1046   3.914   4.034   2.240
  279WAT      O 1047   4.057   3.981   2.556
  279WAT     H1 1048   4.011   3.902   2.527
  279WAT     H2 1049   3.996   4.053   2.540
  280WAT      O 1050   4.033   3.891   3.783
  280WAT     H1 1051   4.014   3.939   3.703
  280WAT     H2 1052   4.100   3.828   3.758
  281WAT      O 1053   3.900   5.236   2.263
  281WAT     H1 1054   3.835   5.287   2.311
  281WAT     H2 1055   3.916   5.159   2.318
  282WAT      O 1056   4.568   4.637   0.869
  282WAT     H1 1057   4.590   4.544   0.870
  282WAT     H2 1058   4.546   4.655   0.777
  283WAT      O 1059   4.452   4.813   1.042
  283WAT     H1 1060   4.405   4.763   1.109
  283WAT     H2 1061   4.491   4.746   0.985
  284WAT      O 1062   3.837   4.845   1.155
  284WAT     H1 1063   3.772   4.789   1.197
  284WAT     H2 1064   3.904   4.859   1.223
  285WAT      O 1065   3.835   5.260   1.169
  285WAT     H1 1066   3.881   5.183   1.136
  285WAT     H2 1067   3.901   5.330   1.167
  286WAT      O 1068   3.686   4.370   0.503
  286WAT     H1 1069   3.592   4.361   0.488
  286WAT     H2 1070   3.725   4.371   0.416
  287WAT      O 1071   3.476   4.548   1.081
  287WAT     H1 1072   3.544   4.480   1.087
  287WAT     H2 1073   3.491   4.591   0.997
  288WAT      O 1074   4.355   5.063   1.103
  288WAT     H1 1075   4.388   4.977   1.076
  288WAT     H2 1076   4.423   5.099   1.160
  289WAT      O 1077   3.635   4.153   1.317
  289WAT     H1 1078   3.622   4.061   1.294
  289WAT     H2 1079   3.612   4.158   1.410
  290WAT      O 1080   4.516   4.340   1.073
  290WAT     H1 1081   4.549   4.258   1.109
  290WAT     H2 1082   4.555   4.345   0.986
  291WAT      O 1083   3.902   4.224   0.603
  291WAT     H1 1084   3.932   4.291   0.664
  291WAT     H2 1085   3.815   4.254   0.576
  292WAT      O 1086   3.679   4.365   1.140
  292WAT     H1 1087   3.758   4.401   1.178
  292WAT     H2 1088   3.652   4.296   1.201
  293WAT      O 1089   4.126   4.528   1.084
  293WAT     H1 1090   4.194   4.573   1.135
  293WAT     H2 1091   4.165   4.445   1.059
  294WAT      O 1092   3.975   3.980   1.463
  294WAT     H1 1093   3.962   4.047   1.396
  294WAT     H2 1094   3.901   3.920   1.451
  295WAT      O 1095   4.575   4.970   0.558
  295WAT     H1 1096   4.512   5.003   0.494
  295WAT     H2 1097   4.567   5.030   0.633
  296WAT      O 1098   4.058   4.954   1.303
  296WAT     H1 1099   4.015   5.011   1.368
  296WAT     H2 1100   4.076   5.013   1.229
  297WAT      O 1101   3.909   4.166   1.282
  297WAT     H1 1102   3.932   4.258   1.268
  297WAT     H2 1103   3.814   4.165   1.287
  298WAT      O 1104   3.954   5.137   1.475
  298WAT     H1 1105   4.017   5.205   1.453
  298WAT     H2 1106   3.869   5.178   1.464
  299WAT      O 1107   3.530   4.974   0.392
  299WAT     H1 1108   3.590   5.005   0.325
  299WAT     H2 1109   3.525   5.046   0.455
  300WAT      O 1110   4.225   3.896   0.899
  300WAT     H1 1111   4.246   3.826   0.837
  300WAT     H2 1112   4.134   3.918   0.881
  301WAT      O 1113   4.495   4.706   0.611
  301WAT     H1 1114   4.400   4.717   0.619
  301WAT     H2 1115   4.527   4.793   0.588
  302WAT      O 1116   4.478   4.311   0.362
  302WAT     H1 1117   4.386   4.335   0.364
  302WAT     H2 1118   4.502   4.312   0.269
  303WAT      O 1119   4.067   4.682   0.861
  303WAT     H1 1120   4.020   4.612   0.815
  303WAT     H2 1121   4.092   4.642   0.945
  304WAT      O 1122   4.093   5.120   1.077
  304WAT     H1 1123   4.058   5.058   1.013
  304WAT     H2 1124   4.187   5.102   1.079
  305WAT      O 1125   3.921   4.440   1.249
  305WAT     H1 1126   3.984   4.475   1.186
  305WAT     H2 1127   3.948   4.477   1.333
  306WAT      O 1128   3.996   5.082   1.736
  306WAT     H1 1129   3.907   5.091   1.769
  306WAT     H2 1130   3.988   5.094   1.641
  307WAT      O 1131   4.680   4.814   0.351
  307WAT     H1 1132   4.742   4.747   0.380
  307WAT     H2 1133   4.668   4.870   0.427
  308WAT      O 1134   3.862   4.768   1.583
  308WAT     H1 1135   3.825   4.856   1.584
  308WAT     H2 1136   3.789   4.711   1.561
  309WAT      O 1137   4.505   5.160   0.764
  309WAT     H1 1138   4.529   5.248   0.792
  309WAT     H2 1139   4.547   5.102   0.828
  310WAT      O 1140   4.098   5.313   1.849
  310WAT     H1 1141   4.060   5.375   1.788
  310WAT     H2 1142   4.068   5.227   1.817
  311WAT      O 1143   3.709   4.582   0.679
  311WAT     H1 1144   3.714   4.660   0.623
  311WAT     H2 1145   3.697   4.510   0.617
  312WAT      O 1146   3.470   4.913   1.241
  312WAT     H1 1147   3.454   4.922   1.147
  312WAT     H2 1148   3.540   4.848   1.247
  313WAT      O 1149   3.575   5.085   0.824
  313WAT     H1 1150   3.555   5.115   0.735
  313WAT     H2 1151   3.665   5.052   0.818
  314WAT      O 1152   3.511   5.088   1.449
  314WAT     H1 1153   3.491   5.032   1.373
  314WAT     H2 1154   3.572   5.036   1.501
  315WAT      O 1155   3.958   4.011   0.981
  315WAT     H1 1156   3.911   4.090   0.956
  315WAT     H2 1157   4.014   4.038   1.053
  316WAT      O 1158   4.365   4.256   1.494
  316WAT     H1 1159   4.325   4.265   1.580
  316WAT     H2 1160   4.326   4.176   1.458
  317WAT      O 1161   4.596   4.518   1.846
  317WAT     H1 1162   4.607   4.425   1.824
  317WAT     H2 1163   4.683   4.546   1.873
  318WAT      O 1164   4.284   3.948   0.515
  318WAT     H1 1165   4.194   3.952   0.548
  318WAT     H2 1166   4.294   3.857   0.487
  319WAT      O 1167   4.199   4.052   1.127
  319WAT     H1 1168   4.217   4.140   1.094
  319WAT     H2 1169   4.225   3.994   1.056
  320WAT      O 1170   3.932   4.450   0.775
  320WAT     H1 1171   3.898   4.387   0.839
  320WAT     H2 1172   3.856   4.500   0.748
  321WAT      O 1173   4.597   4.451   0.573
  321WAT     H1 1174   4.560   4.539   0.571
  321WAT     H2 1175   4.560   4.407   0.497
  322WAT      O 1176   4.166   4.553   1.804
  322WAT     H1 1177   4.196   4.472   1.763
  322WAT     H2 1178   4.246   4.599   1.828
  323WAT      O 1179   4.603   4.338   0.817
  323WAT     H1 1180   4.605   4.378   0.730
  323WAT     H2 1181   4.613   4.244   0.802
  324WAT      O 1182   3.576   4.172   1.591
  324WAT     H1 1183   3.622   4.256   1.599
  324WAT     H2 1184   3.563   4.144   1.682
  325WAT      O 1185   4.373   4.180   1.943
  325WAT     H1 1186   4.310   4.131   1.996
  325WAT     H2 1187   4.430   4.223   2.007
  326WAT      O 1188   3.462   3.989   0.994
  326WAT     H1 1189   3.420   4.054   1.050
  326WAT     H2 1190   3.513   3.935   1.055
  327WAT      O 1191   4.556   4.559   1.238
  327WAT     H1 1192   4.469   4.597   1.233
  327WAT     H2 1193   4.552   4.481   1.184
  328WAT      O 1194   4.253   4.298   1.011
  328WAT     H1 1195   4.255   4.263   0.922
  328WAT     H2 1196   4.345   4.315   1.032
  329WAT      O 1197   3.798   4.250   0.915
  329WAT     H1 1198   3.754   4.289   0.991
  329WAT     H2 1199   3.727   4.209   0.864
  330WAT      O 1200   4.221   4.397   0.366
  330WAT     H1 1201   4.205   4.407   0.460
  330WAT     H2 1202   4.215   4.486   0.331
  331WAT      O 1203   4.599   4.098   1.171
  331WAT     H1 1204   4.625   4.139   1.253
  331WAT     H2 1205   4.549   4.021   1.198
  332WAT      O 1206   4.218   4.648   0.240
  332WAT     H1 1207   4.205   4.643   0.146
  332WAT     H2 1208   4.293   4.707   0.251
  333WAT      O 1209   3.670   4.966   1.631
  333WAT     H1 1210   3.620   4.908   1.688
  333WAT     H2 1211   3.693   5.040   1.687
  334WAT      O 1212   4.297   4.680   1.241
  334WAT     H1 1213   4.297   4.626   1.320
  334WAT     H2 1214   4.243   4.755   1.263
  335WAT      O 1215   3.584   4.124   0.785
  335WAT     H1 1216   3.547   4.063   0.849
  335WAT     H2 1217   3.601   4.070   0.708
  336WAT      O 1218   4.018   4.548   1.487
  336WAT     H1 1219   3.994   4.635   1.517
  336WAT     H2 1220   4.113   4.547   1.487
  337WAT      O 1221   3.907   4.976   0.523
  337WAT     H1 1222   3.829   4.921   0.530
  337WAT     H2 1223   3.974   4.919   0.487
  338WAT      O 1224   4.522   4.074   0.497
  338WAT     H1 1225   4.435   4.033   0.499
  338WAT     H2 1226   4.508   4.157   0.452
  339WAT      O 1227   4.445   4.913   1.668
  339WAT     H1 1228   4.471   4.822   1.652
  339WAT     H2 1229   4.366   4.906   1.721
  340WAT      O 1230   3.958   4.927   0.927
  340WAT     H1 1231   3.995   4.845   0.895
  340WAT     H2 1232   3.903   4.901   1.001
  341WAT      O 1233   4.357   5.059   0.414
  341WAT     H1 1234   4.304   5.126   0.371
  341WAT     H2 1235   4.317   5.049   0.501
  342WAT      O 1236   3.615   4.637   1.553
  342WAT     H1 1237   3.566   4.696   1.610
  342WAT     H2 1238   3.611   4.552   1.598
  343WAT      O 1239   3.952   4.728   1.843
  343WAT     H1 1240   3.931   4.756   1.754
  343WAT     H2 1241   4.034   4.679   1.833
  344WAT      O 1242   4.498   5.177   1.655
  344WAT     H1 1243   4.485   5.082   1.655
  344WAT     H2 1244   4.452   5.207   1.733
  345WAT      O 1245   4.634   4.981   0.921
  345WAT     H1 1246   4.692   4.915   0.883
  345WAT     H2 1247   4.571   4.930   0.972
  346WAT      O 1248   4.266   5.050   0.674
  346WAT     H1 1249   4.337   5.099   0.715
  346WAT     H2 1250   4.186   5.095   0.702
  347WAT      O 1251   3.487   4.604   0.290
  347WAT     H1 1252   3.579   4.626   0.278
  347WAT     H2 1253   3.443   4.689   0.302
  348WAT      O 1254   4.233   4.780   0.657
  348WAT     H1 1255   4.244   4.874   0.671
  348WAT     H2 1256   4.184   4.749   0.734
  349WAT      O 1257   4.394   5.290   1.420
  349WAT     H1 1258   4.429   5.261   1.504
  349WAT     H2 1259   4.453   5.252   1.355
  350WAT      O 1260   3.806   3.802   0.684
  350WAT     H1 1261   3.739   3.749   0.727
  350WAT     H2 1262   3.756   3.864   0.630
  351WAT      O 1263   4.577   5.158   1.252
  351WAT     H1 1264   4.628   5.159   1.333
  351WAT     H2 1265   4.643   5.161   1.183
  352WAT      O 1266   4.712   5.194   1.487
  352WAT     H1 1267   4.782   5.235   1.537
  352WAT     H2 1268   4.641   5.185   1.551
  353WAT      O 1269   3.499   5.367   1.718
  353WAT     H1 1270   3.516   5.273   1.712
  353WAT     H2 1271   3.420   5.380   1.665
  354WAT      O 1272   4.357   5.218   1.888
  354WAT     H1 1273   4.327   5.140   1.933
  354WAT     H2 1274   4.278   5.269   1.872
  355WAT      O 1275   4.171   5.245   0.329
  355WAT     H1 1276   4.170   5.307   0.257
  355WAT     H2 1277   4.078   5.236   0.354
  356WAT      O 1278   3.701   4.791   0.501
  356WAT     H1 1279   3.634   4.851   0.468
  356WAT     H2 1280   3.726   4.738   0.425
  357WAT      O 1281   4.626   4.222   1.412
  357WAT     H1 1282   4.679   4.280   1.467
  357WAT     H2 1283   4.536   4.238   1.441
  358WAT      O 1284   4.171   4.395   0.632
  358WAT     H1 1285   4.101   4.426   0.689
  358WAT     H2 1286   4.208   4.320   0.679
  359WAT      O 1287   4.298   4.525   1.463
  359WAT     H1 1288   4.356   4.569   1.524
  359WAT     H2 1289   4.326   4.434   1.464
  360WAT      O 1290   4.644   4.065   0.737
  360WAT     H1 1291   4.593   4.065   0.657
  360WAT     H2 1292   4.735   4.073   0.708
  361WAT      O 1293   4.007   4.215   0.348
  361WAT     H1 1294   4.091   4.260   0.341
  361WAT     H2 1295   3.988   4.215   0.442
  362WAT      O 1296   3.774   4.632   0.291
  362WAT     H1 1297   3.780   4.538   0.272
  362WAT     H2 1298   3.864   4.663   0.287
  363WAT      O 1299   3.532   5.185   0.570
  363WAT     H1 1300   3.443   5.217   0.556
  363WAT     H2 1301   3.588   5.259   0.546
  364WAT      O 1302   4.665   5.054   1.926
  364WAT     H1 1303   4.598   5.105   1.882
  364WAT     H2 1304   4.617   4.986   1.973
  365WAT      O 1305   3.534   4.789   1.786
  365WAT     H1 1306   3.595   4.729   1.829
  365WAT     H2 1307   3.468   4.808   1.853
  366WAT      O 1308   4.189   4.891   1.763
  366WAT     H1 1309   4.120   4.958   1.762
  366WAT     H2 1310   4.185   4.851   1.676
  367WAT      O 1311   4.417   4.828   0.266
  367WAT     H1 1312   4.395   4.912   0.305
  367WAT     H2 1313   4.511   4.819   0.279
  368WAT      O 1314   3.712   4.618   1.898
  368WAT     H1 1315   3.720   4.589   1.989
  368WAT     H2 1316   3.797   4.655   1.877
  369WAT      O 1317   4.071   4.776   0.435
  369WAT     H1 1318   4.129   4.769   0.511
  369WAT     H2 1319   4.119   4.733   0.364
  370WAT      O 1320   3.901   4.348   1.650
  370WAT     H1 1321   3.818   4.385   1.677
  370WAT     H2 1322   3.941   4.416   1.595
  371WAT      O 1323   4.026   4.112   1.697
  371WAT     H1 1324   4.011   4.064   1.616
  371WAT     H2 1325   3.975   4.192   1.687
  372WAT      O 1326   4.243   4.025   1.392
  372WAT     H1 1327   4.222   4.040   1.300
  372WAT     H2 1328   4.160   3.996   1.431
  373WAT      O 1329   4.210   4.835   1.494
  373WAT     H1 1330   4.293   4.883   1.491
  373WAT     H2 1331   4.155   4.879   1.429
  374WAT      O 1332   4.491   4.642   1.625
  374WAT     H1 1333   4.523   4.597   1.703
  374WAT     H2 1334   4.566   4.645   1.566
  375WAT      O 1335   4.698   4.643   1.452
  375WAT     H1 1336   4.650   4.612   1.375
  375WAT     H2 1337   4.786   4.662   1.419
  376WAT      O 1338   4.238   4.291   1.735
  376WAT     H1 1339   4.290   4.259   1.809
  376WAT     H2 1340   4.166   4.229   1.728
  377WAT      O 1341   4.673   4.261   1.789
  377WAT     H1 1342   4.650   4.186   1.734
  377WAT     H2 1343   4.726   4.223   1.860
  378WAT      O 1344   4.738   3.916   0.425
  378WAT     H1 1345   4.699   3.829   0.437
  378WAT     H2 1346   4.665   3.977   0.439
  379WAT      O 1347   3.733   5.062   0.231
  379WAT     H1 1348   3.791   5.123   0.276
  379WAT     H2 1349   3.782   5.034   0.154
  380WAT      O 1350   3.490   5.268   1.012
  380WAT     H1 1351   3.516   5.205   0.945
  380WAT     H2 1352   3.570   5.288   1.060
  381WAT      O 1353   4.006   5.117   0.736
  381WAT     H1 1354   3.982   5.058   0.808
  381WAT     H2 1355   3.970   5.076   0.658
  382WAT      O 1356   3.495   4.677   0.833
  382WAT     H1 1357   3.429   4.683   0.764
  382WAT     H2 1358   3.574   4.645   0.789
  383WAT      O 1359   3.634   4.697   1.279
  383WAT     H1 1360   3.628   4.669   1.370
  383WAT     H2 1361   3.581   4.634   1.231
  384WAT      O 1362   3.635   4.417   1.733
  384WAT     H1 1363   3.585   4.355   1.787
  384WAT     H2 1364   3.659   4.487   1.793
  385WAT      O 1365   3.424   4.375   0.425
  385WAT     H1 1366   3.356   4.401   0.486
  385WAT     H2 1367   3.437   4.451   0.369
  386WAT      O 1368   3.797   4.359   0.251
  386WAT     H1 1369   3.876   4.310   0.276
  386WAT     H2 1370   3.760   4.309   0.179
  387WAT      O 1371   3.631   3.845   1.180
  387WAT     H1 1372   3.708   3.817   1.131
  387WAT     H2 1373   3.660   3.848   1.271
  388WAT      O 1374   3.705   3.869   1.447
  388WAT     H1 1375   3.675   3.923   1.520
  388WAT     H2 1376   3.727   3.785   1.487
  389WAT      O 1377   3.736   5.170   1.792
  389WAT     H1 1378   3.750   5.159   1.886
  389WAT     H2 1379   3.755   5.262   1.776
  390WAT      O 1380   4.127   5.323   1.397
  390WAT     H1 1381   4.116   5.363   1.310
  390WAT     H2 1382   4.222   5.318   1.408
  391WAT      O 1383   4.399   3.962   1.774
  391WAT     H1 1384   4.385   4.041   1.827
  391WAT     H2 1385   4.484   3.976   1.732
  392WAT      O 1386   4.655   4.002   1.679
  392WAT     H1 1387   4.651   3.966   1.590
  392WAT     H2 1388   4.720   3.948   1.724
  393WAT      O 1389   3.764   5.414   1.655
  393WAT     H1 1390   3.671   5.425   1.675
  393WAT     H2 1391   3.765   5.377   1.567
  394WAT      O 1392   4.649   3.836   1.462
  394WAT     H1 1393   4.591   3.860   1.389
  394WAT     H2 1394   4.629   3.744   1.478
  395WAT      O 1395   3.721   5.270   1.419
  395WAT     H1 1396   3.640   5.219   1.419
  395WAT     H2 1397   3.747   5.272   1.327
  396WAT      O 1398   4.081   5.393   1.132
  396WAT     H1 1399   4.098   5.304   1.101
  396WAT     H2 1400   4.120   5.449   1.065
  397WAT      O 1401   4.454   3.886   1.271
  397WAT     H1 1402   4.385   3.930   1.321
  397WAT     H2 1403   4.409   3.815   1.225
  398WAT      O 1404   3.639   3.970   0.531
  398WAT     H1 1405   3.710   3.986   0.469
  398WAT     H2 1406   3.563   4.015   0.493
  399WAT      O 1407   4.241   4.162   0.768
  399WAT     H1 1408   4.169   4.108   0.734
  399WAT     H2 1409   4.313   4.100   0.780
  400WAT      O 1410   4.633   3.833   0.893
  400WAT     H1 1411   4.642   3.867   0.982
  400WAT     H2 1412   4.627   3.911   0.838
  401WAT      O 1413   3.705   5.395   0.507
  401WAT     H1 1414   3.676   5.457   0.440
  401WAT     H2 1415   3.731   5.450   0.581
  402WAT      O 1416   3.853   3.978   0.364
  402WAT     H1 1417   3.911   3.902   0.374
  402WAT     H2 1418   3.913   4.050   0.343
  403WAT      O 1419   4.037   3.991   0.661
  403WAT     H1 1420   3.972   3.923   0.678
  403WAT     H2 1421   3.985   4.068   0.637
  404WAT      O 1422   4.057   3.914   1.886
  404WAT     H1 1423   4.052   3.972   1.811
  404WAT     H2 1424   4.121   3.848   1.862
  405WAT      O 1425   3.898   5.218   0.393
  405WAT     H1 1426   3.838   5.276   0.440
  405WAT     H2 1427   3.903   5.139   0.447
  406WAT      O 1428   4.554   2.748   4.634
  406WAT     H1 1429   4.575   2.655   4.627
  406WAT     H2 1430   4.539   2.776   4.544
  407WAT      O 1431   4.452   2.933   4.802
  407WAT     H1 1432   4.400   2.884   4.865
  407WAT     H2 1433   4.489   2.867   4.743
  408WAT      O 1434   3.853   2.983   4.891
  408WAT     H1 1435   3.787   2.925   4.928
  408WAT     H2 1436   3.914   3.000   4.963
  409WAT      O 1437   3.864   3.395   4.913
  409WAT     H1 1438   3.935   3.338   4.885
  409WAT     H2 1439   3.890   3.482   4.885
  410WAT      O 1440   3.662   2.382   4.237
  410WAT     H1 1441   3.589   2.443   4.247
  410WAT     H2 1442   3.687   2.390   4.145
  411WAT      O 1443   3.479   2.680   4.822
  411WAT     H1 1444   3.547   2.612   4.830
  411WAT     H2 1445   3.496   2.720   4.737
  412WAT      O 1446   4.462   3.613   4.647
  412WAT     H1 1447   4.392   3.634   4.586
  412WAT     H2 1448   4.520   3.689   4.645
  413WAT      O 1449   4.348   3.187   4.846
  413WAT     H1 1450   4.379   3.100   4.820
  413WAT     H2 1451   4.423   3.226   4.892
  414WAT      O 1452   3.608   2.290   5.050
  414WAT     H1 1453   3.601   2.197   5.071
  414WAT     H2 1454   3.533   2.330   5.094
  415WAT      O 1455   4.522   2.458   4.824
  415WAT     H1 1456   4.554   2.376   4.862
  415WAT     H2 1457   4.556   2.458   4.735
  416WAT      O 1458   3.898   2.332   4.371
  416WAT     H1 1459   3.906   2.402   4.435
  416WAT     H2 1460   3.812   2.346   4.331
  417WAT      O 1461   3.682   2.501   4.889
  417WAT     H1 1462   3.762   2.531   4.931
  417WAT     H2 1463   3.653   2.427   4.941
  418WAT      O 1464   4.122   2.656   4.829
  418WAT     H1 1465   4.187   2.701   4.882
  418WAT     H2 1466   4.164   2.573   4.805
  419WAT      O 1467   3.985   2.079   5.201
  419WAT     H1 1468   3.953   2.149   5.145
  419WAT     H2 1469   3.930   2.004   5.181
  420WAT      O 1470   4.588   3.113   4.391
  420WAT     H1 1471   4.550   3.136   4.306
  420WAT     H2 1472   4.563   3.185   4.448
  421WAT      O 1473   4.054   3.096   5.059
  421WAT     H1 1474   4.021   3.157   5.125
  421WAT     H2 1475   4.073   3.151   4.983
  422WAT      O 1476   3.886   2.278   5.049
  422WAT     H1 1477   3.915   2.368   5.034
  422WAT     H2 1478   3.790   2.284   5.049
  423WAT      O 1479   3.981   3.289   5.237
  423WAT     H1 1480   4.041   3.355   5.203
  423WAT     H2 1481   3.894   3.322   5.215
  424WAT      O 1482   3.523   3.119   4.168
  424WAT     H1 1483   3.487   3.165   4.092
  424WAT     H2 1484   3.533   3.187   4.234
  425WAT      O 1485   4.241   2.019   4.639
  425WAT     H1 1486   4.262   1.946   4.580
  425WAT     H2 1487   4.147   2.032   4.627
  426WAT      O 1488   4.501   2.851   4.383
  426WAT     H1 1489   4.406   2.864   4.376
  426WAT     H2 1490   4.537   2.939   4.388
  427WAT      O 1491   4.462   2.412   4.038
  427WAT     H1 1492   4.377   2.434   4.075
  427WAT     H2 1493   4.500   2.496   4.013
  428WAT      O 1494   4.072   2.821   4.601
  428WAT     H1 1495   4.022   2.755   4.554
  428WAT     H2 1496   4.094   2.780   4.685
  429WAT      O 1497   4.091   3.259   4.830
  429WAT     H1 1498   4.056   3.199   4.764
  429WAT     H2 1499   4.185   3.240   4.833
  430WAT      O 1500   3.927   2.554   5.005
  430WAT     H1 1501   3.985   2.590   4.938
  430WAT     H2 1502   3.956   2.595   5.087
  431WAT      O 1503   4.018   3.210   5.496
  431WAT     H1 1504   3.965   3.132   5.508
  431WAT     H2 1505   4.005   3.234   5.404
  432WAT      O 1506   4.737   2.914   4.120
  432WAT     H1 1507   4.830   2.905   4.098
  432WAT     H2 1508   4.737   2.937   4.212
  433WAT      O 1509   3.875   2.899   5.330
  433WAT     H1 1510   3.825   2.980   5.338
  433WAT     H2 1511   3.813   2.835   5.298
  434WAT      O 1512   4.488   3.364   4.499
  434WAT     H1 1513   4.520   3.426   4.432
  434WAT     H2 1514   4.478   3.417   4.578
  435WAT      O 1515   4.088   3.467   5.598
  435WAT     H1 1516   4.085   3.520   5.518
  435WAT     H2 1517   4.066   3.379   5.569
  436WAT      O 1518   3.701   2.729   4.375
  436WAT     H1 1519   3.719   2.804   4.319
  436WAT     H2 1520   3.654   2.667   4.319
  437WAT      O 1521   3.481   3.041   4.988
  437WAT     H1 1522   3.460   3.053   4.896
  437WAT     H2 1523   3.552   2.977   4.989
  438WAT      O 1524   3.586   3.218   4.594
  438WAT     H1 1525   3.567   3.249   4.506
  438WAT     H2 1526   3.679   3.194   4.591
  439WAT      O 1527   4.537   3.577   5.295
  439WAT     H1 1528   4.535   3.497   5.347
  439WAT     H2 1529   4.463   3.629   5.328
  440WAT      O 1530   4.681   3.669   4.239
  440WAT     H1 1531   4.707   3.654   4.330
  440WAT     H2 1532   4.743   3.617   4.187
  441WAT      O 1533   4.022   3.625   4.385
  441WAT     H1 1534   3.996   3.535   4.404
  441WAT     H2 1535   3.944   3.678   4.404
  442WAT      O 1536   4.741   3.621   4.500
  442WAT     H1 1537   4.747   3.554   4.568
  442WAT     H2 1538   4.711   3.699   4.546
  443WAT      O 1539   3.535   3.211   5.198
  443WAT     H1 1540   3.512   3.157   5.122
  443WAT     H2 1541   3.593   3.155   5.250
  444WAT      O 1542   3.968   2.119   4.726
  444WAT     H1 1543   3.923   2.199   4.703
  444WAT     H2 1544   4.030   2.145   4.794
  445WAT      O 1545   4.358   2.363   5.258
  445WAT     H1 1546   4.310   2.367   5.341
  445WAT     H2 1547   4.327   2.283   5.216
  446WAT      O 1548   4.607   2.606   5.567
  446WAT     H1 1549   4.634   2.516   5.550
  446WAT     H2 1550   4.644   2.627   5.652
  447WAT      O 1551   4.267   2.047   4.212
  447WAT     H1 1552   4.193   2.051   4.272
  447WAT     H2 1553   4.298   1.957   4.216
  448WAT      O 1554   4.197   2.175   4.869
  448WAT     H1 1555   4.218   2.265   4.842
  448WAT     H2 1556   4.236   2.120   4.801
  449WAT      O 1557   3.921   2.603   4.504
  449WAT     H1 1558   3.879   2.548   4.570
  449WAT     H2 1559   3.849   2.649   4.461
  450WAT      O 1560   4.614   2.606   4.338
  450WAT     H1 1561   4.569   2.690   4.347
  450WAT     H2 1562   4.645   2.605   4.247
  451WAT      O 1563   4.173   2.666   5.537
  451WAT     H1 1564   4.179   2.572   5.520
  451WAT     H2 1565   4.258   2.701   5.510
  452WAT      O 1566   4.587   2.453   4.561
  452WAT     H1 1567   4.596   2.502   4.479
  452WAT     H2 1568   4.585   2.361   4.534
  453WAT      O 1569   3.750   2.303   5.389
  453WAT     H1 1570   3.700   2.379   5.358
  453WAT     H2 1571   3.686   2.232   5.392
  454WAT      O 1572   3.453   2.106   4.728
  454WAT     H1 1573   3.418   2.169   4.792
  454WAT     H2 1574   3.510   2.049   4.778
  455WAT      O 1575   3.462   2.493   3.832
  455WAT     H1 1576   3.466   2.575   3.881
  455WAT     H2 1577   3.394   2.442   3.876
  456WAT      O 1578   4.564   2.678   4.988
  456WAT     H1 1579   4.478   2.718   4.980
  456WAT     H2 1580   4.559   2.600   4.932
  457WAT      O 1581   4.257   2.425   4.765
  457WAT     H1 1582   4.260   2.392   4.675
  457WAT     H2 1583   4.349   2.442   4.787
  458WAT      O 1584   3.789   2.415   4.650
  458WAT     H1 1585   3.752   2.444   4.733
  458WAT     H2 1586   3.720   2.359   4.612
  459WAT      O 1587   4.226   2.496   4.138
  459WAT     H1 1588   4.214   2.510   4.232
  459WAT     H2 1589   4.199   2.579   4.098
  460WAT      O 1590   4.601   2.219   4.933
  460WAT     H1 1591   4.624   2.262   5.015
  460WAT     H2 1592   4.554   2.140   4.959
  461WAT      O 1593   4.156   2.724   3.998
  461WAT     H1 1594   4.104   2.673   3.935
  461WAT     H2 1595   4.235   2.747   3.950
  462WAT      O 1596   3.685   3.089   5.399
  462WAT     H1 1597   3.636   3.019   5.442
  462WAT     H2 1598   3.688   3.159   5.465
  463WAT      O 1599   4.300   2.789   4.997
  463WAT     H1 1600   4.305   2.725   5.068
  463WAT     H2 1601   4.258   2.866   5.036
  464WAT      O 1602   3.592   2.251   4.544
  464WAT     H1 1603   3.547   2.191   4.604
  464WAT     H2 1604   3.624   2.195   4.473
  465WAT      O 1605   4.036   2.681   5.229
  465WAT     H1 1606   4.027   2.773   5.253
  465WAT     H2 1607   4.130   2.664   5.231
  466WAT      O 1608   3.924   3.117   4.270
  466WAT     H1 1609   3.851   3.055   4.261
  466WAT     H2 1610   3.998   3.073   4.227
  467WAT      O 1611   4.501   2.194   4.213
  467WAT     H1 1612   4.415   2.151   4.209
  467WAT     H2 1613   4.492   2.268   4.153
  468WAT      O 1614   4.498   3.043   5.409
  468WAT     H1 1615   4.516   2.950   5.393
  468WAT     H2 1616   4.413   3.044   5.453
  469WAT      O 1617   3.969   3.074   4.664
  469WAT     H1 1618   4.006   2.992   4.631
  469WAT     H2 1619   3.916   3.047   4.739
  470WAT      O 1620   4.438   3.194   4.176
  470WAT     H1 1621   4.432   3.279   4.132
  470WAT     H2 1622   4.362   3.192   4.234
  471WAT      O 1623   3.632   2.767   5.268
  471WAT     H1 1624   3.596   2.811   5.346
  471WAT     H2 1625   3.629   2.674   5.290
  472WAT      O 1626   3.969   2.854   5.587
  472WAT     H1 1627   3.938   2.858   5.497
  472WAT     H2 1628   4.037   2.787   5.586
  473WAT      O 1629   4.522   3.315   5.408
  473WAT     H1 1630   4.525   3.219   5.403
  473WAT     H2 1631   4.455   3.333   5.474
  474WAT      O 1632   4.663   3.110   4.766
  474WAT     H1 1633   4.687   3.094   4.675
  474WAT     H2 1634   4.596   3.044   4.784
  475WAT      O 1635   4.272   3.208   4.410
  475WAT     H1 1636   4.338   3.263   4.452
  475WAT     H2 1637   4.188   3.250   4.431
  476WAT      O 1638   3.478   2.717   3.990
  476WAT     H1 1639   3.572   2.728   4.001
  476WAT     H2 1640   3.447   2.801   3.958
  477WAT      O 1641   4.235   2.934   4.394
  477WAT     H1 1642   4.246   3.027   4.413
  477WAT     H2 1643   4.186   2.900   4.469
  478WAT      O 1644   4.415   3.468   5.073
  478WAT     H1 1645   4.466   3.505   5.146
  478WAT     H2 1646   4.470   3.397   5.039
  479WAT      O 1647   3.825   1.914   4.438
  479WAT     H1 1648   3.763   1.872   4.498
  479WAT     H2 1649   3.770   1.971   4.384
  480WAT      O 1650   4.581   3.273   4.973
  480WAT     H1 1651   4.639   3.274   5.049
  480WAT     H2 1652   4.628   3.223   4.906
  481WAT      O 1653   4.718   3.308   5.207
  481WAT     H1 1654   4.785   3.367   5.243
  481WAT     H2 1655   4.651   3.304   5.275
  482WAT      O 1656   3.587   3.740   4.096
  482WAT     H1 1657   3.611   3.796   4.022
  482WAT     H2 1658   3.574   3.800   4.169
  483WAT      O 1659   3.549   2.120   5.397
  483WAT     H1 1660   3.467   2.139   5.443
  483WAT     H2 1661   3.587   2.046   5.445
  484WAT      O 1662   3.533   3.538   5.465
  484WAT     H1 1663   3.526   3.458   5.517
  484WAT     H2 1664   3.450   3.543   5.418
  485WAT      O 1665   4.129   3.426   4.109
  485WAT     H1 1666   4.115   3.492   4.042
  485WAT     H2 1667   4.042   3.388   4.124
  486WAT      O 1668   3.727   2.940   4.193
  486WAT     H1 1669   3.652   2.997   4.180
  486WAT     H2 1670   3.765   2.929   4.106
  487WAT      O 1671   4.620   2.345   5.175
  487WAT     H1 1672   4.665   2.417   5.218
  487WAT     H2 1673   4.530   2.351   5.206
  488WAT      O 1674   4.391   3.441   4.057
  488WAT     H1 1675   4.396   3.424   3.963
  488WAT     H2 1676   4.298   3.430   4.079
  489WAT      O 1677   4.172   2.519   4.399
  489WAT     H1 1678   4.094   2.551   4.445
  489WAT     H2 1679   4.201   2.444   4.452
  490WAT      O 1680   4.310   2.632   5.216
  490WAT     H1 1681   4.375   2.677   5.270
  490WAT     H2 1682   4.334   2.540   5.223
  491WAT      O 1683   4.617   2.182   4.461
  491WAT     H1 1684   4.564   2.184   4.381
  491WAT     H2 1685   4.706   2.196   4.431
  492WAT      O 1686   4.278   3.687   4.461
  492WAT     H1 1687   4.326   3.680   4.378
  492WAT     H2 1688   4.188   3.663   4.438
  493WAT      O 1689   4.019   2.309   4.127
  493WAT     H1 1690   4.099   2.360   4.118
  493WAT     H2 1691   3.987   2.329   4.215
  494WAT      O 1692   3.902   2.967   3.960
  494WAT     H1 1693   3.979   2.963   4.017
  494WAT     H2 1694   3.930   2.927   3.878
  495WAT      O 1695   3.753   2.683   4.006
  495WAT     H1 1696   3.745   2.588   4.004
  495WAT     H2 1697   3.848   2.699   4.007
  496WAT      O 1698   3.878   3.749   4.815
  496WAT     H1 1699   3.955   3.693   4.826
  496WAT     H2 1700   3.913   3.828   4.775
  497WAT      O 1701   3.533   3.325   4.345
  497WAT     H1 1702   3.444   3.358   4.331
  497WAT     H2 1703   3.589   3.394   4.312
  498WAT      O 1704   4.103   3.612   3.917
  498WAT     H1 1705   4.174   3.672   3.893
  498WAT     H2 1706   4.091   3.557   3.840
  499WAT      O 1707   3.552   2.877   5.515
  499WAT     H1 1708   3.597   2.842   5.593
  499WAT     H2 1709   3.460   2.858   5.530
  500WAT      O 1710   4.238   3.139   3.888
  500WAT     H1 1711   4.220   3.077   3.958
  500WAT     H2 1712   4.216   3.093   3.807
  501WAT      O 1713   4.245   3.048   5.494
  501WAT     H1 1714   4.175   3.109   5.518
  501WAT     H2 1715   4.205   2.988   5.431
  502WAT      O 1716   4.540   3.028   3.969
  502WAT     H1 1717   4.496   3.085   4.033
  502WAT     H2 1718   4.609   2.986   4.019
  503WAT      O 1719   4.114   2.947   4.145
  503WAT     H1 1720   4.162   2.940   4.228
  503WAT     H2 1721   4.131   2.865   4.100
  504WAT      O 1722   3.837   2.578   5.402
  504WAT     H1 1723   3.867   2.488   5.417
  504WAT     H2 1724   3.907   2.618   5.351
  505WAT      O 1725   4.396   2.800   3.891
  505WAT     H1 1726   4.455   2.754   3.832
  505WAT     H2 1727   4.441   2.883   3.910
  506WAT      O 1728   3.998   2.209   5.442
  506WAT     H1 1729   4.009   2.157   5.362
  506WAT     H2 1730   3.910   2.244   5.435
  507WAT      O 1731   4.247   2.141   5.131
  507WAT     H1 1732   4.222   2.158   5.040
  507WAT     H2 1733   4.167   2.109   5.173
  508WAT      O 1734   4.216   2.953   5.222
  508WAT     H1 1735   4.293   3.008   5.231
  508WAT     H2 1736   4.155   3.005   5.169
  509WAT      O 1737   4.504   2.759   5.369
  509WAT     H1 1738   4.538   2.708   5.442
  509WAT     H2 1739   4.578   2.767   5.309
  510WAT      O 1740   4.706   2.780   5.192
  510WAT     H1 1741   4.661   2.740   5.117
  510WAT     H2 1742   4.779   2.829   5.153
  511WAT      O 1743   3.993   2.563   3.848
  511WAT     H1 1744   3.971   2.472   3.866
  511WAT     H2 1745   3.986   2.571   3.753
  512WAT      O 1746   4.063   3.612   5.357
  512WAT     H1 1747   3.968   3.615   5.352
  512WAT     H2 1748   4.090   3.571   5.275
  513WAT      O 1749   4.203   2.386   5.491
  513WAT     H1 1750   4.248   2.338   5.560
  513WAT     H2 1751   4.128   2.332   5.468
  514WAT      O 1752   4.704   2.354   5.535
  514WAT     H1 1753   4.663   2.272   5.507
  514WAT     H2 1754   4.798   2.338   5.525
  515WAT      O 1755   4.707   2.040   4.108
  515WAT     H1 1756   4.695   1.957   4.156
  515WAT     H2 1757   4.636   2.096   4.140
  516WAT      O 1758   3.924   2.297   3.858
  516WAT     H1 1759   3.953   2.245   3.782
  516WAT     H2 1760   3.981   2.268   3.929
  517WAT      O 1761   4.324   3.730   5.367
  517WAT     H1 1762   4.316   3.826   5.363
  517WAT     H2 1763   4.234   3.699   5.376
  518WAT      O 1764   4.195   2.138   3.957
  518WAT     H1 1765   4.139   2.073   3.916
  518WAT     H2 1766   4.212   2.104   4.045
  519WAT      O 1767   4.406   3.669   4.221
  519WAT     H1 1768   4.501   3.682   4.224
  519WAT     H2 1769   4.395   3.594   4.162
  520WAT      O 1770   3.803   3.222   3.901
  520WAT     H1 1771   3.828   3.270   3.980
  520WAT     H2 1772   3.833   3.132   3.918
  521WAT      O 1773   3.497   3.468   4.681
  521WAT     H1 1774   3.534   3.380   4.672
  521WAT     H2 1775   3.519   3.495   4.770
  522WAT      O 1776   4.008   3.276   4.475
  522WAT     H1 1777   3.991   3.218   4.549
  522WAT     H2 1778   3.976   3.227   4.399
  523WAT      O 1779   3.492   3.599   4.923
  523WAT     H1 1780   3.466   3.619   5.014
  523WAT     H2 1781   3.540   3.677   4.895
  524WAT      O 1782   3.500   2.805   4.571
  524WAT     H1 1783   3.426   2.807   4.510
  524WAT     H2 1784   3.576   2.783   4.515
  525WAT      O 1785   3.651   2.831   5.004
  525WAT     H1 1786   3.648   2.803   5.095
  525WAT     H2 1787   3.597   2.767   4.958
  526WAT      O 1788   3.559   2.513   5.384
  526WAT     H1 1789   3.484   2.507   5.444
  526WAT     H2 1790   3.631   2.540   5.440
  527WAT      O 1791   3.461   2.569   4.228
  527WAT     H1 1792   3.374   2.568   4.269
  527WAT     H2 1793   3.450   2.622   4.150
  528WAT      O 1794   3.706   2.417   3.969
  528WAT     H1 1795   3.778   2.368   3.928
  528WAT     H2 1796   3.638   2.419   3.902
  529WAT      O 1797   3.679   2.032   3.904
  529WAT     H1 1798   3.748   2.065   3.961
  529WAT     H2 1799   3.720   2.026   3.818
  530WAT      O 1800   3.628   1.954   4.874
  530WAT     H1 1801   3.714   1.925   4.846
  530WAT     H2 1802   3.641   1.986   4.964
  531WAT      O 1803   3.591   2.028   5.141
  531WAT     H1 1804   3.588   2.063   5.231
  531WAT     H2 1805   3.537   1.949   5.144
  532WAT      O 1806   4.140   3.482   5.125
  532WAT     H1 1807   4.111   3.515   5.040
  532WAT     H2 1808   4.235   3.471   5.115
  533WAT      O 1809   4.352   2.090   5.441
  533WAT     H1 1810   4.303   2.092   5.523
  533WAT     H2 1811   4.442   2.109   5.467
  534WAT      O 1812   4.634   2.098   5.464
  534WAT     H1 1813   4.636   2.070   5.372
  534WAT     H2 1814   4.666   2.021   5.512
  535WAT      O 1815   3.657   1.904   5.510
  535WAT     H1 1816   3.739   1.877   5.470
  535WAT     H2 1817   3.605   1.824   5.515
  536WAT      O 1818   3.782   3.588   5.334
  536WAT     H1 1819   3.700   3.574   5.381
  536WAT     H2 1820   3.778   3.528   5.260
  537WAT      O 1821   4.643   1.952   5.232
  537WAT     H1 1822   4.590   1.977   5.156
  537WAT     H2 1823   4.622   1.859   5.246
  538WAT      O 1824   3.742   3.390   5.154
  538WAT     H1 1825   3.661   3.340   5.156
  538WAT     H2 1826   3.768   3.391   5.062
  539WAT      O 1827   4.091   3.571   4.857
  539WAT     H1 1828   4.113   3.488   4.813
  539WAT     H2 1829   4.175   3.617   4.863
  540WAT      O 1830   4.349   3.657   4.894
  540WAT     H1 1831   4.394   3.636   4.812
  540WAT     H2 1832   4.378   3.590   4.955
  541WAT      O 1833   4.460   2.001   5.027
  541WAT     H1 1834   4.391   2.047   5.075
  541WAT     H2 1835   4.414   1.931   4.980
  542WAT      O 1836   3.583   3.644   4.483
  542WAT     H1 1837   3.561   3.587   4.557
  542WAT     H2 1838   3.498   3.669   4.447
  543WAT      O 1839   3.666   2.093   4.284
  543WAT     H1 1840   3.733   2.081   4.217
  543WAT     H2 1841   3.629   2.179   4.266
  544WAT      O 1842   4.238   2.278   4.526
  544WAT     H1 1843   4.172   2.232   4.474
  544WAT     H2 1844   4.293   2.208   4.561
  545WAT      O 1845   4.628   1.961   4.637
  545WAT     H1 1846   4.637   2.003   4.723
  545WAT     H2 1847   4.614   2.034   4.576
  546WAT      O 1848   3.689   3.532   4.256
  546WAT     H1 1849   3.666   3.597   4.189
  546WAT     H2 1850   3.669   3.575   4.339
  547WAT      O 1851   3.865   2.085   4.100
  547WAT     H1 1852   3.922   2.009   4.111
  547WAT     H2 1853   3.923   2.160   4.106
  548WAT      O 1854   4.048   2.102   4.402
  548WAT     H1 1855   3.986   2.031   4.419
  548WAT     H2 1856   3.993   2.178   4.387
  549WAT      O 1857   4.156   2.087   5.632
  549WAT     H1 1858   4.092   2.126   5.572
  549WAT     H2 1859   4.114   2.006   5.661
  550WAT      O 1860   3.990   3.749   4.129
  550WAT     H1 1861   4.031   3.702   4.056
  550WAT     H2 1862   4.013   3.697   4.206
  551WAT      O 1863   3.865   3.352   4.138
  551WAT     H1 1864   3.805   3.411   4.183
  551WAT     H2 1865   3.874   3.276   4.196
  552WAT      O 1866   4.554   2.742   2.757
  552WAT     H1 1867   4.573   2.649   2.748
  552WAT     H2 1868   4.539   2.773   2.667
  553WAT      O 1869   4.459   2.934   2.920
  553WAT     H1 1870   4.405   2.887   2.984
  553WAT     H2 1871   4.494   2.866   2.864
  554WAT      O 1872   3.857   2.991   3.018
  554WAT     H1 1873   3.783   2.948   3.060
  554WAT     H2 1874   3.922   3.002   3.087
  555WAT      O 1875   3.841   3.419   3.130
  555WAT     H1 1876   3.763   3.402   3.078
  555WAT     H2 1877   3.900   3.466   3.070
  556WAT      O 1878   3.694   2.474   2.376
  556WAT     H1 1879   3.599   2.474   2.379
  556WAT     H2 1880   3.716   2.452   2.286
  557WAT      O 1881   3.507   2.683   2.975
  557WAT     H1 1882   3.570   2.611   2.981
  557WAT     H2 1883   3.521   2.720   2.888
  558WAT      O 1884   4.463   3.612   2.780
  558WAT     H1 1885   4.400   3.630   2.710
  558WAT     H2 1886   4.521   3.688   2.779
  559WAT      O 1887   4.356   3.188   2.958
  559WAT     H1 1888   4.388   3.101   2.933
  559WAT     H2 1889   4.428   3.226   3.010
  560WAT      O 1890   3.618   2.286   3.185
  560WAT     H1 1891   3.595   2.195   3.203
  560WAT     H2 1892   3.566   2.336   3.248
  561WAT      O 1893   4.520   2.457   2.946
  561WAT     H1 1894   4.552   2.375   2.983
  561WAT     H2 1895   4.555   2.459   2.857
  562WAT      O 1896   3.897   2.332   2.498
  562WAT     H1 1897   3.901   2.367   2.587
  562WAT     H2 1898   3.821   2.374   2.459
  563WAT      O 1899   3.691   2.484   3.010
  563WAT     H1 1900   3.771   2.514   3.053
  563WAT     H2 1901   3.659   2.413   3.065
  564WAT      O 1902   4.120   2.657   2.954
  564WAT     H1 1903   4.189   2.702   3.003
  564WAT     H2 1904   4.161   2.575   2.926
  565WAT      O 1905   3.987   2.084   3.341
  565WAT     H1 1906   3.956   2.153   3.282
  565WAT     H2 1907   3.939   2.006   3.314
  566WAT      O 1908   4.588   3.115   2.516
  566WAT     H1 1909   4.550   3.136   2.430
  566WAT     H2 1910   4.563   3.187   2.572
  567WAT      O 1911   4.080   3.099   3.168
  567WAT     H1 1912   4.040   3.163   3.227
  567WAT     H2 1913   4.100   3.150   3.088
  568WAT      O 1914   3.893   2.273   3.175
  568WAT     H1 1915   3.920   2.364   3.158
  568WAT     H2 1916   3.797   2.277   3.177
  569WAT      O 1917   3.981   3.298   3.324
  569WAT     H1 1918   4.053   3.361   3.316
  569WAT     H2 1919   3.916   3.330   3.261
  570WAT      O 1920   4.241   2.021   2.769
  570WAT     H1 1921   4.257   1.950   2.707
  570WAT     H2 1922   4.146   2.033   2.768
  571WAT      O 1923   4.502   2.851   2.508
  571WAT     H1 1924   4.408   2.865   2.505
  571WAT     H2 1925   4.539   2.940   2.513
  572WAT      O 1926   4.460   2.413   2.164
  572WAT     H1 1927   4.372   2.430   2.198
  572WAT     H2 1928   4.497   2.500   2.149
  573WAT      O 1929   4.066   2.839   2.730
  573WAT     H1 1930   4.022   2.767   2.685
  573WAT     H2 1931   4.088   2.804   2.816
  574WAT      O 1932   4.104   3.276   2.937
  574WAT     H1 1933   4.058   3.217   2.878
  574WAT     H2 1934   4.195   3.248   2.933
  575WAT      O 1935   3.931   2.548   3.129
  575WAT     H1 1936   3.988   2.587   3.063
  575WAT     H2 1937   3.958   2.588   3.211
  576WAT      O 1938   3.978   3.247   3.588
  576WAT     H1 1939   3.892   3.272   3.620
  576WAT     H2 1940   3.973   3.259   3.493
  577WAT      O 1941   4.741   2.910   2.237
  577WAT     H1 1942   4.832   2.903   2.210
  577WAT     H2 1943   4.746   2.937   2.329
  578WAT      O 1944   3.900   2.901   3.459
  578WAT     H1 1945   3.894   2.987   3.418
  578WAT     H2 1946   3.817   2.859   3.440
  579WAT      O 1947   4.492   3.362   2.627
  579WAT     H1 1948   4.529   3.428   2.569
  579WAT     H2 1949   4.478   3.408   2.710
  580WAT      O 1950   4.109   3.472   3.685
  580WAT     H1 1951   4.099   3.532   3.612
  580WAT     H2 1952   4.065   3.391   3.656
  581WAT      O 1953   3.728   2.718   2.508
  581WAT     H1 1954   3.736   2.790   2.444
  581WAT     H2 1955   3.716   2.640   2.454
  582WAT      O 1956   3.523   3.122   3.160
  582WAT     H1 1957   3.450   3.117   3.099
  582WAT     H2 1958   3.568   3.038   3.150
  583WAT      O 1959   3.681   3.229   2.758
  583WAT     H1 1960   3.628   3.158   2.721
  583WAT     H2 1961   3.767   3.191   2.769
  584WAT      O 1962   4.558   3.580   3.415
  584WAT     H1 1963   4.565   3.509   3.478
  584WAT     H2 1964   4.486   3.634   3.448
  585WAT      O 1965   4.693   3.672   2.359
  585WAT     H1 1966   4.713   3.655   2.451
  585WAT     H2 1967   4.757   3.619   2.310
  586WAT      O 1968   4.048   3.577   2.520
  586WAT     H1 1969   4.032   3.484   2.536
  586WAT     H2 1970   3.970   3.621   2.554
  587WAT      O 1971   4.735   3.619   2.622
  587WAT     H1 1972   4.754   3.555   2.691
  587WAT     H2 1973   4.706   3.697   2.669
  588WAT      O 1974   3.977   2.114   2.850
  588WAT     H1 1975   3.921   2.189   2.827
  588WAT     H2 1976   4.031   2.146   2.922
  589WAT      O 1977   4.366   2.374   3.371
  589WAT     H1 1978   4.323   2.389   3.455
  589WAT     H2 1979   4.326   2.294   3.338
  590WAT      O 1980   4.590   2.640   3.734
  590WAT     H1 1981   4.600   2.548   3.708
  590WAT     H2 1982   4.679   2.669   3.756
  591WAT      O 1983   4.263   2.043   2.334
  591WAT     H1 1984   4.191   2.049   2.398
  591WAT     H2 1985   4.296   1.954   2.344
  592WAT      O 1986   4.202   2.178   3.002
  592WAT     H1 1987   4.220   2.268   2.972
  592WAT     H2 1988   4.241   2.123   2.934
  593WAT      O 1989   3.938   2.605   2.647
  593WAT     H1 1990   3.895   2.543   2.706
  593WAT     H2 1991   3.866   2.647   2.599
  594WAT      O 1992   4.613   2.606   2.458
  594WAT     H1 1993   4.569   2.690   2.469
  594WAT     H2 1994   4.653   2.611   2.371
  595WAT      O 1995   4.212   2.716   3.633
  595WAT     H1 1996   4.220   2.621   3.624
  595WAT     H2 1997   4.294   2.752   3.599
  596WAT      O 1998   4.586   2.454   2.683
  596WAT     H1 1999   4.595   2.502   2.600
  596WAT     H2 2000   4.584   2.362   2.657
  597WAT      O 2001   3.747   2.347   3.526
  597WAT     H1 2002   3.684   2.419   3.537
  597WAT     H2 2003   3.693   2.270   3.508
  598WAT      O 2004   4.346   2.296   3.808
  598WAT     H1 2005   4.287   2.243   3.862
  598WAT     H2 2006   4.405   2.337   3.871
  599WAT      O 2007   3.455   2.110   2.842
  599WAT     H1 2008   3.417   2.171   2.906
  599WAT     H2 2009   3.511   2.053   2.894
  600WAT      O 2010   3.445   2.525   2.020
  600WAT     H1 2011   3.454   2.620   2.017
  600WAT     H2 2012   3.388   2.504   1.946
  601WAT      O 2013   4.558   2.676   3.116
  601WAT     H1 2014   4.474   2.718   3.100
  601WAT     H2 2015   4.558   2.598   3.060
  602WAT      O 2016   4.255   2.425   2.887
  602WAT     H1 2017   4.258   2.392   2.797
  602WAT     H2 2018   4.347   2.443   2.909
  603WAT      O 2019   3.791   2.398   2.765
  603WAT     H1 2020   3.756   2.429   2.848
  603WAT     H2 2021   3.717   2.354   2.723
  604WAT      O 2022   4.218   2.485   2.260
  604WAT     H1 2023   4.208   2.501   2.354
  604WAT     H2 2024   4.193   2.568   2.219
  605WAT      O 2025   4.599   2.214   3.048
  605WAT     H1 2026   4.625   2.257   3.130
  605WAT     H2 2027   4.550   2.137   3.076
  606WAT      O 2028   4.160   2.717   2.121
  606WAT     H1 2029   4.104   2.671   2.059
  606WAT     H2 2030   4.238   2.741   2.069
  607WAT      O 2031   4.298   2.802   3.111
  607WAT     H1 2032   4.302   2.744   3.187
  607WAT     H2 2033   4.247   2.877   3.141
  608WAT      O 2034   3.582   2.258   2.649
  608WAT     H1 2035   3.541   2.196   2.710
  608WAT     H2 2036   3.605   2.204   2.573
  609WAT      O 2037   4.033   2.670   3.357
  609WAT     H1 2038   4.014   2.756   3.392
  609WAT     H2 2039   4.128   2.666   3.352
  610WAT      O 2040   3.942   3.105   2.411
  610WAT     H1 2041   3.868   3.045   2.404
  610WAT     H2 2042   4.014   3.062   2.365
  611WAT      O 2043   4.497   2.192   2.335
  611WAT     H1 2044   4.412   2.149   2.330
  611WAT     H2 2045   4.490   2.267   2.276
  612WAT      O 2046   4.440   3.050   3.551
  612WAT     H1 2047   4.461   2.957   3.545
  612WAT     H2 2048   4.355   3.052   3.594
  613WAT      O 2049   3.941   3.097   2.786
  613WAT     H1 2050   3.980   3.021   2.744
  613WAT     H2 2051   3.904   3.063   2.868
  614WAT      O 2052   4.441   3.192   2.298
  614WAT     H1 2053   4.437   3.277   2.253
  614WAT     H2 2054   4.364   3.192   2.355
  615WAT      O 2055   3.646   2.790   3.417
  615WAT     H1 2056   3.593   2.844   3.476
  615WAT     H2 2057   3.637   2.701   3.452
  616WAT      O 2058   3.982   2.846   3.718
  616WAT     H1 2059   3.960   2.879   3.631
  616WAT     H2 2060   4.066   2.802   3.706
  617WAT      O 2061   4.528   3.305   3.587
  617WAT     H1 2062   4.498   3.216   3.568
  617WAT     H2 2063   4.467   3.338   3.653
  618WAT      O 2064   4.666   3.115   2.888
  618WAT     H1 2065   4.688   3.105   2.796
  618WAT     H2 2066   4.601   3.046   2.905
  619WAT      O 2067   4.274   3.211   2.533
  619WAT     H1 2068   4.342   3.265   2.575
  619WAT     H2 2069   4.193   3.259   2.550
  620WAT      O 2070   3.483   2.798   2.061
  620WAT     H1 2071   3.569   2.777   2.098
  620WAT     H2 2072   3.427   2.811   2.137
  621WAT      O 2073   4.239   2.937   2.524
  621WAT     H1 2074   4.249   3.031   2.540
  621WAT     H2 2075   4.186   2.907   2.598
  622WAT      O 2076   4.431   3.471   3.197
  622WAT     H1 2077   4.484   3.509   3.268
  622WAT     H2 2078   4.484   3.398   3.165
  623WAT      O 2079   3.808   1.923   2.551
  623WAT     H1 2080   3.742   1.871   2.597
  623WAT     H2 2081   3.758   1.990   2.505
  624WAT      O 2082   4.588   3.266   3.109
  624WAT     H1 2083   4.644   3.258   3.186
  624WAT     H2 2084   4.635   3.219   3.040
  625WAT      O 2085   4.713   3.289   3.376
  625WAT     H1 2086   4.789   3.325   3.421
  625WAT     H2 2087   4.644   3.287   3.442
  626WAT      O 2088   3.620   3.665   2.136
  626WAT     H1 2089   3.638   3.754   2.106
  626WAT     H2 2090   3.526   3.664   2.153
  627WAT      O 2091   3.594   2.111   3.527
  627WAT     H1 2092   3.518   2.123   3.584
  627WAT     H2 2093   3.648   2.047   3.573
  628WAT      O 2094   4.344   3.368   3.788
  628WAT     H1 2095   4.311   3.286   3.826
  628WAT     H2 2096   4.267   3.411   3.752
  629WAT      O 2097   4.141   3.423   2.225
  629WAT     H1 2098   4.121   3.496   2.167
  629WAT     H2 2099   4.058   3.378   2.236
  630WAT      O 2100   3.742   2.933   2.322
  630WAT     H1 2101   3.662   2.978   2.296
  630WAT     H2 2102   3.791   2.920   2.241
  631WAT      O 2103   4.625   2.338   3.289
  631WAT     H1 2104   4.678   2.395   3.346
  631WAT     H2 2105   4.535   2.353   3.318
  632WAT      O 2106   4.402   3.439   2.175
  632WAT     H1 2107   4.407   3.421   2.081
  632WAT     H2 2108   4.309   3.429   2.196
  633WAT      O 2109   4.175   2.518   2.523
  633WAT     H1 2110   4.099   2.551   2.571
  633WAT     H2 2111   4.205   2.442   2.574
  634WAT      O 2112   4.309   2.643   3.328
  634WAT     H1 2113   4.363   2.684   3.395
  634WAT     H2 2114   4.334   2.550   3.331
  635WAT      O 2115   4.617   2.183   2.583
  635WAT     H1 2116   4.563   2.184   2.503
  635WAT     H2 2117   4.706   2.196   2.551
  636WAT      O 2118   4.295   3.676   2.579
  636WAT     H1 2119   4.340   3.676   2.494
  636WAT     H2 2120   4.209   3.638   2.560
  637WAT      O 2121   4.004   2.302   2.246
  637WAT     H1 2122   4.088   2.347   2.236
  637WAT     H2 2123   3.977   2.322   2.336
  638WAT      O 2124   3.909   2.945   2.097
  638WAT     H1 2125   3.992   2.948   2.145
  638WAT     H2 2126   3.933   2.912   2.010
  639WAT      O 2127   3.737   2.697   2.118
  639WAT     H1 2128   3.735   2.602   2.128
  639WAT     H2 2129   3.831   2.719   2.120
  640WAT      O 2130   3.877   3.758   2.882
  640WAT     H1 2131   3.948   3.708   2.922
  640WAT     H2 2132   3.909   3.849   2.882
  641WAT      O 2133   3.748   3.605   3.821
  641WAT     H1 2134   3.816   3.626   3.884
  641WAT     H2 2135   3.674   3.575   3.874
  642WAT      O 2136   4.106   3.628   2.052
  642WAT     H1 2137   4.176   3.687   2.025
  642WAT     H2 2138   4.092   3.571   1.976
  643WAT      O 2139   4.696   3.200   3.802
  643WAT     H1 2140   4.641   3.237   3.733
  643WAT     H2 2141   4.638   3.142   3.851
  644WAT      O 2142   4.242   3.136   2.013
  644WAT     H1 2143   4.226   3.074   2.085
  644WAT     H2 2144   4.223   3.086   1.934
  645WAT      O 2145   4.178   3.062   3.628
  645WAT     H1 2146   4.106   3.124   3.623
  645WAT     H2 2147   4.166   3.006   3.551
  646WAT      O 2148   4.540   3.024   2.092
  646WAT     H1 2149   4.497   3.081   2.155
  646WAT     H2 2150   4.610   2.982   2.141
  647WAT      O 2151   3.735   2.728   3.732
  647WAT     H1 2152   3.728   2.718   3.827
  647WAT     H2 2153   3.822   2.765   3.718
  648WAT      O 2154   4.127   2.940   2.272
  648WAT     H1 2155   4.175   2.934   2.355
  648WAT     H2 2156   4.145   2.857   2.228
  649WAT      O 2157   3.966   2.511   3.576
  649WAT     H1 2158   3.891   2.457   3.551
  649WAT     H2 2159   3.985   2.563   3.498
  650WAT      O 2160   4.398   2.796   2.008
  650WAT     H1 2161   4.460   2.749   1.953
  650WAT     H2 2162   4.442   2.879   2.028
  651WAT      O 2163   3.961   2.183   3.597
  651WAT     H1 2164   3.983   2.147   3.511
  651WAT     H2 2165   3.891   2.246   3.579
  652WAT      O 2166   4.246   2.145   3.267
  652WAT     H1 2167   4.224   2.163   3.176
  652WAT     H2 2168   4.164   2.118   3.307
  653WAT      O 2169   4.218   2.968   3.362
  653WAT     H1 2170   4.303   3.010   3.370
  653WAT     H2 2171   4.172   3.017   3.294
  654WAT      O 2172   4.473   2.768   3.522
  654WAT     H1 2173   4.511   2.721   3.596
  654WAT     H2 2174   4.544   2.775   3.458
  655WAT      O 2175   4.672   2.775   3.339
  655WAT     H1 2176   4.635   2.736   3.260
  655WAT     H2 2177   4.756   2.811   3.311
  656WAT      O 2178   3.986   2.564   1.973
  656WAT     H1 2179   3.963   2.472   1.982
  656WAT     H2 2180   3.982   2.580   1.878
  657WAT      O 2181   4.087   3.649   3.470
  657WAT     H1 2182   4.038   3.721   3.431
  657WAT     H2 2183   4.113   3.594   3.396
  658WAT      O 2184   4.237   2.438   3.602
  658WAT     H1 2185   4.269   2.389   3.678
  658WAT     H2 2186   4.141   2.433   3.610
  659WAT      O 2187   4.670   2.383   3.669
  659WAT     H1 2188   4.642   2.308   3.617
  659WAT     H2 2189   4.736   2.347   3.729
  660WAT      O 2190   4.709   2.042   2.236
  660WAT     H1 2191   4.696   1.958   2.281
  660WAT     H2 2192   4.636   2.097   2.265
  661WAT      O 2193   3.914   2.297   1.987
  661WAT     H1 2194   3.952   2.229   1.932
  661WAT     H2 2195   3.956   2.287   2.072
  662WAT      O 2196   4.354   3.729   3.502
  662WAT     H1 2197   4.360   3.814   3.546
  662WAT     H2 2198   4.261   3.708   3.505
  663WAT      O 2199   4.207   2.146   2.085
  663WAT     H1 2200   4.144   2.089   2.041
  663WAT     H2 2201   4.218   2.107   2.171
  664WAT      O 2202   4.421   3.667   2.334
  664WAT     H1 2203   4.516   3.678   2.339
  664WAT     H2 2204   4.409   3.591   2.277
  665WAT      O 2205   3.769   3.180   2.060
  665WAT     H1 2206   3.810   3.237   2.125
  665WAT     H2 2207   3.816   3.098   2.067
  666WAT      O 2208   3.496   3.423   2.840
  666WAT     H1 2209   3.561   3.361   2.807
  666WAT     H2 2210   3.536   3.461   2.918
  667WAT      O 2211   4.014   3.303   2.586
  667WAT     H1 2212   3.980   3.268   2.669
  667WAT     H2 2213   3.987   3.237   2.521
  668WAT      O 2214   3.568   3.572   3.083
  668WAT     H1 2215   3.473   3.573   3.097
  668WAT     H2 2216   3.588   3.660   3.051
  669WAT      O 2217   3.545   2.767   2.717
  669WAT     H1 2218   3.479   2.811   2.662
  669WAT     H2 2219   3.616   2.746   2.657
  670WAT      O 2220   3.642   2.869   3.147
  670WAT     H1 2221   3.644   2.832   3.235
  670WAT     H2 2222   3.595   2.804   3.095
  671WAT      O 2223   3.578   2.564   3.589
  671WAT     H1 2224   3.522   2.530   3.659
  671WAT     H2 2225   3.639   2.622   3.634
  672WAT      O 2226   3.430   2.479   2.297
  672WAT     H1 2227   3.348   2.515   2.331
  672WAT     H2 2228   3.429   2.499   2.203
  673WAT      O 2229   3.704   2.427   2.109
  673WAT     H1 2230   3.763   2.375   2.056
  673WAT     H2 2231   3.622   2.429   2.060
  674WAT      O 2232   3.639   2.052   2.018
  674WAT     H1 2233   3.708   2.081   2.078
  674WAT     H2 2234   3.686   2.031   1.937
  675WAT      O 2235   3.624   1.957   2.999
  675WAT     H1 2236   3.714   1.931   2.980
  675WAT     H2 2237   3.626   1.986   3.090
  676WAT      O 2238   3.573   2.023   3.265
  676WAT     H1 2239   3.583   2.051   3.356
  676WAT     H2 2240   3.508   1.953   3.268
  677WAT      O 2241   3.744   3.367   3.684
  677WAT     H1 2242   3.757   3.309   3.759
  677WAT     H2 2243   3.755   3.455   3.720
  678WAT      O 2244   4.162   3.492   3.260
  678WAT     H1 2245   4.128   3.516   3.174
  678WAT     H2 2246   4.256   3.480   3.246
  679WAT      O 2247   4.390   2.073   3.649
  679WAT     H1 2248   4.368   2.154   3.696
  679WAT     H2 2249   4.476   2.090   3.611
  680WAT      O 2250   4.649   2.121   3.561
  680WAT     H1 2251   4.645   2.084   3.472
  680WAT     H2 2252   4.714   2.068   3.606
  681WAT      O 2253   3.740   1.916   3.649
  681WAT     H1 2254   3.768   1.872   3.569
  681WAT     H2 2255   3.753   1.852   3.718
  682WAT      O 2256   3.706   3.606   3.359
  682WAT     H1 2257   3.751   3.530   3.396
  682WAT     H2 2258   3.675   3.576   3.274
  683WAT      O 2259   4.643   1.950   3.346
  683WAT     H1 2260   4.589   1.974   3.271
  683WAT     H2 2261   4.620   1.859   3.365
  684WAT      O 2262   4.068   3.546   2.997
  684WAT     H1 2263   4.084   3.457   2.964
  684WAT     H2 2264   4.153   3.590   2.988
  685WAT      O 2265   4.329   3.643   3.016
  685WAT     H1 2266   4.377   3.630   2.935
  685WAT     H2 2267   4.370   3.584   3.079
  686WAT      O 2268   4.454   2.002   3.149
  686WAT     H1 2269   4.386   2.047   3.200
  686WAT     H2 2270   4.408   1.932   3.103
  687WAT      O 2271   3.638   2.102   2.415
  687WAT     H1 2272   3.700   2.106   2.343
  687WAT     H2 2273   3.555   2.131   2.377
  688WAT      O 2274   4.237   2.274   2.649
  688WAT     H1 2275   4.172   2.231   2.593
  688WAT     H2 2276   4.286   2.203   2.690
  689WAT      O 2277   4.628   1.963   2.759
  689WAT     H1 2278   4.636   2.005   2.844
  689WAT     H2 2279   4.614   2.035   2.698
  690WAT      O 2280   3.756   3.546   2.352
  690WAT     H1 2281   3.713   3.587   2.277
  690WAT     H2 2282   3.768   3.616   2.415
  691WAT      O 2283   3.827   2.091   2.217
  691WAT     H1 2284   3.880   2.011   2.227
  691WAT     H2 2285   3.891   2.162   2.225
  692WAT      O 2286   4.046   2.100   2.518
  692WAT     H1 2287   3.983   2.031   2.540
  692WAT     H2 2288   3.992   2.177   2.503
  693WAT      O 2289   4.307   3.759   3.815
  693WAT     H1 2290   4.387   3.713   3.838
  693WAT     H2 2291   4.336   3.835   3.765
  694WAT      O 2292   4.034   1.998   3.783
  694WAT     H1 2293   4.004   2.055   3.712
  694WAT     H2 2294   4.097   1.939   3.742
  695WAT      O 2295   4.038   3.752   2.297
  695WAT     H1 2296   4.054   3.709   2.213
  695WAT     H2 2297   4.043   3.680   2.361
  696WAT      O 2298   3.886   3.327   2.256
  696WAT     H1 2299   3.838   3.400   2.297
  696WAT     H2 2300   3.895   3.263   2.326
  697WAT      O 2301   4.554   2.748   0.871
  697WAT     H1 2302   4.579   2.655   0.866
  697WAT     H2 2303   4.543   2.774   0.779
  698WAT      O 2304   4.453   2.935   1.038
  698WAT     H1 2305   4.401   2.886   1.102
  698WAT     H2 2306   4.489   2.868   0.980
  699WAT      O 2307   3.849   2.975   1.145
  699WAT     H1 2308   3.778   2.923   1.183
  699WAT     H2 2309   3.908   2.994   1.218
  700WAT      O 2310   3.879   3.402   1.177
  700WAT     H1 2311   3.941   3.337   1.145
  700WAT     H2 2312   3.912   3.485   1.142
  701WAT      O 2313   3.685   2.497   0.504
  701WAT     H1 2314   3.591   2.487   0.489
  701WAT     H2 2315   3.723   2.497   0.416
  702WAT      O 2316   3.468   2.665   1.077
  702WAT     H1 2317   3.540   2.602   1.080
  702WAT     H2 2318   3.482   2.714   0.996
  703WAT      O 2319   4.460   3.613   0.899
  703WAT     H1 2320   4.389   3.636   0.839
  703WAT     H2 2321   4.519   3.688   0.897
  704WAT      O 2322   4.351   3.191   1.082
  704WAT     H1 2323   4.383   3.104   1.055
  704WAT     H2 2324   4.423   3.227   1.134
  705WAT      O 2325   3.605   2.296   1.300
  705WAT     H1 2326   3.595   2.204   1.325
  705WAT     H2 2327   3.535   2.341   1.348
  706WAT      O 2328   4.519   2.460   1.072
  706WAT     H1 2329   4.551   2.377   1.108
  706WAT     H2 2330   4.558   2.465   0.985
  707WAT      O 2331   3.900   2.350   0.602
  707WAT     H1 2332   3.932   2.415   0.664
  707WAT     H2 2333   3.813   2.381   0.576
  708WAT      O 2334   3.683   2.495   1.128
  708WAT     H1 2335   3.762   2.527   1.171
  708WAT     H2 2336   3.652   2.425   1.184
  709WAT      O 2337   4.121   2.652   1.081
  709WAT     H1 2338   4.187   2.699   1.131
  709WAT     H2 2339   4.163   2.570   1.056
  710WAT      O 2340   3.983   2.090   1.462
  710WAT     H1 2341   3.950   2.158   1.404
  710WAT     H2 2342   3.936   2.011   1.436
  711WAT      O 2343   4.570   3.116   0.603
  711WAT     H1 2344   4.519   3.145   0.528
  711WAT     H2 2345   4.551   3.181   0.671
  712WAT      O 2346   4.054   3.092   1.312
  712WAT     H1 2347   4.015   3.156   1.372
  712WAT     H2 2348   4.072   3.143   1.233
  713WAT      O 2349   3.882   2.283   1.306
  713WAT     H1 2350   3.911   2.372   1.286
  713WAT     H2 2351   3.787   2.287   1.303
  714WAT      O 2352   3.966   3.304   1.463
  714WAT     H1 2353   4.030   3.367   1.429
  714WAT     H2 2354   3.881   3.341   1.440
  715WAT      O 2355   3.533   3.102   0.396
  715WAT     H1 2356   3.593   3.137   0.331
  715WAT     H2 2357   3.526   3.170   0.462
  716WAT      O 2358   4.233   2.024   0.897
  716WAT     H1 2359   4.252   1.951   0.837
  716WAT     H2 2360   4.140   2.040   0.885
  717WAT      O 2361   4.502   2.843   0.615
  717WAT     H1 2362   4.407   2.855   0.621
  717WAT     H2 2363   4.537   2.932   0.609
  718WAT      O 2364   4.478   2.438   0.364
  718WAT     H1 2365   4.385   2.461   0.365
  718WAT     H2 2366   4.501   2.435   0.271
  719WAT      O 2367   4.072   2.813   0.857
  719WAT     H1 2368   4.025   2.745   0.810
  719WAT     H2 2369   4.092   2.775   0.942
  720WAT      O 2370   4.088   3.247   1.081
  720WAT     H1 2371   4.053   3.187   1.015
  720WAT     H2 2372   4.183   3.234   1.077
  721WAT      O 2373   3.923   2.555   1.253
  721WAT     H1 2374   3.983   2.590   1.187
  721WAT     H2 2375   3.950   2.597   1.334
  722WAT      O 2376   3.999   3.243   1.724
  722WAT     H1 2377   3.911   3.253   1.760
  722WAT     H2 2378   3.988   3.256   1.630
  723WAT      O 2379   4.689   2.931   0.352
  723WAT     H1 2380   4.734   2.847   0.358
  723WAT     H2 2381   4.711   2.976   0.434
  724WAT      O 2382   3.871   2.900   1.600
  724WAT     H1 2383   3.826   2.984   1.609
  724WAT     H2 2384   3.804   2.841   1.564
  725WAT      O 2385   4.483   3.361   0.750
  725WAT     H1 2386   4.515   3.425   0.687
  725WAT     H2 2387   4.474   3.411   0.832
  726WAT      O 2388   4.108   3.477   1.822
  726WAT     H1 2389   4.102   3.532   1.744
  726WAT     H2 2390   4.071   3.393   1.795
  727WAT      O 2391   3.710   2.711   0.679
  727WAT     H1 2392   3.716   2.789   0.624
  727WAT     H2 2393   3.696   2.639   0.618
  728WAT      O 2394   3.447   3.017   1.263
  728WAT     H1 2395   3.428   3.034   1.171
  728WAT     H2 2396   3.521   2.957   1.262
  729WAT      O 2397   3.561   3.214   0.844
  729WAT     H1 2398   3.545   3.239   0.753
  729WAT     H2 2399   3.653   3.188   0.846
  730WAT      O 2400   4.548   3.581   1.532
  730WAT     H1 2401   4.560   3.510   1.595
  730WAT     H2 2402   4.475   3.632   1.567
  731WAT      O 2403   4.654   3.652   0.479
  731WAT     H1 2404   4.682   3.642   0.570
  731WAT     H2 2405   4.724   3.610   0.428
  732WAT      O 2406   4.013   3.623   0.649
  732WAT     H1 2407   3.981   3.535   0.669
  732WAT     H2 2408   3.938   3.680   0.669
  733WAT      O 2409   4.729   3.619   0.739
  733WAT     H1 2410   4.744   3.553   0.807
  733WAT     H2 2411   4.705   3.698   0.787
  734WAT      O 2412   3.579   3.210   1.421
  734WAT     H1 2413   3.525   3.149   1.370
  734WAT     H2 2414   3.605   3.161   1.498
  735WAT      O 2415   3.966   2.126   0.976
  735WAT     H1 2416   3.916   2.203   0.950
  735WAT     H2 2417   4.023   2.156   1.046
  736WAT      O 2418   4.361   2.371   1.502
  736WAT     H1 2419   4.312   2.383   1.583
  736WAT     H2 2420   4.325   2.292   1.462
  737WAT      O 2421   4.591   2.640   1.856
  737WAT     H1 2422   4.601   2.549   1.832
  737WAT     H2 2423   4.679   2.670   1.877
  738WAT      O 2424   4.284   2.071   0.511
  738WAT     H1 2425   4.195   2.077   0.545
  738WAT     H2 2426   4.294   1.979   0.485
  739WAT      O 2427   4.198   2.179   1.125
  739WAT     H1 2428   4.217   2.268   1.095
  739WAT     H2 2429   4.231   2.122   1.056
  740WAT      O 2430   3.935   2.578   0.772
  740WAT     H1 2431   3.902   2.516   0.837
  740WAT     H2 2432   3.858   2.629   0.746
  741WAT      O 2433   4.597   2.582   0.574
  741WAT     H1 2434   4.561   2.671   0.572
  741WAT     H2 2435   4.557   2.539   0.498
  742WAT      O 2436   4.196   2.698   1.756
  742WAT     H1 2437   4.200   2.603   1.745
  742WAT     H2 2438   4.281   2.730   1.725
  743WAT      O 2439   4.601   2.460   0.815
  743WAT     H1 2440   4.604   2.500   0.728
  743WAT     H2 2441   4.611   2.366   0.797
  744WAT      O 2442   3.742   2.341   1.650
  744WAT     H1 2443   3.675   2.409   1.650
  744WAT     H2 2444   3.692   2.259   1.647
  745WAT      O 2445   4.355   2.299   1.929
  745WAT     H1 2446   4.297   2.247   1.986
  745WAT     H2 2447   4.414   2.343   1.989
  746WAT      O 2448   3.456   2.115   0.975
  746WAT     H1 2449   3.421   2.177   1.038
  746WAT     H2 2450   3.513   2.058   1.027
  747WAT      O 2451   4.558   2.679   1.240
  747WAT     H1 2452   4.473   2.721   1.225
  747WAT     H2 2453   4.555   2.601   1.184
  748WAT      O 2454   4.255   2.424   1.011
  748WAT     H1 2455   4.257   2.391   0.921
  748WAT     H2 2456   4.347   2.441   1.032
  749WAT      O 2457   3.802   2.374   0.908
  749WAT     H1 2458   3.758   2.415   0.983
  749WAT     H2 2459   3.731   2.335   0.858
  750WAT      O 2460   4.219   2.520   0.366
  750WAT     H1 2461   4.203   2.528   0.460
  750WAT     H2 2462   4.211   2.610   0.332
  751WAT      O 2463   4.599   2.218   1.174
  751WAT     H1 2464   4.623   2.260   1.257
  751WAT     H2 2465   4.549   2.140   1.200
  752WAT      O 2466   4.215   2.777   0.242
  752WAT     H1 2467   4.195   2.771   0.149
  752WAT     H2 2468   4.290   2.836   0.247
  753WAT      O 2469   3.674   3.095   1.655
  753WAT     H1 2470   3.628   3.035   1.713
  753WAT     H2 2471   3.694   3.171   1.709
  754WAT      O 2472   4.298   2.800   1.236
  754WAT     H1 2473   4.301   2.739   1.309
  754WAT     H2 2474   4.253   2.877   1.270
  755WAT      O 2475   3.586   2.252   0.776
  755WAT     H1 2476   3.546   2.192   0.839
  755WAT     H2 2477   3.605   2.198   0.699
  756WAT      O 2478   4.029   2.680   1.478
  756WAT     H1 2479   4.016   2.770   1.509
  756WAT     H2 2480   4.124   2.670   1.473
  757WAT      O 2481   3.910   3.115   0.522
  757WAT     H1 2482   3.833   3.059   0.531
  757WAT     H2 2483   3.978   3.056   0.488
  758WAT      O 2484   4.522   2.198   0.496
  758WAT     H1 2485   4.435   2.157   0.498
  758WAT     H2 2486   4.508   2.282   0.453
  759WAT      O 2487   4.442   3.045   1.667
  759WAT     H1 2488   4.463   2.952   1.658
  759WAT     H2 2489   4.358   3.047   1.712
  760WAT      O 2490   3.964   3.064   0.916
  760WAT     H1 2491   4.001   2.982   0.883
  760WAT     H2 2492   3.910   3.038   0.990
  761WAT      O 2493   4.369   3.209   0.425
  761WAT     H1 2494   4.320   3.279   0.382
  761WAT     H2 2495   4.324   3.196   0.508
  762WAT      O 2496   3.622   2.773   1.537
  762WAT     H1 2497   3.585   2.834   1.601
  762WAT     H2 2498   3.600   2.686   1.571
  763WAT      O 2499   3.979   2.846   1.851
  763WAT     H1 2500   3.940   2.866   1.766
  763WAT     H2 2501   4.058   2.796   1.830
  764WAT      O 2502   4.529   3.300   1.711
  764WAT     H1 2503   4.498   3.212   1.689
  764WAT     H2 2504   4.466   3.332   1.776
  765WAT      O 2505   4.662   3.114   1.016
  765WAT     H1 2506   4.693   3.100   0.927
  765WAT     H2 2507   4.596   3.046   1.029
  766WAT      O 2508   4.264   3.198   0.681
  766WAT     H1 2509   4.329   3.255   0.722
  766WAT     H2 2510   4.180   3.238   0.704
  767WAT      O 2511   3.487   2.723   0.288
  767WAT     H1 2512   3.578   2.750   0.278
  767WAT     H2 2513   3.440   2.804   0.306
  768WAT      O 2514   4.241   2.922   0.660
  768WAT     H1 2515   4.250   3.016   0.678
  768WAT     H2 2516   4.191   2.888   0.734
  769WAT      O 2517   4.419   3.467   1.319
  769WAT     H1 2518   4.470   3.506   1.390
  769WAT     H2 2519   4.473   3.395   1.288
  770WAT      O 2520   3.806   1.924   0.684
  770WAT     H1 2521   3.739   1.872   0.728
  770WAT     H2 2522   3.757   1.986   0.631
  771WAT      O 2523   4.584   3.268   1.233
  771WAT     H1 2524   4.643   3.260   1.308
  771WAT     H2 2525   4.629   3.220   1.163
  772WAT      O 2526   4.722   3.295   1.510
  772WAT     H1 2527   4.796   3.328   1.561
  772WAT     H2 2528   4.650   3.290   1.573
  773WAT      O 2529   3.615   3.723   0.380
  773WAT     H1 2530   3.619   3.762   0.293
  773WAT     H2 2531   3.610   3.797   0.440
  774WAT      O 2532   3.582   2.114   1.660
  774WAT     H1 2533   3.494   2.109   1.697
  774WAT     H2 2534   3.632   2.047   1.708
  775WAT      O 2535   4.346   3.364   1.911
  775WAT     H1 2536   4.313   3.283   1.949
  775WAT     H2 2537   4.268   3.411   1.880
  776WAT      O 2538   4.182   3.407   0.328
  776WAT     H1 2539   4.171   3.408   0.232
  776WAT     H2 2540   4.093   3.395   0.362
  777WAT      O 2541   3.707   2.920   0.501
  777WAT     H1 2542   3.640   2.979   0.468
  777WAT     H2 2543   3.731   2.867   0.425
  778WAT      O 2544   4.621   2.340   1.416
  778WAT     H1 2545   4.675   2.399   1.470
  778WAT     H2 2546   4.532   2.354   1.447
  779WAT      O 2547   4.172   2.517   0.631
  779WAT     H1 2548   4.102   2.551   0.688
  779WAT     H2 2549   4.209   2.443   0.680
  780WAT      O 2550   4.304   2.637   1.450
  780WAT     H1 2551   4.358   2.682   1.515
  780WAT     H2 2552   4.330   2.545   1.457
  781WAT      O 2553   4.645   2.187   0.736
  781WAT     H1 2554   4.592   2.187   0.656
  781WAT     H2 2555   4.735   2.193   0.706
  782WAT      O 2556   4.269   3.685   0.720
  782WAT     H1 2557   4.312   3.688   0.635
  782WAT     H2 2558   4.179   3.660   0.700
  783WAT      O 2559   4.005   2.336   0.348
  783WAT     H1 2560   4.089   2.381   0.341
  783WAT     H2 2561   3.985   2.338   0.441
  784WAT      O 2562   3.773   2.757   0.291
  784WAT     H1 2563   3.779   2.663   0.273
  784WAT     H2 2564   3.863   2.788   0.281
  785WAT      O 2565   3.867   3.766   1.069
  785WAT     H1 2566   3.945   3.709   1.075
  785WAT     H2 2567   3.899   3.846   1.028
  786WAT      O 2568   3.529   3.303   0.580
  786WAT     H1 2569   3.443   3.344   0.566
  786WAT     H2 2570   3.591   3.372   0.557
  787WAT      O 2571   3.750   3.575   1.889
  787WAT     H1 2572   3.831   3.624   1.901
  787WAT     H2 2573   3.699   3.592   1.968
  788WAT      O 2574   4.695   3.199   1.926
  788WAT     H1 2575   4.640   3.235   1.856
  788WAT     H2 2576   4.637   3.140   1.974
  789WAT      O 2577   3.555   2.892   1.799
  789WAT     H1 2578   3.617   2.821   1.811
  789WAT     H2 2579   3.504   2.894   1.880
  790WAT      O 2580   4.188   3.048   1.756
  790WAT     H1 2581   4.120   3.116   1.751
  790WAT     H2 2582   4.160   2.982   1.692
  791WAT      O 2583   4.422   2.965   0.275
  791WAT     H1 2584   4.404   3.051   0.314
  791WAT     H2 2585   4.516   2.952   0.288
  792WAT      O 2586   3.705   2.671   1.842
  792WAT     H1 2587   3.726   2.684   1.934
  792WAT     H2 2588   3.789   2.647   1.802
  793WAT      O 2589   4.078   2.917   0.437
  793WAT     H1 2590   4.137   2.911   0.512
  793WAT     H2 2591   4.123   2.868   0.368
  794WAT      O 2592   3.912   2.560   1.701
  794WAT     H1 2593   3.872   2.480   1.669
  794WAT     H2 2594   3.960   2.596   1.626
  795WAT      O 2595   3.990   2.220   1.702
  795WAT     H1 2596   3.998   2.173   1.619
  795WAT     H2 2597   3.907   2.266   1.697
  796WAT      O 2598   4.245   2.146   1.389
  796WAT     H1 2599   4.223   2.163   1.297
  796WAT     H2 2600   4.162   2.118   1.428
  797WAT      O 2601   4.212   2.949   1.480
  797WAT     H1 2602   4.287   3.006   1.497
  797WAT     H2 2603   4.153   3.002   1.426
  798WAT      O 2604   4.469   2.760   1.642
  798WAT     H1 2605   4.508   2.717   1.718
  798WAT     H2 2606   4.541   2.768   1.579
  799WAT      O 2607   4.672   2.772   1.464
  799WAT     H1 2608   4.635   2.735   1.384
  799WAT     H2 2609   4.755   2.811   1.436
  800WAT      O 2610   4.075   3.629   1.593
  800WAT     H1 2611   3.983   3.653   1.579
  800WAT     H2 2612   4.101   3.583   1.513
  801WAT      O 2613   4.210   2.412   1.728
  801WAT     H1 2614   4.262   2.380   1.801
  801WAT     H2 2615   4.132   2.356   1.727
  802WAT      O 2616   4.669   2.384   1.791
  802WAT     H1 2617   4.641   2.308   1.740
  802WAT     H2 2618   4.736   2.349   1.850
  803WAT      O 2619   4.738   2.040   0.426
  803WAT     H1 2620   4.700   1.953   0.438
  803WAT     H2 2621   4.665   2.101   0.440
  804WAT      O 2622   4.342   3.725   1.624
  804WAT     H1 2623   4.346   3.813   1.662
  804WAT     H2 2624   4.248   3.706   1.619
  805WAT      O 2625   4.378   3.676   0.470
  805WAT     H1 2626   4.474   3.676   0.466
  805WAT     H2 2627   4.351   3.608   0.409
  806WAT      O 2628   3.736   3.201   0.241
  806WAT     H1 2629   3.792   3.267   0.282
  806WAT     H2 2630   3.789   3.166   0.169
  807WAT      O 2631   3.478   3.470   0.935
  807WAT     H1 2632   3.508   3.380   0.924
  807WAT     H2 2633   3.508   3.495   1.022
  808WAT      O 2634   4.001   3.268   0.731
  808WAT     H1 2635   3.982   3.210   0.804
  808WAT     H2 2636   3.967   3.223   0.654
  809WAT      O 2637   3.549   3.567   1.177
  809WAT     H1 2638   3.589   3.537   1.258
  809WAT     H2 2639   3.564   3.661   1.176
  810WAT      O 2640   3.495   2.804   0.838
  810WAT     H1 2641   3.431   2.812   0.768
  810WAT     H2 2642   3.575   2.775   0.794
  811WAT      O 2643   3.643   2.827   1.265
  811WAT     H1 2644   3.643   2.801   1.357
  811WAT     H2 2645   3.594   2.757   1.221
  812WAT      O 2646   3.538   2.536   1.675
  812WAT     H1 2647   3.458   2.508   1.720
  812WAT     H2 2648   3.590   2.580   1.742
  813WAT      O 2649   3.423   2.496   0.425
  813WAT     H1 2650   3.354   2.525   0.486
  813WAT     H2 2651   3.437   2.571   0.368
  814WAT      O 2652   3.796   2.484   0.252
  814WAT     H1 2653   3.874   2.433   0.276
  814WAT     H2 2654   3.759   2.436   0.178
  815WAT      O 2655   3.624   1.960   1.129
  815WAT     H1 2656   3.712   1.931   1.103
  815WAT     H2 2657   3.635   1.992   1.218
  816WAT      O 2658   3.594   2.035   1.396
  816WAT     H1 2659   3.601   2.066   1.486
  816WAT     H2 2660   3.542   1.955   1.402
  817WAT      O 2661   3.749   3.302   1.821
  817WAT     H1 2662   3.748   3.260   1.907
  817WAT     H2 2663   3.743   3.396   1.841
  818WAT      O 2664   4.143   3.489   1.365
  818WAT     H1 2665   4.116   3.520   1.279
  818WAT     H2 2666   4.237   3.474   1.356
  819WAT      O 2667   4.390   2.075   1.772
  819WAT     H1 2668   4.372   2.155   1.820
  819WAT     H2 2669   4.476   2.090   1.732
  820WAT      O 2670   4.649   2.121   1.683
  820WAT     H1 2671   4.646   2.085   1.595
  820WAT     H2 2672   4.715   2.068   1.728
  821WAT      O 2673   3.729   1.919   1.782
  821WAT     H1 2674   3.759   1.879   1.700
  821WAT     H2 2675   3.745   1.852   1.848
  822WAT      O 2676   3.777   3.635   1.572
  822WAT     H1 2677   3.752   3.603   1.659
  822WAT     H2 2678   3.754   3.564   1.513
  823WAT      O 2679   4.644   1.952   1.468
  823WAT     H1 2680   4.589   1.975   1.393
  823WAT     H2 2681   4.621   1.860   1.486
  824WAT      O 2682   3.719   3.437   1.390
  824WAT     H1 2683   3.662   3.360   1.400
  824WAT     H2 2684   3.764   3.422   1.307
  825WAT      O 2685   4.087   3.583   1.097
  825WAT     H1 2686   4.111   3.510   1.041
  825WAT     H2 2687   4.169   3.632   1.109
  826WAT      O 2688   4.346   3.661   1.145
  826WAT     H1 2689   4.392   3.641   1.063
  826WAT     H2 2690   4.377   3.593   1.206
  827WAT      O 2691   4.454   2.004   1.272
  827WAT     H1 2692   4.386   2.048   1.322
  827WAT     H2 2693   4.408   1.933   1.226
  828WAT      O 2694   3.588   3.635   0.740
  828WAT     H1 2695   3.557   3.584   0.815
  828WAT     H2 2696   3.507   3.661   0.694
  829WAT      O 2697   3.639   2.093   0.532
  829WAT     H1 2698   3.710   2.109   0.470
  829WAT     H2 2699   3.563   2.138   0.494
  830WAT      O 2700   4.239   2.283   0.769
  830WAT     H1 2701   4.168   2.234   0.728
  830WAT     H2 2702   4.303   2.217   0.795
  831WAT      O 2703   4.634   1.956   0.893
  831WAT     H1 2704   4.642   1.990   0.982
  831WAT     H2 2705   4.627   2.033   0.838
  832WAT      O 2706   3.705   3.510   0.523
  832WAT     H1 2707   3.679   3.574   0.458
  832WAT     H2 2708   3.681   3.549   0.607
  833WAT      O 2709   3.852   2.098   0.364
  833WAT     H1 2710   3.910   2.022   0.374
  833WAT     H2 2711   3.911   2.170   0.343
  834WAT      O 2712   4.037   2.116   0.655
  834WAT     H1 2713   3.974   2.048   0.675
  834WAT     H2 2714   3.983   2.192   0.632
  835WAT      O 2715   4.314   3.763   1.941
  835WAT     H1 2716   4.389   3.705   1.951
  835WAT     H2 2717   4.346   3.836   1.888
  836WAT      O 2718   4.038   2.030   1.898
  836WAT     H1 2719   4.026   2.083   1.819
  836WAT     H2 2720   4.088   1.954   1.869
  837WAT      O 2721   4.020   3.759   0.404
  837WAT     H1 2722   4.051   3.694   0.341
  837WAT     H2 2723   4.020   3.714   0.488
  838WAT      O 2724   3.910   3.362   0.399
  838WAT     H1 2725   3.845   3.417   0.443
  838WAT     H2 2726   3.910   3.280   0.449
  839WAT      O 2727   4.559   0.885   4.626
  839WAT     H1 2728   4.574   0.791   4.616
  839WAT     H2 2729   4.538   0.915   4.538
  840WAT      O 2730   4.452   1.064   4.797
  840WAT     H1 2731   4.400   1.014   4.861
  840WAT     H2 2732   4.489   0.997   4.739
  841WAT      O 2733   3.852   1.106   4.894
  841WAT     H1 2734   3.785   1.047   4.929
  841WAT     H2 2735   3.913   1.118   4.966
  842WAT      O 2736   3.864   1.518   4.913
  842WAT     H1 2737   3.935   1.460   4.887
  842WAT     H2 2738   3.893   1.606   4.887
  843WAT      O 2739   3.688   0.618   4.262
  843WAT     H1 2740   3.592   0.624   4.263
  843WAT     H2 2741   3.709   0.588   4.174
  844WAT      O 2742   3.479   0.799   4.820
  844WAT     H1 2743   3.544   0.729   4.827
  844WAT     H2 2744   3.497   0.840   4.735
  845WAT      O 2745   4.464   1.735   4.650
  845WAT     H1 2746   4.395   1.756   4.587
  845WAT     H2 2747   4.521   1.812   4.649
  846WAT      O 2748   4.349   1.314   4.844
  846WAT     H1 2749   4.380   1.228   4.816
  846WAT     H2 2750   4.423   1.353   4.891
  847WAT      O 2751   3.610   0.401   5.072
  847WAT     H1 2752   3.611   0.330   5.136
  847WAT     H2 2753   3.537   0.456   5.099
  848WAT      O 2754   4.540   0.610   4.812
  848WAT     H1 2755   4.577   0.530   4.851
  848WAT     H2 2756   4.570   0.608   4.721
  849WAT      O 2757   3.912   0.455   4.303
  849WAT     H1 2758   3.981   0.505   4.347
  849WAT     H2 2759   3.834   0.509   4.313
  850WAT      O 2760   3.678   0.615   4.887
  850WAT     H1 2761   3.757   0.649   4.928
  850WAT     H2 2762   3.653   0.539   4.940
  851WAT      O 2763   4.118   0.795   4.839
  851WAT     H1 2764   4.180   0.846   4.892
  851WAT     H2 2765   4.162   0.712   4.825
  852WAT      O 2766   4.592   1.237   4.386
  852WAT     H1 2767   4.549   1.262   4.304
  852WAT     H2 2768   4.569   1.307   4.447
  853WAT      O 2769   4.063   1.213   5.058
  853WAT     H1 2770   4.026   1.272   5.124
  853WAT     H2 2771   4.078   1.269   4.982
  854WAT      O 2772   3.883   0.402   4.985
  854WAT     H1 2773   3.907   0.494   5.002
  854WAT     H2 2774   3.796   0.392   5.025
  855WAT      O 2775   3.983   1.405   5.235
  855WAT     H1 2776   4.043   1.472   5.203
  855WAT     H2 2777   3.896   1.439   5.215
  856WAT      O 2778   3.508   1.241   4.152
  856WAT     H1 2779   3.479   1.296   4.080
  856WAT     H2 2780   3.527   1.303   4.223
  857WAT      O 2781   4.493   0.978   4.379
  857WAT     H1 2782   4.399   0.994   4.377
  857WAT     H2 2783   4.532   1.066   4.381
  858WAT      O 2784   4.470   0.551   4.064
  858WAT     H1 2785   4.380   0.574   4.089
  858WAT     H2 2786   4.524   0.616   4.109
  859WAT      O 2787   4.072   0.950   4.607
  859WAT     H1 2788   4.017   0.885   4.563
  859WAT     H2 2789   4.094   0.911   4.691
  860WAT      O 2790   4.091   1.381   4.832
  860WAT     H1 2791   4.056   1.322   4.766
  860WAT     H2 2792   4.185   1.365   4.833
  861WAT      O 2793   3.920   0.680   5.006
  861WAT     H1 2794   3.977   0.721   4.940
  861WAT     H2 2795   3.950   0.717   5.089
  862WAT      O 2796   4.023   1.332   5.497
  862WAT     H1 2797   3.972   1.253   5.512
  862WAT     H2 2798   4.009   1.353   5.405
  863WAT      O 2799   4.739   1.029   4.134
  863WAT     H1 2800   4.823   1.047   4.093
  863WAT     H2 2801   4.741   1.079   4.216
  864WAT      O 2802   3.871   1.018   5.321
  864WAT     H1 2803   3.825   1.101   5.334
  864WAT     H2 2804   3.803   0.958   5.291
  865WAT      O 2805   4.489   1.487   4.498
  865WAT     H1 2806   4.519   1.550   4.432
  865WAT     H2 2807   4.479   1.539   4.578
  866WAT      O 2808   4.088   1.591   5.599
  866WAT     H1 2809   4.083   1.643   5.519
  866WAT     H2 2810   4.068   1.502   5.570
  867WAT      O 2811   3.704   0.864   4.388
  867WAT     H1 2812   3.713   0.933   4.323
  867WAT     H2 2813   3.700   0.783   4.338
  868WAT      O 2814   3.484   1.165   4.989
  868WAT     H1 2815   3.462   1.177   4.897
  868WAT     H2 2816   3.553   1.099   4.989
  869WAT      O 2817   3.590   1.336   4.600
  869WAT     H1 2818   3.576   1.363   4.510
  869WAT     H2 2819   3.682   1.310   4.604
  870WAT      O 2820   4.545   1.696   5.292
  870WAT     H1 2821   4.544   1.615   5.343
  870WAT     H2 2822   4.468   1.744   5.321
  871WAT      O 2823   4.684   1.795   4.240
  871WAT     H1 2824   4.709   1.779   4.332
  871WAT     H2 2825   4.748   1.745   4.189
  872WAT      O 2826   4.030   1.730   4.389
  872WAT     H1 2827   4.002   1.642   4.412
  872WAT     H2 2828   3.955   1.786   4.410
  873WAT      O 2829   4.741   1.744   4.501
  873WAT     H1 2830   4.745   1.677   4.570
  873WAT     H2 2831   4.711   1.823   4.547
  874WAT      O 2832   3.536   1.334   5.199
  874WAT     H1 2833   3.513   1.280   5.124
  874WAT     H2 2834   3.593   1.278   5.252
  875WAT      O 2835   4.004   0.339   4.749
  875WAT     H1 2836   3.950   0.390   4.688
  875WAT     H2 2837   3.960   0.348   4.833
  876WAT      O 2838   4.365   0.511   5.261
  876WAT     H1 2839   4.321   0.531   5.344
  876WAT     H2 2840   4.321   0.433   5.228
  877WAT      O 2841   4.622   0.736   5.570
  877WAT     H1 2842   4.621   0.641   5.561
  877WAT     H2 2843   4.669   0.752   5.652
  878WAT      O 2844   4.220   0.326   4.931
  878WAT     H1 2845   4.242   0.415   4.906
  878WAT     H2 2846   4.148   0.302   4.872
  879WAT      O 2847   3.918   0.740   4.519
  879WAT     H1 2848   3.880   0.667   4.568
  879WAT     H2 2849   3.843   0.785   4.480
  880WAT      O 2850   4.608   0.747   4.283
  880WAT     H1 2851   4.555   0.822   4.313
  880WAT     H2 2852   4.679   0.786   4.233
  881WAT      O 2853   4.173   0.813   5.544
  881WAT     H1 2854   4.191   0.720   5.531
  881WAT     H2 2855   4.255   0.856   5.520
  882WAT      O 2856   4.585   0.616   4.536
  882WAT     H1 2857   4.599   0.652   4.449
  882WAT     H2 2858   4.552   0.527   4.520
  883WAT      O 2859   3.733   0.392   5.372
  883WAT     H1 2860   3.691   0.477   5.360
  883WAT     H2 2861   3.663   0.328   5.361
  884WAT      O 2862   3.477   0.269   4.776
  884WAT     H1 2863   3.420   0.335   4.815
  884WAT     H2 2864   3.531   0.238   4.849
  885WAT      O 2865   3.469   0.597   3.864
  885WAT     H1 2866   3.470   0.680   3.912
  885WAT     H2 2867   3.407   0.611   3.792
  886WAT      O 2868   4.563   0.818   4.990
  886WAT     H1 2869   4.475   0.856   4.984
  886WAT     H2 2870   4.563   0.748   4.926
  887WAT      O 2871   4.271   0.573   4.812
  887WAT     H1 2872   4.260   0.532   4.726
  887WAT     H2 2873   4.364   0.592   4.818
  888WAT      O 2874   3.796   0.529   4.647
  888WAT     H1 2875   3.758   0.558   4.730
  888WAT     H2 2876   3.725   0.482   4.603
  889WAT      O 2877   4.220   0.617   4.144
  889WAT     H1 2878   4.193   0.624   4.235
  889WAT     H2 2879   4.195   0.701   4.105
  890WAT      O 2880   4.618   0.382   4.937
  890WAT     H1 2881   4.635   0.410   5.027
  890WAT     H2 2882   4.574   0.297   4.947
  891WAT      O 2883   4.161   0.845   4.001
  891WAT     H1 2884   4.105   0.798   3.939
  891WAT     H2 2885   4.237   0.871   3.949
  892WAT      O 2886   3.684   1.209   5.400
  892WAT     H1 2887   3.636   1.138   5.442
  892WAT     H2 2888   3.691   1.277   5.467
  893WAT      O 2889   4.297   0.935   4.996
  893WAT     H1 2890   4.301   0.877   5.072
  893WAT     H2 2891   4.247   1.011   5.026
  894WAT      O 2892   3.575   0.395   4.552
  894WAT     H1 2893   3.548   0.332   4.618
  894WAT     H2 2894   3.582   0.343   4.471
  895WAT      O 2895   4.030   0.802   5.232
  895WAT     H1 2896   4.010   0.892   5.259
  895WAT     H2 2897   4.126   0.798   5.235
  896WAT      O 2898   3.924   1.233   4.277
  896WAT     H1 2899   3.849   1.174   4.268
  896WAT     H2 2900   3.996   1.187   4.233
  897WAT      O 2901   4.487   0.318   4.213
  897WAT     H1 2902   4.443   0.254   4.156
  897WAT     H2 2903   4.491   0.397   4.160
  898WAT      O 2904   4.496   1.168   5.413
  898WAT     H1 2905   4.516   1.076   5.398
  898WAT     H2 2906   4.414   1.167   5.462
  899WAT      O 2907   3.965   1.200   4.667
  899WAT     H1 2908   4.002   1.119   4.633
  899WAT     H2 2909   3.912   1.173   4.742
  900WAT      O 2910   4.437   1.316   4.176
  900WAT     H1 2911   4.433   1.401   4.132
  900WAT     H2 2912   4.361   1.315   4.234
  901WAT      O 2913   3.631   0.884   5.268
  901WAT     H1 2914   3.596   0.930   5.345
  901WAT     H2 2915   3.620   0.791   5.289
  902WAT      O 2916   3.960   0.993   5.582
  902WAT     H1 2917   3.932   0.989   5.491
  902WAT     H2 2918   4.033   0.930   5.588
  903WAT      O 2919   4.525   1.438   5.408
  903WAT     H1 2920   4.525   1.343   5.405
  903WAT     H2 2921   4.458   1.460   5.473
  904WAT      O 2922   4.666   1.235   4.764
  904WAT     H1 2923   4.696   1.214   4.676
  904WAT     H2 2924   4.596   1.172   4.782
  905WAT      O 2925   4.272   1.331   4.411
  905WAT     H1 2926   4.338   1.386   4.452
  905WAT     H2 2927   4.189   1.374   4.433
  906WAT      O 2928   3.482   0.843   3.992
  906WAT     H1 2929   3.577   0.846   4.003
  906WAT     H2 2930   3.459   0.928   3.954
  907WAT      O 2931   4.231   1.058   4.398
  907WAT     H1 2932   4.242   1.152   4.416
  907WAT     H2 2933   4.181   1.025   4.473
  908WAT      O 2934   4.415   1.590   5.073
  908WAT     H1 2935   4.466   1.627   5.145
  908WAT     H2 2936   4.470   1.519   5.039
  909WAT      O 2937   4.581   1.396   4.973
  909WAT     H1 2938   4.640   1.396   5.049
  909WAT     H2 2939   4.629   1.347   4.906
  910WAT      O 2940   4.720   1.428   5.207
  910WAT     H1 2941   4.783   1.493   5.238
  910WAT     H2 2942   4.653   1.424   5.275
  911WAT      O 2943   3.596   1.818   4.045
  911WAT     H1 2944   3.625   1.892   3.992
  911WAT     H2 2945   3.541   1.857   4.113
  912WAT      O 2946   3.514   0.239   5.309
  912WAT     H1 2947   3.420   0.256   5.324
  912WAT     H2 2948   3.525   0.147   5.334
  913WAT      O 2949   3.532   1.661   5.464
  913WAT     H1 2950   3.528   1.580   5.514
  913WAT     H2 2951   3.449   1.666   5.418
  914WAT      O 2952   4.137   1.547   4.109
  914WAT     H1 2953   4.120   1.609   4.038
  914WAT     H2 2954   4.051   1.511   4.130
  915WAT      O 2955   3.719   1.066   4.194
  915WAT     H1 2956   3.643   1.121   4.175
  915WAT     H2 2957   3.762   1.054   4.109
  916WAT      O 2958   4.628   0.470   5.198
  916WAT     H1 2959   4.673   0.553   5.216
  916WAT     H2 2960   4.537   0.487   5.221
  917WAT      O 2961   4.398   1.564   4.057
  917WAT     H1 2962   4.404   1.546   3.964
  917WAT     H2 2963   4.305   1.553   4.079
  918WAT      O 2964   4.128   0.609   4.400
  918WAT     H1 2965   4.070   0.666   4.451
  918WAT     H2 2966   4.176   0.559   4.466
  919WAT      O 2967   4.312   0.779   5.215
  919WAT     H1 2968   4.375   0.822   5.273
  919WAT     H2 2969   4.337   0.687   5.218
  920WAT      O 2970   4.501   0.355   4.481
  920WAT     H1 2971   4.494   0.343   4.386
  920WAT     H2 2972   4.562   0.287   4.510
  921WAT      O 2973   4.283   1.806   4.460
  921WAT     H1 2974   4.330   1.803   4.377
  921WAT     H2 2975   4.194   1.777   4.439
  922WAT      O 2976   4.073   0.390   4.092
  922WAT     H1 2977   4.128   0.467   4.104
  922WAT     H2 2978   4.011   0.393   4.164
  923WAT      O 2979   3.898   1.085   3.973
  923WAT     H1 2980   3.979   1.082   4.024
  923WAT     H2 2981   3.923   1.050   3.887
  924WAT      O 2982   3.753   0.816   3.996
  924WAT     H1 2983   3.752   0.721   4.008
  924WAT     H2 2984   3.845   0.840   3.995
  925WAT      O 2985   3.876   1.872   4.801
  925WAT     H1 2986   3.953   1.818   4.816
  925WAT     H2 2987   3.910   1.954   4.766
  926WAT      O 2988   3.548   1.430   4.345
  926WAT     H1 2989   3.458   1.459   4.335
  926WAT     H2 2990   3.601   1.504   4.315
  927WAT      O 2991   4.104   1.728   3.912
  927WAT     H1 2992   4.174   1.790   3.894
  927WAT     H2 2993   4.103   1.670   3.836
  928WAT      O 2994   3.553   0.996   5.514
  928WAT     H1 2995   3.599   0.959   5.590
  928WAT     H2 2996   3.460   0.977   5.531
  929WAT      O 2997   4.244   1.257   3.893
  929WAT     H1 2998   4.219   1.197   3.963
  929WAT     H2 2999   4.224   1.209   3.813
  930WAT      O 3000   4.247   1.163   5.510
  930WAT     H1 3001   4.178   1.226   5.531
  930WAT     H2 3002   4.217   1.120   5.431
  931WAT      O 3003   4.541   1.145   3.976
  931WAT     H1 3004   4.496   1.204   4.037
  931WAT     H2 3005   4.604   1.098   4.031
  932WAT      O 3006   4.116   1.068   4.147
  932WAT     H1 3007   4.163   1.062   4.230
  932WAT     H2 3008   4.136   0.986   4.102
  933WAT      O 3009   3.850   0.677   5.419
  933WAT     H1 3010   3.901   0.599   5.440
  933WAT     H2 3011   3.908   0.728   5.362
  934WAT      O 3012   4.391   0.930   3.881
  934WAT     H1 3013   4.457   0.879   3.834
  934WAT     H2 3014   4.437   1.011   3.906
  935WAT      O 3015   4.003   0.417   5.398
  935WAT     H1 3016   4.036   0.370   5.321
  935WAT     H2 3017   3.909   0.398   5.398
  936WAT      O 3018   4.243   0.271   5.196
  936WAT     H1 3019   4.236   0.292   5.103
  936WAT     H2 3020   4.216   0.180   5.202
  937WAT      O 3021   4.221   1.092   5.243
  937WAT     H1 3022   4.304   1.138   5.233
  937WAT     H2 3023   4.161   1.135   5.182
  938WAT      O 3024   4.512   0.888   5.374
  938WAT     H1 3025   4.546   0.837   5.448
  938WAT     H2 3026   4.586   0.895   5.314
  939WAT      O 3027   4.712   0.909   5.195
  939WAT     H1 3028   4.664   0.874   5.119
  939WAT     H2 3029   4.780   0.964   5.157
  940WAT      O 3030   3.987   0.694   3.853
  940WAT     H1 3031   3.959   0.603   3.864
  940WAT     H2 3032   3.975   0.711   3.760
  941WAT      O 3033   4.059   1.732   5.356
  941WAT     H1 3034   3.963   1.735   5.350
  941WAT     H2 3035   4.086   1.690   5.274
  942WAT      O 3036   4.226   0.540   5.496
  942WAT     H1 3037   4.277   0.469   5.535
  942WAT     H2 3038   4.142   0.500   5.474
  943WAT      O 3039   4.624   0.465   5.547
  943WAT     H1 3040   4.542   0.418   5.542
  943WAT     H2 3041   4.683   0.417   5.490
  944WAT      O 3042   3.911   0.429   3.874
  944WAT     H1 3043   3.950   0.400   3.791
  944WAT     H2 3044   3.972   0.398   3.941
  945WAT      O 3045   4.324   1.831   5.358
  945WAT     H1 3046   4.330   1.926   5.374
  945WAT     H2 3047   4.231   1.811   5.367
  946WAT      O 3048   4.258   0.238   3.964
  946WAT     H1 3049   4.218   0.153   3.943
  946WAT     H2 3050   4.191   0.284   4.014
  947WAT      O 3051   4.410   1.793   4.219
  947WAT     H1 3052   4.504   1.807   4.224
  947WAT     H2 3053   4.399   1.718   4.161
  948WAT      O 3054   3.787   1.334   3.930
  948WAT     H1 3055   3.822   1.386   4.003
  948WAT     H2 3056   3.823   1.246   3.943
  949WAT      O 3057   3.496   1.588   4.680
  949WAT     H1 3058   3.533   1.500   4.673
  949WAT     H2 3059   3.519   1.615   4.769
  950WAT      O 3060   4.008   1.401   4.476
  950WAT     H1 3061   3.989   1.347   4.552
  950WAT     H2 3062   3.977   1.349   4.402
  951WAT      O 3063   3.494   1.720   4.923
  951WAT     H1 3064   3.468   1.740   5.013
  951WAT     H2 3065   3.542   1.798   4.895
  952WAT      O 3066   3.498   0.930   4.571
  952WAT     H1 3067   3.427   0.934   4.508
  952WAT     H2 3068   3.576   0.911   4.519
  953WAT      O 3069   3.649   0.950   5.002
  953WAT     H1 3070   3.646   0.921   5.094
  953WAT     H2 3071   3.594   0.887   4.955
  954WAT      O 3072   3.578   0.633   5.378
  954WAT     H1 3073   3.511   0.631   5.447
  954WAT     H2 3074   3.659   0.653   5.425
  955WAT      O 3075   3.426   0.660   4.195
  955WAT     H1 3076   3.356   0.687   4.254
  955WAT     H2 3077   3.432   0.731   4.131
  956WAT      O 3078   3.706   0.546   4.002
  956WAT     H1 3079   3.771   0.495   3.954
  956WAT     H2 3080   3.628   0.543   3.947
  957WAT      O 3081   4.139   1.602   5.124
  957WAT     H1 3082   4.110   1.637   5.040
  957WAT     H2 3083   4.234   1.594   5.116
  958WAT      O 3084   4.395   0.309   5.510
  958WAT     H1 3085   4.378   0.228   5.558
  958WAT     H2 3086   4.380   0.286   5.418
  959WAT      O 3087   3.780   1.711   5.332
  959WAT     H1 3088   3.697   1.698   5.378
  959WAT     H2 3089   3.777   1.650   5.259
  960WAT      O 3090   3.744   1.510   5.155
  960WAT     H1 3091   3.663   1.461   5.156
  960WAT     H2 3092   3.769   1.512   5.063
  961WAT      O 3093   4.089   1.696   4.856
  961WAT     H1 3094   4.112   1.613   4.812
  961WAT     H2 3095   4.172   1.743   4.864
  962WAT      O 3096   4.346   1.780   4.894
  962WAT     H1 3097   4.393   1.760   4.814
  962WAT     H2 3098   4.376   1.714   4.957
  963WAT      O 3099   3.574   1.762   4.479
  963WAT     H1 3100   3.557   1.705   4.554
  963WAT     H2 3101   3.487   1.789   4.448
  964WAT      O 3102   3.585   0.273   4.308
  964WAT     H1 3103   3.663   0.294   4.256
  964WAT     H2 3104   3.511   0.302   4.254
  965WAT      O 3105   4.253   0.437   4.577
  965WAT     H1 3106   4.201   0.360   4.601
  965WAT     H2 3107   4.335   0.401   4.544
  966WAT      O 3108   3.691   1.647   4.256
  966WAT     H1 3109   3.672   1.705   4.183
  966WAT     H2 3110   3.666   1.698   4.334
  967WAT      O 3111   4.015   1.864   4.138
  967WAT     H1 3112   4.047   1.815   4.062
  967WAT     H2 3113   4.031   1.807   4.213
  968WAT      O 3114   3.877   1.472   4.151
  968WAT     H1 3115   3.815   1.530   4.195
  968WAT     H2 3116   3.883   1.396   4.208
  969WAT      O 3117   4.554   0.883   2.752
  969WAT     H1 3118   4.570   0.790   2.741
  969WAT     H2 3119   4.536   0.915   2.663
  970WAT      O 3120   4.451   1.065   2.922
  970WAT     H1 3121   4.399   1.016   2.985
  970WAT     H2 3122   4.488   0.998   2.864
  971WAT      O 3123   3.852   1.102   3.023
  971WAT     H1 3124   3.786   1.046   3.063
  971WAT     H2 3125   3.915   1.119   3.092
  972WAT      O 3126   3.862   1.518   3.042
  972WAT     H1 3127   3.934   1.462   3.014
  972WAT     H2 3128   3.886   1.606   3.012
  973WAT      O 3129   3.688   0.619   2.384
  973WAT     H1 3130   3.592   0.625   2.385
  973WAT     H2 3131   3.708   0.589   2.295
  974WAT      O 3132   3.462   0.785   2.932
  974WAT     H1 3133   3.537   0.727   2.948
  974WAT     H2 3134   3.486   0.835   2.854
  975WAT      O 3135   4.461   1.738   2.771
  975WAT     H1 3136   4.390   1.760   2.710
  975WAT     H2 3137   4.518   1.815   2.770
  976WAT      O 3138   4.350   1.318   2.966
  976WAT     H1 3139   4.381   1.231   2.939
  976WAT     H2 3140   4.422   1.354   3.017
  977WAT      O 3141   3.613   0.416   3.207
  977WAT     H1 3142   3.617   0.347   3.273
  977WAT     H2 3143   3.542   0.473   3.236
  978WAT      O 3144   4.538   0.608   2.938
  978WAT     H1 3145   4.573   0.528   2.977
  978WAT     H2 3146   4.569   0.607   2.848
  979WAT      O 3147   3.911   0.455   2.425
  979WAT     H1 3148   3.981   0.505   2.469
  979WAT     H2 3149   3.833   0.510   2.434
  980WAT      O 3150   3.674   0.625   3.016
  980WAT     H1 3151   3.758   0.654   3.054
  980WAT     H2 3152   3.651   0.548   3.069
  981WAT      O 3153   4.117   0.795   2.964
  981WAT     H1 3154   4.179   0.846   3.016
  981WAT     H2 3155   4.162   0.712   2.949
  982WAT      O 3156   4.589   1.241   2.515
  982WAT     H1 3157   4.549   1.264   2.431
  982WAT     H2 3158   4.564   1.313   2.574
  983WAT      O 3159   4.062   1.213   3.182
  983WAT     H1 3160   4.022   1.274   3.244
  983WAT     H2 3161   4.081   1.266   3.104
  984WAT      O 3162   3.876   0.405   3.104
  984WAT     H1 3163   3.905   0.494   3.123
  984WAT     H2 3164   3.790   0.399   3.146
  985WAT      O 3165   3.970   1.414   3.339
  985WAT     H1 3166   4.030   1.482   3.308
  985WAT     H2 3167   3.883   1.447   3.319
  986WAT      O 3168   3.506   1.248   2.271
  986WAT     H1 3169   3.477   1.302   2.198
  986WAT     H2 3170   3.523   1.310   2.342
  987WAT      O 3171   4.495   0.981   2.503
  987WAT     H1 3172   4.401   0.996   2.500
  987WAT     H2 3173   4.534   1.068   2.508
  988WAT      O 3174   4.468   0.551   2.182
  988WAT     H1 3175   4.378   0.573   2.209
  988WAT     H2 3176   4.522   0.618   2.224
  989WAT      O 3177   4.073   0.949   2.731
  989WAT     H1 3178   4.018   0.884   2.688
  989WAT     H2 3179   4.094   0.910   2.816
  990WAT      O 3180   4.089   1.383   2.955
  990WAT     H1 3181   4.053   1.322   2.890
  990WAT     H2 3182   4.184   1.366   2.954
  991WAT      O 3183   3.919   0.683   3.131
  991WAT     H1 3184   3.978   0.722   3.066
  991WAT     H2 3185   3.947   0.722   3.214
  992WAT      O 3186   3.988   1.359   3.603
  992WAT     H1 3187   3.901   1.381   3.637
  992WAT     H2 3188   3.980   1.370   3.508
  993WAT      O 3189   4.744   1.027   2.249
  993WAT     H1 3190   4.827   1.039   2.203
  993WAT     H2 3191   4.754   1.075   2.331
  994WAT      O 3192   3.871   1.032   3.477
  994WAT     H1 3193   3.832   1.120   3.481
  994WAT     H2 3194   3.800   0.976   3.446
  995WAT      O 3195   4.488   1.491   2.622
  995WAT     H1 3196   4.520   1.552   2.557
  995WAT     H2 3197   4.477   1.543   2.701
  996WAT      O 3198   4.121   1.581   3.689
  996WAT     H1 3199   4.105   1.639   3.614
  996WAT     H2 3200   4.078   1.499   3.664
  997WAT      O 3201   3.703   0.866   2.510
  997WAT     H1 3202   3.710   0.935   2.444
  997WAT     H2 3203   3.700   0.785   2.459
  998WAT      O 3204   3.482   1.162   3.119
  998WAT     H1 3205   3.463   1.174   3.026
  998WAT     H2 3206   3.553   1.098   3.121
  999WAT      O 3207   3.586   1.339   2.721
  999WAT     H1 3208   3.570   1.366   2.630
  999WAT     H2 3209   3.678   1.313   2.723
 1000WAT      O 3210   4.536   1.696   3.422
 1000WAT     H1 3211   4.541   1.626   3.486
 1000WAT     H2 3212   4.462   1.749   3.451
 1001WAT      O 3213   4.683   1.795   2.363
 1001WAT     H1 3214   4.707   1.779   2.454
 1001WAT     H2 3215   4.746   1.744   2.311
 1002WAT      O 3216   4.021   1.751   2.505
 1002WAT     H1 3217   3.994   1.662   2.525
 1002WAT     H2 3218   3.944   1.805   2.526
 1003WAT      O 3219   4.740   1.745   2.624
 1003WAT     H1 3220   4.747   1.679   2.693
 1003WAT     H2 3221   4.710   1.823   2.669
 1004WAT      O 3222   3.514   1.342   3.327
 1004WAT     H1 3223   3.498   1.283   3.253
 1004WAT     H2 3224   3.578   1.295   3.380
 1005WAT      O 3225   3.995   0.337   2.868
 1005WAT     H1 3226   3.943   0.390   2.808
 1005WAT     H2 3227   3.953   0.347   2.953
 1006WAT      O 3228   4.368   0.511   3.402
 1006WAT     H1 3229   4.320   0.524   3.483
 1006WAT     H2 3230   4.331   0.431   3.364
 1007WAT      O 3231   4.593   0.791   3.743
 1007WAT     H1 3232   4.597   0.698   3.724
 1007WAT     H2 3233   4.681   0.814   3.772
 1008WAT      O 3234   4.221   0.318   3.036
 1008WAT     H1 3235   4.240   0.409   3.015
 1008WAT     H2 3236   4.145   0.297   2.981
 1009WAT      O 3237   3.917   0.741   2.642
 1009WAT     H1 3238   3.878   0.669   2.691
 1009WAT     H2 3239   3.842   0.786   2.602
 1010WAT      O 3240   4.610   0.748   2.412
 1010WAT     H1 3241   4.558   0.824   2.440
 1010WAT     H2 3242   4.681   0.786   2.361
 1011WAT      O 3243   4.192   0.832   3.640
 1011WAT     H1 3244   4.204   0.738   3.639
 1011WAT     H2 3245   4.277   0.868   3.617
 1012WAT      O 3246   4.583   0.615   2.662
 1012WAT     H1 3247   4.599   0.653   2.575
 1012WAT     H2 3248   4.551   0.527   2.645
 1013WAT      O 3249   3.758   0.461   3.517
 1013WAT     H1 3250   3.695   0.532   3.530
 1013WAT     H2 3251   3.703   0.386   3.493
 1014WAT      O 3252   4.401   0.419   3.825
 1014WAT     H1 3253   4.352   0.349   3.868
 1014WAT     H2 3254   4.435   0.473   3.896
 1015WAT      O 3255   3.473   0.271   2.895
 1015WAT     H1 3256   3.416   0.338   2.934
 1015WAT     H2 3257   3.520   0.234   2.970
 1016WAT      O 3258   3.466   0.599   1.985
 1016WAT     H1 3259   3.468   0.682   2.033
 1016WAT     H2 3260   3.405   0.615   1.913
 1017WAT      O 3261   4.559   0.813   3.121
 1017WAT     H1 3262   4.473   0.854   3.109
 1017WAT     H2 3263   4.561   0.744   3.056
 1018WAT      O 3264   4.268   0.572   2.933
 1018WAT     H1 3265   4.260   0.532   2.846
 1018WAT     H2 3266   4.362   0.591   2.941
 1019WAT      O 3267   3.792   0.533   2.772
 1019WAT     H1 3268   3.754   0.562   2.855
 1019WAT     H2 3269   3.721   0.486   2.728
 1020WAT      O 3270   4.219   0.616   2.267
 1020WAT     H1 3271   4.192   0.623   2.358
 1020WAT     H2 3272   4.195   0.701   2.229
 1021WAT      O 3273   4.613   0.380   3.065
 1021WAT     H1 3274   4.631   0.410   3.154
 1021WAT     H2 3275   4.568   0.296   3.076
 1022WAT      O 3276   4.159   0.845   2.124
 1022WAT     H1 3277   4.104   0.798   2.062
 1022WAT     H2 3278   4.236   0.871   2.073
 1023WAT      O 3279   3.681   1.241   3.523
 1023WAT     H1 3280   3.636   1.178   3.578
 1023WAT     H2 3281   3.699   1.315   3.581
 1024WAT      O 3282   4.297   0.934   3.120
 1024WAT     H1 3283   4.299   0.871   3.193
 1024WAT     H2 3284   4.254   1.011   3.156
 1025WAT      O 3285   3.573   0.397   2.673
 1025WAT     H1 3286   3.546   0.334   2.740
 1025WAT     H2 3287   3.581   0.346   2.593
 1026WAT      O 3288   4.027   0.809   3.358
 1026WAT     H1 3289   4.012   0.899   3.388
 1026WAT     H2 3290   4.122   0.800   3.355
 1027WAT      O 3291   3.921   1.232   2.399
 1027WAT     H1 3292   3.846   1.174   2.389
 1027WAT     H2 3293   3.993   1.186   2.356
 1028WAT      O 3294   4.487   0.319   2.334
 1028WAT     H1 3295   4.443   0.255   2.278
 1028WAT     H2 3296   4.490   0.399   2.281
 1029WAT      O 3297   4.441   1.178   3.545
 1029WAT     H1 3298   4.464   1.085   3.536
 1029WAT     H2 3299   4.358   1.178   3.591
 1030WAT      O 3300   3.963   1.197   2.794
 1030WAT     H1 3301   4.001   1.116   2.760
 1030WAT     H2 3302   3.910   1.169   2.869
 1031WAT      O 3303   4.438   1.316   2.301
 1031WAT     H1 3304   4.433   1.401   2.256
 1031WAT     H2 3305   4.362   1.315   2.359
 1032WAT      O 3306   3.623   0.907   3.418
 1032WAT     H1 3307   3.581   0.965   3.482
 1032WAT     H2 3308   3.608   0.819   3.452
 1033WAT      O 3309   3.974   0.978   3.732
 1033WAT     H1 3310   3.938   1.001   3.646
 1033WAT     H2 3311   4.053   0.929   3.712
 1034WAT      O 3312   4.534   1.431   3.586
 1034WAT     H1 3313   4.503   1.343   3.564
 1034WAT     H2 3314   4.475   1.460   3.656
 1035WAT      O 3315   4.662   1.241   2.892
 1035WAT     H1 3316   4.688   1.228   2.801
 1035WAT     H2 3317   4.595   1.175   2.908
 1036WAT      O 3318   4.272   1.332   2.534
 1036WAT     H1 3319   4.337   1.388   2.576
 1036WAT     H2 3320   4.188   1.371   2.557
 1037WAT      O 3321   3.481   0.845   2.114
 1037WAT     H1 3322   3.576   0.848   2.125
 1037WAT     H2 3323   3.458   0.930   2.076
 1038WAT      O 3324   4.231   1.058   2.522
 1038WAT     H1 3325   4.243   1.152   2.539
 1038WAT     H2 3326   4.182   1.025   2.597
 1039WAT      O 3327   4.415   1.590   3.199
 1039WAT     H1 3328   4.463   1.627   3.273
 1039WAT     H2 3329   4.471   1.518   3.169
 1040WAT      O 3330   4.584   1.392   3.113
 1040WAT     H1 3331   4.641   1.386   3.189
 1040WAT     H2 3332   4.630   1.346   3.043
 1041WAT      O 3333   4.717   1.417   3.371
 1041WAT     H1 3334   4.785   1.473   3.407
 1041WAT     H2 3335   4.651   1.412   3.440
 1042WAT      O 3336   3.580   1.818   2.156
 1042WAT     H1 3337   3.601   1.900   2.111
 1042WAT     H2 3338   3.515   1.842   2.221
 1043WAT      O 3339   3.564   0.269   3.448
 1043WAT     H1 3340   3.472   0.287   3.466
 1043WAT     H2 3341   3.578   0.179   3.478
 1044WAT      O 3342   3.534   1.647   3.590
 1044WAT     H1 3343   3.546   1.552   3.590
 1044WAT     H2 3344   3.450   1.661   3.546
 1045WAT      O 3345   4.356   1.483   3.793
 1045WAT     H1 3346   4.321   1.402   3.830
 1045WAT     H2 3347   4.279   1.526   3.755
 1046WAT      O 3348   4.136   1.556   2.230
 1046WAT     H1 3349   4.116   1.620   2.161
 1046WAT     H2 3350   4.051   1.517   2.251
 1047WAT      O 3351   3.714   1.068   2.315
 1047WAT     H1 3352   3.640   1.125   2.295
 1047WAT     H2 3353   3.758   1.056   2.230
 1048WAT      O 3354   4.629   0.477   3.323
 1048WAT     H1 3355   4.670   0.562   3.333
 1048WAT     H2 3356   4.538   0.490   3.351
 1049WAT      O 3357   4.397   1.564   2.181
 1049WAT     H1 3358   4.403   1.546   2.088
 1049WAT     H2 3359   4.304   1.555   2.202
 1050WAT      O 3360   4.127   0.608   2.523
 1050WAT     H1 3361   4.069   0.665   2.574
 1050WAT     H2 3362   4.175   0.558   2.589
 1051WAT      O 3363   4.304   0.771   3.335
 1051WAT     H1 3364   4.356   0.819   3.399
 1051WAT     H2 3365   4.331   0.680   3.345
 1052WAT      O 3366   4.501   0.355   2.603
 1052WAT     H1 3367   4.495   0.344   2.508
 1052WAT     H2 3368   4.563   0.288   2.631
 1053WAT      O 3369   4.276   1.811   2.584
 1053WAT     H1 3370   4.325   1.804   2.503
 1053WAT     H2 3371   4.186   1.788   2.560
 1054WAT      O 3372   4.073   0.390   2.214
 1054WAT     H1 3373   4.128   0.467   2.227
 1054WAT     H2 3374   4.010   0.393   2.286
 1055WAT      O 3375   3.898   1.086   2.095
 1055WAT     H1 3376   3.978   1.083   2.147
 1055WAT     H2 3377   3.923   1.050   2.010
 1056WAT      O 3378   3.752   0.817   2.120
 1056WAT     H1 3379   3.751   0.722   2.131
 1056WAT     H2 3380   3.845   0.840   2.119
 1057WAT      O 3381   3.879   1.876   2.947
 1057WAT     H1 3382   3.955   1.818   2.956
 1057WAT     H2 3383   3.913   1.955   2.905
 1058WAT      O 3384   3.541   1.437   2.466
 1058WAT     H1 3385   3.451   1.469   2.461
 1058WAT     H2 3386   3.595   1.510   2.435
 1059WAT      O 3387   3.794   1.718   3.837
 1059WAT     H1 3388   3.886   1.732   3.862
 1059WAT     H2 3389   3.746   1.727   3.919
 1060WAT      O 3390   4.096   1.739   2.032
 1060WAT     H1 3391   4.170   1.797   2.016
 1060WAT     H2 3392   4.096   1.678   1.959
 1061WAT      O 3393   4.700   1.311   3.805
 1061WAT     H1 3394   4.647   1.352   3.737
 1061WAT     H2 3395   4.638   1.256   3.854
 1062WAT      O 3396   3.551   1.045   3.662
 1062WAT     H1 3397   3.605   0.972   3.692
 1062WAT     H2 3398   3.491   1.062   3.735
 1063WAT      O 3399   4.244   1.258   2.016
 1063WAT     H1 3400   4.221   1.197   2.086
 1063WAT     H2 3401   4.224   1.210   1.936
 1064WAT      O 3402   4.186   1.174   3.635
 1064WAT     H1 3403   4.114   1.237   3.632
 1064WAT     H2 3404   4.166   1.111   3.566
 1065WAT      O 3405   4.541   1.146   2.100
 1065WAT     H1 3406   4.497   1.204   2.162
 1065WAT     H2 3407   4.606   1.099   2.152
 1066WAT      O 3408   3.700   0.825   3.726
 1066WAT     H1 3409   3.722   0.828   3.819
 1066WAT     H2 3410   3.783   0.802   3.683
 1067WAT      O 3411   4.114   1.068   2.272
 1067WAT     H1 3412   4.161   1.062   2.355
 1067WAT     H2 3413   4.134   0.986   2.227
 1068WAT      O 3414   3.903   0.698   3.584
 1068WAT     H1 3415   3.878   0.611   3.554
 1068WAT     H2 3416   3.952   0.735   3.511
 1069WAT      O 3417   4.391   0.931   2.006
 1069WAT     H1 3418   4.456   0.880   1.958
 1069WAT     H2 3419   4.437   1.011   2.030
 1070WAT      O 3420   4.014   0.385   3.625
 1070WAT     H1 3421   4.064   0.313   3.586
 1070WAT     H2 3422   3.935   0.390   3.571
 1071WAT      O 3423   4.277   0.273   3.298
 1071WAT     H1 3424   4.263   0.291   3.205
 1071WAT     H2 3425   4.229   0.192   3.315
 1072WAT      O 3426   4.213   1.080   3.365
 1072WAT     H1 3427   4.289   1.137   3.378
 1072WAT     H2 3428   4.156   1.130   3.306
 1073WAT      O 3429   4.474   0.896   3.521
 1073WAT     H1 3430   4.512   0.860   3.600
 1073WAT     H2 3431   4.547   0.900   3.459
 1074WAT      O 3432   4.680   0.900   3.344
 1074WAT     H1 3433   4.640   0.866   3.264
 1074WAT     H2 3434   4.758   0.946   3.315
 1075WAT      O 3435   3.986   0.693   1.976
 1075WAT     H1 3436   3.958   0.602   1.988
 1075WAT     H2 3437   3.975   0.710   1.883
 1076WAT      O 3438   4.056   1.740   3.475
 1076WAT     H1 3439   3.961   1.741   3.470
 1076WAT     H2 3440   4.084   1.700   3.393
 1077WAT      O 3441   4.234   0.555   3.639
 1077WAT     H1 3442   4.287   0.516   3.709
 1077WAT     H2 3443   4.154   0.502   3.638
 1078WAT      O 3444   4.618   0.527   3.686
 1078WAT     H1 3445   4.545   0.480   3.726
 1078WAT     H2 3446   4.657   0.465   3.625
 1079WAT      O 3447   3.910   0.429   1.997
 1079WAT     H1 3448   3.949   0.400   1.914
 1079WAT     H2 3449   3.971   0.398   2.064
 1080WAT      O 3450   4.324   1.844   3.495
 1080WAT     H1 3451   4.333   1.930   3.537
 1080WAT     H2 3452   4.230   1.829   3.493
 1081WAT      O 3453   4.257   0.238   2.086
 1081WAT     H1 3454   4.217   0.153   2.065
 1081WAT     H2 3455   4.191   0.284   2.136
 1082WAT      O 3456   4.408   1.792   2.347
 1082WAT     H1 3457   4.502   1.806   2.350
 1082WAT     H2 3458   4.397   1.717   2.287
 1083WAT      O 3459   3.790   1.336   2.053
 1083WAT     H1 3460   3.825   1.387   2.127
 1083WAT     H2 3461   3.825   1.248   2.067
 1084WAT      O 3462   3.492   1.590   2.804
 1084WAT     H1 3463   3.529   1.502   2.794
 1084WAT     H2 3464   3.520   1.617   2.892
 1085WAT      O 3465   4.009   1.392   2.602
 1085WAT     H1 3466   3.989   1.338   2.677
 1085WAT     H2 3467   3.976   1.343   2.527
 1086WAT      O 3468   3.522   1.706   3.047
 1086WAT     H1 3469   3.484   1.724   3.133
 1086WAT     H2 3470   3.560   1.789   3.019
 1087WAT      O 3471   3.497   0.931   2.693
 1087WAT     H1 3472   3.426   0.936   2.629
 1087WAT     H2 3473   3.575   0.912   2.641
 1088WAT      O 3474   3.653   0.951   3.147
 1088WAT     H1 3475   3.648   0.934   3.241
 1088WAT     H2 3476   3.614   0.874   3.106
 1089WAT      O 3477   3.560   0.664   3.554
 1089WAT     H1 3478   3.476   0.644   3.595
 1089WAT     H2 3479   3.609   0.712   3.621
 1090WAT      O 3480   3.426   0.661   2.316
 1090WAT     H1 3481   3.355   0.688   2.375
 1090WAT     H2 3482   3.432   0.732   2.252
 1091WAT      O 3483   3.704   0.548   2.123
 1091WAT     H1 3484   3.769   0.496   2.075
 1091WAT     H2 3485   3.626   0.544   2.068
 1092WAT      O 3486   3.742   1.452   3.696
 1092WAT     H1 3487   3.748   1.408   3.780
 1092WAT     H2 3488   3.750   1.545   3.718
 1093WAT      O 3489   4.137   1.610   3.246
 1093WAT     H1 3490   4.111   1.642   3.160
 1093WAT     H2 3491   4.232   1.597   3.238
 1094WAT      O 3492   4.278   0.247   3.602
 1094WAT     H1 3493   4.337   0.282   3.668
 1094WAT     H2 3494   4.333   0.239   3.523
 1095WAT      O 3495   3.775   1.716   3.460
 1095WAT     H1 3496   3.696   1.702   3.512
 1095WAT     H2 3497   3.766   1.656   3.386
 1096WAT      O 3498   3.726   1.521   3.277
 1096WAT     H1 3499   3.643   1.473   3.278
 1096WAT     H2 3500   3.752   1.522   3.185
 1097WAT      O 3501   4.090   1.694   2.978
 1097WAT     H1 3502   4.111   1.611   2.935
 1097WAT     H2 3503   4.174   1.740   2.985
 1098WAT      O 3504   4.346   1.779   3.018
 1098WAT     H1 3505   4.394   1.760   2.937
 1098WAT     H2 3506   4.377   1.712   3.080
 1099WAT      O 3507   3.583   1.762   2.603
 1099WAT     H1 3508   3.560   1.708   2.679
 1099WAT     H2 3509   3.500   1.789   2.566
 1100WAT      O 3510   3.586   0.274   2.431
 1100WAT     H1 3511   3.664   0.296   2.379
 1100WAT     H2 3512   3.512   0.303   2.376
 1101WAT      O 3513   4.253   0.436   2.698
 1101WAT     H1 3514   4.202   0.358   2.720
 1101WAT     H2 3515   4.337   0.401   2.665
 1102WAT      O 3516   3.690   1.650   2.376
 1102WAT     H1 3517   3.674   1.712   2.304
 1102WAT     H2 3518   3.668   1.699   2.455
 1103WAT      O 3519   4.317   1.874   3.826
 1103WAT     H1 3520   4.402   1.842   3.858
 1103WAT     H2 3521   4.339   1.946   3.767
 1104WAT      O 3522   3.974   1.866   2.246
 1104WAT     H1 3523   4.023   1.824   2.175
 1104WAT     H2 3524   4.004   1.821   2.325
 1105WAT      O 3525   3.878   1.474   2.275
 1105WAT     H1 3526   3.814   1.531   2.318
 1105WAT     H2 3527   3.884   1.398   2.332
 1106WAT      O 3528   4.557   0.890   0.870
 1106WAT     H1 3529   4.577   0.797   0.866
 1106WAT     H2 3530   4.544   0.915   0.778
 1107WAT      O 3531   4.447   1.067   1.041
 1107WAT     H1 3532   4.396   1.016   1.104
 1107WAT     H2 3533   4.484   1.002   0.981
 1108WAT      O 3534   3.849   1.101   1.146
 1108WAT     H1 3535   3.783   1.045   1.185
 1108WAT     H2 3536   3.913   1.115   1.216
 1109WAT      O 3537   3.861   1.521   1.163
 1109WAT     H1 3538   3.931   1.462   1.136
 1109WAT     H2 3539   3.891   1.608   1.135
 1110WAT      O 3540   3.680   0.638   0.497
 1110WAT     H1 3541   3.587   0.632   0.479
 1110WAT     H2 3542   3.722   0.636   0.411
 1111WAT      O 3543   3.463   0.780   1.073
 1111WAT     H1 3544   3.538   0.721   1.081
 1111WAT     H2 3545   3.482   0.833   0.996
 1112WAT      O 3546   4.461   1.736   0.900
 1112WAT     H1 3547   4.390   1.759   0.840
 1112WAT     H2 3548   4.520   1.811   0.898
 1113WAT      O 3549   4.349   1.321   1.085
 1113WAT     H1 3550   4.379   1.234   1.058
 1113WAT     H2 3551   4.421   1.357   1.136
 1114WAT      O 3552   3.610   0.415   1.330
 1114WAT     H1 3553   3.613   0.347   1.397
 1114WAT     H2 3554   3.539   0.473   1.358
 1115WAT      O 3555   4.535   0.609   1.075
 1115WAT     H1 3556   4.571   0.527   1.111
 1115WAT     H2 3557   4.570   0.613   0.986
 1116WAT      O 3558   3.872   0.456   0.580
 1116WAT     H1 3559   3.898   0.472   0.670
 1116WAT     H2 3560   3.801   0.519   0.564
 1117WAT      O 3561   3.679   0.617   1.136
 1117WAT     H1 3562   3.759   0.650   1.177
 1117WAT     H2 3563   3.653   0.542   1.190
 1118WAT      O 3564   4.115   0.790   1.092
 1118WAT     H1 3565   4.178   0.842   1.142
 1118WAT     H2 3566   4.161   0.708   1.074
 1119WAT      O 3567   4.569   1.246   0.606
 1119WAT     H1 3568   4.521   1.275   0.529
 1119WAT     H2 3569   4.550   1.312   0.673
 1120WAT      O 3570   4.062   1.211   1.305
 1120WAT     H1 3571   4.023   1.273   1.367
 1120WAT     H2 3572   4.079   1.263   1.227
 1121WAT      O 3573   3.876   0.401   1.236
 1121WAT     H1 3574   3.905   0.490   1.253
 1121WAT     H2 3575   3.789   0.396   1.275
 1122WAT      O 3576   3.973   1.414   1.461
 1122WAT     H1 3577   4.033   1.482   1.431
 1122WAT     H2 3578   3.886   1.449   1.443
 1123WAT      O 3579   3.536   1.233   0.395
 1123WAT     H1 3580   3.596   1.268   0.330
 1123WAT     H2 3581   3.530   1.302   0.461
 1124WAT      O 3582   4.503   0.977   0.613
 1124WAT     H1 3583   4.408   0.984   0.618
 1124WAT     H2 3584   4.535   1.067   0.611
 1125WAT      O 3585   4.488   0.563   0.357
 1125WAT     H1 3586   4.395   0.585   0.367
 1125WAT     H2 3587   4.506   0.580   0.265
 1126WAT      O 3588   4.073   0.943   0.861
 1126WAT     H1 3589   4.026   0.875   0.813
 1126WAT     H2 3590   4.091   0.905   0.947
 1127WAT      O 3591   4.086   1.379   1.078
 1127WAT     H1 3592   4.051   1.318   1.013
 1127WAT     H2 3593   4.181   1.365   1.076
 1128WAT      O 3594   3.919   0.679   1.258
 1128WAT     H1 3595   3.978   0.718   1.193
 1128WAT     H2 3596   3.947   0.719   1.341
 1129WAT      O 3597   3.991   1.359   1.725
 1129WAT     H1 3598   3.903   1.380   1.758
 1129WAT     H2 3599   3.983   1.369   1.630
 1130WAT      O 3600   4.695   1.054   0.351
 1130WAT     H1 3601   4.762   0.987   0.338
 1130WAT     H2 3602   4.700   1.075   0.444
 1131WAT      O 3603   3.873   1.029   1.599
 1131WAT     H1 3604   3.833   1.116   1.606
 1131WAT     H2 3605   3.802   0.973   1.567
 1132WAT      O 3606   4.482   1.487   0.749
 1132WAT     H1 3607   4.513   1.551   0.685
 1132WAT     H2 3608   4.474   1.538   0.830
 1133WAT      O 3609   4.118   1.583   1.814
 1133WAT     H1 3610   4.104   1.641   1.739
 1133WAT     H2 3611   4.078   1.501   1.789
 1134WAT      O 3612   3.702   0.844   0.678
 1134WAT     H1 3613   3.710   0.922   0.623
 1134WAT     H2 3614   3.691   0.772   0.616
 1135WAT      O 3615   3.482   1.166   1.249
 1135WAT     H1 3616   3.462   1.179   1.156
 1135WAT     H2 3617   3.551   1.101   1.249
 1136WAT      O 3618   3.581   1.339   0.839
 1136WAT     H1 3619   3.560   1.365   0.750
 1136WAT     H2 3620   3.673   1.313   0.835
 1137WAT      O 3621   4.537   1.698   1.543
 1137WAT     H1 3622   4.543   1.628   1.608
 1137WAT     H2 3623   4.462   1.751   1.573
 1138WAT      O 3624   4.655   1.775   0.479
 1138WAT     H1 3625   4.683   1.766   0.570
 1138WAT     H2 3626   4.724   1.732   0.428
 1139WAT      O 3627   4.014   1.746   0.650
 1139WAT     H1 3628   3.984   1.657   0.672
 1139WAT     H2 3629   3.939   1.802   0.670
 1140WAT      O 3630   4.729   1.742   0.739
 1140WAT     H1 3631   4.743   1.675   0.806
 1140WAT     H2 3632   4.705   1.821   0.788
 1141WAT      O 3633   3.526   1.344   1.456
 1141WAT     H1 3634   3.507   1.286   1.382
 1141WAT     H2 3635   3.589   1.295   1.509
 1142WAT      O 3636   3.993   0.327   1.001
 1142WAT     H1 3637   3.940   0.382   0.943
 1142WAT     H2 3638   3.953   0.337   1.087
 1143WAT      O 3639   4.368   0.512   1.524
 1143WAT     H1 3640   4.319   0.525   1.605
 1143WAT     H2 3641   4.331   0.432   1.486
 1144WAT      O 3642   4.591   0.790   1.865
 1144WAT     H1 3643   4.596   0.697   1.846
 1144WAT     H2 3644   4.680   0.813   1.893
 1145WAT      O 3645   4.223   0.317   1.160
 1145WAT     H1 3646   4.242   0.408   1.137
 1145WAT     H2 3647   4.147   0.294   1.107
 1146WAT      O 3648   3.932   0.723   0.769
 1146WAT     H1 3649   3.897   0.653   0.824
 1146WAT     H2 3650   3.855   0.771   0.739
 1147WAT      O 3651   4.610   0.722   0.562
 1147WAT     H1 3652   4.570   0.808   0.561
 1147WAT     H2 3653   4.570   0.676   0.488
 1148WAT      O 3654   4.193   0.832   1.762
 1148WAT     H1 3655   4.205   0.737   1.762
 1148WAT     H2 3656   4.278   0.868   1.736
 1149WAT      O 3657   4.598   0.615   0.810
 1149WAT     H1 3658   4.615   0.651   0.723
 1149WAT     H2 3659   4.566   0.526   0.793
 1150WAT      O 3660   3.756   0.461   1.640
 1150WAT     H1 3661   3.694   0.532   1.653
 1150WAT     H2 3662   3.702   0.386   1.615
 1151WAT      O 3663   4.401   0.418   1.945
 1151WAT     H1 3664   4.352   0.348   1.988
 1151WAT     H2 3665   4.433   0.472   2.016
 1152WAT      O 3666   3.472   0.272   1.028
 1152WAT     H1 3667   3.416   0.341   1.062
 1152WAT     H2 3668   3.520   0.240   1.105
 1153WAT      O 3669   4.558   0.819   1.247
 1153WAT     H1 3670   4.473   0.861   1.234
 1153WAT     H2 3671   4.559   0.746   1.186
 1154WAT      O 3672   4.267   0.570   1.053
 1154WAT     H1 3673   4.261   0.533   0.964
 1154WAT     H2 3674   4.360   0.589   1.064
 1155WAT      O 3675   3.800   0.517   0.896
 1155WAT     H1 3676   3.765   0.553   0.978
 1155WAT     H2 3677   3.725   0.473   0.856
 1156WAT      O 3678   4.230   0.643   0.379
 1156WAT     H1 3679   4.208   0.647   0.472
 1156WAT     H2 3680   4.214   0.731   0.347
 1157WAT      O 3681   4.612   0.376   1.191
 1157WAT     H1 3682   4.631   0.405   1.280
 1157WAT     H2 3683   4.565   0.293   1.203
 1158WAT      O 3684   4.208   0.895   0.245
 1158WAT     H1 3685   4.185   0.880   0.153
 1158WAT     H2 3686   4.283   0.954   0.242
 1159WAT      O 3687   3.689   1.237   1.650
 1159WAT     H1 3688   3.638   1.174   1.701
 1159WAT     H2 3689   3.704   1.310   1.709
 1160WAT      O 3690   4.296   0.934   1.242
 1160WAT     H1 3691   4.298   0.873   1.315
 1160WAT     H2 3692   4.251   1.012   1.277
 1161WAT      O 3693   3.577   0.389   0.804
 1161WAT     H1 3694   3.546   0.331   0.873
 1161WAT     H2 3695   3.584   0.334   0.727
 1162WAT      O 3696   4.027   0.808   1.482
 1162WAT     H1 3697   4.012   0.898   1.512
 1162WAT     H2 3698   4.123   0.800   1.479
 1163WAT      O 3699   3.911   1.241   0.522
 1163WAT     H1 3700   3.834   1.185   0.530
 1163WAT     H2 3701   3.979   1.182   0.488
 1164WAT      O 3702   4.519   0.325   0.493
 1164WAT     H1 3703   4.494   0.264   0.424
 1164WAT     H2 3704   4.517   0.411   0.451
 1165WAT      O 3705   4.442   1.178   1.668
 1165WAT     H1 3706   4.465   1.085   1.659
 1165WAT     H2 3707   4.359   1.178   1.714
 1166WAT      O 3708   3.961   1.192   0.916
 1166WAT     H1 3709   4.000   1.111   0.884
 1166WAT     H2 3710   3.908   1.165   0.991
 1167WAT      O 3711   4.370   1.336   0.426
 1167WAT     H1 3712   4.320   1.405   0.382
 1167WAT     H2 3713   4.324   1.321   0.508
 1168WAT      O 3714   3.624   0.904   1.539
 1168WAT     H1 3715   3.584   0.962   1.604
 1168WAT     H2 3716   3.610   0.816   1.573
 1169WAT      O 3717   3.974   0.977   1.855
 1169WAT     H1 3718   3.938   0.999   1.769
 1169WAT     H2 3719   4.055   0.929   1.835
 1170WAT      O 3720   4.533   1.431   1.710
 1170WAT     H1 3721   4.502   1.343   1.688
 1170WAT     H2 3722   4.474   1.460   1.780
 1171WAT      O 3723   4.662   1.239   1.019
 1171WAT     H1 3724   4.696   1.221   0.932
 1171WAT     H2 3725   4.592   1.174   1.032
 1172WAT      O 3726   4.263   1.323   0.681
 1172WAT     H1 3727   4.328   1.380   0.722
 1172WAT     H2 3728   4.179   1.364   0.704
 1173WAT      O 3729   3.489   0.872   0.267
 1173WAT     H1 3730   3.582   0.890   0.262
 1173WAT     H2 3731   3.449   0.954   0.296
 1174WAT      O 3732   4.241   1.047   0.661
 1174WAT     H1 3733   4.249   1.141   0.679
 1174WAT     H2 3734   4.191   1.013   0.736
 1175WAT      O 3735   4.414   1.589   1.323
 1175WAT     H1 3736   4.463   1.627   1.397
 1175WAT     H2 3737   4.470   1.518   1.292
 1176WAT      O 3738   4.583   1.393   1.236
 1176WAT     H1 3739   4.642   1.386   1.311
 1176WAT     H2 3740   4.628   1.346   1.166
 1177WAT      O 3741   4.721   1.418   1.501
 1177WAT     H1 3742   4.791   1.468   1.542
 1177WAT     H2 3743   4.652   1.414   1.568
 1178WAT      O 3744   3.612   1.847   0.381
 1178WAT     H1 3745   3.624   1.886   0.294
 1178WAT     H2 3746   3.609   1.923   0.440
 1179WAT      O 3747   3.561   0.271   1.571
 1179WAT     H1 3748   3.469   0.289   1.589
 1179WAT     H2 3749   3.574   0.181   1.601
 1180WAT      O 3750   3.540   1.635   1.708
 1180WAT     H1 3751   3.566   1.543   1.706
 1180WAT     H2 3752   3.457   1.638   1.661
 1181WAT      O 3753   4.354   1.484   1.916
 1181WAT     H1 3754   4.320   1.403   1.953
 1181WAT     H2 3755   4.277   1.528   1.879
 1182WAT      O 3756   4.182   1.531   0.327
 1182WAT     H1 3757   4.172   1.529   0.232
 1182WAT     H2 3758   4.093   1.519   0.361
 1183WAT      O 3759   3.708   1.050   0.499
 1183WAT     H1 3760   3.641   1.110   0.466
 1183WAT     H2 3761   3.732   0.997   0.423
 1184WAT      O 3762   4.629   0.474   1.448
 1184WAT     H1 3763   4.672   0.559   1.458
 1184WAT     H2 3764   4.539   0.490   1.475
 1185WAT      O 3765   4.162   0.634   0.640
 1185WAT     H1 3766   4.086   0.670   0.684
 1185WAT     H2 3767   4.198   0.570   0.701
 1186WAT      O 3768   4.305   0.772   1.457
 1186WAT     H1 3769   4.358   0.820   1.521
 1186WAT     H2 3770   4.332   0.681   1.467
 1187WAT      O 3771   4.513   0.355   0.759
 1187WAT     H1 3772   4.515   0.343   0.665
 1187WAT     H2 3773   4.578   0.294   0.794
 1188WAT      O 3774   4.271   1.809   0.721
 1188WAT     H1 3775   4.313   1.812   0.635
 1188WAT     H2 3776   4.180   1.784   0.701
 1189WAT      O 3777   4.000   0.485   0.335
 1189WAT     H1 3778   4.087   0.523   0.348
 1189WAT     H2 3779   3.972   0.461   0.423
 1190WAT      O 3780   3.774   0.891   0.286
 1190WAT     H1 3781   3.776   0.797   0.267
 1190WAT     H2 3782   3.865   0.919   0.279
 1191WAT      O 3783   3.877   1.880   1.067
 1191WAT     H1 3784   3.954   1.824   1.075
 1191WAT     H2 3785   3.910   1.960   1.026
 1192WAT      O 3786   3.529   1.431   0.581
 1192WAT     H1 3787   3.442   1.470   0.568
 1192WAT     H2 3788   3.590   1.501   0.557
 1193WAT      O 3789   3.782   1.723   1.968
 1193WAT     H1 3790   3.872   1.729   2.000
 1193WAT     H2 3791   3.727   1.735   2.045
 1194WAT      O 3792   4.699   1.313   1.928
 1194WAT     H1 3793   4.645   1.353   1.860
 1194WAT     H2 3794   4.637   1.258   1.977
 1195WAT      O 3795   3.551   1.040   1.780
 1195WAT     H1 3796   3.604   0.968   1.814
 1195WAT     H2 3797   3.489   1.060   1.851
 1196WAT      O 3798   4.188   1.173   1.759
 1196WAT     H1 3799   4.116   1.236   1.755
 1196WAT     H2 3800   4.167   1.110   1.689
 1197WAT      O 3801   4.428   1.093   0.273
 1197WAT     H1 3802   4.410   1.178   0.313
 1197WAT     H2 3803   4.521   1.079   0.287
 1198WAT      O 3804   3.700   0.823   1.850
 1198WAT     H1 3805   3.722   0.828   1.943
 1198WAT     H2 3806   3.783   0.800   1.807
 1199WAT      O 3807   4.079   1.043   0.438
 1199WAT     H1 3808   4.138   1.036   0.513
 1199WAT     H2 3809   4.121   0.990   0.370
 1200WAT      O 3810   3.903   0.697   1.707
 1200WAT     H1 3811   3.878   0.610   1.677
 1200WAT     H2 3812   3.953   0.734   1.635
 1201WAT      O 3813   4.013   0.384   1.748
 1201WAT     H1 3814   4.063   0.313   1.709
 1201WAT     H2 3815   3.934   0.390   1.695
 1202WAT      O 3816   4.278   0.272   1.422
 1202WAT     H1 3817   4.265   0.290   1.329
 1202WAT     H2 3818   4.230   0.191   1.438
 1203WAT      O 3819   4.213   1.080   1.489
 1203WAT     H1 3820   4.290   1.135   1.500
 1203WAT     H2 3821   4.157   1.129   1.429
 1204WAT      O 3822   4.475   0.896   1.643
 1204WAT     H1 3823   4.512   0.859   1.723
 1204WAT     H2 3824   4.548   0.901   1.582
 1205WAT      O 3825   4.683   0.902   1.469
 1205WAT     H1 3826   4.642   0.870   1.389
 1205WAT     H2 3827   4.763   0.945   1.440
 1206WAT      O 3828   4.056   1.743   1.599
 1206WAT     H1 3829   3.961   1.746   1.594
 1206WAT     H2 3830   4.084   1.702   1.517
 1207WAT      O 3831   4.233   0.554   1.761
 1207WAT     H1 3832   4.287   0.516   1.830
 1207WAT     H2 3833   4.153   0.502   1.761
 1208WAT      O 3834   4.618   0.526   1.808
 1208WAT     H1 3835   4.546   0.479   1.848
 1208WAT     H2 3836   4.658   0.463   1.748
 1209WAT      O 3837   4.325   1.844   1.619
 1209WAT     H1 3838   4.334   1.930   1.661
 1209WAT     H2 3839   4.230   1.828   1.618
 1210WAT      O 3840   4.378   1.798   0.470
 1210WAT     H1 3841   4.474   1.799   0.466
 1210WAT     H2 3842   4.352   1.729   0.409
 1211WAT      O 3843   3.739   1.327   0.239
 1211WAT     H1 3844   3.796   1.392   0.279
 1211WAT     H2 3845   3.791   1.291   0.168
 1212WAT      O 3846   3.492   1.587   0.939
 1212WAT     H1 3847   3.529   1.499   0.929
 1212WAT     H2 3848   3.517   1.613   1.027
 1213WAT      O 3849   3.999   1.394   0.731
 1213WAT     H1 3850   3.980   1.335   0.804
 1213WAT     H2 3851   3.967   1.348   0.654
 1214WAT      O 3852   3.495   1.722   1.179
 1214WAT     H1 3853   3.472   1.740   1.270
 1214WAT     H2 3854   3.540   1.801   1.149
 1215WAT      O 3855   3.491   0.929   0.839
 1215WAT     H1 3856   3.425   0.936   0.771
 1215WAT     H2 3857   3.571   0.901   0.794
 1216WAT      O 3858   3.647   0.951   1.268
 1216WAT     H1 3859   3.645   0.931   1.361
 1216WAT     H2 3860   3.600   0.879   1.227
 1217WAT      O 3861   3.560   0.664   1.677
 1217WAT     H1 3862   3.474   0.647   1.716
 1217WAT     H2 3863   3.609   0.711   1.744
 1218WAT      O 3864   3.423   0.649   0.410
 1218WAT     H1 3865   3.355   0.679   0.469
 1218WAT     H2 3866   3.436   0.722   0.349
 1219WAT      O 3867   3.788   0.620   0.244
 1219WAT     H1 3868   3.867   0.572   0.268
 1219WAT     H2 3869   3.751   0.571   0.171
 1220WAT      O 3870   3.744   1.452   1.819
 1220WAT     H1 3871   3.752   1.407   1.903
 1220WAT     H2 3872   3.749   1.545   1.841
 1221WAT      O 3873   4.138   1.612   1.370
 1221WAT     H1 3874   4.111   1.644   1.284
 1221WAT     H2 3875   4.232   1.599   1.362
 1222WAT      O 3876   4.277   0.247   1.721
 1222WAT     H1 3877   4.338   0.282   1.786
 1222WAT     H2 3878   4.327   0.245   1.639
 1223WAT      O 3879   3.774   1.726   1.584
 1223WAT     H1 3880   3.695   1.708   1.635
 1223WAT     H2 3881   3.768   1.667   1.509
 1224WAT      O 3882   3.731   1.528   1.401
 1224WAT     H1 3883   3.650   1.477   1.405
 1224WAT     H2 3884   3.756   1.526   1.309
 1225WAT      O 3885   4.089   1.696   1.102
 1225WAT     H1 3886   4.110   1.615   1.057
 1225WAT     H2 3887   4.172   1.742   1.109
 1226WAT      O 3888   4.345   1.779   1.144
 1226WAT     H1 3889   4.392   1.760   1.063
 1226WAT     H2 3890   4.376   1.713   1.206
 1227WAT      O 3891   3.588   1.757   0.742
 1227WAT     H1 3892   3.562   1.703   0.817
 1227WAT     H2 3893   3.505   1.782   0.702
 1228WAT      O 3894   3.590   0.254   0.570
 1228WAT     H1 3895   3.665   0.282   0.517
 1228WAT     H2 3896   3.514   0.287   0.524
 1229WAT      O 3897   4.255   0.437   0.814
 1229WAT     H1 3898   4.206   0.358   0.835
 1229WAT     H2 3899   4.343   0.405   0.794
 1230WAT      O 3900   3.705   1.635   0.523
 1230WAT     H1 3901   3.678   1.700   0.458
 1230WAT     H2 3902   3.682   1.674   0.607
 1231WAT      O 3903   4.313   1.876   1.947
 1231WAT     H1 3904   4.397   1.839   1.975
 1231WAT     H2 3905   4.337   1.949   1.890
 1232WAT      O 3906   4.019   1.879   0.403
 1232WAT     H1 3907   4.053   1.815   0.341
 1232WAT     H2 3908   4.020   1.834   0.488
 1233WAT      O 3909   3.911   1.487   0.398
 1233WAT     H1 3910   3.846   1.542   0.443
 1233WAT     H2 3911   3.911   1.406   0.448
 1234WAT      O 3912   2.750   4.603   4.630
 1234WAT     H1 3913   2.746   4.507   4.620
 1234WAT     H2 3914   2.707   4.636   4.552
 1235WAT      O 3915   2.620   4.793   4.791
 1235WAT     H1 3916   2.566   4.748   4.857
 1235WAT     H2 3917   2.668   4.723   4.747
 1236WAT      O 3918   1.967   4.857   4.903
 1236WAT     H1 3919   1.901   4.797   4.939
 1236WAT     H2 3920   2.030   4.869   4.974
 1237WAT      O 3921   3.011   5.174   4.646
 1237WAT     H1 3922   2.949   5.114   4.689
 1237WAT     H2 3923   3.074   5.196   4.715
 1238WAT      O 3924   1.960   5.257   4.919
 1238WAT     H1 3925   2.003   5.179   4.882
 1238WAT     H2 3926   2.029   5.323   4.920
 1239WAT      O 3927   1.816   4.347   4.256
 1239WAT     H1 3928   1.720   4.357   4.258
 1239WAT     H2 3929   1.835   4.318   4.166
 1240WAT      O 3930   1.597   4.551   4.817
 1240WAT     H1 3931   1.665   4.484   4.826
 1240WAT     H2 3932   1.614   4.592   4.732
 1241WAT      O 3933   2.472   5.023   4.847
 1241WAT     H1 3934   2.512   4.944   4.811
 1241WAT     H2 3935   2.541   5.063   4.899
 1242WAT      O 3936   1.731   4.166   5.048
 1242WAT     H1 3937   1.723   4.073   5.070
 1242WAT     H2 3938   1.657   4.208   5.093
 1243WAT      O 3939   2.625   4.322   4.806
 1243WAT     H1 3940   2.674   4.252   4.849
 1243WAT     H2 3941   2.664   4.328   4.718
 1244WAT      O 3942   2.028   4.211   4.366
 1244WAT     H1 3943   2.049   4.270   4.439
 1244WAT     H2 3944   1.946   4.245   4.331
 1245WAT      O 3945   3.033   4.143   4.506
 1245WAT     H1 3946   3.095   4.078   4.539
 1245WAT     H2 3947   3.015   4.198   4.582
 1246WAT      O 3948   1.802   4.375   4.883
 1246WAT     H1 3949   1.883   4.405   4.925
 1246WAT     H2 3950   1.773   4.301   4.937
 1247WAT      O 3951   2.243   4.533   4.830
 1247WAT     H1 3952   2.314   4.576   4.876
 1247WAT     H2 3953   2.279   4.448   4.804
 1248WAT      O 3954   3.400   4.299   5.176
 1248WAT     H1 3955   3.344   4.375   5.161
 1248WAT     H2 3956   3.457   4.326   5.249
 1249WAT      O 3957   2.120   3.961   5.197
 1249WAT     H1 3958   2.086   4.028   5.138
 1249WAT     H2 3959   2.069   3.883   5.177
 1250WAT      O 3960   2.735   4.960   4.398
 1250WAT     H1 3961   2.720   4.965   4.303
 1250WAT     H2 3962   2.697   5.041   4.432
 1251WAT      O 3963   2.176   4.958   5.065
 1251WAT     H1 3964   2.139   5.012   5.134
 1251WAT     H2 3965   2.195   5.019   4.994
 1252WAT      O 3966   3.035   4.254   4.783
 1252WAT     H1 3967   2.952   4.263   4.829
 1252WAT     H2 3968   3.068   4.344   4.777
 1253WAT      O 3969   2.010   4.153   5.041
 1253WAT     H1 3970   2.037   4.244   5.027
 1253WAT     H2 3971   1.914   4.157   5.043
 1254WAT      O 3972   2.092   5.130   5.262
 1254WAT     H1 3973   2.162   5.189   5.233
 1254WAT     H2 3974   2.011   5.177   5.242
 1255WAT      O 3975   1.633   4.993   4.158
 1255WAT     H1 3976   1.598   5.042   4.084
 1255WAT     H2 3977   1.645   5.059   4.226
 1256WAT      O 3978   3.153   5.305   5.066
 1256WAT     H1 3979   3.088   5.374   5.052
 1256WAT     H2 3980   3.193   5.292   4.980
 1257WAT      O 3981   3.307   4.191   4.851
 1257WAT     H1 3982   3.212   4.197   4.841
 1257WAT     H2 3983   3.326   4.239   4.931
 1258WAT      O 3984   2.362   3.895   4.645
 1258WAT     H1 3985   2.382   3.824   4.584
 1258WAT     H2 3986   2.268   3.906   4.638
 1259WAT      O 3987   3.099   5.082   4.402
 1259WAT     H1 3988   3.088   4.989   4.423
 1259WAT     H2 3989   3.066   5.128   4.479
 1260WAT      O 3990   2.930   4.922   5.030
 1260WAT     H1 3991   2.990   4.905   4.957
 1260WAT     H2 3992   2.980   4.977   5.091
 1261WAT      O 3993   2.627   4.706   4.407
 1261WAT     H1 3994   2.534   4.719   4.393
 1261WAT     H2 3995   2.665   4.794   4.399
 1262WAT      O 3996   2.617   4.268   4.059
 1262WAT     H1 3997   2.533   4.307   4.084
 1262WAT     H2 3998   2.680   4.339   4.071
 1263WAT      O 3999   3.256   4.766   5.048
 1263WAT     H1 4000   3.200   4.795   4.976
 1263WAT     H2 4001   3.340   4.809   5.032
 1264WAT      O 4002   3.037   4.816   4.440
 1264WAT     H1 4003   2.952   4.813   4.397
 1264WAT     H2 4004   3.023   4.773   4.524
 1265WAT      O 4005   2.964   4.455   5.175
 1265WAT     H1 4006   2.927   4.543   5.178
 1265WAT     H2 4007   2.891   4.399   5.151
 1266WAT      O 4008   2.195   4.693   4.604
 1266WAT     H1 4009   2.146   4.625   4.556
 1266WAT     H2 4010   2.216   4.651   4.688
 1267WAT      O 4011   2.218   5.111   4.831
 1267WAT     H1 4012   2.177   5.055   4.766
 1267WAT     H2 4013   2.310   5.084   4.832
 1268WAT      O 4014   2.047   4.429   5.003
 1268WAT     H1 4015   2.105   4.466   4.936
 1268WAT     H2 4016   2.078   4.467   5.085
 1269WAT      O 4017   2.139   5.046   5.522
 1269WAT     H1 4018   2.126   4.952   5.537
 1269WAT     H2 4019   2.118   5.058   5.430
 1270WAT      O 4020   2.873   4.786   4.114
 1270WAT     H1 4021   2.925   4.714   4.079
 1270WAT     H2 4022   2.936   4.857   4.125
 1271WAT      O 4023   1.996   4.766   5.305
 1271WAT     H1 4024   1.954   4.851   5.316
 1271WAT     H2 4025   1.925   4.705   5.286
 1272WAT      O 4026   2.644   5.200   4.502
 1272WAT     H1 4027   2.683   5.274   4.455
 1272WAT     H2 4028   2.686   5.201   4.588
 1273WAT      O 4029   2.232   5.311   5.554
 1273WAT     H1 4030   2.174   5.354   5.491
 1273WAT     H2 4031   2.202   5.220   5.556
 1274WAT      O 4032   3.187   3.827   3.947
 1274WAT     H1 4033   3.184   3.823   4.042
 1274WAT     H2 4034   3.263   3.882   3.927
 1275WAT      O 4035   1.835   4.603   4.380
 1275WAT     H1 4036   1.843   4.675   4.316
 1275WAT     H2 4037   1.830   4.524   4.326
 1276WAT      O 4038   1.604   4.916   4.983
 1276WAT     H1 4039   1.582   4.926   4.890
 1276WAT     H2 4040   1.672   4.850   4.985
 1277WAT      O 4041   1.701   5.083   4.586
 1277WAT     H1 4042   1.681   5.120   4.500
 1277WAT     H2 4043   1.790   5.050   4.578
 1278WAT      O 4044   3.338   5.099   5.394
 1278WAT     H1 4045   3.410   5.106   5.332
 1278WAT     H2 4046   3.301   5.012   5.376
 1279WAT      O 4047   2.923   5.315   4.084
 1279WAT     H1 4048   2.835   5.290   4.055
 1279WAT     H2 4049   2.982   5.266   4.027
 1280WAT      O 4050   3.307   4.374   5.502
 1280WAT     H1 4051   3.290   4.467   5.488
 1280WAT     H2 4052   3.223   4.331   5.485
 1281WAT      O 4053   1.655   5.079   5.199
 1281WAT     H1 4054   1.634   5.027   5.121
 1281WAT     H2 4055   1.714   5.024   5.249
 1282WAT      O 4056   2.098   3.990   4.731
 1282WAT     H1 4057   2.045   4.066   4.705
 1282WAT     H2 4058   2.150   4.022   4.805
 1283WAT      O 4059   2.502   4.253   5.247
 1283WAT     H1 4060   2.453   4.261   5.329
 1283WAT     H2 4061   2.468   4.174   5.206
 1284WAT      O 4062   3.049   4.302   5.392
 1284WAT     H1 4063   2.968   4.282   5.438
 1284WAT     H2 4064   3.023   4.364   5.324
 1285WAT      O 4065   2.768   4.499   5.542
 1285WAT     H1 4066   2.782   4.405   5.543
 1285WAT     H2 4067   2.853   4.537   5.561
 1286WAT      O 4068   2.387   3.922   4.220
 1286WAT     H1 4069   2.312   3.932   4.278
 1286WAT     H2 4070   2.410   3.829   4.226
 1287WAT      O 4071   2.333   4.048   4.878
 1287WAT     H1 4072   2.341   4.137   4.844
 1287WAT     H2 4073   2.362   3.992   4.805
 1288WAT      O 4074   2.050   4.474   4.510
 1288WAT     H1 4075   2.006   4.416   4.572
 1288WAT     H2 4076   1.979   4.522   4.467
 1289WAT      O 4077   2.755   4.465   4.341
 1289WAT     H1 4078   2.709   4.550   4.341
 1289WAT     H2 4079   2.794   4.459   4.254
 1290WAT      O 4080   2.298   4.537   5.539
 1290WAT     H1 4081   2.305   4.443   5.523
 1290WAT     H2 4082   2.388   4.569   5.530
 1291WAT      O 4083   2.739   4.320   4.564
 1291WAT     H1 4084   2.743   4.366   4.480
 1291WAT     H2 4085   2.737   4.227   4.540
 1292WAT      O 4086   1.879   4.184   5.393
 1292WAT     H1 4087   1.825   4.257   5.363
 1292WAT     H2 4088   1.819   4.110   5.395
 1293WAT      O 4089   1.579   3.986   4.721
 1293WAT     H1 4090   1.543   4.047   4.786
 1293WAT     H2 4091   1.636   3.929   4.772
 1294WAT      O 4092   1.601   4.350   3.863
 1294WAT     H1 4093   1.591   4.433   3.910
 1294WAT     H2 4094   1.530   4.351   3.798
 1295WAT      O 4095   2.705   4.533   4.969
 1295WAT     H1 4096   2.626   4.569   5.008
 1295WAT     H2 4097   2.674   4.463   4.912
 1296WAT      O 4098   2.360   4.295   4.758
 1296WAT     H1 4099   2.357   4.260   4.669
 1296WAT     H2 4100   2.453   4.311   4.775
 1297WAT      O 4101   1.911   4.282   4.646
 1297WAT     H1 4102   1.871   4.313   4.727
 1297WAT     H2 4103   1.841   4.233   4.602
 1298WAT      O 4104   2.369   4.367   4.131
 1298WAT     H1 4105   2.349   4.383   4.223
 1298WAT     H2 4106   2.345   4.448   4.086
 1299WAT      O 4107   2.784   4.131   4.921
 1299WAT     H1 4108   2.784   4.174   5.006
 1299WAT     H2 4109   2.737   4.049   4.936
 1300WAT      O 4110   2.304   4.593   3.982
 1300WAT     H1 4111   2.241   4.548   3.927
 1300WAT     H2 4112   2.378   4.611   3.924
 1301WAT      O 4113   3.057   3.794   5.464
 1301WAT     H1 4114   3.134   3.803   5.521
 1301WAT     H2 4115   3.091   3.806   5.375
 1302WAT      O 4116   1.811   4.958   5.390
 1302WAT     H1 4117   1.762   4.894   5.441
 1302WAT     H2 4118   1.840   5.023   5.454
 1303WAT      O 4119   2.428   4.681   4.978
 1303WAT     H1 4120   2.429   4.628   5.058
 1303WAT     H2 4121   2.372   4.756   5.000
 1304WAT      O 4122   1.706   4.135   4.528
 1304WAT     H1 4123   1.669   4.069   4.587
 1304WAT     H2 4124   1.730   4.086   4.450
 1305WAT      O 4125   2.160   4.550   5.226
 1305WAT     H1 4126   2.137   4.641   5.248
 1305WAT     H2 4127   2.255   4.548   5.229
 1306WAT      O 4128   2.059   4.983   4.261
 1306WAT     H1 4129   1.981   4.928   4.254
 1306WAT     H2 4130   2.128   4.932   4.220
 1307WAT      O 4131   3.129   4.876   4.831
 1307WAT     H1 4132   3.210   4.901   4.785
 1307WAT     H2 4133   3.085   4.816   4.772
 1308WAT      O 4134   2.638   4.046   4.224
 1308WAT     H1 4135   2.550   4.010   4.224
 1308WAT     H2 4136   2.631   4.125   4.169
 1309WAT      O 4137   2.659   4.890   5.438
 1309WAT     H1 4138   2.649   4.801   5.404
 1309WAT     H2 4139   2.574   4.911   5.476
 1310WAT      O 4140   2.871   4.423   4.099
 1310WAT     H1 4141   2.934   4.484   4.061
 1310WAT     H2 4142   2.911   4.337   4.085
 1311WAT      O 4143   2.079   4.934   4.671
 1311WAT     H1 4144   2.118   4.852   4.639
 1311WAT     H2 4145   2.028   4.908   4.747
 1312WAT      O 4146   2.571   5.039   4.176
 1312WAT     H1 4147   2.562   5.122   4.130
 1312WAT     H2 4148   2.505   5.043   4.245
 1313WAT      O 4149   1.748   4.640   5.273
 1313WAT     H1 4150   1.716   4.687   5.349
 1313WAT     H2 4151   1.740   4.547   5.296
 1314WAT      O 4152   2.126   4.768   5.549
 1314WAT     H1 4153   2.081   4.751   5.466
 1314WAT     H2 4154   2.181   4.690   5.562
 1315WAT      O 4155   2.644   5.159   5.385
 1315WAT     H1 4156   2.658   5.065   5.397
 1315WAT     H2 4157   2.568   5.180   5.438
 1316WAT      O 4158   3.053   4.609   3.994
 1316WAT     H1 4159   3.042   4.616   3.900
 1316WAT     H2 4160   3.142   4.639   4.011
 1317WAT      O 4161   3.218   4.872   5.295
 1317WAT     H1 4162   3.150   4.938   5.278
 1317WAT     H2 4163   3.234   4.833   5.209
 1318WAT      O 4164   3.272   5.259   4.282
 1318WAT     H1 4165   3.215   5.197   4.328
 1318WAT     H2 4166   3.214   5.301   4.218
 1319WAT      O 4167   2.783   5.002   4.696
 1319WAT     H1 4168   2.789   4.978   4.603
 1319WAT     H2 4169   2.735   4.929   4.736
 1320WAT      O 4170   2.415   5.066   4.410
 1320WAT     H1 4171   2.480   5.122   4.452
 1320WAT     H2 4172   2.331   5.102   4.437
 1321WAT      O 4173   1.604   4.592   4.003
 1321WAT     H1 4174   1.699   4.594   4.014
 1321WAT     H2 4175   1.582   4.677   3.964
 1322WAT      O 4176   2.361   4.796   4.392
 1322WAT     H1 4177   2.377   4.889   4.409
 1322WAT     H2 4178   2.309   4.767   4.467
 1323WAT      O 4179   2.556   5.239   5.132
 1323WAT     H1 4180   2.591   5.218   5.218
 1323WAT     H2 4181   2.618   5.199   5.071
 1324WAT      O 4182   1.934   3.798   4.420
 1324WAT     H1 4183   1.867   3.746   4.464
 1324WAT     H2 4184   1.884   3.867   4.375
 1325WAT      O 4185   2.722   5.093   4.958
 1325WAT     H1 4186   2.780   5.032   5.002
 1325WAT     H2 4187   2.747   5.089   4.866
 1326WAT      O 4188   3.097   5.148   3.940
 1326WAT     H1 4189   3.074   5.078   4.002
 1326WAT     H2 4190   3.070   5.114   3.855
 1327WAT      O 4191   2.908   5.235   5.371
 1327WAT     H1 4192   2.908   5.330   5.386
 1327WAT     H2 4193   2.816   5.210   5.376
 1328WAT      O 4194   1.681   3.998   5.397
 1328WAT     H1 4195   1.597   4.016   5.441
 1328WAT     H2 4196   1.717   3.922   5.444
 1329WAT      O 4197   3.071   4.970   4.147
 1329WAT     H1 4198   3.071   5.022   4.227
 1329WAT     H2 4199   3.151   4.919   4.151
 1330WAT      O 4200   1.616   5.430   5.437
 1330WAT     H1 4201   1.611   5.368   5.510
 1330WAT     H2 4202   1.533   5.420   5.391
 1331WAT      O 4203   2.268   5.334   4.013
 1331WAT     H1 4204   2.250   5.323   3.919
 1331WAT     H2 4205   2.189   5.300   4.056
 1332WAT      O 4206   1.845   4.817   4.193
 1332WAT     H1 4207   1.769   4.873   4.177
 1332WAT     H2 4208   1.885   4.806   4.106
 1333WAT      O 4209   2.768   4.252   5.163
 1333WAT     H1 4210   2.806   4.180   5.214
 1333WAT     H2 4211   2.679   4.260   5.198
 1334WAT      O 4212   3.149   4.100   4.260
 1334WAT     H1 4213   3.091   4.135   4.193
 1334WAT     H2 4214   3.105   4.120   4.343
 1335WAT      O 4215   2.535   5.275   4.042
 1335WAT     H1 4216   2.548   5.265   3.947
 1335WAT     H2 4217   2.445   5.304   4.051
 1336WAT      O 4218   2.294   4.394   4.389
 1336WAT     H1 4219   2.218   4.428   4.436
 1336WAT     H2 4220   2.321   4.318   4.440
 1337WAT      O 4221   2.444   4.523   5.197
 1337WAT     H1 4222   2.509   4.565   5.252
 1337WAT     H2 4223   2.464   4.429   5.204
 1338WAT      O 4224   2.763   4.048   4.479
 1338WAT     H1 4225   2.724   4.046   4.392
 1338WAT     H2 4226   2.855   4.072   4.464
 1339WAT      O 4227   2.150   4.176   4.121
 1339WAT     H1 4228   2.234   4.221   4.112
 1339WAT     H2 4229   2.118   4.200   4.208
 1340WAT      O 4230   3.186   4.124   5.235
 1340WAT     H1 4231   3.140   4.184   5.295
 1340WAT     H2 4232   3.265   4.172   5.209
 1341WAT      O 4233   3.012   4.683   4.675
 1341WAT     H1 4234   2.923   4.649   4.676
 1341WAT     H2 4235   3.067   4.607   4.697
 1342WAT      O 4236   2.021   4.839   3.964
 1342WAT     H1 4237   2.102   4.828   4.014
 1342WAT     H2 4238   2.041   4.802   3.878
 1343WAT      O 4239   1.877   4.554   4.005
 1343WAT     H1 4240   1.868   4.459   4.012
 1343WAT     H2 4241   1.970   4.569   3.993
 1344WAT      O 4242   3.226   5.306   4.799
 1344WAT     H1 4243   3.215   5.369   4.728
 1344WAT     H2 4244   3.319   5.285   4.797
 1345WAT      O 4245   1.655   5.196   4.341
 1345WAT     H1 4246   1.566   5.228   4.324
 1345WAT     H2 4247   1.712   5.266   4.310
 1346WAT      O 4248   1.671   4.756   5.518
 1346WAT     H1 4249   1.708   4.724   5.600
 1346WAT     H2 4250   1.577   4.742   5.528
 1347WAT      O 4251   2.380   4.998   3.891
 1347WAT     H1 4252   2.355   4.941   3.963
 1347WAT     H2 4253   2.365   4.945   3.813
 1348WAT      O 4254   2.407   4.964   5.487
 1348WAT     H1 4255   2.327   5.001   5.525
 1348WAT     H2 4256   2.377   4.918   5.409
 1349WAT      O 4257   2.661   4.873   3.970
 1349WAT     H1 4258   2.616   4.929   4.034
 1349WAT     H2 4259   2.734   4.835   4.018
 1350WAT      O 4260   3.075   5.071   5.522
 1350WAT     H1 4261   3.166   5.098   5.508
 1350WAT     H2 4262   3.023   5.140   5.481
 1351WAT      O 4263   2.243   4.807   4.139
 1351WAT     H1 4264   2.290   4.800   4.222
 1351WAT     H2 4265   2.268   4.728   4.090
 1352WAT      O 4266   1.964   4.455   5.411
 1352WAT     H1 4267   1.985   4.362   5.419
 1352WAT     H2 4268   2.035   4.492   5.358
 1353WAT      O 4269   2.536   4.660   3.830
 1353WAT     H1 4270   2.613   4.611   3.799
 1353WAT     H2 4271   2.573   4.737   3.873
 1354WAT      O 4272   2.932   4.851   5.449
 1354WAT     H1 4273   2.983   4.924   5.483
 1354WAT     H2 4274   2.840   4.877   5.462
 1355WAT      O 4275   3.015   4.613   5.554
 1355WAT     H1 4276   3.102   4.606   5.514
 1355WAT     H2 4277   2.983   4.699   5.527
 1356WAT      O 4278   2.133   4.087   5.437
 1356WAT     H1 4279   2.137   4.041   5.354
 1356WAT     H2 4280   2.045   4.125   5.439
 1357WAT      O 4281   2.390   4.023   5.139
 1357WAT     H1 4282   2.368   4.035   5.046
 1357WAT     H2 4283   2.310   3.989   5.178
 1358WAT      O 4284   2.365   4.860   5.234
 1358WAT     H1 4285   2.441   4.904   5.197
 1358WAT     H2 4286   2.292   4.889   5.180
 1359WAT      O 4287   2.649   4.630   5.340
 1359WAT     H1 4288   2.684   4.582   5.414
 1359WAT     H2 4289   2.726   4.648   5.285
 1360WAT      O 4290   2.880   4.714   5.214
 1360WAT     H1 4291   2.886   4.777   5.142
 1360WAT     H2 4292   2.910   4.763   5.291
 1361WAT      O 4293   2.106   4.448   3.854
 1361WAT     H1 4294   2.087   4.355   3.866
 1361WAT     H2 4295   2.099   4.461   3.759
 1362WAT      O 4296   2.351   4.258   5.480
 1362WAT     H1 4297   2.416   4.198   5.516
 1362WAT     H2 4298   2.272   4.205   5.470
 1363WAT      O 4299   2.793   4.228   5.505
 1363WAT     H1 4300   2.698   4.225   5.494
 1363WAT     H2 4301   2.818   4.137   5.526
 1364WAT      O 4302   2.846   3.929   4.088
 1364WAT     H1 4303   2.868   3.852   4.139
 1364WAT     H2 4304   2.768   3.965   4.131
 1365WAT      O 4305   2.048   4.178   3.863
 1365WAT     H1 4306   2.086   4.122   3.795
 1365WAT     H2 4307   2.099   4.158   3.941
 1366WAT      O 4308   2.345   4.013   3.956
 1366WAT     H1 4309   2.280   3.958   3.912
 1366WAT     H2 4310   2.349   3.979   4.045
 1367WAT      O 4311   1.936   5.102   3.919
 1367WAT     H1 4312   1.972   5.150   3.994
 1367WAT     H2 4313   1.960   5.011   3.936
 1368WAT      O 4314   1.619   5.270   4.772
 1368WAT     H1 4315   1.645   5.205   4.707
 1368WAT     H2 4316   1.699   5.290   4.820
 1369WAT      O 4317   2.154   5.116   4.481
 1369WAT     H1 4318   2.122   5.060   4.552
 1369WAT     H2 4319   2.117   5.077   4.402
 1370WAT      O 4320   3.254   5.349   5.323
 1370WAT     H1 4321   3.228   5.339   5.231
 1370WAT     H2 4322   3.276   5.260   5.351
 1371WAT      O 4323   3.377   5.122   3.951
 1371WAT     H1 4324   3.282   5.137   3.950
 1371WAT     H2 4325   3.414   5.206   3.923
 1372WAT      O 4326   3.300   4.821   4.156
 1372WAT     H1 4327   3.377   4.878   4.167
 1372WAT     H2 4328   3.300   4.766   4.235
 1373WAT      O 4329   1.624   4.676   4.565
 1373WAT     H1 4330   1.552   4.680   4.502
 1373WAT     H2 4331   1.701   4.655   4.512
 1374WAT      O 4332   3.409   4.901   4.714
 1374WAT     H1 4333   3.439   4.821   4.671
 1374WAT     H2 4334   3.457   4.972   4.670
 1375WAT      O 4335   3.063   5.083   5.201
 1375WAT     H1 4336   3.006   5.130   5.263
 1375WAT     H2 4337   3.106   5.153   5.152
 1376WAT      O 4338   3.399   4.845   3.897
 1376WAT     H1 4339   3.406   4.940   3.889
 1376WAT     H2 4340   3.346   4.831   3.975
 1377WAT      O 4341   2.979   4.171   4.059
 1377WAT     H1 4342   3.015   4.170   3.970
 1377WAT     H2 4343   2.925   4.093   4.064
 1378WAT      O 4344   3.280   4.684   4.394
 1378WAT     H1 4345   3.253   4.592   4.393
 1378WAT     H2 4346   3.199   4.731   4.414
 1379WAT      O 4347   1.765   4.700   5.007
 1379WAT     H1 4348   1.761   4.673   5.099
 1379WAT     H2 4349   1.713   4.635   4.960
 1380WAT      O 4350   3.256   4.627   5.408
 1380WAT     H1 4351   3.254   4.581   5.324
 1380WAT     H2 4352   3.241   4.719   5.386
 1381WAT      O 4353   1.683   4.390   5.390
 1381WAT     H1 4354   1.606   4.381   5.447
 1381WAT     H2 4355   1.753   4.417   5.449
 1382WAT      O 4356   1.553   4.397   4.199
 1382WAT     H1 4357   1.480   4.420   4.257
 1382WAT     H2 4358   1.558   4.468   4.136
 1383WAT      O 4359   3.202   4.482   4.737
 1383WAT     H1 4360   3.247   4.428   4.672
 1383WAT     H2 4361   3.272   4.522   4.788
 1384WAT      O 4362   3.232   4.512   5.155
 1384WAT     H1 4363   3.139   4.492   5.151
 1384WAT     H2 4364   3.241   4.594   5.106
 1385WAT      O 4365   1.833   4.285   3.993
 1385WAT     H1 4366   1.898   4.239   3.940
 1385WAT     H2 4367   1.754   4.287   3.940
 1386WAT      O 4368   1.772   3.927   3.901
 1386WAT     H1 4369   1.841   3.958   3.960
 1386WAT     H2 4370   1.817   3.911   3.818
 1387WAT      O 4371   3.224   4.416   4.387
 1387WAT     H1 4372   3.270   4.368   4.457
 1387WAT     H2 4373   3.145   4.364   4.372
 1388WAT      O 4374   1.751   3.832   4.874
 1388WAT     H1 4375   1.839   3.801   4.851
 1388WAT     H2 4376   1.759   3.864   4.964
 1389WAT      O 4377   3.354   4.290   4.592
 1389WAT     H1 4378   3.344   4.247   4.678
 1389WAT     H2 4379   3.435   4.252   4.557
 1390WAT      O 4380   3.182   3.852   5.219
 1390WAT     H1 4381   3.191   3.947   5.215
 1390WAT     H2 4382   3.151   3.827   5.132
 1391WAT      O 4383   3.398   4.000   3.918
 1391WAT     H1 4384   3.489   3.977   3.898
 1391WAT     H2 4385   3.403   4.053   3.998
 1392WAT      O 4386   3.413   4.122   4.170
 1392WAT     H1 4387   3.326   4.109   4.207
 1392WAT     H2 4388   3.426   4.217   4.171
 1393WAT      O 4389   1.712   3.906   5.140
 1393WAT     H1 4390   1.713   3.940   5.230
 1393WAT     H2 4391   1.658   3.828   5.145
 1394WAT      O 4392   2.282   5.281   5.144
 1394WAT     H1 4393   2.261   5.332   5.065
 1394WAT     H2 4394   2.378   5.273   5.142
 1395WAT      O 4395   2.545   4.061   5.531
 1395WAT     H1 4396   2.473   4.000   5.548
 1395WAT     H2 4397   2.623   4.005   5.528
 1396WAT      O 4398   2.817   3.952   5.493
 1396WAT     H1 4399   2.832   3.980   5.403
 1396WAT     H2 4400   2.890   3.893   5.512
 1397WAT      O 4401   1.784   3.778   5.507
 1397WAT     H1 4402   1.865   3.749   5.467
 1397WAT     H2 4403   1.730   3.699   5.513
 1398WAT      O 4404   1.866   5.485   5.334
 1398WAT     H1 4405   1.779   5.474   5.374
 1398WAT     H2 4406   1.874   5.410   5.275
 1399WAT      O 4407   2.833   3.785   5.143
 1399WAT     H1 4408   2.770   3.826   5.083
 1399WAT     H2 4409   2.780   3.721   5.191
 1400WAT      O 4410   2.907   4.027   5.247
 1400WAT     H1 4411   2.894   3.942   5.204
 1400WAT     H2 4412   2.999   4.049   5.230
 1401WAT      O 4413   1.865   5.257   5.175
 1401WAT     H1 4414   1.782   5.209   5.178
 1401WAT     H2 4415   1.887   5.261   5.082
 1402WAT      O 4416   2.214   5.379   4.891
 1402WAT     H1 4417   2.226   5.289   4.859
 1402WAT     H2 4418   2.249   5.434   4.820
 1403WAT      O 4419   2.617   3.903   5.010
 1403WAT     H1 4420   2.552   3.945   5.067
 1403WAT     H2 4421   2.569   3.831   4.968
 1404WAT      O 4422   2.992   3.952   4.797
 1404WAT     H1 4423   3.065   3.969   4.738
 1404WAT     H2 4424   2.959   4.038   4.821
 1405WAT      O 4425   3.200   3.962   4.618
 1405WAT     H1 4426   3.187   3.869   4.604
 1405WAT     H2 4427   3.292   3.970   4.644
 1406WAT      O 4428   1.761   3.993   4.287
 1406WAT     H1 4429   1.828   3.993   4.218
 1406WAT     H2 4430   1.684   4.030   4.246
 1407WAT      O 4431   2.352   4.154   4.520
 1407WAT     H1 4432   2.285   4.102   4.475
 1407WAT     H2 4433   2.417   4.090   4.548
 1408WAT      O 4434   2.803   3.816   4.645
 1408WAT     H1 4435   2.869   3.853   4.704
 1408WAT     H2 4436   2.775   3.890   4.592
 1409WAT      O 4437   3.162   3.824   4.218
 1409WAT     H1 4438   3.156   3.917   4.242
 1409WAT     H2 4439   3.074   3.790   4.233
 1410WAT      O 4440   1.824   5.394   4.246
 1410WAT     H1 4441   1.796   5.436   4.164
 1410WAT     H2 4442   1.851   5.467   4.302
 1411WAT      O 4443   1.963   3.968   4.100
 1411WAT     H1 4444   2.014   3.888   4.107
 1411WAT     H2 4445   2.028   4.038   4.104
 1412WAT      O 4446   2.166   3.975   4.397
 1412WAT     H1 4447   2.103   3.905   4.413
 1412WAT     H2 4448   2.112   4.052   4.381
 1413WAT      O 4449   2.314   3.912   5.552
 1413WAT     H1 4450   2.244   3.971   5.523
 1413WAT     H2 4451   2.269   3.843   5.599
 1414WAT      O 4452   2.035   5.232   4.140
 1414WAT     H1 4453   1.968   5.281   4.189
 1414WAT     H2 4454   2.049   5.153   4.193
 1415WAT      O 4455   2.742   4.623   2.756
 1415WAT     H1 4456   2.736   4.528   2.751
 1415WAT     H2 4457   2.704   4.654   2.674
 1416WAT      O 4458   2.614   4.803   2.921
 1416WAT     H1 4459   2.561   4.754   2.984
 1416WAT     H2 4460   2.660   4.735   2.872
 1417WAT      O 4461   1.966   4.854   3.029
 1417WAT     H1 4462   1.899   4.797   3.068
 1417WAT     H2 4463   2.033   4.863   3.097
 1418WAT      O 4464   3.012   5.173   2.773
 1418WAT     H1 4465   2.946   5.116   2.814
 1418WAT     H2 4466   3.072   5.194   2.843
 1419WAT      O 4467   1.958   5.260   3.047
 1419WAT     H1 4468   1.997   5.179   3.013
 1419WAT     H2 4469   2.029   5.324   3.043
 1420WAT      O 4470   1.818   4.346   2.380
 1420WAT     H1 4471   1.723   4.356   2.382
 1420WAT     H2 4472   1.838   4.317   2.291
 1421WAT      O 4473   1.596   4.550   2.940
 1421WAT     H1 4474   1.665   4.485   2.951
 1421WAT     H2 4475   1.614   4.592   2.856
 1422WAT      O 4476   2.473   5.036   2.967
 1422WAT     H1 4477   2.512   4.954   2.936
 1422WAT     H2 4478   2.540   5.074   3.025
 1423WAT      O 4479   1.728   4.173   3.178
 1423WAT     H1 4480   1.719   4.081   3.201
 1423WAT     H2 4481   1.662   4.217   3.233
 1424WAT      O 4482   2.633   4.329   2.935
 1424WAT     H1 4483   2.676   4.252   2.971
 1424WAT     H2 4484   2.670   4.338   2.847
 1425WAT      O 4485   2.032   4.209   2.491
 1425WAT     H1 4486   2.059   4.274   2.557
 1425WAT     H2 4487   1.948   4.242   2.458
 1426WAT      O 4488   3.004   4.145   2.671
 1426WAT     H1 4489   3.099   4.155   2.675
 1426WAT     H2 4490   2.972   4.196   2.746
 1427WAT      O 4491   1.803   4.377   3.009
 1427WAT     H1 4492   1.884   4.406   3.051
 1427WAT     H2 4493   1.773   4.305   3.064
 1428WAT      O 4494   2.249   4.529   2.955
 1428WAT     H1 4495   2.320   4.571   3.002
 1428WAT     H2 4496   2.285   4.444   2.929
 1429WAT      O 4497   3.418   4.309   3.337
 1429WAT     H1 4498   3.356   4.376   3.310
 1429WAT     H2 4499   3.466   4.348   3.410
 1430WAT      O 4500   2.115   3.970   3.341
 1430WAT     H1 4501   2.080   4.037   3.284
 1430WAT     H2 4502   2.070   3.890   3.314
 1431WAT      O 4503   2.735   4.966   2.520
 1431WAT     H1 4504   2.717   4.974   2.426
 1431WAT     H2 4505   2.698   5.045   2.558
 1432WAT      O 4506   2.185   4.952   3.182
 1432WAT     H1 4507   2.143   5.009   3.246
 1432WAT     H2 4508   2.202   5.009   3.107
 1433WAT      O 4509   2.987   4.301   2.908
 1433WAT     H1 4510   2.916   4.336   2.961
 1433WAT     H2 4511   3.051   4.373   2.904
 1434WAT      O 4512   2.006   4.160   3.185
 1434WAT     H1 4513   2.035   4.249   3.164
 1434WAT     H2 4514   1.911   4.164   3.181
 1435WAT      O 4515   2.087   5.139   3.352
 1435WAT     H1 4516   2.153   5.204   3.329
 1435WAT     H2 4517   2.004   5.185   3.340
 1436WAT      O 4518   1.633   4.992   2.281
 1436WAT     H1 4519   1.599   5.042   2.207
 1436WAT     H2 4520   1.646   5.058   2.349
 1437WAT      O 4521   3.151   5.305   3.198
 1437WAT     H1 4522   3.082   5.369   3.184
 1437WAT     H2 4523   3.190   5.293   3.112
 1438WAT      O 4524   3.313   4.163   2.960
 1438WAT     H1 4525   3.231   4.115   2.975
 1438WAT     H2 4526   3.320   4.221   3.036
 1439WAT      O 4527   2.337   3.888   2.768
 1439WAT     H1 4528   2.372   3.824   2.706
 1439WAT     H2 4529   2.251   3.911   2.733
 1440WAT      O 4530   3.101   5.085   2.528
 1440WAT     H1 4531   3.091   4.992   2.547
 1440WAT     H2 4532   3.068   5.129   2.606
 1441WAT      O 4533   2.926   4.922   3.165
 1441WAT     H1 4534   2.986   4.904   3.092
 1441WAT     H2 4535   2.977   4.978   3.225
 1442WAT      O 4536   2.632   4.711   2.521
 1442WAT     H1 4537   2.538   4.721   2.509
 1442WAT     H2 4538   2.667   4.800   2.516
 1443WAT      O 4539   2.601   4.284   2.176
 1443WAT     H1 4540   2.511   4.306   2.199
 1443WAT     H2 4541   2.653   4.355   2.214
 1444WAT      O 4542   3.256   4.760   3.174
 1444WAT     H1 4543   3.199   4.791   3.103
 1444WAT     H2 4544   3.339   4.806   3.159
 1445WAT      O 4545   3.044   4.818   2.563
 1445WAT     H1 4546   2.960   4.813   2.517
 1445WAT     H2 4547   3.026   4.777   2.648
 1446WAT      O 4548   2.960   4.462   3.292
 1446WAT     H1 4549   2.920   4.548   3.297
 1446WAT     H2 4550   2.889   4.402   3.270
 1447WAT      O 4551   2.196   4.689   2.729
 1447WAT     H1 4552   2.147   4.622   2.683
 1447WAT     H2 4553   2.220   4.648   2.812
 1448WAT      O 4554   2.217   5.113   2.953
 1448WAT     H1 4555   2.176   5.056   2.888
 1448WAT     H2 4556   2.310   5.089   2.951
 1449WAT      O 4557   2.048   4.433   3.129
 1449WAT     H1 4558   2.108   4.467   3.063
 1449WAT     H2 4559   2.079   4.472   3.211
 1450WAT      O 4560   2.135   5.087   3.613
 1450WAT     H1 4561   2.046   5.092   3.649
 1450WAT     H2 4562   2.123   5.097   3.519
 1451WAT      O 4563   2.884   4.785   2.227
 1451WAT     H1 4564   2.943   4.719   2.189
 1451WAT     H2 4565   2.940   4.860   2.244
 1452WAT      O 4566   1.996   4.770   3.455
 1452WAT     H1 4567   1.956   4.858   3.459
 1452WAT     H2 4568   1.924   4.713   3.431
 1453WAT      O 4569   2.641   5.201   2.629
 1453WAT     H1 4570   2.681   5.277   2.585
 1453WAT     H2 4571   2.680   5.200   2.716
 1454WAT      O 4572   2.252   5.310   3.725
 1454WAT     H1 4573   2.219   5.375   3.664
 1454WAT     H2 4574   2.216   5.227   3.694
 1455WAT      O 4575   1.836   4.602   2.505
 1455WAT     H1 4576   1.844   4.673   2.441
 1455WAT     H2 4577   1.832   4.523   2.451
 1456WAT      O 4578   3.450   5.374   3.867
 1456WAT     H1 4579   3.400   5.455   3.878
 1456WAT     H2 4580   3.477   5.376   3.775
 1457WAT      O 4581   1.600   4.918   3.113
 1457WAT     H1 4582   1.581   4.925   3.019
 1457WAT     H2 4583   1.670   4.852   3.118
 1458WAT      O 4584   1.701   5.085   2.709
 1458WAT     H1 4585   1.681   5.121   2.623
 1458WAT     H2 4586   1.790   5.051   2.701
 1459WAT      O 4587   3.321   5.093   3.523
 1459WAT     H1 4588   3.389   5.100   3.456
 1459WAT     H2 4589   3.291   5.002   3.516
 1460WAT      O 4590   2.926   5.315   2.204
 1460WAT     H1 4591   2.838   5.290   2.176
 1460WAT     H2 4592   2.985   5.266   2.147
 1461WAT      O 4593   3.302   4.387   3.658
 1461WAT     H1 4594   3.284   4.477   3.630
 1461WAT     H2 4595   3.225   4.338   3.630
 1462WAT      O 4596   1.640   5.088   3.326
 1462WAT     H1 4597   1.621   5.035   3.249
 1462WAT     H2 4598   1.702   5.036   3.377
 1463WAT      O 4599   2.072   4.012   2.853
 1463WAT     H1 4600   2.029   4.095   2.831
 1463WAT     H2 4601   2.136   4.036   2.920
 1464WAT      O 4602   2.506   4.253   3.378
 1464WAT     H1 4603   2.458   4.266   3.459
 1464WAT     H2 4604   2.464   4.177   3.337
 1465WAT      O 4605   3.060   4.334   3.515
 1465WAT     H1 4606   2.983   4.321   3.572
 1465WAT     H2 4607   3.027   4.384   3.441
 1466WAT      O 4608   2.761   4.527   3.718
 1466WAT     H1 4609   2.778   4.432   3.715
 1466WAT     H2 4610   2.847   4.566   3.732
 1467WAT      O 4611   2.370   3.937   2.338
 1467WAT     H1 4612   2.299   3.947   2.401
 1467WAT     H2 4613   2.396   3.845   2.346
 1468WAT      O 4614   2.311   4.046   2.997
 1468WAT     H1 4615   2.333   4.133   2.964
 1468WAT     H2 4616   2.339   3.986   2.928
 1469WAT      O 4617   2.050   4.469   2.637
 1469WAT     H1 4618   2.007   4.410   2.700
 1469WAT     H2 4619   1.978   4.517   2.596
 1470WAT      O 4620   2.799   4.490   2.462
 1470WAT     H1 4621   2.744   4.569   2.456
 1470WAT     H2 4622   2.836   4.481   2.374
 1471WAT      O 4623   2.318   4.582   3.668
 1471WAT     H1 4624   2.336   4.492   3.639
 1471WAT     H2 4625   2.401   4.612   3.705
 1472WAT      O 4626   2.730   4.357   2.685
 1472WAT     H1 4627   2.757   4.401   2.604
 1472WAT     H2 4628   2.715   4.266   2.659
 1473WAT      O 4629   1.872   4.217   3.530
 1473WAT     H1 4630   1.808   4.287   3.539
 1473WAT     H2 4631   1.819   4.137   3.524
 1474WAT      O 4632   2.492   4.180   3.812
 1474WAT     H1 4633   2.436   4.123   3.865
 1474WAT     H2 4634   2.553   4.219   3.875
 1475WAT      O 4635   1.577   3.988   2.846
 1475WAT     H1 4636   1.540   4.050   2.909
 1475WAT     H2 4637   1.634   3.931   2.898
 1476WAT      O 4638   1.601   4.350   1.985
 1476WAT     H1 4639   1.591   4.433   2.032
 1476WAT     H2 4640   1.530   4.350   1.921
 1477WAT      O 4641   2.715   4.532   3.102
 1477WAT     H1 4642   2.638   4.579   3.134
 1477WAT     H2 4643   2.680   4.462   3.047
 1478WAT      O 4644   2.370   4.291   2.883
 1478WAT     H1 4645   2.377   4.254   2.795
 1478WAT     H2 4646   2.461   4.309   2.909
 1479WAT      O 4647   1.915   4.272   2.777
 1479WAT     H1 4648   1.873   4.307   2.856
 1479WAT     H2 4649   1.845   4.226   2.730
 1480WAT      O 4650   2.352   4.363   2.252
 1480WAT     H1 4651   2.335   4.379   2.345
 1480WAT     H2 4652   2.331   4.446   2.209
 1481WAT      O 4653   2.763   4.123   3.056
 1481WAT     H1 4654   2.772   4.166   3.141
 1481WAT     H2 4655   2.708   4.047   3.074
 1482WAT      O 4656   2.304   4.594   2.104
 1482WAT     H1 4657   2.241   4.549   2.048
 1482WAT     H2 4658   2.379   4.612   2.046
 1483WAT      O 4659   1.801   4.967   3.507
 1483WAT     H1 4660   1.751   4.909   3.565
 1483WAT     H2 4661   1.826   5.040   3.563
 1484WAT      O 4662   2.434   4.679   3.106
 1484WAT     H1 4663   2.436   4.624   3.185
 1484WAT     H2 4664   2.378   4.753   3.130
 1485WAT      O 4665   1.707   4.134   2.652
 1485WAT     H1 4666   1.669   4.069   2.711
 1485WAT     H2 4667   1.731   4.085   2.574
 1486WAT      O 4668   2.161   4.553   3.355
 1486WAT     H1 4669   2.137   4.640   3.386
 1486WAT     H2 4670   2.257   4.553   3.357
 1487WAT      O 4671   2.058   4.983   2.384
 1487WAT     H1 4672   1.981   4.928   2.377
 1487WAT     H2 4673   2.128   4.932   2.342
 1488WAT      O 4674   3.124   4.878   2.963
 1488WAT     H1 4675   3.203   4.906   2.916
 1488WAT     H2 4676   3.080   4.819   2.902
 1489WAT      O 4677   2.620   4.059   2.344
 1489WAT     H1 4678   2.532   4.022   2.338
 1489WAT     H2 4679   2.622   4.128   2.278
 1490WAT      O 4680   2.616   4.888   3.572
 1490WAT     H1 4681   2.619   4.798   3.539
 1490WAT     H2 4682   2.530   4.895   3.613
 1491WAT      O 4683   2.911   4.444   2.216
 1491WAT     H1 4684   2.978   4.507   2.189
 1491WAT     H2 4685   2.891   4.394   2.137
 1492WAT      O 4686   2.080   4.931   2.797
 1492WAT     H1 4687   2.118   4.849   2.765
 1492WAT     H2 4688   2.027   4.905   2.872
 1493WAT      O 4689   2.573   5.039   2.299
 1493WAT     H1 4690   2.564   5.123   2.252
 1493WAT     H2 4691   2.506   5.043   2.367
 1494WAT      O 4692   1.742   4.650   3.415
 1494WAT     H1 4693   1.701   4.710   3.478
 1494WAT     H2 4694   1.728   4.563   3.453
 1495WAT      O 4695   2.086   4.726   3.716
 1495WAT     H1 4696   2.063   4.752   3.626
 1495WAT     H2 4697   2.168   4.678   3.706
 1496WAT      O 4698   2.636   5.155   3.519
 1496WAT     H1 4699   2.636   5.060   3.529
 1496WAT     H2 4700   2.589   5.188   3.595
 1497WAT      O 4701   3.085   4.626   2.112
 1497WAT     H1 4702   3.071   4.630   2.018
 1497WAT     H2 4703   3.176   4.654   2.124
 1498WAT      O 4704   3.205   4.864   3.420
 1498WAT     H1 4705   3.146   4.936   3.399
 1498WAT     H2 4706   3.225   4.824   3.336
 1499WAT      O 4707   3.272   5.261   2.405
 1499WAT     H1 4708   3.216   5.200   2.452
 1499WAT     H2 4709   3.215   5.302   2.340
 1500WAT      O 4710   2.783   5.006   2.824
 1500WAT     H1 4711   2.790   4.980   2.732
 1500WAT     H2 4712   2.733   4.936   2.865
 1501WAT      O 4713   2.415   5.065   2.533
 1501WAT     H1 4714   2.479   5.122   2.576
 1501WAT     H2 4715   2.330   5.101   2.560
 1502WAT      O 4716   1.604   4.592   2.125
 1502WAT     H1 4717   1.699   4.594   2.137
 1502WAT     H2 4718   1.582   4.677   2.087
 1503WAT      O 4719   2.362   4.795   2.514
 1503WAT     H1 4720   2.378   4.888   2.531
 1503WAT     H2 4721   2.311   4.765   2.590
 1504WAT      O 4722   2.547   5.235   3.265
 1504WAT     H1 4723   2.580   5.214   3.353
 1504WAT     H2 4724   2.613   5.198   3.206
 1505WAT      O 4725   1.933   3.801   2.544
 1505WAT     H1 4726   1.867   3.750   2.591
 1505WAT     H2 4727   1.883   3.869   2.499
 1506WAT      O 4728   2.721   5.097   3.089
 1506WAT     H1 4729   2.778   5.033   3.133
 1506WAT     H2 4730   2.748   5.094   2.998
 1507WAT      O 4731   3.101   5.147   2.062
 1507WAT     H1 4732   3.078   5.079   2.125
 1507WAT     H2 4733   3.073   5.112   1.977
 1508WAT      O 4734   2.902   5.224   3.509
 1508WAT     H1 4735   2.899   5.316   3.536
 1508WAT     H2 4736   2.811   5.195   3.512
 1509WAT      O 4737   1.707   3.994   3.537
 1509WAT     H1 4738   1.621   3.995   3.580
 1509WAT     H2 4739   1.756   3.926   3.584
 1510WAT      O 4740   3.071   4.976   2.273
 1510WAT     H1 4741   3.071   5.028   2.353
 1510WAT     H2 4742   3.153   4.925   2.277
 1511WAT      O 4743   1.621   5.364   3.596
 1511WAT     H1 4744   1.637   5.270   3.589
 1511WAT     H2 4745   1.543   5.380   3.543
 1512WAT      O 4746   2.505   5.203   3.767
 1512WAT     H1 4747   2.467   5.127   3.812
 1512WAT     H2 4748   2.430   5.259   3.747
 1513WAT      O 4749   2.267   5.333   2.136
 1513WAT     H1 4750   2.250   5.323   2.042
 1513WAT     H2 4751   2.188   5.300   2.179
 1514WAT      O 4752   1.846   4.816   2.316
 1514WAT     H1 4753   1.769   4.872   2.300
 1514WAT     H2 4754   1.885   4.805   2.230
 1515WAT      O 4755   2.775   4.243   3.302
 1515WAT     H1 4756   2.814   4.176   3.359
 1515WAT     H2 4757   2.685   4.252   3.334
 1516WAT      O 4758   2.535   5.275   2.165
 1516WAT     H1 4759   2.548   5.266   2.071
 1516WAT     H2 4760   2.444   5.304   2.174
 1517WAT      O 4761   2.295   4.392   2.513
 1517WAT     H1 4762   2.223   4.425   2.566
 1517WAT     H2 4763   2.334   4.322   2.566
 1518WAT      O 4764   2.446   4.523   3.327
 1518WAT     H1 4765   2.505   4.566   3.390
 1518WAT     H2 4766   2.466   4.430   3.334
 1519WAT      O 4767   2.703   4.102   2.600
 1519WAT     H1 4768   2.682   4.081   2.509
 1519WAT     H2 4769   2.796   4.085   2.608
 1520WAT      O 4770   2.145   4.168   2.245
 1520WAT     H1 4771   2.225   4.219   2.236
 1520WAT     H2 4772   2.113   4.188   2.333
 1521WAT      O 4773   3.203   4.133   3.406
 1521WAT     H1 4774   3.154   4.204   3.448
 1521WAT     H2 4775   3.284   4.174   3.375
 1522WAT      O 4776   3.009   4.691   2.800
 1522WAT     H1 4777   2.918   4.660   2.800
 1522WAT     H2 4778   3.061   4.613   2.822
 1523WAT      O 4779   2.021   4.839   2.087
 1523WAT     H1 4780   2.102   4.828   2.137
 1523WAT     H2 4781   2.041   4.802   2.001
 1524WAT      O 4782   1.877   4.554   2.127
 1524WAT     H1 4783   1.869   4.459   2.134
 1524WAT     H2 4784   1.971   4.569   2.116
 1525WAT      O 4785   3.223   5.305   2.930
 1525WAT     H1 4786   3.210   5.369   2.860
 1525WAT     H2 4787   3.316   5.284   2.926
 1526WAT      O 4788   1.655   5.196   2.464
 1526WAT     H1 4789   1.566   5.228   2.446
 1526WAT     H2 4790   1.712   5.267   2.432
 1527WAT      O 4791   2.759   5.084   3.808
 1527WAT     H1 4792   2.678   5.132   3.792
 1527WAT     H2 4793   2.731   5.006   3.858
 1528WAT      O 4794   1.662   4.787   3.657
 1528WAT     H1 4795   1.719   4.719   3.692
 1528WAT     H2 4796   1.602   4.807   3.729
 1529WAT      O 4797   2.381   4.999   2.016
 1529WAT     H1 4798   2.354   4.942   2.088
 1529WAT     H2 4799   2.365   4.946   1.938
 1530WAT      O 4800   2.345   4.911   3.630
 1530WAT     H1 4801   2.270   4.970   3.631
 1530WAT     H2 4802   2.342   4.869   3.545
 1531WAT      O 4803   2.665   4.874   2.092
 1531WAT     H1 4804   2.622   4.929   2.158
 1531WAT     H2 4805   2.740   4.836   2.138
 1532WAT      O 4806   3.068   5.072   3.673
 1532WAT     H1 4807   3.154   5.091   3.636
 1532WAT     H2 4808   3.008   5.130   3.627
 1533WAT      O 4809   1.828   4.587   3.736
 1533WAT     H1 4810   1.838   4.573   3.830
 1533WAT     H2 4811   1.917   4.603   3.705
 1534WAT      O 4812   2.244   4.808   2.261
 1534WAT     H1 4813   2.290   4.800   2.345
 1534WAT     H2 4814   2.268   4.729   2.213
 1535WAT      O 4815   2.048   4.431   3.582
 1535WAT     H1 4816   1.997   4.356   3.551
 1535WAT     H2 4817   2.091   4.464   3.503
 1536WAT      O 4818   2.541   4.659   1.955
 1536WAT     H1 4819   2.619   4.613   1.924
 1536WAT     H2 4820   2.574   4.738   1.997
 1537WAT      O 4821   2.902   4.857   3.604
 1537WAT     H1 4822   2.954   4.929   3.638
 1537WAT     H2 4823   2.811   4.885   3.617
 1538WAT      O 4824   3.018   4.639   3.723
 1538WAT     H1 4825   3.091   4.618   3.664
 1538WAT     H2 4826   2.979   4.718   3.685
 1539WAT      O 4827   2.113   4.091   3.587
 1539WAT     H1 4828   2.126   4.048   3.503
 1539WAT     H2 4829   2.032   4.141   3.577
 1540WAT      O 4830   2.376   4.035   3.262
 1540WAT     H1 4831   2.350   4.042   3.170
 1540WAT     H2 4832   2.297   4.004   3.306
 1541WAT      O 4833   2.365   4.854   3.360
 1541WAT     H1 4834   2.441   4.909   3.339
 1541WAT     H2 4835   2.297   4.885   3.301
 1542WAT      O 4836   2.646   4.626   3.487
 1542WAT     H1 4837   2.681   4.585   3.566
 1542WAT     H2 4838   2.724   4.645   3.434
 1543WAT      O 4839   2.872   4.720   3.358
 1543WAT     H1 4840   2.879   4.782   3.285
 1543WAT     H2 4841   2.897   4.771   3.435
 1544WAT      O 4842   2.106   4.447   1.976
 1544WAT     H1 4843   2.088   4.354   1.988
 1544WAT     H2 4844   2.098   4.461   1.882
 1545WAT      O 4845   2.355   4.297   3.606
 1545WAT     H1 4846   2.404   4.262   3.681
 1545WAT     H2 4847   2.271   4.251   3.609
 1546WAT      O 4848   2.857   4.267   3.692
 1546WAT     H1 4849   2.806   4.189   3.668
 1546WAT     H2 4850   2.931   4.232   3.742
 1547WAT      O 4851   2.049   4.177   1.986
 1547WAT     H1 4852   2.087   4.118   1.920
 1547WAT     H2 4853   2.097   4.156   2.066
 1548WAT      O 4854   2.349   4.022   2.071
 1548WAT     H1 4855   2.286   3.966   2.025
 1548WAT     H2 4856   2.344   3.994   2.162
 1549WAT      O 4857   1.935   5.102   2.043
 1549WAT     H1 4858   1.971   5.150   2.117
 1549WAT     H2 4859   1.960   5.011   2.059
 1550WAT      O 4860   1.616   5.270   2.896
 1550WAT     H1 4861   1.642   5.206   2.830
 1550WAT     H2 4862   1.697   5.292   2.942
 1551WAT      O 4863   2.154   5.112   2.606
 1551WAT     H1 4864   2.121   5.057   2.676
 1551WAT     H2 4865   2.116   5.075   2.526
 1552WAT      O 4866   3.269   5.352   3.448
 1552WAT     H1 4867   3.237   5.345   3.358
 1552WAT     H2 4868   3.270   5.261   3.480
 1553WAT      O 4869   3.380   5.125   2.075
 1553WAT     H1 4870   3.285   5.138   2.073
 1553WAT     H2 4871   3.417   5.209   2.047
 1554WAT      O 4872   3.305   4.835   2.288
 1554WAT     H1 4873   3.383   4.890   2.298
 1554WAT     H2 4874   3.308   4.775   2.363
 1555WAT      O 4875   1.624   4.677   2.689
 1555WAT     H1 4876   1.552   4.681   2.627
 1555WAT     H2 4877   1.701   4.655   2.637
 1556WAT      O 4878   3.422   4.900   2.843
 1556WAT     H1 4879   3.449   4.821   2.797
 1556WAT     H2 4880   3.467   4.971   2.797
 1557WAT      O 4881   3.061   5.083   3.335
 1557WAT     H1 4882   3.003   5.128   3.397
 1557WAT     H2 4883   3.104   5.154   3.287
 1558WAT      O 4884   3.395   4.846   2.027
 1558WAT     H1 4885   3.403   4.941   2.017
 1558WAT     H2 4886   3.350   4.834   2.111
 1559WAT      O 4887   3.286   4.687   2.521
 1559WAT     H1 4888   3.256   4.596   2.510
 1559WAT     H2 4889   3.206   4.736   2.540
 1560WAT      O 4890   1.764   4.703   3.145
 1560WAT     H1 4891   1.760   4.678   3.237
 1560WAT     H2 4892   1.715   4.634   3.100
 1561WAT      O 4893   3.225   4.617   3.537
 1561WAT     H1 4894   3.226   4.572   3.452
 1561WAT     H2 4895   3.225   4.710   3.515
 1562WAT      O 4896   1.686   4.420   3.564
 1562WAT     H1 4897   1.602   4.401   3.606
 1562WAT     H2 4898   1.737   4.466   3.630
 1563WAT      O 4899   3.075   4.134   3.805
 1563WAT     H1 4900   3.170   4.120   3.799
 1563WAT     H2 4901   3.038   4.046   3.798
 1564WAT      O 4902   1.555   4.396   2.322
 1564WAT     H1 4903   1.483   4.420   2.380
 1564WAT     H2 4904   1.560   4.468   2.259
 1565WAT      O 4905   3.192   4.485   2.857
 1565WAT     H1 4906   3.226   4.423   2.793
 1565WAT     H2 4907   3.270   4.518   2.901
 1566WAT      O 4908   3.233   4.505   3.279
 1566WAT     H1 4909   3.140   4.485   3.270
 1566WAT     H2 4910   3.245   4.587   3.231
 1567WAT      O 4911   1.834   4.285   2.117
 1567WAT     H1 4912   1.898   4.239   2.063
 1567WAT     H2 4913   1.755   4.287   2.063
 1568WAT      O 4914   1.768   3.926   2.020
 1568WAT     H1 4915   1.837   3.955   2.080
 1568WAT     H2 4916   1.813   3.907   1.938
 1569WAT      O 4917   3.203   4.424   2.494
 1569WAT     H1 4918   3.226   4.366   2.567
 1569WAT     H2 4919   3.110   4.408   2.479
 1570WAT      O 4920   1.744   3.838   3.005
 1570WAT     H1 4921   1.832   3.810   2.978
 1570WAT     H2 4922   1.755   3.870   3.094
 1571WAT      O 4923   3.296   4.262   2.703
 1571WAT     H1 4924   3.297   4.227   2.793
 1571WAT     H2 4925   3.385   4.249   2.671
 1572WAT      O 4926   1.715   3.912   3.273
 1572WAT     H1 4927   1.722   3.944   3.364
 1572WAT     H2 4928   1.665   3.831   3.280
 1573WAT      O 4929   1.870   5.169   3.669
 1573WAT     H1 4930   1.882   5.157   3.763
 1573WAT     H2 4931   1.885   5.263   3.655
 1574WAT      O 4932   2.280   5.306   3.271
 1574WAT     H1 4933   2.263   5.349   3.187
 1574WAT     H2 4934   2.374   5.288   3.270
 1575WAT      O 4935   2.525   3.954   3.642
 1575WAT     H1 4936   2.500   4.033   3.690
 1575WAT     H2 4937   2.617   3.966   3.622
 1576WAT      O 4938   2.794   4.001   3.618
 1576WAT     H1 4939   2.847   3.999   3.539
 1576WAT     H2 4940   2.845   3.951   3.682
 1577WAT      O 4941   1.851   3.795   3.656
 1577WAT     H1 4942   1.881   3.754   3.575
 1577WAT     H2 4943   1.862   3.727   3.723
 1578WAT      O 4944   1.885   5.418   3.532
 1578WAT     H1 4945   1.791   5.424   3.554
 1578WAT     H2 4946   1.886   5.379   3.445
 1579WAT      O 4947   2.947   4.024   3.391
 1579WAT     H1 4948   2.942   3.976   3.308
 1579WAT     H2 4949   3.038   4.052   3.397
 1580WAT      O 4950   1.850   5.271   3.298
 1580WAT     H1 4951   1.769   5.220   3.300
 1580WAT     H2 4952   1.875   5.273   3.205
 1581WAT      O 4953   2.211   5.380   3.011
 1581WAT     H1 4954   2.223   5.290   2.981
 1581WAT     H2 4955   2.248   5.433   2.940
 1582WAT      O 4956   2.596   3.919   3.130
 1582WAT     H1 4957   2.530   3.954   3.190
 1582WAT     H2 4958   2.556   3.839   3.096
 1583WAT      O 4959   3.069   4.048   2.983
 1583WAT     H1 4960   3.002   3.982   2.967
 1583WAT     H2 4961   3.024   4.131   2.968
 1584WAT      O 4962   1.760   3.991   2.409
 1584WAT     H1 4963   1.825   3.989   2.339
 1584WAT     H2 4964   1.682   4.029   2.369
 1585WAT      O 4965   2.404   4.166   2.642
 1585WAT     H1 4966   2.352   4.087   2.624
 1585WAT     H2 4967   2.495   4.139   2.630
 1586WAT      O 4968   1.824   5.395   2.369
 1586WAT     H1 4969   1.796   5.437   2.287
 1586WAT     H2 4970   1.850   5.468   2.425
 1587WAT      O 4971   1.959   3.963   2.218
 1587WAT     H1 4972   2.009   3.882   2.226
 1587WAT     H2 4973   2.024   4.033   2.225
 1588WAT      O 4974   2.170   3.972   2.534
 1588WAT     H1 4975   2.099   3.908   2.545
 1588WAT     H2 4976   2.125   4.055   2.522
 1589WAT      O 4977   2.171   3.898   3.775
 1589WAT     H1 4978   2.153   3.956   3.701
 1589WAT     H2 4979   2.204   3.817   3.735
 1590WAT      O 4980   2.034   5.232   2.264
 1590WAT     H1 4981   1.968   5.281   2.312
 1590WAT     H2 4982   2.048   5.153   2.316
 1591WAT      O 4983   2.947   3.893   3.828
 1591WAT     H1 4984   2.893   3.898   3.907
 1591WAT     H2 4985   3.027   3.848   3.856
 1592WAT      O 4986   2.750   4.607   0.879
 1592WAT     H1 4987   2.744   4.511   0.871
 1592WAT     H2 4988   2.709   4.640   0.799
 1593WAT      O 4989   2.621   4.797   1.041
 1593WAT     H1 4990   2.569   4.752   1.109
 1593WAT     H2 4991   2.668   4.726   0.997
 1594WAT      O 4992   1.964   4.854   1.155
 1594WAT     H1 4993   1.897   4.797   1.193
 1594WAT     H2 4994   2.032   4.860   1.222
 1595WAT      O 4995   3.017   5.171   0.891
 1595WAT     H1 4996   2.951   5.118   0.936
 1595WAT     H2 4997   3.078   5.197   0.960
 1596WAT      O 4998   1.959   5.258   1.168
 1596WAT     H1 4999   1.999   5.177   1.136
 1596WAT     H2 5000   2.029   5.322   1.165
 1597WAT      O 5001   1.809   4.371   0.504
 1597WAT     H1 5002   1.715   4.362   0.487
 1597WAT     H2 5003   1.849   4.371   0.417
 1598WAT      O 5004   1.595   4.548   1.078
 1598WAT     H1 5005   1.665   4.483   1.083
 1598WAT     H2 5006   1.609   4.593   0.995
 1599WAT      O 5007   2.475   5.029   1.088
 1599WAT     H1 5008   2.513   4.947   1.057
 1599WAT     H2 5009   2.541   5.066   1.147
 1600WAT      O 5010   1.727   4.171   1.301
 1600WAT     H1 5011   1.720   4.079   1.325
 1600WAT     H2 5012   1.662   4.215   1.355
 1601WAT      O 5013   2.636   4.315   1.065
 1601WAT     H1 5014   2.687   4.246   1.106
 1601WAT     H2 5015   2.673   4.324   0.977
 1602WAT      O 5016   2.024   4.222   0.603
 1602WAT     H1 5017   2.056   4.288   0.664
 1602WAT     H2 5018   1.937   4.253   0.578
 1603WAT      O 5019   3.048   4.141   0.763
 1603WAT     H1 5020   3.107   4.074   0.798
 1603WAT     H2 5021   3.028   4.197   0.838
 1604WAT      O 5022   1.805   4.373   1.131
 1604WAT     H1 5023   1.884   4.404   1.175
 1604WAT     H2 5024   1.773   4.301   1.187
 1605WAT      O 5025   2.244   4.526   1.082
 1605WAT     H1 5026   2.312   4.575   1.128
 1605WAT     H2 5027   2.285   4.444   1.057
 1606WAT      O 5028   2.117   3.970   1.464
 1606WAT     H1 5029   2.082   4.037   1.406
 1606WAT     H2 5030   2.071   3.890   1.438
 1607WAT      O 5031   2.713   4.975   0.641
 1607WAT     H1 5032   2.704   4.988   0.546
 1607WAT     H2 5033   2.668   5.051   0.679
 1608WAT      O 5034   2.192   4.947   1.303
 1608WAT     H1 5035   2.148   5.003   1.367
 1608WAT     H2 5036   2.208   5.005   1.228
 1609WAT      O 5037   3.032   4.246   1.035
 1609WAT     H1 5038   2.952   4.222   1.082
 1609WAT     H2 5039   3.037   4.341   1.043
 1610WAT      O 5040   2.006   4.158   1.307
 1610WAT     H1 5041   2.034   4.248   1.288
 1610WAT     H2 5042   1.911   4.162   1.303
 1611WAT      O 5043   2.087   5.134   1.472
 1611WAT     H1 5044   2.154   5.199   1.450
 1611WAT     H2 5045   2.004   5.180   1.461
 1612WAT      O 5046   1.653   4.975   0.392
 1612WAT     H1 5047   1.713   5.006   0.324
 1612WAT     H2 5048   1.648   5.047   0.455
 1613WAT      O 5049   3.152   5.300   1.321
 1613WAT     H1 5050   3.082   5.364   1.308
 1613WAT     H2 5051   3.191   5.289   1.234
 1614WAT      O 5052   3.304   4.202   1.096
 1614WAT     H1 5053   3.210   4.200   1.078
 1614WAT     H2 5054   3.315   4.270   1.162
 1615WAT      O 5055   2.343   3.890   0.901
 1615WAT     H1 5056   2.373   3.821   0.843
 1615WAT     H2 5057   2.255   3.911   0.871
 1616WAT      O 5058   3.107   5.076   0.649
 1616WAT     H1 5059   3.090   4.984   0.666
 1616WAT     H2 5060   3.074   5.121   0.727
 1617WAT      O 5061   2.926   4.919   1.285
 1617WAT     H1 5062   2.986   4.899   1.213
 1617WAT     H2 5063   2.977   4.972   1.345
 1618WAT      O 5064   2.635   4.711   0.652
 1618WAT     H1 5065   2.540   4.721   0.648
 1618WAT     H2 5066   2.669   4.800   0.641
 1619WAT      O 5067   2.605   4.267   0.364
 1619WAT     H1 5068   2.517   4.302   0.355
 1619WAT     H2 5069   2.661   4.344   0.370
 1620WAT      O 5070   3.253   4.750   1.294
 1620WAT     H1 5071   3.196   4.780   1.224
 1620WAT     H2 5072   3.334   4.798   1.282
 1621WAT      O 5073   3.041   4.810   0.671
 1621WAT     H1 5074   2.961   4.797   0.619
 1621WAT     H2 5075   3.021   4.769   0.755
 1622WAT      O 5076   2.949   4.450   1.400
 1622WAT     H1 5077   2.907   4.536   1.405
 1622WAT     H2 5078   2.877   4.389   1.386
 1623WAT      O 5079   2.190   4.685   0.860
 1623WAT     H1 5080   2.144   4.616   0.812
 1623WAT     H2 5081   2.213   4.644   0.944
 1624WAT      O 5082   2.220   5.111   1.074
 1624WAT     H1 5083   2.178   5.053   1.010
 1624WAT     H2 5084   2.312   5.086   1.072
 1625WAT      O 5085   2.047   4.432   1.256
 1625WAT     H1 5086   2.107   4.465   1.189
 1625WAT     H2 5087   2.078   4.471   1.337
 1626WAT      O 5088   2.135   5.087   1.735
 1626WAT     H1 5089   2.046   5.094   1.770
 1626WAT     H2 5090   2.124   5.095   1.640
 1627WAT      O 5091   2.868   4.806   0.402
 1627WAT     H1 5092   2.905   4.726   0.362
 1627WAT     H2 5093   2.936   4.872   0.390
 1628WAT      O 5094   1.996   4.770   1.577
 1628WAT     H1 5095   1.958   4.857   1.582
 1628WAT     H2 5096   1.923   4.712   1.554
 1629WAT      O 5097   2.623   5.194   0.788
 1629WAT     H1 5098   2.675   5.273   0.772
 1629WAT     H2 5099   2.666   5.152   0.863
 1630WAT      O 5100   2.252   5.310   1.847
 1630WAT     H1 5101   2.220   5.376   1.786
 1630WAT     H2 5102   2.216   5.227   1.815
 1631WAT      O 5103   3.259   3.859   0.212
 1631WAT     H1 5104   3.217   3.845   0.297
 1631WAT     H2 5105   3.311   3.938   0.224
 1632WAT      O 5106   1.830   4.584   0.679
 1632WAT     H1 5107   1.835   4.661   0.623
 1632WAT     H2 5108   1.818   4.511   0.618
 1633WAT      O 5109   3.452   5.378   1.989
 1633WAT     H1 5110   3.397   5.456   1.998
 1633WAT     H2 5111   3.478   5.377   1.897
 1634WAT      O 5112   1.599   4.920   1.238
 1634WAT     H1 5113   1.580   4.930   1.145
 1634WAT     H2 5114   1.668   4.854   1.242
 1635WAT      O 5115   1.698   5.085   0.823
 1635WAT     H1 5116   1.678   5.115   0.735
 1635WAT     H2 5117   1.787   5.051   0.818
 1636WAT      O 5118   3.317   5.088   1.645
 1636WAT     H1 5119   3.386   5.097   1.579
 1636WAT     H2 5120   3.290   4.996   1.639
 1637WAT      O 5121   2.952   5.224   0.325
 1637WAT     H1 5122   2.870   5.206   0.279
 1637WAT     H2 5123   2.994   5.139   0.334
 1638WAT      O 5124   1.639   5.089   1.451
 1638WAT     H1 5125   1.620   5.036   1.374
 1638WAT     H2 5126   1.701   5.037   1.502
 1639WAT      O 5127   2.074   4.007   0.982
 1639WAT     H1 5128   2.029   4.088   0.958
 1639WAT     H2 5129   2.136   4.034   1.049
 1640WAT      O 5130   2.497   4.262   1.497
 1640WAT     H1 5131   2.448   4.271   1.579
 1640WAT     H2 5132   2.461   4.183   1.457
 1641WAT      O 5133   3.039   4.325   1.629
 1641WAT     H1 5134   2.958   4.307   1.677
 1641WAT     H2 5135   3.010   4.372   1.551
 1642WAT      O 5136   2.770   4.532   1.847
 1642WAT     H1 5137   2.783   4.439   1.825
 1642WAT     H2 5138   2.858   4.567   1.856
 1643WAT      O 5139   2.399   3.929   0.530
 1643WAT     H1 5140   2.309   3.941   0.563
 1643WAT     H2 5141   2.399   3.841   0.495
 1644WAT      O 5142   2.313   4.051   1.124
 1644WAT     H1 5143   2.332   4.139   1.090
 1644WAT     H2 5144   2.341   3.992   1.054
 1645WAT      O 5145   2.055   4.453   0.772
 1645WAT     H1 5146   2.022   4.391   0.836
 1645WAT     H2 5147   1.978   4.503   0.745
 1646WAT      O 5148   2.755   4.467   0.590
 1646WAT     H1 5149   2.715   4.554   0.590
 1646WAT     H2 5150   2.815   4.468   0.515
 1647WAT      O 5151   2.319   4.579   1.790
 1647WAT     H1 5152   2.334   4.488   1.764
 1647WAT     H2 5153   2.403   4.609   1.825
 1648WAT      O 5154   2.741   4.325   0.818
 1648WAT     H1 5155   2.744   4.367   0.732
 1648WAT     H2 5156   2.747   4.232   0.799
 1649WAT      O 5157   1.873   4.216   1.654
 1649WAT     H1 5158   1.809   4.287   1.663
 1649WAT     H2 5159   1.821   4.136   1.648
 1650WAT      O 5160   2.509   4.182   1.929
 1650WAT     H1 5161   2.449   4.125   1.977
 1650WAT     H2 5162   2.560   4.225   1.997
 1651WAT      O 5163   1.581   3.987   0.973
 1651WAT     H1 5164   1.545   4.049   1.036
 1651WAT     H2 5165   1.638   3.930   1.025
 1652WAT      O 5166   2.693   4.532   1.230
 1652WAT     H1 5167   2.613   4.548   1.280
 1652WAT     H2 5168   2.670   4.460   1.171
 1653WAT      O 5169   2.370   4.295   1.007
 1653WAT     H1 5170   2.370   4.258   0.918
 1653WAT     H2 5171   2.463   4.305   1.028
 1654WAT      O 5172   1.922   4.253   0.910
 1654WAT     H1 5173   1.878   4.293   0.985
 1654WAT     H2 5174   1.851   4.212   0.860
 1655WAT      O 5175   2.352   4.383   0.366
 1655WAT     H1 5176   2.336   4.393   0.460
 1655WAT     H2 5177   2.340   4.471   0.330
 1656WAT      O 5178   2.804   4.121   1.177
 1656WAT     H1 5179   2.804   4.157   1.265
 1656WAT     H2 5180   2.743   4.047   1.181
 1657WAT      O 5181   2.318   4.631   0.234
 1657WAT     H1 5182   2.288   4.605   0.147
 1657WAT     H2 5183   2.396   4.684   0.217
 1658WAT      O 5184   1.801   4.967   1.630
 1658WAT     H1 5185   1.751   4.909   1.688
 1658WAT     H2 5186   1.827   5.040   1.686
 1659WAT      O 5187   2.414   4.692   1.224
 1659WAT     H1 5188   2.426   4.642   1.305
 1659WAT     H2 5189   2.356   4.764   1.249
 1660WAT      O 5190   1.709   4.129   0.776
 1660WAT     H1 5191   1.670   4.068   0.838
 1660WAT     H2 5192   1.729   4.075   0.699
 1661WAT      O 5193   2.162   4.556   1.479
 1661WAT     H1 5194   2.134   4.642   1.510
 1661WAT     H2 5195   2.258   4.560   1.481
 1662WAT      O 5196   2.031   4.976   0.523
 1662WAT     H1 5197   1.954   4.920   0.529
 1662WAT     H2 5198   2.100   4.918   0.489
 1663WAT      O 5199   3.125   4.873   1.083
 1663WAT     H1 5200   3.205   4.902   1.039
 1663WAT     H2 5201   3.082   4.815   1.019
 1664WAT      O 5202   2.641   4.051   0.523
 1664WAT     H1 5203   2.555   4.008   0.524
 1664WAT     H2 5204   2.629   4.128   0.466
 1665WAT      O 5205   2.618   4.888   1.697
 1665WAT     H1 5206   2.621   4.798   1.665
 1665WAT     H2 5207   2.532   4.895   1.739
 1666WAT      O 5208   2.926   4.449   0.381
 1666WAT     H1 5209   2.996   4.506   0.347
 1666WAT     H2 5210   2.952   4.361   0.353
 1667WAT      O 5211   2.078   4.929   0.922
 1667WAT     H1 5212   2.116   4.847   0.891
 1667WAT     H2 5213   2.025   4.904   0.998
 1668WAT      O 5214   2.505   5.068   0.438
 1668WAT     H1 5215   2.443   5.126   0.392
 1668WAT     H2 5216   2.466   5.055   0.524
 1669WAT      O 5217   1.741   4.650   1.538
 1669WAT     H1 5218   1.700   4.709   1.601
 1669WAT     H2 5219   1.728   4.563   1.575
 1670WAT      O 5220   2.088   4.727   1.839
 1670WAT     H1 5221   2.064   4.752   1.750
 1670WAT     H2 5222   2.170   4.678   1.829
 1671WAT      O 5223   2.635   5.154   1.642
 1671WAT     H1 5224   2.636   5.059   1.653
 1671WAT     H2 5225   2.588   5.187   1.719
 1672WAT      O 5226   3.110   4.638   0.293
 1672WAT     H1 5227   3.132   4.635   0.200
 1672WAT     H2 5228   3.176   4.696   0.331
 1673WAT      O 5229   3.206   4.855   1.542
 1673WAT     H1 5230   3.147   4.927   1.520
 1673WAT     H2 5231   3.224   4.812   1.458
 1674WAT      O 5232   3.273   5.257   0.525
 1674WAT     H1 5233   3.218   5.195   0.574
 1674WAT     H2 5234   3.212   5.299   0.464
 1675WAT      O 5235   2.776   5.009   0.942
 1675WAT     H1 5236   2.791   4.979   0.852
 1675WAT     H2 5237   2.731   4.936   0.984
 1676WAT      O 5238   2.398   5.059   0.694
 1676WAT     H1 5239   2.460   5.117   0.738
 1676WAT     H2 5240   2.312   5.098   0.711
 1677WAT      O 5241   1.610   4.604   0.289
 1677WAT     H1 5242   1.703   4.626   0.277
 1677WAT     H2 5243   1.567   4.688   0.301
 1678WAT      O 5244   2.366   4.787   0.663
 1678WAT     H1 5245   2.377   4.880   0.680
 1678WAT     H2 5246   2.313   4.756   0.737
 1679WAT      O 5247   2.546   5.235   1.390
 1679WAT     H1 5248   2.578   5.214   1.477
 1679WAT     H2 5249   2.611   5.196   1.331
 1680WAT      O 5250   1.927   3.801   0.686
 1680WAT     H1 5251   1.861   3.748   0.730
 1680WAT     H2 5252   1.878   3.862   0.632
 1681WAT      O 5253   2.719   5.094   1.215
 1681WAT     H1 5254   2.775   5.029   1.257
 1681WAT     H2 5255   2.748   5.096   1.124
 1682WAT      O 5256   2.903   5.220   1.630
 1682WAT     H1 5257   2.901   5.312   1.656
 1682WAT     H2 5258   2.811   5.192   1.633
 1683WAT      O 5259   1.708   3.993   1.661
 1683WAT     H1 5260   1.623   3.996   1.704
 1683WAT     H2 5261   1.757   3.925   1.707
 1684WAT      O 5262   3.076   4.984   0.390
 1684WAT     H1 5263   3.086   5.024   0.476
 1684WAT     H2 5264   3.157   4.935   0.376
 1685WAT      O 5265   1.621   5.364   1.718
 1685WAT     H1 5266   1.634   5.270   1.711
 1685WAT     H2 5267   1.543   5.381   1.665
 1686WAT      O 5268   2.505   5.203   1.890
 1686WAT     H1 5269   2.467   5.128   1.936
 1686WAT     H2 5270   2.430   5.259   1.870
 1687WAT      O 5271   2.299   5.234   0.342
 1687WAT     H1 5272   2.305   5.293   0.267
 1687WAT     H2 5273   2.206   5.229   0.361
 1688WAT      O 5274   1.824   4.791   0.499
 1688WAT     H1 5275   1.758   4.851   0.466
 1688WAT     H2 5276   1.849   4.739   0.424
 1689WAT      O 5277   2.769   4.221   1.429
 1689WAT     H1 5278   2.794   4.152   1.489
 1689WAT     H2 5279   2.679   4.242   1.454
 1690WAT      O 5280   3.154   4.082   0.512
 1690WAT     H1 5281   3.099   4.123   0.445
 1690WAT     H2 5282   3.114   4.105   0.595
 1691WAT      O 5283   2.291   4.393   0.629
 1691WAT     H1 5284   2.221   4.427   0.685
 1691WAT     H2 5285   2.327   4.319   0.678
 1692WAT      O 5286   2.457   4.532   1.440
 1692WAT     H1 5287   2.512   4.571   1.508
 1692WAT     H2 5288   2.468   4.437   1.452
 1693WAT      O 5289   2.779   4.049   0.759
 1693WAT     H1 5290   2.734   4.046   0.674
 1693WAT     H2 5291   2.870   4.069   0.737
 1694WAT      O 5292   2.130   4.210   0.349
 1694WAT     H1 5293   2.216   4.250   0.341
 1694WAT     H2 5294   2.110   4.212   0.443
 1695WAT      O 5295   3.013   4.687   0.912
 1695WAT     H1 5296   2.924   4.652   0.916
 1695WAT     H2 5297   3.069   4.614   0.937
 1696WAT      O 5298   1.897   4.631   0.290
 1696WAT     H1 5299   1.904   4.537   0.272
 1696WAT     H2 5300   1.988   4.662   0.288
 1697WAT      O 5301   3.222   5.306   1.051
 1697WAT     H1 5302   3.211   5.376   0.987
 1697WAT     H2 5303   3.315   5.282   1.045
 1698WAT      O 5304   1.655   5.184   0.569
 1698WAT     H1 5305   1.566   5.218   0.556
 1698WAT     H2 5306   1.711   5.258   0.546
 1699WAT      O 5307   2.760   5.089   1.933
 1699WAT     H1 5308   2.678   5.135   1.915
 1699WAT     H2 5309   2.734   5.010   1.980
 1700WAT      O 5310   1.662   4.787   1.780
 1700WAT     H1 5311   1.719   4.719   1.815
 1700WAT     H2 5312   1.602   4.807   1.852
 1701WAT      O 5313   2.346   4.912   1.757
 1701WAT     H1 5314   2.271   4.971   1.757
 1701WAT     H2 5315   2.345   4.871   1.670
 1702WAT      O 5316   2.645   4.909   0.258
 1702WAT     H1 5317   2.597   4.966   0.318
 1702WAT     H2 5318   2.716   4.872   0.311
 1703WAT      O 5319   3.067   5.067   1.796
 1703WAT     H1 5320   3.152   5.086   1.757
 1703WAT     H2 5321   3.006   5.126   1.751
 1704WAT      O 5322   1.827   4.586   1.858
 1704WAT     H1 5323   1.838   4.574   1.952
 1704WAT     H2 5324   1.917   4.598   1.826
 1705WAT      O 5325   2.199   4.776   0.440
 1705WAT     H1 5326   2.261   4.772   0.513
 1705WAT     H2 5327   2.241   4.726   0.371
 1706WAT      O 5328   2.044   4.435   1.705
 1706WAT     H1 5329   1.997   4.357   1.675
 1706WAT     H2 5330   2.090   4.467   1.627
 1707WAT      O 5331   2.906   4.851   1.723
 1707WAT     H1 5332   2.959   4.922   1.758
 1707WAT     H2 5333   2.815   4.879   1.737
 1708WAT      O 5334   3.028   4.634   1.844
 1708WAT     H1 5335   3.099   4.607   1.786
 1708WAT     H2 5336   2.992   4.712   1.802
 1709WAT      O 5337   2.117   4.092   1.709
 1709WAT     H1 5338   2.128   4.049   1.624
 1709WAT     H2 5339   2.035   4.141   1.700
 1710WAT      O 5340   2.381   4.036   1.385
 1710WAT     H1 5341   2.355   4.043   1.294
 1710WAT     H2 5342   2.304   4.002   1.430
 1711WAT      O 5343   2.367   4.854   1.489
 1711WAT     H1 5344   2.447   4.900   1.463
 1711WAT     H2 5345   2.300   4.885   1.428
 1712WAT      O 5346   2.649   4.626   1.614
 1712WAT     H1 5347   2.687   4.589   1.694
 1712WAT     H2 5348   2.724   4.644   1.558
 1713WAT      O 5349   2.869   4.714   1.477
 1713WAT     H1 5350   2.877   4.775   1.404
 1713WAT     H2 5351   2.900   4.763   1.553
 1714WAT      O 5352   2.351   4.293   1.731
 1714WAT     H1 5353   2.403   4.257   1.804
 1714WAT     H2 5354   2.270   4.242   1.732
 1715WAT      O 5355   2.787   4.269   1.769
 1715WAT     H1 5356   2.693   4.262   1.783
 1715WAT     H2 5357   2.814   4.183   1.737
 1716WAT      O 5358   2.868   3.958   0.406
 1716WAT     H1 5359   2.872   3.865   0.424
 1716WAT     H2 5360   2.784   3.987   0.443
 1717WAT      O 5361   1.856   5.062   0.230
 1717WAT     H1 5362   1.914   5.123   0.276
 1717WAT     H2 5363   1.906   5.035   0.153
 1718WAT      O 5364   1.616   5.269   1.012
 1718WAT     H1 5365   1.641   5.206   0.945
 1718WAT     H2 5366   1.697   5.288   1.060
 1719WAT      O 5367   2.132   5.119   0.734
 1719WAT     H1 5368   2.107   5.059   0.805
 1719WAT     H2 5369   2.097   5.078   0.655
 1720WAT      O 5370   3.268   5.348   1.571
 1720WAT     H1 5371   3.237   5.341   1.481
 1720WAT     H2 5372   3.269   5.258   1.604
 1721WAT      O 5373   3.307   4.816   0.394
 1721WAT     H1 5374   3.380   4.879   0.391
 1721WAT     H2 5375   3.312   4.778   0.481
 1722WAT      O 5376   1.616   4.679   0.833
 1722WAT     H1 5377   1.550   4.684   0.763
 1722WAT     H2 5378   1.695   4.648   0.789
 1723WAT      O 5379   3.412   4.906   0.971
 1723WAT     H1 5380   3.439   4.825   0.929
 1723WAT     H2 5381   3.458   4.975   0.921
 1724WAT      O 5382   3.061   5.077   1.457
 1724WAT     H1 5383   3.004   5.122   1.519
 1724WAT     H2 5384   3.105   5.147   1.409
 1725WAT      O 5385   2.988   4.182   0.311
 1725WAT     H1 5386   2.989   4.173   0.215
 1725WAT     H2 5387   2.937   4.107   0.341
 1726WAT      O 5388   3.291   4.691   0.639
 1726WAT     H1 5389   3.270   4.598   0.633
 1726WAT     H2 5390   3.207   4.733   0.657
 1727WAT      O 5391   1.761   4.703   1.267
 1727WAT     H1 5392   1.757   4.678   1.360
 1727WAT     H2 5393   1.708   4.636   1.223
 1728WAT      O 5394   3.226   4.602   1.657
 1728WAT     H1 5395   3.230   4.552   1.576
 1728WAT     H2 5396   3.229   4.694   1.630
 1729WAT      O 5397   1.686   4.419   1.686
 1729WAT     H1 5398   1.602   4.400   1.728
 1729WAT     H2 5399   1.737   4.466   1.752
 1730WAT      O 5400   1.547   4.374   0.422
 1730WAT     H1 5401   1.479   4.400   0.484
 1730WAT     H2 5402   1.561   4.450   0.366
 1731WAT      O 5403   3.207   4.496   0.982
 1731WAT     H1 5404   3.251   4.438   0.920
 1731WAT     H2 5405   3.277   4.530   1.037
 1732WAT      O 5406   3.223   4.489   1.400
 1732WAT     H1 5407   3.129   4.474   1.390
 1732WAT     H2 5408   3.239   4.572   1.353
 1733WAT      O 5409   1.922   4.358   0.253
 1733WAT     H1 5410   2.000   4.308   0.278
 1733WAT     H2 5411   1.883   4.307   0.182
 1734WAT      O 5412   3.239   4.420   0.628
 1734WAT     H1 5413   3.284   4.375   0.700
 1734WAT     H2 5414   3.155   4.375   0.620
 1735WAT      O 5415   1.749   3.834   1.129
 1735WAT     H1 5416   1.836   3.805   1.102
 1735WAT     H2 5417   1.761   3.867   1.218
 1736WAT      O 5418   3.363   4.297   0.839
 1736WAT     H1 5419   3.347   4.254   0.923
 1736WAT     H2 5420   3.442   4.254   0.806
 1737WAT      O 5421   3.419   4.099   0.429
 1737WAT     H1 5422   3.330   4.086   0.464
 1737WAT     H2 5423   3.426   4.193   0.417
 1738WAT      O 5424   1.718   3.911   1.397
 1738WAT     H1 5425   1.724   3.943   1.487
 1738WAT     H2 5426   1.666   3.830   1.404
 1739WAT      O 5427   1.872   5.169   1.791
 1739WAT     H1 5428   1.883   5.157   1.886
 1739WAT     H2 5429   1.885   5.263   1.778
 1740WAT      O 5430   2.279   5.305   1.394
 1740WAT     H1 5431   2.262   5.347   1.310
 1740WAT     H2 5432   2.373   5.287   1.394
 1741WAT      O 5433   2.545   3.946   1.773
 1741WAT     H1 5434   2.532   4.028   1.821
 1741WAT     H2 5435   2.630   3.956   1.731
 1742WAT      O 5436   1.852   3.794   1.780
 1742WAT     H1 5437   1.882   3.754   1.698
 1742WAT     H2 5438   1.864   3.726   1.846
 1743WAT      O 5439   1.884   5.418   1.653
 1743WAT     H1 5440   1.791   5.423   1.675
 1743WAT     H2 5441   1.887   5.378   1.567
 1744WAT      O 5442   2.791   3.729   1.298
 1744WAT     H1 5443   2.742   3.808   1.279
 1744WAT     H2 5444   2.783   3.718   1.393
 1745WAT      O 5445   1.851   5.269   1.420
 1745WAT     H1 5446   1.770   5.218   1.422
 1745WAT     H2 5447   1.876   5.271   1.327
 1746WAT      O 5448   2.211   5.379   1.134
 1746WAT     H1 5449   2.225   5.289   1.104
 1746WAT     H2 5450   2.250   5.433   1.065
 1747WAT      O 5451   2.605   3.926   1.238
 1747WAT     H1 5452   2.547   3.965   1.304
 1747WAT     H2 5453   2.554   3.854   1.202
 1748WAT      O 5454   2.992   3.907   1.063
 1748WAT     H1 5455   3.064   3.940   1.009
 1748WAT     H2 5456   2.953   3.986   1.102
 1749WAT      O 5457   3.204   3.959   0.888
 1749WAT     H1 5458   3.190   3.869   0.859
 1749WAT     H2 5459   3.295   3.962   0.914
 1750WAT      O 5460   1.760   3.971   0.532
 1750WAT     H1 5461   1.832   3.986   0.470
 1750WAT     H2 5462   1.685   4.015   0.493
 1751WAT      O 5463   2.363   4.162   0.764
 1751WAT     H1 5464   2.292   4.102   0.740
 1751WAT     H2 5465   2.442   4.109   0.754
 1752WAT      O 5466   2.805   3.794   0.891
 1752WAT     H1 5467   2.871   3.820   0.955
 1752WAT     H2 5468   2.782   3.876   0.847
 1753WAT      O 5469   3.150   3.805   0.461
 1753WAT     H1 5470   3.152   3.897   0.488
 1753WAT     H2 5471   3.060   3.777   0.480
 1754WAT      O 5472   1.828   5.395   0.507
 1754WAT     H1 5473   1.800   5.457   0.441
 1754WAT     H2 5474   1.855   5.449   0.582
 1755WAT      O 5475   1.973   3.973   0.363
 1755WAT     H1 5476   2.030   3.897   0.374
 1755WAT     H2 5477   2.032   4.045   0.343
 1756WAT      O 5478   2.155   3.987   0.668
 1756WAT     H1 5479   2.089   3.920   0.685
 1756WAT     H2 5480   2.105   4.064   0.642
 1757WAT      O 5481   2.177   3.897   1.896
 1757WAT     H1 5482   2.158   3.953   1.821
 1757WAT     H2 5483   2.217   3.819   1.858
 1758WAT      O 5484   2.021   5.217   0.393
 1758WAT     H1 5485   1.961   5.275   0.440
 1758WAT     H2 5486   2.026   5.139   0.447
 1759WAT      O 5487   2.766   2.732   4.606
 1759WAT     H1 5488   2.731   2.643   4.609
 1759WAT     H2 5489   2.701   2.785   4.653
 1760WAT      O 5490   2.601   2.898   4.810
 1760WAT     H1 5491   2.511   2.878   4.835
 1760WAT     H2 5492   2.654   2.841   4.866
 1761WAT      O 5493   1.990   2.969   4.867
 1761WAT     H1 5494   1.920   2.916   4.906
 1761WAT     H2 5495   2.050   2.985   4.940
 1762WAT      O 5496   2.987   3.402   4.665
 1762WAT     H1 5497   2.946   3.317   4.682
 1762WAT     H2 5498   3.074   3.394   4.704
 1763WAT      O 5499   2.014   3.382   4.921
 1763WAT     H1 5500   2.081   3.321   4.891
 1763WAT     H2 5501   2.047   3.468   4.894
 1764WAT      O 5502   1.882   2.501   4.202
 1764WAT     H1 5503   1.791   2.513   4.229
 1764WAT     H2 5504   1.878   2.443   4.126
 1765WAT      O 5505   1.562   2.663   4.810
 1765WAT     H1 5506   1.642   2.618   4.835
 1765WAT     H2 5507   1.587   2.715   4.733
 1766WAT      O 5508   2.595   3.630   4.667
 1766WAT     H1 5509   2.531   3.652   4.599
 1766WAT     H2 5510   2.663   3.697   4.657
 1767WAT      O 5511   2.500   3.165   4.841
 1767WAT     H1 5512   2.535   3.081   4.813
 1767WAT     H2 5513   2.571   3.206   4.891
 1768WAT      O 5514   1.721   2.282   5.039
 1768WAT     H1 5515   1.716   2.190   5.066
 1768WAT     H2 5516   1.648   2.325   5.085
 1769WAT      O 5517   2.657   2.458   4.806
 1769WAT     H1 5518   2.700   2.382   4.846
 1769WAT     H2 5519   2.683   2.454   4.714
 1770WAT      O 5520   3.037   2.289   4.531
 1770WAT     H1 5521   3.101   2.219   4.541
 1770WAT     H2 5522   3.035   2.332   4.616
 1771WAT      O 5523   1.787   2.532   4.919
 1771WAT     H1 5524   1.875   2.540   4.956
 1771WAT     H2 5525   1.758   2.445   4.946
 1772WAT      O 5526   2.227   2.587   4.861
 1772WAT     H1 5527   2.278   2.668   4.862
 1772WAT     H2 5528   2.281   2.525   4.812
 1773WAT      O 5529   3.401   2.422   5.175
 1773WAT     H1 5530   3.345   2.498   5.161
 1773WAT     H2 5531   3.459   2.447   5.247
 1774WAT      O 5532   2.073   2.057   5.204
 1774WAT     H1 5533   2.055   2.128   5.143
 1774WAT     H2 5534   1.999   1.996   5.194
 1775WAT      O 5535   2.731   3.142   4.453
 1775WAT     H1 5536   2.655   3.102   4.411
 1775WAT     H2 5537   2.708   3.234   4.461
 1776WAT      O 5538   2.191   3.060   5.050
 1776WAT     H1 5539   2.153   3.117   5.117
 1776WAT     H2 5540   2.211   3.118   4.977
 1777WAT      O 5541   3.050   2.387   4.795
 1777WAT     H1 5542   2.969   2.394   4.847
 1777WAT     H2 5543   3.082   2.477   4.790
 1778WAT      O 5544   1.997   2.260   5.043
 1778WAT     H1 5545   2.027   2.351   5.044
 1778WAT     H2 5546   1.902   2.267   5.035
 1779WAT      O 5547   2.115   3.262   5.226
 1779WAT     H1 5548   2.177   3.328   5.195
 1779WAT     H2 5549   2.029   3.300   5.208
 1780WAT      O 5550   1.632   3.133   4.144
 1780WAT     H1 5551   1.597   3.187   4.072
 1780WAT     H2 5552   1.644   3.195   4.216
 1781WAT      O 5553   3.140   3.381   5.019
 1781WAT     H1 5554   3.112   3.460   5.066
 1781WAT     H2 5555   3.178   3.415   4.938
 1782WAT      O 5556   3.318   2.316   4.854
 1782WAT     H1 5557   3.223   2.324   4.845
 1782WAT     H2 5558   3.338   2.363   4.935
 1783WAT      O 5559   2.366   2.024   4.659
 1783WAT     H1 5560   2.385   1.947   4.606
 1783WAT     H2 5561   2.271   2.030   4.660
 1784WAT      O 5562   2.923   3.591   4.862
 1784WAT     H1 5563   2.944   3.528   4.793
 1784WAT     H2 5564   2.854   3.646   4.824
 1785WAT      O 5565   3.086   3.242   4.384
 1785WAT     H1 5566   3.083   3.153   4.418
 1785WAT     H2 5567   3.032   3.293   4.445
 1786WAT      O 5568   2.916   3.045   5.020
 1786WAT     H1 5569   2.981   3.027   4.952
 1786WAT     H2 5570   2.964   3.097   5.085
 1787WAT      O 5571   3.261   2.891   5.054
 1787WAT     H1 5572   3.204   2.919   4.982
 1787WAT     H2 5573   3.344   2.936   5.037
 1788WAT      O 5574   3.027   2.981   4.456
 1788WAT     H1 5575   2.936   3.001   4.436
 1788WAT     H2 5576   3.024   2.928   4.536
 1789WAT      O 5577   2.967   2.583   5.179
 1789WAT     H1 5578   2.928   2.670   5.185
 1789WAT     H2 5579   2.894   2.525   5.160
 1790WAT      O 5580   2.236   3.233   4.837
 1790WAT     H1 5581   2.199   3.184   4.764
 1790WAT     H2 5582   2.330   3.216   4.832
 1791WAT      O 5583   2.035   2.535   5.039
 1791WAT     H1 5584   2.099   2.553   4.970
 1791WAT     H2 5585   2.068   2.582   5.116
 1792WAT      O 5586   3.042   3.566   5.201
 1792WAT     H1 5587   2.995   3.643   5.170
 1792WAT     H2 5588   2.974   3.511   5.241
 1793WAT      O 5589   2.153   3.209   5.494
 1793WAT     H1 5590   2.118   3.122   5.513
 1793WAT     H2 5591   2.137   3.221   5.401
 1794WAT      O 5592   2.911   2.911   4.013
 1794WAT     H1 5593   2.933   2.930   3.922
 1794WAT     H2 5594   2.964   2.972   4.064
 1795WAT      O 5595   2.003   2.894   5.325
 1795WAT     H1 5596   1.959   2.978   5.333
 1795WAT     H2 5597   1.933   2.833   5.299
 1796WAT      O 5598   2.656   3.407   4.500
 1796WAT     H1 5599   2.727   3.461   4.466
 1796WAT     H2 5600   2.625   3.454   4.577
 1797WAT      O 5601   2.199   3.473   5.596
 1797WAT     H1 5602   2.205   3.522   5.514
 1797WAT     H2 5603   2.185   3.382   5.569
 1798WAT      O 5604   1.790   2.785   4.389
 1798WAT     H1 5605   1.815   2.849   4.321
 1798WAT     H2 5606   1.841   2.707   4.368
 1799WAT      O 5607   1.613   3.031   4.992
 1799WAT     H1 5608   1.588   3.047   4.901
 1799WAT     H2 5609   1.682   2.964   4.986
 1800WAT      O 5610   1.709   3.215   4.596
 1800WAT     H1 5611   1.693   3.242   4.506
 1800WAT     H2 5612   1.798   3.181   4.596
 1801WAT      O 5613   3.328   3.245   5.375
 1801WAT     H1 5614   3.402   3.250   5.314
 1801WAT     H2 5615   3.292   3.157   5.362
 1802WAT      O 5616   2.680   3.612   5.287
 1802WAT     H1 5617   2.731   3.603   5.368
 1802WAT     H2 5618   2.599   3.656   5.315
 1803WAT      O 5619   2.908   3.706   4.238
 1803WAT     H1 5620   2.898   3.669   4.326
 1803WAT     H2 5621   2.887   3.634   4.179
 1804WAT      O 5622   2.158   3.614   4.383
 1804WAT     H1 5623   2.142   3.524   4.411
 1804WAT     H2 5624   2.077   3.661   4.405
 1805WAT      O 5625   2.828   3.499   4.082
 1805WAT     H1 5626   2.741   3.464   4.062
 1805WAT     H2 5627   2.889   3.439   4.040
 1806WAT      O 5628   2.873   3.590   4.489
 1806WAT     H1 5629   2.926   3.532   4.543
 1806WAT     H2 5630   2.863   3.670   4.541
 1807WAT      O 5631   3.311   2.504   5.503
 1807WAT     H1 5632   3.293   2.597   5.490
 1807WAT     H2 5633   3.228   2.461   5.485
 1808WAT      O 5634   1.663   3.209   5.197
 1808WAT     H1 5635   1.641   3.152   5.123
 1808WAT     H2 5636   1.720   3.155   5.252
 1809WAT      O 5637   2.104   2.112   4.755
 1809WAT     H1 5638   2.044   2.183   4.733
 1809WAT     H2 5639   2.159   2.148   4.824
 1810WAT      O 5640   2.512   2.384   5.269
 1810WAT     H1 5641   2.456   2.390   5.346
 1810WAT     H2 5642   2.483   2.303   5.226
 1811WAT      O 5643   3.057   2.428   5.394
 1811WAT     H1 5644   2.976   2.407   5.441
 1811WAT     H2 5645   3.031   2.492   5.328
 1812WAT      O 5646   2.766   2.625   5.542
 1812WAT     H1 5647   2.782   2.530   5.544
 1812WAT     H2 5648   2.851   2.664   5.560
 1813WAT      O 5649   2.342   2.182   4.886
 1813WAT     H1 5650   2.354   2.268   4.846
 1813WAT     H2 5651   2.370   2.120   4.819
 1814WAT      O 5652   2.780   2.601   4.331
 1814WAT     H1 5653   2.780   2.678   4.389
 1814WAT     H2 5654   2.830   2.629   4.255
 1815WAT      O 5655   2.298   2.662   5.548
 1815WAT     H1 5656   2.303   2.569   5.525
 1815WAT     H2 5657   2.387   2.694   5.539
 1816WAT      O 5658   2.722   2.443   4.549
 1816WAT     H1 5659   2.741   2.482   4.464
 1816WAT     H2 5660   2.734   2.349   4.535
 1817WAT      O 5661   1.875   2.310   5.387
 1817WAT     H1 5662   1.817   2.382   5.361
 1817WAT     H2 5663   1.818   2.234   5.391
 1818WAT      O 5664   1.563   2.100   4.733
 1818WAT     H1 5665   1.529   2.164   4.795
 1818WAT     H2 5666   1.625   2.048   4.783
 1819WAT      O 5667   1.599   2.470   3.860
 1819WAT     H1 5668   1.586   2.552   3.908
 1819WAT     H2 5669   1.529   2.469   3.794
 1820WAT      O 5670   2.679   2.683   4.963
 1820WAT     H1 5671   2.615   2.671   5.033
 1820WAT     H2 5672   2.672   2.604   4.910
 1821WAT      O 5673   2.394   2.407   4.737
 1821WAT     H1 5674   2.397   2.376   4.646
 1821WAT     H2 5675   2.484   2.431   4.757
 1822WAT      O 5676   1.940   2.309   4.667
 1822WAT     H1 5677   1.935   2.395   4.707
 1822WAT     H2 5678   1.854   2.296   4.626
 1823WAT      O 5679   2.795   2.252   4.923
 1823WAT     H1 5680   2.791   2.296   5.008
 1823WAT     H2 5681   2.745   2.171   4.936
 1824WAT      O 5682   3.060   1.919   5.466
 1824WAT     H1 5683   3.138   1.922   5.520
 1824WAT     H2 5684   3.093   1.930   5.376
 1825WAT      O 5685   1.812   3.087   5.397
 1825WAT     H1 5686   1.760   3.018   5.440
 1825WAT     H2 5687   1.828   3.151   5.466
 1826WAT      O 5688   2.370   2.819   4.955
 1826WAT     H1 5689   2.389   2.765   5.032
 1826WAT     H2 5690   2.301   2.878   4.984
 1827WAT      O 5691   1.696   2.251   4.550
 1827WAT     H1 5692   1.653   2.191   4.610
 1827WAT     H2 5693   1.696   2.205   4.466
 1828WAT      O 5694   2.161   2.677   5.242
 1828WAT     H1 5695   2.138   2.766   5.266
 1828WAT     H2 5696   2.257   2.679   5.232
 1829WAT      O 5697   2.009   3.138   4.305
 1829WAT     H1 5698   1.934   3.085   4.282
 1829WAT     H2 5699   2.075   3.075   4.335
 1830WAT      O 5700   3.129   2.992   4.838
 1830WAT     H1 5701   3.205   3.029   4.794
 1830WAT     H2 5702   3.090   2.933   4.774
 1831WAT      O 5703   2.662   2.186   4.270
 1831WAT     H1 5704   2.606   2.118   4.230
 1831WAT     H2 5705   2.605   2.262   4.277
 1832WAT      O 5706   2.659   2.999   5.462
 1832WAT     H1 5707   2.641   2.912   5.425
 1832WAT     H2 5708   2.574   3.029   5.494
 1833WAT      O 5709   2.110   3.090   4.644
 1833WAT     H1 5710   2.134   3.028   4.575
 1833WAT     H2 5711   2.060   3.038   4.706
 1834WAT      O 5712   2.513   3.166   4.134
 1834WAT     H1 5713   2.542   3.254   4.110
 1834WAT     H2 5714   2.476   3.177   4.222
 1835WAT      O 5715   1.760   2.768   5.269
 1835WAT     H1 5716   1.721   2.812   5.345
 1835WAT     H2 5717   1.748   2.675   5.288
 1836WAT      O 5718   2.104   2.865   5.583
 1836WAT     H1 5719   2.068   2.863   5.495
 1836WAT     H2 5720   2.167   2.794   5.585
 1837WAT      O 5721   2.662   3.261   5.379
 1837WAT     H1 5722   2.670   3.168   5.403
 1837WAT     H2 5723   2.573   3.284   5.404
 1838WAT      O 5724   3.218   3.004   5.297
 1838WAT     H1 5725   3.145   3.063   5.278
 1838WAT     H2 5726   3.238   2.963   5.212
 1839WAT      O 5727   3.281   3.415   4.280
 1839WAT     H1 5728   3.213   3.355   4.311
 1839WAT     H2 5729   3.251   3.441   4.193
 1840WAT      O 5730   2.855   3.162   4.696
 1840WAT     H1 5731   2.810   3.150   4.612
 1840WAT     H2 5732   2.819   3.094   4.753
 1841WAT      O 5733   2.445   3.254   4.383
 1841WAT     H1 5734   2.500   3.317   4.429
 1841WAT     H2 5735   2.357   3.270   4.417
 1842WAT      O 5736   1.574   2.718   3.977
 1842WAT     H1 5737   1.667   2.725   3.996
 1842WAT     H2 5738   1.550   2.804   3.944
 1843WAT      O 5739   2.556   3.460   5.088
 1843WAT     H1 5740   2.604   3.502   5.160
 1843WAT     H2 5741   2.609   3.384   5.065
 1844WAT      O 5742   1.943   1.841   4.508
 1844WAT     H1 5743   1.953   1.850   4.603
 1844WAT     H2 5744   1.850   1.825   4.495
 1845WAT      O 5745   2.725   3.254   4.982
 1845WAT     H1 5746   2.774   3.176   5.008
 1845WAT     H2 5747   2.789   3.307   4.933
 1846WAT      O 5748   3.016   3.321   3.965
 1846WAT     H1 5749   3.030   3.239   4.012
 1846WAT     H2 5750   2.952   3.299   3.898
 1847WAT      O 5751   2.906   3.372   5.361
 1847WAT     H1 5752   2.894   3.449   5.416
 1847WAT     H2 5753   2.820   3.331   5.358
 1848WAT      O 5754   1.701   3.695   4.032
 1848WAT     H1 5755   1.726   3.777   3.989
 1848WAT     H2 5756   1.633   3.720   4.094
 1849WAT      O 5757   1.683   2.118   5.396
 1849WAT     H1 5758   1.599   2.137   5.438
 1849WAT     H2 5759   1.719   2.044   5.446
 1850WAT      O 5760   3.065   3.108   4.136
 1850WAT     H1 5761   3.059   3.161   4.216
 1850WAT     H2 5762   3.146   3.057   4.147
 1851WAT      O 5763   1.657   3.537   5.460
 1851WAT     H1 5764   1.655   3.454   5.507
 1851WAT     H2 5765   1.573   3.543   5.417
 1852WAT      O 5766   2.279   3.405   4.074
 1852WAT     H1 5767   2.260   3.483   4.021
 1852WAT     H2 5768   2.195   3.383   4.114
 1853WAT      O 5769   1.838   2.955   4.165
 1853WAT     H1 5770   1.763   3.014   4.151
 1853WAT     H2 5771   1.900   2.979   4.097
 1854WAT      O 5772   2.770   2.383   5.164
 1854WAT     H1 5773   2.810   2.309   5.209
 1854WAT     H2 5774   2.682   2.389   5.201
 1855WAT      O 5775   2.547   3.429   4.032
 1855WAT     H1 5776   2.553   3.415   3.937
 1855WAT     H2 5777   2.454   3.419   4.051
 1856WAT      O 5778   2.450   2.654   5.174
 1856WAT     H1 5779   2.509   2.696   5.236
 1856WAT     H2 5780   2.461   2.560   5.191
 1857WAT      O 5781   2.789   2.164   4.513
 1857WAT     H1 5782   2.755   2.162   4.423
 1857WAT     H2 5783   2.877   2.199   4.505
 1858WAT      O 5784   2.413   3.686   4.464
 1858WAT     H1 5785   2.463   3.675   4.383
 1858WAT     H2 5786   2.324   3.658   4.441
 1859WAT      O 5787   3.186   2.248   5.234
 1859WAT     H1 5788   3.143   2.307   5.296
 1859WAT     H2 5789   3.265   2.293   5.207
 1860WAT      O 5790   3.026   2.807   4.664
 1860WAT     H1 5791   2.939   2.770   4.652
 1860WAT     H2 5792   3.081   2.733   4.688
 1861WAT      O 5793   2.038   2.978   3.975
 1861WAT     H1 5794   2.116   2.956   4.026
 1861WAT     H2 5795   2.048   2.929   3.893
 1862WAT      O 5796   1.839   2.714   4.030
 1862WAT     H1 5797   1.866   2.642   4.087
 1862WAT     H2 5798   1.851   2.792   4.084
 1863WAT      O 5799   3.243   3.507   4.785
 1863WAT     H1 5800   3.273   3.575   4.845
 1863WAT     H2 5801   3.323   3.478   4.740
 1864WAT      O 5802   2.005   3.748   4.822
 1864WAT     H1 5803   2.082   3.693   4.834
 1864WAT     H2 5804   2.039   3.828   4.780
 1865WAT      O 5805   1.660   3.318   4.342
 1865WAT     H1 5806   1.572   3.353   4.338
 1865WAT     H2 5807   1.716   3.389   4.310
 1866WAT      O 5808   2.247   3.618   3.910
 1866WAT     H1 5809   2.322   3.676   3.895
 1866WAT     H2 5810   2.248   3.558   3.835
 1867WAT      O 5811   2.866   3.602   5.498
 1867WAT     H1 5812   2.934   3.667   5.483
 1867WAT     H2 5813   2.842   3.613   5.590
 1868WAT      O 5814   3.197   3.513   4.034
 1868WAT     H1 5815   3.129   3.453   4.003
 1868WAT     H2 5816   3.173   3.597   3.996
 1869WAT      O 5817   1.669   2.879   5.511
 1869WAT     H1 5818   1.705   2.844   5.593
 1869WAT     H2 5819   1.575   2.861   5.517
 1870WAT      O 5820   2.378   3.165   3.885
 1870WAT     H1 5821   2.410   3.152   3.974
 1870WAT     H2 5822   2.285   3.188   3.895
 1871WAT      O 5823   2.411   3.102   5.485
 1871WAT     H1 5824   2.330   3.146   5.511
 1871WAT     H2 5825   2.389   3.058   5.403
 1872WAT      O 5826   2.688   3.060   3.948
 1872WAT     H1 5827   2.628   3.079   4.019
 1872WAT     H2 5828   2.751   2.999   3.986
 1873WAT      O 5829   3.070   3.205   5.513
 1873WAT     H1 5830   3.160   3.232   5.495
 1873WAT     H2 5831   3.016   3.271   5.469
 1874WAT      O 5832   1.961   2.577   5.418
 1874WAT     H1 5833   1.975   2.483   5.416
 1874WAT     H2 5834   2.035   2.614   5.369
 1875WAT      O 5835   2.932   2.976   5.448
 1875WAT     H1 5836   2.981   3.052   5.479
 1875WAT     H2 5837   2.840   2.996   5.469
 1876WAT      O 5838   3.014   2.737   5.549
 1876WAT     H1 5839   3.103   2.731   5.514
 1876WAT     H2 5840   2.983   2.823   5.523
 1877WAT      O 5841   2.126   2.209   5.424
 1877WAT     H1 5842   2.123   2.149   5.349
 1877WAT     H2 5843   2.040   2.251   5.425
 1878WAT      O 5844   2.414   2.157   5.144
 1878WAT     H1 5845   2.379   2.170   5.056
 1878WAT     H2 5846   2.348   2.104   5.189
 1879WAT      O 5847   2.378   2.989   5.239
 1879WAT     H1 5848   2.458   2.991   5.187
 1879WAT     H2 5849   2.309   3.010   5.177
 1880WAT      O 5850   2.645   2.749   5.338
 1880WAT     H1 5851   2.680   2.702   5.413
 1880WAT     H2 5852   2.722   2.774   5.287
 1881WAT      O 5853   2.874   2.839   5.214
 1881WAT     H1 5854   2.876   2.901   5.141
 1881WAT     H2 5855   2.905   2.890   5.289
 1882WAT      O 5856   2.196   3.608   5.349
 1882WAT     H1 5857   2.100   3.613   5.344
 1882WAT     H2 5858   2.221   3.559   5.270
 1883WAT      O 5859   2.334   2.384   5.485
 1883WAT     H1 5860   2.364   2.335   5.561
 1883WAT     H2 5861   2.259   2.335   5.453
 1884WAT      O 5862   2.798   2.356   5.495
 1884WAT     H1 5863   2.713   2.356   5.450
 1884WAT     H2 5864   2.813   2.265   5.520
 1885WAT      O 5865   2.449   3.733   5.366
 1885WAT     H1 5866   2.428   3.817   5.408
 1885WAT     H2 5867   2.366   3.687   5.361
 1886WAT      O 5868   2.531   3.665   4.214
 1886WAT     H1 5869   2.616   3.702   4.192
 1886WAT     H2 5870   2.526   3.585   4.162
 1887WAT      O 5871   1.924   3.224   3.935
 1887WAT     H1 5872   1.958   3.276   4.008
 1887WAT     H2 5873   1.966   3.139   3.945
 1888WAT      O 5874   1.625   3.468   4.675
 1888WAT     H1 5875   1.660   3.380   4.668
 1888WAT     H2 5876   1.645   3.494   4.765
 1889WAT      O 5877   2.156   3.314   4.471
 1889WAT     H1 5878   2.147   3.257   4.547
 1889WAT     H2 5879   2.110   3.267   4.401
 1890WAT      O 5880   1.609   3.602   4.921
 1890WAT     H1 5881   1.586   3.621   5.011
 1890WAT     H2 5882   1.660   3.678   4.892
 1891WAT      O 5883   3.288   3.515   5.333
 1891WAT     H1 5884   3.204   3.536   5.293
 1891WAT     H2 5885   3.287   3.420   5.344
 1892WAT      O 5886   3.393   3.257   3.970
 1892WAT     H1 5887   3.304   3.283   3.946
 1892WAT     H2 5888   3.445   3.336   3.954
 1893WAT      O 5889   3.295   2.970   4.183
 1893WAT     H1 5890   3.379   3.017   4.190
 1893WAT     H2 5891   3.295   2.910   4.258
 1894WAT      O 5892   1.595   2.819   4.576
 1894WAT     H1 5893   1.523   2.820   4.513
 1894WAT     H2 5894   1.673   2.807   4.523
 1895WAT      O 5895   3.418   3.034   4.720
 1895WAT     H1 5896   3.445   2.954   4.675
 1895WAT     H2 5897   3.468   3.104   4.677
 1896WAT      O 5898   3.050   3.199   5.196
 1896WAT     H1 5899   3.000   3.258   5.252
 1896WAT     H2 5900   3.093   3.257   5.133
 1897WAT      O 5901   3.380   2.966   3.919
 1897WAT     H1 5902   3.394   3.059   3.901
 1897WAT     H2 5903   3.331   2.964   4.001
 1898WAT      O 5904   3.270   2.811   4.409
 1898WAT     H1 5905   3.242   2.720   4.405
 1898WAT     H2 5906   3.190   2.860   4.429
 1899WAT      O 5907   1.791   2.822   5.002
 1899WAT     H1 5908   1.783   2.807   5.097
 1899WAT     H2 5909   1.776   2.736   4.963
 1900WAT      O 5910   3.260   2.758   5.410
 1900WAT     H1 5911   3.260   2.712   5.326
 1900WAT     H2 5912   3.244   2.849   5.388
 1901WAT      O 5913   1.683   2.515   5.385
 1901WAT     H1 5914   1.605   2.509   5.441
 1901WAT     H2 5915   1.752   2.546   5.444
 1902WAT      O 5916   1.612   2.559   4.215
 1902WAT     H1 5917   1.537   2.555   4.274
 1902WAT     H2 5918   1.581   2.611   4.141
 1903WAT      O 5919   3.213   2.612   4.739
 1903WAT     H1 5920   3.258   2.557   4.675
 1903WAT     H2 5921   3.283   2.652   4.790
 1904WAT      O 5922   3.236   2.638   5.158
 1904WAT     H1 5923   3.142   2.619   5.154
 1904WAT     H2 5924   3.246   2.720   5.110
 1905WAT      O 5925   1.841   2.376   3.961
 1905WAT     H1 5926   1.883   2.344   3.880
 1905WAT     H2 5927   1.754   2.404   3.933
 1906WAT      O 5928   3.221   2.535   4.396
 1906WAT     H1 5929   3.278   2.495   4.461
 1906WAT     H2 5930   3.145   2.477   4.392
 1907WAT      O 5931   1.754   1.955   4.872
 1907WAT     H1 5932   1.839   1.926   4.840
 1907WAT     H2 5933   1.771   1.985   4.961
 1908WAT      O 5934   3.368   2.420   4.598
 1908WAT     H1 5935   3.356   2.376   4.682
 1908WAT     H2 5936   3.448   2.381   4.562
 1909WAT      O 5937   3.181   1.974   5.219
 1909WAT     H1 5938   3.190   2.070   5.213
 1909WAT     H2 5939   3.151   1.948   5.132
 1910WAT      O 5940   3.169   3.697   4.590
 1910WAT     H1 5941   3.228   3.677   4.517
 1910WAT     H2 5942   3.184   3.625   4.652
 1911WAT      O 5943   1.730   2.021   5.144
 1911WAT     H1 5944   1.724   2.060   5.231
 1911WAT     H2 5945   1.674   1.943   5.148
 1912WAT      O 5946   2.277   3.465   5.127
 1912WAT     H1 5947   2.249   3.498   5.042
 1912WAT     H2 5948   2.372   3.458   5.119
 1913WAT      O 5949   2.531   2.085   5.462
 1913WAT     H1 5950   2.462   2.090   5.528
 1913WAT     H2 5951   2.612   2.080   5.512
 1914WAT      O 5952   2.827   2.083   5.499
 1914WAT     H1 5953   2.835   2.106   5.406
 1914WAT     H2 5954   2.901   2.025   5.516
 1915WAT      O 5955   3.409   3.700   5.169
 1915WAT     H1 5956   3.334   3.758   5.178
 1915WAT     H2 5957   3.387   3.624   5.224
 1916WAT      O 5958   1.787   1.902   5.512
 1916WAT     H1 5959   1.855   1.867   5.455
 1916WAT     H2 5960   1.736   1.825   5.539
 1917WAT      O 5961   1.910   3.588   5.329
 1917WAT     H1 5962   1.826   3.575   5.373
 1917WAT     H2 5963   1.910   3.525   5.257
 1918WAT      O 5964   2.840   1.912   5.144
 1918WAT     H1 5965   2.778   1.950   5.082
 1918WAT     H2 5966   2.790   1.843   5.188
 1919WAT      O 5967   2.906   2.157   5.244
 1919WAT     H1 5968   2.893   2.071   5.205
 1919WAT     H2 5969   2.999   2.176   5.231
 1920WAT      O 5970   3.105   3.770   4.969
 1920WAT     H1 5971   3.074   3.841   4.912
 1920WAT     H2 5972   3.050   3.696   4.947
 1921WAT      O 5973   1.878   3.382   5.155
 1921WAT     H1 5974   1.795   3.335   5.154
 1921WAT     H2 5975   1.907   3.382   5.064
 1922WAT      O 5976   2.228   3.575   4.863
 1922WAT     H1 5977   2.256   3.506   4.803
 1922WAT     H2 5978   2.307   3.626   4.879
 1923WAT      O 5979   2.487   3.664   4.915
 1923WAT     H1 5980   2.529   3.646   4.831
 1923WAT     H2 5981   2.517   3.594   4.973
 1924WAT      O 5982   2.626   2.029   5.007
 1924WAT     H1 5983   2.565   2.074   5.064
 1924WAT     H2 5984   2.575   1.957   4.969
 1925WAT      O 5985   2.995   2.071   4.806
 1925WAT     H1 5986   3.063   2.097   4.744
 1925WAT     H2 5987   2.951   2.153   4.829
 1926WAT      O 5988   3.199   2.089   4.619
 1926WAT     H1 5989   3.181   1.995   4.606
 1926WAT     H2 5990   3.290   2.092   4.646
 1927WAT      O 5991   1.708   3.641   4.474
 1927WAT     H1 5992   1.688   3.585   4.549
 1927WAT     H2 5993   1.622   3.668   4.441
 1928WAT      O 5994   2.387   2.251   4.499
 1928WAT     H1 5995   2.300   2.228   4.465
 1928WAT     H2 5996   2.411   2.177   4.554
 1929WAT      O 5997   2.813   1.919   4.658
 1929WAT     H1 5998   2.883   1.954   4.714
 1929WAT     H2 5999   2.786   1.994   4.605
 1930WAT      O 6000   1.814   3.528   4.245
 1930WAT     H1 6001   1.792   3.589   4.174
 1930WAT     H2 6002   1.793   3.577   4.325
 1931WAT      O 6003   2.134   2.137   4.449
 1931WAT     H1 6004   2.089   2.054   4.433
 1931WAT     H2 6005   2.083   2.181   4.517
 1932WAT      O 6006   3.333   3.668   4.370
 1932WAT     H1 6007   3.318   3.580   4.336
 1932WAT     H2 6008   3.285   3.725   4.310
 1933WAT      O 6009   2.296   2.091   5.605
 1933WAT     H1 6010   2.231   2.128   5.546
 1933WAT     H2 6011   2.253   2.016   5.646
 1934WAT      O 6012   2.110   3.739   4.122
 1934WAT     H1 6013   2.162   3.700   4.051
 1934WAT     H2 6014   2.136   3.691   4.200
 1935WAT      O 6015   2.017   3.362   4.155
 1935WAT     H1 6016   1.951   3.422   4.191
 1935WAT     H2 6017   2.013   3.285   4.212
 1936WAT      O 6018   1.963   2.968   3.017
 1936WAT     H1 6019   1.899   2.914   3.063
 1936WAT     H2 6020   2.031   2.986   3.083
 1937WAT      O 6021   2.026   3.383   3.048
 1937WAT     H1 6022   2.087   3.317   3.014
 1937WAT     H2 6023   2.064   3.467   3.022
 1938WAT      O 6024   1.814   2.473   2.378
 1938WAT     H1 6025   1.718   2.483   2.378
 1938WAT     H2 6026   1.835   2.443   2.289
 1939WAT      O 6027   1.592   2.675   2.941
 1939WAT     H1 6028   1.662   2.610   2.951
 1939WAT     H2 6029   1.613   2.719   2.859
 1940WAT      O 6030   2.577   3.606   2.788
 1940WAT     H1 6031   2.517   3.640   2.722
 1940WAT     H2 6032   2.662   3.645   2.766
 1941WAT      O 6033   1.728   2.290   3.175
 1941WAT     H1 6034   1.708   2.200   3.201
 1941WAT     H2 6035   1.672   2.344   3.231
 1942WAT      O 6036   2.614   2.408   2.943
 1942WAT     H1 6037   2.673   2.359   3.000
 1942WAT     H2 6038   2.663   2.418   2.861
 1943WAT      O 6039   2.027   2.338   2.485
 1943WAT     H1 6040   2.059   2.403   2.548
 1943WAT     H2 6041   1.943   2.372   2.456
 1944WAT      O 6042   3.025   2.249   2.624
 1944WAT     H1 6043   3.087   2.191   2.668
 1944WAT     H2 6044   3.005   2.316   2.690
 1945WAT      O 6045   1.796   2.497   3.006
 1945WAT     H1 6046   1.879   2.525   3.045
 1945WAT     H2 6047   1.768   2.422   3.059
 1946WAT      O 6048   2.251   2.648   2.958
 1946WAT     H1 6049   2.332   2.685   2.992
 1946WAT     H2 6050   2.276   2.561   2.926
 1947WAT      O 6051   3.472   2.440   3.352
 1947WAT     H1 6052   3.413   2.492   3.297
 1947WAT     H2 6053   3.489   2.497   3.428
 1948WAT      O 6054   2.113   2.074   3.330
 1948WAT     H1 6055   2.083   2.147   3.276
 1948WAT     H2 6056   2.033   2.031   3.359
 1949WAT      O 6057   2.172   3.058   3.177
 1949WAT     H1 6058   2.154   3.123   3.246
 1949WAT     H2 6059   2.203   3.110   3.103
 1950WAT      O 6060   3.038   2.369   2.906
 1950WAT     H1 6061   2.949   2.370   2.942
 1950WAT     H2 6062   3.061   2.462   2.897
 1951WAT      O 6063   2.006   2.276   3.180
 1951WAT     H1 6064   2.033   2.365   3.159
 1951WAT     H2 6065   1.910   2.279   3.177
 1952WAT      O 6066   2.113   3.271   3.348
 1952WAT     H1 6067   2.172   3.340   3.317
 1952WAT     H2 6068   2.025   3.303   3.330
 1953WAT      O 6069   1.630   3.125   2.273
 1953WAT     H1 6070   1.601   3.179   2.200
 1953WAT     H2 6071   1.645   3.187   2.344
 1954WAT      O 6072   3.303   2.305   2.967
 1954WAT     H1 6073   3.209   2.313   2.951
 1954WAT     H2 6074   3.322   2.368   3.036
 1955WAT      O 6075   2.366   2.014   2.767
 1955WAT     H1 6076   2.386   1.943   2.705
 1955WAT     H2 6077   2.271   2.022   2.764
 1956WAT      O 6078   2.616   2.809   2.451
 1956WAT     H1 6079   2.534   2.845   2.485
 1956WAT     H2 6080   2.629   2.855   2.368
 1957WAT      O 6081   2.602   2.401   2.183
 1957WAT     H1 6082   2.515   2.426   2.211
 1957WAT     H2 6083   2.655   2.479   2.195
 1958WAT      O 6084   2.184   2.819   2.733
 1958WAT     H1 6085   2.138   2.749   2.688
 1958WAT     H2 6086   2.207   2.782   2.819
 1959WAT      O 6087   2.222   3.205   2.937
 1959WAT     H1 6088   2.158   3.156   2.886
 1959WAT     H2 6089   2.301   3.205   2.883
 1960WAT      O 6090   2.041   2.551   3.121
 1960WAT     H1 6091   2.104   2.583   3.056
 1960WAT     H2 6092   2.061   2.601   3.200
 1961WAT      O 6093   2.120   3.261   3.623
 1961WAT     H1 6094   2.027   3.276   3.644
 1961WAT     H2 6095   2.121   3.248   3.528
 1962WAT      O 6096   1.986   2.891   3.484
 1962WAT     H1 6097   1.968   2.985   3.488
 1962WAT     H2 6098   1.903   2.851   3.458
 1963WAT      O 6099   2.603   3.353   2.679
 1963WAT     H1 6100   2.699   3.353   2.668
 1963WAT     H2 6101   2.584   3.435   2.724
 1964WAT      O 6102   2.284   3.464   3.689
 1964WAT     H1 6103   2.260   3.522   3.616
 1964WAT     H2 6104   2.233   3.384   3.674
 1965WAT      O 6105   3.172   1.945   2.063
 1965WAT     H1 6106   3.164   1.940   2.158
 1965WAT     H2 6107   3.243   2.008   2.048
 1966WAT      O 6108   1.834   2.728   2.505
 1966WAT     H1 6109   1.839   2.799   2.441
 1966WAT     H2 6110   1.828   2.649   2.451
 1967WAT      O 6111   3.503   3.525   3.943
 1967WAT     H1 6112   3.515   3.591   4.011
 1967WAT     H2 6113   3.417   3.543   3.906
 1968WAT      O 6114   1.608   3.046   3.121
 1968WAT     H1 6115   1.589   3.057   3.028
 1968WAT     H2 6116   1.676   2.979   3.125
 1969WAT      O 6117   1.715   3.220   2.722
 1969WAT     H1 6118   1.697   3.247   2.632
 1969WAT     H2 6119   1.806   3.191   2.720
 1970WAT      O 6120   2.152   3.627   2.506
 1970WAT     H1 6121   2.126   3.537   2.527
 1970WAT     H2 6122   2.075   3.680   2.526
 1971WAT      O 6123   1.652   3.222   3.333
 1971WAT     H1 6124   1.634   3.165   3.258
 1971WAT     H2 6125   1.714   3.172   3.386
 1972WAT      O 6126   2.099   2.116   2.850
 1972WAT     H1 6127   2.057   2.199   2.828
 1972WAT     H2 6128   2.157   2.137   2.923
 1973WAT      O 6129   2.509   2.282   3.429
 1973WAT     H1 6130   2.450   2.356   3.420
 1973WAT     H2 6131   2.469   2.213   3.376
 1974WAT      O 6132   2.389   2.047   2.338
 1974WAT     H1 6133   2.314   2.059   2.396
 1974WAT     H2 6134   2.412   1.955   2.347
 1975WAT      O 6135   2.327   2.161   3.003
 1975WAT     H1 6136   2.340   2.251   2.973
 1975WAT     H2 6137   2.367   2.107   2.935
 1976WAT      O 6138   2.047   2.597   2.637
 1976WAT     H1 6139   2.002   2.536   2.695
 1976WAT     H2 6140   1.977   2.646   2.594
 1977WAT      O 6141   2.754   2.569   2.492
 1977WAT     H1 6142   2.706   2.651   2.480
 1977WAT     H2 6143   2.818   2.569   2.421
 1978WAT      O 6144   2.275   2.634   3.721
 1978WAT     H1 6145   2.220   2.581   3.663
 1978WAT     H2 6146   2.363   2.627   3.684
 1979WAT      O 6147   2.747   2.404   2.708
 1979WAT     H1 6148   2.747   2.467   2.636
 1979WAT     H2 6149   2.735   2.319   2.666
 1980WAT      O 6150   1.881   2.365   3.524
 1980WAT     H1 6151   1.813   2.431   3.535
 1980WAT     H2 6152   1.833   2.283   3.512
 1981WAT      O 6153   1.575   2.108   2.849
 1981WAT     H1 6154   1.539   2.170   2.912
 1981WAT     H2 6155   1.628   2.049   2.901
 1982WAT      O 6156   1.604   2.479   1.981
 1982WAT     H1 6157   1.592   2.560   2.030
 1982WAT     H2 6158   1.533   2.477   1.918
 1983WAT      O 6159   2.354   2.409   2.880
 1983WAT     H1 6160   2.354   2.371   2.792
 1983WAT     H2 6161   2.446   2.416   2.904
 1984WAT      O 6162   1.904   2.406   2.768
 1984WAT     H1 6163   1.862   2.435   2.849
 1984WAT     H2 6164   1.837   2.353   2.724
 1985WAT      O 6165   2.354   2.483   2.259
 1985WAT     H1 6166   2.339   2.494   2.352
 1985WAT     H2 6167   2.328   2.566   2.220
 1986WAT      O 6168   2.793   2.245   3.091
 1986WAT     H1 6169   2.796   2.281   3.179
 1986WAT     H2 6170   2.736   2.168   3.098
 1987WAT      O 6171   2.285   2.717   2.128
 1987WAT     H1 6172   2.229   2.670   2.066
 1987WAT     H2 6173   2.366   2.734   2.080
 1988WAT      O 6174   1.808   3.113   3.533
 1988WAT     H1 6175   1.759   3.052   3.587
 1988WAT     H2 6176   1.824   3.189   3.590
 1989WAT      O 6177   1.703   2.250   2.650
 1989WAT     H1 6178   1.665   2.187   2.712
 1989WAT     H2 6179   1.724   2.197   2.573
 1990WAT      O 6180   2.128   2.710   3.333
 1990WAT     H1 6181   2.081   2.774   3.387
 1990WAT     H2 6182   2.196   2.762   3.289
 1991WAT      O 6183   2.041   3.111   2.399
 1991WAT     H1 6184   1.965   3.054   2.393
 1991WAT     H2 6185   2.114   3.058   2.366
 1992WAT      O 6186   2.642   2.169   2.336
 1992WAT     H1 6187   2.553   2.134   2.340
 1992WAT     H2 6188   2.633   2.251   2.287
 1993WAT      O 6189   2.943   2.532   2.282
 1993WAT     H1 6190   2.910   2.599   2.222
 1993WAT     H2 6191   2.948   2.453   2.230
 1994WAT      O 6192   2.047   3.065   2.779
 1994WAT     H1 6193   2.093   2.988   2.745
 1994WAT     H2 6194   2.002   3.033   2.857
 1995WAT      O 6195   2.446   3.181   2.279
 1995WAT     H1 6196   2.528   3.229   2.280
 1995WAT     H2 6197   2.378   3.248   2.277
 1996WAT      O 6198   1.734   2.790   3.425
 1996WAT     H1 6199   1.693   2.850   3.487
 1996WAT     H2 6200   1.722   2.704   3.464
 1997WAT      O 6201   2.079   2.827   3.744
 1997WAT     H1 6202   2.069   2.858   3.654
 1997WAT     H2 6203   2.152   2.767   3.741
 1998WAT      O 6204   2.617   3.337   3.452
 1998WAT     H1 6205   2.699   3.292   3.431
 1998WAT     H2 6206   2.606   3.323   3.546
 1999WAT      O 6207   3.148   2.778   2.196
 1999WAT     H1 6208   3.059   2.772   2.159
 1999WAT     H2 6209   3.154   2.704   2.256
 2000WAT      O 6210   2.380   3.187   2.683
 2000WAT     H1 6211   2.459   3.240   2.672
 2000WAT     H2 6212   2.311   3.237   2.639
 2001WAT      O 6213   1.600   2.719   2.122
 2001WAT     H1 6214   1.695   2.720   2.136
 2001WAT     H2 6215   1.580   2.806   2.086
 2002WAT      O 6216   2.366   2.935   2.543
 2002WAT     H1 6217   2.383   3.019   2.584
 2002WAT     H2 6218   2.311   2.888   2.606
 2003WAT      O 6219   2.526   3.531   3.285
 2003WAT     H1 6220   2.516   3.603   3.348
 2003WAT     H2 6221   2.563   3.460   3.336
 2004WAT      O 6222   1.953   1.923   2.566
 2004WAT     H1 6223   1.914   1.894   2.648
 2004WAT     H2 6224   1.880   1.962   2.517
 2005WAT      O 6225   1.703   3.695   2.156
 2005WAT     H1 6226   1.725   3.776   2.111
 2005WAT     H2 6227   1.637   3.720   2.221
 2006WAT      O 6228   1.653   2.164   3.516
 2006WAT     H1 6229   1.569   2.197   3.483
 2006WAT     H2 6230   1.633   2.134   3.605
 2007WAT      O 6231   1.662   3.513   3.583
 2007WAT     H1 6232   1.689   3.421   3.585
 2007WAT     H2 6233   1.579   3.514   3.536
 2008WAT      O 6234   2.530   3.349   3.752
 2008WAT     H1 6235   2.489   3.270   3.787
 2008WAT     H2 6236   2.457   3.401   3.719
 2009WAT      O 6237   2.279   3.402   2.232
 2009WAT     H1 6238   2.270   3.477   2.172
 2009WAT     H2 6239   2.189   3.379   2.254
 2010WAT      O 6240   1.836   2.941   2.317
 2010WAT     H1 6241   1.762   2.999   2.297
 2010WAT     H2 6242   1.882   2.932   2.233
 2011WAT      O 6243   2.768   2.347   3.358
 2011WAT     H1 6244   2.791   2.413   3.423
 2011WAT     H2 6245   2.681   2.318   3.383
 2012WAT      O 6246   3.138   2.198   2.378
 2012WAT     H1 6247   3.086   2.242   2.311
 2012WAT     H2 6248   3.099   2.227   2.461
 2013WAT      O 6249   2.544   3.461   2.181
 2013WAT     H1 6250   2.551   3.453   2.086
 2013WAT     H2 6251   2.455   3.432   2.201
 2014WAT      O 6252   2.290   2.508   2.517
 2014WAT     H1 6253   2.222   2.549   2.571
 2014WAT     H2 6254   2.322   2.436   2.570
 2015WAT      O 6255   2.769   2.143   2.589
 2015WAT     H1 6256   2.730   2.154   2.502
 2015WAT     H2 6257   2.857   2.178   2.581
 2016WAT      O 6258   2.413   3.691   2.580
 2016WAT     H1 6259   2.462   3.689   2.498
 2016WAT     H2 6260   2.324   3.664   2.556
 2017WAT      O 6261   2.141   2.295   2.240
 2017WAT     H1 6262   2.225   2.341   2.233
 2017WAT     H2 6263   2.109   2.318   2.327
 2018WAT      O 6264   2.022   2.957   2.097
 2018WAT     H1 6265   2.099   2.948   2.153
 2018WAT     H2 6266   2.050   2.921   2.013
 2019WAT      O 6267   1.871   2.680   2.130
 2019WAT     H1 6268   1.869   2.584   2.134
 2019WAT     H2 6269   1.964   2.702   2.134
 2020WAT      O 6270   1.997   3.763   2.942
 2020WAT     H1 6271   2.077   3.713   2.956
 2020WAT     H2 6272   2.027   3.844   2.902
 2021WAT      O 6273   1.660   3.316   2.466
 2021WAT     H1 6274   1.571   3.351   2.461
 2021WAT     H2 6275   1.715   3.387   2.434
 2022WAT      O 6276   1.896   3.597   3.843
 2022WAT     H1 6277   1.985   3.603   3.877
 2022WAT     H2 6278   1.840   3.612   3.920
 2023WAT      O 6279   2.259   3.609   2.054
 2023WAT     H1 6280   2.335   3.663   2.031
 2023WAT     H2 6281   2.243   3.557   1.975
 2024WAT      O 6282   2.795   3.270   3.813
 2024WAT     H1 6283   2.715   3.311   3.778
 2024WAT     H2 6284   2.765   3.187   3.850
 2025WAT      O 6285   1.671   2.918   3.670
 2025WAT     H1 6286   1.723   2.847   3.708
 2025WAT     H2 6287   1.607   2.940   3.738
 2026WAT      O 6288   2.416   3.178   1.996
 2026WAT     H1 6289   2.400   3.138   2.082
 2026WAT     H2 6290   2.381   3.115   1.934
 2027WAT      O 6291   1.829   2.707   3.757
 2027WAT     H1 6292   1.828   2.693   3.852
 2027WAT     H2 6293   1.917   2.741   3.739
 2028WAT      O 6294   2.222   2.927   2.296
 2028WAT     H1 6295   2.283   2.935   2.369
 2028WAT     H2 6296   2.251   2.849   2.249
 2029WAT      O 6297   2.124   2.506   3.537
 2029WAT     H1 6298   2.048   2.448   3.530
 2029WAT     H2 6299   2.120   2.559   3.457
 2030WAT      O 6300   2.534   2.785   2.010
 2030WAT     H1 6301   2.621   2.752   2.035
 2030WAT     H2 6302   2.542   2.880   2.015
 2031WAT      O 6303   2.375   2.110   3.265
 2031WAT     H1 6304   2.356   2.130   3.173
 2031WAT     H2 6305   2.291   2.086   3.302
 2032WAT      O 6306   2.112   2.565   1.976
 2032WAT     H1 6307   2.088   2.473   1.992
 2032WAT     H2 6308   2.111   2.573   1.881
 2033WAT      O 6309   2.182   3.619   3.484
 2033WAT     H1 6310   2.087   3.621   3.484
 2033WAT     H2 6311   2.206   3.575   3.402
 2034WAT      O 6312   2.844   2.039   2.207
 2034WAT     H1 6313   2.860   1.961   2.261
 2034WAT     H2 6314   2.771   2.083   2.251
 2035WAT      O 6315   2.043   2.297   1.980
 2035WAT     H1 6316   2.077   2.242   1.908
 2035WAT     H2 6317   2.096   2.271   2.056
 2036WAT      O 6318   2.454   3.723   3.471
 2036WAT     H1 6319   2.474   3.807   3.514
 2036WAT     H2 6320   2.361   3.710   3.485
 2037WAT      O 6321   2.340   2.136   2.076
 2037WAT     H1 6322   2.276   2.077   2.036
 2037WAT     H2 6323   2.348   2.103   2.166
 2038WAT      O 6324   2.521   3.695   2.324
 2038WAT     H1 6325   2.570   3.754   2.266
 2038WAT     H2 6326   2.530   3.609   2.283
 2039WAT      O 6327   1.924   3.213   2.055
 2039WAT     H1 6328   1.959   3.264   2.128
 2039WAT     H2 6329   1.955   3.124   2.071
 2040WAT      O 6330   1.616   3.472   2.806
 2040WAT     H1 6331   1.655   3.385   2.798
 2040WAT     H2 6332   1.638   3.500   2.895
 2041WAT      O 6333   2.119   3.276   2.605
 2041WAT     H1 6334   2.091   3.219   2.677
 2041WAT     H2 6335   2.098   3.226   2.526
 2042WAT      O 6336   1.612   3.601   3.051
 2042WAT     H1 6337   1.590   3.617   3.142
 2042WAT     H2 6338   1.658   3.680   3.023
 2043WAT      O 6339   1.625   2.806   2.692
 2043WAT     H1 6340   1.553   2.809   2.628
 2043WAT     H2 6341   1.702   2.783   2.640
 2044WAT      O 6342   2.989   2.278   2.157
 2044WAT     H1 6343   3.027   2.272   2.069
 2044WAT     H2 6344   2.932   2.202   2.164
 2045WAT      O 6345   1.766   2.826   3.151
 2045WAT     H1 6346   1.758   2.806   3.244
 2045WAT     H2 6347   1.716   2.757   3.107
 2046WAT      O 6348   1.686   2.559   3.568
 2046WAT     H1 6349   1.603   2.533   3.608
 2046WAT     H2 6350   1.735   2.599   3.640
 2047WAT      O 6351   1.552   2.521   2.317
 2047WAT     H1 6352   1.482   2.545   2.377
 2047WAT     H2 6353   1.557   2.594   2.255
 2048WAT      O 6354   3.225   2.596   2.879
 2048WAT     H1 6355   3.256   2.541   2.807
 2048WAT     H2 6356   3.294   2.660   2.892
 2049WAT      O 6357   3.328   2.578   3.160
 2049WAT     H1 6358   3.244   2.595   3.119
 2049WAT     H2 6359   3.392   2.620   3.103
 2050WAT      O 6360   1.835   2.410   2.115
 2050WAT     H1 6361   1.898   2.362   2.062
 2050WAT     H2 6362   1.756   2.413   2.061
 2051WAT      O 6363   1.768   2.054   2.018
 2051WAT     H1 6364   1.837   2.084   2.078
 2051WAT     H2 6365   1.814   2.034   1.937
 2052WAT      O 6366   3.190   2.556   2.400
 2052WAT     H1 6367   3.193   2.533   2.493
 2052WAT     H2 6368   3.099   2.543   2.375
 2053WAT      O 6369   1.738   1.947   3.003
 2053WAT     H1 6370   1.823   1.921   2.966
 2053WAT     H2 6371   1.760   1.979   3.090
 2054WAT      O 6372   3.341   2.414   2.704
 2054WAT     H1 6373   3.332   2.359   2.782
 2054WAT     H2 6374   3.422   2.385   2.663
 2055WAT      O 6375   3.373   2.134   2.044
 2055WAT     H1 6376   3.462   2.110   2.018
 2055WAT     H2 6377   3.381   2.167   2.133
 2056WAT      O 6378   3.405   2.208   2.306
 2056WAT     H1 6379   3.317   2.198   2.343
 2056WAT     H2 6380   3.422   2.302   2.309
 2057WAT      O 6381   1.690   2.030   3.276
 2057WAT     H1 6382   1.691   2.066   3.365
 2057WAT     H2 6383   1.630   1.956   3.282
 2058WAT      O 6384   1.857   3.332   3.700
 2058WAT     H1 6385   1.872   3.288   3.784
 2058WAT     H2 6386   1.863   3.425   3.720
 2059WAT      O 6387   2.257   3.486   3.254
 2059WAT     H1 6388   2.236   3.516   3.165
 2059WAT     H2 6389   2.352   3.494   3.260
 2060WAT      O 6390   1.900   3.598   3.462
 2060WAT     H1 6391   1.818   3.580   3.507
 2060WAT     H2 6392   1.902   3.536   3.389
 2061WAT      O 6393   1.876   3.394   3.279
 2061WAT     H1 6394   1.791   3.349   3.276
 2061WAT     H2 6395   1.908   3.391   3.189
 2062WAT      O 6396   2.224   3.590   2.984
 2062WAT     H1 6397   2.246   3.548   2.901
 2062WAT     H2 6398   2.303   3.639   3.008
 2063WAT      O 6399   2.482   3.670   3.046
 2063WAT     H1 6400   2.528   3.637   2.969
 2063WAT     H2 6401   2.515   3.615   3.118
 2064WAT      O 6402   2.608   2.031   3.126
 2064WAT     H1 6403   2.540   2.061   3.187
 2064WAT     H2 6404   2.570   1.954   3.085
 2065WAT      O 6405   2.984   2.043   2.941
 2065WAT     H1 6406   3.053   2.076   2.883
 2065WAT     H2 6407   2.947   2.121   2.982
 2066WAT      O 6408   3.191   2.079   2.756
 2066WAT     H1 6409   3.183   1.986   2.735
 2066WAT     H2 6410   3.284   2.091   2.776
 2067WAT      O 6411   1.706   3.641   2.600
 2067WAT     H1 6412   1.685   3.588   2.677
 2067WAT     H2 6413   1.621   3.668   2.565
 2068WAT      O 6414   1.749   2.094   2.406
 2068WAT     H1 6415   1.819   2.098   2.341
 2068WAT     H2 6416   1.675   2.140   2.364
 2069WAT      O 6417   2.353   2.268   2.644
 2069WAT     H1 6418   2.289   2.219   2.592
 2069WAT     H2 6419   2.410   2.201   2.680
 2070WAT      O 6420   2.803   1.922   2.760
 2070WAT     H1 6421   2.864   1.957   2.825
 2070WAT     H2 6422   2.781   1.998   2.705
 2071WAT      O 6423   3.146   1.927   2.334
 2071WAT     H1 6424   3.143   2.019   2.360
 2071WAT     H2 6425   3.060   1.892   2.354
 2072WAT      O 6426   1.814   3.526   2.373
 2072WAT     H1 6427   1.796   3.586   2.301
 2072WAT     H2 6428   1.792   3.575   2.452
 2073WAT      O 6429   1.955   2.089   2.220
 2073WAT     H1 6430   2.007   2.008   2.228
 2073WAT     H2 6431   2.020   2.159   2.225
 2074WAT      O 6432   2.168   2.102   2.512
 2074WAT     H1 6433   2.105   2.033   2.534
 2074WAT     H2 6434   2.114   2.180   2.498
 2075WAT      O 6435   2.467   3.738   3.804
 2075WAT     H1 6436   2.531   3.680   3.764
 2075WAT     H2 6437   2.481   3.822   3.761
 2076WAT      O 6438   2.106   3.735   2.244
 2076WAT     H1 6439   2.163   3.696   2.178
 2076WAT     H2 6440   2.132   3.694   2.327
 2077WAT      O 6441   2.012   3.355   2.278
 2077WAT     H1 6442   1.945   3.411   2.318
 2077WAT     H2 6443   2.013   3.276   2.332
 2078WAT      O 6444   2.740   2.736   0.885
 2078WAT     H1 6445   2.735   2.642   0.868
 2078WAT     H2 6446   2.707   2.777   0.805
 2079WAT      O 6447   2.613   2.914   1.060
 2079WAT     H1 6448   2.542   2.866   1.102
 2079WAT     H2 6449   2.649   2.853   0.997
 2080WAT      O 6450   1.978   2.976   1.148
 2080WAT     H1 6451   1.908   2.921   1.185
 2080WAT     H2 6452   2.040   2.987   1.219
 2081WAT      O 6453   2.996   3.374   0.836
 2081WAT     H1 6454   2.955   3.299   0.880
 2081WAT     H2 6455   3.065   3.402   0.897
 2082WAT      O 6456   2.012   3.391   1.166
 2082WAT     H1 6457   2.081   3.329   1.141
 2082WAT     H2 6458   2.046   3.476   1.140
 2083WAT      O 6459   1.809   2.497   0.504
 2083WAT     H1 6460   1.715   2.486   0.489
 2083WAT     H2 6461   1.848   2.497   0.417
 2084WAT      O 6462   1.596   2.673   1.080
 2084WAT     H1 6463   1.664   2.606   1.084
 2084WAT     H2 6464   1.612   2.720   0.998
 2085WAT      O 6465   2.592   3.619   0.921
 2085WAT     H1 6466   2.526   3.641   0.855
 2085WAT     H2 6467   2.662   3.683   0.907
 2086WAT      O 6468   2.502   3.171   1.092
 2086WAT     H1 6469   2.542   3.086   1.076
 2086WAT     H2 6470   2.572   3.224   1.130
 2087WAT      O 6471   1.726   2.292   1.301
 2087WAT     H1 6472   1.718   2.200   1.326
 2087WAT     H2 6473   1.661   2.337   1.355
 2088WAT      O 6474   2.640   2.477   1.069
 2088WAT     H1 6475   2.683   2.403   1.113
 2088WAT     H2 6476   2.673   2.474   0.979
 2089WAT      O 6477   2.024   2.347   0.603
 2089WAT     H1 6478   2.055   2.413   0.665
 2089WAT     H2 6479   1.937   2.378   0.577
 2090WAT      O 6480   3.045   2.266   0.757
 2090WAT     H1 6481   3.106   2.199   0.787
 2090WAT     H2 6482   3.029   2.320   0.834
 2091WAT      O 6483   1.801   2.492   1.127
 2091WAT     H1 6484   1.880   2.523   1.170
 2091WAT     H2 6485   1.770   2.420   1.183
 2092WAT      O 6486   2.235   2.648   1.076
 2092WAT     H1 6487   2.301   2.697   1.124
 2092WAT     H2 6488   2.278   2.566   1.052
 2093WAT      O 6489   3.408   2.439   1.432
 2093WAT     H1 6490   3.348   2.507   1.402
 2093WAT     H2 6491   3.453   2.478   1.507
 2094WAT      O 6492   2.119   2.091   1.457
 2094WAT     H1 6493   2.085   2.159   1.400
 2094WAT     H2 6494   2.070   2.012   1.432
 2095WAT      O 6495   2.707   3.133   0.666
 2095WAT     H1 6496   2.683   3.143   0.574
 2095WAT     H2 6497   2.679   3.215   0.707
 2096WAT      O 6498   2.194   3.077   1.312
 2096WAT     H1 6499   2.154   3.138   1.373
 2096WAT     H2 6500   2.213   3.129   1.234
 2097WAT      O 6501   3.031   2.374   1.027
 2097WAT     H1 6502   2.947   2.380   1.074
 2097WAT     H2 6503   3.061   2.464   1.022
 2098WAT      O 6504   2.005   2.278   1.299
 2098WAT     H1 6505   2.032   2.368   1.282
 2098WAT     H2 6506   1.910   2.281   1.299
 2099WAT      O 6507   2.105   3.287   1.462
 2099WAT     H1 6508   2.165   3.355   1.431
 2099WAT     H2 6509   2.018   3.322   1.443
 2100WAT      O 6510   1.658   3.101   0.398
 2100WAT     H1 6511   1.718   3.137   0.333
 2100WAT     H2 6512   1.650   3.170   0.464
 2101WAT      O 6513   3.308   2.324   1.094
 2101WAT     H1 6514   3.213   2.325   1.085
 2101WAT     H2 6515   3.326   2.387   1.164
 2102WAT      O 6516   2.344   2.013   0.903
 2102WAT     H1 6517   2.370   1.945   0.841
 2102WAT     H2 6518   2.255   2.036   0.877
 2103WAT      O 6519   2.859   3.533   1.134
 2103WAT     H1 6520   2.833   3.566   1.048
 2103WAT     H2 6521   2.831   3.601   1.195
 2104WAT      O 6522   3.103   3.225   0.627
 2104WAT     H1 6523   3.092   3.135   0.660
 2104WAT     H2 6524   3.061   3.280   0.693
 2105WAT      O 6525   2.925   3.118   1.220
 2105WAT     H1 6526   2.988   3.084   1.156
 2105WAT     H2 6527   2.969   3.109   1.304
 2106WAT      O 6528   2.641   2.859   0.663
 2106WAT     H1 6529   2.546   2.869   0.654
 2106WAT     H2 6530   2.675   2.949   0.657
 2107WAT      O 6531   2.604   2.392   0.366
 2107WAT     H1 6532   2.516   2.427   0.357
 2107WAT     H2 6533   2.660   2.469   0.371
 2108WAT      O 6534   3.204   2.908   1.346
 2108WAT     H1 6535   3.164   2.926   1.261
 2108WAT     H2 6536   3.291   2.946   1.340
 2109WAT      O 6537   3.053   2.950   0.675
 2109WAT     H1 6538   2.974   2.939   0.622
 2109WAT     H2 6539   3.030   2.912   0.760
 2110WAT      O 6540   2.935   2.591   1.409
 2110WAT     H1 6541   2.887   2.643   1.344
 2110WAT     H2 6542   2.883   2.511   1.419
 2111WAT      O 6543   2.193   2.817   0.855
 2111WAT     H1 6544   2.148   2.750   0.804
 2111WAT     H2 6545   2.210   2.776   0.940
 2112WAT      O 6546   2.236   3.236   1.088
 2112WAT     H1 6547   2.199   3.181   1.019
 2112WAT     H2 6548   2.330   3.221   1.084
 2113WAT      O 6549   2.040   2.551   1.251
 2113WAT     H1 6550   2.100   2.587   1.185
 2113WAT     H2 6551   2.067   2.592   1.333
 2114WAT      O 6552   2.134   3.236   1.725
 2114WAT     H1 6553   2.046   3.252   1.760
 2114WAT     H2 6554   2.124   3.246   1.631
 2115WAT      O 6555   2.872   2.925   0.402
 2115WAT     H1 6556   2.909   2.844   0.366
 2115WAT     H2 6557   2.940   2.991   0.388
 2116WAT      O 6558   1.997   2.900   1.583
 2116WAT     H1 6559   1.963   2.989   1.591
 2116WAT     H2 6560   1.922   2.848   1.557
 2117WAT      O 6561   2.625   3.384   0.759
 2117WAT     H1 6562   2.695   3.434   0.717
 2117WAT     H2 6563   2.604   3.433   0.838
 2118WAT      O 6564   2.240   3.474   1.820
 2118WAT     H1 6565   2.223   3.529   1.743
 2118WAT     H2 6566   2.209   3.387   1.795
 2119WAT      O 6567   3.256   1.972   0.214
 2119WAT     H1 6568   3.218   1.963   0.301
 2119WAT     H2 6569   3.309   2.051   0.219
 2120WAT      O 6570   1.833   2.711   0.679
 2120WAT     H1 6571   1.840   2.788   0.623
 2120WAT     H2 6572   1.820   2.639   0.618
 2121WAT      O 6573   1.604   3.047   1.248
 2121WAT     H1 6574   1.583   3.059   1.155
 2121WAT     H2 6575   1.673   2.981   1.249
 2122WAT      O 6576   1.702   3.218   0.840
 2122WAT     H1 6577   1.681   3.243   0.750
 2122WAT     H2 6578   1.795   3.195   0.838
 2123WAT      O 6579   2.741   3.705   1.563
 2123WAT     H1 6580   2.773   3.790   1.593
 2123WAT     H2 6581   2.648   3.704   1.585
 2124WAT      O 6582   2.896   3.693   0.481
 2124WAT     H1 6583   2.875   3.657   0.567
 2124WAT     H2 6584   2.886   3.620   0.421
 2125WAT      O 6585   2.139   3.624   0.658
 2125WAT     H1 6586   2.108   3.535   0.678
 2125WAT     H2 6587   2.064   3.680   0.677
 2126WAT      O 6588   2.897   3.465   0.331
 2126WAT     H1 6589   2.881   3.372   0.315
 2126WAT     H2 6590   2.991   3.476   0.317
 2127WAT      O 6591   2.843   3.571   0.721
 2127WAT     H1 6592   2.904   3.507   0.758
 2127WAT     H2 6593   2.846   3.645   0.781
 2128WAT      O 6594   3.297   2.455   1.792
 2128WAT     H1 6595   3.234   2.488   1.728
 2128WAT     H2 6596   3.255   2.378   1.830
 2129WAT      O 6597   1.650   3.223   1.457
 2129WAT     H1 6598   1.630   3.166   1.383
 2129WAT     H2 6599   1.715   3.173   1.508
 2130WAT      O 6600   2.079   2.132   0.983
 2130WAT     H1 6601   2.032   2.211   0.957
 2130WAT     H2 6602   2.137   2.161   1.054
 2131WAT      O 6603   2.511   2.378   1.500
 2131WAT     H1 6604   2.466   2.395   1.582
 2131WAT     H2 6605   2.469   2.300   1.464
 2132WAT      O 6606   3.086   2.492   1.616
 2132WAT     H1 6607   3.021   2.451   1.673
 2132WAT     H2 6608   3.036   2.526   1.542
 2133WAT      O 6609   2.398   2.053   0.532
 2133WAT     H1 6610   2.309   2.067   0.564
 2133WAT     H2 6611   2.396   1.965   0.494
 2134WAT      O 6612   2.324   2.175   1.127
 2134WAT     H1 6613   2.340   2.262   1.091
 2134WAT     H2 6614   2.346   2.116   1.055
 2135WAT      O 6615   2.057   2.577   0.771
 2135WAT     H1 6616   2.025   2.516   0.838
 2135WAT     H2 6617   1.980   2.628   0.746
 2136WAT      O 6618   2.754   2.605   0.594
 2136WAT     H1 6619   2.721   2.695   0.591
 2136WAT     H2 6620   2.816   2.601   0.521
 2137WAT      O 6621   2.340   2.721   1.812
 2137WAT     H1 6622   2.357   2.633   1.780
 2137WAT     H2 6623   2.416   2.742   1.866
 2138WAT      O 6624   2.734   2.456   0.818
 2138WAT     H1 6625   2.738   2.499   0.732
 2138WAT     H2 6626   2.740   2.363   0.799
 2139WAT      O 6627   1.873   2.346   1.653
 2139WAT     H1 6628   1.811   2.419   1.661
 2139WAT     H2 6629   1.818   2.268   1.648
 2140WAT      O 6630   2.475   2.317   1.939
 2140WAT     H1 6631   2.421   2.257   1.991
 2140WAT     H2 6632   2.537   2.354   2.002
 2141WAT      O 6633   1.582   2.110   0.973
 2141WAT     H1 6634   1.545   2.173   1.035
 2141WAT     H2 6635   1.638   2.053   1.026
 2142WAT      O 6636   2.766   2.690   1.217
 2142WAT     H1 6637   2.736   2.775   1.185
 2142WAT     H2 6638   2.713   2.626   1.171
 2143WAT      O 6639   2.375   2.420   1.009
 2143WAT     H1 6640   2.379   2.385   0.921
 2143WAT     H2 6641   2.466   2.444   1.029
 2144WAT      O 6642   1.924   2.373   0.910
 2144WAT     H1 6643   1.879   2.414   0.983
 2144WAT     H2 6644   1.854   2.333   0.858
 2145WAT      O 6645   2.351   2.508   0.367
 2145WAT     H1 6646   2.336   2.518   0.461
 2145WAT     H2 6647   2.337   2.596   0.331
 2146WAT      O 6648   2.785   2.269   1.179
 2146WAT     H1 6649   2.790   2.303   1.269
 2146WAT     H2 6650   2.739   2.186   1.187
 2147WAT      O 6651   2.312   2.757   0.237
 2147WAT     H1 6652   2.277   2.737   0.150
 2147WAT     H2 6653   2.392   2.806   0.220
 2148WAT      O 6654   3.168   2.007   1.726
 2148WAT     H1 6655   3.170   1.918   1.759
 2148WAT     H2 6656   3.178   1.998   1.631
 2149WAT      O 6657   1.817   3.111   1.646
 2149WAT     H1 6658   1.765   3.051   1.699
 2149WAT     H2 6659   1.837   3.184   1.705
 2150WAT      O 6660   2.413   2.800   1.219
 2150WAT     H1 6661   2.427   2.742   1.294
 2150WAT     H2 6662   2.372   2.878   1.258
 2151WAT      O 6663   1.710   2.250   0.775
 2151WAT     H1 6664   1.670   2.190   0.838
 2151WAT     H2 6665   1.729   2.196   0.699
 2152WAT      O 6666   2.144   2.675   1.477
 2152WAT     H1 6667   2.122   2.763   1.507
 2152WAT     H2 6668   2.239   2.675   1.468
 2153WAT      O 6669   2.037   3.116   0.526
 2153WAT     H1 6670   1.960   3.060   0.533
 2153WAT     H2 6671   2.106   3.058   0.492
 2154WAT      O 6672   3.136   2.985   1.087
 2154WAT     H1 6673   3.219   3.010   1.048
 2154WAT     H2 6674   3.091   2.935   1.019
 2155WAT      O 6675   2.640   2.174   0.521
 2155WAT     H1 6676   2.554   2.132   0.523
 2155WAT     H2 6677   2.627   2.251   0.465
 2156WAT      O 6678   2.929   2.570   0.389
 2156WAT     H1 6679   2.999   2.626   0.355
 2156WAT     H2 6680   2.952   2.482   0.359
 2157WAT      O 6681   2.092   3.069   0.919
 2157WAT     H1 6682   2.126   2.986   0.885
 2157WAT     H2 6683   2.039   3.044   0.994
 2158WAT      O 6684   2.530   3.205   0.449
 2158WAT     H1 6685   2.486   3.274   0.399
 2158WAT     H2 6686   2.478   3.197   0.529
 2159WAT      O 6687   1.743   2.785   1.538
 2159WAT     H1 6688   1.703   2.843   1.602
 2159WAT     H2 6689   1.729   2.697   1.574
 2160WAT      O 6690   2.091   2.846   1.841
 2160WAT     H1 6691   2.074   2.876   1.752
 2160WAT     H2 6692   2.178   2.806   1.836
 2161WAT      O 6693   2.585   3.217   1.707
 2161WAT     H1 6694   2.512   3.160   1.731
 2161WAT     H2 6695   2.577   3.293   1.763
 2162WAT      O 6696   3.115   2.754   0.296
 2162WAT     H1 6697   3.133   2.756   0.202
 2162WAT     H2 6698   3.181   2.812   0.335
 2163WAT      O 6699   3.281   3.409   0.523
 2163WAT     H1 6700   3.220   3.346   0.562
 2163WAT     H2 6701   3.236   3.442   0.445
 2164WAT      O 6702   2.862   3.141   0.902
 2164WAT     H1 6703   2.811   3.123   0.823
 2164WAT     H2 6704   2.813   3.097   0.972
 2165WAT      O 6705   2.397   3.215   0.690
 2165WAT     H1 6706   2.460   3.276   0.729
 2165WAT     H2 6707   2.311   3.252   0.710
 2166WAT      O 6708   1.612   2.722   0.288
 2166WAT     H1 6709   1.704   2.749   0.278
 2166WAT     H2 6710   1.565   2.803   0.307
 2167WAT      O 6711   2.371   2.935   0.667
 2167WAT     H1 6712   2.379   3.028   0.686
 2167WAT     H2 6713   2.317   2.900   0.738
 2168WAT      O 6714   2.547   3.477   1.344
 2168WAT     H1 6715   2.596   3.505   1.422
 2168WAT     H2 6716   2.602   3.409   1.305
 2169WAT      O 6717   1.928   1.924   0.687
 2169WAT     H1 6718   1.861   1.872   0.731
 2169WAT     H2 6719   1.878   1.985   0.632
 2170WAT      O 6720   2.722   3.304   1.205
 2170WAT     H1 6721   2.786   3.233   1.213
 2170WAT     H2 6722   2.774   3.379   1.176
 2171WAT      O 6723   1.740   3.725   0.380
 2171WAT     H1 6724   1.772   3.765   0.299
 2171WAT     H2 6725   1.731   3.799   0.441
 2172WAT      O 6726   1.710   2.121   1.661
 2172WAT     H1 6727   1.626   2.124   1.706
 2172WAT     H2 6728   1.760   2.053   1.706
 2173WAT      O 6729   3.083   3.095   0.383
 2173WAT     H1 6730   3.090   3.150   0.461
 2173WAT     H2 6731   3.167   3.049   0.378
 2174WAT      O 6732   1.667   3.504   1.706
 2174WAT     H1 6733   1.691   3.412   1.700
 2174WAT     H2 6734   1.583   3.510   1.661
 2175WAT      O 6735   2.497   3.414   1.906
 2175WAT     H1 6736   2.473   3.328   1.941
 2175WAT     H2 6737   2.416   3.448   1.867
 2176WAT      O 6738   2.289   3.463   0.336
 2176WAT     H1 6739   2.291   3.437   0.244
 2176WAT     H2 6740   2.205   3.431   0.369
 2177WAT      O 6741   1.834   2.921   0.501
 2177WAT     H1 6742   1.766   2.980   0.469
 2177WAT     H2 6743   1.857   2.867   0.425
 2178WAT      O 6744   2.783   2.365   1.437
 2178WAT     H1 6745   2.817   2.289   1.484
 2178WAT     H2 6746   2.691   2.371   1.465
 2179WAT      O 6747   3.154   2.203   0.508
 2179WAT     H1 6748   3.100   2.245   0.440
 2179WAT     H2 6749   3.113   2.229   0.590
 2180WAT      O 6750   2.293   2.517   0.630
 2180WAT     H1 6751   2.222   2.550   0.685
 2180WAT     H2 6752   2.329   2.443   0.679
 2181WAT      O 6753   2.424   2.644   1.444
 2181WAT     H1 6754   2.463   2.687   1.521
 2181WAT     H2 6755   2.455   2.554   1.449
 2182WAT      O 6756   2.774   2.179   0.758
 2182WAT     H1 6757   2.731   2.174   0.673
 2182WAT     H2 6758   2.866   2.199   0.737
 2183WAT      O 6759   2.400   3.676   0.729
 2183WAT     H1 6760   2.440   3.676   0.642
 2183WAT     H2 6761   2.308   3.654   0.714
 2184WAT      O 6762   2.130   2.334   0.349
 2184WAT     H1 6763   2.216   2.375   0.342
 2184WAT     H2 6764   2.109   2.336   0.443
 2185WAT      O 6765   3.191   2.267   1.475
 2185WAT     H1 6766   3.148   2.333   1.529
 2185WAT     H2 6767   3.275   2.306   1.451
 2186WAT      O 6768   3.011   2.810   0.909
 2186WAT     H1 6769   2.920   2.781   0.914
 2186WAT     H2 6770   3.062   2.733   0.933
 2187WAT      O 6771   1.899   2.756   0.291
 2187WAT     H1 6772   1.904   2.662   0.274
 2187WAT     H2 6773   1.989   2.787   0.282
 2188WAT      O 6774   3.203   3.489   0.979
 2188WAT     H1 6775   3.193   3.543   1.058
 2188WAT     H2 6776   3.298   3.479   0.969
 2189WAT      O 6777   2.001   3.755   1.064
 2189WAT     H1 6778   2.082   3.705   1.075
 2189WAT     H2 6779   2.030   3.838   1.026
 2190WAT      O 6780   1.650   3.305   0.580
 2190WAT     H1 6781   1.564   3.344   0.567
 2190WAT     H2 6782   1.712   3.374   0.555
 2191WAT      O 6783   1.897   3.596   1.967
 2191WAT     H1 6784   1.986   3.596   2.003
 2191WAT     H2 6785   1.840   3.611   2.043
 2192WAT      O 6786   3.163   3.558   0.318
 2192WAT     H1 6787   3.207   3.582   0.237
 2192WAT     H2 6788   3.153   3.641   0.365
 2193WAT      O 6789   1.672   2.921   1.782
 2193WAT     H1 6790   1.728   2.852   1.817
 2193WAT     H2 6791   1.610   2.939   1.852
 2194WAT      O 6792   2.350   3.064   1.753
 2194WAT     H1 6793   2.271   3.117   1.744
 2194WAT     H2 6794   2.355   3.013   1.672
 2195WAT      O 6795   2.639   3.020   0.272
 2195WAT     H1 6796   2.604   3.086   0.332
 2195WAT     H2 6797   2.718   2.987   0.315
 2196WAT      O 6798   1.840   2.718   1.859
 2196WAT     H1 6799   1.841   2.696   1.952
 2196WAT     H2 6800   1.927   2.752   1.841
 2197WAT      O 6801   2.209   2.920   0.442
 2197WAT     H1 6802   2.272   2.917   0.514
 2197WAT     H2 6803   2.245   2.861   0.375
 2198WAT      O 6804   2.094   2.514   1.700
 2198WAT     H1 6805   2.020   2.457   1.680
 2198WAT     H2 6806   2.107   2.567   1.621
 2199WAT      O 6807   2.087   2.181   1.716
 2199WAT     H1 6808   2.111   2.149   1.628
 2199WAT     H2 6809   2.017   2.245   1.700
 2200WAT      O 6810   2.387   2.152   1.388
 2200WAT     H1 6811   2.362   2.163   1.297
 2200WAT     H2 6812   2.308   2.122   1.432
 2201WAT      O 6813   2.386   2.985   1.485
 2201WAT     H1 6814   2.457   3.047   1.470
 2201WAT     H2 6815   2.315   3.016   1.427
 2202WAT      O 6816   2.183   3.625   1.599
 2202WAT     H1 6817   2.087   3.626   1.592
 2202WAT     H2 6818   2.212   3.582   1.518
 2203WAT      O 6819   2.371   2.453   1.726
 2203WAT     H1 6820   2.401   2.405   1.802
 2203WAT     H2 6821   2.276   2.447   1.730
 2204WAT      O 6822   2.926   2.361   1.783
 2204WAT     H1 6823   2.852   2.299   1.781
 2204WAT     H2 6824   2.993   2.315   1.833
 2205WAT      O 6825   2.866   2.077   0.406
 2205WAT     H1 6826   2.871   1.984   0.430
 2205WAT     H2 6827   2.783   2.107   0.443
 2206WAT      O 6828   2.469   3.723   1.618
 2206WAT     H1 6829   2.477   3.808   1.661
 2206WAT     H2 6830   2.375   3.708   1.611
 2207WAT      O 6831   2.449   3.657   0.455
 2207WAT     H1 6832   2.534   3.648   0.411
 2207WAT     H2 6833   2.396   3.585   0.419
 2208WAT      O 6834   1.861   3.202   0.244
 2208WAT     H1 6835   1.917   3.267   0.286
 2208WAT     H2 6836   1.912   3.172   0.169
 2209WAT      O 6837   1.611   3.466   0.940
 2209WAT     H1 6838   1.648   3.378   0.930
 2209WAT     H2 6839   1.636   3.492   1.029
 2210WAT      O 6840   2.128   3.273   0.734
 2210WAT     H1 6841   2.110   3.214   0.808
 2210WAT     H2 6842   2.095   3.225   0.657
 2211WAT      O 6843   1.619   3.597   1.181
 2211WAT     H1 6844   1.595   3.616   1.272
 2211WAT     H2 6845   1.664   3.676   1.151
 2212WAT      O 6846   3.319   2.932   0.393
 2212WAT     H1 6847   3.389   2.998   0.391
 2212WAT     H2 6848   3.321   2.898   0.483
 2213WAT      O 6849   1.620   2.806   0.837
 2213WAT     H1 6850   1.554   2.812   0.768
 2213WAT     H2 6851   1.699   2.776   0.792
 2214WAT      O 6852   3.403   3.027   0.986
 2214WAT     H1 6853   3.436   2.950   0.941
 2214WAT     H2 6854   3.446   3.101   0.942
 2215WAT      O 6855   2.984   2.303   0.311
 2215WAT     H1 6856   2.983   2.296   0.215
 2215WAT     H2 6857   2.934   2.227   0.341
 2216WAT      O 6858   3.296   2.817   0.642
 2216WAT     H1 6859   3.270   2.725   0.635
 2216WAT     H2 6860   3.214   2.864   0.660
 2217WAT      O 6861   1.768   2.831   1.265
 2217WAT     H1 6862   1.763   2.807   1.358
 2217WAT     H2 6863   1.714   2.766   1.221
 2218WAT      O 6864   1.691   2.553   1.686
 2218WAT     H1 6865   1.607   2.533   1.728
 2218WAT     H2 6866   1.741   2.598   1.753
 2219WAT      O 6867   3.153   2.226   1.894
 2219WAT     H1 6868   3.226   2.203   1.951
 2219WAT     H2 6869   3.148   2.154   1.831
 2220WAT      O 6870   1.547   2.495   0.424
 2220WAT     H1 6871   1.478   2.523   0.484
 2220WAT     H2 6872   1.561   2.570   0.367
 2221WAT      O 6873   3.194   2.604   0.981
 2221WAT     H1 6874   3.246   2.557   0.916
 2221WAT     H2 6875   3.259   2.643   1.040
 2222WAT      O 6876   3.217   2.620   1.350
 2222WAT     H1 6877   3.122   2.606   1.356
 2222WAT     H2 6878   3.226   2.715   1.342
 2223WAT      O 6879   1.922   2.483   0.253
 2223WAT     H1 6880   1.999   2.432   0.278
 2223WAT     H2 6881   1.883   2.434   0.181
 2224WAT      O 6882   3.236   2.547   0.626
 2224WAT     H1 6883   3.280   2.499   0.697
 2224WAT     H2 6884   3.151   2.504   0.618
 2225WAT      O 6885   1.750   1.957   1.130
 2225WAT     H1 6886   1.838   1.929   1.104
 2225WAT     H2 6887   1.761   1.990   1.219
 2226WAT      O 6888   3.360   2.418   0.835
 2226WAT     H1 6889   3.348   2.377   0.921
 2226WAT     H2 6890   3.441   2.379   0.801
 2227WAT      O 6891   3.204   1.991   1.447
 2227WAT     H1 6892   3.205   2.086   1.437
 2227WAT     H2 6893   3.166   1.958   1.365
 2228WAT      O 6894   3.420   2.221   0.431
 2228WAT     H1 6895   3.331   2.208   0.463
 2228WAT     H2 6896   3.427   2.316   0.419
 2229WAT      O 6897   3.167   3.705   0.812
 2229WAT     H1 6898   3.232   3.686   0.745
 2229WAT     H2 6899   3.167   3.627   0.868
 2230WAT      O 6900   1.719   2.033   1.399
 2230WAT     H1 6901   1.725   2.066   1.488
 2230WAT     H2 6902   1.667   1.953   1.406
 2231WAT      O 6903   1.880   3.322   1.816
 2231WAT     H1 6904   1.888   3.280   1.902
 2231WAT     H2 6905   1.878   3.415   1.835
 2232WAT      O 6906   2.269   3.489   1.374
 2232WAT     H1 6907   2.245   3.521   1.287
 2232WAT     H2 6908   2.364   3.480   1.372
 2233WAT      O 6909   2.516   2.082   1.785
 2233WAT     H1 6910   2.488   2.163   1.827
 2233WAT     H2 6911   2.609   2.096   1.767
 2234WAT      O 6912   2.785   2.117   1.756
 2234WAT     H1 6913   2.836   2.116   1.675
 2234WAT     H2 6914   2.834   2.061   1.816
 2235WAT      O 6915   1.850   1.918   1.779
 2235WAT     H1 6916   1.882   1.877   1.699
 2235WAT     H2 6917   1.866   1.853   1.847
 2236WAT      O 6918   1.899   3.601   1.582
 2236WAT     H1 6919   1.820   3.580   1.631
 2236WAT     H2 6920   1.896   3.543   1.506
 2237WAT      O 6921   2.836   1.915   1.395
 2237WAT     H1 6922   2.771   1.955   1.338
 2237WAT     H2 6923   2.788   1.848   1.444
 2238WAT      O 6924   2.923   2.140   1.521
 2238WAT     H1 6925   2.905   2.060   1.473
 2238WAT     H2 6926   3.016   2.158   1.504
 2239WAT      O 6927   3.107   3.668   1.170
 2239WAT     H1 6928   3.075   3.754   1.145
 2239WAT     H2 6929   3.028   3.614   1.174
 2240WAT      O 6930   1.864   3.402   1.397
 2240WAT     H1 6931   1.781   3.354   1.397
 2240WAT     H2 6932   1.893   3.399   1.306
 2241WAT      O 6933   2.227   3.584   1.108
 2241WAT     H1 6934   2.257   3.516   1.048
 2241WAT     H2 6935   2.304   3.639   1.124
 2242WAT      O 6936   2.480   3.678   1.164
 2242WAT     H1 6937   2.526   3.654   1.084
 2242WAT     H2 6938   2.513   3.615   1.229
 2243WAT      O 6939   2.617   2.032   1.264
 2243WAT     H1 6940   2.550   2.075   1.318
 2243WAT     H2 6941   2.570   1.960   1.221
 2244WAT      O 6942   2.996   2.074   1.043
 2244WAT     H1 6943   3.070   2.084   0.983
 2244WAT     H2 6944   2.969   2.163   1.064
 2245WAT      O 6945   3.205   2.080   0.867
 2245WAT     H1 6946   3.193   1.986   0.854
 2245WAT     H2 6947   3.296   2.088   0.894
 2246WAT      O 6948   1.709   3.633   0.741
 2246WAT     H1 6949   1.683   3.581   0.818
 2246WAT     H2 6950   1.626   3.659   0.701
 2247WAT      O 6951   1.761   2.092   0.531
 2247WAT     H1 6952   1.832   2.108   0.469
 2247WAT     H2 6953   1.685   2.136   0.493
 2248WAT      O 6954   2.366   2.286   0.765
 2248WAT     H1 6955   2.294   2.228   0.743
 2248WAT     H2 6956   2.445   2.233   0.752
 2249WAT      O 6957   2.804   1.931   0.901
 2249WAT     H1 6958   2.872   1.965   0.959
 2249WAT     H2 6959   2.773   2.007   0.852
 2250WAT      O 6960   3.152   1.927   0.468
 2250WAT     H1 6961   3.154   2.020   0.490
 2250WAT     H2 6962   3.062   1.899   0.487
 2251WAT      O 6963   1.826   3.510   0.523
 2251WAT     H1 6964   1.801   3.575   0.458
 2251WAT     H2 6965   1.803   3.550   0.607
 2252WAT      O 6966   1.975   2.097   0.364
 2252WAT     H1 6967   2.032   2.020   0.374
 2252WAT     H2 6968   2.034   2.169   0.344
 2253WAT      O 6969   2.155   2.112   0.668
 2253WAT     H1 6970   2.089   2.046   0.686
 2253WAT     H2 6971   2.106   2.190   0.643
 2254WAT      O 6972   2.472   3.731   1.936
 2254WAT     H1 6973   2.525   3.663   1.895
 2254WAT     H2 6974   2.498   3.812   1.892
 2255WAT      O 6975   3.346   3.663   0.609
 2255WAT     H1 6976   3.330   3.573   0.579
 2255WAT     H2 6977   3.295   3.718   0.549
 2256WAT      O 6978   2.167   2.005   1.906
 2256WAT     H1 6979   2.137   2.061   1.834
 2256WAT     H2 6980   2.210   1.932   1.863
 2257WAT      O 6981   2.139   3.755   0.407
 2257WAT     H1 6982   2.194   3.701   0.351
 2257WAT     H2 6983   2.140   3.712   0.492
 2258WAT      O 6984   2.034   3.364   0.403
 2258WAT     H1 6985   1.968   3.418   0.447
 2258WAT     H2 6986   2.036   3.283   0.453
 2259WAT      O 6987   2.912   1.965   1.949
 2259WAT     H1 6988   2.868   1.988   2.031
 2259WAT     H2 6989   3.005   1.961   1.971
 2260WAT      O 6990   2.761   0.873   4.630
 2260WAT     H1 6991   2.747   0.779   4.617
 2260WAT     H2 6992   2.717   0.914   4.556
 2261WAT      O 6993   2.600   1.056   4.797
 2261WAT     H1 6994   2.542   1.013   4.860
 2261WAT     H2 6995   2.660   0.987   4.770
 2262WAT      O 6996   1.972   1.109   4.898
 2262WAT     H1 6997   1.906   1.049   4.931
 2262WAT     H2 6998   2.037   1.114   4.968
 2263WAT      O 6999   2.973   1.506   4.683
 2263WAT     H1 7000   2.931   1.420   4.685
 2263WAT     H2 7001   3.062   1.490   4.713
 2264WAT      O 7002   2.010   1.510   4.915
 2264WAT     H1 7003   2.077   1.447   4.891
 2264WAT     H2 7004   2.050   1.596   4.897
 2265WAT      O 7005   1.817   0.622   4.260
 2265WAT     H1 7006   1.722   0.619   4.265
 2265WAT     H2 7007   1.837   0.591   4.171
 2266WAT      O 7008   1.600   0.801   4.819
 2266WAT     H1 7009   1.664   0.730   4.827
 2266WAT     H2 7010   1.619   0.841   4.734
 2267WAT      O 7011   2.600   1.742   4.685
 2267WAT     H1 7012   2.537   1.765   4.617
 2267WAT     H2 7013   2.673   1.803   4.673
 2268WAT      O 7014   2.494   1.307   4.828
 2268WAT     H1 7015   2.524   1.219   4.806
 2268WAT     H2 7016   2.565   1.344   4.881
 2269WAT      O 7017   1.732   0.399   5.070
 2269WAT     H1 7018   1.736   0.329   5.135
 2269WAT     H2 7019   1.660   0.455   5.098
 2270WAT      O 7020   2.634   0.608   4.805
 2270WAT     H1 7021   2.696   0.547   4.844
 2270WAT     H2 7022   2.658   0.612   4.713
 2271WAT      O 7023   2.042   0.459   4.299
 2271WAT     H1 7024   2.111   0.509   4.343
 2271WAT     H2 7025   1.964   0.513   4.309
 2272WAT      O 7026   3.017   0.378   4.518
 2272WAT     H1 7027   3.105   0.342   4.526
 2272WAT     H2 7028   3.008   0.436   4.594
 2273WAT      O 7029   1.796   0.615   4.886
 2273WAT     H1 7030   1.876   0.647   4.925
 2273WAT     H2 7031   1.773   0.538   4.938
 2274WAT      O 7032   2.228   0.798   4.820
 2274WAT     H1 7033   2.290   0.851   4.871
 2274WAT     H2 7034   2.273   0.714   4.810
 2275WAT      O 7035   3.408   0.559   5.171
 2275WAT     H1 7036   3.349   0.634   5.161
 2275WAT     H2 7037   3.466   0.583   5.243
 2276WAT      O 7038   2.721   1.259   4.411
 2276WAT     H1 7039   2.695   1.264   4.319
 2276WAT     H2 7040   2.687   1.339   4.451
 2277WAT      O 7041   2.194   1.193   5.062
 2277WAT     H1 7042   2.156   1.253   5.126
 2277WAT     H2 7043   2.211   1.248   4.985
 2278WAT      O 7044   3.052   0.514   4.772
 2278WAT     H1 7045   2.967   0.519   4.816
 2278WAT     H2 7046   3.079   0.605   4.761
 2279WAT      O 7047   2.003   0.401   4.975
 2279WAT     H1 7048   2.028   0.492   4.993
 2279WAT     H2 7049   1.918   0.391   5.019
 2280WAT      O 7050   2.112   1.398   5.228
 2280WAT     H1 7051   2.173   1.465   5.198
 2280WAT     H2 7052   2.026   1.434   5.209
 2281WAT      O 7053   3.141   1.507   5.019
 2281WAT     H1 7054   3.113   1.585   5.068
 2281WAT     H2 7055   3.179   1.542   4.938
 2282WAT      O 7056   3.316   0.471   4.870
 2282WAT     H1 7057   3.222   0.486   4.860
 2282WAT     H2 7058   3.339   0.516   4.952
 2283WAT      O 7059   2.922   1.711   4.865
 2283WAT     H1 7060   2.943   1.641   4.803
 2283WAT     H2 7061   2.862   1.768   4.817
 2284WAT      O 7062   3.081   1.343   4.374
 2284WAT     H1 7063   3.075   1.253   4.407
 2284WAT     H2 7064   3.016   1.391   4.424
 2285WAT      O 7065   2.915   1.177   5.019
 2285WAT     H1 7066   2.978   1.159   4.949
 2285WAT     H2 7067   2.965   1.226   5.084
 2286WAT      O 7068   2.644   0.991   4.410
 2286WAT     H1 7069   2.549   0.997   4.406
 2286WAT     H2 7070   2.674   1.082   4.409
 2287WAT      O 7071   2.623   0.542   4.047
 2287WAT     H1 7072   2.541   0.574   4.085
 2287WAT     H2 7073   2.687   0.610   4.067
 2288WAT      O 7074   3.261   1.019   5.052
 2288WAT     H1 7075   3.203   1.050   4.982
 2288WAT     H2 7076   3.344   1.063   5.036
 2289WAT      O 7077   3.037   1.078   4.433
 2289WAT     H1 7078   2.955   1.056   4.388
 2289WAT     H2 7079   3.028   1.040   4.520
 2290WAT      O 7080   2.968   0.713   5.179
 2290WAT     H1 7081   2.928   0.800   5.182
 2290WAT     H2 7082   2.896   0.654   5.159
 2291WAT      O 7083   2.182   0.962   4.599
 2291WAT     H1 7084   2.134   0.894   4.552
 2291WAT     H2 7085   2.205   0.921   4.683
 2292WAT      O 7086   2.227   1.356   4.839
 2292WAT     H1 7087   2.191   1.305   4.767
 2292WAT     H2 7088   2.322   1.345   4.831
 2293WAT      O 7089   2.041   0.680   4.994
 2293WAT     H1 7090   2.093   0.718   4.923
 2293WAT     H2 7091   2.076   0.720   5.074
 2294WAT      O 7092   3.043   1.689   5.203
 2294WAT     H1 7093   2.998   1.768   5.170
 2294WAT     H2 7094   2.972   1.636   5.240
 2295WAT      O 7095   2.162   1.341   5.490
 2295WAT     H1 7096   2.103   1.268   5.510
 2295WAT     H2 7097   2.147   1.359   5.398
 2296WAT      O 7098   2.871   1.043   4.094
 2296WAT     H1 7099   2.922   0.968   4.065
 2296WAT     H2 7100   2.936   1.112   4.108
 2297WAT      O 7101   2.003   1.014   5.320
 2297WAT     H1 7102   1.956   1.097   5.329
 2297WAT     H2 7103   1.937   0.952   5.288
 2298WAT      O 7104   2.628   1.501   4.512
 2298WAT     H1 7105   2.700   1.558   4.483
 2298WAT     H2 7106   2.604   1.535   4.598
 2299WAT      O 7107   2.201   1.602   5.598
 2299WAT     H1 7108   2.207   1.654   5.518
 2299WAT     H2 7109   2.193   1.511   5.567
 2300WAT      O 7110   1.827   0.867   4.385
 2300WAT     H1 7111   1.846   0.935   4.320
 2300WAT     H2 7112   1.825   0.786   4.334
 2301WAT      O 7113   1.607   1.165   4.989
 2301WAT     H1 7114   1.590   1.178   4.895
 2301WAT     H2 7115   1.674   1.097   4.991
 2302WAT      O 7116   1.776   1.334   4.631
 2302WAT     H1 7117   1.801   1.364   4.544
 2302WAT     H2 7118   1.857   1.299   4.668
 2303WAT      O 7119   3.329   1.368   5.376
 2303WAT     H1 7120   3.403   1.373   5.315
 2303WAT     H2 7121   3.293   1.280   5.363
 2304WAT      O 7122   2.698   1.724   5.280
 2304WAT     H1 7123   2.746   1.718   5.362
 2304WAT     H2 7124   2.615   1.765   5.303
 2305WAT      O 7125   2.958   1.717   4.244
 2305WAT     H1 7126   2.914   1.703   4.327
 2305WAT     H2 7127   2.913   1.661   4.182
 2306WAT      O 7128   2.175   1.688   4.465
 2306WAT     H1 7129   2.150   1.596   4.466
 2306WAT     H2 7130   2.091   1.735   4.469
 2307WAT      O 7131   2.881   1.546   4.043
 2307WAT     H1 7132   2.820   1.537   3.970
 2307WAT     H2 7133   2.963   1.507   4.011
 2308WAT      O 7134   2.853   1.675   4.499
 2308WAT     H1 7135   2.903   1.620   4.559
 2308WAT     H2 7136   2.858   1.763   4.536
 2309WAT      O 7137   3.336   0.642   5.513
 2309WAT     H1 7138   3.308   0.730   5.490
 2309WAT     H2 7139   3.255   0.590   5.510
 2310WAT      O 7140   1.663   1.333   5.198
 2310WAT     H1 7141   1.637   1.280   5.122
 2310WAT     H2 7142   1.720   1.276   5.249
 2311WAT      O 7143   2.123   0.336   4.739
 2311WAT     H1 7144   2.070   0.390   4.679
 2311WAT     H2 7145   2.080   0.346   4.824
 2312WAT      O 7146   2.510   0.516   5.250
 2312WAT     H1 7147   2.466   0.536   5.333
 2312WAT     H2 7148   2.471   0.434   5.220
 2313WAT      O 7149   3.066   0.572   5.402
 2313WAT     H1 7150   2.987   0.554   5.453
 2313WAT     H2 7151   3.036   0.630   5.332
 2314WAT      O 7152   2.760   0.723   5.533
 2314WAT     H1 7153   2.777   0.629   5.533
 2314WAT     H2 7154   2.845   0.762   5.554
 2315WAT      O 7155   2.333   0.326   4.936
 2315WAT     H1 7156   2.349   0.415   4.906
 2315WAT     H2 7157   2.264   0.293   4.878
 2316WAT      O 7158   2.043   0.738   4.512
 2316WAT     H1 7159   2.006   0.667   4.564
 2316WAT     H2 7160   1.967   0.782   4.475
 2317WAT      O 7161   2.734   0.738   4.317
 2317WAT     H1 7162   2.707   0.830   4.322
 2317WAT     H2 7163   2.787   0.733   4.238
 2318WAT      O 7164   2.307   0.807   5.524
 2318WAT     H1 7165   2.325   0.713   5.512
 2318WAT     H2 7166   2.393   0.848   5.518
 2319WAT      O 7167   2.718   0.608   4.550
 2319WAT     H1 7168   2.721   0.651   4.465
 2319WAT     H2 7169   2.715   0.515   4.530
 2320WAT      O 7170   1.862   0.400   5.368
 2320WAT     H1 7171   1.814   0.482   5.366
 2320WAT     H2 7172   1.795   0.332   5.359
 2321WAT      O 7173   1.599   0.271   4.778
 2321WAT     H1 7174   1.542   0.337   4.817
 2321WAT     H2 7175   1.655   0.241   4.849
 2322WAT      O 7176   1.593   0.585   3.863
 2322WAT     H1 7177   1.586   0.664   3.916
 2322WAT     H2 7178   1.534   0.600   3.789
 2323WAT      O 7179   2.683   0.813   4.981
 2323WAT     H1 7180   2.611   0.802   5.043
 2323WAT     H2 7181   2.668   0.745   4.915
 2324WAT      O 7182   2.369   0.567   4.801
 2324WAT     H1 7183   2.363   0.521   4.717
 2324WAT     H2 7184   2.462   0.586   4.811
 2325WAT      O 7185   1.918   0.532   4.645
 2325WAT     H1 7186   1.880   0.560   4.728
 2325WAT     H2 7187   1.847   0.484   4.601
 2326WAT      O 7188   2.374   0.614   4.147
 2326WAT     H1 7189   2.343   0.622   4.237
 2326WAT     H2 7190   2.352   0.698   4.106
 2327WAT      O 7191   2.824   0.452   4.913
 2327WAT     H1 7192   2.807   0.472   5.005
 2327WAT     H2 7193   2.863   0.364   4.914
 2328WAT      O 7194   2.316   0.840   3.999
 2328WAT     H1 7195   2.246   0.804   3.944
 2328WAT     H2 7196   2.386   0.861   3.937
 2329WAT      O 7197   1.813   1.205   5.396
 2329WAT     H1 7198   1.763   1.135   5.439
 2329WAT     H2 7199   1.813   1.277   5.459
 2330WAT      O 7200   2.388   0.958   4.975
 2330WAT     H1 7201   2.412   0.897   5.046
 2330WAT     H2 7202   2.318   1.011   5.013
 2331WAT      O 7203   1.697   0.396   4.552
 2331WAT     H1 7204   1.670   0.332   4.619
 2331WAT     H2 7205   1.705   0.344   4.472
 2332WAT      O 7206   2.171   0.817   5.194
 2332WAT     H1 7207   2.140   0.891   5.246
 2332WAT     H2 7208   2.264   0.810   5.215
 2333WAT      O 7209   2.069   1.227   4.287
 2333WAT     H1 7210   1.987   1.181   4.267
 2333WAT     H2 7211   2.137   1.174   4.244
 2334WAT      O 7212   3.134   1.127   4.836
 2334WAT     H1 7213   3.214   1.156   4.792
 2334WAT     H2 7214   3.090   1.071   4.773
 2335WAT      O 7215   2.660   0.317   4.204
 2335WAT     H1 7216   2.595   0.256   4.167
 2335WAT     H2 7217   2.647   0.398   4.154
 2336WAT      O 7218   2.655   1.127   5.466
 2336WAT     H1 7219   2.646   1.041   5.427
 2336WAT     H2 7220   2.569   1.146   5.503
 2337WAT      O 7221   2.878   0.688   4.090
 2337WAT     H1 7222   2.946   0.748   4.059
 2337WAT     H2 7223   2.914   0.601   4.072
 2338WAT      O 7224   2.063   1.207   4.665
 2338WAT     H1 7225   2.100   1.129   4.624
 2338WAT     H2 7226   2.024   1.176   4.746
 2339WAT      O 7227   2.551   1.300   4.186
 2339WAT     H1 7228   2.527   1.379   4.139
 2339WAT     H2 7229   2.490   1.296   4.260
 2340WAT      O 7230   1.759   0.882   5.270
 2340WAT     H1 7231   1.723   0.929   5.345
 2340WAT     H2 7232   1.747   0.789   5.291
 2341WAT      O 7233   2.067   0.927   5.572
 2341WAT     H1 7234   2.055   0.967   5.486
 2341WAT     H2 7235   2.157   0.893   5.570
 2342WAT      O 7236   2.664   1.387   5.381
 2342WAT     H1 7237   2.666   1.295   5.407
 2342WAT     H2 7238   2.575   1.415   5.402
 2343WAT      O 7239   3.066   0.869   3.997
 2343WAT     H1 7240   3.061   0.874   3.902
 2343WAT     H2 7241   3.154   0.902   4.018
 2344WAT      O 7242   3.218   1.127   5.297
 2344WAT     H1 7243   3.146   1.188   5.278
 2344WAT     H2 7244   3.238   1.087   5.213
 2345WAT      O 7245   3.293   1.504   4.296
 2345WAT     H1 7246   3.220   1.447   4.321
 2345WAT     H2 7247   3.259   1.554   4.221
 2346WAT      O 7248   2.839   1.266   4.670
 2346WAT     H1 7249   2.802   1.246   4.584
 2346WAT     H2 7250   2.792   1.208   4.730
 2347WAT      O 7251   2.404   1.340   4.422
 2347WAT     H1 7252   2.468   1.399   4.463
 2347WAT     H2 7253   2.319   1.379   4.444
 2348WAT      O 7254   1.578   0.824   4.002
 2348WAT     H1 7255   1.674   0.832   4.003
 2348WAT     H2 7256   1.547   0.908   3.969
 2349WAT      O 7257   2.373   1.060   4.415
 2349WAT     H1 7258   2.380   1.154   4.431
 2349WAT     H2 7259   2.314   1.029   4.483
 2350WAT      O 7260   2.552   1.579   5.092
 2350WAT     H1 7261   2.606   1.619   5.160
 2350WAT     H2 7262   2.603   1.504   5.062
 2351WAT      O 7263   2.720   1.382   4.977
 2351WAT     H1 7264   2.766   1.301   5.000
 2351WAT     H2 7265   2.788   1.439   4.942
 2352WAT      O 7266   3.092   1.403   3.929
 2352WAT     H1 7267   3.079   1.328   3.987
 2352WAT     H2 7268   3.081   1.368   3.841
 2353WAT      O 7269   2.910   1.492   5.364
 2353WAT     H1 7270   2.899   1.570   5.419
 2353WAT     H2 7271   2.823   1.452   5.361
 2354WAT      O 7272   1.646   0.237   5.311
 2354WAT     H1 7273   1.553   0.251   5.328
 2354WAT     H2 7274   1.661   0.146   5.335
 2355WAT      O 7275   3.078   1.217   4.127
 2355WAT     H1 7276   3.076   1.270   4.207
 2355WAT     H2 7277   3.155   1.162   4.137
 2356WAT      O 7278   1.655   1.651   5.467
 2356WAT     H1 7279   1.645   1.568   5.515
 2356WAT     H2 7280   1.571   1.661   5.421
 2357WAT      O 7281   1.860   1.070   4.186
 2357WAT     H1 7282   1.777   1.091   4.143
 2357WAT     H2 7283   1.921   1.053   4.115
 2358WAT      O 7284   2.779   0.508   5.172
 2358WAT     H1 7285   2.821   0.442   5.228
 2358WAT     H2 7286   2.689   0.514   5.206
 2359WAT      O 7287   3.116   0.449   4.264
 2359WAT     H1 7288   3.061   0.443   4.186
 2359WAT     H2 7289   3.059   0.420   4.335
 2360WAT      O 7290   2.259   0.607   4.397
 2360WAT     H1 7291   2.203   0.664   4.448
 2360WAT     H2 7292   2.305   0.553   4.462
 2361WAT      O 7293   2.466   0.781   5.172
 2361WAT     H1 7294   2.522   0.821   5.239
 2361WAT     H2 7295   2.476   0.687   5.185
 2362WAT      O 7296   2.724   0.349   4.472
 2362WAT     H1 7297   2.703   0.331   4.380
 2362WAT     H2 7298   2.817   0.332   4.479
 2363WAT      O 7299   2.414   1.807   4.493
 2363WAT     H1 7300   2.447   1.810   4.403
 2363WAT     H2 7301   2.330   1.763   4.486
 2364WAT      O 7302   2.208   0.399   4.091
 2364WAT     H1 7303   2.269   0.472   4.108
 2364WAT     H2 7304   2.145   0.404   4.162
 2365WAT      O 7305   3.218   0.381   5.284
 2365WAT     H1 7306   3.172   0.449   5.334
 2365WAT     H2 7307   3.286   0.429   5.236
 2366WAT      O 7308   3.023   0.945   4.667
 2366WAT     H1 7309   2.933   0.913   4.669
 2366WAT     H2 7310   3.076   0.868   4.691
 2367WAT      O 7311   2.039   1.028   3.979
 2367WAT     H1 7312   2.118   1.040   4.033
 2367WAT     H2 7313   2.071   1.031   3.889
 2368WAT      O 7314   1.849   0.829   3.991
 2368WAT     H1 7315   1.880   0.741   4.009
 2368WAT     H2 7316   1.928   0.883   3.990
 2369WAT      O 7317   3.244   1.635   4.788
 2369WAT     H1 7318   3.277   1.702   4.848
 2369WAT     H2 7319   3.322   1.605   4.741
 2370WAT      O 7320   2.002   1.867   4.781
 2370WAT     H1 7321   2.073   1.812   4.814
 2370WAT     H2 7322   2.040   1.954   4.773
 2371WAT      O 7323   2.870   1.724   5.499
 2371WAT     H1 7324   2.937   1.791   5.484
 2371WAT     H2 7325   2.846   1.734   5.591
 2372WAT      O 7326   3.197   1.697   4.125
 2372WAT     H1 7327   3.190   1.734   4.037
 2372WAT     H2 7328   3.110   1.712   4.164
 2373WAT      O 7329   1.675   0.996   5.513
 2373WAT     H1 7330   1.718   0.955   5.588
 2373WAT     H2 7331   1.582   0.979   5.526
 2374WAT      O 7332   2.395   1.188   5.506
 2374WAT     H1 7333   2.322   1.249   5.520
 2374WAT     H2 7334   2.381   1.155   5.417
 2375WAT      O 7335   2.660   1.157   3.967
 2375WAT     H1 7336   2.612   1.197   4.040
 2375WAT     H2 7337   2.732   1.110   4.008
 2376WAT      O 7338   3.073   1.327   5.517
 2376WAT     H1 7339   3.163   1.353   5.498
 2376WAT     H2 7340   3.019   1.391   5.471
 2377WAT      O 7341   2.244   1.043   4.170
 2377WAT     H1 7342   2.297   1.041   4.250
 2377WAT     H2 7343   2.279   0.970   4.117
 2378WAT      O 7344   1.944   0.696   5.480
 2378WAT     H1 7345   2.017   0.643   5.447
 2378WAT     H2 7346   1.986   0.770   5.523
 2379WAT      O 7347   2.541   0.911   3.835
 2379WAT     H1 7348   2.621   0.869   3.804
 2379WAT     H2 7349   2.569   0.996   3.868
 2380WAT      O 7350   2.930   1.100   5.455
 2380WAT     H1 7351   2.982   1.174   5.486
 2380WAT     H2 7352   2.840   1.123   5.476
 2381WAT      O 7353   3.002   0.850   5.544
 2381WAT     H1 7354   3.091   0.845   5.511
 2381WAT     H2 7355   2.973   0.939   5.523
 2382WAT      O 7356   2.134   0.413   5.397
 2382WAT     H1 7357   2.159   0.363   5.319
 2382WAT     H2 7358   2.038   0.405   5.400
 2383WAT      O 7359   2.392   0.271   5.195
 2383WAT     H1 7360   2.373   0.294   5.104
 2383WAT     H2 7361   2.367   0.179   5.202
 2384WAT      O 7362   2.379   1.114   5.246
 2384WAT     H1 7363   2.459   1.112   5.194
 2384WAT     H2 7364   2.311   1.140   5.184
 2385WAT      O 7365   2.649   0.879   5.346
 2385WAT     H1 7366   2.682   0.821   5.415
 2385WAT     H2 7367   2.726   0.900   5.293
 2386WAT      O 7368   2.875   0.969   5.216
 2386WAT     H1 7369   2.873   1.030   5.142
 2386WAT     H2 7370   2.906   1.021   5.289
 2387WAT      O 7371   2.107   0.715   3.861
 2387WAT     H1 7372   2.086   0.623   3.875
 2387WAT     H2 7373   2.105   0.727   3.766
 2388WAT      O 7374   2.200   1.743   5.354
 2388WAT     H1 7375   2.107   1.760   5.343
 2388WAT     H2 7376   2.226   1.695   5.276
 2389WAT      O 7377   2.360   0.540   5.481
 2389WAT     H1 7378   2.414   0.472   5.523
 2389WAT     H2 7379   2.278   0.496   5.461
 2390WAT      O 7380   2.807   0.450   5.491
 2390WAT     H1 7381   2.719   0.416   5.506
 2390WAT     H2 7382   2.851   0.382   5.439
 2391WAT      O 7383   2.048   0.446   3.873
 2391WAT     H1 7384   2.085   0.416   3.790
 2391WAT     H2 7385   2.109   0.414   3.939
 2392WAT      O 7386   2.469   1.844   5.344
 2392WAT     H1 7387   2.481   1.933   5.377
 2392WAT     H2 7388   2.377   1.825   5.361
 2393WAT      O 7389   2.388   0.241   3.963
 2393WAT     H1 7390   2.347   0.157   3.946
 2393WAT     H2 7391   2.322   0.290   4.013
 2394WAT      O 7392   1.626   1.572   4.697
 2394WAT     H1 7393   1.677   1.491   4.695
 2394WAT     H2 7394   1.644   1.609   4.783
 2395WAT      O 7395   2.134   1.407   4.479
 2395WAT     H1 7396   2.107   1.352   4.552
 2395WAT     H2 7397   2.110   1.357   4.401
 2396WAT      O 7398   1.618   1.722   4.925
 2396WAT     H1 7399   1.590   1.742   5.014
 2396WAT     H2 7400   1.664   1.801   4.896
 2397WAT      O 7401   3.288   1.639   5.334
 2397WAT     H1 7402   3.203   1.659   5.294
 2397WAT     H2 7403   3.287   1.543   5.345
 2398WAT      O 7404   3.375   1.380   3.944
 2398WAT     H1 7405   3.282   1.400   3.946
 2398WAT     H2 7406   3.417   1.462   3.918
 2399WAT      O 7407   3.303   1.063   4.152
 2399WAT     H1 7408   3.378   1.121   4.163
 2399WAT     H2 7409   3.300   1.012   4.233
 2400WAT      O 7410   1.624   0.931   4.567
 2400WAT     H1 7411   1.550   0.931   4.506
 2400WAT     H2 7412   1.700   0.910   4.514
 2401WAT      O 7413   3.414   1.157   4.722
 2401WAT     H1 7414   3.441   1.077   4.677
 2401WAT     H2 7415   3.466   1.226   4.680
 2402WAT      O 7416   3.054   1.324   5.197
 2402WAT     H1 7417   3.004   1.382   5.254
 2402WAT     H2 7418   3.096   1.382   5.134
 2403WAT      O 7419   3.398   1.101   3.892
 2403WAT     H1 7420   3.405   1.196   3.889
 2403WAT     H2 7421   3.349   1.083   3.973
 2404WAT      O 7422   2.961   0.428   4.037
 2404WAT     H1 7423   3.002   0.406   3.954
 2404WAT     H2 7424   2.885   0.370   4.043
 2405WAT      O 7425   3.278   0.937   4.395
 2405WAT     H1 7426   3.251   0.845   4.396
 2405WAT     H2 7427   3.199   0.986   4.415
 2406WAT      O 7428   1.770   0.950   5.004
 2406WAT     H1 7429   1.770   0.920   5.095
 2406WAT     H2 7430   1.717   0.886   4.957
 2407WAT      O 7431   3.252   0.880   5.409
 2407WAT     H1 7432   3.249   0.835   5.325
 2407WAT     H2 7433   3.237   0.972   5.388
 2408WAT      O 7434   1.700   0.632   5.383
 2408WAT     H1 7435   1.628   0.630   5.447
 2408WAT     H2 7436   1.777   0.654   5.435
 2409WAT      O 7437   1.551   0.642   4.205
 2409WAT     H1 7438   1.481   0.668   4.265
 2409WAT     H2 7439   1.552   0.711   4.138
 2410WAT      O 7440   3.207   0.746   4.733
 2410WAT     H1 7441   3.251   0.692   4.668
 2410WAT     H2 7442   3.279   0.783   4.785
 2411WAT      O 7443   3.235   0.766   5.155
 2411WAT     H1 7444   3.141   0.747   5.151
 2411WAT     H2 7445   3.244   0.849   5.107
 2412WAT      O 7446   1.834   0.547   4.001
 2412WAT     H1 7447   1.903   0.502   3.953
 2412WAT     H2 7448   1.757   0.540   3.945
 2413WAT      O 7449   3.228   0.669   4.387
 2413WAT     H1 7450   3.269   0.623   4.460
 2413WAT     H2 7451   3.178   0.602   4.341
 2414WAT      O 7452   3.347   0.542   4.599
 2414WAT     H1 7453   3.342   0.513   4.690
 2414WAT     H2 7454   3.429   0.505   4.566
 2415WAT      O 7455   3.323   0.363   3.898
 2415WAT     H1 7456   3.383   0.435   3.877
 2415WAT     H2 7457   3.339   0.344   3.990
 2416WAT      O 7458   3.373   0.391   4.171
 2416WAT     H1 7459   3.285   0.395   4.208
 2416WAT     H2 7460   3.403   0.482   4.170
 2417WAT      O 7461   3.155   1.822   4.599
 2417WAT     H1 7462   3.208   1.799   4.522
 2417WAT     H2 7463   3.173   1.753   4.662
 2418WAT      O 7464   2.275   1.596   5.130
 2418WAT     H1 7465   2.249   1.631   5.044
 2418WAT     H2 7466   2.370   1.586   5.125
 2419WAT      O 7467   2.548   0.321   5.507
 2419WAT     H1 7468   2.533   0.249   5.568
 2419WAT     H2 7469   2.519   0.286   5.422
 2420WAT      O 7470   3.409   1.822   5.167
 2420WAT     H1 7471   3.333   1.880   5.175
 2420WAT     H2 7472   3.387   1.747   5.223
 2421WAT      O 7473   1.892   1.719   5.326
 2421WAT     H1 7474   1.812   1.696   5.373
 2421WAT     H2 7475   1.897   1.655   5.255
 2422WAT      O 7476   2.941   0.302   5.280
 2422WAT     H1 7477   2.936   0.230   5.216
 2422WAT     H2 7478   3.034   0.324   5.285
 2423WAT      O 7479   3.111   1.886   4.969
 2423WAT     H1 7480   3.080   1.958   4.914
 2423WAT     H2 7481   3.053   1.812   4.947
 2424WAT      O 7482   1.874   1.510   5.152
 2424WAT     H1 7483   1.792   1.461   5.153
 2424WAT     H2 7484   1.902   1.509   5.060
 2425WAT      O 7485   2.221   1.704   4.864
 2425WAT     H1 7486   2.250   1.640   4.799
 2425WAT     H2 7487   2.300   1.755   4.884
 2426WAT      O 7488   2.480   1.787   4.924
 2426WAT     H1 7489   2.527   1.768   4.843
 2426WAT     H2 7490   2.510   1.720   4.985
 2427WAT      O 7491   3.010   0.250   4.874
 2427WAT     H1 7492   3.058   0.177   4.834
 2427WAT     H2 7493   3.044   0.328   4.830
 2428WAT      O 7494   1.669   1.778   4.513
 2428WAT     H1 7495   1.663   1.704   4.574
 2428WAT     H2 7496   1.579   1.802   4.495
 2429WAT      O 7497   1.710   0.272   4.310
 2429WAT     H1 7498   1.786   0.290   4.255
 2429WAT     H2 7499   1.634   0.294   4.255
 2430WAT      O 7500   2.374   0.420   4.570
 2430WAT     H1 7501   2.316   0.349   4.597
 2430WAT     H2 7502   2.455   0.376   4.545
 2431WAT      O 7503   3.313   1.766   4.379
 2431WAT     H1 7504   3.317   1.671   4.369
 2431WAT     H2 7505   3.268   1.797   4.301
 2432WAT      O 7506   2.748   0.877   2.749
 2432WAT     H1 7507   2.738   0.783   2.738
 2432WAT     H2 7508   2.710   0.915   2.670
 2433WAT      O 7509   2.617   1.058   2.914
 2433WAT     H1 7510   2.566   1.009   2.978
 2433WAT     H2 7511   2.665   0.992   2.865
 2434WAT      O 7512   1.975   1.092   3.006
 2434WAT     H1 7513   1.905   1.039   3.045
 2434WAT     H2 7514   2.043   1.094   3.074
 2435WAT      O 7515   2.961   1.526   2.814
 2435WAT     H1 7516   2.928   1.436   2.815
 2435WAT     H2 7517   3.054   1.518   2.835
 2436WAT      O 7518   2.032   1.527   3.084
 2436WAT     H1 7519   2.090   1.461   3.046
 2436WAT     H2 7520   2.068   1.610   3.054
 2437WAT      O 7521   1.809   0.618   2.382
 2437WAT     H1 7522   1.714   0.625   2.384
 2437WAT     H2 7523   1.830   0.587   2.294
 2438WAT      O 7524   1.588   0.780   2.932
 2438WAT     H1 7525   1.664   0.723   2.946
 2438WAT     H2 7526   1.610   0.830   2.854
 2439WAT      O 7527   2.588   1.745   2.786
 2439WAT     H1 7528   2.526   1.771   2.718
 2439WAT     H2 7529   2.659   1.808   2.780
 2440WAT      O 7530   2.487   1.293   2.970
 2440WAT     H1 7531   2.523   1.212   2.935
 2440WAT     H2 7532   2.560   1.334   3.016
 2441WAT      O 7533   1.738   0.410   3.204
 2441WAT     H1 7534   1.743   0.344   3.273
 2441WAT     H2 7535   1.666   0.467   3.231
 2442WAT      O 7536   2.635   0.610   2.932
 2442WAT     H1 7537   2.696   0.547   2.972
 2442WAT     H2 7538   2.661   0.613   2.840
 2443WAT      O 7539   2.039   0.462   2.421
 2443WAT     H1 7540   2.106   0.512   2.466
 2443WAT     H2 7541   1.959   0.514   2.431
 2444WAT      O 7542   3.027   0.379   2.643
 2444WAT     H1 7543   3.120   0.357   2.648
 2444WAT     H2 7544   3.011   0.434   2.720
 2445WAT      O 7545   1.801   0.620   3.015
 2445WAT     H1 7546   1.883   0.651   3.054
 2445WAT     H2 7547   1.777   0.544   3.067
 2446WAT      O 7548   2.241   0.797   2.962
 2446WAT     H1 7549   2.312   0.842   3.008
 2446WAT     H2 7550   2.276   0.710   2.943
 2447WAT      O 7551   3.418   0.568   3.327
 2447WAT     H1 7552   3.356   0.637   3.303
 2447WAT     H2 7553   3.471   0.606   3.397
 2448WAT      O 7554   2.728   1.268   2.542
 2448WAT     H1 7555   2.701   1.269   2.450
 2448WAT     H2 7556   2.689   1.347   2.579
 2449WAT      O 7557   2.195   1.169   3.174
 2449WAT     H1 7558   2.142   1.212   3.241
 2449WAT     H2 7559   2.206   1.235   3.106
 2450WAT      O 7560   3.046   0.513   2.897
 2450WAT     H1 7561   2.963   0.516   2.944
 2450WAT     H2 7562   3.071   0.604   2.885
 2451WAT      O 7563   2.000   0.399   3.098
 2451WAT     H1 7564   2.031   0.488   3.119
 2451WAT     H2 7565   1.915   0.392   3.141
 2452WAT      O 7566   2.068   1.295   3.383
 2452WAT     H1 7567   2.135   1.347   3.428
 2452WAT     H2 7568   2.001   1.359   3.359
 2453WAT      O 7569   1.628   1.247   2.271
 2453WAT     H1 7570   1.600   1.301   2.197
 2453WAT     H2 7571   1.644   1.310   2.342
 2454WAT      O 7572   3.162   1.493   3.148
 2454WAT     H1 7573   3.130   1.577   3.181
 2454WAT     H2 7574   3.195   1.514   3.060
 2455WAT      O 7575   3.313   0.478   2.984
 2455WAT     H1 7576   3.218   0.485   2.976
 2455WAT     H2 7577   3.338   0.545   3.047
 2456WAT      O 7578   2.930   1.708   3.031
 2456WAT     H1 7579   2.932   1.647   2.957
 2456WAT     H2 7580   2.862   1.772   3.009
 2457WAT      O 7581   3.081   1.344   2.503
 2457WAT     H1 7582   3.075   1.253   2.532
 2457WAT     H2 7583   3.001   1.385   2.538
 2458WAT      O 7584   2.931   1.174   3.156
 2458WAT     H1 7585   2.989   1.154   3.083
 2458WAT     H2 7586   2.984   1.224   3.217
 2459WAT      O 7587   2.640   0.998   2.528
 2459WAT     H1 7588   2.546   1.006   2.516
 2459WAT     H2 7589   2.672   1.088   2.529
 2460WAT      O 7590   2.623   0.541   2.168
 2460WAT     H1 7591   2.543   0.577   2.205
 2460WAT     H2 7592   2.689   0.609   2.184
 2461WAT      O 7593   3.260   1.011   3.173
 2461WAT     H1 7594   3.204   1.041   3.101
 2461WAT     H2 7595   3.342   1.057   3.160
 2462WAT      O 7596   3.037   1.075   2.546
 2462WAT     H1 7597   2.961   1.051   2.494
 2462WAT     H2 7598   3.021   1.036   2.632
 2463WAT      O 7599   2.963   0.713   3.297
 2463WAT     H1 7600   2.922   0.800   3.299
 2463WAT     H2 7601   2.891   0.653   3.278
 2464WAT      O 7602   2.200   0.949   2.725
 2464WAT     H1 7603   2.147   0.884   2.681
 2464WAT     H2 7604   2.218   0.912   2.811
 2465WAT      O 7605   2.222   1.356   2.973
 2465WAT     H1 7606   2.185   1.309   2.897
 2465WAT     H2 7607   2.317   1.343   2.965
 2466WAT      O 7608   2.046   0.677   3.132
 2466WAT     H1 7609   2.103   0.720   3.068
 2466WAT     H2 7610   2.077   0.711   3.216
 2467WAT      O 7611   3.016   1.651   3.353
 2467WAT     H1 7612   2.968   1.694   3.281
 2467WAT     H2 7613   2.948   1.609   3.405
 2468WAT      O 7614   2.882   1.043   2.251
 2468WAT     H1 7615   2.932   0.973   2.209
 2468WAT     H2 7616   2.940   1.118   2.248
 2469WAT      O 7617   2.030   1.026   3.455
 2469WAT     H1 7618   2.034   1.117   3.425
 2469WAT     H2 7619   1.942   0.997   3.432
 2470WAT      O 7620   2.631   1.512   2.627
 2470WAT     H1 7621   2.700   1.566   2.588
 2470WAT     H2 7622   2.601   1.562   2.703
 2471WAT      O 7623   1.830   0.864   2.509
 2471WAT     H1 7624   1.837   0.934   2.444
 2471WAT     H2 7625   1.825   0.784   2.457
 2472WAT      O 7626   3.470   1.629   3.871
 2472WAT     H1 7627   3.511   1.692   3.931
 2472WAT     H2 7628   3.502   1.653   3.785
 2473WAT      O 7629   1.597   1.151   3.109
 2473WAT     H1 7630   1.581   1.164   3.016
 2473WAT     H2 7631   1.672   1.091   3.112
 2474WAT      O 7632   1.713   1.343   2.716
 2474WAT     H1 7633   1.694   1.371   2.627
 2474WAT     H2 7634   1.806   1.322   2.716
 2475WAT      O 7635   3.328   1.380   3.525
 2475WAT     H1 7636   3.381   1.378   3.445
 2475WAT     H2 7637   3.339   1.293   3.563
 2476WAT      O 7638   2.894   1.803   2.352
 2476WAT     H1 7639   2.883   1.766   2.439
 2476WAT     H2 7640   2.881   1.729   2.292
 2477WAT      O 7641   2.157   1.745   2.501
 2477WAT     H1 7642   2.129   1.656   2.523
 2477WAT     H2 7643   2.082   1.800   2.527
 2478WAT      O 7644   2.838   1.592   2.184
 2478WAT     H1 7645   2.745   1.570   2.179
 2478WAT     H2 7646   2.880   1.528   2.127
 2479WAT      O 7647   2.859   1.693   2.610
 2479WAT     H1 7648   2.902   1.637   2.674
 2479WAT     H2 7649   2.845   1.776   2.656
 2480WAT      O 7650   3.304   0.637   3.653
 2480WAT     H1 7651   3.284   0.725   3.620
 2480WAT     H2 7652   3.225   0.586   3.637
 2481WAT      O 7653   1.658   1.348   3.296
 2481WAT     H1 7654   1.625   1.288   3.229
 2481WAT     H2 7655   1.684   1.292   3.369
 2482WAT      O 7656   2.118   0.338   2.858
 2482WAT     H1 7657   2.064   0.393   2.801
 2482WAT     H2 7658   2.077   0.346   2.944
 2483WAT      O 7659   2.519   0.516   3.402
 2483WAT     H1 7660   2.468   0.531   3.482
 2483WAT     H2 7661   2.480   0.437   3.364
 2484WAT      O 7662   3.053   0.581   3.524
 2484WAT     H1 7663   2.974   0.568   3.577
 2484WAT     H2 7664   3.023   0.631   3.448
 2485WAT      O 7665   2.771   0.789   3.717
 2485WAT     H1 7666   2.784   0.694   3.714
 2485WAT     H2 7667   2.858   0.825   3.732
 2486WAT      O 7668   2.335   0.317   3.047
 2486WAT     H1 7669   2.349   0.408   3.020
 2486WAT     H2 7670   2.262   0.287   2.992
 2487WAT      O 7671   2.046   0.737   2.636
 2487WAT     H1 7672   2.006   0.666   2.687
 2487WAT     H2 7673   1.972   0.784   2.598
 2488WAT      O 7674   2.749   0.747   2.449
 2488WAT     H1 7675   2.716   0.837   2.446
 2488WAT     H2 7676   2.793   0.736   2.364
 2489WAT      O 7677   2.329   0.827   3.673
 2489WAT     H1 7678   2.346   0.736   3.652
 2489WAT     H2 7679   2.410   0.857   3.715
 2490WAT      O 7680   2.721   0.610   2.677
 2490WAT     H1 7681   2.729   0.654   2.592
 2490WAT     H2 7682   2.719   0.517   2.655
 2491WAT      O 7683   1.880   0.464   3.521
 2491WAT     H1 7684   1.817   0.535   3.526
 2491WAT     H2 7685   1.827   0.387   3.497
 2492WAT      O 7686   2.534   0.414   3.815
 2492WAT     H1 7687   2.484   0.348   3.864
 2492WAT     H2 7688   2.574   0.469   3.883
 2493WAT      O 7689   1.595   0.275   2.900
 2493WAT     H1 7690   1.540   0.344   2.937
 2493WAT     H2 7691   1.646   0.244   2.975
 2494WAT      O 7692   1.589   0.599   1.985
 2494WAT     H1 7693   1.590   0.682   2.034
 2494WAT     H2 7694   1.528   0.615   1.913
 2495WAT      O 7695   2.696   0.806   3.118
 2495WAT     H1 7696   2.611   0.849   3.133
 2495WAT     H2 7697   2.677   0.738   3.053
 2496WAT      O 7698   2.370   0.563   2.923
 2496WAT     H1 7699   2.364   0.520   2.838
 2496WAT     H2 7700   2.464   0.582   2.933
 2497WAT      O 7701   1.917   0.532   2.769
 2497WAT     H1 7702   1.880   0.562   2.852
 2497WAT     H2 7703   1.845   0.486   2.726
 2498WAT      O 7704   2.376   0.620   2.267
 2498WAT     H1 7705   2.344   0.627   2.357
 2498WAT     H2 7706   2.351   0.704   2.227
 2499WAT      O 7707   2.822   0.451   3.043
 2499WAT     H1 7708   2.806   0.470   3.135
 2499WAT     H2 7709   2.857   0.362   3.042
 2500WAT      O 7710   2.310   0.846   2.119
 2500WAT     H1 7711   2.244   0.802   2.065
 2500WAT     H2 7712   2.382   0.864   2.058
 2501WAT      O 7713   1.764   1.203   3.505
 2501WAT     H1 7714   1.729   1.158   3.582
 2501WAT     H2 7715   1.844   1.246   3.537
 2502WAT      O 7716   2.426   0.940   3.116
 2502WAT     H1 7717   2.424   0.887   3.195
 2502WAT     H2 7718   2.356   1.004   3.127
 2503WAT      O 7719   1.697   0.396   2.675
 2503WAT     H1 7720   1.669   0.334   2.741
 2503WAT     H2 7721   1.704   0.344   2.594
 2504WAT      O 7722   2.161   0.794   3.363
 2504WAT     H1 7723   2.135   0.882   3.390
 2504WAT     H2 7724   2.257   0.795   3.366
 2505WAT      O 7725   2.051   1.232   2.396
 2505WAT     H1 7726   1.974   1.175   2.387
 2505WAT     H2 7727   2.121   1.183   2.353
 2506WAT      O 7728   3.132   1.122   2.959
 2506WAT     H1 7729   3.211   1.152   2.915
 2506WAT     H2 7730   3.087   1.069   2.893
 2507WAT      O 7731   2.661   0.318   2.327
 2507WAT     H1 7732   2.596   0.257   2.292
 2507WAT     H2 7733   2.648   0.399   2.277
 2508WAT      O 7734   2.639   1.151   3.586
 2508WAT     H1 7735   2.639   1.063   3.547
 2508WAT     H2 7736   2.548   1.166   3.611
 2509WAT      O 7737   2.870   0.686   2.209
 2509WAT     H1 7738   2.936   0.749   2.177
 2509WAT     H2 7739   2.909   0.601   2.191
 2510WAT      O 7740   2.091   1.198   2.786
 2510WAT     H1 7741   2.129   1.117   2.751
 2510WAT     H2 7742   2.035   1.170   2.858
 2511WAT      O 7743   2.573   1.302   2.310
 2511WAT     H1 7744   2.571   1.385   2.261
 2511WAT     H2 7745   2.501   1.310   2.373
 2512WAT      O 7746   1.768   0.914   3.405
 2512WAT     H1 7747   1.723   0.986   3.450
 2512WAT     H2 7748   1.740   0.835   3.451
 2513WAT      O 7749   2.139   1.016   3.712
 2513WAT     H1 7750   2.093   1.019   3.628
 2513WAT     H2 7751   2.201   0.944   3.703
 2514WAT      O 7752   3.057   0.872   2.118
 2514WAT     H1 7753   3.047   0.880   2.023
 2514WAT     H2 7754   3.146   0.902   2.135
 2515WAT      O 7755   3.221   1.113   3.424
 2515WAT     H1 7756   3.167   1.190   3.407
 2515WAT     H2 7757   3.238   1.076   3.337
 2516WAT      O 7758   3.283   1.519   2.427
 2516WAT     H1 7759   3.217   1.459   2.461
 2516WAT     H2 7760   3.247   1.552   2.345
 2517WAT      O 7761   2.826   1.275   2.809
 2517WAT     H1 7762   2.800   1.263   2.718
 2517WAT     H2 7763   2.783   1.202   2.855
 2518WAT      O 7764   2.410   1.343   2.539
 2518WAT     H1 7765   2.471   1.407   2.576
 2518WAT     H2 7766   2.323   1.378   2.557
 2519WAT      O 7767   1.601   0.846   2.114
 2519WAT     H1 7768   1.696   0.850   2.126
 2519WAT     H2 7769   1.578   0.931   2.076
 2520WAT      O 7770   2.367   1.066   2.520
 2520WAT     H1 7771   2.378   1.159   2.540
 2520WAT     H2 7772   2.316   1.031   2.593
 2521WAT      O 7773   2.600   1.588   3.182
 2521WAT     H1 7774   2.565   1.556   3.265
 2521WAT     H2 7775   2.651   1.514   3.149
 2522WAT      O 7776   2.737   1.366   3.084
 2522WAT     H1 7777   2.788   1.293   3.119
 2522WAT     H2 7778   2.776   1.385   2.999
 2523WAT      O 7779   3.089   1.424   2.057
 2523WAT     H1 7780   3.065   1.353   2.117
 2523WAT     H2 7781   3.059   1.394   1.971
 2524WAT      O 7782   2.866   1.448   3.515
 2524WAT     H1 7783   2.826   1.445   3.603
 2524WAT     H2 7784   2.809   1.393   3.462
 2525WAT      O 7785   1.711   1.827   2.164
 2525WAT     H1 7786   1.730   1.905   2.112
 2525WAT     H2 7787   1.661   1.859   2.239
 2526WAT      O 7788   1.689   0.270   3.449
 2526WAT     H1 7789   1.596   0.288   3.466
 2526WAT     H2 7790   1.701   0.179   3.478
 2527WAT      O 7791   3.079   1.231   2.251
 2527WAT     H1 7792   3.080   1.280   2.333
 2527WAT     H2 7793   3.156   1.175   2.255
 2528WAT      O 7794   2.284   1.546   2.232
 2528WAT     H1 7795   2.266   1.615   2.168
 2528WAT     H2 7796   2.198   1.512   2.255
 2529WAT      O 7797   1.839   1.070   2.317
 2529WAT     H1 7798   1.764   1.126   2.297
 2529WAT     H2 7799   1.882   1.057   2.232
 2530WAT      O 7800   2.782   0.501   3.305
 2530WAT     H1 7801   2.825   0.429   3.350
 2530WAT     H2 7802   2.695   0.506   3.345
 2531WAT      O 7803   3.116   0.448   2.384
 2531WAT     H1 7804   3.061   0.442   2.307
 2531WAT     H2 7805   3.061   0.418   2.456
 2532WAT      O 7806   2.548   1.548   2.175
 2532WAT     H1 7807   2.547   1.532   2.080
 2532WAT     H2 7808   2.456   1.542   2.201
 2533WAT      O 7809   2.261   0.609   2.516
 2533WAT     H1 7810   2.203   0.665   2.567
 2533WAT     H2 7811   2.303   0.553   2.581
 2534WAT      O 7812   2.444   0.785   3.340
 2534WAT     H1 7813   2.506   0.829   3.398
 2534WAT     H2 7814   2.470   0.693   3.343
 2535WAT      O 7815   2.733   0.352   2.594
 2535WAT     H1 7816   2.710   0.334   2.502
 2535WAT     H2 7817   2.826   0.333   2.599
 2536WAT      O 7818   2.412   1.808   2.583
 2536WAT     H1 7819   2.463   1.799   2.502
 2536WAT     H2 7820   2.324   1.782   2.558
 2537WAT      O 7821   2.207   0.404   2.213
 2537WAT     H1 7822   2.267   0.477   2.229
 2537WAT     H2 7823   2.144   0.409   2.285
 2538WAT      O 7824   3.218   0.391   3.421
 2538WAT     H1 7825   3.162   0.459   3.460
 2538WAT     H2 7826   3.288   0.440   3.378
 2539WAT      O 7827   3.013   0.947   2.784
 2539WAT     H1 7828   2.922   0.915   2.787
 2539WAT     H2 7829   3.066   0.870   2.807
 2540WAT      O 7830   2.024   1.086   2.098
 2540WAT     H1 7831   2.105   1.079   2.149
 2540WAT     H2 7832   2.048   1.054   2.011
 2541WAT      O 7833   1.872   0.817   2.120
 2541WAT     H1 7834   1.869   0.722   2.132
 2541WAT     H2 7835   1.966   0.838   2.115
 2542WAT      O 7836   3.233   1.612   2.900
 2542WAT     H1 7837   3.241   1.690   2.954
 2542WAT     H2 7838   3.321   1.597   2.865
 2543WAT      O 7839   1.980   1.875   2.890
 2543WAT     H1 7840   2.052   1.817   2.915
 2543WAT     H2 7841   2.022   1.959   2.872
 2544WAT      O 7842   1.662   1.439   2.462
 2544WAT     H1 7843   1.573   1.475   2.456
 2544WAT     H2 7844   1.718   1.511   2.433
 2545WAT      O 7845   2.243   1.735   2.043
 2545WAT     H1 7846   2.318   1.791   2.025
 2545WAT     H2 7847   2.237   1.678   1.966
 2546WAT      O 7848   2.745   1.335   3.753
 2546WAT     H1 7849   2.698   1.279   3.691
 2546WAT     H2 7850   2.729   1.295   3.839
 2547WAT      O 7851   3.177   1.632   2.209
 2547WAT     H1 7852   3.141   1.567   2.148
 2547WAT     H2 7853   3.134   1.714   2.185
 2548WAT      O 7854   1.677   1.051   3.707
 2548WAT     H1 7855   1.725   0.969   3.716
 2548WAT     H2 7856   1.613   1.049   3.779
 2549WAT      O 7857   2.377   1.258   2.017
 2549WAT     H1 7858   2.345   1.202   2.087
 2549WAT     H2 7859   2.362   1.207   1.937
 2550WAT      O 7860   2.370   1.174   3.632
 2550WAT     H1 7861   2.295   1.130   3.672
 2550WAT     H2 7862   2.364   1.153   3.539
 2551WAT      O 7863   2.659   1.124   2.111
 2551WAT     H1 7864   2.615   1.180   2.174
 2551WAT     H2 7865   2.733   1.087   2.160
 2552WAT      O 7866   3.078   1.335   3.660
 2552WAT     H1 7867   3.162   1.354   3.617
 2552WAT     H2 7868   3.015   1.389   3.614
 2553WAT      O 7869   1.818   0.816   3.720
 2553WAT     H1 7870   1.836   0.816   3.814
 2553WAT     H2 7871   1.901   0.789   3.680
 2554WAT      O 7872   2.245   1.065   2.268
 2554WAT     H1 7873   2.294   1.062   2.351
 2554WAT     H2 7874   2.272   0.985   2.223
 2555WAT      O 7875   2.030   0.698   3.590
 2555WAT     H1 7876   2.003   0.609   3.567
 2555WAT     H2 7877   2.080   0.729   3.515
 2556WAT      O 7878   2.539   0.913   1.961
 2556WAT     H1 7879   2.616   0.868   1.927
 2556WAT     H2 7880   2.573   0.990   2.006
 2557WAT      O 7881   2.925   1.106   3.599
 2557WAT     H1 7882   2.978   1.181   3.627
 2557WAT     H2 7883   2.835   1.134   3.614
 2558WAT      O 7884   3.033   0.890   3.724
 2558WAT     H1 7885   3.103   0.864   3.665
 2558WAT     H2 7886   2.996   0.969   3.685
 2559WAT      O 7887   2.143   0.391   3.622
 2559WAT     H1 7888   2.191   0.317   3.585
 2559WAT     H2 7889   2.062   0.394   3.571
 2560WAT      O 7890   2.415   0.280   3.305
 2560WAT     H1 7891   2.395   0.297   3.213
 2560WAT     H2 7892   2.370   0.198   3.325
 2561WAT      O 7893   2.385   1.129   3.366
 2561WAT     H1 7894   2.466   1.118   3.316
 2561WAT     H2 7895   2.317   1.141   3.298
 2562WAT      O 7896   2.653   0.892   3.486
 2562WAT     H1 7897   2.689   0.849   3.564
 2562WAT     H2 7898   2.729   0.905   3.429
 2563WAT      O 7899   2.881   0.973   3.353
 2563WAT     H1 7900   2.887   1.032   3.279
 2563WAT     H2 7901   2.916   1.023   3.427
 2564WAT      O 7902   2.110   0.706   1.989
 2564WAT     H1 7903   2.085   0.614   1.996
 2564WAT     H2 7904   2.107   0.724   1.895
 2565WAT      O 7905   2.371   0.555   3.635
 2565WAT     H1 7906   2.424   0.511   3.701
 2565WAT     H2 7907   2.290   0.504   3.632
 2566WAT      O 7908   2.839   0.518   3.696
 2566WAT     H1 7909   2.758   0.467   3.702
 2566WAT     H2 7910   2.905   0.465   3.740
 2567WAT      O 7911   2.040   0.438   1.997
 2567WAT     H1 7912   2.080   0.410   1.914
 2567WAT     H2 7913   2.103   0.410   2.064
 2568WAT      O 7914   2.386   0.243   2.090
 2568WAT     H1 7915   2.344   0.159   2.072
 2568WAT     H2 7916   2.321   0.293   2.138
 2569WAT      O 7917   2.537   1.791   2.338
 2569WAT     H1 7918   2.622   1.829   2.316
 2569WAT     H2 7919   2.531   1.711   2.286
 2570WAT      O 7920   1.921   1.339   2.057
 2570WAT     H1 7921   1.958   1.391   2.128
 2570WAT     H2 7922   1.954   1.251   2.072
 2571WAT      O 7923   1.615   1.592   2.805
 2571WAT     H1 7924   1.655   1.505   2.798
 2571WAT     H2 7925   1.634   1.619   2.895
 2572WAT      O 7926   2.143   1.394   2.596
 2572WAT     H1 7927   2.121   1.341   2.673
 2572WAT     H2 7928   2.109   1.344   2.522
 2573WAT      O 7929   1.594   1.718   3.054
 2573WAT     H1 7930   1.583   1.724   3.149
 2573WAT     H2 7931   1.641   1.798   3.031
 2574WAT      O 7932   3.273   1.648   3.462
 2574WAT     H1 7933   3.185   1.654   3.426
 2574WAT     H2 7934   3.284   1.556   3.485
 2575WAT      O 7935   3.370   1.385   2.060
 2575WAT     H1 7936   3.275   1.395   2.063
 2575WAT     H2 7937   3.402   1.469   2.028
 2576WAT      O 7938   3.301   1.070   2.271
 2576WAT     H1 7939   3.377   1.128   2.282
 2576WAT     H2 7940   3.299   1.018   2.351
 2577WAT      O 7941   1.621   0.925   2.691
 2577WAT     H1 7942   1.550   0.932   2.626
 2577WAT     H2 7943   1.699   0.907   2.639
 2578WAT      O 7944   3.417   1.156   2.849
 2578WAT     H1 7945   3.444   1.077   2.802
 2578WAT     H2 7946   3.466   1.226   2.806
 2579WAT      O 7947   3.069   1.325   3.335
 2579WAT     H1 7948   3.020   1.389   3.387
 2579WAT     H2 7949   3.114   1.378   3.269
 2580WAT      O 7950   3.398   1.101   2.011
 2580WAT     H1 7951   3.403   1.196   2.002
 2580WAT     H2 7952   3.348   1.087   2.092
 2581WAT      O 7953   2.960   0.427   2.159
 2581WAT     H1 7954   3.002   0.405   2.076
 2581WAT     H2 7955   2.885   0.369   2.165
 2582WAT      O 7956   3.280   0.939   2.513
 2582WAT     H1 7957   3.252   0.847   2.513
 2582WAT     H2 7958   3.200   0.988   2.532
 2583WAT      O 7959   1.779   0.945   3.133
 2583WAT     H1 7960   1.781   0.929   3.227
 2583WAT     H2 7961   1.731   0.871   3.097
 2584WAT      O 7962   3.230   0.863   3.529
 2584WAT     H1 7963   3.228   0.822   3.443
 2584WAT     H2 7964   3.233   0.957   3.511
 2585WAT      O 7965   1.677   0.666   3.545
 2585WAT     H1 7966   1.593   0.646   3.586
 2585WAT     H2 7967   1.725   0.714   3.612
 2586WAT      O 7968   3.071   0.364   3.791
 2586WAT     H1 7969   3.159   0.365   3.829
 2586WAT     H2 7970   3.081   0.314   3.710
 2587WAT      O 7971   1.548   0.662   2.316
 2587WAT     H1 7972   1.477   0.688   2.375
 2587WAT     H2 7973   1.553   0.733   2.252
 2588WAT      O 7974   3.196   0.745   2.847
 2588WAT     H1 7975   3.236   0.693   2.778
 2588WAT     H2 7976   3.270   0.779   2.897
 2589WAT      O 7977   3.232   0.756   3.271
 2589WAT     H1 7978   3.138   0.739   3.266
 2589WAT     H2 7979   3.243   0.840   3.226
 2590WAT      O 7980   1.828   0.547   2.122
 2590WAT     H1 7981   1.894   0.498   2.074
 2590WAT     H2 7982   1.750   0.543   2.066
 2591WAT      O 7983   3.225   0.672   2.505
 2591WAT     H1 7984   3.267   0.624   2.577
 2591WAT     H2 7985   3.174   0.606   2.458
 2592WAT      O 7986   3.340   0.538   2.712
 2592WAT     H1 7987   3.336   0.514   2.805
 2592WAT     H2 7988   3.423   0.503   2.682
 2593WAT      O 7989   3.323   0.364   2.019
 2593WAT     H1 7990   3.381   0.437   1.999
 2593WAT     H2 7991   3.340   0.345   2.112
 2594WAT      O 7992   3.375   0.392   2.293
 2594WAT     H1 7993   3.286   0.396   2.329
 2594WAT     H2 7994   3.404   0.483   2.292
 2595WAT      O 7995   3.184   1.815   2.706
 2595WAT     H1 7996   3.242   1.799   2.631
 2595WAT     H2 7997   3.187   1.733   2.756
 2596WAT      O 7998   2.411   0.248   3.603
 2596WAT     H1 7999   2.467   0.288   3.669
 2596WAT     H2 8000   2.461   0.254   3.522
 2597WAT      O 8001   3.381   1.818   3.263
 2597WAT     H1 8002   3.306   1.827   3.205
 2597WAT     H2 8003   3.349   1.763   3.335
 2598WAT      O 8004   2.956   0.293   3.375
 2598WAT     H1 8005   2.961   0.224   3.310
 2598WAT     H2 8006   3.047   0.318   3.390
 2599WAT      O 8007   3.167   1.831   3.080
 2599WAT     H1 8008   3.154   1.919   3.046
 2599WAT     H2 8009   3.083   1.787   3.067
 2600WAT      O 8010   1.893   1.488   3.318
 2600WAT     H1 8011   1.803   1.457   3.302
 2600WAT     H2 8012   1.926   1.512   3.232
 2601WAT      O 8013   2.205   1.720   2.964
 2601WAT     H1 8014   2.242   1.644   2.918
 2601WAT     H2 8015   2.281   1.765   3.001
 2602WAT      O 8016   2.478   1.784   3.034
 2602WAT     H1 8017   2.516   1.769   2.948
 2602WAT     H2 8018   2.519   1.719   3.090
 2603WAT      O 8019   3.005   0.246   2.993
 2603WAT     H1 8020   3.034   0.176   2.935
 2603WAT     H2 8021   3.039   0.326   2.952
 2604WAT      O 8022   1.695   1.756   2.593
 2604WAT     H1 8023   1.676   1.705   2.672
 2604WAT     H2 8024   1.610   1.786   2.563
 2605WAT      O 8025   1.707   0.274   2.431
 2605WAT     H1 8026   1.784   0.295   2.378
 2605WAT     H2 8027   1.633   0.303   2.377
 2606WAT      O 8028   2.363   0.419   2.692
 2606WAT     H1 8029   2.300   0.354   2.723
 2606WAT     H2 8030   2.440   0.367   2.667
 2607WAT      O 8031   1.821   1.649   2.375
 2607WAT     H1 8032   1.803   1.710   2.303
 2607WAT     H2 8033   1.793   1.696   2.454
 2608WAT      O 8034   3.338   1.785   2.478
 2608WAT     H1 8035   3.320   1.693   2.456
 2608WAT     H2 8036   3.278   1.834   2.422
 2609WAT      O 8037   2.101   1.860   2.244
 2609WAT     H1 8038   2.155   1.822   2.175
 2609WAT     H2 8039   2.131   1.816   2.324
 2610WAT      O 8040   2.018   1.479   2.277
 2610WAT     H1 8041   1.952   1.535   2.317
 2610WAT     H2 8042   2.019   1.401   2.332
 2611WAT      O 8043   2.750   0.880   0.877
 2611WAT     H1 8044   2.740   0.786   0.865
 2611WAT     H2 8045   2.710   0.919   0.800
 2612WAT      O 8046   2.604   1.057   1.040
 2612WAT     H1 8047   2.554   1.004   1.102
 2612WAT     H2 8048   2.659   0.993   0.994
 2613WAT      O 8049   1.974   1.101   1.146
 2613WAT     H1 8050   1.907   1.046   1.185
 2613WAT     H2 8051   2.038   1.115   1.215
 2614WAT      O 8052   2.972   1.516   0.917
 2614WAT     H1 8053   2.931   1.430   0.919
 2614WAT     H2 8054   3.060   1.501   0.951
 2615WAT      O 8055   2.008   1.518   1.167
 2615WAT     H1 8056   2.078   1.458   1.139
 2615WAT     H2 8057   2.040   1.604   1.141
 2616WAT      O 8058   1.803   0.639   0.497
 2616WAT     H1 8059   1.709   0.632   0.479
 2616WAT     H2 8060   1.844   0.636   0.411
 2617WAT      O 8061   1.585   0.777   1.072
 2617WAT     H1 8062   1.661   0.721   1.082
 2617WAT     H2 8063   1.604   0.831   0.995
 2618WAT      O 8064   2.591   1.745   0.920
 2618WAT     H1 8065   2.524   1.767   0.854
 2618WAT     H2 8066   2.659   1.812   0.908
 2619WAT      O 8067   2.495   1.304   1.090
 2619WAT     H1 8068   2.529   1.219   1.060
 2619WAT     H2 8069   2.567   1.343   1.139
 2620WAT      O 8070   1.736   0.412   1.328
 2620WAT     H1 8071   1.740   0.345   1.397
 2620WAT     H2 8072   1.665   0.470   1.356
 2621WAT      O 8073   2.634   0.610   1.050
 2621WAT     H1 8074   2.696   0.547   1.089
 2621WAT     H2 8075   2.660   0.615   0.958
 2622WAT      O 8076   1.998   0.459   0.575
 2622WAT     H1 8077   2.032   0.482   0.661
 2622WAT     H2 8078   1.924   0.519   0.561
 2623WAT      O 8079   3.033   0.378   0.772
 2623WAT     H1 8080   3.125   0.351   0.771
 2623WAT     H2 8081   3.025   0.432   0.850
 2624WAT      O 8082   1.803   0.620   1.139
 2624WAT     H1 8083   1.884   0.652   1.180
 2624WAT     H2 8084   1.779   0.544   1.192
 2625WAT      O 8085   2.240   0.795   1.093
 2625WAT     H1 8086   2.310   0.840   1.141
 2625WAT     H2 8087   2.278   0.709   1.072
 2626WAT      O 8088   3.417   0.571   1.448
 2626WAT     H1 8089   3.355   0.640   1.427
 2626WAT     H2 8090   3.470   0.607   1.519
 2627WAT      O 8091   2.711   1.263   0.659
 2627WAT     H1 8092   2.683   1.270   0.568
 2627WAT     H2 8093   2.677   1.342   0.701
 2628WAT      O 8094   2.187   1.205   1.307
 2628WAT     H1 8095   2.149   1.267   1.369
 2628WAT     H2 8096   2.206   1.258   1.229
 2629WAT      O 8097   3.049   0.514   1.020
 2629WAT     H1 8098   2.965   0.518   1.066
 2629WAT     H2 8099   3.073   0.605   1.007
 2630WAT      O 8100   2.001   0.401   1.228
 2630WAT     H1 8101   2.031   0.489   1.249
 2630WAT     H2 8102   1.915   0.394   1.270
 2631WAT      O 8103   2.106   1.412   1.465
 2631WAT     H1 8104   2.167   1.479   1.434
 2631WAT     H2 8105   2.020   1.448   1.446
 2632WAT      O 8106   1.661   1.233   0.398
 2632WAT     H1 8107   1.721   1.269   0.332
 2632WAT     H2 8108   1.654   1.302   0.464
 2633WAT      O 8109   3.126   1.503   1.270
 2633WAT     H1 8110   3.105   1.582   1.320
 2633WAT     H2 8111   3.166   1.536   1.190
 2634WAT      O 8112   3.316   0.484   1.105
 2634WAT     H1 8113   3.221   0.491   1.098
 2634WAT     H2 8114   3.341   0.555   1.164
 2635WAT      O 8115   2.912   1.711   1.107
 2635WAT     H1 8116   2.935   1.645   1.042
 2635WAT     H2 8117   2.848   1.767   1.064
 2636WAT      O 8118   3.089   1.348   0.620
 2636WAT     H1 8119   3.085   1.256   0.649
 2636WAT     H2 8120   3.022   1.392   0.673
 2637WAT      O 8121   2.912   1.180   1.278
 2637WAT     H1 8122   2.976   1.159   1.209
 2637WAT     H2 8123   2.961   1.231   1.342
 2638WAT      O 8124   2.637   0.985   0.654
 2638WAT     H1 8125   2.542   0.998   0.652
 2638WAT     H2 8126   2.673   1.073   0.643
 2639WAT      O 8127   2.641   0.537   0.380
 2639WAT     H1 8128   2.549   0.556   0.360
 2639WAT     H2 8129   2.668   0.607   0.439
 2640WAT      O 8130   3.257   1.017   1.301
 2640WAT     H1 8131   3.201   1.046   1.229
 2640WAT     H2 8132   3.339   1.063   1.288
 2641WAT      O 8133   3.047   1.079   0.672
 2641WAT     H1 8134   2.971   1.059   0.618
 2641WAT     H2 8135   3.027   1.041   0.757
 2642WAT      O 8136   2.961   0.721   1.425
 2642WAT     H1 8137   2.920   0.807   1.428
 2642WAT     H2 8138   2.890   0.661   1.401
 2643WAT      O 8139   2.198   0.943   0.859
 2643WAT     H1 8140   2.153   0.873   0.811
 2643WAT     H2 8141   2.214   0.906   0.946
 2644WAT      O 8142   2.230   1.366   1.084
 2644WAT     H1 8143   2.194   1.309   1.016
 2644WAT     H2 8144   2.324   1.351   1.080
 2645WAT      O 8145   2.045   0.680   1.261
 2645WAT     H1 8146   2.103   0.721   1.197
 2645WAT     H2 8147   2.075   0.716   1.345
 2646WAT      O 8148   3.048   1.693   1.457
 2646WAT     H1 8149   3.011   1.775   1.425
 2646WAT     H2 8150   2.976   1.651   1.504
 2647WAT      O 8151   2.133   1.356   1.728
 2647WAT     H1 8152   2.045   1.372   1.763
 2647WAT     H2 8153   2.123   1.366   1.633
 2648WAT      O 8154   2.859   1.041   0.410
 2648WAT     H1 8155   2.884   0.953   0.381
 2648WAT     H2 8156   2.933   1.096   0.385
 2649WAT      O 8157   1.999   1.025   1.593
 2649WAT     H1 8158   1.961   1.113   1.600
 2649WAT     H2 8159   1.926   0.970   1.565
 2650WAT      O 8160   2.628   1.510   0.758
 2650WAT     H1 8161   2.696   1.562   0.716
 2650WAT     H2 8162   2.604   1.560   0.837
 2651WAT      O 8163   2.250   1.587   1.817
 2651WAT     H1 8164   2.236   1.644   1.741
 2651WAT     H2 8165   2.212   1.503   1.791
 2652WAT      O 8166   1.829   0.844   0.678
 2652WAT     H1 8167   1.837   0.922   0.623
 2652WAT     H2 8168   1.815   0.772   0.617
 2653WAT      O 8169   3.430   1.647   1.964
 2653WAT     H1 8170   3.479   1.699   2.027
 2653WAT     H2 8171   3.480   1.654   1.882
 2654WAT      O 8172   1.607   1.169   1.249
 2654WAT     H1 8173   1.586   1.181   1.156
 2654WAT     H2 8174   1.676   1.103   1.250
 2655WAT      O 8175   1.701   1.341   0.841
 2655WAT     H1 8176   1.680   1.367   0.752
 2655WAT     H2 8177   1.794   1.317   0.838
 2656WAT      O 8178   3.316   1.355   1.634
 2656WAT     H1 8179   3.391   1.362   1.575
 2656WAT     H2 8180   3.283   1.266   1.620
 2657WAT      O 8181   2.702   1.734   1.551
 2657WAT     H1 8182   2.755   1.732   1.631
 2657WAT     H2 8183   2.619   1.773   1.579
 2658WAT      O 8184   2.899   1.815   0.496
 2658WAT     H1 8185   2.882   1.779   0.583
 2658WAT     H2 8186   2.890   1.740   0.437
 2659WAT      O 8187   2.138   1.747   0.659
 2659WAT     H1 8188   2.106   1.659   0.677
 2659WAT     H2 8189   2.063   1.804   0.677
 2660WAT      O 8190   2.902   1.587   0.345
 2660WAT     H1 8191   2.883   1.499   0.314
 2660WAT     H2 8192   2.994   1.601   0.324
 2661WAT      O 8193   2.855   1.700   0.742
 2661WAT     H1 8194   2.905   1.640   0.797
 2661WAT     H2 8195   2.851   1.781   0.794
 2662WAT      O 8196   3.302   0.646   1.774
 2662WAT     H1 8197   3.282   0.735   1.745
 2662WAT     H2 8198   3.224   0.595   1.753
 2663WAT      O 8199   1.651   1.346   1.458
 2663WAT     H1 8200   1.632   1.289   1.384
 2663WAT     H2 8201   1.715   1.297   1.510
 2664WAT      O 8202   2.116   0.330   0.990
 2664WAT     H1 8203   2.062   0.385   0.934
 2664WAT     H2 8204   2.078   0.339   1.077
 2665WAT      O 8205   2.522   0.509   1.529
 2665WAT     H1 8206   2.469   0.526   1.607
 2665WAT     H2 8207   2.482   0.432   1.489
 2666WAT      O 8208   3.055   0.582   1.647
 2666WAT     H1 8209   2.977   0.568   1.700
 2666WAT     H2 8210   3.024   0.634   1.572
 2667WAT      O 8211   2.766   0.785   1.843
 2667WAT     H1 8212   2.784   0.691   1.840
 2667WAT     H2 8213   2.852   0.826   1.855
 2668WAT      O 8214   2.337   0.316   1.168
 2668WAT     H1 8215   2.352   0.407   1.142
 2668WAT     H2 8216   2.264   0.287   1.114
 2669WAT      O 8217   2.060   0.719   0.765
 2669WAT     H1 8218   2.023   0.652   0.823
 2669WAT     H2 8219   1.984   0.769   0.735
 2670WAT      O 8220   2.724   0.742   0.546
 2670WAT     H1 8221   2.691   0.828   0.570
 2670WAT     H2 8222   2.801   0.759   0.492
 2671WAT      O 8223   2.321   0.832   1.800
 2671WAT     H1 8224   2.341   0.742   1.775
 2671WAT     H2 8225   2.403   0.865   1.837
 2672WAT      O 8226   2.718   0.620   0.792
 2672WAT     H1 8227   2.716   0.655   0.704
 2672WAT     H2 8228   2.725   0.525   0.780
 2673WAT      O 8229   1.883   0.462   1.643
 2673WAT     H1 8230   1.820   0.533   1.654
 2673WAT     H2 8231   1.829   0.386   1.618
 2674WAT      O 8232   2.531   0.413   1.937
 2674WAT     H1 8233   2.482   0.348   1.987
 2674WAT     H2 8234   2.572   0.468   2.004
 2675WAT      O 8235   1.594   0.274   1.032
 2675WAT     H1 8236   1.539   0.345   1.065
 2675WAT     H2 8237   1.646   0.246   1.108
 2676WAT      O 8238   2.703   0.799   1.241
 2676WAT     H1 8239   2.623   0.850   1.253
 2676WAT     H2 8240   2.680   0.734   1.175
 2677WAT      O 8241   2.369   0.563   1.044
 2677WAT     H1 8242   2.363   0.521   0.958
 2677WAT     H2 8243   2.463   0.583   1.053
 2678WAT      O 8244   1.922   0.521   0.897
 2678WAT     H1 8245   1.887   0.556   0.979
 2678WAT     H2 8246   1.848   0.476   0.856
 2679WAT      O 8247   2.376   0.620   0.380
 2679WAT     H1 8248   2.352   0.623   0.472
 2679WAT     H2 8249   2.354   0.707   0.346
 2680WAT      O 8250   2.822   0.454   1.163
 2680WAT     H1 8251   2.805   0.474   1.255
 2680WAT     H2 8252   2.857   0.364   1.164
 2681WAT      O 8253   2.313   0.864   0.247
 2681WAT     H1 8254   2.277   0.830   0.166
 2681WAT     H2 8255   2.391   0.913   0.220
 2682WAT      O 8256   1.817   1.235   1.647
 2682WAT     H1 8257   1.765   1.174   1.700
 2682WAT     H2 8258   1.836   1.308   1.706
 2683WAT      O 8259   2.436   0.926   1.242
 2683WAT     H1 8260   2.436   0.868   1.318
 2683WAT     H2 8261   2.389   1.004   1.271
 2684WAT      O 8262   1.701   0.389   0.806
 2684WAT     H1 8263   1.669   0.330   0.875
 2684WAT     H2 8264   1.707   0.333   0.729
 2685WAT      O 8265   2.160   0.803   1.490
 2685WAT     H1 8266   2.141   0.893   1.516
 2685WAT     H2 8267   2.256   0.799   1.489
 2686WAT      O 8268   2.041   1.239   0.522
 2686WAT     H1 8269   1.963   1.184   0.530
 2686WAT     H2 8270   2.109   1.181   0.489
 2687WAT      O 8271   3.124   1.125   1.089
 2687WAT     H1 8272   3.202   1.159   1.045
 2687WAT     H2 8273   3.080   1.072   1.023
 2688WAT      O 8274   2.651   0.291   0.499
 2688WAT     H1 8275   2.598   0.233   0.444
 2688WAT     H2 8276   2.646   0.376   0.456
 2689WAT      O 8277   2.616   1.139   1.716
 2689WAT     H1 8278   2.620   1.052   1.678
 2689WAT     H2 8279   2.526   1.148   1.747
 2690WAT      O 8280   2.936   0.762   0.376
 2690WAT     H1 8281   3.019   0.798   0.344
 2690WAT     H2 8282   2.938   0.671   0.348
 2691WAT      O 8283   2.091   1.193   0.918
 2691WAT     H1 8284   2.126   1.110   0.885
 2691WAT     H2 8285   2.036   1.168   0.992
 2692WAT      O 8286   2.527   1.329   0.449
 2692WAT     H1 8287   2.481   1.395   0.398
 2692WAT     H2 8288   2.476   1.320   0.530
 2693WAT      O 8289   1.747   0.905   1.539
 2693WAT     H1 8290   1.707   0.963   1.604
 2693WAT     H2 8291   1.731   0.817   1.573
 2694WAT      O 8292   2.101   0.990   1.853
 2694WAT     H1 8293   2.067   1.007   1.765
 2694WAT     H2 8294   2.181   0.939   1.838
 2695WAT      O 8295   2.679   1.403   1.729
 2695WAT     H1 8296   2.652   1.313   1.712
 2695WAT     H2 8297   2.605   1.441   1.778
 2696WAT      O 8298   3.162   0.874   0.282
 2696WAT     H1 8299   3.201   0.864   0.195
 2696WAT     H2 8300   3.214   0.943   0.323
 2697WAT      O 8301   3.199   1.123   1.544
 2697WAT     H1 8302   3.134   1.190   1.523
 2697WAT     H2 8303   3.221   1.084   1.460
 2698WAT      O 8304   3.276   1.530   0.527
 2698WAT     H1 8305   3.214   1.466   0.561
 2698WAT     H2 8306   3.236   1.564   0.448
 2699WAT      O 8307   2.844   1.272   0.906
 2699WAT     H1 8308   2.804   1.255   0.821
 2699WAT     H2 8309   2.800   1.213   0.966
 2700WAT      O 8310   2.397   1.338   0.692
 2700WAT     H1 8311   2.458   1.401   0.731
 2700WAT     H2 8312   2.310   1.374   0.711
 2701WAT      O 8313   1.612   0.871   0.266
 2701WAT     H1 8314   1.705   0.892   0.263
 2701WAT     H2 8315   1.571   0.952   0.297
 2702WAT      O 8316   2.370   1.059   0.668
 2702WAT     H1 8317   2.377   1.152   0.689
 2702WAT     H2 8318   2.317   1.023   0.740
 2703WAT      O 8319   2.561   1.592   1.347
 2703WAT     H1 8320   2.612   1.630   1.419
 2703WAT     H2 8321   2.612   1.516   1.318
 2704WAT      O 8322   2.724   1.388   1.233
 2704WAT     H1 8323   2.770   1.307   1.254
 2704WAT     H2 8324   2.791   1.445   1.195
 2705WAT      O 8325   2.911   1.506   1.638
 2705WAT     H1 8326   2.913   1.588   1.689
 2705WAT     H2 8327   2.826   1.468   1.657
 2706WAT      O 8328   1.737   1.846   0.381
 2706WAT     H1 8329   1.753   1.885   0.295
 2706WAT     H2 8330   1.731   1.921   0.441
 2707WAT      O 8331   1.689   0.270   1.571
 2707WAT     H1 8332   1.597   0.288   1.590
 2707WAT     H2 8333   1.703   0.180   1.601
 2708WAT      O 8334   3.076   1.205   0.378
 2708WAT     H1 8335   3.082   1.265   0.452
 2708WAT     H2 8336   3.162   1.163   0.373
 2709WAT      O 8337   1.668   1.629   1.708
 2709WAT     H1 8338   1.691   1.536   1.704
 2709WAT     H2 8339   1.584   1.635   1.663
 2710WAT      O 8340   2.485   1.481   1.910
 2710WAT     H1 8341   2.449   1.401   1.949
 2710WAT     H2 8342   2.408   1.527   1.876
 2711WAT      O 8343   2.287   1.591   0.334
 2711WAT     H1 8344   2.290   1.563   0.242
 2711WAT     H2 8345   2.203   1.557   0.366
 2712WAT      O 8346   1.835   1.051   0.500
 2712WAT     H1 8347   1.767   1.111   0.468
 2712WAT     H2 8348   1.856   0.997   0.424
 2713WAT      O 8349   2.783   0.502   1.426
 2713WAT     H1 8350   2.827   0.430   1.471
 2713WAT     H2 8351   2.696   0.506   1.467
 2714WAT      O 8352   3.106   0.457   0.510
 2714WAT     H1 8353   3.040   0.464   0.441
 2714WAT     H2 8354   3.057   0.424   0.586
 2715WAT      O 8355   2.289   0.619   0.636
 2715WAT     H1 8356   2.215   0.661   0.680
 2715WAT     H2 8357   2.320   0.554   0.699
 2716WAT      O 8358   2.442   0.772   1.464
 2716WAT     H1 8359   2.502   0.821   1.522
 2716WAT     H2 8360   2.472   0.681   1.470
 2717WAT      O 8361   2.745   0.356   0.746
 2717WAT     H1 8362   2.715   0.321   0.662
 2717WAT     H2 8363   2.839   0.337   0.747
 2718WAT      O 8364   2.399   1.799   0.728
 2718WAT     H1 8365   2.438   1.799   0.641
 2718WAT     H2 8366   2.307   1.777   0.714
 2719WAT      O 8367   2.129   0.490   0.332
 2719WAT     H1 8368   2.220   0.516   0.345
 2719WAT     H2 8369   2.099   0.465   0.420
 2720WAT      O 8370   3.219   0.392   1.543
 2720WAT     H1 8371   3.164   0.459   1.582
 2720WAT     H2 8372   3.289   0.441   1.499
 2721WAT      O 8373   3.014   0.950   0.910
 2721WAT     H1 8374   2.923   0.919   0.913
 2721WAT     H2 8375   3.066   0.872   0.931
 2722WAT      O 8376   1.898   0.891   0.287
 2722WAT     H1 8377   1.898   0.797   0.268
 2722WAT     H2 8378   1.990   0.917   0.284
 2723WAT      O 8379   3.239   1.630   1.043
 2723WAT     H1 8380   3.265   1.700   1.102
 2723WAT     H2 8381   3.320   1.603   1.000
 2724WAT      O 8382   2.005   1.880   1.067
 2724WAT     H1 8383   2.086   1.830   1.079
 2724WAT     H2 8384   2.033   1.963   1.029
 2725WAT      O 8385   1.651   1.432   0.583
 2725WAT     H1 8386   1.565   1.471   0.569
 2725WAT     H2 8387   1.712   1.501   0.558
 2726WAT      O 8388   1.903   1.728   1.972
 2726WAT     H1 8389   1.993   1.735   2.004
 2726WAT     H2 8390   1.849   1.742   2.049
 2727WAT      O 8391   2.783   1.359   1.997
 2727WAT     H1 8392   2.746   1.380   1.911
 2727WAT     H2 8393   2.738   1.279   2.023
 2728WAT      O 8394   2.916   1.745   1.770
 2728WAT     H1 8395   3.009   1.736   1.792
 2728WAT     H2 8396   2.885   1.815   1.827
 2729WAT      O 8397   3.165   1.682   0.320
 2729WAT     H1 8398   3.209   1.707   0.239
 2729WAT     H2 8399   3.158   1.765   0.369
 2730WAT      O 8400   1.674   1.042   1.780
 2730WAT     H1 8401   1.727   0.969   1.814
 2730WAT     H2 8402   1.612   1.061   1.850
 2731WAT      O 8403   2.343   1.175   1.753
 2731WAT     H1 8404   2.268   1.234   1.753
 2731WAT     H2 8405   2.339   1.130   1.668
 2732WAT      O 8406   2.649   1.162   0.264
 2732WAT     H1 8407   2.608   1.219   0.329
 2732WAT     H2 8408   2.720   1.119   0.312
 2733WAT      O 8409   3.069   1.339   1.790
 2733WAT     H1 8410   3.158   1.347   1.756
 2733WAT     H2 8411   3.018   1.402   1.739
 2734WAT      O 8412   1.823   0.823   1.849
 2734WAT     H1 8413   1.843   0.828   1.942
 2734WAT     H2 8414   1.906   0.799   1.808
 2735WAT      O 8415   2.211   1.041   0.440
 2735WAT     H1 8416   2.272   1.038   0.514
 2735WAT     H2 8417   2.246   0.977   0.379
 2736WAT      O 8418   2.029   0.699   1.714
 2736WAT     H1 8419   2.005   0.611   1.687
 2736WAT     H2 8420   2.081   0.734   1.641
 2737WAT      O 8421   2.907   1.116   1.727
 2737WAT     H1 8422   2.957   1.192   1.757
 2737WAT     H2 8423   2.815   1.142   1.742
 2738WAT      O 8424   3.022   0.898   1.846
 2738WAT     H1 8425   3.093   0.876   1.786
 2738WAT     H2 8426   2.983   0.978   1.809
 2739WAT      O 8427   2.143   0.391   1.747
 2739WAT     H1 8428   2.191   0.317   1.710
 2739WAT     H2 8429   2.062   0.395   1.696
 2740WAT      O 8430   2.414   0.278   1.427
 2740WAT     H1 8431   2.396   0.294   1.335
 2740WAT     H2 8432   2.369   0.196   1.447
 2741WAT      O 8433   2.366   1.105   1.484
 2741WAT     H1 8434   2.444   1.156   1.462
 2741WAT     H2 8435   2.298   1.138   1.426
 2742WAT      O 8436   2.647   0.885   1.613
 2742WAT     H1 8437   2.684   0.842   1.690
 2742WAT     H2 8438   2.722   0.903   1.557
 2743WAT      O 8439   2.872   0.978   1.482
 2743WAT     H1 8440   2.873   1.038   1.407
 2743WAT     H2 8441   2.899   1.033   1.556
 2744WAT      O 8442   2.193   1.745   1.601
 2744WAT     H1 8443   2.098   1.749   1.594
 2744WAT     H2 8444   2.221   1.703   1.520
 2745WAT      O 8445   2.370   0.557   1.758
 2745WAT     H1 8446   2.423   0.514   1.825
 2745WAT     H2 8447   2.288   0.506   1.756
 2746WAT      O 8448   2.843   0.518   1.820
 2746WAT     H1 8449   2.763   0.464   1.821
 2746WAT     H2 8450   2.909   0.463   1.863
 2747WAT      O 8451   2.471   1.849   1.632
 2747WAT     H1 8452   2.474   1.936   1.672
 2747WAT     H2 8453   2.378   1.830   1.622
 2748WAT      O 8454   2.450   1.779   0.455
 2748WAT     H1 8455   2.533   1.773   0.407
 2748WAT     H2 8456   2.396   1.710   0.418
 2749WAT      O 8457   1.864   1.329   0.242
 2749WAT     H1 8458   1.920   1.395   0.284
 2749WAT     H2 8459   1.918   1.293   0.172
 2750WAT      O 8460   1.611   1.589   0.941
 2750WAT     H1 8461   1.648   1.502   0.931
 2750WAT     H2 8462   1.636   1.616   1.029
 2751WAT      O 8463   2.128   1.395   0.732
 2751WAT     H1 8464   2.109   1.336   0.805
 2751WAT     H2 8465   2.096   1.347   0.655
 2752WAT      O 8466   1.622   1.720   1.182
 2752WAT     H1 8467   1.596   1.738   1.272
 2752WAT     H2 8468   1.666   1.799   1.152
 2753WAT      O 8469   3.297   1.625   1.573
 2753WAT     H1 8470   3.211   1.651   1.539
 2753WAT     H2 8471   3.287   1.532   1.594
 2754WAT      O 8472   3.323   1.067   0.400
 2754WAT     H1 8473   3.393   1.133   0.399
 2754WAT     H2 8474   3.324   1.032   0.489
 2755WAT      O 8475   1.616   0.928   0.840
 2755WAT     H1 8476   1.550   0.935   0.771
 2755WAT     H2 8477   1.695   0.901   0.794
 2756WAT      O 8478   3.417   1.162   0.980
 2756WAT     H1 8479   3.442   1.080   0.937
 2756WAT     H2 8480   3.466   1.230   0.933
 2757WAT      O 8481   3.042   1.332   1.460
 2757WAT     H1 8482   2.995   1.392   1.518
 2757WAT     H2 8483   3.082   1.388   1.394
 2758WAT      O 8484   2.909   0.487   0.316
 2758WAT     H1 8485   2.916   0.436   0.235
 2758WAT     H2 8486   2.815   0.495   0.331
 2759WAT      O 8487   3.291   0.944   0.645
 2759WAT     H1 8488   3.266   0.853   0.634
 2759WAT     H2 8489   3.208   0.990   0.660
 2760WAT      O 8490   1.771   0.952   1.268
 2760WAT     H1 8491   1.769   0.933   1.362
 2760WAT     H2 8492   1.726   0.878   1.227
 2761WAT      O 8493   3.223   0.874   1.655
 2761WAT     H1 8494   3.223   0.831   1.569
 2761WAT     H2 8495   3.221   0.968   1.635
 2762WAT      O 8496   1.683   0.664   1.676
 2762WAT     H1 8497   1.598   0.647   1.716
 2762WAT     H2 8498   1.732   0.712   1.744
 2763WAT      O 8499   3.071   0.363   1.913
 2763WAT     H1 8500   3.159   0.365   1.950
 2763WAT     H2 8501   3.081   0.313   1.832
 2764WAT      O 8502   1.546   0.648   0.409
 2764WAT     H1 8503   1.477   0.678   0.468
 2764WAT     H2 8504   1.558   0.721   0.348
 2765WAT      O 8505   3.197   0.746   0.969
 2765WAT     H1 8506   3.240   0.697   0.898
 2765WAT     H2 8507   3.269   0.778   1.023
 2766WAT      O 8508   3.230   0.761   1.398
 2766WAT     H1 8509   3.136   0.744   1.394
 2766WAT     H2 8510   3.241   0.845   1.353
 2767WAT      O 8511   1.912   0.621   0.244
 2767WAT     H1 8512   1.993   0.575   0.268
 2767WAT     H2 8513   1.875   0.569   0.173
 2768WAT      O 8514   3.239   0.675   0.618
 2768WAT     H1 8515   3.281   0.628   0.690
 2768WAT     H2 8516   3.183   0.610   0.575
 2769WAT      O 8517   3.348   0.543   0.833
 2769WAT     H1 8518   3.343   0.519   0.925
 2769WAT     H2 8519   3.430   0.503   0.803
 2770WAT      O 8520   3.377   0.382   0.455
 2770WAT     H1 8521   3.282   0.388   0.469
 2770WAT     H2 8522   3.402   0.470   0.426
 2771WAT      O 8523   3.168   1.815   0.845
 2771WAT     H1 8524   3.229   1.792   0.774
 2771WAT     H2 8525   3.179   1.745   0.909
 2772WAT      O 8526   1.879   1.446   1.817
 2772WAT     H1 8527   1.886   1.405   1.904
 2772WAT     H2 8528   1.880   1.540   1.835
 2773WAT      O 8529   2.278   1.608   1.375
 2773WAT     H1 8530   2.254   1.641   1.289
 2773WAT     H2 8531   2.373   1.598   1.372
 2774WAT      O 8532   2.411   0.248   1.726
 2774WAT     H1 8533   2.466   0.290   1.793
 2774WAT     H2 8534   2.463   0.253   1.646
 2775WAT      O 8535   3.420   1.823   1.428
 2775WAT     H1 8536   3.346   1.883   1.433
 2775WAT     H2 8537   3.393   1.747   1.479
 2776WAT      O 8538   1.903   1.723   1.585
 2776WAT     H1 8539   1.824   1.703   1.634
 2776WAT     H2 8540   1.899   1.664   1.509
 2777WAT      O 8541   2.957   0.294   1.497
 2777WAT     H1 8542   2.961   0.226   1.430
 2777WAT     H2 8543   3.049   0.319   1.512
 2778WAT      O 8544   3.102   1.886   1.213
 2778WAT     H1 8545   3.071   1.957   1.158
 2778WAT     H2 8546   3.043   1.813   1.193
 2779WAT      O 8547   1.865   1.525   1.400
 2779WAT     H1 8548   1.782   1.477   1.401
 2779WAT     H2 8549   1.892   1.523   1.308
 2780WAT      O 8550   2.230   1.708   1.112
 2780WAT     H1 8551   2.257   1.638   1.052
 2780WAT     H2 8552   2.310   1.760   1.125
 2781WAT      O 8553   2.490   1.791   1.169
 2781WAT     H1 8554   2.531   1.770   1.085
 2781WAT     H2 8555   2.521   1.723   1.229
 2782WAT      O 8556   3.010   0.249   1.122
 2782WAT     H1 8557   3.047   0.178   1.069
 2782WAT     H2 8558   3.041   0.329   1.080
 2783WAT      O 8559   1.710   1.756   0.742
 2783WAT     H1 8560   1.684   1.704   0.818
 2783WAT     H2 8561   1.627   1.782   0.701
 2784WAT      O 8562   1.713   0.254   0.571
 2784WAT     H1 8563   1.787   0.280   0.517
 2784WAT     H2 8564   1.636   0.287   0.525
 2785WAT      O 8565   2.367   0.416   0.812
 2785WAT     H1 8566   2.308   0.347   0.844
 2785WAT     H2 8567   2.449   0.369   0.792
 2786WAT      O 8568   1.829   1.634   0.525
 2786WAT     H1 8569   1.803   1.699   0.459
 2786WAT     H2 8570   1.805   1.674   0.608
 2787WAT      O 8571   2.461   1.864   1.949
 2787WAT     H1 8572   2.532   1.811   1.913
 2787WAT     H2 8573   2.473   1.950   1.909
 2788WAT      O 8574   3.335   1.780   0.629
 2788WAT     H1 8575   3.321   1.692   0.593
 2788WAT     H2 8576   3.288   1.838   0.569
 2789WAT      O 8577   2.141   1.878   0.407
 2789WAT     H1 8578   2.190   1.818   0.351
 2789WAT     H2 8579   2.141   1.836   0.493
 2790WAT      O 8580   2.035   1.489   0.402
 2790WAT     H1 8581   1.969   1.542   0.447
 2790WAT     H2 8582   2.038   1.407   0.451
 2791WAT      O 8583   3.178   1.760   1.865
 2791WAT     H1 8584   3.252   1.701   1.883
 2791WAT     H2 8585   3.176   1.820   1.940
 2792WAT      O 8586   0.873   4.602   4.630
 2792WAT     H1 8587   0.869   4.507   4.620
 2792WAT     H2 8588   0.833   4.636   4.550
 2793WAT      O 8589   0.749   4.797   4.790
 2793WAT     H1 8590   0.689   4.755   4.851
 2793WAT     H2 8591   0.794   4.725   4.746
 2794WAT      O 8592   1.136   5.177   4.644
 2794WAT     H1 8593   1.073   5.116   4.683
 2794WAT     H2 8594   1.198   5.195   4.715
 2795WAT      O 8595   0.623   5.042   4.818
 2795WAT     H1 8596   0.657   4.955   4.796
 2795WAT     H2 8597   0.684   5.075   4.885
 2796WAT      O 8598   0.753   4.321   4.806
 2796WAT     H1 8599   0.809   4.254   4.846
 2796WAT     H2 8600   0.787   4.330   4.717
 2797WAT      O 8601   1.155   4.142   4.508
 2797WAT     H1 8602   1.219   4.077   4.536
 2797WAT     H2 8603   1.143   4.199   4.585
 2798WAT      O 8604   0.388   4.528   4.799
 2798WAT     H1 8605   0.457   4.568   4.851
 2798WAT     H2 8606   0.415   4.437   4.789
 2799WAT      O 8607   1.527   4.299   5.178
 2799WAT     H1 8608   1.472   4.375   5.162
 2799WAT     H2 8609   1.584   4.325   5.250
 2800WAT      O 8610   0.874   4.955   4.394
 2800WAT     H1 8611   0.855   4.960   4.300
 2800WAT     H2 8612   0.836   5.034   4.431
 2801WAT      O 8613   0.336   4.940   5.016
 2801WAT     H1 8614   0.241   4.934   5.024
 2801WAT     H2 8615   0.351   5.003   4.946
 2802WAT      O 8616   1.163   4.252   4.776
 2802WAT     H1 8617   1.079   4.248   4.823
 2802WAT     H2 8618   1.186   4.345   4.778
 2803WAT      O 8619   1.276   5.306   5.066
 2803WAT     H1 8620   1.209   5.372   5.052
 2803WAT     H2 8621   1.317   5.294   4.980
 2804WAT      O 8622   1.431   4.190   4.848
 2804WAT     H1 8623   1.337   4.197   4.834
 2804WAT     H2 8624   1.447   4.238   4.929
 2805WAT      O 8625   0.521   3.891   4.638
 2805WAT     H1 8626   0.546   3.821   4.578
 2805WAT     H2 8627   0.426   3.899   4.627
 2806WAT      O 8628   1.223   5.084   4.400
 2806WAT     H1 8629   1.212   4.991   4.422
 2806WAT     H2 8630   1.191   5.131   4.477
 2807WAT      O 8631   1.057   4.922   5.029
 2807WAT     H1 8632   1.117   4.905   4.957
 2807WAT     H2 8633   1.108   4.977   5.089
 2808WAT      O 8634   0.761   4.702   4.402
 2808WAT     H1 8635   0.667   4.717   4.385
 2808WAT     H2 8636   0.800   4.789   4.393
 2809WAT      O 8637   0.776   4.270   4.052
 2809WAT     H1 8638   0.708   4.327   4.087
 2809WAT     H2 8639   0.856   4.323   4.057
 2810WAT      O 8640   1.382   4.768   5.048
 2810WAT     H1 8641   1.326   4.796   4.976
 2810WAT     H2 8642   1.465   4.813   5.032
 2811WAT      O 8643   1.159   4.820   4.442
 2811WAT     H1 8644   1.072   4.824   4.402
 2811WAT     H2 8645   1.145   4.774   4.525
 2812WAT      O 8646   1.095   4.462   5.175
 2812WAT     H1 8647   1.055   4.549   5.178
 2812WAT     H2 8648   1.025   4.404   5.147
 2813WAT      O 8649   0.334   4.695   4.586
 2813WAT     H1 8650   0.238   4.697   4.591
 2813WAT     H2 8651   0.361   4.640   4.659
 2814WAT      O 8652   0.367   5.116   4.800
 2814WAT     H1 8653   0.342   5.112   4.708
 2814WAT     H2 8654   0.459   5.092   4.801
 2815WAT      O 8655   0.208   4.447   5.011
 2815WAT     H1 8656   0.253   4.477   4.932
 2815WAT     H2 8657   0.241   4.503   5.081
 2816WAT      O 8658   0.266   5.042   5.504
 2816WAT     H1 8659   0.261   4.949   5.527
 2816WAT     H2 8660   0.196   5.055   5.441
 2817WAT      O 8661   0.996   4.784   4.101
 2817WAT     H1 8662   1.050   4.711   4.071
 2817WAT     H2 8663   1.057   4.855   4.117
 2818WAT      O 8664   0.773   5.188   4.506
 2818WAT     H1 8665   0.821   5.264   4.472
 2818WAT     H2 8666   0.804   5.179   4.596
 2819WAT      O 8667   0.390   5.312   5.483
 2819WAT     H1 8668   0.399   5.323   5.388
 2819WAT     H2 8669   0.347   5.227   5.494
 2820WAT      O 8670   1.308   3.809   3.952
 2820WAT     H1 8671   1.294   3.815   4.047
 2820WAT     H2 8672   1.373   3.876   3.933
 2821WAT      O 8673   1.462   5.101   5.393
 2821WAT     H1 8674   1.535   5.108   5.333
 2821WAT     H2 8675   1.425   5.014   5.376
 2822WAT      O 8676   1.018   5.319   4.087
 2822WAT     H1 8677   0.928   5.297   4.065
 2822WAT     H2 8678   1.071   5.267   4.027
 2823WAT      O 8679   1.434   4.378   5.504
 2823WAT     H1 8680   1.416   4.471   5.490
 2823WAT     H2 8681   1.351   4.334   5.485
 2824WAT      O 8682   0.248   3.959   4.668
 2824WAT     H1 8683   0.160   3.994   4.679
 2824WAT     H2 8684   0.291   3.976   4.752
 2825WAT      O 8685   0.655   4.250   5.248
 2825WAT     H1 8686   0.601   4.259   5.327
 2825WAT     H2 8687   0.621   4.172   5.205
 2826WAT      O 8688   1.180   4.308   5.392
 2826WAT     H1 8689   1.100   4.287   5.440
 2826WAT     H2 8690   1.153   4.370   5.324
 2827WAT      O 8691   0.891   4.504   5.550
 2827WAT     H1 8692   0.907   4.410   5.555
 2827WAT     H2 8693   0.977   4.544   5.567
 2828WAT      O 8694   0.565   3.922   4.206
 2828WAT     H1 8695   0.490   3.923   4.266
 2828WAT     H2 8696   0.591   3.830   4.201
 2829WAT      O 8697   0.445   4.024   4.875
 2829WAT     H1 8698   0.451   4.116   4.847
 2829WAT     H2 8699   0.495   3.976   4.808
 2830WAT      O 8700   0.900   4.463   4.336
 2830WAT     H1 8701   0.848   4.543   4.329
 2830WAT     H2 8702   0.934   4.450   4.247
 2831WAT      O 8703   0.460   4.563   5.519
 2831WAT     H1 8704   0.474   4.469   5.506
 2831WAT     H2 8705   0.548   4.600   5.523
 2832WAT      O 8706   0.859   4.324   4.560
 2832WAT     H1 8707   0.873   4.368   4.477
 2832WAT     H2 8708   0.856   4.231   4.538
 2833WAT      O 8709   0.840   4.527   4.972
 2833WAT     H1 8710   0.762   4.570   5.007
 2833WAT     H2 8711   0.805   4.460   4.913
 2834WAT      O 8712   0.490   4.273   4.756
 2834WAT     H1 8713   0.492   4.242   4.666
 2834WAT     H2 8714   0.582   4.292   4.777
 2835WAT      O 8715   0.586   4.429   4.151
 2835WAT     H1 8716   0.523   4.405   4.219
 2835WAT     H2 8717   0.541   4.494   4.098
 2836WAT      O 8718   0.932   4.140   4.910
 2836WAT     H1 8719   0.932   4.181   4.996
 2836WAT     H2 8720   0.887   4.056   4.924
 2837WAT      O 8721   0.464   4.602   3.976
 2837WAT     H1 8722   0.411   4.536   3.930
 2837WAT     H2 8723   0.532   4.626   3.913
 2838WAT      O 8724   1.171   3.798   5.464
 2838WAT     H1 8725   1.245   3.820   5.521
 2838WAT     H2 8726   1.206   3.807   5.375
 2839WAT      O 8727   0.556   4.683   4.965
 2839WAT     H1 8728   0.561   4.627   5.042
 2839WAT     H2 8729   0.484   4.743   4.984
 2840WAT      O 8730   0.340   4.611   5.192
 2840WAT     H1 8731   0.355   4.693   5.239
 2840WAT     H2 8732   0.423   4.563   5.200
 2841WAT      O 8733   1.255   4.875   4.830
 2841WAT     H1 8734   1.336   4.899   4.783
 2841WAT     H2 8735   1.210   4.815   4.771
 2842WAT      O 8736   0.795   4.062   4.230
 2842WAT     H1 8737   0.710   4.019   4.225
 2842WAT     H2 8738   0.788   4.139   4.174
 2843WAT      O 8739   0.784   4.893   5.446
 2843WAT     H1 8740   0.776   4.803   5.413
 2843WAT     H2 8741   0.697   4.913   5.480
 2844WAT      O 8742   1.017   4.401   4.091
 2844WAT     H1 8743   1.074   4.470   4.056
 2844WAT     H2 8744   1.061   4.320   4.067
 2845WAT      O 8745   0.712   5.037   4.177
 2845WAT     H1 8746   0.718   5.123   4.134
 2845WAT     H2 8747   0.635   5.043   4.233
 2846WAT      O 8748   0.260   4.765   5.530
 2846WAT     H1 8749   0.183   4.709   5.527
 2846WAT     H2 8750   0.334   4.704   5.528
 2847WAT      O 8751   0.772   5.162   5.393
 2847WAT     H1 8752   0.783   5.068   5.408
 2847WAT     H2 8753   0.693   5.185   5.443
 2848WAT      O 8754   1.181   4.603   3.994
 2848WAT     H1 8755   1.169   4.614   3.900
 2848WAT     H2 8756   1.269   4.635   4.011
 2849WAT      O 8757   1.342   4.873   5.295
 2849WAT     H1 8758   1.275   4.940   5.278
 2849WAT     H2 8759   1.359   4.834   5.209
 2850WAT      O 8760   1.397   5.260   4.280
 2850WAT     H1 8761   1.340   5.198   4.326
 2850WAT     H2 8762   1.341   5.298   4.213
 2851WAT      O 8763   0.919   5.001   4.695
 2851WAT     H1 8764   0.926   4.972   4.604
 2851WAT     H2 8765   0.871   4.932   4.739
 2852WAT      O 8766   0.541   5.066   4.417
 2852WAT     H1 8767   0.617   5.113   4.452
 2852WAT     H2 8768   0.466   5.106   4.461
 2853WAT      O 8769   0.498   4.795   4.385
 2853WAT     H1 8770   0.511   4.888   4.405
 2853WAT     H2 8771   0.443   4.762   4.455
 2854WAT      O 8772   0.695   5.255   5.143
 2854WAT     H1 8773   0.727   5.225   5.228
 2854WAT     H2 8774   0.751   5.210   5.079
 2855WAT      O 8775   0.855   5.102   4.964
 2855WAT     H1 8776   0.909   5.035   5.006
 2855WAT     H2 8777   0.885   5.103   4.873
 2856WAT      O 8778   1.213   5.152   3.943
 2856WAT     H1 8779   1.191   5.082   4.004
 2856WAT     H2 8780   1.188   5.118   3.857
 2857WAT      O 8781   1.035   5.237   5.372
 2857WAT     H1 8782   1.035   5.332   5.385
 2857WAT     H2 8783   0.943   5.211   5.379
 2858WAT      O 8784   1.190   4.969   4.146
 2858WAT     H1 8785   1.192   5.022   4.226
 2858WAT     H2 8786   1.271   4.918   4.150
 2859WAT      O 8787   0.440   5.289   4.007
 2859WAT     H1 8788   0.393   5.328   3.933
 2859WAT     H2 8789   0.438   5.195   3.988
 2860WAT      O 8790   0.913   4.249   5.156
 2860WAT     H1 8791   0.949   4.175   5.206
 2860WAT     H2 8792   0.823   4.258   5.189
 2861WAT      O 8793   1.267   4.102   4.258
 2861WAT     H1 8794   1.211   4.132   4.186
 2861WAT     H2 8795   1.217   4.125   4.337
 2862WAT      O 8796   0.717   5.276   4.036
 2862WAT     H1 8797   0.720   5.263   3.941
 2862WAT     H2 8798   0.627   5.304   4.053
 2863WAT      O 8799   0.409   4.355   4.349
 2863WAT     H1 8800   0.384   4.424   4.411
 2863WAT     H2 8801   0.450   4.288   4.403
 2864WAT      O 8802   0.600   4.517   5.178
 2864WAT     H1 8803   0.657   4.560   5.241
 2864WAT     H2 8804   0.619   4.424   5.189
 2865WAT      O 8805   0.891   4.047   4.490
 2865WAT     H1 8806   0.857   4.049   4.400
 2865WAT     H2 8807   0.983   4.074   4.482
 2866WAT      O 8808   0.285   4.295   4.097
 2866WAT     H1 8809   0.331   4.215   4.072
 2866WAT     H2 8810   0.315   4.313   4.186
 2867WAT      O 8811   1.312   4.125   5.238
 2867WAT     H1 8812   1.268   4.187   5.296
 2867WAT     H2 8813   1.392   4.171   5.210
 2868WAT      O 8814   1.135   4.683   4.675
 2868WAT     H1 8815   1.046   4.648   4.676
 2868WAT     H2 8816   1.190   4.608   4.697
 2869WAT      O 8817   1.350   5.307   4.800
 2869WAT     H1 8818   1.337   5.366   4.726
 2869WAT     H2 8819   1.444   5.286   4.798
 2870WAT      O 8820   0.475   5.026   3.917
 2870WAT     H1 8821   0.462   4.966   3.990
 2870WAT     H2 8822   0.471   4.970   3.839
 2871WAT      O 8823   0.530   4.962   5.485
 2871WAT     H1 8824   0.452   5.004   5.521
 2871WAT     H2 8825   0.501   4.922   5.404
 2872WAT      O 8826   0.780   4.869   3.963
 2872WAT     H1 8827   0.735   4.920   4.030
 2872WAT     H2 8828   0.854   4.830   4.008
 2873WAT      O 8829   1.202   5.073   5.522
 2873WAT     H1 8830   1.292   5.100   5.508
 2873WAT     H2 8831   1.149   5.143   5.482
 2874WAT      O 8832   0.438   4.840   4.114
 2874WAT     H1 8833   0.458   4.820   4.205
 2874WAT     H2 8834   0.437   4.755   4.070
 2875WAT      O 8835   0.666   4.670   3.802
 2875WAT     H1 8836   0.741   4.613   3.782
 2875WAT     H2 8837   0.703   4.742   3.852
 2876WAT      O 8838   1.057   4.854   5.451
 2876WAT     H1 8839   1.109   4.927   5.484
 2876WAT     H2 8840   0.966   4.881   5.466
 2877WAT      O 8841   1.139   4.616   5.554
 2877WAT     H1 8842   1.226   4.608   5.515
 2877WAT     H2 8843   1.109   4.703   5.527
 2878WAT      O 8844   0.563   4.017   5.128
 2878WAT     H1 8845   0.506   4.019   5.051
 2878WAT     H2 8846   0.535   3.939   5.177
 2879WAT      O 8847   0.481   4.865   5.233
 2879WAT     H1 8848   0.570   4.879   5.201
 2879WAT     H2 8849   0.425   4.899   5.163
 2880WAT      O 8850   0.777   4.635   5.346
 2880WAT     H1 8851   0.812   4.586   5.421
 2880WAT     H2 8852   0.854   4.654   5.292
 2881WAT      O 8853   1.003   4.719   5.216
 2881WAT     H1 8854   1.011   4.780   5.143
 2881WAT     H2 8855   1.035   4.768   5.292
 2882WAT      O 8856   0.318   4.400   3.845
 2882WAT     H1 8857   0.290   4.363   3.929
 2882WAT     H2 8858   0.247   4.458   3.819
 2883WAT      O 8859   0.504   4.264   5.477
 2883WAT     H1 8860   0.549   4.186   5.509
 2883WAT     H2 8861   0.411   4.244   5.485
 2884WAT      O 8862   0.928   4.236   5.501
 2884WAT     H1 8863   0.845   4.243   5.454
 2884WAT     H2 8864   0.931   4.144   5.530
 2885WAT      O 8865   0.972   3.916   4.083
 2885WAT     H1 8866   0.984   3.835   4.133
 2885WAT     H2 8867   0.906   3.964   4.133
 2886WAT      O 8868   0.427   4.075   4.016
 2886WAT     H1 8869   0.385   4.015   3.954
 2886WAT     H2 8870   0.473   4.018   4.077
 2887WAT      O 8871   0.291   5.134   4.529
 2887WAT     H1 8872   0.231   5.208   4.525
 2887WAT     H2 8873   0.253   5.069   4.469
 2888WAT      O 8874   1.378   5.351   5.322
 2888WAT     H1 8875   1.351   5.341   5.231
 2888WAT     H2 8876   1.400   5.262   5.351
 2889WAT      O 8877   1.495   5.122   3.952
 2889WAT     H1 8878   1.400   5.138   3.951
 2889WAT     H2 8879   1.533   5.206   3.924
 2890WAT      O 8880   1.421   4.821   4.156
 2890WAT     H1 8881   1.498   4.877   4.167
 2890WAT     H2 8882   1.420   4.766   4.235
 2891WAT      O 8883   1.531   4.901   4.715
 2891WAT     H1 8884   1.560   4.821   4.671
 2891WAT     H2 8885   1.579   4.971   4.670
 2892WAT      O 8886   1.187   5.084   5.201
 2892WAT     H1 8887   1.131   5.130   5.264
 2892WAT     H2 8888   1.231   5.154   5.152
 2893WAT      O 8889   1.518   4.845   3.896
 2893WAT     H1 8890   1.525   4.940   3.888
 2893WAT     H2 8891   1.466   4.831   3.975
 2894WAT      O 8892   1.118   4.148   4.031
 2894WAT     H1 8893   1.158   4.134   3.945
 2894WAT     H2 8894   1.060   4.073   4.042
 2895WAT      O 8895   1.400   4.684   4.394
 2895WAT     H1 8896   1.374   4.591   4.393
 2895WAT     H2 8897   1.319   4.731   4.415
 2896WAT      O 8898   1.381   4.630   5.409
 2896WAT     H1 8899   1.381   4.583   5.326
 2896WAT     H2 8900   1.365   4.721   5.386
 2897WAT      O 8901   1.327   4.486   4.736
 2897WAT     H1 8902   1.370   4.430   4.672
 2897WAT     H2 8903   1.398   4.525   4.787
 2898WAT      O 8904   1.363   4.515   5.155
 2898WAT     H1 8905   1.269   4.495   5.152
 2898WAT     H2 8906   1.371   4.597   5.106
 2899WAT      O 8907   1.350   4.414   4.386
 2899WAT     H1 8908   1.396   4.369   4.456
 2899WAT     H2 8909   1.273   4.360   4.368
 2900WAT      O 8910   1.480   4.292   4.592
 2900WAT     H1 8911   1.469   4.249   4.677
 2900WAT     H2 8912   1.561   4.254   4.557
 2901WAT      O 8913   1.302   3.853   5.220
 2901WAT     H1 8914   1.314   3.948   5.215
 2901WAT     H2 8915   1.273   3.827   5.132
 2902WAT      O 8916   1.500   4.005   3.924
 2902WAT     H1 8917   1.591   3.984   3.899
 2902WAT     H2 8918   1.509   4.054   4.005
 2903WAT      O 8919   1.533   4.120   4.174
 2903WAT     H1 8920   1.446   4.110   4.213
 2903WAT     H2 8921   1.548   4.215   4.174
 2904WAT      O 8922   0.435   5.330   5.209
 2904WAT     H1 8923   0.392   5.343   5.124
 2904WAT     H2 8924   0.525   5.309   5.186
 2905WAT      O 8925   0.625   4.022   5.537
 2905WAT     H1 8926   0.577   3.951   5.579
 2905WAT     H2 8927   0.715   3.991   5.532
 2906WAT      O 8928   0.908   3.957   5.494
 2906WAT     H1 8929   0.937   3.982   5.406
 2906WAT     H2 8930   0.973   3.893   5.523
 2907WAT      O 8931   0.973   3.784   5.147
 2907WAT     H1 8932   0.920   3.825   5.078
 2907WAT     H2 8933   0.913   3.725   5.191
 2908WAT      O 8934   1.034   4.026   5.259
 2908WAT     H1 8935   1.024   3.941   5.217
 2908WAT     H2 8936   1.127   4.047   5.249
 2909WAT      O 8937   0.353   5.351   4.945
 2909WAT     H1 8938   0.350   5.265   4.901
 2909WAT     H2 8939   0.385   5.411   4.877
 2910WAT      O 8940   0.780   3.914   4.989
 2910WAT     H1 8941   0.714   3.958   5.042
 2910WAT     H2 8942   0.736   3.837   4.954
 2911WAT      O 8943   1.118   3.947   4.793
 2911WAT     H1 8944   1.191   3.966   4.734
 2911WAT     H2 8945   1.084   4.032   4.818
 2912WAT      O 8946   1.325   3.962   4.613
 2912WAT     H1 8947   1.312   3.868   4.601
 2912WAT     H2 8948   1.417   3.970   4.640
 2913WAT      O 8949   0.503   4.146   4.507
 2913WAT     H1 8950   0.442   4.095   4.453
 2913WAT     H2 8951   0.560   4.080   4.547
 2914WAT      O 8952   0.932   3.805   4.643
 2914WAT     H1 8953   0.999   3.843   4.701
 2914WAT     H2 8954   0.899   3.880   4.594
 2915WAT      O 8955   1.272   3.824   4.223
 2915WAT     H1 8956   1.270   3.917   4.247
 2915WAT     H2 8957   1.183   3.793   4.243
 2916WAT      O 8958   0.341   3.961   4.380
 2916WAT     H1 8959   0.277   3.955   4.451
 2916WAT     H2 8960   0.303   3.907   4.310
 2917WAT      O 8961   0.454   3.810   5.607
 2917WAT     H1 8962   0.372   3.845   5.642
 2917WAT     H2 8963   0.444   3.715   5.610
 2918WAT      O 8964   0.875   4.601   2.754
 2918WAT     H1 8965   0.870   4.505   2.744
 2918WAT     H2 8966   0.834   4.635   2.674
 2919WAT      O 8967   0.750   4.797   2.918
 2919WAT     H1 8968   0.689   4.756   2.979
 2919WAT     H2 8969   0.796   4.723   2.877
 2920WAT      O 8970   1.134   5.176   2.769
 2920WAT     H1 8971   1.070   5.113   2.803
 2920WAT     H2 8972   1.194   5.190   2.842
 2921WAT      O 8973   0.629   5.044   2.941
 2921WAT     H1 8974   0.660   4.956   2.922
 2921WAT     H2 8975   0.687   5.075   3.011
 2922WAT      O 8976   0.756   4.320   2.931
 2922WAT     H1 8977   0.812   4.255   2.974
 2922WAT     H2 8978   0.790   4.327   2.842
 2923WAT      O 8979   1.154   4.142   2.631
 2923WAT     H1 8980   1.218   4.077   2.660
 2923WAT     H2 8981   1.140   4.198   2.707
 2924WAT      O 8982   0.386   4.533   2.924
 2924WAT     H1 8983   0.451   4.579   2.976
 2924WAT     H2 8984   0.418   4.443   2.919
 2925WAT      O 8985   1.542   4.310   3.330
 2925WAT     H1 8986   1.482   4.382   3.307
 2925WAT     H2 8987   1.593   4.344   3.403
 2926WAT      O 8988   0.876   4.952   2.514
 2926WAT     H1 8989   0.856   4.958   2.421
 2926WAT     H2 8990   0.839   5.031   2.552
 2927WAT      O 8991   0.352   4.924   3.141
 2927WAT     H1 8992   0.258   4.906   3.143
 2927WAT     H2 8993   0.362   4.991   3.074
 2928WAT      O 8994   1.158   4.250   2.903
 2928WAT     H1 8995   1.077   4.244   2.953
 2928WAT     H2 8996   1.180   4.344   2.904
 2929WAT      O 8997   1.275   5.306   3.198
 2929WAT     H1 8998   1.207   5.372   3.184
 2929WAT     H2 8999   1.315   5.294   3.112
 2930WAT      O 9000   1.428   4.192   2.968
 2930WAT     H1 9001   1.333   4.198   2.955
 2930WAT     H2 9002   1.444   4.244   3.047
 2931WAT      O 9003   0.517   3.893   2.766
 2931WAT     H1 9004   0.539   3.823   2.704
 2931WAT     H2 9005   0.422   3.894   2.769
 2932WAT      O 9006   1.223   5.085   2.524
 2932WAT     H1 9007   1.213   4.992   2.546
 2932WAT     H2 9008   1.191   5.131   2.601
 2933WAT      O 9009   1.055   4.921   3.163
 2933WAT     H1 9010   1.113   4.903   3.090
 2933WAT     H2 9011   1.106   4.977   3.222
 2934WAT      O 9012   0.761   4.700   2.525
 2934WAT     H1 9013   0.668   4.716   2.509
 2934WAT     H2 9014   0.802   4.786   2.514
 2935WAT      O 9015   0.777   4.267   2.172
 2935WAT     H1 9016   0.706   4.321   2.206
 2935WAT     H2 9017   0.855   4.321   2.179
 2936WAT      O 9018   1.381   4.764   3.174
 2936WAT     H1 9019   1.325   4.792   3.102
 2936WAT     H2 9020   1.463   4.811   3.160
 2937WAT      O 9021   1.159   4.821   2.566
 2937WAT     H1 9022   1.072   4.826   2.527
 2937WAT     H2 9023   1.145   4.775   2.649
 2938WAT      O 9024   1.089   4.463   3.297
 2938WAT     H1 9025   1.053   4.551   3.305
 2938WAT     H2 9026   1.015   4.409   3.270
 2939WAT      O 9027   0.334   4.692   2.705
 2939WAT     H1 9028   0.238   4.695   2.711
 2939WAT     H2 9029   0.361   4.640   2.781
 2940WAT      O 9030   0.370   5.110   2.926
 2940WAT     H1 9031   0.345   5.107   2.833
 2940WAT     H2 9032   0.464   5.089   2.926
 2941WAT      O 9033   0.194   4.482   3.134
 2941WAT     H1 9034   0.250   4.498   3.058
 2941WAT     H2 9035   0.244   4.516   3.209
 2942WAT      O 9036   0.252   5.104   3.611
 2942WAT     H1 9037   0.167   5.077   3.647
 2942WAT     H2 9038   0.237   5.110   3.517
 2943WAT      O 9039   0.995   4.785   2.219
 2943WAT     H1 9040   1.050   4.712   2.191
 2943WAT     H2 9041   1.057   4.855   2.238
 2944WAT      O 9042   0.774   5.180   2.635
 2944WAT     H1 9043   0.824   5.258   2.612
 2944WAT     H2 9044   0.801   5.160   2.725
 2945WAT      O 9045   0.416   5.319   3.664
 2945WAT     H1 9046   0.416   5.359   3.577
 2945WAT     H2 9047   0.355   5.246   3.657
 2946WAT      O 9048   1.307   3.809   2.074
 2946WAT     H1 9049   1.293   3.814   2.169
 2946WAT     H2 9050   1.372   3.877   2.055
 2947WAT      O 9051   1.572   5.373   3.867
 2947WAT     H1 9052   1.520   5.454   3.876
 2947WAT     H2 9053   1.600   5.373   3.775
 2948WAT      O 9054   1.447   5.093   3.522
 2948WAT     H1 9055   1.516   5.100   3.456
 2948WAT     H2 9056   1.417   5.002   3.516
 2949WAT      O 9057   1.020   5.321   2.209
 2949WAT     H1 9058   0.929   5.299   2.187
 2949WAT     H2 9059   1.072   5.268   2.149
 2950WAT      O 9060   1.425   4.384   3.653
 2950WAT     H1 9061   1.403   4.474   3.628
 2950WAT     H2 9062   1.354   4.331   3.618
 2951WAT      O 9063   0.253   3.937   2.828
 2951WAT     H1 9064   0.183   3.999   2.807
 2951WAT     H2 9065   0.283   3.964   2.915
 2952WAT      O 9066   0.634   4.262   3.393
 2952WAT     H1 9067   0.583   4.272   3.473
 2952WAT     H2 9068   0.601   4.181   3.354
 2953WAT      O 9069   1.194   4.314   3.504
 2953WAT     H1 9070   1.122   4.301   3.566
 2953WAT     H2 9071   1.157   4.371   3.437
 2954WAT      O 9072   0.895   4.515   3.715
 2954WAT     H1 9073   0.914   4.421   3.718
 2954WAT     H2 9074   0.979   4.557   3.730
 2955WAT      O 9075   0.560   3.921   2.317
 2955WAT     H1 9076   0.484   3.926   2.373
 2955WAT     H2 9077   0.585   3.829   2.317
 2956WAT      O 9078   0.457   4.030   3.010
 2956WAT     H1 9079   0.459   4.121   2.979
 2956WAT     H2 9080   0.497   3.980   2.939
 2957WAT      O 9081   0.895   4.459   2.459
 2957WAT     H1 9082   0.846   4.541   2.454
 2957WAT     H2 9083   0.931   4.449   2.370
 2958WAT      O 9084   0.452   4.601   3.617
 2958WAT     H1 9085   0.477   4.509   3.615
 2958WAT     H2 9086   0.520   4.643   3.670
 2959WAT      O 9087   0.858   4.321   2.684
 2959WAT     H1 9088   0.871   4.365   2.600
 2959WAT     H2 9089   0.854   4.228   2.662
 2960WAT      O 9090   0.618   4.175   3.844
 2960WAT     H1 9091   0.544   4.153   3.900
 2960WAT     H2 9092   0.685   4.209   3.903
 2961WAT      O 9093   0.833   4.525   3.104
 2961WAT     H1 9094   0.762   4.530   3.168
 2961WAT     H2 9095   0.802   4.462   3.039
 2962WAT      O 9096   0.492   4.279   2.887
 2962WAT     H1 9097   0.491   4.244   2.798
 2962WAT     H2 9098   0.584   4.296   2.906
 2963WAT      O 9099   0.581   4.418   2.269
 2963WAT     H1 9100   0.532   4.408   2.351
 2963WAT     H2 9101   0.536   4.488   2.222
 2964WAT      O 9102   0.932   4.143   3.047
 2964WAT     H1 9103   0.927   4.185   3.133
 2964WAT     H2 9104   0.887   4.059   3.058
 2965WAT      O 9105   0.459   4.602   2.105
 2965WAT     H1 9106   0.404   4.537   2.061
 2965WAT     H2 9107   0.527   4.623   2.041
 2966WAT      O 9108   1.269   3.885   3.602
 2966WAT     H1 9109   1.281   3.797   3.637
 2966WAT     H2 9110   1.284   3.876   3.508
 2967WAT      O 9111   0.544   4.695   3.087
 2967WAT     H1 9112   0.567   4.644   3.164
 2967WAT     H2 9113   0.477   4.757   3.117
 2968WAT      O 9114   0.361   4.589   3.334
 2968WAT     H1 9115   0.365   4.621   3.424
 2968WAT     H2 9116   0.448   4.554   3.317
 2969WAT      O 9117   1.252   4.875   2.959
 2969WAT     H1 9118   1.332   4.900   2.913
 2969WAT     H2 9119   1.207   4.816   2.899
 2970WAT      O 9120   0.792   4.059   2.352
 2970WAT     H1 9121   0.706   4.016   2.345
 2970WAT     H2 9122   0.785   4.136   2.295
 2971WAT      O 9123   0.742   4.885   3.578
 2971WAT     H1 9124   0.746   4.794   3.548
 2971WAT     H2 9125   0.660   4.891   3.626
 2972WAT      O 9126   1.015   4.402   2.214
 2972WAT     H1 9127   1.072   4.471   2.179
 2972WAT     H2 9128   1.059   4.320   2.190
 2973WAT      O 9129   0.713   5.037   2.299
 2973WAT     H1 9130   0.719   5.123   2.257
 2973WAT     H2 9131   0.636   5.044   2.356
 2974WAT      O 9132   0.192   4.609   3.717
 2974WAT     H1 9133   0.140   4.653   3.649
 2974WAT     H2 9134   0.282   4.615   3.684
 2975WAT      O 9135   0.765   5.150   3.525
 2975WAT     H1 9136   0.763   5.055   3.533
 2975WAT     H2 9137   0.717   5.182   3.602
 2976WAT      O 9138   1.180   4.603   2.117
 2976WAT     H1 9139   1.169   4.613   2.022
 2976WAT     H2 9140   1.269   4.634   2.134
 2977WAT      O 9141   1.329   4.864   3.422
 2977WAT     H1 9142   1.270   4.937   3.400
 2977WAT     H2 9143   1.350   4.824   3.337
 2978WAT      O 9144   1.397   5.259   2.402
 2978WAT     H1 9145   1.340   5.198   2.449
 2978WAT     H2 9146   1.340   5.299   2.336
 2979WAT      O 9147   0.921   4.998   2.817
 2979WAT     H1 9148   0.927   4.963   2.728
 2979WAT     H2 9149   0.872   4.932   2.866
 2980WAT      O 9150   0.542   5.066   2.538
 2980WAT     H1 9151   0.619   5.111   2.575
 2980WAT     H2 9152   0.468   5.106   2.582
 2981WAT      O 9153   0.500   4.795   2.507
 2981WAT     H1 9154   0.512   4.888   2.527
 2981WAT     H2 9155   0.443   4.762   2.577
 2982WAT      O 9156   0.680   5.247   3.281
 2982WAT     H1 9157   0.711   5.216   3.366
 2982WAT     H2 9158   0.738   5.205   3.218
 2983WAT      O 9159   0.850   5.102   3.103
 2983WAT     H1 9160   0.902   5.032   3.141
 2983WAT     H2 9161   0.890   5.118   3.017
 2984WAT      O 9162   1.214   5.151   2.067
 2984WAT     H1 9163   1.192   5.081   2.129
 2984WAT     H2 9164   1.188   5.116   1.982
 2985WAT      O 9165   1.028   5.223   3.509
 2985WAT     H1 9166   1.024   5.316   3.532
 2985WAT     H2 9167   0.938   5.192   3.514
 2986WAT      O 9168   1.190   4.969   2.271
 2986WAT     H1 9169   1.192   5.021   2.351
 2986WAT     H2 9170   1.271   4.917   2.274
 2987WAT      O 9171   0.637   5.199   3.772
 2987WAT     H1 9172   0.590   5.133   3.822
 2987WAT     H2 9173   0.569   5.256   3.736
 2988WAT      O 9174   0.442   5.290   2.132
 2988WAT     H1 9175   0.394   5.330   2.059
 2988WAT     H2 9176   0.440   5.196   2.112
 2989WAT      O 9177   0.898   4.247   3.297
 2989WAT     H1 9178   0.941   4.177   3.346
 2989WAT     H2 9179   0.812   4.255   3.337
 2990WAT      O 9180   1.267   4.103   2.381
 2990WAT     H1 9181   1.211   4.132   2.309
 2990WAT     H2 9182   1.218   4.125   2.460
 2991WAT      O 9183   0.719   5.276   2.158
 2991WAT     H1 9184   0.721   5.263   2.063
 2991WAT     H2 9185   0.630   5.305   2.177
 2992WAT      O 9186   0.434   4.372   2.494
 2992WAT     H1 9187   0.408   4.439   2.556
 2992WAT     H2 9188   0.465   4.299   2.548
 2993WAT      O 9189   0.625   4.520   3.295
 2993WAT     H1 9190   0.673   4.563   3.366
 2993WAT     H2 9191   0.626   4.428   3.318
 2994WAT      O 9192   0.891   4.045   2.611
 2994WAT     H1 9193   0.855   4.047   2.522
 2994WAT     H2 9194   0.982   4.073   2.601
 2995WAT      O 9195   0.282   4.211   2.314
 2995WAT     H1 9196   0.335   4.183   2.239
 2995WAT     H2 9197   0.335   4.279   2.356
 2996WAT      O 9198   1.322   4.133   3.347
 2996WAT     H1 9199   1.275   4.193   3.406
 2996WAT     H2 9200   1.406   4.175   3.333
 2997WAT      O 9201   1.136   4.684   2.800
 2997WAT     H1 9202   1.047   4.649   2.799
 2997WAT     H2 9203   1.191   4.609   2.821
 2998WAT      O 9204   1.348   5.305   2.931
 2998WAT     H1 9205   1.333   5.364   2.857
 2998WAT     H2 9206   1.442   5.285   2.927
 2999WAT      O 9207   0.888   5.075   3.808
 2999WAT     H1 9208   0.807   5.123   3.788
 2999WAT     H2 9209   0.860   4.999   3.858
 3000WAT      O 9210   0.475   5.027   2.040
 3000WAT     H1 9211   0.461   4.968   2.114
 3000WAT     H2 9212   0.470   4.971   1.963
 3001WAT      O 9213   0.471   4.937   3.647
 3001WAT     H1 9214   0.398   4.999   3.647
 3001WAT     H2 9215   0.475   4.905   3.557
 3002WAT      O 9216   0.779   4.871   2.083
 3002WAT     H1 9217   0.735   4.922   2.151
 3002WAT     H2 9218   0.854   4.832   2.127
 3003WAT      O 9219   1.195   5.074   3.674
 3003WAT     H1 9220   1.282   5.093   3.637
 3003WAT     H2 9221   1.136   5.132   3.626
 3004WAT      O 9222   0.436   4.842   2.238
 3004WAT     H1 9223   0.458   4.823   2.329
 3004WAT     H2 9224   0.436   4.757   2.195
 3005WAT      O 9225   0.664   4.667   1.928
 3005WAT     H1 9226   0.740   4.612   1.908
 3005WAT     H2 9227   0.701   4.741   1.977
 3006WAT      O 9228   1.029   4.860   3.606
 3006WAT     H1 9229   1.082   4.932   3.640
 3006WAT     H2 9230   0.939   4.887   3.619
 3007WAT      O 9231   1.143   4.640   3.725
 3007WAT     H1 9232   1.215   4.620   3.665
 3007WAT     H2 9233   1.104   4.720   3.689
 3008WAT      O 9234   0.559   4.022   3.264
 3008WAT     H1 9235   0.513   4.030   3.180
 3008WAT     H2 9236   0.520   3.947   3.306
 3009WAT      O 9237   0.488   4.893   3.379
 3009WAT     H1 9238   0.578   4.905   3.347
 3009WAT     H2 9239   0.434   4.904   3.300
 3010WAT      O 9240   0.785   4.626   3.487
 3010WAT     H1 9241   0.817   4.581   3.565
 3010WAT     H2 9242   0.865   4.650   3.439
 3011WAT      O 9243   1.008   4.722   3.360
 3011WAT     H1 9244   1.012   4.782   3.286
 3011WAT     H2 9245   1.032   4.775   3.436
 3012WAT      O 9246   0.299   4.412   1.981
 3012WAT     H1 9247   0.234   4.363   2.031
 3012WAT     H2 9248   0.247   4.475   1.931
 3013WAT      O 9249   0.498   4.323   3.645
 3013WAT     H1 9250   0.556   4.274   3.703
 3013WAT     H2 9251   0.420   4.342   3.698
 3014WAT      O 9252   1.007   4.253   3.699
 3014WAT     H1 9253   0.949   4.181   3.677
 3014WAT     H2 9254   1.082   4.212   3.744
 3015WAT      O 9255   0.971   3.916   2.205
 3015WAT     H1 9256   0.984   3.835   2.254
 3015WAT     H2 9257   0.904   3.964   2.254
 3016WAT      O 9258   0.431   4.076   2.123
 3016WAT     H1 9259   0.388   4.018   2.061
 3016WAT     H2 9260   0.476   4.017   2.183
 3017WAT      O 9261   0.294   5.134   2.653
 3017WAT     H1 9262   0.237   5.211   2.652
 3017WAT     H2 9263   0.254   5.073   2.591
 3018WAT      O 9264   1.391   5.351   3.449
 3018WAT     H1 9265   1.360   5.345   3.358
 3018WAT     H2 9266   1.394   5.261   3.479
 3019WAT      O 9267   1.496   5.122   2.074
 3019WAT     H1 9268   1.401   5.138   2.074
 3019WAT     H2 9269   1.534   5.205   2.047
 3020WAT      O 9270   1.421   4.820   2.280
 3020WAT     H1 9271   1.498   4.877   2.290
 3020WAT     H2 9272   1.421   4.766   2.358
 3021WAT      O 9273   1.536   4.901   2.843
 3021WAT     H1 9274   1.563   4.821   2.798
 3021WAT     H2 9275   1.582   4.971   2.797
 3022WAT      O 9276   1.186   5.084   3.334
 3022WAT     H1 9277   1.128   5.128   3.396
 3022WAT     H2 9278   1.229   5.155   3.286
 3023WAT      O 9279   1.518   4.845   2.019
 3023WAT     H1 9280   1.525   4.940   2.012
 3023WAT     H2 9281   1.466   4.831   2.098
 3024WAT      O 9282   1.117   4.149   2.154
 3024WAT     H1 9283   1.158   4.135   2.069
 3024WAT     H2 9284   1.059   4.074   2.165
 3025WAT      O 9285   1.400   4.684   2.517
 3025WAT     H1 9286   1.375   4.592   2.516
 3025WAT     H2 9287   1.319   4.730   2.538
 3026WAT      O 9288   1.345   4.616   3.537
 3026WAT     H1 9289   1.350   4.572   3.452
 3026WAT     H2 9290   1.347   4.709   3.516
 3027WAT      O 9291   1.237   4.093   3.786
 3027WAT     H1 9292   1.328   4.093   3.817
 3027WAT     H2 9293   1.237   4.028   3.715
 3028WAT      O 9294   1.326   4.486   2.859
 3028WAT     H1 9295   1.369   4.430   2.794
 3028WAT     H2 9296   1.398   4.524   2.909
 3029WAT      O 9297   1.360   4.509   3.279
 3029WAT     H1 9298   1.267   4.489   3.271
 3029WAT     H2 9299   1.371   4.591   3.231
 3030WAT      O 9300   1.351   4.414   2.507
 3030WAT     H1 9301   1.397   4.369   2.578
 3030WAT     H2 9302   1.275   4.359   2.489
 3031WAT      O 9303   1.480   4.292   2.713
 3031WAT     H1 9304   1.468   4.249   2.798
 3031WAT     H2 9305   1.561   4.253   2.679
 3032WAT      O 9306   1.324   3.859   3.324
 3032WAT     H1 9307   1.328   3.954   3.315
 3032WAT     H2 9308   1.287   3.829   3.241
 3033WAT      O 9309   1.498   4.006   2.045
 3033WAT     H1 9310   1.588   3.984   2.020
 3033WAT     H2 9311   1.507   4.055   2.127
 3034WAT      O 9312   1.533   4.120   2.296
 3034WAT     H1 9313   1.446   4.110   2.335
 3034WAT     H2 9314   1.549   4.214   2.297
 3035WAT      O 9315   0.423   5.337   3.342
 3035WAT     H1 9316   0.382   5.348   3.256
 3035WAT     H2 9317   0.513   5.309   3.323
 3036WAT      O 9318   0.649   3.961   3.674
 3036WAT     H1 9319   0.624   4.037   3.726
 3036WAT     H2 9320   0.740   3.977   3.648
 3037WAT      O 9321   0.913   4.002   3.627
 3037WAT     H1 9322   0.964   4.004   3.546
 3037WAT     H2 9323   0.961   3.942   3.684
 3038WAT      O 9324   0.980   3.797   3.272
 3038WAT     H1 9325   0.920   3.834   3.207
 3038WAT     H2 9326   0.928   3.732   3.319
 3039WAT      O 9327   1.048   4.032   3.391
 3039WAT     H1 9328   1.034   3.948   3.347
 3039WAT     H2 9329   1.140   4.052   3.373
 3040WAT      O 9330   0.351   5.346   3.069
 3040WAT     H1 9331   0.351   5.261   3.026
 3040WAT     H2 9332   0.386   5.406   3.003
 3041WAT      O 9333   0.778   3.917   3.121
 3041WAT     H1 9334   0.712   3.961   3.175
 3041WAT     H2 9335   0.733   3.841   3.084
 3042WAT      O 9336   1.116   3.945   2.919
 3042WAT     H1 9337   1.189   3.964   2.860
 3042WAT     H2 9338   1.085   4.031   2.947
 3043WAT      O 9339   1.323   3.961   2.739
 3043WAT     H1 9340   1.311   3.867   2.725
 3043WAT     H2 9341   1.415   3.970   2.765
 3044WAT      O 9342   0.493   4.143   2.643
 3044WAT     H1 9343   0.430   4.099   2.586
 3044WAT     H2 9344   0.542   4.072   2.684
 3045WAT      O 9345   0.931   3.805   2.765
 3045WAT     H1 9346   0.997   3.842   2.824
 3045WAT     H2 9347   0.899   3.880   2.715
 3046WAT      O 9348   1.272   3.824   2.345
 3046WAT     H1 9349   1.270   3.917   2.369
 3046WAT     H2 9350   1.183   3.793   2.365
 3047WAT      O 9351   0.330   3.992   2.470
 3047WAT     H1 9352   0.291   3.916   2.429
 3047WAT     H2 9353   0.297   4.066   2.420
 3048WAT      O 9354   0.348   3.902   3.821
 3048WAT     H1 9355   0.305   3.897   3.735
 3048WAT     H2 9356   0.419   3.838   3.815
 3049WAT      O 9357   1.028   3.840   3.823
 3049WAT     H1 9358   0.990   3.864   3.907
 3049WAT     H2 9359   1.123   3.841   3.838
 3050WAT      O 9360   0.880   4.604   0.880
 3050WAT     H1 9361   0.871   4.509   0.869
 3050WAT     H2 9362   0.840   4.641   0.801
 3051WAT      O 9363   0.751   4.798   1.041
 3051WAT     H1 9364   0.689   4.757   1.101
 3051WAT     H2 9365   0.799   4.724   1.002
 3052WAT      O 9366   1.135   5.175   0.889
 3052WAT     H1 9367   1.069   5.113   0.920
 3052WAT     H2 9368   1.193   5.187   0.963
 3053WAT      O 9369   0.632   5.046   1.062
 3053WAT     H1 9370   0.662   4.957   1.044
 3053WAT     H2 9371   0.688   5.076   1.134
 3054WAT      O 9372   0.758   4.322   1.060
 3054WAT     H1 9373   0.815   4.255   1.099
 3054WAT     H2 9374   0.791   4.331   0.970
 3055WAT      O 9375   1.165   4.142   0.761
 3055WAT     H1 9376   1.227   4.075   0.790
 3055WAT     H2 9377   1.153   4.198   0.837
 3056WAT      O 9378   0.382   4.524   1.058
 3056WAT     H1 9379   0.450   4.572   1.106
 3056WAT     H2 9380   0.416   4.435   1.049
 3057WAT      O 9381   1.543   4.310   1.452
 3057WAT     H1 9382   1.483   4.381   1.429
 3057WAT     H2 9383   1.594   4.343   1.526
 3058WAT      O 9384   0.858   4.974   0.647
 3058WAT     H1 9385   0.854   4.984   0.552
 3058WAT     H2 9386   0.814   5.051   0.681
 3059WAT      O 9387   0.352   4.924   1.265
 3059WAT     H1 9388   0.258   4.906   1.265
 3059WAT     H2 9389   0.364   4.991   1.198
 3060WAT      O 9390   1.161   4.253   1.025
 3060WAT     H1 9391   1.080   4.246   1.075
 3060WAT     H2 9392   1.182   4.347   1.027
 3061WAT      O 9393   1.275   5.306   1.320
 3061WAT     H1 9394   1.208   5.373   1.306
 3061WAT     H2 9395   1.315   5.293   1.234
 3062WAT      O 9396   1.431   4.195   1.090
 3062WAT     H1 9397   1.336   4.200   1.077
 3062WAT     H2 9398   1.448   4.246   1.169
 3063WAT      O 9399   0.507   3.884   0.898
 3063WAT     H1 9400   0.538   3.813   0.841
 3063WAT     H2 9401   0.422   3.908   0.862
 3064WAT      O 9402   1.229   5.079   0.649
 3064WAT     H1 9403   1.213   4.987   0.667
 3064WAT     H2 9404   1.194   5.125   0.725
 3065WAT      O 9405   1.054   4.922   1.284
 3065WAT     H1 9406   1.113   4.903   1.211
 3065WAT     H2 9407   1.106   4.977   1.343
 3066WAT      O 9408   0.772   4.712   0.653
 3066WAT     H1 9409   0.678   4.724   0.651
 3066WAT     H2 9410   0.808   4.800   0.642
 3067WAT      O 9411   0.741   4.272   0.354
 3067WAT     H1 9412   0.652   4.307   0.351
 3067WAT     H2 9413   0.797   4.350   0.357
 3068WAT      O 9414   1.379   4.765   1.297
 3068WAT     H1 9415   1.324   4.793   1.224
 3068WAT     H2 9416   1.461   4.812   1.283
 3069WAT      O 9417   1.165   4.813   0.672
 3069WAT     H1 9418   1.085   4.801   0.621
 3069WAT     H2 9419   1.146   4.772   0.757
 3070WAT      O 9420   1.090   4.463   1.419
 3070WAT     H1 9421   1.053   4.551   1.426
 3070WAT     H2 9422   1.017   4.408   1.393
 3071WAT      O 9423   0.327   4.690   0.848
 3071WAT     H1 9424   0.232   4.682   0.838
 3071WAT     H2 9425   0.347   4.636   0.925
 3072WAT      O 9426   0.370   5.107   1.047
 3072WAT     H1 9427   0.342   5.098   0.956
 3072WAT     H2 9428   0.464   5.088   1.045
 3073WAT      O 9429   0.191   4.478   1.264
 3073WAT     H1 9430   0.246   4.491   1.187
 3073WAT     H2 9431   0.242   4.514   1.336
 3074WAT      O 9432   0.254   5.107   1.728
 3074WAT     H1 9433   0.166   5.083   1.758
 3074WAT     H2 9434   0.244   5.117   1.633
 3075WAT      O 9435   0.999   4.801   0.405
 3075WAT     H1 9436   1.038   4.723   0.365
 3075WAT     H2 9437   1.065   4.870   0.392
 3076WAT      O 9438   0.755   5.191   0.788
 3076WAT     H1 9439   0.808   5.269   0.778
 3076WAT     H2 9440   0.785   5.151   0.870
 3077WAT      O 9441   0.417   5.320   1.787
 3077WAT     H1 9442   0.417   5.361   1.701
 3077WAT     H2 9443   0.357   5.247   1.778
 3078WAT      O 9444   1.372   3.877   0.214
 3078WAT     H1 9445   1.334   3.855   0.299
 3078WAT     H2 9446   1.437   3.944   0.234
 3079WAT      O 9447   1.573   5.373   1.989
 3079WAT     H1 9448   1.523   5.454   1.999
 3079WAT     H2 9449   1.600   5.373   1.897
 3080WAT      O 9450   1.446   5.095   1.646
 3080WAT     H1 9451   1.514   5.101   1.579
 3080WAT     H2 9452   1.416   5.004   1.641
 3081WAT      O 9453   1.066   5.217   0.321
 3081WAT     H1 9454   0.984   5.193   0.277
 3081WAT     H2 9455   1.113   5.135   0.332
 3082WAT      O 9456   1.426   4.383   1.775
 3082WAT     H1 9457   1.403   4.473   1.751
 3082WAT     H2 9458   1.354   4.330   1.740
 3083WAT      O 9459   0.235   3.992   0.918
 3083WAT     H1 9460   0.148   4.024   0.942
 3083WAT     H2 9461   0.285   3.997   0.999
 3084WAT      O 9462   0.638   4.260   1.506
 3084WAT     H1 9463   0.589   4.271   1.588
 3084WAT     H2 9464   0.602   4.180   1.467
 3085WAT      O 9465   1.194   4.314   1.627
 3085WAT     H1 9466   1.122   4.301   1.689
 3085WAT     H2 9467   1.158   4.371   1.559
 3086WAT      O 9468   0.894   4.514   1.839
 3086WAT     H1 9469   0.914   4.421   1.841
 3086WAT     H2 9470   0.979   4.557   1.853
 3087WAT      O 9471   0.560   3.907   0.495
 3087WAT     H1 9472   0.481   3.915   0.548
 3087WAT     H2 9473   0.570   3.813   0.481
 3088WAT      O 9474   0.439   4.027   1.125
 3088WAT     H1 9475   0.452   4.117   1.095
 3088WAT     H2 9476   0.482   3.973   1.059
 3089WAT      O 9477   0.882   4.467   0.585
 3089WAT     H1 9478   0.846   4.555   0.587
 3089WAT     H2 9479   0.940   4.466   0.509
 3090WAT      O 9480   0.459   4.601   1.740
 3090WAT     H1 9481   0.486   4.510   1.733
 3090WAT     H2 9482   0.525   4.641   1.797
 3091WAT      O 9483   0.858   4.328   0.812
 3091WAT     H1 9484   0.864   4.370   0.726
 3091WAT     H2 9485   0.867   4.235   0.794
 3092WAT      O 9486   0.619   4.184   1.958
 3092WAT     H1 9487   0.546   4.158   2.015
 3092WAT     H2 9488   0.687   4.215   2.018
 3093WAT      O 9489   0.835   4.528   1.229
 3093WAT     H1 9490   0.764   4.533   1.292
 3093WAT     H2 9491   0.805   4.463   1.164
 3094WAT      O 9492   0.496   4.274   1.013
 3094WAT     H1 9493   0.503   4.241   0.924
 3094WAT     H2 9494   0.586   4.294   1.038
 3095WAT      O 9495   0.489   4.382   0.374
 3095WAT     H1 9496   0.476   4.394   0.468
 3095WAT     H2 9497   0.463   4.465   0.335
 3096WAT      O 9498   0.936   4.141   1.169
 3096WAT     H1 9499   0.932   4.183   1.255
 3096WAT     H2 9500   0.889   4.059   1.180
 3097WAT      O 9501   0.426   4.629   0.258
 3097WAT     H1 9502   0.368   4.628   0.182
 3097WAT     H2 9503   0.503   4.677   0.229
 3098WAT      O 9504   1.269   3.885   1.725
 3098WAT     H1 9505   1.282   3.797   1.760
 3098WAT     H2 9506   1.284   3.876   1.631
 3099WAT      O 9507   0.545   4.695   1.208
 3099WAT     H1 9508   0.567   4.644   1.286
 3099WAT     H2 9509   0.478   4.756   1.238
 3100WAT      O 9510   0.361   4.590   1.455
 3100WAT     H1 9511   0.368   4.631   1.541
 3100WAT     H2 9512   0.448   4.553   1.439
 3101WAT      O 9513   1.252   4.877   1.080
 3101WAT     H1 9514   1.333   4.903   1.036
 3101WAT     H2 9515   1.209   4.819   1.017
 3102WAT      O 9516   0.779   4.060   0.515
 3102WAT     H1 9517   0.699   4.009   0.504
 3102WAT     H2 9518   0.766   4.137   0.459
 3103WAT      O 9519   0.740   4.884   1.700
 3103WAT     H1 9520   0.744   4.793   1.670
 3103WAT     H2 9521   0.659   4.889   1.749
 3104WAT      O 9522   1.047   4.444   0.373
 3104WAT     H1 9523   1.117   4.502   0.342
 3104WAT     H2 9524   1.075   4.356   0.346
 3105WAT      O 9525   0.656   5.068   0.446
 3105WAT     H1 9526   0.603   5.135   0.403
 3105WAT     H2 9527   0.610   5.050   0.528
 3106WAT      O 9528   0.196   4.606   1.822
 3106WAT     H1 9529   0.145   4.659   1.761
 3106WAT     H2 9530   0.287   4.615   1.791
 3107WAT      O 9531   0.762   5.150   1.648
 3107WAT     H1 9532   0.761   5.054   1.656
 3107WAT     H2 9533   0.715   5.181   1.725
 3108WAT      O 9534   1.231   4.638   0.293
 3108WAT     H1 9535   1.253   4.636   0.200
 3108WAT     H2 9536   1.298   4.695   0.332
 3109WAT      O 9537   1.329   4.865   1.545
 3109WAT     H1 9538   1.271   4.938   1.524
 3109WAT     H2 9539   1.349   4.825   1.460
 3110WAT      O 9540   1.396   5.258   0.525
 3110WAT     H1 9541   1.341   5.197   0.574
 3110WAT     H2 9542   1.336   5.300   0.464
 3111WAT      O 9543   0.919   5.001   0.934
 3111WAT     H1 9544   0.917   4.971   0.843
 3111WAT     H2 9545   0.873   4.932   0.982
 3112WAT      O 9546   0.534   5.056   0.695
 3112WAT     H1 9547   0.602   5.112   0.735
 3112WAT     H2 9548   0.452   5.093   0.727
 3113WAT      O 9549   0.509   4.785   0.669
 3113WAT     H1 9550   0.518   4.879   0.685
 3113WAT     H2 9551   0.448   4.755   0.737
 3114WAT      O 9552   0.677   5.248   1.406
 3114WAT     H1 9553   0.708   5.217   1.491
 3114WAT     H2 9554   0.735   5.205   1.342
 3115WAT      O 9555   0.848   5.104   1.231
 3115WAT     H1 9556   0.900   5.031   1.265
 3115WAT     H2 9557   0.894   5.130   1.150
 3116WAT      O 9558   1.026   5.222   1.631
 3116WAT     H1 9559   1.021   5.315   1.653
 3116WAT     H2 9560   0.935   5.192   1.636
 3117WAT      O 9561   1.201   4.985   0.390
 3117WAT     H1 9562   1.212   5.026   0.476
 3117WAT     H2 9563   1.283   4.936   0.377
 3118WAT      O 9564   0.638   5.199   1.895
 3118WAT     H1 9565   0.590   5.133   1.946
 3118WAT     H2 9566   0.569   5.256   1.860
 3119WAT      O 9567   0.468   5.247   0.350
 3119WAT     H1 9568   0.467   5.312   0.280
 3119WAT     H2 9569   0.380   5.208   0.348
 3120WAT      O 9570   0.903   4.247   1.417
 3120WAT     H1 9571   0.944   4.177   1.467
 3120WAT     H2 9572   0.815   4.255   1.454
 3121WAT      O 9573   1.278   4.081   0.512
 3121WAT     H1 9574   1.224   4.121   0.443
 3121WAT     H2 9575   1.234   4.106   0.593
 3122WAT      O 9576   0.444   4.397   0.641
 3122WAT     H1 9577   0.446   4.467   0.706
 3122WAT     H2 9578   0.481   4.321   0.686
 3123WAT      O 9579   0.625   4.521   1.417
 3123WAT     H1 9580   0.673   4.562   1.489
 3123WAT     H2 9581   0.628   4.427   1.438
 3124WAT      O 9582   0.897   4.054   0.758
 3124WAT     H1 9583   0.859   4.052   0.670
 3124WAT     H2 9584   0.990   4.074   0.743
 3125WAT      O 9585   0.300   4.179   0.480
 3125WAT     H1 9586   0.367   4.201   0.415
 3125WAT     H2 9587   0.274   4.264   0.516
 3126WAT      O 9588   1.322   4.133   1.470
 3126WAT     H1 9589   1.275   4.192   1.528
 3126WAT     H2 9590   1.406   4.175   1.455
 3127WAT      O 9591   1.140   4.688   0.914
 3127WAT     H1 9592   1.051   4.653   0.918
 3127WAT     H2 9593   1.195   4.613   0.938
 3128WAT      O 9594   1.348   5.306   1.054
 3128WAT     H1 9595   1.332   5.365   0.980
 3128WAT     H2 9596   1.442   5.285   1.047
 3129WAT      O 9597   0.888   5.076   1.926
 3129WAT     H1 9598   0.808   5.124   1.910
 3129WAT     H2 9599   0.861   5.000   1.977
 3130WAT      O 9600   0.468   4.936   1.771
 3130WAT     H1 9601   0.397   4.999   1.769
 3130WAT     H2 9602   0.473   4.901   1.682
 3131WAT      O 9603   0.806   4.941   0.253
 3131WAT     H1 9604   0.748   4.983   0.317
 3131WAT     H2 9605   0.861   4.883   0.305
 3132WAT      O 9606   1.191   5.073   1.798
 3132WAT     H1 9607   1.277   5.094   1.761
 3132WAT     H2 9608   1.130   5.131   1.753
 3133WAT      O 9609   0.326   4.799   0.462
 3133WAT     H1 9610   0.393   4.791   0.529
 3133WAT     H2 9611   0.351   4.735   0.395
 3134WAT      O 9612   1.028   4.857   1.728
 3134WAT     H1 9613   1.080   4.929   1.762
 3134WAT     H2 9614   0.937   4.885   1.741
 3135WAT      O 9615   1.143   4.639   1.847
 3135WAT     H1 9616   1.216   4.619   1.787
 3135WAT     H2 9617   1.103   4.718   1.811
 3136WAT      O 9618   0.553   4.022   1.377
 3136WAT     H1 9619   0.502   4.028   1.297
 3136WAT     H2 9620   0.517   3.946   1.423
 3137WAT      O 9621   0.485   4.887   1.503
 3137WAT     H1 9622   0.575   4.902   1.474
 3137WAT     H2 9623   0.432   4.901   1.424
 3138WAT      O 9624   0.785   4.625   1.610
 3138WAT     H1 9625   0.818   4.580   1.688
 3138WAT     H2 9626   0.864   4.649   1.562
 3139WAT      O 9627   1.007   4.721   1.481
 3139WAT     H1 9628   1.011   4.782   1.407
 3139WAT     H2 9629   1.031   4.774   1.557
 3140WAT      O 9630   0.502   4.321   1.751
 3140WAT     H1 9631   0.557   4.280   1.818
 3140WAT     H2 9632   0.415   4.326   1.791
 3141WAT      O 9633   1.008   4.253   1.822
 3141WAT     H1 9634   0.950   4.180   1.800
 3141WAT     H2 9635   1.082   4.213   1.867
 3142WAT      O 9636   1.000   3.953   0.400
 3142WAT     H1 9637   0.999   3.860   0.423
 3142WAT     H2 9638   0.919   3.987   0.438
 3143WAT      O 9639   0.276   5.115   0.774
 3143WAT     H1 9640   0.209   5.183   0.771
 3143WAT     H2 9641   0.244   5.047   0.715
 3144WAT      O 9642   1.390   5.353   1.571
 3144WAT     H1 9643   1.359   5.345   1.480
 3144WAT     H2 9644   1.393   5.263   1.603
 3145WAT      O 9645   1.431   4.815   0.393
 3145WAT     H1 9646   1.503   4.878   0.390
 3145WAT     H2 9647   1.436   4.778   0.481
 3146WAT      O 9648   1.531   4.909   0.969
 3146WAT     H1 9649   1.559   4.827   0.929
 3146WAT     H2 9650   1.577   4.977   0.920
 3147WAT      O 9651   1.185   5.084   1.457
 3147WAT     H1 9652   1.127   5.128   1.519
 3147WAT     H2 9653   1.228   5.155   1.409
 3148WAT      O 9654   1.118   4.178   0.305
 3148WAT     H1 9655   1.131   4.165   0.211
 3148WAT     H2 9656   1.066   4.103   0.334
 3149WAT      O 9657   1.414   4.691   0.638
 3149WAT     H1 9658   1.392   4.598   0.631
 3149WAT     H2 9659   1.330   4.734   0.656
 3150WAT      O 9660   1.346   4.616   1.659
 3150WAT     H1 9661   1.351   4.573   1.574
 3150WAT     H2 9662   1.347   4.709   1.639
 3151WAT      O 9663   1.238   4.093   1.909
 3151WAT     H1 9664   1.328   4.092   1.942
 3151WAT     H2 9665   1.237   4.028   1.839
 3152WAT      O 9666   1.328   4.489   0.981
 3152WAT     H1 9667   1.373   4.434   0.917
 3152WAT     H2 9668   1.398   4.524   1.036
 3153WAT      O 9669   1.361   4.509   1.401
 3153WAT     H1 9670   1.268   4.489   1.394
 3153WAT     H2 9671   1.372   4.591   1.353
 3154WAT      O 9672   1.361   4.420   0.624
 3154WAT     H1 9673   1.405   4.374   0.696
 3154WAT     H2 9674   1.277   4.375   0.615
 3155WAT      O 9675   1.484   4.295   0.835
 3155WAT     H1 9676   1.471   4.252   0.919
 3155WAT     H2 9677   1.564   4.255   0.801
 3156WAT      O 9678   1.324   3.859   1.447
 3156WAT     H1 9679   1.328   3.954   1.437
 3156WAT     H2 9680   1.288   3.828   1.364
 3157WAT      O 9681   1.541   4.097   0.427
 3157WAT     H1 9682   1.453   4.085   0.463
 3157WAT     H2 9683   1.549   4.192   0.415
 3158WAT      O 9684   0.418   5.333   1.464
 3158WAT     H1 9685   0.379   5.345   1.377
 3158WAT     H2 9686   0.509   5.306   1.445
 3159WAT      O 9687   0.651   3.961   1.795
 3159WAT     H1 9688   0.625   4.040   1.844
 3159WAT     H2 9689   0.742   3.977   1.771
 3160WAT      O 9690   0.914   4.001   1.750
 3160WAT     H1 9691   0.965   4.004   1.669
 3160WAT     H2 9692   0.963   3.942   1.807
 3161WAT      O 9693   0.980   3.797   1.393
 3161WAT     H1 9694   0.919   3.835   1.330
 3161WAT     H2 9695   0.927   3.733   1.440
 3162WAT      O 9696   1.049   4.031   1.513
 3162WAT     H1 9697   1.034   3.948   1.469
 3162WAT     H2 9698   1.141   4.051   1.496
 3163WAT      O 9699   0.350   5.344   1.190
 3163WAT     H1 9700   0.351   5.259   1.146
 3163WAT     H2 9701   0.380   5.406   1.123
 3164WAT      O 9702   0.777   3.920   1.243
 3164WAT     H1 9703   0.710   3.965   1.295
 3164WAT     H2 9704   0.732   3.842   1.209
 3165WAT      O 9705   1.117   3.944   1.049
 3165WAT     H1 9706   1.190   3.965   0.990
 3165WAT     H2 9707   1.082   4.028   1.075
 3166WAT      O 9708   1.326   3.958   0.870
 3166WAT     H1 9709   1.312   3.864   0.857
 3166WAT     H2 9710   1.418   3.965   0.896
 3167WAT      O 9711   0.534   4.163   0.764
 3167WAT     H1 9712   0.474   4.100   0.725
 3167WAT     H2 9713   0.618   4.117   0.767
 3168WAT      O 9714   0.931   3.805   0.898
 3168WAT     H1 9715   0.999   3.839   0.956
 3168WAT     H2 9716   0.900   3.882   0.850
 3169WAT      O 9717   1.275   3.803   0.466
 3169WAT     H1 9718   1.277   3.896   0.491
 3169WAT     H2 9719   1.185   3.776   0.483
 3170WAT      O 9720   0.345   3.979   0.658
 3170WAT     H1 9721   0.282   3.988   0.729
 3170WAT     H2 9722   0.315   4.042   0.592
 3171WAT      O 9723   0.348   3.903   1.929
 3171WAT     H1 9724   0.299   3.879   1.850
 3171WAT     H2 9725   0.419   3.839   1.933
 3172WAT      O 9726   1.029   3.839   1.946
 3172WAT     H1 9727   0.991   3.864   2.030
 3172WAT     H2 9728   1.124   3.839   1.962
 3173WAT      O 9729   0.868   2.734   4.628
 3173WAT     H1 9730   0.864   2.640   4.613
 3173WAT     H2 9731   0.832   2.772   4.548
 3174WAT      O 9732   0.741   2.925   4.791
 3174WAT     H1 9733   0.682   2.877   4.848
 3174WAT     H2 9734   0.789   2.858   4.743
 3175WAT      O 9735   1.099   3.394   4.666
 3175WAT     H1 9736   1.056   3.309   4.671
 3175WAT     H2 9737   1.188   3.378   4.699
 3176WAT      O 9738   0.731   3.615   4.666
 3176WAT     H1 9739   0.669   3.633   4.595
 3176WAT     H2 9740   0.799   3.681   4.656
 3177WAT      O 9741   0.645   3.179   4.827
 3177WAT     H1 9742   0.681   3.092   4.809
 3177WAT     H2 9743   0.711   3.220   4.883
 3178WAT      O 9744   0.752   2.449   4.802
 3178WAT     H1 9745   0.808   2.382   4.841
 3178WAT     H2 9746   0.785   2.459   4.713
 3179WAT      O 9747   1.145   2.229   4.514
 3179WAT     H1 9748   1.214   2.164   4.527
 3179WAT     H2 9749   1.153   2.288   4.589
 3180WAT      O 9750   0.391   2.653   4.791
 3180WAT     H1 9751   0.460   2.687   4.849
 3180WAT     H2 9752   0.414   2.561   4.779
 3181WAT      O 9753   1.524   2.419   5.176
 3181WAT     H1 9754   1.468   2.495   5.161
 3181WAT     H2 9755   1.583   2.446   5.246
 3182WAT      O 9756   0.848   3.125   4.405
 3182WAT     H1 9757   0.819   3.129   4.314
 3182WAT     H2 9758   0.816   3.206   4.444
 3183WAT      O 9759   0.329   3.061   5.014
 3183WAT     H1 9760   0.234   3.064   5.021
 3183WAT     H2 9761   0.349   3.104   4.931
 3184WAT      O 9762   1.161   2.357   4.778
 3184WAT     H1 9763   1.076   2.353   4.822
 3184WAT     H2 9764   1.180   2.451   4.770
 3185WAT      O 9765   1.257   3.385   5.013
 3185WAT     H1 9766   1.232   3.463   5.062
 3185WAT     H2 9767   1.297   3.418   4.933
 3186WAT      O 9768   1.430   2.313   4.855
 3186WAT     H1 9769   1.335   2.321   4.844
 3186WAT     H2 9770   1.450   2.374   4.927
 3187WAT      O 9771   0.516   2.000   4.648
 3187WAT     H1 9772   0.544   1.935   4.583
 3187WAT     H2 9773   0.424   2.018   4.626
 3188WAT      O 9774   1.048   3.591   4.860
 3188WAT     H1 9775   1.068   3.525   4.794
 3188WAT     H2 9776   0.984   3.648   4.819
 3189WAT      O 9777   1.206   3.224   4.387
 3189WAT     H1 9778   1.197   3.132   4.414
 3189WAT     H2 9779   1.143   3.271   4.441
 3190WAT      O 9780   1.051   3.044   5.020
 3190WAT     H1 9781   1.114   3.024   4.951
 3190WAT     H2 9782   1.101   3.096   5.083
 3191WAT      O 9783   0.764   2.857   4.406
 3191WAT     H1 9784   0.669   2.867   4.394
 3191WAT     H2 9785   0.797   2.947   4.403
 3192WAT      O 9786   0.769   2.394   4.049
 3192WAT     H1 9787   0.702   2.450   4.087
 3192WAT     H2 9788   0.849   2.446   4.053
 3193WAT      O 9789   1.386   2.890   5.054
 3193WAT     H1 9790   1.331   2.916   4.980
 3193WAT     H2 9791   1.471   2.931   5.037
 3194WAT      O 9792   1.147   2.957   4.434
 3194WAT     H1 9793   1.064   2.941   4.388
 3194WAT     H2 9794   1.137   2.913   4.518
 3195WAT      O 9795   1.092   2.590   5.179
 3195WAT     H1 9796   1.051   2.677   5.181
 3195WAT     H2 9797   1.024   2.532   5.145
 3196WAT      O 9798   0.340   2.867   4.622
 3196WAT     H1 9799   0.246   2.854   4.608
 3196WAT     H2 9800   0.366   2.795   4.679
 3197WAT      O 9801   0.383   3.150   4.751
 3197WAT     H1 9802   0.390   3.066   4.707
 3197WAT     H2 9803   0.473   3.173   4.774
 3198WAT      O 9804   0.217   2.561   5.010
 3198WAT     H1 9805   0.257   2.597   4.931
 3198WAT     H2 9806   0.246   2.620   5.080
 3199WAT      O 9807   1.167   3.567   5.201
 3199WAT     H1 9808   1.121   3.646   5.173
 3199WAT     H2 9809   1.099   3.513   5.241
 3200WAT      O 9810   0.288   3.235   5.529
 3200WAT     H1 9811   0.243   3.163   5.574
 3200WAT     H2 9812   0.251   3.235   5.440
 3201WAT      O 9813   1.000   2.920   4.096
 3201WAT     H1 9814   1.054   2.846   4.069
 3201WAT     H2 9815   1.062   2.992   4.108
 3202WAT      O 9816   0.764   3.374   4.500
 3202WAT     H1 9817   0.827   3.434   4.461
 3202WAT     H2 9818   0.744   3.411   4.586
 3203WAT      O 9819   0.371   3.543   5.585
 3203WAT     H1 9820   0.356   3.566   5.493
 3203WAT     H2 9821   0.351   3.449   5.589
 3204WAT      O 9822   1.454   3.246   5.372
 3204WAT     H1 9823   1.528   3.250   5.313
 3204WAT     H2 9824   1.418   3.158   5.360
 3205WAT      O 9825   0.809   3.621   5.288
 3205WAT     H1 9826   0.853   3.612   5.372
 3205WAT     H2 9827   0.730   3.672   5.309
 3206WAT      O 9828   1.005   3.686   4.230
 3206WAT     H1 9829   1.005   3.645   4.317
 3206WAT     H2 9830   1.008   3.612   4.170
 3207WAT      O 9831   0.308   3.588   4.408
 3207WAT     H1 9832   0.307   3.494   4.425
 3207WAT     H2 9833   0.227   3.621   4.448
 3208WAT      O 9834   0.972   3.475   4.062
 3208WAT     H1 9835   0.879   3.452   4.052
 3208WAT     H2 9836   1.018   3.410   4.008
 3209WAT      O 9837   0.988   3.576   4.484
 3209WAT     H1 9838   1.036   3.516   4.540
 3209WAT     H2 9839   0.983   3.657   4.534
 3210WAT      O 9840   1.434   2.505   5.500
 3210WAT     H1 9841   1.416   2.598   5.487
 3210WAT     H2 9842   1.351   2.462   5.480
 3211WAT      O 9843   0.246   2.091   4.663
 3211WAT     H1 9844   0.157   2.125   4.677
 3211WAT     H2 9845   0.290   2.107   4.747
 3212WAT      O 9846   0.660   2.367   5.251
 3212WAT     H1 9847   0.604   2.377   5.329
 3212WAT     H2 9848   0.623   2.292   5.205
 3213WAT      O 9849   1.180   2.431   5.390
 3213WAT     H1 9850   1.100   2.409   5.438
 3213WAT     H2 9851   1.152   2.494   5.324
 3214WAT      O 9852   0.895   2.627   5.552
 3214WAT     H1 9853   0.912   2.532   5.556
 3214WAT     H2 9854   0.981   2.666   5.567
 3215WAT      O 9855   0.565   2.043   4.204
 3215WAT     H1 9856   0.493   2.042   4.267
 3215WAT     H2 9857   0.594   1.951   4.200
 3216WAT      O 9858   0.444   2.150   4.871
 3216WAT     H1 9859   0.452   2.240   4.840
 3216WAT     H2 9860   0.491   2.097   4.807
 3217WAT      O 9861   0.886   2.602   4.333
 3217WAT     H1 9862   0.841   2.685   4.322
 3217WAT     H2 9863   0.923   2.583   4.246
 3218WAT      O 9864   0.467   2.670   5.520
 3218WAT     H1 9865   0.484   2.577   5.507
 3218WAT     H2 9866   0.554   2.711   5.513
 3219WAT      O 9867   0.853   2.454   4.553
 3219WAT     H1 9868   0.865   2.501   4.471
 3219WAT     H2 9869   0.855   2.361   4.529
 3220WAT      O 9870   0.840   2.644   4.981
 3220WAT     H1 9871   0.770   2.709   4.991
 3220WAT     H2 9872   0.806   2.580   4.919
 3221WAT      O 9873   0.491   2.395   4.748
 3221WAT     H1 9874   0.497   2.360   4.659
 3221WAT     H2 9875   0.581   2.417   4.772
 3222WAT      O 9876   0.582   2.553   4.153
 3222WAT     H1 9877   0.519   2.527   4.220
 3222WAT     H2 9878   0.537   2.620   4.102
 3223WAT      O 9879   0.927   2.266   4.907
 3223WAT     H1 9880   0.928   2.307   4.994
 3223WAT     H2 9881   0.886   2.181   4.921
 3224WAT      O 9882   0.462   2.733   3.983
 3224WAT     H1 9883   0.409   2.668   3.936
 3224WAT     H2 9884   0.532   2.756   3.922
 3225WAT      O 9885   1.180   1.918   5.457
 3225WAT     H1 9886   1.252   1.946   5.514
 3225WAT     H2 9887   1.214   1.926   5.368
 3226WAT      O 9888   0.560   2.793   4.968
 3226WAT     H1 9889   0.567   2.735   5.044
 3226WAT     H2 9890   0.488   2.852   4.991
 3227WAT      O 9891   0.339   2.734   5.191
 3227WAT     H1 9892   0.353   2.816   5.239
 3227WAT     H2 9893   0.420   2.685   5.203
 3228WAT      O 9894   1.259   2.990   4.834
 3228WAT     H1 9895   1.338   3.021   4.790
 3228WAT     H2 9896   1.214   2.936   4.768
 3229WAT      O 9897   0.801   2.175   4.212
 3229WAT     H1 9898   0.714   2.135   4.210
 3229WAT     H2 9899   0.793   2.254   4.159
 3230WAT      O 9900   0.781   3.007   5.464
 3230WAT     H1 9901   0.770   2.919   5.429
 3230WAT     H2 9902   0.694   3.033   5.493
 3231WAT      O 9903   1.004   2.531   4.088
 3231WAT     H1 9904   1.065   2.598   4.059
 3231WAT     H2 9905   1.052   2.449   4.079
 3232WAT      O 9906   0.703   3.178   4.173
 3232WAT     H1 9907   0.711   3.265   4.133
 3232WAT     H2 9908   0.615   3.177   4.209
 3233WAT      O 9909   0.260   2.860   5.548
 3233WAT     H1 9910   0.186   2.805   5.522
 3233WAT     H2 9911   0.336   2.801   5.543
 3234WAT      O 9912   0.784   3.267   5.378
 3234WAT     H1 9913   0.792   3.176   5.405
 3234WAT     H2 9914   0.693   3.290   5.397
 3235WAT      O 9915   1.176   2.729   3.996
 3235WAT     H1 9916   1.167   2.740   3.902
 3235WAT     H2 9917   1.269   2.744   4.013
 3236WAT      O 9918   1.342   3.005   5.295
 3236WAT     H1 9919   1.271   3.066   5.276
 3236WAT     H2 9920   1.361   2.964   5.211
 3237WAT      O 9921   1.403   3.405   4.301
 3237WAT     H1 9922   1.338   3.341   4.331
 3237WAT     H2 9923   1.367   3.438   4.218
 3238WAT      O 9924   0.972   3.150   4.660
 3238WAT     H1 9925   0.935   3.126   4.575
 3238WAT     H2 9926   0.929   3.092   4.722
 3239WAT      O 9927   0.537   3.213   4.433
 3239WAT     H1 9928   0.611   3.268   4.458
 3239WAT     H2 9929   0.460   3.269   4.443
 3240WAT      O 9930   0.497   2.943   4.401
 3240WAT     H1 9931   0.512   3.036   4.417
 3240WAT     H2 9932   0.445   2.914   4.476
 3241WAT      O 9933   0.706   3.461   5.086
 3241WAT     H1 9934   0.751   3.502   5.160
 3241WAT     H2 9935   0.760   3.386   5.063
 3242WAT      O 9936   0.872   3.260   4.982
 3242WAT     H1 9937   0.914   3.177   5.002
 3242WAT     H2 9938   0.942   3.315   4.946
 3243WAT      O 9939   1.212   3.303   3.939
 3243WAT     H1 9940   1.188   3.233   4.001
 3243WAT     H2 9941   1.182   3.271   3.854
 3244WAT      O 9942   1.029   3.376   5.359
 3244WAT     H1 9943   1.016   3.452   5.415
 3244WAT     H2 9944   0.943   3.334   5.356
 3245WAT      O 9945   1.196   3.110   4.133
 3245WAT     H1 9946   1.194   3.157   4.216
 3245WAT     H2 9947   1.274   3.055   4.139
 3246WAT      O 9948   0.435   3.373   4.100
 3246WAT     H1 9949   0.395   3.449   4.057
 3246WAT     H2 9950   0.416   3.300   4.041
 3247WAT      O 9951   0.916   2.368   5.156
 3247WAT     H1 9952   0.952   2.295   5.206
 3247WAT     H2 9953   0.827   2.378   5.189
 3248WAT      O 9954   1.224   2.354   4.276
 3248WAT     H1 9955   1.183   2.317   4.197
 3248WAT     H2 9956   1.185   2.305   4.348
 3249WAT      O 9957   0.690   3.438   4.045
 3249WAT     H1 9958   0.690   3.415   3.953
 3249WAT     H2 9959   0.601   3.423   4.075
 3250WAT      O 9960   0.406   2.471   4.349
 3250WAT     H1 9961   0.378   2.534   4.416
 3250WAT     H2 9962   0.451   2.402   4.398
 3251WAT      O 9963   0.595   2.634   5.187
 3251WAT     H1 9964   0.655   2.678   5.246
 3251WAT     H2 9965   0.619   2.541   5.193
 3252WAT      O 9966   0.877   2.177   4.480
 3252WAT     H1 9967   0.854   2.173   4.387
 3252WAT     H2 9968   0.971   2.191   4.482
 3253WAT      O 9969   0.564   3.681   4.458
 3253WAT     H1 9970   0.612   3.675   4.376
 3253WAT     H2 9971   0.476   3.649   4.438
 3254WAT      O 9972   0.283   2.418   4.097
 3254WAT     H1 9973   0.327   2.337   4.072
 3254WAT     H2 9974   0.313   2.435   4.187
 3255WAT      O 9975   1.309   2.246   5.237
 3255WAT     H1 9976   1.266   2.309   5.295
 3255WAT     H2 9977   1.388   2.292   5.207
 3256WAT      O 9978   1.133   2.812   4.664
 3256WAT     H1 9979   1.042   2.780   4.667
 3256WAT     H2 9980   1.185   2.735   4.686
 3257WAT      O 9981   1.371   3.507   4.783
 3257WAT     H1 9982   1.410   3.570   4.845
 3257WAT     H2 9983   1.446   3.475   4.733
 3258WAT      O 9984   0.380   3.601   3.953
 3258WAT     H1 9985   0.451   3.660   3.928
 3258WAT     H2 9986   0.353   3.558   3.872
 3259WAT      O 9987   0.988   3.602   5.504
 3259WAT     H1 9988   1.055   3.669   5.487
 3259WAT     H2 9989   0.981   3.599   5.599
 3260WAT      O 9990   1.305   3.521   4.078
 3260WAT     H1 9991   1.264   3.454   4.024
 3260WAT     H2 9992   1.294   3.602   4.028
 3261WAT      O 9993   0.461   3.152   3.920
 3261WAT     H1 9994   0.454   3.091   3.993
 3261WAT     H2 9995   0.469   3.097   3.843
 3262WAT      O 9996   0.528   3.096   5.485
 3262WAT     H1 9997   0.455   3.146   5.520
 3262WAT     H2 9998   0.492   3.050   5.409
 3263WAT      O 9999   0.779   3.005   3.964
 3263WAT     H110000   0.734   3.053   4.033
 3263WAT     H210001   0.854   2.966   4.008
 3264WAT      O10002   1.196   3.212   5.513
 3264WAT     H110003   1.286   3.235   5.492
 3264WAT     H210004   1.142   3.276   5.467
 3265WAT      O10005   0.446   2.972   4.124
 3265WAT     H110006   0.461   2.954   4.217
 3265WAT     H210007   0.444   2.886   4.083
 3266WAT      O10008   0.665   2.797   3.808
 3266WAT     H110009   0.740   2.741   3.786
 3266WAT     H210010   0.704   2.871   3.855
 3267WAT      O10011   1.056   2.982   5.454
 3267WAT     H110012   1.105   3.058   5.484
 3267WAT     H210013   0.965   3.004   5.474
 3268WAT      O10014   1.141   2.743   5.552
 3268WAT     H110015   1.228   2.736   5.513
 3268WAT     H210016   1.109   2.829   5.526
 3269WAT      O10017   0.558   2.143   5.124
 3269WAT     H110018   0.505   2.149   5.044
 3269WAT     H210019   0.524   2.066   5.170
 3270WAT      O10020   0.470   2.992   5.236
 3270WAT     H110021   0.560   3.005   5.206
 3270WAT     H210022   0.416   3.023   5.163
 3271WAT      O10023   0.774   2.754   5.351
 3271WAT     H110024   0.813   2.707   5.424
 3271WAT     H210025   0.848   2.777   5.295
 3272WAT      O10026   0.996   2.848   5.218
 3272WAT     H110027   1.004   2.907   5.143
 3272WAT     H210028   1.030   2.898   5.292
 3273WAT      O10029   0.318   2.531   3.849
 3273WAT     H110030   0.290   2.491   3.931
 3273WAT     H210031   0.245   2.587   3.823
 3274WAT      O10032   0.341   3.629   5.327
 3274WAT     H110033   0.263   3.665   5.286
 3274WAT     H210034   0.373   3.564   5.264
 3275WAT      O10035   0.505   2.380   5.478
 3275WAT     H110036   0.547   2.298   5.506
 3275WAT     H210037   0.412   2.363   5.485
 3276WAT      O10038   0.927   2.358   5.498
 3276WAT     H110039   0.846   2.370   5.448
 3276WAT     H210040   0.927   2.266   5.523
 3277WAT      O10041   0.972   2.016   4.065
 3277WAT     H110042   0.980   1.935   4.116
 3277WAT     H210043   0.908   2.069   4.114
 3278WAT      O10044   0.581   3.769   5.341
 3278WAT     H110045   0.568   3.824   5.418
 3278WAT     H210046   0.501   3.716   5.336
 3279WAT      O10047   0.422   2.195   4.018
 3279WAT     H110048   0.380   2.134   3.958
 3279WAT     H210049   0.469   2.139   4.080
 3280WAT      O10050   0.700   3.667   4.217
 3280WAT     H110051   0.794   3.685   4.221
 3280WAT     H210052   0.693   3.592   4.157
 3281WAT      O10053   0.284   3.325   4.486
 3281WAT     H110054   0.280   3.284   4.572
 3281WAT     H210055   0.234   3.266   4.429
 3282WAT      O10056   1.411   3.515   5.332
 3282WAT     H110057   1.327   3.536   5.292
 3282WAT     H210058   1.411   3.420   5.343
 3283WAT      O10059   1.491   3.268   3.938
 3283WAT     H110060   1.396   3.278   3.943
 3283WAT     H210061   1.522   3.352   3.903
 3284WAT      O10062   1.423   2.958   4.154
 3284WAT     H110063   1.501   3.012   4.166
 3284WAT     H210064   1.419   2.904   4.233
 3285WAT      O10065   1.530   3.042   4.727
 3285WAT     H110066   1.552   2.961   4.680
 3285WAT     H210067   1.582   3.109   4.684
 3286WAT      O10068   1.179   3.203   5.196
 3286WAT     H110069   1.126   3.261   5.251
 3286WAT     H210070   1.218   3.261   5.131
 3287WAT      O10071   1.510   2.983   3.892
 3287WAT     H110072   1.515   3.078   3.881
 3287WAT     H210073   1.464   2.971   3.975
 3288WAT      O10074   1.103   2.266   4.043
 3288WAT     H110075   1.141   2.262   3.955
 3288WAT     H210076   1.057   2.183   4.053
 3289WAT      O10077   1.390   2.820   4.388
 3289WAT     H110078   1.377   2.725   4.383
 3289WAT     H210079   1.303   2.856   4.407
 3290WAT      O10080   1.385   2.760   5.408
 3290WAT     H110081   1.383   2.713   5.325
 3290WAT     H210082   1.367   2.851   5.385
 3291WAT      O10083   1.305   2.601   4.729
 3291WAT     H110084   1.347   2.549   4.660
 3291WAT     H210085   1.377   2.639   4.779
 3292WAT      O10086   1.361   2.636   5.159
 3292WAT     H110087   1.267   2.619   5.155
 3292WAT     H210088   1.373   2.717   5.108
 3293WAT      O10089   1.383   2.547   4.374
 3293WAT     H110090   1.413   2.500   4.452
 3293WAT     H210091   1.323   2.486   4.331
 3294WAT      O10092   1.471   2.414   4.597
 3294WAT     H110093   1.461   2.378   4.685
 3294WAT     H210094   1.556   2.380   4.567
 3295WAT      O10095   1.310   1.973   5.212
 3295WAT     H110096   1.316   2.068   5.207
 3295WAT     H210097   1.280   1.947   5.125
 3296WAT      O10098   1.293   3.696   4.590
 3296WAT     H110099   1.353   3.674   4.519
 3296WAT     H210100   1.308   3.627   4.655
 3297WAT      O10101   0.434   3.464   5.139
 3297WAT     H110102   0.402   3.489   5.053
 3297WAT     H210103   0.527   3.449   5.128
 3298WAT      O10104   0.619   2.132   5.527
 3298WAT     H110105   0.572   2.064   5.576
 3298WAT     H210106   0.711   2.105   5.530
 3299WAT      O10107   0.909   2.080   5.493
 3299WAT     H110108   0.941   2.104   5.406
 3299WAT     H210109   0.972   2.015   5.524
 3300WAT      O10110   1.531   3.701   5.169
 3300WAT     H110111   1.454   3.758   5.177
 3300WAT     H210112   1.510   3.625   5.224
 3301WAT      O10113   0.976   1.907   5.144
 3301WAT     H110114   0.920   1.950   5.079
 3301WAT     H210115   0.917   1.847   5.190
 3302WAT      O10116   1.038   2.146   5.260
 3302WAT     H110117   1.029   2.062   5.216
 3302WAT     H210118   1.130   2.170   5.247
 3303WAT      O10119   1.233   3.770   4.968
 3303WAT     H110120   1.203   3.838   4.909
 3303WAT     H210121   1.179   3.694   4.947
 3304WAT      O10122   0.395   3.564   4.889
 3304WAT     H110123   0.407   3.519   4.806
 3304WAT     H210124   0.469   3.625   4.894
 3305WAT      O10125   0.653   3.675   4.920
 3305WAT     H110126   0.682   3.647   4.833
 3305WAT     H210127   0.672   3.601   4.977
 3306WAT      O10128   0.780   2.036   4.993
 3306WAT     H110129   0.713   2.083   5.044
 3306WAT     H210130   0.734   1.959   4.959
 3307WAT      O10131   1.128   2.059   4.781
 3307WAT     H110132   1.199   2.057   4.716
 3307WAT     H210133   1.115   2.153   4.797
 3308WAT      O10134   1.330   2.039   4.598
 3308WAT     H110135   1.344   1.953   4.559
 3308WAT     H210136   1.414   2.060   4.638
 3309WAT      O10137   0.520   2.269   4.501
 3309WAT     H110138   0.461   2.205   4.462
 3309WAT     H210139   0.602   2.222   4.515
 3310WAT      O10140   0.926   1.933   4.633
 3310WAT     H110141   0.992   1.969   4.693
 3310WAT     H210142   0.893   2.009   4.586
 3311WAT      O10143   0.351   2.076   4.392
 3311WAT     H110144   0.287   2.079   4.462
 3311WAT     H210145   0.308   2.027   4.322
 3312WAT      O10146   1.455   3.667   4.365
 3312WAT     H110147   1.437   3.577   4.338
 3312WAT     H210148   1.398   3.720   4.309
 3313WAT      O10149   0.448   1.931   5.615
 3313WAT     H110150   0.364   1.963   5.648
 3313WAT     H210151   0.439   1.836   5.615
 3314WAT      O10152   0.305   3.760   4.189
 3314WAT     H110153   0.312   3.721   4.102
 3314WAT     H210154   0.309   3.685   4.249
 3315WAT      O10155   0.879   2.733   2.755
 3315WAT     H110156   0.869   2.639   2.740
 3315WAT     H210157   0.838   2.774   2.678
 3316WAT      O10158   0.741   2.925   2.925
 3316WAT     H110159   0.679   2.880   2.983
 3316WAT     H210160   0.794   2.855   2.887
 3317WAT      O10161   1.100   3.396   2.784
 3317WAT     H110162   1.060   3.309   2.792
 3317WAT     H210163   1.187   3.386   2.822
 3318WAT      O10164   0.730   3.617   2.792
 3318WAT     H110165   0.667   3.634   2.722
 3318WAT     H210166   0.798   3.683   2.781
 3319WAT      O10167   0.651   3.181   2.952
 3319WAT     H110168   0.684   3.093   2.939
 3319WAT     H210169   0.716   3.223   3.008
 3320WAT      O10170   0.755   2.443   2.929
 3320WAT     H110171   0.813   2.377   2.969
 3320WAT     H210172   0.790   2.454   2.840
 3321WAT      O10173   1.151   2.259   2.635
 3321WAT     H110174   1.214   2.194   2.664
 3321WAT     H210175   1.140   2.318   2.710
 3322WAT      O10176   0.384   2.658   2.917
 3322WAT     H110177   0.448   2.700   2.974
 3322WAT     H210178   0.414   2.567   2.910
 3323WAT      O10179   1.573   2.470   3.320
 3323WAT     H110180   1.508   2.536   3.298
 3323WAT     H210181   1.622   2.508   3.393
 3324WAT      O10182   0.850   3.125   2.530
 3324WAT     H110183   0.821   3.128   2.439
 3324WAT     H210184   0.818   3.206   2.568
 3325WAT      O10185   0.346   3.033   3.144
 3325WAT     H110186   0.251   3.025   3.150
 3325WAT     H210187   0.362   3.083   3.065
 3326WAT      O10188   1.158   2.371   2.903
 3326WAT     H110189   1.076   2.357   2.950
 3326WAT     H210190   1.172   2.466   2.905
 3327WAT      O10191   1.241   3.380   3.144
 3327WAT     H110192   1.223   3.459   3.195
 3327WAT     H210193   1.284   3.412   3.065
 3328WAT      O10194   1.427   2.317   2.966
 3328WAT     H110195   1.333   2.323   2.952
 3328WAT     H210196   1.445   2.378   3.037
 3329WAT      O10197   0.522   2.013   2.764
 3329WAT     H110198   0.549   1.944   2.703
 3329WAT     H210199   0.428   2.021   2.751
 3330WAT      O10200   1.034   3.585   2.981
 3330WAT     H110201   1.056   3.522   2.912
 3330WAT     H210202   0.969   3.642   2.940
 3331WAT      O10203   1.208   3.222   2.510
 3331WAT     H110204   1.204   3.131   2.538
 3331WAT     H210205   1.146   3.269   2.566
 3332WAT      O10206   1.047   3.047   3.160
 3332WAT     H110207   1.110   3.029   3.090
 3332WAT     H210208   1.096   3.101   3.223
 3333WAT      O10209   0.768   2.855   2.533
 3333WAT     H110210   0.674   2.864   2.520
 3333WAT     H210211   0.802   2.944   2.530
 3334WAT      O10212   0.775   2.395   2.174
 3334WAT     H110213   0.706   2.451   2.209
 3334WAT     H210214   0.855   2.447   2.179
 3335WAT      O10215   1.384   2.897   3.181
 3335WAT     H110216   1.328   2.922   3.107
 3335WAT     H210217   1.466   2.945   3.165
 3336WAT      O10218   1.164   2.952   2.558
 3336WAT     H110219   1.082   2.936   2.511
 3336WAT     H210220   1.151   2.912   2.644
 3337WAT      O10221   1.097   2.578   3.300
 3337WAT     H110222   1.060   2.666   3.308
 3337WAT     H210223   1.023   2.523   3.275
 3338WAT      O10224   0.340   2.869   2.742
 3338WAT     H110225   0.246   2.857   2.728
 3338WAT     H210226   0.365   2.797   2.801
 3339WAT      O10227   0.387   3.140   2.885
 3339WAT     H110228   0.396   3.058   2.837
 3339WAT     H210229   0.477   3.167   2.904
 3340WAT      O10230   0.204   2.593   3.142
 3340WAT     H110231   0.254   2.619   3.064
 3340WAT     H210232   0.252   2.633   3.214
 3341WAT      O10233   1.171   3.569   3.334
 3341WAT     H110234   1.143   3.656   3.304
 3341WAT     H210235   1.094   3.534   3.378
 3342WAT      O10236   0.256   3.236   3.618
 3342WAT     H110237   0.183   3.198   3.667
 3342WAT     H210238   0.233   3.222   3.526
 3343WAT      O10239   1.000   2.919   2.216
 3343WAT     H110240   1.055   2.846   2.189
 3343WAT     H210241   1.062   2.992   2.228
 3344WAT      O10242   0.765   3.374   2.624
 3344WAT     H110243   0.828   3.436   2.586
 3344WAT     H210244   0.744   3.410   2.710
 3345WAT      O10245   0.364   3.475   3.707
 3345WAT     H110246   0.361   3.535   3.632
 3345WAT     H210247   0.322   3.395   3.675
 3346WAT      O10248   1.306   1.933   2.072
 3346WAT     H110249   1.291   1.940   2.167
 3346WAT     H210250   1.372   2.000   2.053
 3347WAT      O10251   1.550   3.529   3.838
 3347WAT     H110252   1.600   3.581   3.901
 3347WAT     H210253   1.601   3.535   3.757
 3348WAT      O10254   1.442   3.231   3.513
 3348WAT     H110255   1.516   3.239   3.454
 3348WAT     H210256   1.409   3.142   3.499
 3349WAT      O10257   0.844   3.618   3.427
 3349WAT     H110258   0.895   3.618   3.508
 3349WAT     H210259   0.762   3.661   3.451
 3350WAT      O10260   1.005   3.686   2.351
 3350WAT     H110261   1.005   3.646   2.438
 3350WAT     H210262   1.008   3.613   2.290
 3351WAT      O10263   0.311   3.585   2.533
 3351WAT     H110264   0.306   3.491   2.551
 3351WAT     H210265   0.236   3.623   2.579
 3352WAT      O10266   0.972   3.475   2.182
 3352WAT     H110267   0.880   3.451   2.174
 3352WAT     H210268   1.019   3.410   2.129
 3353WAT      O10269   0.985   3.577   2.604
 3353WAT     H110270   1.035   3.517   2.659
 3353WAT     H210271   0.979   3.657   2.655
 3354WAT      O10272   1.421   2.507   3.652
 3354WAT     H110273   1.404   2.600   3.634
 3354WAT     H210274   1.350   2.461   3.606
 3355WAT      O10275   0.249   2.084   2.789
 3355WAT     H110276   0.160   2.118   2.800
 3355WAT     H210277   0.292   2.101   2.873
 3356WAT      O10278   0.636   2.382   3.390
 3356WAT     H110279   0.585   2.392   3.470
 3356WAT     H210280   0.600   2.303   3.349
 3357WAT      O10281   1.204   2.420   3.500
 3357WAT     H110282   1.127   2.406   3.555
 3357WAT     H210283   1.172   2.475   3.428
 3358WAT      O10284   0.893   2.643   3.712
 3358WAT     H110285   0.910   2.549   3.707
 3358WAT     H210286   0.978   2.682   3.730
 3359WAT      O10287   0.565   2.044   2.327
 3359WAT     H110288   0.492   2.044   2.389
 3359WAT     H210289   0.593   1.953   2.323
 3360WAT      O10290   0.443   2.152   2.996
 3360WAT     H110291   0.451   2.243   2.968
 3360WAT     H210292   0.494   2.102   2.932
 3361WAT      O10293   0.892   2.598   2.458
 3361WAT     H110294   0.846   2.682   2.450
 3361WAT     H210295   0.927   2.582   2.371
 3362WAT      O10296   0.453   2.727   3.621
 3362WAT     H110297   0.478   2.634   3.619
 3362WAT     H210298   0.520   2.769   3.675
 3363WAT      O10299   0.856   2.453   2.681
 3363WAT     H110300   0.867   2.499   2.597
 3363WAT     H210301   0.853   2.360   2.657
 3364WAT      O10302   0.607   2.301   3.845
 3364WAT     H110303   0.536   2.278   3.904
 3364WAT     H210304   0.676   2.335   3.903
 3365WAT      O10305   0.832   2.647   3.104
 3365WAT     H110306   0.761   2.651   3.167
 3365WAT     H210307   0.801   2.585   3.037
 3366WAT      O10308   0.491   2.401   2.878
 3366WAT     H110309   0.494   2.368   2.788
 3366WAT     H210310   0.583   2.419   2.900
 3367WAT      O10311   0.585   2.552   2.274
 3367WAT     H110312   0.523   2.526   2.342
 3367WAT     H210313   0.539   2.619   2.223
 3368WAT      O10314   0.933   2.261   3.043
 3368WAT     H110315   0.929   2.302   3.129
 3368WAT     H210316   0.880   2.182   3.051
 3369WAT      O10317   0.462   2.731   2.105
 3369WAT     H110318   0.409   2.667   2.058
 3369WAT     H210319   0.532   2.755   2.044
 3370WAT      O10320   1.247   2.025   3.636
 3370WAT     H110321   1.295   1.943   3.646
 3370WAT     H210322   1.242   2.039   3.542
 3371WAT      O10323   0.536   2.811   3.090
 3371WAT     H110324   0.563   2.760   3.166
 3371WAT     H210325   0.470   2.871   3.124
 3372WAT      O10326   0.363   2.711   3.343
 3372WAT     H110327   0.370   2.741   3.433
 3372WAT     H210328   0.450   2.675   3.323
 3373WAT      O10329   1.250   2.995   2.965
 3373WAT     H110330   1.325   3.030   2.918
 3373WAT     H210331   1.206   2.939   2.901
 3374WAT      O10332   0.794   2.187   2.353
 3374WAT     H110333   0.709   2.144   2.347
 3374WAT     H210334   0.786   2.263   2.296
 3375WAT      O10335   0.752   3.009   3.594
 3375WAT     H110336   0.753   2.921   3.555
 3375WAT     H210337   0.666   3.016   3.634
 3376WAT      O10338   1.014   2.528   2.215
 3376WAT     H110339   1.071   2.597   2.181
 3376WAT     H210340   1.059   2.446   2.192
 3377WAT      O10341   0.704   3.178   2.298
 3377WAT     H110342   0.711   3.265   2.257
 3377WAT     H210343   0.620   3.181   2.344
 3378WAT      O10344   0.190   2.738   3.713
 3378WAT     H110345   0.140   2.762   3.635
 3378WAT     H210346   0.282   2.743   3.685
 3379WAT      O10347   0.800   3.276   3.619
 3379WAT     H110348   0.777   3.186   3.597
 3379WAT     H210349   0.723   3.311   3.664
 3380WAT      O10350   1.179   2.730   2.117
 3380WAT     H110351   1.168   2.739   2.022
 3380WAT     H210352   1.270   2.757   2.134
 3381WAT      O10353   1.325   2.997   3.426
 3381WAT     H110354   1.260   3.065   3.405
 3381WAT     H210355   1.348   2.959   3.341
 3382WAT      O10356   1.403   3.405   2.423
 3382WAT     H110357   1.338   3.342   2.454
 3382WAT     H210358   1.367   3.438   2.341
 3383WAT      O10359   0.977   3.149   2.782
 3383WAT     H110360   0.937   3.126   2.697
 3383WAT     H210361   0.931   3.094   2.845
 3384WAT      O10362   0.540   3.216   2.547
 3384WAT     H110363   0.612   3.270   2.577
 3384WAT     H210364   0.462   3.270   2.560
 3385WAT      O10365   0.501   2.943   2.523
 3385WAT     H110366   0.515   3.036   2.537
 3385WAT     H210367   0.448   2.915   2.598
 3386WAT      O10368   0.715   3.473   3.222
 3386WAT     H110369   0.767   3.509   3.294
 3386WAT     H210370   0.764   3.396   3.193
 3387WAT      O10371   0.873   3.267   3.113
 3387WAT     H110372   0.914   3.183   3.133
 3387WAT     H210373   0.946   3.321   3.082
 3388WAT      O10374   1.214   3.302   2.062
 3388WAT     H110375   1.189   3.232   2.123
 3388WAT     H210376   1.185   3.270   1.976
 3389WAT      O10377   1.033   3.377   3.521
 3389WAT     H110378   1.034   3.461   3.567
 3389WAT     H210379   0.947   3.340   3.541
 3390WAT      O10380   1.197   3.108   2.256
 3390WAT     H110381   1.195   3.156   2.339
 3390WAT     H210382   1.274   3.053   2.262
 3391WAT      O10383   0.597   3.356   3.792
 3391WAT     H110384   0.557   3.280   3.835
 3391WAT     H210385   0.523   3.407   3.759
 3392WAT      O10386   0.435   3.372   2.222
 3392WAT     H110387   0.395   3.447   2.177
 3392WAT     H210388   0.417   3.297   2.165
 3393WAT      O10389   0.902   2.365   3.295
 3393WAT     H110390   0.937   2.287   3.338
 3393WAT     H210391   0.815   2.377   3.333
 3394WAT      O10392   1.266   2.232   2.384
 3394WAT     H110393   1.209   2.260   2.313
 3394WAT     H210394   1.215   2.250   2.463
 3395WAT      O10395   0.690   3.437   2.169
 3395WAT     H110396   0.689   3.413   2.076
 3395WAT     H210397   0.601   3.422   2.199
 3396WAT      O10398   0.409   2.473   2.471
 3396WAT     H110399   0.379   2.537   2.536
 3396WAT     H210400   0.451   2.405   2.523
 3397WAT      O10401   0.626   2.642   3.297
 3397WAT     H110402   0.676   2.686   3.367
 3397WAT     H210403   0.629   2.549   3.321
 3398WAT      O10404   0.887   2.171   2.614
 3398WAT     H110405   0.856   2.173   2.524
 3398WAT     H210406   0.979   2.196   2.608
 3399WAT      O10407   0.564   3.683   2.584
 3399WAT     H110408   0.611   3.678   2.501
 3399WAT     H210409   0.476   3.650   2.563
 3400WAT      O10410   0.285   2.418   2.219
 3400WAT     H110411   0.330   2.338   2.193
 3400WAT     H210412   0.315   2.435   2.308
 3401WAT      O10413   1.420   2.269   3.415
 3401WAT     H110414   1.339   2.312   3.443
 3401WAT     H210415   1.471   2.339   3.373
 3402WAT      O10416   1.141   2.812   2.791
 3402WAT     H110417   1.051   2.779   2.792
 3402WAT     H210418   1.195   2.737   2.813
 3403WAT      O10419   1.359   3.506   2.913
 3403WAT     H110420   1.382   3.577   2.972
 3403WAT     H210421   1.442   3.481   2.872
 3404WAT      O10422   0.381   3.598   2.072
 3404WAT     H110423   0.452   3.657   2.047
 3404WAT     H210424   0.356   3.555   1.990
 3405WAT      O10425   0.903   3.247   3.879
 3405WAT     H110426   0.876   3.262   3.789
 3405WAT     H210427   0.865   3.163   3.902
 3406WAT      O10428   1.037   3.621   3.645
 3406WAT     H110429   1.130   3.614   3.665
 3406WAT     H210430   1.006   3.691   3.703
 3407WAT      O10431   1.306   3.521   2.200
 3407WAT     H110432   1.266   3.453   2.146
 3407WAT     H210433   1.294   3.601   2.150
 3408WAT      O10434   0.460   3.151   2.043
 3408WAT     H110435   0.453   3.090   2.117
 3408WAT     H210436   0.468   3.095   1.966
 3409WAT      O10437   0.481   3.071   3.646
 3409WAT     H110438   0.411   3.137   3.647
 3409WAT     H210439   0.484   3.039   3.556
 3410WAT      O10440   0.778   3.005   2.088
 3410WAT     H110441   0.733   3.053   2.157
 3410WAT     H210442   0.853   2.966   2.132
 3411WAT      O10443   1.193   3.213   3.672
 3411WAT     H110444   1.282   3.221   3.637
 3411WAT     H210445   1.141   3.275   3.620
 3412WAT      O10446   0.443   2.970   2.247
 3412WAT     H110447   0.462   2.953   2.339
 3412WAT     H210448   0.442   2.883   2.206
 3413WAT      O10449   0.666   2.796   1.931
 3413WAT     H110450   0.741   2.740   1.910
 3413WAT     H210451   0.703   2.870   1.978
 3414WAT      O10452   1.037   2.985   3.603
 3414WAT     H110453   1.086   3.062   3.634
 3414WAT     H210454   0.945   3.010   3.614
 3415WAT      O10455   1.145   2.765   3.725
 3415WAT     H110456   1.218   2.746   3.666
 3415WAT     H210457   1.106   2.845   3.690
 3416WAT      O10458   0.547   2.148   3.254
 3416WAT     H110459   0.496   2.155   3.173
 3416WAT     H210460   0.509   2.073   3.300
 3417WAT      O10461   0.492   3.022   3.378
 3417WAT     H110462   0.580   3.027   3.341
 3417WAT     H210463   0.434   3.026   3.303
 3418WAT      O10464   0.787   2.755   3.485
 3418WAT     H110465   0.818   2.709   3.563
 3418WAT     H210466   0.867   2.776   3.436
 3419WAT      O10467   1.015   2.841   3.358
 3419WAT     H110468   1.012   2.900   3.283
 3419WAT     H210469   1.041   2.896   3.432
 3420WAT      O10470   0.318   2.530   1.970
 3420WAT     H110471   0.290   2.491   2.053
 3420WAT     H210472   0.244   2.586   1.945
 3421WAT      O10473   0.355   3.640   3.486
 3421WAT     H110474   0.275   3.677   3.449
 3421WAT     H210475   0.388   3.581   3.417
 3422WAT      O10476   0.494   2.448   3.643
 3422WAT     H110477   0.551   2.400   3.703
 3422WAT     H210478   0.415   2.467   3.694
 3423WAT      O10479   0.990   2.380   3.678
 3423WAT     H110480   0.930   2.308   3.659
 3423WAT     H210481   1.057   2.342   3.735
 3424WAT      O10482   0.970   2.041   2.204
 3424WAT     H110483   0.980   1.959   2.252
 3424WAT     H210484   0.904   2.090   2.254
 3425WAT      O10485   0.616   3.748   3.498
 3425WAT     H110486   0.616   3.826   3.553
 3425WAT     H210487   0.527   3.714   3.503
 3426WAT      O10488   0.426   2.197   2.138
 3426WAT     H110489   0.384   2.137   2.076
 3426WAT     H210490   0.471   2.140   2.200
 3427WAT      O10491   0.699   3.667   2.340
 3427WAT     H110492   0.792   3.686   2.345
 3427WAT     H210493   0.693   3.591   2.282
 3428WAT      O10494   0.285   3.321   2.608
 3428WAT     H110495   0.279   3.280   2.695
 3428WAT     H210496   0.235   3.263   2.551
 3429WAT      O10497   1.418   3.500   3.452
 3429WAT     H110498   1.333   3.527   3.417
 3429WAT     H210499   1.408   3.407   3.472
 3430WAT      O10500   1.494   3.263   2.062
 3430WAT     H110501   1.399   3.273   2.067
 3430WAT     H210502   1.526   3.347   2.027
 3431WAT      O10503   1.421   2.951   2.276
 3431WAT     H110504   1.498   3.007   2.286
 3431WAT     H210505   1.421   2.895   2.354
 3432WAT      O10506   1.550   3.035   2.850
 3432WAT     H110507   1.574   2.955   2.802
 3432WAT     H210508   1.599   3.105   2.807
 3433WAT      O10509   1.169   3.208   3.340
 3433WAT     H110510   1.120   3.267   3.397
 3433WAT     H210511   1.206   3.265   3.273
 3434WAT      O10512   1.520   2.978   2.015
 3434WAT     H110513   1.525   3.073   2.006
 3434WAT     H210514   1.468   2.964   2.094
 3435WAT      O10515   1.117   2.274   2.155
 3435WAT     H110516   1.159   2.260   2.070
 3435WAT     H210517   1.059   2.198   2.165
 3436WAT      O10518   1.403   2.810   2.513
 3436WAT     H110519   1.377   2.718   2.513
 3436WAT     H210520   1.324   2.858   2.535
 3437WAT      O10521   1.351   2.746   3.540
 3437WAT     H110522   1.356   2.705   3.454
 3437WAT     H210523   1.348   2.840   3.522
 3438WAT      O10524   1.208   2.247   3.789
 3438WAT     H110525   1.293   2.292   3.786
 3438WAT     H210526   1.221   2.169   3.734
 3439WAT      O10527   1.327   2.611   2.856
 3439WAT     H110528   1.369   2.553   2.792
 3439WAT     H210529   1.400   2.649   2.905
 3440WAT      O10530   1.365   2.643   3.282
 3440WAT     H110531   1.273   2.618   3.272
 3440WAT     H210532   1.373   2.726   3.235
 3441WAT      O10533   1.352   2.539   2.506
 3441WAT     H110534   1.398   2.495   2.577
 3441WAT     H210535   1.281   2.480   2.482
 3442WAT      O10536   1.480   2.414   2.711
 3442WAT     H110537   1.467   2.371   2.795
 3442WAT     H210538   1.560   2.374   2.676
 3443WAT      O10539   1.264   2.052   3.359
 3443WAT     H110540   1.337   2.114   3.359
 3443WAT     H210541   1.278   2.000   3.280
 3444WAT      O10542   1.497   2.131   2.042
 3444WAT     H110543   1.587   2.109   2.018
 3444WAT     H210544   1.506   2.179   2.125
 3445WAT      O10545   1.531   2.244   2.294
 3445WAT     H110546   1.445   2.236   2.335
 3445WAT     H210547   1.549   2.338   2.294
 3446WAT      O10548   1.294   3.695   2.712
 3446WAT     H110549   1.355   3.673   2.641
 3446WAT     H210550   1.305   3.623   2.775
 3447WAT      O10551   0.441   3.486   3.285
 3447WAT     H110552   0.408   3.504   3.197
 3447WAT     H210553   0.535   3.470   3.272
 3448WAT      O10554   0.628   2.089   3.672
 3448WAT     H110555   0.605   2.164   3.727
 3448WAT     H210556   0.718   2.106   3.646
 3449WAT      O10557   0.889   2.126   3.623
 3449WAT     H110558   0.932   2.121   3.537
 3449WAT     H210559   0.933   2.059   3.675
 3450WAT      O10560   1.543   3.697   3.305
 3450WAT     H110561   1.468   3.756   3.310
 3450WAT     H210562   1.518   3.621   3.357
 3451WAT      O10563   0.938   1.898   3.244
 3451WAT     H110564   0.879   1.938   3.181
 3451WAT     H210565   0.882   1.841   3.296
 3452WAT      O10566   1.007   2.123   3.379
 3452WAT     H110567   0.974   2.047   3.330
 3452WAT     H210568   1.102   2.114   3.377
 3453WAT      O10569   1.229   3.755   3.084
 3453WAT     H110570   1.199   3.828   3.029
 3453WAT     H210571   1.168   3.684   3.066
 3454WAT      O10572   0.396   3.562   3.027
 3454WAT     H110573   0.399   3.520   2.941
 3454WAT     H210574   0.470   3.624   3.026
 3455WAT      O10575   0.654   3.678   3.047
 3455WAT     H110576   0.682   3.648   2.960
 3455WAT     H210577   0.675   3.606   3.106
 3456WAT      O10578   0.757   2.046   3.099
 3456WAT     H110579   0.692   2.089   3.155
 3456WAT     H210580   0.712   1.968   3.065
 3457WAT      O10581   1.124   2.047   2.937
 3457WAT     H110582   1.194   2.070   2.877
 3457WAT     H210583   1.090   2.131   2.968
 3458WAT      O10584   1.319   2.079   2.745
 3458WAT     H110585   1.307   1.986   2.730
 3458WAT     H210586   1.412   2.088   2.770
 3459WAT      O10587   0.506   2.268   2.630
 3459WAT     H110588   0.446   2.213   2.580
 3459WAT     H210589   0.569   2.206   2.668
 3460WAT      O10590   0.937   1.922   2.772
 3460WAT     H110591   1.003   1.960   2.831
 3460WAT     H210592   0.902   1.998   2.724
 3461WAT      O10593   1.267   1.952   2.342
 3461WAT     H110594   1.268   2.044   2.369
 3461WAT     H210595   1.178   1.922   2.363
 3462WAT      O10596   0.344   2.080   2.507
 3462WAT     H110597   0.282   2.074   2.579
 3462WAT     H210598   0.305   2.027   2.437
 3463WAT      O10599   0.581   3.746   3.828
 3463WAT     H110600   0.656   3.688   3.829
 3463WAT     H210601   0.610   3.823   3.779
 3464WAT      O10602   1.456   3.667   2.486
 3464WAT     H110603   1.437   3.577   2.460
 3464WAT     H210604   1.399   3.720   2.431
 3465WAT      O10605   0.344   2.022   3.823
 3465WAT     H110606   0.314   2.027   3.732
 3465WAT     H210607   0.417   1.961   3.820
 3466WAT      O10608   0.310   3.752   2.311
 3466WAT     H110609   0.318   3.708   2.226
 3466WAT     H210610   0.312   3.681   2.375
 3467WAT      O10611   1.015   1.947   3.792
 3467WAT     H110612   1.001   1.968   3.884
 3467WAT     H210613   1.105   1.977   3.775
 3468WAT      O10614   1.299   3.642   3.740
 3468WAT     H110615   1.374   3.583   3.750
 3468WAT     H210616   1.302   3.698   3.817
 3469WAT      O10617   0.880   2.734   0.882
 3469WAT     H110618   0.869   2.640   0.866
 3469WAT     H210619   0.841   2.776   0.806
 3470WAT      O10620   0.740   2.924   1.046
 3470WAT     H110621   0.679   2.879   1.105
 3470WAT     H210622   0.794   2.855   1.009
 3471WAT      O10623   1.098   3.394   0.914
 3471WAT     H110624   1.059   3.307   0.917
 3471WAT     H210625   1.187   3.382   0.949
 3472WAT      O10626   0.731   3.616   0.925
 3472WAT     H110627   0.666   3.632   0.856
 3472WAT     H210628   0.797   3.683   0.911
 3473WAT      O10629   0.648   3.180   1.070
 3473WAT     H110630   0.682   3.091   1.057
 3473WAT     H210631   0.713   3.222   1.126
 3474WAT      O10632   0.757   2.446   1.057
 3474WAT     H110633   0.815   2.379   1.095
 3474WAT     H210634   0.790   2.457   0.967
 3475WAT      O10635   1.165   2.265   0.761
 3475WAT     H110636   1.226   2.198   0.790
 3475WAT     H210637   1.153   2.322   0.836
 3476WAT      O10638   0.385   2.656   1.045
 3476WAT     H110639   0.450   2.697   1.101
 3476WAT     H210640   0.413   2.565   1.037
 3477WAT      O10641   1.542   2.434   1.451
 3477WAT     H110642   1.482   2.505   1.428
 3477WAT     H210643   1.594   2.469   1.524
 3478WAT      O10644   0.844   3.138   0.654
 3478WAT     H110645   0.816   3.146   0.562
 3478WAT     H210646   0.812   3.218   0.696
 3479WAT      O10647   0.345   3.034   1.269
 3479WAT     H110648   0.250   3.024   1.274
 3479WAT     H210649   0.359   3.085   1.189
 3480WAT      O10650   1.162   2.378   1.024
 3480WAT     H110651   1.081   2.372   1.075
 3480WAT     H210652   1.184   2.471   1.025
 3481WAT      O10653   1.242   3.380   1.270
 3481WAT     H110654   1.225   3.458   1.321
 3481WAT     H210655   1.285   3.412   1.190
 3482WAT      O10656   1.432   2.318   1.089
 3482WAT     H110657   1.337   2.324   1.076
 3482WAT     H210658   1.449   2.371   1.167
 3483WAT      O10659   0.507   2.006   0.899
 3483WAT     H110660   0.538   1.936   0.841
 3483WAT     H210661   0.420   2.029   0.865
 3484WAT      O10662   1.032   3.582   1.109
 3484WAT     H110663   1.055   3.519   1.042
 3484WAT     H210664   0.965   3.637   1.068
 3485WAT      O10665   1.213   3.222   0.624
 3485WAT     H110666   1.208   3.130   0.653
 3485WAT     H210667   1.146   3.267   0.675
 3486WAT      O10668   1.046   3.050   1.279
 3486WAT     H110669   1.110   3.031   1.210
 3486WAT     H210670   1.095   3.103   1.343
 3487WAT      O10671   0.775   2.860   0.662
 3487WAT     H110672   0.680   2.875   0.662
 3487WAT     H210673   0.812   2.948   0.649
 3488WAT      O10674   0.739   2.398   0.357
 3488WAT     H110675   0.648   2.428   0.353
 3488WAT     H210676   0.790   2.478   0.370
 3489WAT      O10677   1.382   2.891   1.303
 3489WAT     H110678   1.327   2.918   1.229
 3489WAT     H210679   1.464   2.939   1.290
 3490WAT      O10680   1.171   2.951   0.673
 3490WAT     H110681   1.094   2.932   0.618
 3490WAT     H210682   1.150   2.911   0.757
 3491WAT      O10683   1.089   2.589   1.420
 3491WAT     H110684   1.053   2.678   1.428
 3491WAT     H210685   1.015   2.537   1.390
 3492WAT      O10686   0.341   2.877   0.886
 3492WAT     H110687   0.252   2.861   0.853
 3492WAT     H210688   0.359   2.803   0.943
 3493WAT      O10689   0.382   3.139   1.009
 3493WAT     H110690   0.385   3.053   0.966
 3493WAT     H210691   0.474   3.161   1.024
 3494WAT      O10692   0.202   2.593   1.266
 3494WAT     H110693   0.252   2.617   1.188
 3494WAT     H210694   0.250   2.633   1.338
 3495WAT      O10695   1.173   3.569   1.459
 3495WAT     H110696   1.145   3.655   1.428
 3495WAT     H210697   1.095   3.533   1.503
 3496WAT      O10698   0.255   3.234   1.739
 3496WAT     H110699   0.183   3.197   1.790
 3496WAT     H210700   0.231   3.218   1.648
 3497WAT      O10701   0.995   2.921   0.412
 3497WAT     H110702   1.022   2.839   0.370
 3497WAT     H210703   1.065   2.983   0.391
 3498WAT      O10704   0.761   3.381   0.758
 3498WAT     H110705   0.823   3.440   0.716
 3498WAT     H210706   0.745   3.420   0.844
 3499WAT      O10707   0.366   3.473   1.826
 3499WAT     H110708   0.362   3.533   1.752
 3499WAT     H210709   0.323   3.393   1.794
 3500WAT      O10710   1.380   1.979   0.215
 3500WAT     H110711   1.340   1.966   0.301
 3500WAT     H210712   1.434   2.057   0.225
 3501WAT      O10713   1.552   3.526   1.960
 3501WAT     H110714   1.601   3.578   2.024
 3501WAT     H210715   1.606   3.529   1.881
 3502WAT      O10716   1.440   3.229   1.636
 3502WAT     H110717   1.515   3.237   1.577
 3502WAT     H210718   1.408   3.140   1.623
 3503WAT      O10719   0.844   3.619   1.549
 3503WAT     H110720   0.894   3.619   1.631
 3503WAT     H210721   0.761   3.662   1.572
 3504WAT      O10722   1.021   3.691   0.491
 3504WAT     H110723   1.006   3.655   0.579
 3504WAT     H210724   1.013   3.615   0.433
 3505WAT      O10725   0.291   3.600   0.681
 3505WAT     H110726   0.285   3.506   0.698
 3505WAT     H210727   0.222   3.638   0.736
 3506WAT      O10728   1.017   3.462   0.343
 3506WAT     H110729   0.993   3.375   0.311
 3506WAT     H210730   1.111   3.470   0.323
 3507WAT      O10731   0.982   3.577   0.738
 3507WAT     H110732   1.032   3.516   0.793
 3507WAT     H210733   0.978   3.658   0.790
 3508WAT      O10734   1.428   2.511   1.771
 3508WAT     H110735   1.405   2.601   1.747
 3508WAT     H210736   1.357   2.458   1.737
 3509WAT      O10737   0.235   2.114   0.918
 3509WAT     H110738   0.148   2.146   0.941
 3509WAT     H210739   0.286   2.121   0.999
 3510WAT      O10740   0.633   2.382   1.515
 3510WAT     H110741   0.582   2.392   1.595
 3510WAT     H210742   0.599   2.303   1.474
 3511WAT      O10743   1.195   2.439   1.626
 3511WAT     H110744   1.123   2.425   1.688
 3511WAT     H210745   1.158   2.496   1.559
 3512WAT      O10746   0.897   2.640   1.838
 3512WAT     H110747   0.916   2.546   1.840
 3512WAT     H210748   0.981   2.682   1.852
 3513WAT      O10749   0.562   2.029   0.496
 3513WAT     H110750   0.482   2.038   0.548
 3513WAT     H210751   0.571   1.935   0.481
 3514WAT      O10752   0.440   2.152   1.125
 3514WAT     H110753   0.452   2.242   1.094
 3514WAT     H210754   0.483   2.099   1.058
 3515WAT      O10755   0.869   2.605   0.580
 3515WAT     H110756   0.841   2.697   0.585
 3515WAT     H210757   0.935   2.603   0.511
 3516WAT      O10758   0.452   2.726   1.743
 3516WAT     H110759   0.477   2.633   1.742
 3516WAT     H210760   0.520   2.768   1.796
 3517WAT      O10761   0.853   2.459   0.806
 3517WAT     H110762   0.855   2.502   0.720
 3517WAT     H210763   0.863   2.366   0.787
 3518WAT      O10764   0.616   2.298   1.966
 3518WAT     H110765   0.543   2.275   2.023
 3518WAT     H210766   0.683   2.333   2.025
 3519WAT      O10767   0.837   2.644   1.234
 3519WAT     H110768   0.765   2.650   1.296
 3519WAT     H210769   0.806   2.584   1.166
 3520WAT      O10770   0.495   2.400   1.009
 3520WAT     H110771   0.502   2.364   0.921
 3520WAT     H210772   0.585   2.420   1.035
 3521WAT      O10773   0.482   2.500   0.378
 3521WAT     H110774   0.477   2.515   0.472
 3521WAT     H210775   0.460   2.584   0.338
 3522WAT      O10776   0.934   2.265   1.168
 3522WAT     H110777   0.929   2.307   1.254
 3522WAT     H210778   0.887   2.183   1.179
 3523WAT      O10779   0.428   2.748   0.260
 3523WAT     H110780   0.360   2.751   0.193
 3523WAT     H210781   0.503   2.792   0.221
 3524WAT      O10782   1.269   2.008   1.724
 3524WAT     H110783   1.282   1.920   1.759
 3524WAT     H210784   1.284   1.999   1.630
 3525WAT      O10785   0.538   2.810   1.214
 3525WAT     H110786   0.566   2.759   1.290
 3525WAT     H210787   0.471   2.869   1.249
 3526WAT      O10788   0.363   2.711   1.465
 3526WAT     H110789   0.369   2.740   1.556
 3526WAT     H210790   0.450   2.676   1.446
 3527WAT      O10791   1.252   2.994   1.086
 3527WAT     H110792   1.329   3.028   1.042
 3527WAT     H210793   1.208   2.940   1.020
 3528WAT      O10794   0.781   2.183   0.513
 3528WAT     H110795   0.701   2.131   0.503
 3528WAT     H210796   0.767   2.260   0.458
 3529WAT      O10797   0.752   3.009   1.718
 3529WAT     H110798   0.753   2.921   1.681
 3529WAT     H210799   0.665   3.017   1.758
 3530WAT      O10800   1.053   2.574   0.383
 3530WAT     H110801   1.125   2.628   0.350
 3530WAT     H210802   1.074   2.485   0.356
 3531WAT      O10803   0.656   3.220   0.447
 3531WAT     H110804   0.613   3.294   0.405
 3531WAT     H210805   0.605   3.205   0.527
 3532WAT      O10806   0.190   2.739   1.836
 3532WAT     H110807   0.140   2.762   1.758
 3532WAT     H210808   0.281   2.743   1.808
 3533WAT      O10809   0.800   3.276   1.742
 3533WAT     H110810   0.777   3.186   1.721
 3533WAT     H210811   0.724   3.311   1.787
 3534WAT      O10812   1.245   2.751   0.294
 3534WAT     H110813   1.260   2.758   0.200
 3534WAT     H210814   1.310   2.809   0.333
 3535WAT      O10815   1.324   2.996   1.547
 3535WAT     H110816   1.260   3.064   1.525
 3535WAT     H210817   1.346   2.957   1.462
 3536WAT      O10818   1.398   3.406   0.529
 3536WAT     H110819   1.336   3.342   0.564
 3536WAT     H210820   1.356   3.440   0.450
 3537WAT      O10821   0.976   3.148   0.902
 3537WAT     H110822   0.935   3.129   0.817
 3537WAT     H210823   0.931   3.090   0.964
 3538WAT      O10824   0.534   3.223   0.695
 3538WAT     H110825   0.605   3.277   0.729
 3538WAT     H210826   0.455   3.274   0.711
 3539WAT      O10827   0.512   2.946   0.680
 3539WAT     H110828   0.521   3.041   0.689
 3539WAT     H210829   0.457   2.920   0.753
 3540WAT      O10830   0.712   3.471   1.347
 3540WAT     H110831   0.765   3.508   1.418
 3540WAT     H210832   0.762   3.395   1.316
 3541WAT      O10833   0.870   3.268   1.233
 3541WAT     H110834   0.912   3.184   1.252
 3541WAT     H210835   0.942   3.323   1.201
 3542WAT      O10836   1.032   3.377   1.644
 3542WAT     H110837   1.034   3.460   1.690
 3542WAT     H210838   0.946   3.340   1.664
 3543WAT      O10839   1.208   3.086   0.378
 3543WAT     H110840   1.214   3.144   0.454
 3543WAT     H210841   1.293   3.042   0.375
 3544WAT      O10842   0.597   3.354   1.915
 3544WAT     H110843   0.556   3.279   1.958
 3544WAT     H210844   0.524   3.405   1.881
 3545WAT      O10845   0.487   3.433   0.351
 3545WAT     H110846   0.422   3.501   0.369
 3545WAT     H210847   0.451   3.385   0.276
 3546WAT      O10848   0.898   2.368   1.418
 3546WAT     H110849   0.942   2.299   1.467
 3546WAT     H210850   0.812   2.376   1.458
 3547WAT      O10851   1.277   2.204   0.511
 3547WAT     H110852   1.224   2.246   0.443
 3547WAT     H210853   1.234   2.229   0.593
 3548WAT      O10854   0.461   2.521   0.646
 3548WAT     H110855   0.463   2.584   0.718
 3548WAT     H210856   0.491   2.439   0.685
 3549WAT      O10857   0.627   2.642   1.422
 3549WAT     H110858   0.675   2.685   1.492
 3549WAT     H210859   0.629   2.549   1.445
 3550WAT      O10860   0.896   2.181   0.758
 3550WAT     H110861   0.859   2.177   0.669
 3550WAT     H210862   0.988   2.201   0.744
 3551WAT      O10863   0.554   3.671   0.725
 3551WAT     H110864   0.596   3.660   0.639
 3551WAT     H210865   0.462   3.648   0.709
 3552WAT      O10866   0.297   2.298   0.475
 3552WAT     H110867   0.371   2.332   0.424
 3552WAT     H210868   0.240   2.373   0.488
 3553WAT      O10869   1.321   2.256   1.470
 3553WAT     H110870   1.275   2.316   1.528
 3553WAT     H210871   1.406   2.298   1.454
 3554WAT      O10872   1.143   2.813   0.908
 3554WAT     H110873   1.053   2.781   0.913
 3554WAT     H210874   1.197   2.738   0.933
 3555WAT      O10875   1.356   3.508   1.043
 3555WAT     H110876   1.377   3.581   1.101
 3555WAT     H210877   1.441   3.484   1.004
 3556WAT      O10878   0.904   3.246   2.002
 3556WAT     H110879   0.876   3.261   1.912
 3556WAT     H210880   0.864   3.162   2.025
 3557WAT      O10881   1.038   3.621   1.767
 3557WAT     H110882   1.132   3.614   1.787
 3557WAT     H210883   1.007   3.690   1.826
 3558WAT      O10884   1.286   3.556   0.322
 3558WAT     H110885   1.331   3.576   0.240
 3558WAT     H210886   1.280   3.640   0.367
 3559WAT      O10887   0.481   3.071   1.769
 3559WAT     H110888   0.411   3.136   1.769
 3559WAT     H210889   0.484   3.039   1.679
 3560WAT      O10890   0.807   3.077   0.263
 3560WAT     H110891   0.751   3.123   0.326
 3560WAT     H210892   0.861   3.020   0.317
 3561WAT      O10893   1.193   3.213   1.795
 3561WAT     H110894   1.282   3.221   1.760
 3561WAT     H210895   1.142   3.275   1.743
 3562WAT      O10896   0.335   2.924   0.464
 3562WAT     H110897   0.402   2.927   0.532
 3562WAT     H210898   0.366   2.858   0.402
 3563WAT      O10899   1.037   2.987   1.728
 3563WAT     H110900   1.086   3.063   1.758
 3563WAT     H210901   0.945   3.011   1.739
 3564WAT      O10902   1.145   2.765   1.847
 3564WAT     H110903   1.217   2.745   1.787
 3564WAT     H210904   1.107   2.846   1.811
 3565WAT      O10905   0.552   2.147   1.378
 3565WAT     H110906   0.502   2.154   1.297
 3565WAT     H210907   0.516   2.070   1.422
 3566WAT      O10908   0.493   3.022   1.501
 3566WAT     H110909   0.580   3.027   1.463
 3566WAT     H210910   0.434   3.027   1.426
 3567WAT      O10911   0.787   2.753   1.611
 3567WAT     H110912   0.820   2.707   1.688
 3567WAT     H210913   0.866   2.777   1.562
 3568WAT      O10914   1.008   2.849   1.481
 3568WAT     H110915   1.008   2.908   1.406
 3568WAT     H210916   1.036   2.903   1.554
 3569WAT      O10917   0.353   3.642   1.608
 3569WAT     H110918   0.272   3.678   1.572
 3569WAT     H210919   0.386   3.584   1.538
 3570WAT      O10920   0.495   2.447   1.769
 3570WAT     H110921   0.553   2.398   1.827
 3570WAT     H210922   0.418   2.467   1.822
 3571WAT      O10923   1.009   2.377   1.822
 3571WAT     H110924   0.951   2.304   1.800
 3571WAT     H210925   1.083   2.336   1.866
 3572WAT      O10926   1.000   2.074   0.398
 3572WAT     H110927   0.999   1.981   0.421
 3572WAT     H210928   0.919   2.109   0.436
 3573WAT      O10929   0.616   3.750   1.618
 3573WAT     H110930   0.616   3.827   1.674
 3573WAT     H210931   0.526   3.716   1.625
 3574WAT      O10932   0.641   3.636   0.467
 3574WAT     H110933   0.727   3.636   0.425
 3574WAT     H210934   0.594   3.564   0.425
 3575WAT      O10935   0.275   3.328   0.736
 3575WAT     H110936   0.263   3.284   0.819
 3575WAT     H210937   0.232   3.272   0.672
 3576WAT      O10938   1.420   3.500   1.577
 3576WAT     H110939   1.335   3.526   1.542
 3576WAT     H210940   1.410   3.406   1.597
 3577WAT      O10941   1.446   2.930   0.396
 3577WAT     H110942   1.515   2.996   0.394
 3577WAT     H210943   1.447   2.896   0.485
 3578WAT      O10944   1.540   3.038   0.979
 3578WAT     H110945   1.567   2.957   0.936
 3578WAT     H210946   1.588   3.107   0.932
 3579WAT      O10947   1.168   3.207   1.463
 3579WAT     H110948   1.119   3.266   1.521
 3579WAT     H210949   1.206   3.265   1.397
 3580WAT      O10950   1.112   2.305   0.310
 3580WAT     H110951   1.114   2.302   0.214
 3580WAT     H210952   1.064   2.227   0.336
 3581WAT      O10953   1.416   2.817   0.645
 3581WAT     H110954   1.392   2.725   0.637
 3581WAT     H210955   1.334   2.863   0.662
 3582WAT      O10956   1.347   2.745   1.658
 3582WAT     H110957   1.352   2.702   1.572
 3582WAT     H210958   1.346   2.838   1.638
 3583WAT      O10959   1.238   2.216   1.909
 3583WAT     H110960   1.328   2.214   1.943
 3583WAT     H210961   1.237   2.151   1.839
 3584WAT      O10962   1.329   2.612   0.980
 3584WAT     H110963   1.376   2.558   0.917
 3584WAT     H210964   1.398   2.649   1.035
 3585WAT      O10965   1.361   2.634   1.401
 3585WAT     H110966   1.267   2.615   1.394
 3585WAT     H210967   1.372   2.717   1.355
 3586WAT      O10968   1.361   2.546   0.626
 3586WAT     H110969   1.405   2.499   0.696
 3586WAT     H210970   1.277   2.502   0.616
 3587WAT      O10971   1.485   2.417   0.834
 3587WAT     H110972   1.472   2.374   0.918
 3587WAT     H210973   1.566   2.378   0.800
 3588WAT      O10974   1.324   1.982   1.446
 3588WAT     H110975   1.328   2.077   1.437
 3588WAT     H210976   1.288   1.951   1.363
 3589WAT      O10977   1.541   2.219   0.429
 3589WAT     H110978   1.453   2.207   0.464
 3589WAT     H210979   1.549   2.314   0.417
 3590WAT      O10980   1.289   3.693   0.843
 3590WAT     H110981   1.350   3.671   0.773
 3590WAT     H210982   1.299   3.622   0.907
 3591WAT      O10983   0.439   3.490   1.406
 3591WAT     H110984   0.406   3.505   1.317
 3591WAT     H210985   0.532   3.472   1.393
 3592WAT      O10986   0.650   2.084   1.795
 3592WAT     H110987   0.625   2.160   1.848
 3592WAT     H210988   0.741   2.101   1.771
 3593WAT      O10989   0.914   2.125   1.750
 3593WAT     H110990   0.965   2.127   1.669
 3593WAT     H210991   0.962   2.065   1.807
 3594WAT      O10992   1.544   3.697   1.431
 3594WAT     H110993   1.469   3.756   1.435
 3594WAT     H210994   1.518   3.621   1.483
 3595WAT      O10995   0.980   1.921   1.393
 3595WAT     H110996   0.919   1.959   1.330
 3595WAT     H210997   0.928   1.856   1.440
 3596WAT      O10998   1.049   2.155   1.513
 3596WAT     H110999   1.035   2.071   1.469
 3596WAT     H211000   1.141   2.175   1.496
 3597WAT      O11001   1.231   3.750   1.208
 3597WAT     H111002   1.200   3.824   1.155
 3597WAT     H211003   1.167   3.681   1.191
 3598WAT      O11004   0.397   3.558   1.144
 3598WAT     H111005   0.418   3.503   1.068
 3598WAT     H211006   0.467   3.624   1.145
 3599WAT      O11007   0.652   3.680   1.176
 3599WAT     H111008   0.681   3.651   1.090
 3599WAT     H211009   0.673   3.608   1.235
 3600WAT      O11010   0.776   2.042   1.244
 3600WAT     H111011   0.710   2.088   1.296
 3600WAT     H211012   0.731   1.965   1.210
 3601WAT      O11013   1.116   2.067   1.049
 3601WAT     H111014   1.189   2.089   0.991
 3601WAT     H211015   1.080   2.152   1.076
 3602WAT      O11016   1.326   2.081   0.871
 3602WAT     H111017   1.312   1.987   0.857
 3602WAT     H211018   1.418   2.088   0.897
 3603WAT      O11019   0.537   2.282   0.764
 3603WAT     H111020   0.476   2.220   0.725
 3603WAT     H211021   0.619   2.233   0.770
 3604WAT      O11022   0.930   1.930   0.896
 3604WAT     H111023   0.998   1.963   0.955
 3604WAT     H211024   0.899   2.007   0.849
 3605WAT      O11025   1.274   1.927   0.468
 3605WAT     H111026   1.276   2.020   0.491
 3605WAT     H211027   1.184   1.899   0.485
 3606WAT      O11028   0.346   2.102   0.657
 3606WAT     H111029   0.282   2.111   0.728
 3606WAT     H211030   0.316   2.165   0.591
 3607WAT      O11031   0.580   3.749   1.951
 3607WAT     H111032   0.659   3.694   1.960
 3607WAT     H211033   0.610   3.825   1.901
 3608WAT      O11034   1.456   3.657   0.629
 3608WAT     H111035   1.443   3.569   0.593
 3608WAT     H211036   1.410   3.714   0.568
 3609WAT      O11037   0.348   2.024   1.942
 3609WAT     H111038   0.306   2.018   1.856
 3609WAT     H211039   0.420   1.962   1.938
 3610WAT      O11040   0.316   3.636   0.408
 3610WAT     H111041   0.281   3.721   0.382
 3610WAT     H211042   0.302   3.633   0.503
 3611WAT      O11043   1.030   1.963   1.945
 3611WAT     H111044   0.991   1.989   2.029
 3611WAT     H211045   1.124   1.963   1.962
 3612WAT      O11046   1.300   3.641   1.862
 3612WAT     H111047   1.376   3.583   1.873
 3612WAT     H211048   1.303   3.698   1.939
 3613WAT      O11049   0.878   0.873   4.629
 3613WAT     H111050   0.864   0.779   4.614
 3613WAT     H211051   0.837   0.915   4.554
 3614WAT      O11052   0.731   1.056   4.799
 3614WAT     H111053   0.669   1.010   4.856
 3614WAT     H211054   0.788   0.988   4.765
 3615WAT      O11055   1.096   1.533   4.671
 3615WAT     H111056   1.063   1.443   4.673
 3615WAT     H211057   1.188   1.526   4.696
 3616WAT      O11058   0.732   1.741   4.671
 3616WAT     H111059   0.670   1.755   4.599
 3616WAT     H211060   0.798   1.809   4.659
 3617WAT      O11061   0.652   1.315   4.821
 3617WAT     H111062   0.680   1.224   4.809
 3617WAT     H211063   0.717   1.353   4.879
 3618WAT      O11064   0.754   0.602   4.805
 3618WAT     H111065   0.818   0.542   4.843
 3618WAT     H211066   0.780   0.609   4.713
 3619WAT      O11067   1.128   0.376   4.516
 3619WAT     H111068   1.209   0.326   4.528
 3619WAT     H211069   1.127   0.435   4.591
 3620WAT      O11070   0.376   0.790   4.792
 3620WAT     H111071   0.435   0.838   4.850
 3620WAT     H211072   0.408   0.700   4.794
 3621WAT      O11073   1.532   0.559   5.172
 3621WAT     H111074   1.474   0.634   5.163
 3621WAT     H211075   1.590   0.582   5.244
 3622WAT      O11076   0.850   1.260   4.402
 3622WAT     H111077   0.818   1.264   4.312
 3622WAT     H211078   0.816   1.340   4.443
 3623WAT      O11079   0.339   1.161   5.013
 3623WAT     H111080   0.245   1.169   5.027
 3623WAT     H211081   0.356   1.210   4.932
 3624WAT      O11082   1.173   0.514   4.768
 3624WAT     H111083   1.088   0.520   4.812
 3624WAT     H211084   1.201   0.605   4.759
 3625WAT      O11085   1.261   1.510   5.011
 3625WAT     H111086   1.235   1.588   5.060
 3625WAT     H211087   1.299   1.544   4.930
 3626WAT      O11088   1.438   0.472   4.873
 3626WAT     H111089   1.344   0.490   4.864
 3626WAT     H211090   1.462   0.516   4.955
 3627WAT      O11091   1.037   1.707   4.878
 3627WAT     H111092   1.057   1.649   4.804
 3627WAT     H211093   0.958   1.753   4.852
 3628WAT      O11094   1.180   1.339   4.390
 3628WAT     H111095   1.183   1.246   4.414
 3628WAT     H211096   1.106   1.373   4.440
 3629WAT      O11097   1.045   1.169   5.030
 3629WAT     H111098   1.106   1.148   4.959
 3629WAT     H211099   1.097   1.221   5.092
 3630WAT      O11100   0.771   0.994   4.405
 3630WAT     H111101   0.676   1.002   4.399
 3630WAT     H211102   0.803   1.084   4.402
 3631WAT      O11103   0.764   0.536   4.045
 3631WAT     H111104   0.685   0.577   4.081
 3631WAT     H211105   0.833   0.600   4.058
 3632WAT      O11106   1.384   1.018   5.051
 3632WAT     H111107   1.326   1.046   4.981
 3632WAT     H211108   1.466   1.064   5.034
 3633WAT      O11109   1.158   1.066   4.424
 3633WAT     H111110   1.077   1.043   4.378
 3633WAT     H211111   1.146   1.030   4.512
 3634WAT      O11112   1.092   0.713   5.177
 3634WAT     H111113   1.050   0.799   5.181
 3634WAT     H211114   1.022   0.653   5.153
 3635WAT      O11115   0.332   0.992   4.611
 3635WAT     H111116   0.238   0.980   4.596
 3635WAT     H211117   0.355   0.923   4.674
 3636WAT      O11118   0.387   1.272   4.759
 3636WAT     H111119   0.398   1.192   4.707
 3636WAT     H211120   0.476   1.301   4.777
 3637WAT      O11121   0.218   0.676   5.013
 3637WAT     H111122   0.247   0.721   4.933
 3637WAT     H211123   0.249   0.732   5.084
 3638WAT      O11124   1.166   1.689   5.201
 3638WAT     H111125   1.120   1.768   5.172
 3638WAT     H211126   1.099   1.635   5.242
 3639WAT      O11127   0.283   1.338   5.529
 3639WAT     H111128   0.248   1.256   5.562
 3639WAT     H211129   0.245   1.347   5.442
 3640WAT      O11130   1.013   1.041   4.086
 3640WAT     H111131   1.069   0.970   4.054
 3640WAT     H211132   1.073   1.115   4.098
 3641WAT      O11133   0.764   1.501   4.504
 3641WAT     H111134   0.824   1.565   4.467
 3641WAT     H211135   0.743   1.534   4.591
 3642WAT      O11136   0.368   1.664   5.587
 3642WAT     H111137   0.356   1.687   5.495
 3642WAT     H211138   0.347   1.571   5.592
 3643WAT      O11139   1.456   1.368   5.377
 3643WAT     H111140   1.530   1.372   5.316
 3643WAT     H211141   1.420   1.280   5.364
 3644WAT      O11142   0.815   1.742   5.288
 3644WAT     H111143   0.860   1.733   5.372
 3644WAT     H211144   0.736   1.792   5.308
 3645WAT      O11145   0.964   1.780   4.215
 3645WAT     H111146   0.979   1.754   4.306
 3645WAT     H211147   1.000   1.708   4.164
 3646WAT      O11148   0.309   1.711   4.409
 3646WAT     H111149   0.306   1.617   4.426
 3646WAT     H211150   0.227   1.744   4.445
 3647WAT      O11151   1.061   1.566   4.070
 3647WAT     H111152   0.988   1.520   4.029
 3647WAT     H211153   1.139   1.536   4.022
 3648WAT      O11154   0.979   1.700   4.481
 3648WAT     H111155   1.028   1.644   4.541
 3648WAT     H211156   0.969   1.782   4.527
 3649WAT      O11157   1.457   0.641   5.511
 3649WAT     H111158   1.430   0.730   5.490
 3649WAT     H211159   1.375   0.590   5.508
 3650WAT      O11160   0.332   0.251   4.685
 3650WAT     H111161   0.237   0.254   4.678
 3650WAT     H211162   0.350   0.255   4.779
 3651WAT      O11163   0.644   0.508   5.251
 3651WAT     H111164   0.601   0.534   5.333
 3651WAT     H211165   0.598   0.428   5.225
 3652WAT      O11166   1.188   0.574   5.401
 3652WAT     H111167   1.109   0.555   5.452
 3652WAT     H211168   1.158   0.631   5.330
 3653WAT      O11169   0.885   0.722   5.540
 3653WAT     H111170   0.903   0.628   5.538
 3653WAT     H211171   0.970   0.762   5.559
 3654WAT      O11172   0.466   0.309   4.933
 3654WAT     H111173   0.455   0.399   4.904
 3654WAT     H211174   0.546   0.279   4.889
 3655WAT      O11175   0.872   0.742   4.322
 3655WAT     H111176   0.838   0.832   4.323
 3655WAT     H211177   0.916   0.733   4.237
 3656WAT      O11178   0.459   0.827   5.505
 3656WAT     H111179   0.472   0.732   5.500
 3656WAT     H211180   0.548   0.863   5.508
 3657WAT      O11181   0.839   0.608   4.551
 3657WAT     H111182   0.849   0.651   4.466
 3657WAT     H211183   0.831   0.515   4.530
 3658WAT      O11184   0.829   0.798   4.983
 3658WAT     H111185   0.754   0.801   5.042
 3658WAT     H211186   0.803   0.737   4.914
 3659WAT      O11187   0.494   0.543   4.787
 3659WAT     H111188   0.496   0.501   4.700
 3659WAT     H211189   0.584   0.570   4.803
 3660WAT      O11190   0.533   0.637   4.147
 3660WAT     H111191   0.507   0.640   4.239
 3660WAT     H211192   0.512   0.725   4.113
 3661WAT      O11193   0.945   0.444   4.908
 3661WAT     H111194   0.932   0.464   5.001
 3661WAT     H211195   0.990   0.360   4.908
 3662WAT      O11196   0.469   0.869   4.013
 3662WAT     H111197   0.395   0.821   3.978
 3662WAT     H211198   0.529   0.880   3.939
 3663WAT      O11199   0.526   0.944   4.962
 3663WAT     H111200   0.547   0.889   5.038
 3663WAT     H211201   0.458   1.004   4.993
 3664WAT      O11202   0.342   0.842   5.199
 3664WAT     H111203   0.341   0.903   5.272
 3664WAT     H211204   0.432   0.808   5.197
 3665WAT      O11205   1.247   1.121   4.840
 3665WAT     H111206   1.317   1.165   4.792
 3665WAT     H211207   1.205   1.065   4.775
 3666WAT      O11208   0.775   0.317   4.212
 3666WAT     H111209   0.706   0.261   4.175
 3666WAT     H211210   0.772   0.396   4.158
 3667WAT      O11211   0.783   1.129   5.467
 3667WAT     H111212   0.770   1.042   5.431
 3667WAT     H211213   0.696   1.157   5.497
 3668WAT      O11214   1.000   0.683   4.084
 3668WAT     H111215   1.064   0.745   4.050
 3668WAT     H211216   1.040   0.597   4.069
 3669WAT      O11217   0.707   1.304   4.168
 3669WAT     H111218   0.706   1.394   4.136
 3669WAT     H211219   0.615   1.286   4.190
 3670WAT      O11220   0.252   1.014   5.537
 3670WAT     H111221   0.178   0.954   5.537
 3670WAT     H211222   0.329   0.958   5.531
 3671WAT      O11223   0.787   1.388   5.377
 3671WAT     H111224   0.794   1.297   5.405
 3671WAT     H211225   0.696   1.413   5.396
 3672WAT      O11226   1.191   0.854   3.980
 3672WAT     H111227   1.175   0.864   3.886
 3672WAT     H211228   1.286   0.843   3.987
 3673WAT      O11229   1.343   1.128   5.296
 3673WAT     H111230   1.273   1.191   5.278
 3673WAT     H211231   1.362   1.087   5.212
 3674WAT      O11232   1.294   1.589   4.328
 3674WAT     H111233   1.268   1.500   4.354
 3674WAT     H211234   1.243   1.606   4.249
 3675WAT      O11235   0.980   1.282   4.653
 3675WAT     H111236   0.935   1.257   4.572
 3675WAT     H211237   0.932   1.236   4.722
 3676WAT      O11238   0.537   1.338   4.446
 3676WAT     H111239   0.611   1.396   4.466
 3676WAT     H211240   0.460   1.396   4.450
 3677WAT      O11241   0.504   1.071   4.408
 3677WAT     H111242   0.516   1.164   4.428
 3677WAT     H211243   0.446   1.040   4.478
 3678WAT      O11244   0.705   1.584   5.088
 3678WAT     H111245   0.751   1.624   5.161
 3678WAT     H211246   0.759   1.509   5.064
 3679WAT      O11247   0.874   1.387   4.983
 3679WAT     H111248   0.914   1.303   5.006
 3679WAT     H211249   0.949   1.442   4.959
 3680WAT      O11250   1.279   1.426   3.949
 3680WAT     H111251   1.252   1.357   4.010
 3680WAT     H211252   1.247   1.396   3.863
 3681WAT      O11253   1.032   1.497   5.360
 3681WAT     H111254   1.019   1.574   5.416
 3681WAT     H211255   0.946   1.455   5.357
 3682WAT      O11256   1.208   1.233   4.133
 3682WAT     H111257   1.185   1.279   4.214
 3682WAT     H211258   1.288   1.186   4.155
 3683WAT      O11259   0.414   1.496   4.103
 3683WAT     H111260   0.382   1.574   4.058
 3683WAT     H211261   0.398   1.425   4.041
 3684WAT      O11262   0.909   0.499   5.169
 3684WAT     H111263   0.953   0.435   5.225
 3684WAT     H211264   0.821   0.505   5.204
 3685WAT      O11265   1.236   0.446   4.266
 3685WAT     H111266   1.183   0.438   4.186
 3685WAT     H211267   1.177   0.418   4.336
 3686WAT      O11268   0.671   1.560   4.054
 3686WAT     H111269   0.672   1.543   3.960
 3686WAT     H211270   0.580   1.543   4.080
 3687WAT      O11271   0.441   0.620   4.401
 3687WAT     H111272   0.422   0.685   4.469
 3687WAT     H211273   0.469   0.542   4.449
 3688WAT      O11274   0.610   0.772   5.166
 3688WAT     H111275   0.660   0.812   5.236
 3688WAT     H211276   0.621   0.678   5.179
 3689WAT      O11277   0.836   0.346   4.477
 3689WAT     H111278   0.817   0.329   4.385
 3689WAT     H211279   0.930   0.332   4.486
 3690WAT      O11280   0.565   1.799   4.461
 3690WAT     H111281   0.611   1.796   4.377
 3690WAT     H211282   0.477   1.769   4.440
 3691WAT      O11283   0.332   0.452   4.100
 3691WAT     H111284   0.401   0.519   4.106
 3691WAT     H211285   0.276   0.470   4.175
 3692WAT      O11286   1.338   0.382   5.282
 3692WAT     H111287   1.293   0.451   5.331
 3692WAT     H211288   1.408   0.428   5.235
 3693WAT      O11289   1.141   0.942   4.664
 3693WAT     H111290   1.051   0.911   4.668
 3693WAT     H211291   1.194   0.866   4.688
 3694WAT      O11292   1.363   1.635   4.771
 3694WAT     H111293   1.380   1.712   4.825
 3694WAT     H211294   1.450   1.603   4.746
 3695WAT      O11295   0.383   1.723   3.951
 3695WAT     H111296   0.454   1.782   3.929
 3695WAT     H211297   0.358   1.682   3.869
 3696WAT      O11298   0.994   1.725   5.503
 3696WAT     H111299   1.062   1.790   5.485
 3696WAT     H211300   0.987   1.725   5.598
 3697WAT      O11301   0.461   1.278   3.920
 3697WAT     H111302   0.460   1.219   3.995
 3697WAT     H211303   0.465   1.221   3.844
 3698WAT      O11304   0.531   1.219   5.492
 3698WAT     H111305   0.454   1.265   5.525
 3698WAT     H211306   0.503   1.180   5.410
 3699WAT      O11307   0.784   1.128   3.964
 3699WAT     H111308   0.743   1.180   4.033
 3699WAT     H211309   0.860   1.087   4.005
 3700WAT      O11310   1.196   1.330   5.514
 3700WAT     H111311   1.286   1.357   5.496
 3700WAT     H211312   1.142   1.395   5.469
 3701WAT      O11313   0.463   1.112   4.137
 3701WAT     H111314   0.471   1.094   4.231
 3701WAT     H211315   0.461   1.025   4.097
 3702WAT      O11316   0.660   0.918   3.814
 3702WAT     H111317   0.736   0.868   3.786
 3702WAT     H211318   0.697   0.995   3.858
 3703WAT      O11319   1.056   1.100   5.458
 3703WAT     H111320   1.107   1.176   5.487
 3703WAT     H211321   0.965   1.123   5.478
 3704WAT      O11322   1.126   0.850   5.547
 3704WAT     H111323   1.216   0.845   5.513
 3704WAT     H211324   1.098   0.940   5.526
 3705WAT      O11325   0.506   0.274   5.204
 3705WAT     H111326   0.486   0.289   5.111
 3705WAT     H211327   0.452   0.198   5.228
 3706WAT      O11328   0.490   1.126   5.239
 3706WAT     H111329   0.576   1.134   5.199
 3706WAT     H211330   0.429   1.144   5.167
 3707WAT      O11331   0.771   0.877   5.355
 3707WAT     H111332   0.806   0.820   5.424
 3707WAT     H211333   0.847   0.901   5.303
 3708WAT      O11334   0.994   0.967   5.223
 3708WAT     H111335   0.997   1.027   5.149
 3708WAT     H211336   1.028   1.018   5.296
 3709WAT      O11337   0.267   0.718   3.918
 3709WAT     H111338   0.233   0.628   3.913
 3709WAT     H211339   0.228   0.763   3.843
 3710WAT      O11340   0.345   1.752   5.329
 3710WAT     H111341   0.267   1.789   5.289
 3710WAT     H211342   0.376   1.688   5.266
 3711WAT      O11343   0.504   0.548   5.487
 3711WAT     H111344   0.564   0.483   5.523
 3711WAT     H211345   0.417   0.509   5.497
 3712WAT      O11346   0.932   0.451   5.491
 3712WAT     H111347   0.845   0.415   5.508
 3712WAT     H211348   0.976   0.383   5.439
 3713WAT      O11349   0.590   1.888   5.343
 3713WAT     H111350   0.579   1.959   5.406
 3713WAT     H211351   0.507   1.840   5.347
 3714WAT      O11352   0.475   0.268   3.963
 3714WAT     H111353   0.419   0.191   3.950
 3714WAT     H211354   0.420   0.329   4.012
 3715WAT      O11355   0.688   1.789   4.213
 3715WAT     H111356   0.783   1.801   4.216
 3715WAT     H211357   0.675   1.712   4.157
 3716WAT      O11358   0.281   1.449   4.486
 3716WAT     H111359   0.274   1.408   4.572
 3716WAT     H211360   0.233   1.390   4.427
 3717WAT      O11361   1.412   1.638   5.332
 3717WAT     H111362   1.327   1.659   5.291
 3717WAT     H211363   1.410   1.542   5.343
 3718WAT      O11364   1.454   1.119   4.192
 3718WAT     H111365   1.497   1.184   4.246
 3718WAT     H211366   1.441   1.044   4.250
 3719WAT      O11367   1.568   1.165   4.717
 3719WAT     H111368   1.587   1.084   4.670
 3719WAT     H211369   1.632   1.228   4.683
 3720WAT      O11370   1.183   1.329   5.197
 3720WAT     H111371   1.131   1.387   5.252
 3720WAT     H211372   1.222   1.387   5.131
 3721WAT      O11373   1.484   1.067   3.919
 3721WAT     H111374   1.414   1.110   3.870
 3721WAT     H211375   1.471   1.095   4.010
 3722WAT      O11376   1.086   0.424   4.035
 3722WAT     H111377   1.128   0.402   3.952
 3722WAT     H211378   1.008   0.368   4.038
 3723WAT      O11379   1.401   0.934   4.389
 3723WAT     H111380   1.378   0.841   4.389
 3723WAT     H211381   1.319   0.979   4.408
 3724WAT      O11382   1.376   0.881   5.410
 3724WAT     H111383   1.373   0.836   5.325
 3724WAT     H211384   1.360   0.973   5.388
 3725WAT      O11385   1.328   0.747   4.733
 3725WAT     H111386   1.374   0.691   4.669
 3725WAT     H211387   1.399   0.785   4.786
 3726WAT      O11388   1.359   0.766   5.155
 3726WAT     H111389   1.265   0.747   5.152
 3726WAT     H211390   1.368   0.849   5.108
 3727WAT      O11391   1.350   0.666   4.388
 3727WAT     H111392   1.390   0.621   4.463
 3727WAT     H211393   1.299   0.598   4.345
 3728WAT      O11394   1.471   0.544   4.602
 3728WAT     H111395   1.466   0.514   4.693
 3728WAT     H211396   1.552   0.506   4.569
 3729WAT      O11397   1.444   0.354   3.898
 3729WAT     H111398   1.506   0.424   3.877
 3729WAT     H211399   1.460   0.335   3.990
 3730WAT      O11400   1.492   0.378   4.172
 3730WAT     H111401   1.404   0.383   4.209
 3730WAT     H211402   1.525   0.468   4.175
 3731WAT      O11403   1.378   1.776   4.517
 3731WAT     H111404   1.352   1.719   4.444
 3731WAT     H211405   1.359   1.725   4.595
 3732WAT      O11406   0.432   1.586   5.140
 3732WAT     H111407   0.401   1.613   5.053
 3732WAT     H211408   0.526   1.572   5.128
 3733WAT      O11409   0.672   0.322   5.519
 3733WAT     H111410   0.665   0.254   5.586
 3733WAT     H211411   0.647   0.277   5.438
 3734WAT      O11412   1.539   1.822   5.173
 3734WAT     H111413   1.464   1.881   5.180
 3734WAT     H211414   1.515   1.747   5.227
 3735WAT      O11415   1.066   0.298   5.287
 3735WAT     H111416   1.062   0.219   5.233
 3735WAT     H211417   1.158   0.322   5.288
 3736WAT      O11418   1.236   1.883   4.960
 3736WAT     H111419   1.205   1.953   4.902
 3736WAT     H211420   1.172   1.812   4.948
 3737WAT      O11421   0.393   1.692   4.892
 3737WAT     H111422   0.398   1.656   4.803
 3737WAT     H211423   0.466   1.754   4.897
 3738WAT      O11424   0.654   1.799   4.924
 3738WAT     H111425   0.680   1.771   4.836
 3738WAT     H211426   0.670   1.723   4.979
 3739WAT      O11427   1.138   0.251   4.870
 3739WAT     H111428   1.199   0.181   4.846
 3739WAT     H211429   1.172   0.329   4.826
 3740WAT      O11430   0.521   0.403   4.552
 3740WAT     H111431   0.459   0.336   4.581
 3740WAT     H211432   0.599   0.355   4.528
 3741WAT      O11433   0.302   1.885   4.191
 3741WAT     H111434   0.310   1.849   4.103
 3741WAT     H211435   0.311   1.809   4.249
 3742WAT      O11436   0.868   0.874   2.753
 3742WAT     H111437   0.857   0.780   2.740
 3742WAT     H211438   0.831   0.914   2.674
 3743WAT      O11439   0.737   1.058   2.922
 3743WAT     H111440   0.679   1.009   2.981
 3743WAT     H211441   0.787   0.990   2.877
 3744WAT      O11442   1.117   1.509   2.759
 3744WAT     H111443   1.070   1.427   2.781
 3744WAT     H211444   1.195   1.507   2.815
 3745WAT      O11445   0.727   1.735   2.789
 3745WAT     H111446   0.669   1.758   2.716
 3745WAT     H211447   0.799   1.798   2.782
 3746WAT      O11448   0.653   1.314   2.959
 3746WAT     H111449   0.686   1.225   2.944
 3746WAT     H211450   0.722   1.356   3.010
 3747WAT      O11451   0.751   0.602   2.932
 3747WAT     H111452   0.814   0.541   2.970
 3747WAT     H211453   0.777   0.610   2.841
 3748WAT      O11454   1.137   0.379   2.642
 3748WAT     H111455   1.228   0.347   2.647
 3748WAT     H211456   1.128   0.437   2.718
 3749WAT      O11457   0.383   0.792   2.925
 3749WAT     H111458   0.448   0.835   2.981
 3749WAT     H211459   0.411   0.700   2.922
 3750WAT      O11460   1.544   0.564   3.321
 3750WAT     H111461   1.481   0.633   3.296
 3750WAT     H211462   1.597   0.604   3.390
 3751WAT      O11463   0.851   1.252   2.528
 3751WAT     H111464   0.821   1.258   2.437
 3751WAT     H211465   0.823   1.334   2.568
 3752WAT      O11466   0.345   1.160   3.147
 3752WAT     H111467   0.250   1.147   3.147
 3752WAT     H211468   0.362   1.211   3.068
 3753WAT      O11469   1.169   0.516   2.894
 3753WAT     H111470   1.085   0.522   2.938
 3753WAT     H211471   1.196   0.607   2.881
 3754WAT      O11472   1.216   1.492   3.119
 3754WAT     H111473   1.181   1.570   3.161
 3754WAT     H211474   1.270   1.525   3.047
 3755WAT      O11475   1.439   0.487   2.983
 3755WAT     H111476   1.344   0.495   2.978
 3755WAT     H211477   1.467   0.561   3.036
 3756WAT      O11478   1.016   1.689   2.961
 3756WAT     H111479   1.050   1.637   2.888
 3756WAT     H211480   0.991   1.773   2.921
 3757WAT      O11481   1.212   1.356   2.517
 3757WAT     H111482   1.201   1.265   2.545
 3757WAT     H211483   1.168   1.407   2.585
 3758WAT      O11484   1.052   1.185   3.165
 3758WAT     H111485   1.111   1.166   3.092
 3758WAT     H211486   1.106   1.234   3.227
 3759WAT      O11487   0.765   0.988   2.526
 3759WAT     H111488   0.670   1.000   2.518
 3759WAT     H211489   0.800   1.077   2.523
 3760WAT      O11490   0.767   0.535   2.167
 3760WAT     H111491   0.689   0.576   2.204
 3760WAT     H211492   0.836   0.600   2.180
 3761WAT      O11493   1.376   1.008   3.174
 3761WAT     H111494   1.317   1.040   3.105
 3761WAT     H211495   1.458   1.055   3.159
 3762WAT      O11496   1.164   1.085   2.555
 3762WAT     H111497   1.081   1.073   2.508
 3762WAT     H211498   1.148   1.045   2.641
 3763WAT      O11499   1.093   0.719   3.302
 3763WAT     H111500   1.052   0.806   3.299
 3763WAT     H211501   1.024   0.659   3.272
 3764WAT      O11502   0.338   0.992   2.741
 3764WAT     H111503   0.245   0.976   2.724
 3764WAT     H211504   0.361   0.924   2.805
 3765WAT      O11505   0.391   1.272   2.893
 3765WAT     H111506   0.401   1.192   2.840
 3765WAT     H211507   0.480   1.299   2.913
 3766WAT      O11508   0.197   0.722   3.139
 3766WAT     H111509   0.248   0.747   3.062
 3766WAT     H211510   0.245   0.759   3.213
 3767WAT      O11511   1.131   1.703   3.270
 3767WAT     H111512   1.059   1.764   3.255
 3767WAT     H211513   1.129   1.685   3.364
 3768WAT      O11514   0.256   1.364   3.607
 3768WAT     H111515   0.174   1.332   3.646
 3768WAT     H211516   0.242   1.357   3.513
 3769WAT      O11517   0.998   1.052   2.220
 3769WAT     H111518   1.056   0.982   2.190
 3769WAT     H211519   1.057   1.126   2.234
 3770WAT      O11520   0.768   1.500   2.624
 3770WAT     H111521   0.834   1.558   2.586
 3770WAT     H211522   0.746   1.540   2.708
 3771WAT      O11523   0.368   1.597   3.706
 3771WAT     H111524   0.364   1.658   3.632
 3771WAT     H211525   0.326   1.517   3.673
 3772WAT      O11526   0.825   1.731   3.426
 3772WAT     H111527   0.887   1.733   3.499
 3772WAT     H211528   0.748   1.778   3.459
 3773WAT      O11529   0.998   1.809   2.348
 3773WAT     H111530   1.001   1.769   2.435
 3773WAT     H211531   1.005   1.736   2.287
 3774WAT      O11532   0.310   1.713   2.531
 3774WAT     H111533   0.308   1.618   2.546
 3774WAT     H211534   0.232   1.746   2.577
 3775WAT      O11535   0.974   1.599   2.178
 3775WAT     H111536   0.882   1.572   2.169
 3775WAT     H211537   1.023   1.534   2.127
 3776WAT      O11538   0.987   1.698   2.599
 3776WAT     H111539   1.042   1.636   2.646
 3776WAT     H211540   0.986   1.776   2.654
 3777WAT      O11541   1.426   0.637   3.657
 3777WAT     H111542   1.406   0.724   3.623
 3777WAT     H211543   1.347   0.585   3.637
 3778WAT      O11544   0.324   0.243   2.788
 3778WAT     H111545   0.229   0.245   2.794
 3778WAT     H211546   0.354   0.246   2.879
 3779WAT      O11547   0.672   0.515   3.399
 3779WAT     H111548   0.626   0.533   3.481
 3779WAT     H211549   0.625   0.440   3.362
 3780WAT      O11550   1.180   0.579   3.523
 3780WAT     H111551   1.101   0.566   3.575
 3780WAT     H211552   1.151   0.632   3.448
 3781WAT      O11553   0.890   0.782   3.716
 3781WAT     H111554   0.905   0.687   3.713
 3781WAT     H211555   0.977   0.820   3.728
 3782WAT      O11556   0.443   0.294   3.033
 3782WAT     H111557   0.442   0.387   3.011
 3782WAT     H211558   0.536   0.271   3.037
 3783WAT      O11559   0.871   0.739   2.447
 3783WAT     H111560   0.837   0.829   2.448
 3783WAT     H211561   0.916   0.732   2.363
 3784WAT      O11562   0.455   0.833   3.623
 3784WAT     H111563   0.481   0.741   3.622
 3784WAT     H211564   0.521   0.876   3.678
 3785WAT      O11565   0.836   0.608   2.677
 3785WAT     H111566   0.847   0.651   2.592
 3785WAT     H211567   0.833   0.515   2.657
 3786WAT      O11568   0.656   0.411   3.824
 3786WAT     H111569   0.593   0.358   3.873
 3786WAT     H211570   0.704   0.460   3.891
 3787WAT      O11571   0.856   0.784   3.114
 3787WAT     H111572   0.781   0.808   3.170
 3787WAT     H211573   0.818   0.729   3.045
 3788WAT      O11574   0.491   0.539   2.911
 3788WAT     H111575   0.494   0.498   2.825
 3788WAT     H211576   0.581   0.566   2.929
 3789WAT      O11577   0.536   0.636   2.268
 3789WAT     H111578   0.510   0.638   2.360
 3789WAT     H211579   0.515   0.723   2.235
 3790WAT      O11580   0.941   0.443   3.035
 3790WAT     H111581   0.934   0.463   3.128
 3790WAT     H211582   0.986   0.359   3.032
 3791WAT      O11583   0.469   0.867   2.136
 3791WAT     H111584   0.394   0.819   2.100
 3791WAT     H211585   0.528   0.878   2.062
 3792WAT      O11586   0.544   0.936   3.094
 3792WAT     H111587   0.568   0.881   3.169
 3792WAT     H211588   0.478   0.996   3.129
 3793WAT      O11589   0.360   0.833   3.339
 3793WAT     H111590   0.367   0.866   3.429
 3793WAT     H211591   0.447   0.797   3.320
 3794WAT      O11592   1.242   1.123   2.966
 3794WAT     H111593   1.317   1.161   2.919
 3794WAT     H211594   1.197   1.071   2.900
 3795WAT      O11595   0.779   0.318   2.337
 3795WAT     H111596   0.709   0.263   2.302
 3795WAT     H211597   0.776   0.397   2.283
 3796WAT      O11598   0.747   1.140   3.596
 3796WAT     H111599   0.748   1.054   3.554
 3796WAT     H211600   0.660   1.146   3.634
 3797WAT      O11601   1.000   0.686   2.208
 3797WAT     H111602   1.064   0.752   2.179
 3797WAT     H211603   1.043   0.602   2.191
 3798WAT      O11604   0.704   1.305   2.297
 3798WAT     H111605   0.712   1.392   2.257
 3798WAT     H211606   0.617   1.305   2.337
 3799WAT      O11607   0.192   0.851   3.694
 3799WAT     H111608   0.144   0.888   3.620
 3799WAT     H211609   0.284   0.852   3.667
 3800WAT      O11610   0.795   1.409   3.605
 3800WAT     H111611   0.771   1.319   3.584
 3800WAT     H211612   0.718   1.444   3.651
 3801WAT      O11613   1.185   0.874   2.120
 3801WAT     H111614   1.177   0.879   2.024
 3801WAT     H211615   1.273   0.906   2.139
 3802WAT      O11616   1.326   1.106   3.425
 3802WAT     H111617   1.287   1.192   3.413
 3802WAT     H211618   1.345   1.075   3.336
 3803WAT      O11619   1.406   1.528   2.419
 3803WAT     H111620   1.340   1.467   2.453
 3803WAT     H211621   1.369   1.561   2.338
 3804WAT      O11622   0.979   1.272   2.782
 3804WAT     H111623   0.938   1.248   2.699
 3804WAT     H211624   0.932   1.221   2.848
 3805WAT      O11625   0.541   1.342   2.558
 3805WAT     H111626   0.615   1.396   2.583
 3805WAT     H211627   0.465   1.400   2.566
 3806WAT      O11628   0.500   1.073   2.530
 3806WAT     H111629   0.515   1.166   2.547
 3806WAT     H211630   0.446   1.043   2.603
 3807WAT      O11631   0.706   1.590   3.221
 3807WAT     H111632   0.754   1.626   3.295
 3807WAT     H211633   0.762   1.520   3.188
 3808WAT      O11634   0.880   1.403   3.108
 3808WAT     H111635   0.928   1.323   3.131
 3808WAT     H211636   0.948   1.464   3.080
 3809WAT      O11637   1.211   1.427   2.063
 3809WAT     H111638   1.187   1.359   2.126
 3809WAT     H211639   1.183   1.393   1.978
 3810WAT      O11640   1.045   1.482   3.519
 3810WAT     H111641   1.051   1.573   3.550
 3810WAT     H211642   0.953   1.459   3.532
 3811WAT      O11643   1.195   1.239   2.263
 3811WAT     H111644   1.195   1.287   2.346
 3811WAT     H211645   1.272   1.183   2.268
 3812WAT      O11646   0.601   1.479   3.794
 3812WAT     H111647   0.558   1.404   3.835
 3812WAT     H211648   0.528   1.531   3.760
 3813WAT      O11649   0.434   1.499   2.225
 3813WAT     H111650   0.395   1.575   2.182
 3813WAT     H211651   0.415   1.426   2.167
 3814WAT      O11652   0.925   0.492   3.298
 3814WAT     H111653   0.969   0.421   3.346
 3814WAT     H211654   0.839   0.498   3.340
 3815WAT      O11655   1.237   0.447   2.386
 3815WAT     H111656   1.184   0.440   2.307
 3815WAT     H211657   1.178   0.419   2.456
 3816WAT      O11658   0.690   1.562   2.167
 3816WAT     H111659   0.687   1.538   2.075
 3816WAT     H211660   0.600   1.548   2.198
 3817WAT      O11661   0.442   0.619   2.521
 3817WAT     H111662   0.427   0.686   2.589
 3817WAT     H211663   0.468   0.541   2.570
 3818WAT      O11664   0.626   0.770   3.299
 3818WAT     H111665   0.672   0.816   3.370
 3818WAT     H211666   0.642   0.677   3.317
 3819WAT      O11667   0.844   0.347   2.602
 3819WAT     H111668   0.824   0.331   2.510
 3819WAT     H211669   0.939   0.333   2.609
 3820WAT      O11670   0.566   1.807   2.579
 3820WAT     H111671   0.614   1.800   2.497
 3820WAT     H211672   0.478   1.774   2.559
 3821WAT      O11673   0.333   0.453   2.224
 3821WAT     H111674   0.402   0.519   2.228
 3821WAT     H211675   0.279   0.470   2.301
 3822WAT      O11676   1.347   0.389   3.423
 3822WAT     H111677   1.291   0.458   3.460
 3822WAT     H211678   1.416   0.437   3.377
 3823WAT      O11679   1.132   0.948   2.787
 3823WAT     H111680   1.041   0.916   2.790
 3823WAT     H211681   1.185   0.871   2.809
 3824WAT      O11682   1.360   1.623   2.906
 3824WAT     H111683   1.394   1.682   2.974
 3824WAT     H211684   1.437   1.594   2.858
 3825WAT      O11685   0.380   1.725   2.076
 3825WAT     H111686   0.451   1.784   2.051
 3825WAT     H211687   0.354   1.682   1.994
 3826WAT      O11688   0.918   1.348   3.848
 3826WAT     H111689   0.866   1.379   3.774
 3826WAT     H211690   0.870   1.273   3.883
 3827WAT      O11691   1.064   1.740   3.604
 3827WAT     H111692   1.160   1.741   3.607
 3827WAT     H211693   1.037   1.802   3.672
 3828WAT      O11694   1.305   1.646   2.200
 3828WAT     H111695   1.264   1.579   2.145
 3828WAT     H211696   1.296   1.727   2.150
 3829WAT      O11697   0.459   1.279   2.045
 3829WAT     H111698   0.454   1.220   2.120
 3829WAT     H211699   0.464   1.221   1.969
 3830WAT      O11700   0.475   1.193   3.647
 3830WAT     H111701   0.405   1.258   3.646
 3830WAT     H211702   0.479   1.161   3.556
 3831WAT      O11703   0.773   1.128   2.090
 3831WAT     H111704   0.729   1.178   2.158
 3831WAT     H211705   0.850   1.091   2.133
 3832WAT      O11706   1.156   1.331   3.722
 3832WAT     H111707   1.143   1.387   3.646
 3832WAT     H211708   1.074   1.339   3.772
 3833WAT      O11709   0.447   1.109   2.258
 3833WAT     H111710   0.462   1.094   2.352
 3833WAT     H211711   0.451   1.022   2.219
 3834WAT      O11712   0.659   0.916   1.938
 3834WAT     H111713   0.737   0.867   1.912
 3834WAT     H211714   0.694   0.993   1.984
 3835WAT      O11715   1.032   1.104   3.604
 3835WAT     H111716   1.082   1.180   3.634
 3835WAT     H211717   0.940   1.132   3.612
 3836WAT      O11718   1.149   0.886   3.713
 3836WAT     H111719   1.218   0.863   3.651
 3836WAT     H211720   1.110   0.965   3.677
 3837WAT      O11721   0.526   0.307   3.306
 3837WAT     H111722   0.464   0.289   3.236
 3837WAT     H211723   0.494   0.256   3.380
 3838WAT      O11724   0.491   1.145   3.379
 3838WAT     H111725   0.578   1.158   3.342
 3838WAT     H211726   0.432   1.151   3.303
 3839WAT      O11727   0.784   0.888   3.485
 3839WAT     H111728   0.818   0.845   3.563
 3839WAT     H211729   0.861   0.912   3.434
 3840WAT      O11730   1.004   0.979   3.352
 3840WAT     H111731   1.009   1.040   3.279
 3840WAT     H211732   1.038   1.029   3.427
 3841WAT      O11733   0.267   0.717   2.040
 3841WAT     H111734   0.232   0.628   2.036
 3841WAT     H211735   0.227   0.761   1.965
 3842WAT      O11736   0.351   1.761   3.485
 3842WAT     H111737   0.269   1.798   3.451
 3842WAT     H211738   0.382   1.703   3.416
 3843WAT      O11739   0.523   0.561   3.629
 3843WAT     H111740   0.572   0.525   3.704
 3843WAT     H211741   0.456   0.494   3.611
 3844WAT      O11742   0.964   0.515   3.689
 3844WAT     H111743   0.887   0.459   3.677
 3844WAT     H211744   1.028   0.459   3.734
 3845WAT      O11745   0.607   1.874   3.500
 3845WAT     H111746   0.604   1.952   3.555
 3845WAT     H211747   0.518   1.839   3.504
 3846WAT      O11748   0.473   0.269   2.083
 3846WAT     H111749   0.417   0.192   2.074
 3846WAT     H211750   0.419   0.331   2.133
 3847WAT      O11751   0.702   1.791   2.337
 3847WAT     H111752   0.796   1.808   2.344
 3847WAT     H211753   0.696   1.716   2.279
 3848WAT      O11754   0.283   1.449   2.603
 3848WAT     H111755   0.272   1.410   2.690
 3848WAT     H211756   0.239   1.389   2.543
 3849WAT      O11757   1.493   1.386   2.060
 3849WAT     H111758   1.398   1.398   2.066
 3849WAT     H211759   1.525   1.470   2.027
 3850WAT      O11760   1.418   1.074   2.272
 3850WAT     H111761   1.495   1.131   2.282
 3850WAT     H211762   1.417   1.021   2.351
 3851WAT      O11763   1.548   1.156   2.840
 3851WAT     H111764   1.573   1.077   2.792
 3851WAT     H211765   1.598   1.226   2.798
 3852WAT      O11766   1.197   1.334   3.342
 3852WAT     H111767   1.148   1.391   3.402
 3852WAT     H211768   1.222   1.391   3.270
 3853WAT      O11769   1.519   1.102   2.012
 3853WAT     H111770   1.525   1.197   2.002
 3853WAT     H211771   1.468   1.089   2.092
 3854WAT      O11772   1.088   0.427   2.157
 3854WAT     H111773   1.129   0.404   2.073
 3854WAT     H211774   1.009   0.373   2.160
 3855WAT      O11775   1.400   0.940   2.512
 3855WAT     H111776   1.371   0.849   2.513
 3855WAT     H211777   1.322   0.991   2.535
 3856WAT      O11778   1.353   0.860   3.527
 3856WAT     H111779   1.354   0.817   3.441
 3856WAT     H211780   1.350   0.953   3.507
 3857WAT      O11781   1.195   0.360   3.787
 3857WAT     H111782   1.282   0.359   3.826
 3857WAT     H211783   1.205   0.313   3.705
 3858WAT      O11784   1.318   0.748   2.845
 3858WAT     H111785   1.361   0.698   2.775
 3858WAT     H211786   1.391   0.783   2.896
 3859WAT      O11787   1.359   0.754   3.267
 3859WAT     H111788   1.265   0.737   3.267
 3859WAT     H211789   1.369   0.839   3.225
 3860WAT      O11790   1.346   0.672   2.504
 3860WAT     H111791   1.390   0.625   2.576
 3860WAT     H211792   1.296   0.605   2.459
 3861WAT      O11793   1.466   0.542   2.710
 3861WAT     H111794   1.461   0.518   2.803
 3861WAT     H211795   1.549   0.504   2.681
 3862WAT      O11796   1.446   0.364   2.020
 3862WAT     H111797   1.504   0.437   2.000
 3862WAT     H211798   1.463   0.346   2.113
 3863WAT      O11799   1.496   0.393   2.294
 3863WAT     H111800   1.408   0.396   2.331
 3863WAT     H211801   1.525   0.484   2.293
 3864WAT      O11802   1.283   1.814   2.715
 3864WAT     H111803   1.341   1.796   2.642
 3864WAT     H211804   1.301   1.745   2.778
 3865WAT      O11805   0.434   1.607   3.283
 3865WAT     H111806   0.401   1.625   3.195
 3865WAT     H211807   0.527   1.589   3.270
 3866WAT      O11808   0.567   0.257   3.605
 3866WAT     H111809   0.604   0.305   3.679
 3866WAT     H211810   0.612   0.172   3.608
 3867WAT      O11811   1.501   1.827   3.309
 3867WAT     H111812   1.423   1.837   3.255
 3867WAT     H211813   1.467   1.796   3.393
 3868WAT      O11814   1.089   0.285   3.387
 3868WAT     H111815   1.092   0.215   3.321
 3868WAT     H211816   1.180   0.312   3.398
 3869WAT      O11817   1.277   1.890   3.133
 3869WAT     H111818   1.228   1.931   3.062
 3869WAT     H211819   1.222   1.818   3.163
 3870WAT      O11820   0.393   1.680   3.022
 3870WAT     H111821   0.408   1.622   2.948
 3870WAT     H211822   0.468   1.739   3.023
 3871WAT      O11823   0.648   1.795   3.043
 3871WAT     H111824   0.681   1.766   2.958
 3871WAT     H211825   0.671   1.724   3.103
 3872WAT      O11826   1.137   0.251   2.994
 3872WAT     H111827   1.182   0.180   2.948
 3872WAT     H211828   1.168   0.331   2.952
 3873WAT      O11829   0.516   0.403   2.674
 3873WAT     H111830   0.451   0.336   2.698
 3873WAT     H211831   0.595   0.352   2.652
 3874WAT      O11832   0.584   1.876   3.837
 3874WAT     H111833   0.669   1.836   3.859
 3874WAT     H211834   0.607   1.951   3.781
 3875WAT      O11835   1.441   1.791   2.491
 3875WAT     H111836   1.430   1.701   2.460
 3875WAT     H211837   1.389   1.844   2.430
 3876WAT      O11838   0.301   1.884   2.313
 3876WAT     H111839   0.310   1.845   2.226
 3876WAT     H211840   0.307   1.809   2.373
 3877WAT      O11841   0.875   0.875   0.880
 3877WAT     H111842   0.862   0.781   0.865
 3877WAT     H211843   0.836   0.917   0.804
 3878WAT      O11844   0.737   1.057   1.046
 3878WAT     H111845   0.678   1.010   1.105
 3878WAT     H211846   0.789   0.988   1.005
 3879WAT      O11847   1.098   1.518   0.914
 3879WAT     H111848   1.059   1.431   0.916
 3879WAT     H211849   1.187   1.506   0.948
 3880WAT      O11850   0.731   1.740   0.926
 3880WAT     H111851   0.666   1.755   0.857
 3880WAT     H211852   0.797   1.807   0.911
 3881WAT      O11853   0.647   1.311   1.071
 3881WAT     H111854   0.680   1.223   1.057
 3881WAT     H211855   0.712   1.353   1.127
 3882WAT      O11856   0.753   0.603   1.050
 3882WAT     H111857   0.817   0.542   1.087
 3882WAT     H211858   0.778   0.611   0.958
 3883WAT      O11859   1.144   0.376   0.769
 3883WAT     H111860   1.232   0.337   0.769
 3883WAT     H211861   1.142   0.432   0.846
 3884WAT      O11862   0.378   0.790   1.054
 3884WAT     H111863   0.444   0.834   1.108
 3884WAT     H211864   0.408   0.700   1.047
 3885WAT      O11865   1.545   0.568   1.448
 3885WAT     H111866   1.484   0.638   1.425
 3885WAT     H211867   1.597   0.604   1.519
 3886WAT      O11868   0.844   1.262   0.653
 3886WAT     H111869   0.818   1.272   0.561
 3886WAT     H211870   0.812   1.342   0.695
 3887WAT      O11871   0.344   1.158   1.271
 3887WAT     H111872   0.249   1.143   1.273
 3887WAT     H211873   0.358   1.209   1.192
 3888WAT      O11874   1.172   0.515   1.015
 3888WAT     H111875   1.087   0.520   1.060
 3888WAT     H211876   1.197   0.606   1.002
 3889WAT      O11877   1.243   1.503   1.270
 3889WAT     H111878   1.225   1.582   1.321
 3889WAT     H211879   1.285   1.536   1.190
 3890WAT      O11880   1.441   0.489   1.105
 3890WAT     H111881   1.346   0.497   1.098
 3890WAT     H211882   1.467   0.564   1.157
 3891WAT      O11883   1.030   1.704   1.110
 3891WAT     H111884   1.055   1.641   1.042
 3891WAT     H211885   0.962   1.758   1.070
 3892WAT      O11886   1.212   1.347   0.620
 3892WAT     H111887   1.208   1.256   0.648
 3892WAT     H211888   1.145   1.391   0.672
 3893WAT      O11889   1.047   1.177   1.278
 3893WAT     H111890   1.110   1.159   1.209
 3893WAT     H211891   1.095   1.230   1.342
 3894WAT      O11892   0.769   0.985   0.655
 3894WAT     H111893   0.675   1.003   0.658
 3894WAT     H211894   0.809   1.070   0.639
 3895WAT      O11895   0.784   0.538   0.373
 3895WAT     H111896   0.695   0.561   0.347
 3895WAT     H211897   0.809   0.607   0.435
 3896WAT      O11898   1.383   1.018   1.301
 3896WAT     H111899   1.328   1.046   1.228
 3896WAT     H211900   1.465   1.066   1.289
 3897WAT      O11901   1.170   1.078   0.669
 3897WAT     H111902   1.095   1.059   0.614
 3897WAT     H211903   1.148   1.041   0.754
 3898WAT      O11904   1.096   0.720   1.423
 3898WAT     H111905   1.053   0.806   1.424
 3898WAT     H211906   1.027   0.660   1.396
 3899WAT      O11907   0.337   1.005   0.886
 3899WAT     H111908   0.248   0.989   0.855
 3899WAT     H211909   0.356   0.931   0.944
 3900WAT      O11910   0.381   1.264   1.013
 3900WAT     H111911   0.384   1.180   0.968
 3900WAT     H211912   0.473   1.288   1.027
 3901WAT      O11913   0.195   0.723   1.269
 3901WAT     H111914   0.245   0.745   1.190
 3901WAT     H211915   0.247   0.760   1.341
 3902WAT      O11916   1.173   1.693   1.459
 3902WAT     H111917   1.145   1.779   1.428
 3902WAT     H211918   1.095   1.657   1.503
 3903WAT      O11919   0.256   1.364   1.732
 3903WAT     H111920   0.177   1.330   1.774
 3903WAT     H211921   0.239   1.355   1.639
 3904WAT      O11922   0.988   1.041   0.418
 3904WAT     H111923   1.009   0.954   0.382
 3904WAT     H211924   1.060   1.097   0.389
 3905WAT      O11925   0.760   1.505   0.758
 3905WAT     H111926   0.823   1.564   0.716
 3905WAT     H211927   0.744   1.544   0.844
 3906WAT      O11928   0.364   1.600   1.830
 3906WAT     H111929   0.362   1.660   1.756
 3906WAT     H211930   0.323   1.520   1.797
 3907WAT      O11931   1.553   1.651   1.964
 3907WAT     H111932   1.599   1.704   2.028
 3907WAT     H211933   1.607   1.655   1.885
 3908WAT      O11934   1.441   1.353   1.637
 3908WAT     H111935   1.516   1.361   1.578
 3908WAT     H211936   1.408   1.265   1.623
 3909WAT      O11937   0.845   1.742   1.550
 3909WAT     H111938   0.895   1.742   1.631
 3909WAT     H211939   0.762   1.785   1.573
 3910WAT      O11940   1.021   1.812   0.490
 3910WAT     H111941   1.005   1.777   0.578
 3910WAT     H211942   1.013   1.736   0.432
 3911WAT      O11943   0.290   1.724   0.681
 3911WAT     H111944   0.284   1.630   0.697
 3911WAT     H211945   0.221   1.762   0.735
 3912WAT      O11946   1.017   1.583   0.343
 3912WAT     H111947   0.991   1.497   0.311
 3912WAT     H211948   1.110   1.590   0.321
 3913WAT      O11949   0.981   1.700   0.738
 3913WAT     H111950   1.032   1.640   0.793
 3913WAT     H211951   0.977   1.781   0.789
 3914WAT      O11952   1.427   0.646   1.774
 3914WAT     H111953   1.407   0.735   1.745
 3914WAT     H211954   1.348   0.596   1.752
 3915WAT      O11955   0.323   0.247   0.911
 3915WAT     H111956   0.227   0.247   0.914
 3915WAT     H211957   0.350   0.249   1.002
 3916WAT      O11958   0.671   0.517   1.519
 3916WAT     H111959   0.626   0.534   1.603
 3916WAT     H211960   0.624   0.442   1.483
 3917WAT      O11961   1.183   0.581   1.645
 3917WAT     H111962   1.105   0.567   1.697
 3917WAT     H211963   1.154   0.633   1.571
 3918WAT      O11964   0.893   0.783   1.842
 3918WAT     H111965   0.911   0.689   1.838
 3918WAT     H211966   0.978   0.823   1.858
 3919WAT      O11967   0.441   0.295   1.156
 3919WAT     H111968   0.441   0.388   1.133
 3919WAT     H211969   0.534   0.271   1.157
 3920WAT      O11970   0.855   0.740   0.549
 3920WAT     H111971   0.823   0.828   0.572
 3920WAT     H211972   0.931   0.757   0.494
 3921WAT      O11973   0.456   0.833   1.747
 3921WAT     H111974   0.482   0.740   1.746
 3921WAT     H211975   0.521   0.875   1.802
 3922WAT      O11976   0.836   0.617   0.793
 3922WAT     H111977   0.839   0.653   0.704
 3922WAT     H211978   0.839   0.522   0.780
 3923WAT      O11979   0.657   0.411   1.946
 3923WAT     H111980   0.593   0.359   1.995
 3923WAT     H211981   0.705   0.460   2.014
 3924WAT      O11982   0.846   0.784   1.239
 3924WAT     H111983   0.772   0.789   1.300
 3924WAT     H211984   0.813   0.732   1.166
 3925WAT      O11985   0.492   0.540   1.033
 3925WAT     H111986   0.494   0.501   0.945
 3925WAT     H211987   0.583   0.566   1.049
 3926WAT      O11988   0.527   0.626   0.362
 3926WAT     H111989   0.501   0.624   0.454
 3926WAT     H211990   0.497   0.712   0.330
 3927WAT      O11991   0.944   0.446   1.156
 3927WAT     H111992   0.935   0.468   1.249
 3927WAT     H211993   0.986   0.360   1.155
 3928WAT      O11994   0.433   0.867   0.263
 3928WAT     H111995   0.356   0.857   0.206
 3928WAT     H211996   0.494   0.919   0.210
 3929WAT      O11997   0.540   0.940   1.217
 3929WAT     H111998   0.568   0.887   1.291
 3929WAT     H211999   0.474   0.999   1.253
 3930WAT      O12000   0.364   0.833   1.465
 3930WAT     H112001   0.372   0.863   1.556
 3930WAT     H212002   0.451   0.798   1.443
 3931WAT      O12003   1.253   1.124   1.087
 3931WAT     H112004   1.332   1.156   1.042
 3931WAT     H212005   1.207   1.073   1.020
 3932WAT      O12006   0.766   0.296   0.498
 3932WAT     H112007   0.701   0.246   0.448
 3932WAT     H212008   0.773   0.380   0.452
 3933WAT      O12009   0.747   1.136   1.722
 3933WAT     H112010   0.749   1.050   1.682
 3933WAT     H212011   0.660   1.143   1.761
 3934WAT      O12012   1.063   0.756   0.375
 3934WAT     H112013   1.144   0.796   0.344
 3934WAT     H212014   1.067   0.665   0.345
 3935WAT      O12015   0.653   1.344   0.448
 3935WAT     H112016   0.609   1.418   0.405
 3935WAT     H212017   0.603   1.329   0.528
 3936WAT      O12018   0.192   0.850   1.815
 3936WAT     H112019   0.145   0.884   1.738
 3936WAT     H212020   0.284   0.851   1.789
 3937WAT      O12021   0.799   1.402   1.742
 3937WAT     H112022   0.775   1.312   1.722
 3937WAT     H212023   0.723   1.438   1.787
 3938WAT      O12024   1.284   0.877   0.282
 3938WAT     H112025   1.318   0.871   0.193
 3938WAT     H212026   1.337   0.944   0.324
 3939WAT      O12027   1.323   1.123   1.545
 3939WAT     H112028   1.259   1.191   1.524
 3939WAT     H212029   1.345   1.084   1.460
 3940WAT      O12030   1.399   1.530   0.528
 3940WAT     H112031   1.337   1.466   0.562
 3940WAT     H212032   1.358   1.564   0.448
 3941WAT      O12033   0.975   1.272   0.901
 3941WAT     H112034   0.935   1.253   0.817
 3941WAT     H212035   0.930   1.215   0.963
 3942WAT      O12036   0.532   1.348   0.696
 3942WAT     H112037   0.604   1.402   0.729
 3942WAT     H212038   0.454   1.400   0.712
 3943WAT      O12039   0.510   1.072   0.680
 3943WAT     H112040   0.519   1.167   0.690
 3943WAT     H212041   0.455   1.046   0.754
 3944WAT      O12042   0.712   1.595   1.348
 3944WAT     H112043   0.765   1.631   1.419
 3944WAT     H212044   0.762   1.520   1.317
 3945WAT      O12045   0.871   1.395   1.232
 3945WAT     H112046   0.913   1.311   1.251
 3945WAT     H212047   0.942   1.451   1.201
 3946WAT      O12048   1.033   1.501   1.645
 3946WAT     H112049   1.035   1.584   1.691
 3946WAT     H212050   0.946   1.464   1.665
 3947WAT      O12051   1.203   1.205   0.377
 3947WAT     H112052   1.208   1.266   0.450
 3947WAT     H212053   1.290   1.164   0.374
 3948WAT      O12054   0.597   1.480   1.915
 3948WAT     H112055   0.555   1.405   1.958
 3948WAT     H212056   0.523   1.531   1.882
 3949WAT      O12057   0.486   1.556   0.350
 3949WAT     H112058   0.421   1.624   0.368
 3949WAT     H212059   0.452   1.509   0.274
 3950WAT      O12060   0.925   0.497   1.420
 3950WAT     H112061   0.969   0.425   1.466
 3950WAT     H212062   0.839   0.502   1.461
 3951WAT      O12063   1.231   0.456   0.512
 3951WAT     H112064   1.169   0.460   0.439
 3951WAT     H212065   1.178   0.425   0.586
 3952WAT      O12066   0.436   0.601   0.618
 3952WAT     H112067   0.415   0.673   0.678
 3952WAT     H212068   0.465   0.530   0.675
 3953WAT      O12069   0.630   0.771   1.421
 3953WAT     H112070   0.675   0.817   1.492
 3953WAT     H212071   0.642   0.678   1.441
 3954WAT      O12072   0.857   0.351   0.747
 3954WAT     H112073   0.830   0.320   0.661
 3954WAT     H212074   0.952   0.336   0.749
 3955WAT      O12075   0.554   1.793   0.725
 3955WAT     H112076   0.596   1.783   0.640
 3955WAT     H212077   0.462   1.771   0.710
 3956WAT      O12078   0.308   0.452   0.384
 3956WAT     H112079   0.384   0.497   0.348
 3956WAT     H212080   0.301   0.483   0.474
 3957WAT      O12081   1.347   0.390   1.543
 3957WAT     H112082   1.292   0.457   1.582
 3957WAT     H212083   1.417   0.438   1.498
 3958WAT      O12084   1.137   0.950   0.908
 3958WAT     H112085   1.047   0.919   0.913
 3958WAT     H212086   1.190   0.873   0.929
 3959WAT      O12087   1.356   1.631   1.043
 3959WAT     H112088   1.374   1.706   1.100
 3959WAT     H212089   1.441   1.609   1.005
 3960WAT      O12090   0.904   1.366   2.000
 3960WAT     H112091   0.875   1.383   1.911
 3960WAT     H212092   0.862   1.283   2.024
 3961WAT      O12093   1.039   1.745   1.768
 3961WAT     H112094   1.132   1.737   1.788
 3961WAT     H212095   1.007   1.814   1.826
 3962WAT      O12096   1.287   1.680   0.321
 3962WAT     H112097   1.330   1.704   0.240
 3962WAT     H212098   1.278   1.763   0.369
 3963WAT      O12099   0.475   1.193   1.772
 3963WAT     H112100   0.406   1.259   1.770
 3963WAT     H212101   0.478   1.161   1.682
 3964WAT      O12102   0.815   1.212   0.265
 3964WAT     H112103   0.753   1.253   0.327
 3964WAT     H212104   0.863   1.149   0.318
 3965WAT      O12105   1.193   1.337   1.796
 3965WAT     H112106   1.283   1.345   1.762
 3965WAT     H212107   1.142   1.400   1.744
 3966WAT      O12108   0.339   1.045   0.462
 3966WAT     H112109   0.404   1.051   0.531
 3966WAT     H212110   0.373   0.979   0.402
 3967WAT      O12111   1.035   1.114   1.728
 3967WAT     H112112   1.085   1.190   1.758
 3967WAT     H212113   0.944   1.139   1.742
 3968WAT      O12114   1.149   0.896   1.848
 3968WAT     H112115   1.220   0.874   1.787
 3968WAT     H212116   1.110   0.975   1.811
 3969WAT      O12117   0.527   0.308   1.428
 3969WAT     H112118   0.465   0.290   1.357
 3969WAT     H212119   0.495   0.257   1.502
 3970WAT      O12120   0.489   1.144   1.504
 3970WAT     H112121   0.577   1.153   1.467
 3970WAT     H212122   0.431   1.150   1.428
 3971WAT      O12123   0.785   0.885   1.611
 3971WAT     H112124   0.819   0.843   1.689
 3971WAT     H212125   0.863   0.909   1.561
 3972WAT      O12126   1.005   0.979   1.480
 3972WAT     H112127   1.006   1.038   1.404
 3972WAT     H212128   1.035   1.034   1.553
 3973WAT      O12129   0.355   1.764   1.608
 3973WAT     H112130   0.275   1.803   1.573
 3973WAT     H212131   0.387   1.706   1.539
 3974WAT      O12132   0.524   0.561   1.752
 3974WAT     H112133   0.573   0.526   1.826
 3974WAT     H212134   0.458   0.494   1.734
 3975WAT      O12135   0.969   0.516   1.813
 3975WAT     H112136   0.892   0.460   1.806
 3975WAT     H212137   1.034   0.462   1.858
 3976WAT      O12138   0.617   1.872   1.619
 3976WAT     H112139   0.617   1.950   1.674
 3976WAT     H212140   0.527   1.838   1.625
 3977WAT      O12141   0.641   1.758   0.468
 3977WAT     H112142   0.727   1.758   0.426
 3977WAT     H212143   0.594   1.686   0.425
 3978WAT      O12144   0.273   1.453   0.734
 3978WAT     H112145   0.258   1.408   0.817
 3978WAT     H212146   0.231   1.397   0.668
 3979WAT      O12147   1.420   1.623   1.578
 3979WAT     H112148   1.335   1.650   1.543
 3979WAT     H212149   1.410   1.530   1.598
 3980WAT      O12150   1.449   1.066   0.400
 3980WAT     H112151   1.518   1.132   0.400
 3980WAT     H212152   1.449   1.031   0.489
 3981WAT      O12153   1.539   1.161   0.980
 3981WAT     H112154   1.565   1.080   0.937
 3981WAT     H212155   1.586   1.229   0.933
 3982WAT      O12156   1.168   1.333   1.464
 3982WAT     H112157   1.119   1.392   1.522
 3982WAT     H212158   1.205   1.390   1.397
 3983WAT      O12159   1.045   0.479   0.310
 3983WAT     H112160   1.051   0.425   0.231
 3983WAT     H212161   0.951   0.491   0.324
 3984WAT      O12162   1.415   0.944   0.645
 3984WAT     H112163   1.389   0.853   0.634
 3984WAT     H212164   1.332   0.990   0.660
 3985WAT      O12165   1.348   0.874   1.654
 3985WAT     H112166   1.352   0.831   1.569
 3985WAT     H212167   1.346   0.967   1.635
 3986WAT      O12168   1.197   0.362   1.909
 3986WAT     H112169   1.284   0.364   1.949
 3986WAT     H212170   1.208   0.313   1.828
 3987WAT      O12171   1.320   0.747   0.966
 3987WAT     H112172   1.364   0.700   0.896
 3987WAT     H212173   1.392   0.780   1.021
 3988WAT      O12174   1.363   0.762   1.397
 3988WAT     H112175   1.269   0.744   1.393
 3988WAT     H212176   1.373   0.846   1.352
 3989WAT      O12177   1.363   0.675   0.618
 3989WAT     H112178   1.405   0.629   0.690
 3989WAT     H212179   1.307   0.610   0.576
 3990WAT      O12180   1.474   0.546   0.832
 3990WAT     H112181   1.468   0.522   0.924
 3990WAT     H212182   1.556   0.505   0.802
 3991WAT      O12183   1.500   0.382   0.454
 3991WAT     H112184   1.406   0.387   0.471
 3991WAT     H212185   1.525   0.469   0.425
 3992WAT      O12186   1.289   1.816   0.843
 3992WAT     H112187   1.350   1.794   0.773
 3992WAT     H212188   1.298   1.745   0.906
 3993WAT      O12189   0.438   1.610   1.407
 3993WAT     H112190   0.405   1.626   1.319
 3993WAT     H212191   0.531   1.593   1.395
 3994WAT      O12192   0.568   0.258   1.728
 3994WAT     H112193   0.605   0.306   1.801
 3994WAT     H212194   0.613   0.173   1.730
 3995WAT      O12195   1.544   1.820   1.430
 3995WAT     H112196   1.469   1.879   1.435
 3995WAT     H212197   1.518   1.744   1.483
 3996WAT      O12198   1.088   0.288   1.504
 3996WAT     H112199   1.091   0.217   1.441
 3996WAT     H212200   1.179   0.314   1.516
 3997WAT      O12201   1.231   1.872   1.206
 3997WAT     H112202   1.199   1.946   1.154
 3997WAT     H212203   1.166   1.803   1.190
 3998WAT      O12204   0.396   1.681   1.146
 3998WAT     H112205   0.416   1.626   1.070
 3998WAT     H212206   0.467   1.746   1.147
 3999WAT      O12207   0.651   1.803   1.177
 3999WAT     H112208   0.681   1.774   1.091
 3999WAT     H212209   0.672   1.730   1.236
 4000WAT      O12210   1.140   0.252   1.121
 4000WAT     H112211   1.193   0.182   1.083
 4000WAT     H212212   1.171   0.331   1.078
 4001WAT      O12213   0.513   0.404   0.793
 4001WAT     H112214   0.446   0.340   0.819
 4001WAT     H212215   0.590   0.351   0.774
 4002WAT      O12216   0.581   1.871   1.952
 4002WAT     H112217   0.659   1.816   1.961
 4002WAT     H212218   0.611   1.947   1.902
 4003WAT      O12219   1.457   1.780   0.629
 4003WAT     H112220   1.444   1.692   0.593
 4003WAT     H212221   1.410   1.838   0.569
 4004WAT      O12222   0.316   1.759   0.408
 4004WAT     H112223   0.281   1.844   0.381
 4004WAT     H212224   0.302   1.756   0.503
 4005WAT      O12225   1.301   1.764   1.862
 4005WAT     H112226   1.376   1.706   1.874
 4005WAT     H212227   1.303   1.821   1.939
   4.97495   5.65703   5.83016
