GROningen MAchine for Chemical Simulation
12227
    1ILE      N    1   1.598   1.552   3.830
    1ILE     H1    2   1.670   1.482   3.830
    1ILE     H2    3   1.548   1.547   3.742
    1ILE     H3    4   1.548   1.547   3.917
    1ILE     CA    5   1.662   1.682   3.830
    1ILE     HA    6   1.633   1.738   3.741
    1ILE     CB    7   1.621   1.760   3.954
    1ILE     HB    8   1.512   1.773   3.954
    1ILE    CG2    9   1.662   1.682   4.079
    1ILE   HG21   10   1.771   1.669   4.079
    1ILE   HG22   11   1.633   1.737   4.168
    1ILE   HG23   12   1.614   1.584   4.079
    1ILE    CG1   13   1.688   1.896   3.954
    1ILE   HG12   14   1.659   1.952   3.865
    1ILE   HG13   15   1.797   1.883   3.954
    1ILE    CD1   16   1.647   1.974   4.079
    1ILE   HD11   17   1.677   1.918   4.168
    1ILE   HD12   18   1.695   2.071   4.079
    1ILE   HD13   19   1.538   1.987   4.079
    1ILE      C   20   1.814   1.668   3.830
    1ILE      O   21   1.866   1.557   3.830
    2LEU      N   22   1.885   1.781   3.830
    2LEU      H   23   1.837   1.870   3.830
    2LEU     CA   24   2.029   1.781   3.830
    2LEU     HA   25   2.066   1.730   3.919
    2LEU     CB   26   2.084   1.710   3.706
    2LEU    HB2   27   2.050   1.607   3.705
    2LEU    HB3   28   2.050   1.761   3.616
    2LEU     CG   29   2.237   1.712   3.710
    2LEU     HG   30   2.272   1.816   3.711
    2LEU    CD1   31   2.286   1.641   3.836
    2LEU   HD11   32   2.251   1.538   3.835
    2LEU   HD12   33   2.395   1.643   3.839
    2LEU   HD13   34   2.246   1.692   3.924
    2LEU    CD2   35   2.292   1.641   3.587
    2LEU   HD21   36   2.257   1.692   3.497
    2LEU   HD22   37   2.401   1.643   3.590
    2LEU   HD23   38   2.257   1.538   3.586
    2LEU      C   39   2.084   1.923   3.830
    2LEU      O   40   2.008   2.020   3.830
    3ARG      N   41   2.217   1.936   3.830
    3ARG      H   42   2.276   1.854   3.830
    3ARG     CA   43   2.282   2.066   3.830
    3ARG     HA   44   2.252   2.121   3.741
    3ARG     CB   45   2.242   2.147   3.953
    3ARG    HB2   46   2.134   2.161   3.954
    3ARG    HB3   47   2.272   2.093   4.043
    3ARG     CG   48   2.312   2.282   3.949
    3ARG    HG2   49   2.420   2.268   3.948
    3ARG    HG3   50   2.282   2.336   3.859
    3ARG     CD   51   2.273   2.363   4.072
    3ARG    HD2   52   2.165   2.378   4.073
    3ARG    HD3   53   2.303   2.309   4.162
    3ARG     NE   54   2.339   2.496   4.072
    3ARG     HE   55   2.400   2.519   3.995
    3ARG     CZ   56   2.321   2.585   4.169
    3ARG    NH1   57   2.242   2.562   4.273
    3ARG   HH11   58   2.193   2.474   4.280
    3ARG   HH12   59   2.231   2.633   4.344
    3ARG    NH2   60   2.385   2.702   4.158
    3ARG   HH21   61   2.445   2.719   4.079
    3ARG   HH22   62   2.374   2.772   4.230
    3ARG      C   63   2.433   2.052   3.830
    3ARG      O   64   2.485   1.941   3.830
    4TRP      N   65   2.504   2.165   3.830
    4TRP      H   66   2.456   2.254   3.830
    4TRP     CA   67   2.649   2.165   3.830
    4TRP     HA   68   2.685   2.114   3.919
    4TRP     CB   69   2.703   2.094   3.706
    4TRP    HB2   70   2.669   1.991   3.705
    4TRP    HB3   71   2.669   2.145   3.616
    4TRP     CG   72   2.854   2.089   3.697
    4TRP    CD1   73   2.927   2.033   3.600
    4TRP    HD1   74   2.878   1.984   3.516
    4TRP    NE1   75   3.065   2.053   3.635
    4TRP    HE1   76   3.144   2.021   3.580
    4TRP    CE2   77   3.071   2.118   3.748
    4TRP    CZ2   78   3.186   2.158   3.818
    4TRP    HZ2   79   3.285   2.135   3.778
    4TRP    CH2   80   3.164   2.227   3.937
    4TRP    HH2   81   3.248   2.261   3.996
    4TRP    CZ3   82   3.039   2.252   3.980
    4TRP    HZ3   83   3.023   2.306   4.074
    4TRP    CE3   84   2.925   2.211   3.908
    4TRP    HE3   85   2.825   2.233   3.946
    4TRP    CD2   86   2.947   2.141   3.788
    4TRP      C   87   2.703   2.307   3.830
    4TRP      O   88   2.627   2.404   3.830
    5PRO      N   89   2.836   2.320   3.830
    5PRO     CD   90   2.925   2.204   3.830
    5PRO    HD2   91   2.934   2.165   3.728
    5PRO    HD3   92   2.884   2.127   3.894
    5PRO     CG   93   3.054   2.260   3.882
    5PRO    HG2   94   3.137   2.214   3.828
    5PRO    HG3   95   3.063   2.238   3.988
    5PRO     CB   96   3.048   2.409   3.857
    5PRO    HB2   97   3.110   2.433   3.771
    5PRO    HB3   98   3.086   2.461   3.945
    5PRO     CA   99   2.901   2.450   3.830
    5PRO     HA  100   2.874   2.508   3.918
    5PRO      C  101   2.864   2.529   3.705
    5PRO      O  102   2.784   2.484   3.623
    6TRP      N  103   2.923   2.648   3.690
    6TRP      H  104   2.988   2.681   3.760
    6TRP     CA  105   2.897   2.733   3.575
    6TRP     HA  106   2.925   2.680   3.484
    6TRP     CB  107   2.749   2.770   3.567
    6TRP    HB2  108   2.690   2.679   3.558
    6TRP    HB3  109   2.720   2.823   3.658
    6TRP     CG  110   2.712   2.858   3.451
    6TRP    CD1  111   2.590   2.905   3.421
    6TRP    HD1  112   2.505   2.880   3.484
    6TRP    NE1  113   2.604   2.984   3.302
    6TRP    HE1  114   2.528   3.033   3.255
    6TRP    CE2  115   2.729   2.983   3.265
    6TRP    CZ2  116   2.786   3.048   3.154
    6TRP    HZ2  117   2.724   3.107   3.088
    6TRP    CH2  118   2.923   3.030   3.138
    6TRP    HH2  119   2.974   3.077   3.054
    6TRP    CZ3  120   2.995   2.955   3.224
    6TRP    HZ3  121   3.102   2.942   3.210
    6TRP    CE3  122   2.935   2.891   3.335
    6TRP    HE3  123   2.996   2.831   3.403
    6TRP    CD2  124   2.797   2.909   3.352
    6TRP      C  125   2.977   2.862   3.583
    6TRP      O  126   3.052   2.883   3.679
    7TRP      N  127   2.961   2.949   3.483
    7TRP      H  128   2.898   2.927   3.407
    7TRP     CA  129   3.032   3.075   3.479
    7TRP     HA  130   3.005   3.134   3.567
    7TRP     CB  131   3.183   3.054   3.478
    7TRP    HB2  132   3.212   3.000   3.569
    7TRP    HB3  133   3.211   2.995   3.391
    7TRP     CG  134   3.265   3.180   3.474
    7TRP    CD1  135   3.399   3.189   3.473
    7TRP    HD1  136   3.459   3.099   3.475
    7TRP    NE1  137   3.431   3.329   3.469
    7TRP    HE1  138   3.524   3.367   3.467
    7TRP    CE2  139   3.320   3.398   3.468
    7TRP    CZ2  140   3.305   3.537   3.464
    7TRP    HZ2  141   3.393   3.601   3.462
    7TRP    CH2  142   3.175   3.585   3.464
    7TRP    HH2  143   3.156   3.692   3.461
    7TRP    CZ3  144   3.070   3.500   3.467
    7TRP    HZ3  145   2.968   3.539   3.467
    7TRP    CE3  146   3.087   3.360   3.471
    7TRP    HE3  147   3.000   3.295   3.473
    7TRP    CD2  148   3.218   3.312   3.471
    7TRP      C  149   2.995   3.154   3.354
    7TRP      O  150   2.915   3.109   3.273
    8PRO      N  151   3.054   3.273   3.339
    8PRO     CD  152   3.149   3.325   3.438
    8PRO    HD2  153   3.247   3.280   3.421
    8PRO    HD3  154   3.114   3.300   3.538
    8PRO     CG  155   3.148   3.472   3.412
    8PRO    HG2  156   3.249   3.511   3.423
    8PRO    HG3  157   3.082   3.522   3.483
    8PRO     CB  158   3.097   3.489   3.270
    8PRO    HB2  159   3.181   3.512   3.205
    8PRO    HB3  160   3.026   3.572   3.267
    8PRO     CA  161   3.028   3.358   3.225
    8PRO     HA  162   2.923   3.386   3.219
    8PRO      C  163   3.069   3.289   3.095
    8PRO      O  164   3.112   3.174   3.097
    9TRP      N  165   3.056   3.360   2.983
    9TRP      H  166   3.020   3.455   2.987
    9TRP     CA  167   3.092   3.306   2.854
    9TRP     HA  168   3.197   3.279   2.853
    9TRP     CB  169   3.009   3.182   2.821
    9TRP    HB2  170   3.028   3.106   2.897
    9TRP    HB3  171   2.903   3.208   2.821
    9TRP     CG  172   3.040   3.118   2.688
    9TRP    CD1  173   2.982   3.009   2.636
    9TRP    HD1  174   2.904   2.956   2.692
    9TRP    NE1  175   3.042   2.987   2.508
    9TRP    HE1  176   3.020   2.911   2.445
    9TRP    CE2  177   3.132   3.080   2.487
    9TRP    CZ2  178   3.215   3.096   2.375
    9TRP    HZ2  179   3.208   3.025   2.292
    9TRP    CH2  180   3.302   3.204   2.378
    9TRP    HH2  181   3.369   3.223   2.294
    9TRP    CZ3  182   3.305   3.288   2.484
    9TRP    HZ3  183   3.373   3.372   2.485
    9TRP    CE3  184   3.221   3.269   2.596
    9TRP    HE3  185   3.226   3.339   2.680
    9TRP    CD2  186   3.133   3.160   2.592
    9TRP      C  187   3.067   3.408   2.743
    9TRP      O  188   3.023   3.520   2.770
   10ARG      N  189   3.096   3.370   2.619
   10ARG      H  190   3.133   3.277   2.602
   10ARG     CA  191   3.078   3.457   2.505
   10ARG     HA  192   2.972   3.485   2.498
   10ARG     CB  193   3.161   3.584   2.519
   10ARG    HB2  194   3.131   3.637   2.609
   10ARG    HB3  195   3.267   3.558   2.525
   10ARG     CG  196   3.138   3.673   2.397
   10ARG    HG2  197   3.168   3.620   2.307
   10ARG    HG3  198   3.033   3.700   2.391
   10ARG     CD  199   3.222   3.800   2.411
   10ARG    HD2  200   3.192   3.854   2.502
   10ARG    HD3  201   3.328   3.774   2.418
   10ARG     NE  202   3.203   3.890   2.295
   10ARG     HE  203   3.140   3.860   2.222
   10ARG     CZ  204   3.264   4.007   2.283
   10ARG    NH1  205   3.348   4.052   2.375
   10ARG   HH11  206   3.367   3.997   2.458
   10ARG   HH12  207   3.393   4.142   2.362
   10ARG    NH2  208   3.239   4.079   2.174
   10ARG   HH21  209   3.175   4.044   2.104
   10ARG   HH22  210   3.285   4.169   2.162
   10ARG      C  211   3.119   3.388   2.375
   10ARG      O  212   3.161   3.273   2.377
   11ARG      N  213   3.106   3.460   2.263
   11ARG      H  214   3.070   3.554   2.267
   11ARG     CA  215   3.141   3.406   2.134
   11ARG     HA  216   3.247   3.379   2.133
   11ARG     CB  217   3.059   3.281   2.102
   11ARG    HB2  218   3.077   3.205   2.177
   11ARG    HB3  219   2.953   3.307   2.101
   11ARG     CG  220   3.100   3.228   1.965
   11ARG    HG2  221   3.081   3.304   1.889
   11ARG    HG3  222   3.205   3.202   1.966
   11ARG     CD  223   3.017   3.103   1.933
   11ARG    HD2  224   3.035   3.027   2.008
   11ARG    HD3  225   2.911   3.129   1.932
   11ARG     NE  226   3.054   3.048   1.800
   11ARG     HE  227   3.125   3.095   1.747
   11ARG     CZ  228   2.997   2.940   1.748
   11ARG    NH1  229   2.902   2.873   1.813
   11ARG   HH11  230   2.871   2.904   1.904
   11ARG   HH12  231   2.861   2.791   1.771
   11ARG    NH2  232   3.037   2.899   1.629
   11ARG   HH21  233   3.109   2.950   1.580
   11ARG   HH22  234   2.996   2.817   1.587
   11ARG      C  235   3.117   3.507   2.023
   11ARG      O  236   3.072   3.619   2.050
   12LYS      N  237   3.146   3.469   1.899
   12LYS      H  238   3.183   3.376   1.882
   12LYS     CA  239   3.127   3.556   1.785
   12LYS     HA  240   3.022   3.585   1.778
   12LYS     CB  241   3.211   3.683   1.799
   12LYS    HB2  242   3.181   3.737   1.889
   12LYS    HB3  243   3.316   3.657   1.805
   12LYS     CG  244   3.188   3.773   1.677
   12LYS    HG2  245   3.218   3.719   1.587
   12LYS    HG3  246   3.083   3.799   1.671
   12LYS     CD  247   3.272   3.900   1.691
   12LYS    HD2  248   3.242   3.953   1.782
   12LYS    HD3  249   3.377   3.873   1.698
   12LYS     CE  250   3.249   3.989   1.570
   12LYS    HE2  251   3.279   3.936   1.480
   12LYS    HE3  252   3.144   4.015   1.563
   12LYS     NZ  253   3.330   4.111   1.583
   12LYS    HZ1  254   3.427   4.087   1.589
   12LYS    HZ2  255   3.315   4.170   1.503
   12LYS    HZ3  256   3.302   4.161   1.667
   12LYS      C  257   3.168   3.488   1.655
   12LYS      O  258   3.211   3.373   1.657
   13NHE      N  259   3.155   3.559   1.543
   13NHE    HN1  260   3.120   3.653   1.547
   13NHE    HN2  261   3.181   3.518   1.454
   14Cl-    Cl-  262   3.462   4.386   2.017
   15Cl-    Cl-  263   2.758   3.953   1.717
   16Cl-    Cl-  264   1.362   1.640   3.517
   17Cl-    Cl-  265   2.183   2.855   4.627
   18Cl-    Cl-  266   2.843   2.883   2.223
   19WAT      O  267   4.639   4.629   4.625
   19WAT     H1  268   4.631   4.538   4.598
   19WAT     H2  269   4.597   4.679   4.554
   20WAT      O  270   4.452   4.807   4.813
   20WAT     H1  271   4.374   4.759   4.842
   20WAT     H2  272   4.517   4.739   4.796
   21WAT      O  273   3.854   4.838   4.901
   21WAT     H1  274   3.770   4.813   4.941
   21WAT     H2  275   3.914   4.845   4.974
   22WAT      O  276   3.852   5.242   4.920
   22WAT     H1  277   3.882   5.153   4.902
   22WAT     H2  278   3.926   5.297   4.898
   23WAT      O  279   3.695   4.334   4.279
   23WAT     H1  280   3.606   4.369   4.269
   23WAT     H2  281   3.723   4.314   4.190
   24WAT      O  282   3.491   4.594   4.868
   24WAT     H1  283   3.548   4.518   4.868
   24WAT     H2  284   3.491   4.624   4.777
   25WAT      O  285   4.396   5.075   4.814
   25WAT     H1  286   4.389   4.981   4.798
   25WAT     H2  287   4.472   5.084   4.871
   26WAT      O  288   3.615   4.135   5.046
   26WAT     H1  289   3.597   4.046   5.074
   26WAT     H2  290   3.575   4.190   5.114
   27WAT      O  291   4.499   4.355   4.836
   27WAT     H1  292   4.537   4.268   4.825
   27WAT     H2  293   4.489   4.389   4.747
   28WAT      O  294   3.912   4.193   4.383
   28WAT     H1  295   3.923   4.283   4.413
   28WAT     H2  296   3.821   4.188   4.354
   29WAT      O  297   3.677   4.385   4.907
   29WAT     H1  298   3.745   4.411   4.969
   29WAT     H2  299   3.645   4.301   4.940
   30WAT      O  300   4.096   4.490   4.816
   30WAT     H1  301   4.147   4.539   4.880
   30WAT     H2  302   4.149   4.412   4.798
   31WAT      O  303   3.925   3.954   5.242
   31WAT     H1  304   3.925   4.005   5.162
   31WAT     H2  305   3.842   3.906   5.240
   32WAT      O  306   4.563   4.965   4.392
   32WAT     H1  307   4.501   5.011   4.336
   32WAT     H2  308   4.615   5.034   4.434
   33WAT      O  309   4.050   4.918   5.060
   33WAT     H1  310   4.016   4.980   5.124
   33WAT     H2  311   4.067   4.970   4.982
   34WAT      O  312   3.893   4.125   5.043
   34WAT     H1  313   3.927   4.209   5.014
   34WAT     H2  314   3.799   4.140   5.055
   35WAT      O  315   3.971   5.114   5.242
   35WAT     H1  316   4.033   5.182   5.214
   35WAT     H2  317   3.885   5.155   5.233
   36WAT      O  318   3.500   5.033   4.130
   36WAT     H1  319   3.462   5.082   4.057
   36WAT     H2  320   3.526   5.101   4.193
   37WAT      O  321   4.261   3.873   4.676
   37WAT     H1  322   4.292   3.818   4.604
   37WAT     H2  323   4.168   3.887   4.657
   38WAT      O  324   4.500   4.680   4.349
   38WAT     H1  325   4.407   4.673   4.372
   38WAT     H2  326   4.515   4.774   4.338
   39WAT      O  327   4.499   4.307   4.049
   39WAT     H1  328   4.405   4.323   4.057
   39WAT     H2  329   4.530   4.379   3.994
   40WAT      O  330   4.060   4.733   4.627
   40WAT     H1  331   4.020   4.661   4.578
   40WAT     H2  332   4.069   4.698   4.716
   41WAT      O  333   4.107   5.101   4.844
   41WAT     H1  334   4.078   5.041   4.776
   41WAT     H2  335   4.202   5.105   4.833
   42WAT      O  336   3.932   4.410   5.005
   42WAT     H1  337   3.987   4.421   4.928
   42WAT     H2  338   3.983   4.447   5.077
   43WAT      O  339   4.016   5.075   5.509
   43WAT     H1  340   3.927   5.098   5.534
   43WAT     H2  341   4.019   5.087   5.414
   44WAT      O  342   4.720   4.760   4.100
   44WAT     H1  343   4.764   4.676   4.086
   44WAT     H2  344   4.792   4.823   4.109
   45WAT      O  345   3.899   4.762   5.366
   45WAT     H1  346   3.885   4.849   5.403
   45WAT     H2  347   3.811   4.728   5.352
   46WAT      O  348   4.531   5.254   4.497
   46WAT     H1  349   4.575   5.328   4.456
   46WAT     H2  350   4.525   5.278   4.589
   47WAT      O  351   4.079   5.356   5.587
   47WAT     H1  352   4.076   5.397   5.501
   47WAT     H2  353   4.063   5.264   5.571
   48WAT      O  354   3.730   4.622   4.377
   48WAT     H1  355   3.718   4.695   4.316
   48WAT     H2  356   3.699   4.545   4.330
   49WAT      O  357   3.494   4.939   4.958
   49WAT     H1  358   3.502   4.953   4.864
   49WAT     H2  359   3.556   4.868   4.977
   50WAT      O  360   3.619   5.109   4.599
   50WAT     H1  361   3.578   5.123   4.514
   50WAT     H2  362   3.708   5.081   4.579
   51WAT      O  363   3.500   5.043   5.212
   51WAT     H1  364   3.516   4.996   5.130
   51WAT     H2  365   3.546   4.993   5.279
   52WAT      O  366   3.977   3.956   4.716
   52WAT     H1  367   3.933   4.035   4.683
   52WAT     H2  368   4.033   3.989   4.786
   53WAT      O  369   4.406   4.243   5.276
   53WAT     H1  370   4.360   4.264   5.357
   53WAT     H2  371   4.366   4.162   5.246
   54WAT      O  372   4.615   4.515   5.599
   54WAT     H1  373   4.648   4.432   5.565
   54WAT     H2  374   4.694   4.567   5.614
   55WAT      O  375   4.289   3.919   4.204
   55WAT     H1  376   4.226   3.918   4.276
   55WAT     H2  377   4.280   3.832   4.164
   56WAT      O  378   4.181   4.011   4.902
   56WAT     H1  379   4.211   4.102   4.894
   56WAT     H2  380   4.236   3.962   4.840
   57WAT      O  381   3.956   4.469   4.489
   57WAT     H1  382   3.934   4.447   4.579
   57WAT     H2  383   3.878   4.512   4.454
   58WAT      O  384   4.679   4.469   4.348
   58WAT     H1  385   4.619   4.542   4.330
   58WAT     H2  386   4.734   4.463   4.270
   59WAT      O  387   4.200   4.559   5.555
   59WAT     H1  388   4.191   4.465   5.540
   59WAT     H2  389   4.285   4.581   5.516
   60WAT      O  390   4.540   4.333   4.551
   60WAT     H1  391   4.579   4.365   4.470
   60WAT     H2  392   4.576   4.245   4.563
   61WAT      O  393   3.713   4.200   5.370
   61WAT     H1  394   3.674   4.285   5.391
   61WAT     H2  395   3.645   4.136   5.390
   62WAT      O  396   3.444   3.992   4.774
   62WAT     H1  397   3.415   4.049   4.845
   62WAT     H2  398   3.518   3.944   4.810
   63WAT      O  399   3.462   4.386   3.895
   63WAT     H1  400   3.454   4.481   3.909
   63WAT     H2  401   3.427   4.372   3.807
   64WAT      O  402   4.598   4.592   4.961
   64WAT     H1  403   4.525   4.643   4.996
   64WAT     H2  404   4.559   4.510   4.931
   65WAT      O  405   4.242   4.260   4.801
   65WAT     H1  406   4.243   4.216   4.717
   65WAT     H2  407   4.332   4.292   4.812
   66WAT      O  408   3.827   4.248   4.697
   66WAT     H1  409   3.793   4.296   4.773
   66WAT     H2  410   3.751   4.203   4.661
   67WAT      O  411   4.248   4.360   4.101
   67WAT     H1  412   4.261   4.356   4.195
   67WAT     H2  413   4.210   4.446   4.085
   68WAT      O  414   4.645   4.137   4.902
   68WAT     H1  415   4.646   4.183   4.987
   68WAT     H2  416   4.620   4.047   4.924
   69WAT      O  417   4.150   4.591   4.040
   69WAT     H1  418   4.093   4.546   3.978
   69WAT     H2  419   4.220   4.627   3.987
   70WAT      O  420   3.657   4.981   5.428
   70WAT     H1  421   3.619   4.917   5.488
   70WAT     H2  422   3.688   5.051   5.485
   71WAT      O  423   4.272   4.666   4.976
   71WAT     H1  424   4.309   4.618   5.051
   71WAT     H2  425   4.253   4.753   5.010
   72WAT      O  426   3.559   4.140   4.589
   72WAT     H1  427   3.530   4.104   4.673
   72WAT     H2  428   3.552   4.067   4.528
   73WAT      O  429   4.051   4.570   5.208
   73WAT     H1  430   4.021   4.658   5.230
   73WAT     H2  431   4.147   4.576   5.212
   74WAT      O  432   3.904   4.990   4.268
   74WAT     H1  433   3.827   4.936   4.252
   74WAT     H2  434   3.977   4.938   4.234
   75WAT      O  435   4.526   4.029   4.261
   75WAT     H1  436   4.445   3.980   4.254
   75WAT     H2  437   4.507   4.113   4.220
   76WAT      O  438   4.518   4.897   5.436
   76WAT     H1  439   4.512   4.805   5.410
   76WAT     H2  440   4.455   4.907   5.507
   77WAT      O  441   3.908   4.957   4.631
   77WAT     H1  442   3.960   4.877   4.626
   77WAT     H2  443   3.863   4.951   4.716
   78WAT      O  444   4.397   5.084   4.159
   78WAT     H1  445   4.431   5.158   4.109
   78WAT     H2  446   4.314   5.115   4.195
   79WAT      O  447   3.657   4.654   5.323
   79WAT     H1  448   3.621   4.720   5.381
   79WAT     H2  449   3.627   4.571   5.360
   80WAT      O  450   3.977   4.700   5.611
   80WAT     H1  451   3.947   4.714   5.521
   80WAT     H2  452   4.054   4.644   5.602
   81WAT      O  453   4.511   5.179   5.411
   81WAT     H1  454   4.513   5.086   5.389
   81WAT     H2  455   4.441   5.188   5.475
   82WAT      O  456   4.685   5.016   4.695
   82WAT     H1  457   4.721   4.956   4.629
   82WAT     H2  458   4.597   4.983   4.712
   83WAT      O  459   4.294   5.092   4.436
   83WAT     H1  460   4.363   5.147   4.474
   83WAT     H2  461   4.215   5.146   4.439
   84WAT      O  462   3.508   4.654   3.985
   84WAT     H1  463   3.595   4.682   4.013
   84WAT     H2  464   3.459   4.735   3.974
   85WAT      O  465   4.224   4.792   4.397
   85WAT     H1  466   4.270   4.873   4.420
   85WAT     H2  467   4.189   4.761   4.480
   86WAT      O  468   4.455   5.343   5.120
   86WAT     H1  469   4.519   5.364   5.188
   86WAT     H2  470   4.491   5.267   5.075
   87WAT      O  471   3.814   3.827   4.444
   87WAT     H1  472   3.802   3.826   4.539
   87WAT     H2  473   3.732   3.861   4.409
   88WAT      O  474   4.582   5.144   4.992
   88WAT     H1  475   4.646   5.074   5.003
   88WAT     H2  476   4.634   5.222   4.974
   89WAT      O  477   4.759   5.224   5.312
   89WAT     H1  478   4.793   5.282   5.380
   89WAT     H2  479   4.667   5.211   5.335
   90WAT      O  480   3.514   4.003   5.390
   90WAT     H1  481   3.443   4.023   5.451
   90WAT     H2  482   3.556   3.925   5.428
   91WAT      O  483   3.543   5.401   5.489
   91WAT     H1  484   3.554   5.307   5.475
   91WAT     H2  485   3.478   5.428   5.424
   92WAT      O  486   4.146   5.313   4.123
   92WAT     H1  487   4.145   5.387   4.062
   92WAT     H2  488   4.054   5.289   4.133
   93WAT      O  489   3.706   4.835   4.198
   93WAT     H1  490   3.646   4.909   4.199
   93WAT     H2  491   3.754   4.844   4.115
   94WAT      O  492   4.664   4.252   5.165
   94WAT     H1  493   4.701   4.170   5.198
   94WAT     H2  494   4.578   4.258   5.207
   95WAT      O  495   4.445   5.320   3.990
   95WAT     H1  496   4.455   5.299   3.897
   95WAT     H2  497   4.355   5.294   4.010
   96WAT      O  498   4.197   4.375   4.388
   96WAT     H1  499   4.126   4.422   4.432
   96WAT     H2  500   4.226   4.310   4.451
   97WAT      O  501   4.360   4.517   5.188
   97WAT     H1  502   4.410   4.565   5.254
   97WAT     H2  503   4.374   4.425   5.209
   98WAT      O  504   4.600   4.048   4.532
   98WAT     H1  505   4.588   4.050   4.437
   98WAT     H2  506   4.695   4.053   4.544
   99WAT      O  507   4.018   4.206   4.125
   99WAT     H1  508   4.102   4.250   4.119
   99WAT     H2  509   3.981   4.237   4.208
  100WAT      O  510   3.907   4.832   3.973
  100WAT     H1  511   3.984   4.820   4.029
  100WAT     H2  512   3.915   4.762   3.908
  101WAT      O  513   3.777   4.575   4.041
  101WAT     H1  514   3.785   4.480   4.052
  101WAT     H2  515   3.866   4.608   4.052
  102WAT      O  516   3.546   5.196   4.339
  102WAT     H1  517   3.453   5.221   4.338
  102WAT     H2  518   3.592   5.279   4.327
  103WAT      O  519   3.530   4.757   5.565
  103WAT     H1  520   3.580   4.699   5.622
  103WAT     H2  521   3.456   4.785   5.618
  104WAT      O  522   4.220   5.029   3.920
  104WAT     H1  523   4.209   4.968   3.993
  104WAT     H2  524   4.203   4.977   3.842
  105WAT      O  525   4.235   4.898   5.518
  105WAT     H1  526   4.159   4.954   5.510
  105WAT     H2  527   4.253   4.868   5.429
  106WAT      O  528   4.544   4.935   3.981
  106WAT     H1  529   4.489   4.980   4.045
  106WAT     H2  530   4.606   4.885   4.033
  107WAT      O  531   4.111   4.831   4.170
  107WAT     H1  532   4.153   4.815   4.254
  107WAT     H2  533   4.123   4.750   4.121
  108WAT      O  534   3.927   4.429   5.451
  108WAT     H1  535   3.874   4.380   5.388
  108WAT     H2  536   3.994   4.472   5.397
  109WAT      O  537   4.362   4.734   3.895
  109WAT     H1  538   4.414   4.662   3.858
  109WAT     H2  539   4.427   4.797   3.925
  110WAT      O  540   3.976   4.126   5.459
  110WAT     H1  541   3.966   4.064   5.386
  110WAT     H2  542   3.918   4.198   5.436
  111WAT      O  543   4.252   3.981   5.162
  111WAT     H1  544   4.207   3.984   5.078
  111WAT     H2  545   4.189   3.942   5.222
  112WAT      O  546   4.293   4.871   5.224
  112WAT     H1  547   4.335   4.955   5.207
  112WAT     H2  548   4.201   4.885   5.201
  113WAT      O  549   4.527   4.644   5.363
  113WAT     H1  550   4.538   4.585   5.437
  113WAT     H2  551   4.612   4.648   5.321
  114WAT      O  552   4.760   4.700   5.220
  114WAT     H1  553   4.708   4.752   5.160
  114WAT     H2  554   4.795   4.763   5.283
  115WAT      O  555   4.000   4.439   3.865
  115WAT     H1  556   3.980   4.352   3.901
  115WAT     H2  557   3.983   4.430   3.771
  116WAT      O  558   4.203   4.298   5.488
  116WAT     H1  559   4.262   4.268   5.557
  116WAT     H2  560   4.121   4.251   5.504
  117WAT      O  561   4.685   4.260   5.512
  117WAT     H1  562   4.616   4.194   5.505
  117WAT     H2  563   4.757   4.215   5.556
  118WAT      O  564   4.748   3.920   4.118
  118WAT     H1  565   4.776   3.835   4.153
  118WAT     H2  566   4.671   3.943   4.169
  119WAT      O  567   3.880   4.149   3.864
  119WAT     H1  568   3.910   4.149   3.773
  119WAT     H2  569   3.954   4.113   3.913
  120WAT      O  570   4.202   4.043   3.962
  120WAT     H1  571   4.167   3.975   3.904
  120WAT     H2  572   4.222   3.997   4.044
  121WAT      O  573   3.782   5.079   3.947
  121WAT     H1  574   3.826   5.133   4.012
  121WAT     H2  575   3.831   4.996   3.948
  122WAT      O  576   3.504   5.358   4.692
  122WAT     H1  577   3.537   5.271   4.669
  122WAT     H2  578   3.547   5.378   4.775
  123WAT      O  579   3.963   5.191   4.458
  123WAT     H1  580   3.933   5.179   4.548
  123WAT     H2  581   3.953   5.105   4.417
  124WAT      O  582   3.536   4.696   4.602
  124WAT     H1  583   3.471   4.669   4.537
  124WAT     H2  584   3.620   4.685   4.557
  125WAT      O  585   3.640   4.734   5.056
  125WAT     H1  586   3.677   4.726   5.144
  125WAT     H2  587   3.583   4.658   5.046
  126WAT      O  588   3.595   4.425   5.446
  126WAT     H1  589   3.505   4.422   5.480
  126WAT     H2  590   3.649   4.445   5.523
  127WAT      O  591   3.457   4.417   4.196
  127WAT     H1  592   3.367   4.443   4.179
  127WAT     H2  593   3.506   4.444   4.118
  128WAT      O  594   3.712   4.322   3.987
  128WAT     H1  595   3.783   4.280   3.938
  128WAT     H2  596   3.640   4.329   3.924
  129WAT      O  597   3.676   3.928   3.891
  129WAT     H1  598   3.749   3.982   3.923
  129WAT     H2  599   3.704   3.900   3.803
  130WAT      O  600   3.645   3.853   4.881
  130WAT     H1  601   3.710   3.798   4.837
  130WAT     H2  602   3.687   3.878   4.963
  131WAT      O  603   3.621   3.868   5.155
  131WAT     H1  604   3.586   3.914   5.232
  131WAT     H2  605   3.588   3.779   5.164
  132WAT      O  606   4.151   5.341   5.132
  132WAT     H1  607   4.127   5.368   5.043
  132WAT     H2  608   4.245   5.358   5.138
  133WAT      O  609   4.372   3.988   5.508
  133WAT     H1  610   4.366   4.047   5.583
  133WAT     H2  611   4.466   3.977   5.493
  134WAT      O  612   4.636   3.953   5.472
  134WAT     H1  613   4.697   3.985   5.405
  134WAT     H2  614   4.690   3.905   5.534
  135WAT      O  615   3.688   3.821   5.483
  135WAT     H1  616   3.743   3.803   5.407
  135WAT     H2  617   3.694   3.742   5.537
  136WAT      O  618   3.765   5.480   5.284
  136WAT     H1  619   3.706   5.467   5.358
  136WAT     H2  620   3.764   5.397   5.237
  137WAT      O  621   4.710   3.810   5.104
  137WAT     H1  622   4.622   3.843   5.084
  137WAT     H2  623   4.699   3.762   5.187
  138WAT      O  624   3.728   5.217   5.179
  138WAT     H1  625   3.656   5.155   5.172
  138WAT     H2  626   3.734   5.256   5.092
  139WAT      O  627   4.089   5.438   4.858
  139WAT     H1  628   4.140   5.377   4.805
  139WAT     H2  629   4.154   5.489   4.907
  140WAT      O  630   4.484   3.901   4.998
  140WAT     H1  631   4.406   3.949   5.026
  140WAT     H2  632   4.455   3.811   4.987
  141WAT      O  633   3.619   3.932   4.250
  141WAT     H1  634   3.695   3.943   4.193
  141WAT     H2  635   3.573   4.015   4.246
  142WAT      O  636   4.273   4.143   4.549
  142WAT     H1  637   4.192   4.106   4.515
  142WAT     H2  638   4.323   4.068   4.580
  143WAT      O  639   4.723   3.810   4.673
  143WAT     H1  640   4.784   3.867   4.721
  143WAT     H2  641   4.649   3.866   4.651
  144WAT      O  642   3.717   5.418   4.245
  144WAT     H1  643   3.665   5.456   4.174
  144WAT     H2  644   3.710   5.480   4.317
  145WAT      O  645   3.856   3.984   4.104
  145WAT     H1  646   3.909   3.906   4.091
  145WAT     H2  647   3.919   4.052   4.128
  146WAT      O  648   4.076   3.958   4.410
  146WAT     H1  649   4.013   3.888   4.427
  146WAT     H2  650   4.022   4.034   4.388
  147WAT      O  651   4.088   3.886   5.653
  147WAT     H1  652   4.060   3.936   5.577
  147WAT     H2  653   4.126   3.806   5.617
  148WAT      O  654   3.893   5.224   4.132
  148WAT     H1  655   3.830   5.271   4.187
  148WAT     H2  656   3.905   5.140   4.176
  149WAT      O  657   4.639   4.629   2.747
  149WAT     H1  658   4.631   4.538   2.720
  149WAT     H2  659   4.597   4.679   2.677
  150WAT      O  660   4.452   4.807   2.936
  150WAT     H1  661   4.374   4.759   2.965
  150WAT     H2  662   4.517   4.739   2.918
  151WAT      O  663   3.854   4.838   3.023
  151WAT     H1  664   3.770   4.813   3.063
  151WAT     H2  665   3.914   4.845   3.097
  152WAT      O  666   3.852   5.242   3.043
  152WAT     H1  667   3.882   5.153   3.025
  152WAT     H2  668   3.926   5.297   3.020
  153WAT      O  669   3.695   4.334   2.402
  153WAT     H1  670   3.606   4.369   2.392
  153WAT     H2  671   3.723   4.314   2.313
  154WAT      O  672   3.491   4.594   2.990
  154WAT     H1  673   3.548   4.518   2.990
  154WAT     H2  674   3.491   4.624   2.899
  155WAT      O  675   4.396   5.075   2.936
  155WAT     H1  676   4.389   4.981   2.920
  155WAT     H2  677   4.472   5.084   2.993
  156WAT      O  678   3.615   4.135   3.169
  156WAT     H1  679   3.597   4.046   3.197
  156WAT     H2  680   3.575   4.190   3.236
  157WAT      O  681   4.499   4.355   2.959
  157WAT     H1  682   4.537   4.268   2.948
  157WAT     H2  683   4.489   4.389   2.870
  158WAT      O  684   3.912   4.193   2.505
  158WAT     H1  685   3.923   4.283   2.536
  158WAT     H2  686   3.821   4.188   2.476
  159WAT      O  687   3.677   4.385   3.030
  159WAT     H1  688   3.745   4.411   3.092
  159WAT     H2  689   3.645   4.301   3.063
  160WAT      O  690   4.096   4.490   2.938
  160WAT     H1  691   4.147   4.539   3.002
  160WAT     H2  692   4.149   4.412   2.921
  161WAT      O  693   3.925   3.954   3.365
  161WAT     H1  694   3.925   4.005   3.284
  161WAT     H2  695   3.842   3.906   3.363
  162WAT      O  696   4.563   4.965   2.515
  162WAT     H1  697   4.501   5.011   2.459
  162WAT     H2  698   4.615   5.034   2.557
  163WAT      O  699   4.050   4.918   3.183
  163WAT     H1  700   4.016   4.980   3.247
  163WAT     H2  701   4.067   4.970   3.105
  164WAT      O  702   3.893   4.125   3.166
  164WAT     H1  703   3.927   4.209   3.136
  164WAT     H2  704   3.799   4.140   3.177
  165WAT      O  705   3.971   5.114   3.364
  165WAT     H1  706   4.033   5.182   3.336
  165WAT     H2  707   3.885   5.155   3.355
  166WAT      O  708   3.500   5.033   2.252
  166WAT     H1  709   3.462   5.082   2.179
  166WAT     H2  710   3.526   5.101   2.315
  167WAT      O  711   4.261   3.873   2.798
  167WAT     H1  712   4.292   3.818   2.727
  167WAT     H2  713   4.168   3.887   2.780
  168WAT      O  714   4.500   4.680   2.472
  168WAT     H1  715   4.407   4.673   2.495
  168WAT     H2  716   4.515   4.774   2.460
  169WAT      O  717   4.499   4.307   2.171
  169WAT     H1  718   4.405   4.323   2.180
  169WAT     H2  719   4.530   4.379   2.117
  170WAT      O  720   4.060   4.733   2.750
  170WAT     H1  721   4.020   4.661   2.700
  170WAT     H2  722   4.069   4.698   2.839
  171WAT      O  723   4.107   5.101   2.966
  171WAT     H1  724   4.078   5.041   2.898
  171WAT     H2  725   4.202   5.105   2.955
  172WAT      O  726   3.932   4.410   3.128
  172WAT     H1  727   3.987   4.421   3.050
  172WAT     H2  728   3.983   4.447   3.200
  173WAT      O  729   4.016   5.075   3.631
  173WAT     H1  730   3.927   5.098   3.656
  173WAT     H2  731   4.019   5.087   3.537
  174WAT      O  732   4.720   4.760   2.223
  174WAT     H1  733   4.764   4.676   2.208
  174WAT     H2  734   4.792   4.823   2.231
  175WAT      O  735   3.899   4.762   3.489
  175WAT     H1  736   3.885   4.849   3.526
  175WAT     H2  737   3.811   4.728   3.474
  176WAT      O  738   4.531   5.254   2.620
  176WAT     H1  739   4.575   5.328   2.578
  176WAT     H2  740   4.525   5.278   2.712
  177WAT      O  741   4.079   5.356   3.710
  177WAT     H1  742   4.076   5.397   3.623
  177WAT     H2  743   4.063   5.264   3.694
  178WAT      O  744   3.730   4.622   2.500
  178WAT     H1  745   3.718   4.695   2.439
  178WAT     H2  746   3.699   4.545   2.452
  179WAT      O  747   3.494   4.939   3.081
  179WAT     H1  748   3.502   4.953   2.986
  179WAT     H2  749   3.556   4.868   3.100
  180WAT      O  750   3.619   5.109   2.722
  180WAT     H1  751   3.578   5.123   2.636
  180WAT     H2  752   3.708   5.081   2.701
  181WAT      O  753   3.500   5.043   3.335
  181WAT     H1  754   3.516   4.996   3.253
  181WAT     H2  755   3.546   4.993   3.401
  182WAT      O  756   3.977   3.956   2.838
  182WAT     H1  757   3.933   4.035   2.805
  182WAT     H2  758   4.033   3.989   2.909
  183WAT      O  759   4.406   4.243   3.399
  183WAT     H1  760   4.360   4.264   3.480
  183WAT     H2  761   4.366   4.162   3.368
  184WAT      O  762   4.615   4.515   3.722
  184WAT     H1  763   4.648   4.432   3.688
  184WAT     H2  764   4.694   4.567   3.736
  185WAT      O  765   4.289   3.919   2.326
  185WAT     H1  766   4.226   3.918   2.399
  185WAT     H2  767   4.280   3.832   2.287
  186WAT      O  768   4.181   4.011   3.024
  186WAT     H1  769   4.211   4.102   3.016
  186WAT     H2  770   4.236   3.962   2.963
  187WAT      O  771   3.956   4.469   2.611
  187WAT     H1  772   3.934   4.447   2.702
  187WAT     H2  773   3.878   4.512   2.577
  188WAT      O  774   4.679   4.469   2.471
  188WAT     H1  775   4.619   4.542   2.453
  188WAT     H2  776   4.734   4.463   2.393
  189WAT      O  777   4.200   4.559   3.678
  189WAT     H1  778   4.191   4.465   3.663
  189WAT     H2  779   4.285   4.581   3.638
  190WAT      O  780   4.540   4.333   2.674
  190WAT     H1  781   4.579   4.365   2.593
  190WAT     H2  782   4.576   4.245   2.685
  191WAT      O  783   3.713   4.200   3.493
  191WAT     H1  784   3.674   4.285   3.514
  191WAT     H2  785   3.645   4.136   3.512
  192WAT      O  786   4.371   4.208   3.800
  192WAT     H1  787   4.302   4.189   3.863
  192WAT     H2  788   4.445   4.236   3.853
  193WAT      O  789   3.444   3.992   2.896
  193WAT     H1  790   3.415   4.049   2.968
  193WAT     H2  791   3.518   3.944   2.933
  194WAT      O  792   4.598   4.592   3.084
  194WAT     H1  793   4.525   4.643   3.118
  194WAT     H2  794   4.559   4.510   3.053
  195WAT      O  795   4.242   4.260   2.924
  195WAT     H1  796   4.243   4.216   2.839
  195WAT     H2  797   4.332   4.292   2.935
  196WAT      O  798   3.827   4.248   2.820
  196WAT     H1  799   3.793   4.296   2.896
  196WAT     H2  800   3.751   4.203   2.784
  197WAT      O  801   4.248   4.360   2.223
  197WAT     H1  802   4.261   4.356   2.318
  197WAT     H2  803   4.210   4.446   2.208
  198WAT      O  804   4.645   4.137   3.025
  198WAT     H1  805   4.646   4.183   3.109
  198WAT     H2  806   4.620   4.047   3.046
  199WAT      O  807   4.150   4.591   2.163
  199WAT     H1  808   4.093   4.546   2.100
  199WAT     H2  809   4.220   4.627   2.110
  200WAT      O  810   3.657   4.981   3.551
  200WAT     H1  811   3.619   4.917   3.610
  200WAT     H2  812   3.688   5.051   3.608
  201WAT      O  813   4.272   4.666   3.099
  201WAT     H1  814   4.309   4.618   3.173
  201WAT     H2  815   4.253   4.753   3.133
  202WAT      O  816   3.559   4.140   2.712
  202WAT     H1  817   3.530   4.104   2.795
  202WAT     H2  818   3.552   4.067   2.650
  203WAT      O  819   4.051   4.570   3.331
  203WAT     H1  820   4.021   4.658   3.353
  203WAT     H2  821   4.147   4.576   3.334
  204WAT      O  822   3.904   4.990   2.390
  204WAT     H1  823   3.827   4.936   2.374
  204WAT     H2  824   3.977   4.938   2.356
  205WAT      O  825   4.526   4.029   2.384
  205WAT     H1  826   4.445   3.980   2.376
  205WAT     H2  827   4.507   4.113   2.342
  206WAT      O  828   4.518   4.897   3.558
  206WAT     H1  829   4.512   4.805   3.533
  206WAT     H2  830   4.455   4.907   3.630
  207WAT      O  831   3.908   4.957   2.754
  207WAT     H1  832   3.960   4.877   2.749
  207WAT     H2  833   3.863   4.951   2.838
  208WAT      O  834   4.397   5.084   2.281
  208WAT     H1  835   4.431   5.158   2.232
  208WAT     H2  836   4.314   5.115   2.318
  209WAT      O  837   3.657   4.654   3.445
  209WAT     H1  838   3.621   4.720   3.504
  209WAT     H2  839   3.627   4.571   3.482
  210WAT      O  840   3.977   4.700   3.734
  210WAT     H1  841   3.947   4.714   3.644
  210WAT     H2  842   4.054   4.644   3.724
  211WAT      O  843   4.511   5.179   3.533
  211WAT     H1  844   4.513   5.086   3.511
  211WAT     H2  845   4.441   5.188   3.597
  212WAT      O  846   4.685   5.016   2.818
  212WAT     H1  847   4.721   4.956   2.752
  212WAT     H2  848   4.597   4.983   2.835
  213WAT      O  849   4.294   5.092   2.558
  213WAT     H1  850   4.363   5.147   2.597
  213WAT     H2  851   4.215   5.146   2.562
  214WAT      O  852   3.508   4.654   2.108
  214WAT     H1  853   3.595   4.682   2.136
  214WAT     H2  854   3.459   4.735   2.096
  215WAT      O  855   4.224   4.792   2.520
  215WAT     H1  856   4.270   4.873   2.542
  215WAT     H2  857   4.189   4.761   2.603
  216WAT      O  858   4.455   5.343   3.243
  216WAT     H1  859   4.519   5.364   3.310
  216WAT     H2  860   4.491   5.267   3.197
  217WAT      O  861   3.814   3.827   2.567
  217WAT     H1  862   3.802   3.826   2.662
  217WAT     H2  863   3.732   3.861   2.532
  218WAT      O  864   4.582   5.144   3.114
  218WAT     H1  865   4.646   5.074   3.126
  218WAT     H2  866   4.634   5.222   3.096
  219WAT      O  867   4.759   5.224   3.435
  219WAT     H1  868   4.793   5.282   3.503
  219WAT     H2  869   4.667   5.211   3.458
  220WAT      O  870   3.514   4.003   3.513
  220WAT     H1  871   3.443   4.023   3.574
  220WAT     H2  872   3.556   3.925   3.550
  221WAT      O  873   3.543   5.401   3.612
  221WAT     H1  874   3.554   5.307   3.598
  221WAT     H2  875   3.478   5.428   3.547
  222WAT      O  876   4.342   5.229   3.752
  222WAT     H1  877   4.310   5.157   3.806
  222WAT     H2  878   4.275   5.296   3.759
  223WAT      O  879   4.146   5.313   2.246
  223WAT     H1  880   4.145   5.387   2.184
  223WAT     H2  881   4.054   5.289   2.255
  224WAT      O  882   3.706   4.835   2.320
  224WAT     H1  883   3.646   4.909   2.321
  224WAT     H2  884   3.754   4.844   2.238
  225WAT      O  885   4.664   4.252   3.288
  225WAT     H1  886   4.701   4.170   3.321
  225WAT     H2  887   4.578   4.258   3.330
  226WAT      O  888   4.445   5.320   2.112
  226WAT     H1  889   4.455   5.299   2.019
  226WAT     H2  890   4.355   5.294   2.133
  227WAT      O  891   4.197   4.375   2.510
  227WAT     H1  892   4.126   4.422   2.555
  227WAT     H2  893   4.226   4.310   2.574
  228WAT      O  894   4.360   4.517   3.310
  228WAT     H1  895   4.410   4.565   3.377
  228WAT     H2  896   4.374   4.425   3.331
  229WAT      O  897   4.600   4.048   2.654
  229WAT     H1  898   4.588   4.050   2.560
  229WAT     H2  899   4.695   4.053   2.666
  230WAT      O  900   4.018   4.206   2.248
  230WAT     H1  901   4.102   4.250   2.241
  230WAT     H2  902   3.981   4.237   2.331
  231WAT      O  903   3.907   4.832   2.095
  231WAT     H1  904   3.984   4.820   2.152
  231WAT     H2  905   3.915   4.762   2.030
  232WAT      O  906   3.777   4.575   2.164
  232WAT     H1  907   3.785   4.480   2.175
  232WAT     H2  908   3.866   4.608   2.174
  233WAT      O  909   3.546   5.196   2.461
  233WAT     H1  910   3.453   5.221   2.460
  233WAT     H2  911   3.592   5.279   2.449
  234WAT      O  912   4.641   5.119   3.788
  234WAT     H1  913   4.581   5.121   3.714
  234WAT     H2  914   4.611   5.046   3.841
  235WAT      O  915   3.530   4.757   3.687
  235WAT     H1  916   3.580   4.699   3.744
  235WAT     H2  917   3.456   4.785   3.741
  236WAT      O  918   4.220   5.029   2.043
  236WAT     H1  919   4.209   4.968   2.115
  236WAT     H2  920   4.203   4.977   1.964
  237WAT      O  921   4.235   4.898   3.641
  237WAT     H1  922   4.159   4.954   3.632
  237WAT     H2  923   4.253   4.868   3.551
  238WAT      O  924   4.544   4.935   2.103
  238WAT     H1  925   4.489   4.980   2.168
  238WAT     H2  926   4.606   4.885   2.155
  239WAT      O  927   3.733   4.571   3.777
  239WAT     H1  928   3.737   4.541   3.868
  239WAT     H2  929   3.818   4.611   3.761
  240WAT      O  930   4.111   4.831   2.293
  240WAT     H1  931   4.153   4.815   2.377
  240WAT     H2  932   4.123   4.750   2.243
  241WAT      O  933   3.927   4.429   3.573
  241WAT     H1  934   3.874   4.380   3.511
  241WAT     H2  935   3.994   4.472   3.520
  242WAT      O  936   4.362   4.734   2.018
  242WAT     H1  937   4.414   4.662   1.981
  242WAT     H2  938   4.427   4.797   2.048
  243WAT      O  939   3.976   4.126   3.581
  243WAT     H1  940   3.966   4.064   3.509
  243WAT     H2  941   3.918   4.198   3.559
  244WAT      O  942   4.252   3.981   3.285
  244WAT     H1  943   4.207   3.984   3.200
  244WAT     H2  944   4.189   3.942   3.344
  245WAT      O  945   4.293   4.871   3.347
  245WAT     H1  946   4.335   4.955   3.330
  245WAT     H2  947   4.201   4.885   3.324
  246WAT      O  948   4.527   4.644   3.485
  246WAT     H1  949   4.538   4.585   3.559
  246WAT     H2  950   4.612   4.648   3.443
  247WAT      O  951   4.760   4.700   3.343
  247WAT     H1  952   4.708   4.752   3.282
  247WAT     H2  953   4.795   4.763   3.406
  248WAT      O  954   4.000   4.439   1.987
  248WAT     H1  955   3.980   4.352   2.023
  248WAT     H2  956   3.983   4.430   1.894
  249WAT      O  957   4.203   4.298   3.611
  249WAT     H1  958   4.262   4.268   3.680
  249WAT     H2  959   4.121   4.251   3.627
  250WAT      O  960   4.685   4.260   3.634
  250WAT     H1  961   4.616   4.194   3.628
  250WAT     H2  962   4.757   4.215   3.679
  251WAT      O  963   4.748   3.920   2.240
  251WAT     H1  964   4.776   3.835   2.276
  251WAT     H2  965   4.671   3.943   2.292
  252WAT      O  966   3.880   4.149   1.986
  252WAT     H1  967   3.910   4.149   1.895
  252WAT     H2  968   3.954   4.113   2.036
  253WAT      O  969   4.202   4.043   2.085
  253WAT     H1  970   4.167   3.975   2.027
  253WAT     H2  971   4.222   3.997   2.166
  254WAT      O  972   3.782   5.079   2.069
  254WAT     H1  973   3.826   5.133   2.135
  254WAT     H2  974   3.831   4.996   2.070
  255WAT      O  975   3.504   5.358   2.815
  255WAT     H1  976   3.537   5.271   2.791
  255WAT     H2  977   3.547   5.378   2.898
  256WAT      O  978   3.963   5.191   2.581
  256WAT     H1  979   3.933   5.179   2.671
  256WAT     H2  980   3.953   5.105   2.540
  257WAT      O  981   3.536   4.696   2.724
  257WAT     H1  982   3.471   4.669   2.660
  257WAT     H2  983   3.620   4.685   2.679
  258WAT      O  984   3.640   4.734   3.178
  258WAT     H1  985   3.677   4.726   3.266
  258WAT     H2  986   3.583   4.658   3.168
  259WAT      O  987   3.595   4.425   3.569
  259WAT     H1  988   3.505   4.422   3.603
  259WAT     H2  989   3.649   4.445   3.645
  260WAT      O  990   3.457   4.417   2.319
  260WAT     H1  991   3.367   4.443   2.301
  260WAT     H2  992   3.506   4.444   2.241
  261WAT      O  993   3.712   4.322   2.110
  261WAT     H1  994   3.783   4.280   2.061
  261WAT     H2  995   3.640   4.329   2.046
  262WAT      O  996   3.676   3.928   2.014
  262WAT     H1  997   3.749   3.982   2.045
  262WAT     H2  998   3.704   3.900   1.926
  263WAT      O  999   3.645   3.853   3.004
  263WAT     H1 1000   3.710   3.798   2.960
  263WAT     H2 1001   3.687   3.878   3.086
  264WAT      O 1002   3.621   3.868   3.278
  264WAT     H1 1003   3.586   3.914   3.355
  264WAT     H2 1004   3.588   3.779   3.286
  265WAT      O 1005   3.781   5.186   3.695
  265WAT     H1 1006   3.777   5.149   3.783
  265WAT     H2 1007   3.794   5.279   3.709
  266WAT      O 1008   4.151   5.341   3.255
  266WAT     H1 1009   4.127   5.368   3.166
  266WAT     H2 1010   4.245   5.358   3.260
  267WAT      O 1011   4.372   3.988   3.630
  267WAT     H1 1012   4.366   4.047   3.705
  267WAT     H2 1013   4.466   3.977   3.616
  268WAT      O 1014   4.636   3.953   3.594
  268WAT     H1 1015   4.697   3.985   3.528
  268WAT     H2 1016   4.690   3.905   3.656
  269WAT      O 1017   3.688   3.821   3.606
  269WAT     H1 1018   3.743   3.803   3.529
  269WAT     H2 1019   3.694   3.742   3.659
  270WAT      O 1020   3.765   5.480   3.407
  270WAT     H1 1021   3.706   5.467   3.480
  270WAT     H2 1022   3.764   5.397   3.360
  271WAT      O 1023   4.710   3.810   3.227
  271WAT     H1 1024   4.622   3.843   3.207
  271WAT     H2 1025   4.699   3.762   3.309
  272WAT      O 1026   3.728   5.217   3.302
  272WAT     H1 1027   3.656   5.155   3.295
  272WAT     H2 1028   3.734   5.256   3.215
  273WAT      O 1029   4.089   5.438   2.980
  273WAT     H1 1030   4.140   5.377   2.928
  273WAT     H2 1031   4.154   5.489   3.029
  274WAT      O 1032   4.484   3.901   3.121
  274WAT     H1 1033   4.406   3.949   3.149
  274WAT     H2 1034   4.455   3.811   3.110
  275WAT      O 1035   4.273   4.143   2.672
  275WAT     H1 1036   4.192   4.106   2.638
  275WAT     H2 1037   4.323   4.068   2.702
  276WAT      O 1038   4.723   3.810   2.796
  276WAT     H1 1039   4.784   3.867   2.843
  276WAT     H2 1040   4.649   3.866   2.773
  277WAT      O 1041   3.717   5.418   2.367
  277WAT     H1 1042   3.665   5.456   2.297
  277WAT     H2 1043   3.710   5.480   2.439
  278WAT      O 1044   3.856   3.984   2.227
  278WAT     H1 1045   3.909   3.906   2.214
  278WAT     H2 1046   3.919   4.052   2.250
  279WAT      O 1047   4.076   3.958   2.532
  279WAT     H1 1048   4.013   3.888   2.549
  279WAT     H2 1049   4.022   4.034   2.511
  280WAT      O 1050   4.088   3.886   3.776
  280WAT     H1 1051   4.060   3.936   3.700
  280WAT     H2 1052   4.126   3.806   3.739
  281WAT      O 1053   3.893   5.224   2.255
  281WAT     H1 1054   3.830   5.271   2.310
  281WAT     H2 1055   3.905   5.140   2.298
  282WAT      O 1056   4.639   4.629   0.870
  282WAT     H1 1057   4.631   4.538   0.843
  282WAT     H2 1058   4.597   4.679   0.799
  283WAT      O 1059   4.452   4.807   1.058
  283WAT     H1 1060   4.374   4.759   1.087
  283WAT     H2 1061   4.517   4.739   1.041
  284WAT      O 1062   3.854   4.838   1.146
  284WAT     H1 1063   3.770   4.813   1.186
  284WAT     H2 1064   3.914   4.845   1.219
  285WAT      O 1065   3.852   5.242   1.165
  285WAT     H1 1066   3.882   5.153   1.148
  285WAT     H2 1067   3.926   5.297   1.143
  286WAT      O 1068   3.695   4.334   0.524
  286WAT     H1 1069   3.606   4.369   0.514
  286WAT     H2 1070   3.723   4.314   0.435
  287WAT      O 1071   3.491   4.594   1.113
  287WAT     H1 1072   3.548   4.518   1.113
  287WAT     H2 1073   3.491   4.624   1.022
  288WAT      O 1074   4.396   5.075   1.059
  288WAT     H1 1075   4.389   4.981   1.043
  288WAT     H2 1076   4.472   5.084   1.116
  289WAT      O 1077   3.615   4.135   1.291
  289WAT     H1 1078   3.597   4.046   1.319
  289WAT     H2 1079   3.575   4.190   1.359
  290WAT      O 1080   4.499   4.355   1.082
  290WAT     H1 1081   4.537   4.268   1.070
  290WAT     H2 1082   4.489   4.389   0.992
  291WAT      O 1083   3.912   4.193   0.628
  291WAT     H1 1084   3.923   4.283   0.658
  291WAT     H2 1085   3.821   4.188   0.599
  292WAT      O 1086   3.677   4.385   1.152
  292WAT     H1 1087   3.745   4.411   1.214
  292WAT     H2 1088   3.645   4.301   1.186
  293WAT      O 1089   4.096   4.490   1.061
  293WAT     H1 1090   4.147   4.539   1.125
  293WAT     H2 1091   4.149   4.412   1.043
  294WAT      O 1092   3.925   3.954   1.488
  294WAT     H1 1093   3.925   4.005   1.407
  294WAT     H2 1094   3.842   3.906   1.485
  295WAT      O 1095   4.563   4.965   0.637
  295WAT     H1 1096   4.501   5.011   0.581
  295WAT     H2 1097   4.615   5.034   0.679
  296WAT      O 1098   4.050   4.918   1.305
  296WAT     H1 1099   4.016   4.980   1.370
  296WAT     H2 1100   4.067   4.970   1.227
  297WAT      O 1101   3.893   4.125   1.288
  297WAT     H1 1102   3.927   4.209   1.259
  297WAT     H2 1103   3.799   4.140   1.300
  298WAT      O 1104   3.971   5.114   1.487
  298WAT     H1 1105   4.033   5.182   1.459
  298WAT     H2 1106   3.885   5.155   1.478
  299WAT      O 1107   3.500   5.033   0.375
  299WAT     H1 1108   3.462   5.082   0.302
  299WAT     H2 1109   3.526   5.101   0.438
  300WAT      O 1110   4.261   3.873   0.921
  300WAT     H1 1111   4.292   3.818   0.849
  300WAT     H2 1112   4.168   3.887   0.902
  301WAT      O 1113   4.500   4.680   0.594
  301WAT     H1 1114   4.407   4.673   0.617
  301WAT     H2 1115   4.515   4.774   0.583
  302WAT      O 1116   4.499   4.307   0.294
  302WAT     H1 1117   4.405   4.323   0.303
  302WAT     H2 1118   4.530   4.379   0.239
  303WAT      O 1119   4.060   4.733   0.873
  303WAT     H1 1120   4.020   4.661   0.823
  303WAT     H2 1121   4.069   4.698   0.961
  304WAT      O 1122   4.107   5.101   1.089
  304WAT     H1 1123   4.078   5.041   1.021
  304WAT     H2 1124   4.202   5.105   1.078
  305WAT      O 1125   3.932   4.410   1.251
  305WAT     H1 1126   3.987   4.421   1.173
  305WAT     H2 1127   3.983   4.447   1.322
  306WAT      O 1128   4.016   5.075   1.754
  306WAT     H1 1129   3.927   5.098   1.779
  306WAT     H2 1130   4.019   5.087   1.659
  307WAT      O 1131   4.720   4.760   0.345
  307WAT     H1 1132   4.764   4.676   0.331
  307WAT     H2 1133   4.792   4.823   0.354
  308WAT      O 1134   3.899   4.762   1.612
  308WAT     H1 1135   3.885   4.849   1.648
  308WAT     H2 1136   3.811   4.728   1.597
  309WAT      O 1137   4.531   5.254   0.742
  309WAT     H1 1138   4.575   5.328   0.701
  309WAT     H2 1139   4.525   5.278   0.835
  310WAT      O 1140   4.079   5.356   1.832
  310WAT     H1 1141   4.076   5.397   1.746
  310WAT     H2 1142   4.063   5.264   1.816
  311WAT      O 1143   3.730   4.622   0.623
  311WAT     H1 1144   3.718   4.695   0.561
  311WAT     H2 1145   3.699   4.545   0.575
  312WAT      O 1146   3.494   4.939   1.203
  312WAT     H1 1147   3.502   4.953   1.109
  312WAT     H2 1148   3.556   4.868   1.223
  313WAT      O 1149   3.619   5.109   0.844
  313WAT     H1 1150   3.578   5.123   0.759
  313WAT     H2 1151   3.708   5.081   0.824
  314WAT      O 1152   3.500   5.043   1.457
  314WAT     H1 1153   3.516   4.996   1.375
  314WAT     H2 1154   3.546   4.993   1.524
  315WAT      O 1155   3.977   3.956   0.961
  315WAT     H1 1156   3.933   4.035   0.928
  315WAT     H2 1157   4.033   3.989   1.032
  316WAT      O 1158   4.406   4.243   1.521
  316WAT     H1 1159   4.360   4.264   1.602
  316WAT     H2 1160   4.366   4.162   1.491
  317WAT      O 1161   4.615   4.515   1.844
  317WAT     H1 1162   4.648   4.432   1.810
  317WAT     H2 1163   4.694   4.567   1.859
  318WAT      O 1164   4.289   3.919   0.449
  318WAT     H1 1165   4.226   3.918   0.521
  318WAT     H2 1166   4.280   3.832   0.409
  319WAT      O 1167   4.181   4.011   1.147
  319WAT     H1 1168   4.211   4.102   1.139
  319WAT     H2 1169   4.236   3.962   1.085
  320WAT      O 1170   3.956   4.469   0.734
  320WAT     H1 1171   3.934   4.447   0.824
  320WAT     H2 1172   3.878   4.512   0.699
  321WAT      O 1173   4.679   4.469   0.594
  321WAT     H1 1174   4.619   4.542   0.575
  321WAT     H2 1175   4.734   4.463   0.515
  322WAT      O 1176   4.200   4.559   1.800
  322WAT     H1 1177   4.191   4.465   1.785
  322WAT     H2 1178   4.285   4.581   1.761
  323WAT      O 1179   4.540   4.333   0.797
  323WAT     H1 1180   4.579   4.365   0.715
  323WAT     H2 1181   4.576   4.245   0.808
  324WAT      O 1182   3.713   4.200   1.616
  324WAT     H1 1183   3.674   4.285   1.636
  324WAT     H2 1184   3.645   4.136   1.635
  325WAT      O 1185   4.371   4.208   1.923
  325WAT     H1 1186   4.302   4.189   1.986
  325WAT     H2 1187   4.445   4.236   1.976
  326WAT      O 1188   3.444   3.992   1.019
  326WAT     H1 1189   3.415   4.049   1.090
  326WAT     H2 1190   3.518   3.944   1.055
  327WAT      O 1191   4.598   4.592   1.206
  327WAT     H1 1192   4.525   4.643   1.241
  327WAT     H2 1193   4.559   4.510   1.176
  328WAT      O 1194   4.242   4.260   1.047
  328WAT     H1 1195   4.243   4.216   0.962
  328WAT     H2 1196   4.332   4.292   1.057
  329WAT      O 1197   3.827   4.248   0.943
  329WAT     H1 1198   3.793   4.296   1.018
  329WAT     H2 1199   3.751   4.203   0.907
  330WAT      O 1200   4.248   4.360   0.346
  330WAT     H1 1201   4.261   4.356   0.441
  330WAT     H2 1202   4.210   4.446   0.330
  331WAT      O 1203   4.645   4.137   1.147
  331WAT     H1 1204   4.646   4.183   1.232
  331WAT     H2 1205   4.620   4.047   1.169
  332WAT      O 1206   4.150   4.591   0.286
  332WAT     H1 1207   4.093   4.546   0.223
  332WAT     H2 1208   4.220   4.627   0.232
  333WAT      O 1209   3.657   4.981   1.673
  333WAT     H1 1210   3.619   4.917   1.733
  333WAT     H2 1211   3.688   5.051   1.730
  334WAT      O 1212   4.272   4.666   1.221
  334WAT     H1 1213   4.309   4.618   1.296
  334WAT     H2 1214   4.253   4.753   1.255
  335WAT      O 1215   3.559   4.140   0.834
  335WAT     H1 1216   3.530   4.104   0.918
  335WAT     H2 1217   3.552   4.067   0.773
  336WAT      O 1218   4.051   4.570   1.453
  336WAT     H1 1219   4.021   4.658   1.476
  336WAT     H2 1220   4.147   4.576   1.457
  337WAT      O 1221   3.904   4.990   0.513
  337WAT     H1 1222   3.827   4.936   0.497
  337WAT     H2 1223   3.977   4.938   0.479
  338WAT      O 1224   4.526   4.029   0.506
  338WAT     H1 1225   4.445   3.980   0.499
  338WAT     H2 1226   4.507   4.113   0.465
  339WAT      O 1227   4.518   4.897   1.681
  339WAT     H1 1228   4.512   4.805   1.655
  339WAT     H2 1229   4.455   4.907   1.752
  340WAT      O 1230   3.908   4.957   0.877
  340WAT     H1 1231   3.960   4.877   0.871
  340WAT     H2 1232   3.863   4.951   0.961
  341WAT      O 1233   4.397   5.084   0.404
  341WAT     H1 1234   4.431   5.158   0.354
  341WAT     H2 1235   4.314   5.115   0.440
  342WAT      O 1236   3.657   4.654   1.568
  342WAT     H1 1237   3.621   4.720   1.627
  342WAT     H2 1238   3.627   4.571   1.605
  343WAT      O 1239   3.977   4.700   1.856
  343WAT     H1 1240   3.947   4.714   1.767
  343WAT     H2 1241   4.054   4.644   1.847
  344WAT      O 1242   4.511   5.179   1.656
  344WAT     H1 1243   4.513   5.086   1.634
  344WAT     H2 1244   4.441   5.188   1.720
  345WAT      O 1245   4.685   5.016   0.940
  345WAT     H1 1246   4.721   4.956   0.874
  345WAT     H2 1247   4.597   4.983   0.957
  346WAT      O 1248   4.294   5.092   0.681
  346WAT     H1 1249   4.363   5.147   0.719
  346WAT     H2 1250   4.215   5.146   0.685
  347WAT      O 1251   3.508   4.654   0.230
  347WAT     H1 1252   3.595   4.682   0.259
  347WAT     H2 1253   3.459   4.735   0.219
  348WAT      O 1254   4.224   4.792   0.642
  348WAT     H1 1255   4.270   4.873   0.665
  348WAT     H2 1256   4.189   4.761   0.725
  349WAT      O 1257   4.455   5.343   1.365
  349WAT     H1 1258   4.519   5.364   1.433
  349WAT     H2 1259   4.491   5.267   1.320
  350WAT      O 1260   3.814   3.827   0.689
  350WAT     H1 1261   3.802   3.826   0.784
  350WAT     H2 1262   3.732   3.861   0.654
  351WAT      O 1263   4.582   5.144   1.237
  351WAT     H1 1264   4.646   5.074   1.248
  351WAT     H2 1265   4.634   5.222   1.219
  352WAT      O 1266   4.759   5.224   1.557
  352WAT     H1 1267   4.793   5.282   1.625
  352WAT     H2 1268   4.667   5.211   1.580
  353WAT      O 1269   3.543   5.401   1.734
  353WAT     H1 1270   3.554   5.307   1.720
  353WAT     H2 1271   3.478   5.428   1.669
  354WAT      O 1272   4.342   5.229   1.874
  354WAT     H1 1273   4.310   5.157   1.929
  354WAT     H2 1274   4.275   5.296   1.882
  355WAT      O 1275   4.146   5.313   0.369
  355WAT     H1 1276   4.145   5.387   0.307
  355WAT     H2 1277   4.054   5.289   0.378
  356WAT      O 1278   3.706   4.835   0.443
  356WAT     H1 1279   3.646   4.909   0.444
  356WAT     H2 1280   3.754   4.844   0.360
  357WAT      O 1281   4.664   4.252   1.411
  357WAT     H1 1282   4.701   4.170   1.443
  357WAT     H2 1283   4.578   4.258   1.452
  358WAT      O 1284   4.197   4.375   0.633
  358WAT     H1 1285   4.126   4.422   0.677
  358WAT     H2 1286   4.226   4.310   0.696
  359WAT      O 1287   4.360   4.517   1.433
  359WAT     H1 1288   4.410   4.565   1.499
  359WAT     H2 1289   4.374   4.425   1.454
  360WAT      O 1290   4.600   4.048   0.777
  360WAT     H1 1291   4.588   4.050   0.682
  360WAT     H2 1292   4.695   4.053   0.789
  361WAT      O 1293   4.018   4.206   0.371
  361WAT     H1 1294   4.102   4.250   0.364
  361WAT     H2 1295   3.981   4.237   0.453
  362WAT      O 1296   3.777   4.575   0.286
  362WAT     H1 1297   3.785   4.480   0.297
  362WAT     H2 1298   3.866   4.608   0.297
  363WAT      O 1299   3.546   5.196   0.584
  363WAT     H1 1300   3.453   5.221   0.583
  363WAT     H2 1301   3.592   5.279   0.572
  364WAT      O 1302   4.641   5.119   1.910
  364WAT     H1 1303   4.581   5.121   1.836
  364WAT     H2 1304   4.611   5.046   1.964
  365WAT      O 1305   3.530   4.757   1.810
  365WAT     H1 1306   3.580   4.699   1.867
  365WAT     H2 1307   3.456   4.785   1.864
  366WAT      O 1308   4.235   4.898   1.763
  366WAT     H1 1309   4.159   4.954   1.755
  366WAT     H2 1310   4.253   4.868   1.674
  367WAT      O 1311   4.544   4.935   0.226
  367WAT     H1 1312   4.489   4.980   0.290
  367WAT     H2 1313   4.606   4.885   0.278
  368WAT      O 1314   3.733   4.571   1.899
  368WAT     H1 1315   3.737   4.541   1.990
  368WAT     H2 1316   3.818   4.611   1.883
  369WAT      O 1317   4.111   4.831   0.415
  369WAT     H1 1318   4.153   4.815   0.500
  369WAT     H2 1319   4.123   4.750   0.366
  370WAT      O 1320   3.927   4.429   1.696
  370WAT     H1 1321   3.874   4.380   1.633
  370WAT     H2 1322   3.994   4.472   1.643
  371WAT      O 1323   3.976   4.126   1.704
  371WAT     H1 1324   3.966   4.064   1.632
  371WAT     H2 1325   3.918   4.198   1.681
  372WAT      O 1326   4.252   3.981   1.407
  372WAT     H1 1327   4.207   3.984   1.323
  372WAT     H2 1328   4.189   3.942   1.467
  373WAT      O 1329   4.293   4.871   1.469
  373WAT     H1 1330   4.335   4.955   1.452
  373WAT     H2 1331   4.201   4.885   1.446
  374WAT      O 1332   4.527   4.644   1.608
  374WAT     H1 1333   4.538   4.585   1.682
  374WAT     H2 1334   4.612   4.648   1.566
  375WAT      O 1335   4.760   4.700   1.465
  375WAT     H1 1336   4.708   4.752   1.405
  375WAT     H2 1337   4.795   4.763   1.528
  376WAT      O 1338   4.203   4.298   1.734
  376WAT     H1 1339   4.262   4.268   1.802
  376WAT     H2 1340   4.121   4.251   1.749
  377WAT      O 1341   4.685   4.260   1.757
  377WAT     H1 1342   4.616   4.194   1.750
  377WAT     H2 1343   4.757   4.215   1.801
  378WAT      O 1344   4.748   3.920   0.363
  378WAT     H1 1345   4.776   3.835   0.398
  378WAT     H2 1346   4.671   3.943   0.414
  379WAT      O 1347   3.782   5.079   0.192
  379WAT     H1 1348   3.826   5.133   0.258
  379WAT     H2 1349   3.831   4.996   0.193
  380WAT      O 1350   3.504   5.358   0.937
  380WAT     H1 1351   3.537   5.271   0.914
  380WAT     H2 1352   3.547   5.378   1.020
  381WAT      O 1353   3.963   5.191   0.703
  381WAT     H1 1354   3.933   5.179   0.793
  381WAT     H2 1355   3.953   5.105   0.662
  382WAT      O 1356   3.536   4.696   0.847
  382WAT     H1 1357   3.471   4.669   0.782
  382WAT     H2 1358   3.620   4.685   0.802
  383WAT      O 1359   3.640   4.734   1.301
  383WAT     H1 1360   3.677   4.726   1.389
  383WAT     H2 1361   3.583   4.658   1.291
  384WAT      O 1362   3.595   4.425   1.691
  384WAT     H1 1363   3.505   4.422   1.725
  384WAT     H2 1364   3.649   4.445   1.768
  385WAT      O 1365   3.457   4.417   0.441
  385WAT     H1 1366   3.367   4.443   0.424
  385WAT     H2 1367   3.506   4.444   0.363
  386WAT      O 1368   3.712   4.322   0.232
  386WAT     H1 1369   3.783   4.280   0.184
  386WAT     H2 1370   3.640   4.329   0.169
  387WAT      O 1371   3.645   3.853   1.126
  387WAT     H1 1372   3.710   3.798   1.082
  387WAT     H2 1373   3.687   3.878   1.208
  388WAT      O 1374   3.621   3.868   1.401
  388WAT     H1 1375   3.586   3.914   1.477
  388WAT     H2 1376   3.588   3.779   1.409
  389WAT      O 1377   3.781   5.186   1.817
  389WAT     H1 1378   3.777   5.149   1.905
  389WAT     H2 1379   3.794   5.279   1.831
  390WAT      O 1380   4.151   5.341   1.377
  390WAT     H1 1381   4.127   5.368   1.289
  390WAT     H2 1382   4.245   5.358   1.383
  391WAT      O 1383   4.372   3.988   1.753
  391WAT     H1 1384   4.366   4.047   1.828
  391WAT     H2 1385   4.466   3.977   1.738
  392WAT      O 1386   4.636   3.953   1.717
  392WAT     H1 1387   4.697   3.985   1.651
  392WAT     H2 1388   4.690   3.905   1.779
  393WAT      O 1389   3.765   5.480   1.529
  393WAT     H1 1390   3.706   5.467   1.603
  393WAT     H2 1391   3.764   5.397   1.483
  394WAT      O 1392   4.710   3.810   1.349
  394WAT     H1 1393   4.622   3.843   1.329
  394WAT     H2 1394   4.699   3.762   1.432
  395WAT      O 1395   3.728   5.217   1.424
  395WAT     H1 1396   3.656   5.155   1.417
  395WAT     H2 1397   3.734   5.256   1.337
  396WAT      O 1398   4.089   5.438   1.103
  396WAT     H1 1399   4.140   5.377   1.050
  396WAT     H2 1400   4.154   5.489   1.152
  397WAT      O 1401   4.484   3.901   1.243
  397WAT     H1 1402   4.406   3.949   1.271
  397WAT     H2 1403   4.455   3.811   1.232
  398WAT      O 1404   3.619   3.932   0.495
  398WAT     H1 1405   3.695   3.943   0.438
  398WAT     H2 1406   3.573   4.015   0.491
  399WAT      O 1407   4.273   4.143   0.794
  399WAT     H1 1408   4.192   4.106   0.760
  399WAT     H2 1409   4.323   4.068   0.825
  400WAT      O 1410   4.723   3.810   0.918
  400WAT     H1 1411   4.784   3.867   0.966
  400WAT     H2 1412   4.649   3.866   0.896
  401WAT      O 1413   3.717   5.418   0.490
  401WAT     H1 1414   3.665   5.456   0.419
  401WAT     H2 1415   3.710   5.480   0.562
  402WAT      O 1416   3.856   3.984   0.349
  402WAT     H1 1417   3.909   3.906   0.337
  402WAT     H2 1418   3.919   4.052   0.373
  403WAT      O 1419   4.076   3.958   0.655
  403WAT     H1 1420   4.013   3.888   0.672
  403WAT     H2 1421   4.022   4.034   0.633
  404WAT      O 1422   4.088   3.886   1.898
  404WAT     H1 1423   4.060   3.936   1.822
  404WAT     H2 1424   4.126   3.806   1.862
  405WAT      O 1425   3.893   5.224   0.378
  405WAT     H1 1426   3.830   5.271   0.432
  405WAT     H2 1427   3.905   5.140   0.421
  406WAT      O 1428   4.639   2.752   4.625
  406WAT     H1 1429   4.631   2.661   4.598
  406WAT     H2 1430   4.597   2.802   4.554
  407WAT      O 1431   4.452   2.930   4.813
  407WAT     H1 1432   4.374   2.882   4.842
  407WAT     H2 1433   4.517   2.862   4.796
  408WAT      O 1434   3.854   2.961   4.901
  408WAT     H1 1435   3.770   2.935   4.941
  408WAT     H2 1436   3.914   2.968   4.974
  409WAT      O 1437   3.852   3.364   4.920
  409WAT     H1 1438   3.882   3.275   4.902
  409WAT     H2 1439   3.926   3.420   4.898
  410WAT      O 1440   3.695   2.457   4.279
  410WAT     H1 1441   3.606   2.491   4.269
  410WAT     H2 1442   3.723   2.437   4.190
  411WAT      O 1443   3.491   2.717   4.868
  411WAT     H1 1444   3.548   2.640   4.868
  411WAT     H2 1445   3.491   2.747   4.777
  412WAT      O 1446   4.477   3.599   4.653
  412WAT     H1 1447   4.415   3.645   4.596
  412WAT     H2 1448   4.562   3.614   4.613
  413WAT      O 1449   4.396   3.197   4.814
  413WAT     H1 1450   4.389   3.103   4.798
  413WAT     H2 1451   4.472   3.206   4.871
  414WAT      O 1452   3.615   2.258   5.046
  414WAT     H1 1453   3.597   2.168   5.074
  414WAT     H2 1454   3.575   2.313   5.114
  415WAT      O 1455   4.499   2.478   4.836
  415WAT     H1 1456   4.537   2.391   4.825
  415WAT     H2 1457   4.489   2.512   4.747
  416WAT      O 1458   3.912   2.315   4.383
  416WAT     H1 1459   3.923   2.405   4.413
  416WAT     H2 1460   3.821   2.310   4.354
  417WAT      O 1461   3.677   2.507   4.907
  417WAT     H1 1462   3.745   2.534   4.969
  417WAT     H2 1463   3.645   2.423   4.940
  418WAT      O 1464   4.096   2.612   4.816
  418WAT     H1 1465   4.147   2.662   4.880
  418WAT     H2 1466   4.149   2.534   4.798
  419WAT      O 1467   3.925   2.076   5.242
  419WAT     H1 1468   3.925   2.128   5.162
  419WAT     H2 1469   3.842   2.028   5.240
  420WAT      O 1470   4.563   3.087   4.392
  420WAT     H1 1471   4.501   3.134   4.336
  420WAT     H2 1472   4.615   3.157   4.434
  421WAT      O 1473   4.050   3.040   5.060
  421WAT     H1 1474   4.016   3.103   5.124
  421WAT     H2 1475   4.067   3.093   4.982
  422WAT      O 1476   3.893   2.247   5.043
  422WAT     H1 1477   3.927   2.332   5.014
  422WAT     H2 1478   3.799   2.262   5.055
  423WAT      O 1479   3.971   3.237   5.242
  423WAT     H1 1480   4.033   3.304   5.214
  423WAT     H2 1481   3.885   3.278   5.233
  424WAT      O 1482   3.500   3.156   4.130
  424WAT     H1 1483   3.462   3.205   4.057
  424WAT     H2 1484   3.526   3.223   4.193
  425WAT      O 1485   4.261   1.996   4.676
  425WAT     H1 1486   4.292   1.941   4.604
  425WAT     H2 1487   4.168   2.009   4.657
  426WAT      O 1488   4.500   2.803   4.349
  426WAT     H1 1489   4.407   2.796   4.372
  426WAT     H2 1490   4.515   2.896   4.338
  427WAT      O 1491   4.499   2.430   4.049
  427WAT     H1 1492   4.405   2.446   4.057
  427WAT     H2 1493   4.530   2.502   3.994
  428WAT      O 1494   4.060   2.855   4.627
  428WAT     H1 1495   4.020   2.784   4.578
  428WAT     H2 1496   4.069   2.821   4.716
  429WAT      O 1497   4.107   3.224   4.844
  429WAT     H1 1498   4.078   3.163   4.776
  429WAT     H2 1499   4.202   3.228   4.833
  430WAT      O 1500   3.932   2.533   5.005
  430WAT     H1 1501   3.987   2.544   4.928
  430WAT     H2 1502   3.983   2.570   5.077
  431WAT      O 1503   4.016   3.198   5.509
  431WAT     H1 1504   3.927   3.220   5.534
  431WAT     H2 1505   4.019   3.210   5.414
  432WAT      O 1506   4.720   2.883   4.100
  432WAT     H1 1507   4.764   2.799   4.086
  432WAT     H2 1508   4.792   2.946   4.109
  433WAT      O 1509   3.899   2.885   5.366
  433WAT     H1 1510   3.885   2.972   5.403
  433WAT     H2 1511   3.811   2.851   5.352
  434WAT      O 1512   4.531   3.377   4.497
  434WAT     H1 1513   4.575   3.451   4.456
  434WAT     H2 1514   4.525   3.401   4.589
  435WAT      O 1515   4.079   3.479   5.587
  435WAT     H1 1516   4.076   3.519   5.501
  435WAT     H2 1517   4.063   3.386   5.571
  436WAT      O 1518   3.730   2.745   4.377
  436WAT     H1 1519   3.718   2.817   4.316
  436WAT     H2 1520   3.699   2.668   4.330
  437WAT      O 1521   3.494   3.062   4.958
  437WAT     H1 1522   3.502   3.075   4.864
  437WAT     H2 1523   3.556   2.991   4.977
  438WAT      O 1524   3.619   3.232   4.599
  438WAT     H1 1525   3.578   3.246   4.514
  438WAT     H2 1526   3.708   3.203   4.579
  439WAT      O 1527   4.601   3.647   5.290
  439WAT     H1 1528   4.652   3.638   5.370
  439WAT     H2 1529   4.516   3.681   5.319
  440WAT      O 1530   4.798   3.675   4.233
  440WAT     H1 1531   4.782   3.646   4.323
  440WAT     H2 1532   4.782   3.598   4.179
  441WAT      O 1533   4.046   3.653   4.410
  441WAT     H1 1534   4.028   3.562   4.389
  441WAT     H2 1535   3.961   3.689   4.434
  442WAT      O 1536   4.725   3.589   4.496
  442WAT     H1 1537   4.770   3.511   4.528
  442WAT     H2 1538   4.759   3.660   4.551
  443WAT      O 1539   3.500   3.166   5.212
  443WAT     H1 1540   3.516   3.119   5.130
  443WAT     H2 1541   3.546   3.115   5.279
  444WAT      O 1542   3.977   2.079   4.716
  444WAT     H1 1543   3.933   2.157   4.683
  444WAT     H2 1544   4.033   2.111   4.786
  445WAT      O 1545   4.406   2.366   5.276
  445WAT     H1 1546   4.360   2.387   5.357
  445WAT     H2 1547   4.366   2.284   5.246
  446WAT      O 1548   4.615   2.638   5.599
  446WAT     H1 1549   4.648   2.554   5.565
  446WAT     H2 1550   4.694   2.690   5.614
  447WAT      O 1551   4.289   2.041   4.204
  447WAT     H1 1552   4.226   2.041   4.276
  447WAT     H2 1553   4.280   1.954   4.164
  448WAT      O 1554   4.181   2.133   4.902
  448WAT     H1 1555   4.211   2.224   4.894
  448WAT     H2 1556   4.236   2.085   4.840
  449WAT      O 1557   3.956   2.591   4.489
  449WAT     H1 1558   3.934   2.570   4.579
  449WAT     H2 1559   3.878   2.635   4.454
  450WAT      O 1560   4.679   2.592   4.348
  450WAT     H1 1561   4.619   2.664   4.330
  450WAT     H2 1562   4.734   2.586   4.270
  451WAT      O 1563   4.200   2.681   5.555
  451WAT     H1 1564   4.191   2.587   5.540
  451WAT     H2 1565   4.285   2.703   5.516
  452WAT      O 1566   4.540   2.456   4.551
  452WAT     H1 1567   4.579   2.487   4.470
  452WAT     H2 1568   4.576   2.368   4.563
  453WAT      O 1569   3.713   2.322   5.370
  453WAT     H1 1570   3.674   2.407   5.391
  453WAT     H2 1571   3.645   2.259   5.390
  454WAT      O 1572   3.444   2.115   4.774
  454WAT     H1 1573   3.415   2.172   4.845
  454WAT     H2 1574   3.518   2.067   4.810
  455WAT      O 1575   3.462   2.509   3.895
  455WAT     H1 1576   3.454   2.603   3.909
  455WAT     H2 1577   3.427   2.495   3.807
  456WAT      O 1578   4.598   2.715   4.961
  456WAT     H1 1579   4.525   2.766   4.996
  456WAT     H2 1580   4.559   2.633   4.931
  457WAT      O 1581   4.242   2.382   4.801
  457WAT     H1 1582   4.243   2.338   4.717
  457WAT     H2 1583   4.332   2.414   4.812
  458WAT      O 1584   3.827   2.370   4.697
  458WAT     H1 1585   3.793   2.418   4.773
  458WAT     H2 1586   3.751   2.325   4.661
  459WAT      O 1587   4.248   2.482   4.101
  459WAT     H1 1588   4.261   2.478   4.195
  459WAT     H2 1589   4.210   2.569   4.085
  460WAT      O 1590   4.645   2.260   4.902
  460WAT     H1 1591   4.646   2.305   4.987
  460WAT     H2 1592   4.620   2.170   4.924
  461WAT      O 1593   4.150   2.713   4.040
  461WAT     H1 1594   4.093   2.669   3.978
  461WAT     H2 1595   4.220   2.749   3.987
  462WAT      O 1596   3.657   3.103   5.428
  462WAT     H1 1597   3.619   3.039   5.488
  462WAT     H2 1598   3.688   3.174   5.485
  463WAT      O 1599   4.272   2.788   4.976
  463WAT     H1 1600   4.309   2.741   5.051
  463WAT     H2 1601   4.253   2.876   5.010
  464WAT      O 1602   3.559   2.263   4.589
  464WAT     H1 1603   3.530   2.226   4.673
  464WAT     H2 1604   3.552   2.189   4.528
  465WAT      O 1605   4.051   2.692   5.208
  465WAT     H1 1606   4.021   2.780   5.230
  465WAT     H2 1607   4.147   2.698   5.212
  466WAT      O 1608   3.904   3.113   4.268
  466WAT     H1 1609   3.827   3.059   4.252
  466WAT     H2 1610   3.977   3.061   4.234
  467WAT      O 1611   4.526   2.152   4.261
  467WAT     H1 1612   4.445   2.102   4.254
  467WAT     H2 1613   4.507   2.236   4.220
  468WAT      O 1614   4.518   3.020   5.436
  468WAT     H1 1615   4.512   2.928   5.410
  468WAT     H2 1616   4.455   3.029   5.507
  469WAT      O 1617   3.908   3.080   4.631
  469WAT     H1 1618   3.960   2.999   4.626
  469WAT     H2 1619   3.863   3.074   4.716
  470WAT      O 1620   4.397   3.206   4.159
  470WAT     H1 1621   4.431   3.281   4.109
  470WAT     H2 1622   4.314   3.238   4.195
  471WAT      O 1623   3.657   2.776   5.323
  471WAT     H1 1624   3.621   2.843   5.381
  471WAT     H2 1625   3.627   2.693   5.360
  472WAT      O 1626   3.977   2.822   5.611
  472WAT     H1 1627   3.947   2.837   5.521
  472WAT     H2 1628   4.054   2.766   5.602
  473WAT      O 1629   4.511   3.302   5.411
  473WAT     H1 1630   4.513   3.209   5.389
  473WAT     H2 1631   4.441   3.310   5.475
  474WAT      O 1632   4.685   3.139   4.695
  474WAT     H1 1633   4.721   3.079   4.629
  474WAT     H2 1634   4.597   3.106   4.712
  475WAT      O 1635   4.294   3.215   4.436
  475WAT     H1 1636   4.363   3.269   4.474
  475WAT     H2 1637   4.215   3.269   4.439
  476WAT      O 1638   3.508   2.776   3.985
  476WAT     H1 1639   3.595   2.804   4.013
  476WAT     H2 1640   3.459   2.858   3.974
  477WAT      O 1641   4.224   2.915   4.397
  477WAT     H1 1642   4.270   2.996   4.420
  477WAT     H2 1643   4.189   2.883   4.480
  478WAT      O 1644   4.455   3.466   5.120
  478WAT     H1 1645   4.519   3.487   5.188
  478WAT     H2 1646   4.491   3.390   5.075
  479WAT      O 1647   3.814   1.949   4.444
  479WAT     H1 1648   3.802   1.949   4.539
  479WAT     H2 1649   3.732   1.983   4.409
  480WAT      O 1650   4.582   3.266   4.992
  480WAT     H1 1651   4.646   3.196   5.003
  480WAT     H2 1652   4.634   3.344   4.974
  481WAT      O 1653   4.759   3.346   5.312
  481WAT     H1 1654   4.793   3.405   5.380
  481WAT     H2 1655   4.667   3.333   5.335
  482WAT      O 1656   3.545   3.698   4.042
  482WAT     H1 1657   3.581   3.757   3.976
  482WAT     H2 1658   3.531   3.752   4.119
  483WAT      O 1659   3.514   2.125   5.390
  483WAT     H1 1660   3.443   2.145   5.451
  483WAT     H2 1661   3.556   2.048   5.428
  484WAT      O 1662   3.543   3.524   5.489
  484WAT     H1 1663   3.554   3.430   5.475
  484WAT     H2 1664   3.478   3.551   5.424
  485WAT      O 1665   4.146   3.436   4.123
  485WAT     H1 1666   4.145   3.509   4.062
  485WAT     H2 1667   4.054   3.411   4.133
  486WAT      O 1668   3.706   2.958   4.198
  486WAT     H1 1669   3.646   3.032   4.199
  486WAT     H2 1670   3.754   2.967   4.115
  487WAT      O 1671   4.664   2.374   5.165
  487WAT     H1 1672   4.701   2.292   5.198
  487WAT     H2 1673   4.578   2.380   5.207
  488WAT      O 1674   4.445   3.442   3.990
  488WAT     H1 1675   4.455   3.422   3.897
  488WAT     H2 1676   4.355   3.417   4.010
  489WAT      O 1677   4.197   2.498   4.388
  489WAT     H1 1678   4.126   2.545   4.432
  489WAT     H2 1679   4.226   2.432   4.451
  490WAT      O 1680   4.360   2.640   5.188
  490WAT     H1 1681   4.410   2.687   5.254
  490WAT     H2 1682   4.374   2.548   5.209
  491WAT      O 1683   4.600   2.170   4.532
  491WAT     H1 1684   4.588   2.172   4.437
  491WAT     H2 1685   4.695   2.175   4.544
  492WAT      O 1686   4.309   3.694   4.459
  492WAT     H1 1687   4.335   3.690   4.367
  492WAT     H2 1688   4.214   3.681   4.458
  493WAT      O 1689   4.018   2.329   4.125
  493WAT     H1 1690   4.102   2.372   4.119
  493WAT     H2 1691   3.981   2.360   4.208
  494WAT      O 1692   3.907   2.954   3.973
  494WAT     H1 1693   3.984   2.943   4.029
  494WAT     H2 1694   3.915   2.884   3.908
  495WAT      O 1695   3.777   2.697   4.041
  495WAT     H1 1696   3.785   2.603   4.052
  495WAT     H2 1697   3.866   2.730   4.052
  496WAT      O 1698   3.857   3.712   4.751
  496WAT     H1 1699   3.931   3.657   4.779
  496WAT     H2 1700   3.896   3.799   4.737
  497WAT      O 1701   3.546   3.319   4.339
  497WAT     H1 1702   3.453   3.343   4.338
  497WAT     H2 1703   3.592   3.402   4.327
  498WAT      O 1704   4.168   3.630   3.934
  498WAT     H1 1705   4.247   3.658   3.889
  498WAT     H2 1706   4.116   3.587   3.866
  499WAT      O 1707   3.530   2.879   5.565
  499WAT     H1 1708   3.580   2.822   5.622
  499WAT     H2 1709   3.456   2.908   5.618
  500WAT      O 1710   4.220   3.152   3.920
  500WAT     H1 1711   4.209   3.090   3.993
  500WAT     H2 1712   4.203   3.099   3.842
  501WAT      O 1713   4.235   3.020   5.518
  501WAT     H1 1714   4.159   3.077   5.510
  501WAT     H2 1715   4.253   2.991   5.429
  502WAT      O 1716   4.544   3.058   3.981
  502WAT     H1 1717   4.489   3.103   4.045
  502WAT     H2 1718   4.606   3.007   4.033
  503WAT      O 1719   4.111   2.954   4.170
  503WAT     H1 1720   4.153   2.937   4.254
  503WAT     H2 1721   4.123   2.873   4.121
  504WAT      O 1722   3.927   2.552   5.451
  504WAT     H1 1723   3.874   2.503   5.388
  504WAT     H2 1724   3.994   2.595   5.397
  505WAT      O 1725   4.362   2.856   3.895
  505WAT     H1 1726   4.414   2.785   3.858
  505WAT     H2 1727   4.427   2.920   3.925
  506WAT      O 1728   3.976   2.248   5.459
  506WAT     H1 1729   3.966   2.187   5.386
  506WAT     H2 1730   3.918   2.321   5.436
  507WAT      O 1731   4.252   2.104   5.162
  507WAT     H1 1732   4.207   2.106   5.078
  507WAT     H2 1733   4.189   2.064   5.222
  508WAT      O 1734   4.293   2.994   5.224
  508WAT     H1 1735   4.335   3.078   5.207
  508WAT     H2 1736   4.201   3.007   5.201
  509WAT      O 1737   4.527   2.767   5.363
  509WAT     H1 1738   4.538   2.707   5.437
  509WAT     H2 1739   4.612   2.770   5.321
  510WAT      O 1740   4.760   2.822   5.220
  510WAT     H1 1741   4.708   2.875   5.160
  510WAT     H2 1742   4.795   2.885   5.283
  511WAT      O 1743   4.000   2.561   3.865
  511WAT     H1 1744   3.980   2.475   3.901
  511WAT     H2 1745   3.983   2.552   3.771
  512WAT      O 1746   4.078   3.624   5.336
  512WAT     H1 1747   4.024   3.697   5.304
  512WAT     H2 1748   4.103   3.576   5.257
  513WAT      O 1749   4.203   2.421   5.488
  513WAT     H1 1750   4.262   2.390   5.557
  513WAT     H2 1751   4.121   2.374   5.504
  514WAT      O 1752   4.685   2.383   5.512
  514WAT     H1 1753   4.616   2.316   5.505
  514WAT     H2 1754   4.757   2.338   5.556
  515WAT      O 1755   4.748   2.042   4.118
  515WAT     H1 1756   4.776   1.958   4.153
  515WAT     H2 1757   4.671   2.065   4.169
  516WAT      O 1758   3.880   2.271   3.864
  516WAT     H1 1759   3.910   2.272   3.773
  516WAT     H2 1760   3.954   2.236   3.913
  517WAT      O 1761   4.364   3.748   5.362
  517WAT     H1 1762   4.356   3.838   5.392
  517WAT     H2 1763   4.273   3.716   5.359
  518WAT      O 1764   4.202   2.165   3.962
  518WAT     H1 1765   4.167   2.098   3.904
  518WAT     H2 1766   4.222   2.119   4.044
  519WAT      O 1767   4.418   3.664   4.124
  519WAT     H1 1768   4.508   3.698   4.126
  519WAT     H2 1769   4.422   3.592   4.061
  520WAT      O 1770   3.782   3.201   3.947
  520WAT     H1 1771   3.826   3.256   4.012
  520WAT     H2 1772   3.831   3.119   3.948
  521WAT      O 1773   3.504   3.480   4.692
  521WAT     H1 1774   3.537   3.394   4.669
  521WAT     H2 1775   3.547   3.501   4.775
  522WAT      O 1776   3.963   3.313   4.458
  522WAT     H1 1777   3.933   3.301   4.548
  522WAT     H2 1778   3.953   3.228   4.417
  523WAT      O 1779   3.553   3.567   4.966
  523WAT     H1 1780   3.509   3.585   5.049
  523WAT     H2 1781   3.610   3.643   4.952
  524WAT      O 1782   3.536   2.818   4.602
  524WAT     H1 1783   3.471   2.791   4.537
  524WAT     H2 1784   3.620   2.807   4.557
  525WAT      O 1785   3.640   2.857   5.056
  525WAT     H1 1786   3.677   2.848   5.144
  525WAT     H2 1787   3.583   2.780   5.046
  526WAT      O 1788   3.595   2.548   5.446
  526WAT     H1 1789   3.505   2.545   5.480
  526WAT     H2 1790   3.649   2.568   5.523
  527WAT      O 1791   3.457   2.539   4.196
  527WAT     H1 1792   3.367   2.566   4.179
  527WAT     H2 1793   3.506   2.566   4.118
  528WAT      O 1794   3.712   2.445   3.987
  528WAT     H1 1795   3.783   2.403   3.938
  528WAT     H2 1796   3.640   2.452   3.924
  529WAT      O 1797   3.676   2.050   3.891
  529WAT     H1 1798   3.749   2.104   3.923
  529WAT     H2 1799   3.704   2.023   3.803
  530WAT      O 1800   3.645   1.975   4.881
  530WAT     H1 1801   3.710   1.920   4.837
  530WAT     H2 1802   3.687   2.001   4.963
  531WAT      O 1803   3.621   1.991   5.155
  531WAT     H1 1804   3.586   2.037   5.232
  531WAT     H2 1805   3.588   1.902   5.164
  532WAT      O 1806   4.151   3.464   5.132
  532WAT     H1 1807   4.127   3.490   5.043
  532WAT     H2 1808   4.245   3.481   5.138
  533WAT      O 1809   4.372   2.110   5.508
  533WAT     H1 1810   4.366   2.169   5.583
  533WAT     H2 1811   4.466   2.099   5.493
  534WAT      O 1812   4.636   2.076   5.472
  534WAT     H1 1813   4.697   2.108   5.405
  534WAT     H2 1814   4.690   2.027   5.534
  535WAT      O 1815   3.688   1.944   5.483
  535WAT     H1 1816   3.743   1.926   5.407
  535WAT     H2 1817   3.694   1.865   5.537
  536WAT      O 1818   3.765   3.603   5.284
  536WAT     H1 1819   3.706   3.590   5.358
  536WAT     H2 1820   3.764   3.519   5.237
  537WAT      O 1821   4.710   1.932   5.104
  537WAT     H1 1822   4.622   1.965   5.084
  537WAT     H2 1823   4.699   1.885   5.187
  538WAT      O 1824   3.728   3.339   5.179
  538WAT     H1 1825   3.656   3.277   5.172
  538WAT     H2 1826   3.734   3.379   5.092
  539WAT      O 1827   4.089   3.561   4.858
  539WAT     H1 1828   4.140   3.500   4.805
  539WAT     H2 1829   4.154   3.611   4.907
  540WAT      O 1830   4.363   3.650   4.940
  540WAT     H1 1831   4.391   3.624   4.853
  540WAT     H2 1832   4.414   3.595   4.999
  541WAT      O 1833   4.484   2.024   4.998
  541WAT     H1 1834   4.406   2.071   5.026
  541WAT     H2 1835   4.455   1.933   4.987
  542WAT      O 1836   3.557   3.671   4.500
  542WAT     H1 1837   3.540   3.608   4.570
  542WAT     H2 1838   3.470   3.692   4.465
  543WAT      O 1839   3.619   2.054   4.250
  543WAT     H1 1840   3.695   2.066   4.193
  543WAT     H2 1841   3.573   2.138   4.246
  544WAT      O 1842   4.273   2.266   4.549
  544WAT     H1 1843   4.192   2.228   4.515
  544WAT     H2 1844   4.323   2.190   4.580
  545WAT      O 1845   4.723   1.932   4.673
  545WAT     H1 1846   4.784   1.989   4.721
  545WAT     H2 1847   4.649   1.988   4.651
  546WAT      O 1848   3.717   3.540   4.245
  546WAT     H1 1849   3.665   3.579   4.174
  546WAT     H2 1850   3.710   3.603   4.317
  547WAT      O 1851   3.856   2.107   4.104
  547WAT     H1 1852   3.909   2.028   4.091
  547WAT     H2 1853   3.919   2.175   4.128
  548WAT      O 1854   4.076   2.081   4.410
  548WAT     H1 1855   4.013   2.011   4.427
  548WAT     H2 1856   4.022   2.157   4.388
  549WAT      O 1857   4.088   2.008   5.653
  549WAT     H1 1858   4.060   2.059   5.577
  549WAT     H2 1859   4.126   1.929   5.617
  550WAT      O 1860   3.977   3.735   4.132
  550WAT     H1 1861   4.050   3.707   4.077
  550WAT     H2 1862   4.003   3.711   4.221
  551WAT      O 1863   3.893   3.347   4.132
  551WAT     H1 1864   3.830   3.394   4.187
  551WAT     H2 1865   3.905   3.262   4.176
  552WAT      O 1866   4.639   2.752   2.747
  552WAT     H1 1867   4.631   2.661   2.720
  552WAT     H2 1868   4.597   2.802   2.677
  553WAT      O 1869   4.452   2.930   2.936
  553WAT     H1 1870   4.374   2.882   2.965
  553WAT     H2 1871   4.517   2.862   2.918
  554WAT      O 1872   3.854   2.961   3.023
  554WAT     H1 1873   3.770   2.935   3.063
  554WAT     H2 1874   3.914   2.968   3.097
  555WAT      O 1875   3.852   3.364   3.043
  555WAT     H1 1876   3.882   3.275   3.025
  555WAT     H2 1877   3.926   3.420   3.020
  556WAT      O 1878   3.695   2.457   2.402
  556WAT     H1 1879   3.606   2.491   2.392
  556WAT     H2 1880   3.723   2.437   2.313
  557WAT      O 1881   3.491   2.717   2.990
  557WAT     H1 1882   3.548   2.640   2.990
  557WAT     H2 1883   3.491   2.747   2.899
  558WAT      O 1884   4.477   3.599   2.776
  558WAT     H1 1885   4.415   3.645   2.719
  558WAT     H2 1886   4.562   3.614   2.735
  559WAT      O 1887   4.396   3.197   2.936
  559WAT     H1 1888   4.389   3.103   2.920
  559WAT     H2 1889   4.472   3.206   2.993
  560WAT      O 1890   3.615   2.258   3.169
  560WAT     H1 1891   3.597   2.168   3.197
  560WAT     H2 1892   3.575   2.313   3.236
  561WAT      O 1893   4.499   2.478   2.959
  561WAT     H1 1894   4.537   2.391   2.948
  561WAT     H2 1895   4.489   2.512   2.870
  562WAT      O 1896   3.912   2.315   2.505
  562WAT     H1 1897   3.923   2.405   2.536
  562WAT     H2 1898   3.821   2.310   2.476
  563WAT      O 1899   3.677   2.507   3.030
  563WAT     H1 1900   3.745   2.534   3.092
  563WAT     H2 1901   3.645   2.423   3.063
  564WAT      O 1902   4.096   2.612   2.938
  564WAT     H1 1903   4.147   2.662   3.002
  564WAT     H2 1904   4.149   2.534   2.921
  565WAT      O 1905   3.925   2.076   3.365
  565WAT     H1 1906   3.925   2.128   3.284
  565WAT     H2 1907   3.842   2.028   3.363
  566WAT      O 1908   4.563   3.087   2.515
  566WAT     H1 1909   4.501   3.134   2.459
  566WAT     H2 1910   4.615   3.157   2.557
  567WAT      O 1911   4.050   3.040   3.183
  567WAT     H1 1912   4.016   3.103   3.247
  567WAT     H2 1913   4.067   3.093   3.105
  568WAT      O 1914   3.893   2.247   3.166
  568WAT     H1 1915   3.927   2.332   3.136
  568WAT     H2 1916   3.799   2.262   3.177
  569WAT      O 1917   3.971   3.237   3.364
  569WAT     H1 1918   4.033   3.304   3.336
  569WAT     H2 1919   3.885   3.278   3.355
  570WAT      O 1920   4.261   1.996   2.798
  570WAT     H1 1921   4.292   1.941   2.727
  570WAT     H2 1922   4.168   2.009   2.780
  571WAT      O 1923   4.500   2.803   2.472
  571WAT     H1 1924   4.407   2.796   2.495
  571WAT     H2 1925   4.515   2.896   2.460
  572WAT      O 1926   4.499   2.430   2.171
  572WAT     H1 1927   4.405   2.446   2.180
  572WAT     H2 1928   4.530   2.502   2.117
  573WAT      O 1929   4.060   2.855   2.750
  573WAT     H1 1930   4.020   2.784   2.700
  573WAT     H2 1931   4.069   2.821   2.839
  574WAT      O 1932   4.107   3.224   2.966
  574WAT     H1 1933   4.078   3.163   2.898
  574WAT     H2 1934   4.202   3.228   2.955
  575WAT      O 1935   3.932   2.533   3.128
  575WAT     H1 1936   3.987   2.544   3.050
  575WAT     H2 1937   3.983   2.570   3.200
  576WAT      O 1938   4.016   3.198   3.631
  576WAT     H1 1939   3.927   3.220   3.656
  576WAT     H2 1940   4.019   3.210   3.537
  577WAT      O 1941   4.720   2.883   2.223
  577WAT     H1 1942   4.764   2.799   2.208
  577WAT     H2 1943   4.792   2.946   2.231
  578WAT      O 1944   3.899   2.885   3.489
  578WAT     H1 1945   3.885   2.972   3.526
  578WAT     H2 1946   3.811   2.851   3.474
  579WAT      O 1947   4.531   3.377   2.620
  579WAT     H1 1948   4.575   3.451   2.578
  579WAT     H2 1949   4.525   3.401   2.712
  580WAT      O 1950   4.079   3.479   3.710
  580WAT     H1 1951   4.076   3.519   3.623
  580WAT     H2 1952   4.063   3.386   3.694
  581WAT      O 1953   3.730   2.745   2.500
  581WAT     H1 1954   3.718   2.817   2.439
  581WAT     H2 1955   3.699   2.668   2.452
  582WAT      O 1956   3.494   3.062   3.081
  582WAT     H1 1957   3.502   3.075   2.986
  582WAT     H2 1958   3.556   2.991   3.100
  583WAT      O 1959   3.619   3.232   2.722
  583WAT     H1 1960   3.578   3.246   2.636
  583WAT     H2 1961   3.708   3.203   2.701
  584WAT      O 1962   4.601   3.647   3.412
  584WAT     H1 1963   4.652   3.638   3.493
  584WAT     H2 1964   4.516   3.681   3.442
  585WAT      O 1965   4.798   3.675   2.355
  585WAT     H1 1966   4.782   3.646   2.445
  585WAT     H2 1967   4.782   3.598   2.302
  586WAT      O 1968   4.046   3.653   2.533
  586WAT     H1 1969   4.028   3.562   2.512
  586WAT     H2 1970   3.961   3.689   2.557
  587WAT      O 1971   4.725   3.589   2.619
  587WAT     H1 1972   4.770   3.511   2.650
  587WAT     H2 1973   4.759   3.660   2.673
  588WAT      O 1974   3.977   2.079   2.838
  588WAT     H1 1975   3.933   2.157   2.805
  588WAT     H2 1976   4.033   2.111   2.909
  589WAT      O 1977   4.406   2.366   3.399
  589WAT     H1 1978   4.360   2.387   3.480
  589WAT     H2 1979   4.366   2.284   3.368
  590WAT      O 1980   4.615   2.638   3.722
  590WAT     H1 1981   4.648   2.554   3.688
  590WAT     H2 1982   4.694   2.690   3.736
  591WAT      O 1983   4.289   2.041   2.326
  591WAT     H1 1984   4.226   2.041   2.399
  591WAT     H2 1985   4.280   1.954   2.287
  592WAT      O 1986   4.181   2.133   3.024
  592WAT     H1 1987   4.211   2.224   3.016
  592WAT     H2 1988   4.236   2.085   2.963
  593WAT      O 1989   3.956   2.591   2.611
  593WAT     H1 1990   3.934   2.570   2.702
  593WAT     H2 1991   3.878   2.635   2.577
  594WAT      O 1992   4.679   2.592   2.471
  594WAT     H1 1993   4.619   2.664   2.453
  594WAT     H2 1994   4.734   2.586   2.393
  595WAT      O 1995   4.200   2.681   3.678
  595WAT     H1 1996   4.191   2.587   3.663
  595WAT     H2 1997   4.285   2.703   3.638
  596WAT      O 1998   4.540   2.456   2.674
  596WAT     H1 1999   4.579   2.487   2.593
  596WAT     H2 2000   4.576   2.368   2.685
  597WAT      O 2001   3.713   2.322   3.493
  597WAT     H1 2002   3.674   2.407   3.514
  597WAT     H2 2003   3.645   2.259   3.512
  598WAT      O 2004   4.371   2.331   3.800
  598WAT     H1 2005   4.302   2.311   3.863
  598WAT     H2 2006   4.445   2.359   3.853
  599WAT      O 2007   3.444   2.115   2.896
  599WAT     H1 2008   3.415   2.172   2.968
  599WAT     H2 2009   3.518   2.067   2.933
  600WAT      O 2010   3.462   2.509   2.017
  600WAT     H1 2011   3.454   2.603   2.032
  600WAT     H2 2012   3.427   2.495   1.929
  601WAT      O 2013   4.598   2.715   3.084
  601WAT     H1 2014   4.525   2.766   3.118
  601WAT     H2 2015   4.559   2.633   3.053
  602WAT      O 2016   4.242   2.382   2.924
  602WAT     H1 2017   4.243   2.338   2.839
  602WAT     H2 2018   4.332   2.414   2.935
  603WAT      O 2019   3.827   2.370   2.820
  603WAT     H1 2020   3.793   2.418   2.896
  603WAT     H2 2021   3.751   2.325   2.784
  604WAT      O 2022   4.248   2.482   2.223
  604WAT     H1 2023   4.261   2.478   2.318
  604WAT     H2 2024   4.210   2.569   2.208
  605WAT      O 2025   4.645   2.260   3.025
  605WAT     H1 2026   4.646   2.305   3.109
  605WAT     H2 2027   4.620   2.170   3.046
  606WAT      O 2028   4.150   2.713   2.163
  606WAT     H1 2029   4.093   2.669   2.100
  606WAT     H2 2030   4.220   2.749   2.110
  607WAT      O 2031   4.272   2.788   3.099
  607WAT     H1 2032   4.309   2.741   3.173
  607WAT     H2 2033   4.253   2.876   3.133
  608WAT      O 2034   3.559   2.263   2.712
  608WAT     H1 2035   3.530   2.226   2.795
  608WAT     H2 2036   3.552   2.189   2.650
  609WAT      O 2037   4.051   2.692   3.331
  609WAT     H1 2038   4.021   2.780   3.353
  609WAT     H2 2039   4.147   2.698   3.334
  610WAT      O 2040   3.904   3.113   2.390
  610WAT     H1 2041   3.827   3.059   2.374
  610WAT     H2 2042   3.977   3.061   2.356
  611WAT      O 2043   4.526   2.152   2.384
  611WAT     H1 2044   4.445   2.102   2.376
  611WAT     H2 2045   4.507   2.236   2.342
  612WAT      O 2046   4.518   3.020   3.558
  612WAT     H1 2047   4.512   2.928   3.533
  612WAT     H2 2048   4.455   3.029   3.630
  613WAT      O 2049   3.908   3.080   2.754
  613WAT     H1 2050   3.960   2.999   2.749
  613WAT     H2 2051   3.863   3.074   2.838
  614WAT      O 2052   4.397   3.206   2.281
  614WAT     H1 2053   4.431   3.281   2.232
  614WAT     H2 2054   4.314   3.238   2.318
  615WAT      O 2055   3.657   2.776   3.445
  615WAT     H1 2056   3.621   2.843   3.504
  615WAT     H2 2057   3.627   2.693   3.482
  616WAT      O 2058   3.977   2.822   3.734
  616WAT     H1 2059   3.947   2.837   3.644
  616WAT     H2 2060   4.054   2.766   3.724
  617WAT      O 2061   4.511   3.302   3.533
  617WAT     H1 2062   4.513   3.209   3.511
  617WAT     H2 2063   4.441   3.310   3.597
  618WAT      O 2064   4.685   3.139   2.818
  618WAT     H1 2065   4.721   3.079   2.752
  618WAT     H2 2066   4.597   3.106   2.835
  619WAT      O 2067   4.294   3.215   2.558
  619WAT     H1 2068   4.363   3.269   2.597
  619WAT     H2 2069   4.215   3.269   2.562
  620WAT      O 2070   3.508   2.776   2.108
  620WAT     H1 2071   3.595   2.804   2.136
  620WAT     H2 2072   3.459   2.858   2.096
  621WAT      O 2073   4.224   2.915   2.520
  621WAT     H1 2074   4.270   2.996   2.542
  621WAT     H2 2075   4.189   2.883   2.603
  622WAT      O 2076   4.455   3.466   3.243
  622WAT     H1 2077   4.519   3.487   3.310
  622WAT     H2 2078   4.491   3.390   3.197
  623WAT      O 2079   3.814   1.949   2.567
  623WAT     H1 2080   3.802   1.949   2.662
  623WAT     H2 2081   3.732   1.983   2.532
  624WAT      O 2082   4.582   3.266   3.114
  624WAT     H1 2083   4.646   3.196   3.126
  624WAT     H2 2084   4.634   3.344   3.096
  625WAT      O 2085   4.759   3.346   3.435
  625WAT     H1 2086   4.793   3.405   3.503
  625WAT     H2 2087   4.667   3.333   3.458
  626WAT      O 2088   3.545   3.698   2.164
  626WAT     H1 2089   3.581   3.757   2.099
  626WAT     H2 2090   3.531   3.752   2.242
  627WAT      O 2091   3.514   2.125   3.513
  627WAT     H1 2092   3.443   2.145   3.574
  627WAT     H2 2093   3.556   2.048   3.550
  628WAT      O 2094   4.342   3.351   3.752
  628WAT     H1 2095   4.310   3.279   3.806
  628WAT     H2 2096   4.275   3.419   3.759
  629WAT      O 2097   4.146   3.436   2.246
  629WAT     H1 2098   4.145   3.509   2.184
  629WAT     H2 2099   4.054   3.411   2.255
  630WAT      O 2100   3.706   2.958   2.320
  630WAT     H1 2101   3.646   3.032   2.321
  630WAT     H2 2102   3.754   2.967   2.238
  631WAT      O 2103   4.664   2.374   3.288
  631WAT     H1 2104   4.701   2.292   3.321
  631WAT     H2 2105   4.578   2.380   3.330
  632WAT      O 2106   4.445   3.442   2.112
  632WAT     H1 2107   4.455   3.422   2.019
  632WAT     H2 2108   4.355   3.417   2.133
  633WAT      O 2109   4.197   2.498   2.510
  633WAT     H1 2110   4.126   2.545   2.555
  633WAT     H2 2111   4.226   2.432   2.574
  634WAT      O 2112   4.360   2.640   3.310
  634WAT     H1 2113   4.410   2.687   3.377
  634WAT     H2 2114   4.374   2.548   3.331
  635WAT      O 2115   4.600   2.170   2.654
  635WAT     H1 2116   4.588   2.172   2.560
  635WAT     H2 2117   4.695   2.175   2.666
  636WAT      O 2118   4.309   3.694   2.582
  636WAT     H1 2119   4.335   3.690   2.489
  636WAT     H2 2120   4.214   3.681   2.581
  637WAT      O 2121   4.018   2.329   2.248
  637WAT     H1 2122   4.102   2.372   2.241
  637WAT     H2 2123   3.981   2.360   2.331
  638WAT      O 2124   3.907   2.954   2.095
  638WAT     H1 2125   3.984   2.943   2.152
  638WAT     H2 2126   3.915   2.884   2.030
  639WAT      O 2127   3.777   2.697   2.164
  639WAT     H1 2128   3.785   2.603   2.175
  639WAT     H2 2129   3.866   2.730   2.174
  640WAT      O 2130   3.857   3.712   2.874
  640WAT     H1 2131   3.931   3.657   2.901
  640WAT     H2 2132   3.896   3.799   2.860
  641WAT      O 2133   3.758   3.631   3.793
  641WAT     H1 2134   3.838   3.663   3.834
  641WAT     H2 2135   3.706   3.595   3.865
  642WAT      O 2136   4.168   3.630   2.056
  642WAT     H1 2137   4.247   3.658   2.011
  642WAT     H2 2138   4.116   3.587   1.988
  643WAT      O 2139   4.641   3.242   3.788
  643WAT     H1 2140   4.581   3.244   3.714
  643WAT     H2 2141   4.611   3.168   3.841
  644WAT      O 2142   4.220   3.152   2.043
  644WAT     H1 2143   4.209   3.090   2.115
  644WAT     H2 2144   4.203   3.099   1.964
  645WAT      O 2145   4.235   3.020   3.641
  645WAT     H1 2146   4.159   3.077   3.632
  645WAT     H2 2147   4.253   2.991   3.551
  646WAT      O 2148   4.544   3.058   2.103
  646WAT     H1 2149   4.489   3.103   2.168
  646WAT     H2 2150   4.606   3.007   2.155
  647WAT      O 2151   3.733   2.694   3.777
  647WAT     H1 2152   3.737   2.664   3.868
  647WAT     H2 2153   3.818   2.734   3.761
  648WAT      O 2154   4.111   2.954   2.293
  648WAT     H1 2155   4.153   2.937   2.377
  648WAT     H2 2156   4.123   2.873   2.243
  649WAT      O 2157   3.927   2.552   3.573
  649WAT     H1 2158   3.874   2.503   3.511
  649WAT     H2 2159   3.994   2.595   3.520
  650WAT      O 2160   4.362   2.856   2.018
  650WAT     H1 2161   4.414   2.785   1.981
  650WAT     H2 2162   4.427   2.920   2.048
  651WAT      O 2163   3.976   2.248   3.581
  651WAT     H1 2164   3.966   2.187   3.509
  651WAT     H2 2165   3.918   2.321   3.559
  652WAT      O 2166   4.252   2.104   3.285
  652WAT     H1 2167   4.207   2.106   3.200
  652WAT     H2 2168   4.189   2.064   3.344
  653WAT      O 2169   4.293   2.994   3.347
  653WAT     H1 2170   4.335   3.078   3.330
  653WAT     H2 2171   4.201   3.007   3.324
  654WAT      O 2172   4.527   2.767   3.485
  654WAT     H1 2173   4.538   2.707   3.559
  654WAT     H2 2174   4.612   2.770   3.443
  655WAT      O 2175   4.760   2.822   3.343
  655WAT     H1 2176   4.708   2.875   3.282
  655WAT     H2 2177   4.795   2.885   3.406
  656WAT      O 2178   4.000   2.561   1.987
  656WAT     H1 2179   3.980   2.475   2.023
  656WAT     H2 2180   3.983   2.552   1.894
  657WAT      O 2181   4.078   3.624   3.458
  657WAT     H1 2182   4.024   3.697   3.426
  657WAT     H2 2183   4.103   3.576   3.379
  658WAT      O 2184   4.203   2.421   3.611
  658WAT     H1 2185   4.262   2.390   3.680
  658WAT     H2 2186   4.121   2.374   3.627
  659WAT      O 2187   4.685   2.383   3.634
  659WAT     H1 2188   4.616   2.316   3.628
  659WAT     H2 2189   4.757   2.338   3.679
  660WAT      O 2190   4.748   2.042   2.240
  660WAT     H1 2191   4.776   1.958   2.276
  660WAT     H2 2192   4.671   2.065   2.292
  661WAT      O 2193   3.880   2.271   1.986
  661WAT     H1 2194   3.910   2.272   1.895
  661WAT     H2 2195   3.954   2.236   2.036
  662WAT      O 2196   4.364   3.748   3.484
  662WAT     H1 2197   4.356   3.838   3.515
  662WAT     H2 2198   4.273   3.716   3.481
  663WAT      O 2199   4.202   2.165   2.085
  663WAT     H1 2200   4.167   2.098   2.027
  663WAT     H2 2201   4.222   2.119   2.166
  664WAT      O 2202   4.418   3.664   2.247
  664WAT     H1 2203   4.508   3.698   2.249
  664WAT     H2 2204   4.422   3.592   2.184
  665WAT      O 2205   3.782   3.201   2.069
  665WAT     H1 2206   3.826   3.256   2.135
  665WAT     H2 2207   3.831   3.119   2.070
  666WAT      O 2208   3.504   3.480   2.815
  666WAT     H1 2209   3.537   3.394   2.791
  666WAT     H2 2210   3.547   3.501   2.898
  667WAT      O 2211   3.963   3.313   2.581
  667WAT     H1 2212   3.933   3.301   2.671
  667WAT     H2 2213   3.953   3.228   2.540
  668WAT      O 2214   3.553   3.567   3.088
  668WAT     H1 2215   3.509   3.585   3.172
  668WAT     H2 2216   3.610   3.643   3.074
  669WAT      O 2217   3.536   2.818   2.724
  669WAT     H1 2218   3.471   2.791   2.660
  669WAT     H2 2219   3.620   2.807   2.679
  670WAT      O 2220   3.640   2.857   3.178
  670WAT     H1 2221   3.677   2.848   3.266
  670WAT     H2 2222   3.583   2.780   3.168
  671WAT      O 2223   3.595   2.548   3.569
  671WAT     H1 2224   3.505   2.545   3.603
  671WAT     H2 2225   3.649   2.568   3.645
  672WAT      O 2226   3.457   2.539   2.319
  672WAT     H1 2227   3.367   2.566   2.301
  672WAT     H2 2228   3.506   2.566   2.241
  673WAT      O 2229   3.712   2.445   2.110
  673WAT     H1 2230   3.783   2.403   2.061
  673WAT     H2 2231   3.640   2.452   2.046
  674WAT      O 2232   3.676   2.050   2.014
  674WAT     H1 2233   3.749   2.104   2.045
  674WAT     H2 2234   3.704   2.023   1.926
  675WAT      O 2235   3.645   1.975   3.004
  675WAT     H1 2236   3.710   1.920   2.960
  675WAT     H2 2237   3.687   2.001   3.086
  676WAT      O 2238   3.621   1.991   3.278
  676WAT     H1 2239   3.586   2.037   3.355
  676WAT     H2 2240   3.588   1.902   3.286
  677WAT      O 2241   3.781   3.308   3.695
  677WAT     H1 2242   3.777   3.271   3.783
  677WAT     H2 2243   3.794   3.402   3.709
  678WAT      O 2244   4.151   3.464   3.255
  678WAT     H1 2245   4.127   3.490   3.166
  678WAT     H2 2246   4.245   3.481   3.260
  679WAT      O 2247   4.372   2.110   3.630
  679WAT     H1 2248   4.366   2.169   3.705
  679WAT     H2 2249   4.466   2.099   3.616
  680WAT      O 2250   4.636   2.076   3.594
  680WAT     H1 2251   4.697   2.108   3.528
  680WAT     H2 2252   4.690   2.027   3.656
  681WAT      O 2253   3.688   1.944   3.606
  681WAT     H1 2254   3.743   1.926   3.529
  681WAT     H2 2255   3.694   1.865   3.659
  682WAT      O 2256   3.765   3.603   3.407
  682WAT     H1 2257   3.706   3.590   3.480
  682WAT     H2 2258   3.764   3.519   3.360
  683WAT      O 2259   4.710   1.932   3.227
  683WAT     H1 2260   4.622   1.965   3.207
  683WAT     H2 2261   4.699   1.885   3.309
  684WAT      O 2262   4.089   3.561   2.980
  684WAT     H1 2263   4.140   3.500   2.928
  684WAT     H2 2264   4.154   3.611   3.029
  685WAT      O 2265   4.363   3.650   3.063
  685WAT     H1 2266   4.391   3.624   2.975
  685WAT     H2 2267   4.414   3.595   3.122
  686WAT      O 2268   4.484   2.024   3.121
  686WAT     H1 2269   4.406   2.071   3.149
  686WAT     H2 2270   4.455   1.933   3.110
  687WAT      O 2271   3.619   2.054   2.373
  687WAT     H1 2272   3.695   2.066   2.316
  687WAT     H2 2273   3.573   2.138   2.368
  688WAT      O 2274   4.273   2.266   2.672
  688WAT     H1 2275   4.192   2.228   2.638
  688WAT     H2 2276   4.323   2.190   2.702
  689WAT      O 2277   4.723   1.932   2.796
  689WAT     H1 2278   4.784   1.989   2.843
  689WAT     H2 2279   4.649   1.988   2.773
  690WAT      O 2280   3.717   3.540   2.367
  690WAT     H1 2281   3.665   3.579   2.297
  690WAT     H2 2282   3.710   3.603   2.439
  691WAT      O 2283   3.856   2.107   2.227
  691WAT     H1 2284   3.909   2.028   2.214
  691WAT     H2 2285   3.919   2.175   2.250
  692WAT      O 2286   4.076   2.081   2.532
  692WAT     H1 2287   4.013   2.011   2.549
  692WAT     H2 2288   4.022   2.157   2.511
  693WAT      O 2289   4.369   3.742   3.799
  693WAT     H1 2290   4.462   3.718   3.804
  693WAT     H2 2291   4.368   3.825   3.751
  694WAT      O 2292   4.088   2.008   3.776
  694WAT     H1 2293   4.060   2.059   3.700
  694WAT     H2 2294   4.126   1.929   3.739
  695WAT      O 2295   3.977   3.735   2.255
  695WAT     H1 2296   4.050   3.707   2.200
  695WAT     H2 2297   4.003   3.711   2.344
  696WAT      O 2298   3.893   3.347   2.255
  696WAT     H1 2299   3.830   3.394   2.310
  696WAT     H2 2300   3.905   3.262   2.298
  697WAT      O 2301   4.639   2.752   0.870
  697WAT     H1 2302   4.631   2.661   0.843
  697WAT     H2 2303   4.597   2.802   0.799
  698WAT      O 2304   4.452   2.930   1.058
  698WAT     H1 2305   4.374   2.882   1.087
  698WAT     H2 2306   4.517   2.862   1.041
  699WAT      O 2307   3.854   2.961   1.146
  699WAT     H1 2308   3.770   2.935   1.186
  699WAT     H2 2309   3.914   2.968   1.219
  700WAT      O 2310   3.852   3.364   1.165
  700WAT     H1 2311   3.882   3.275   1.148
  700WAT     H2 2312   3.926   3.420   1.143
  701WAT      O 2313   3.695   2.457   0.524
  701WAT     H1 2314   3.606   2.491   0.514
  701WAT     H2 2315   3.723   2.437   0.435
  702WAT      O 2316   3.491   2.717   1.113
  702WAT     H1 2317   3.548   2.640   1.113
  702WAT     H2 2318   3.491   2.747   1.022
  703WAT      O 2319   4.477   3.599   0.898
  703WAT     H1 2320   4.415   3.645   0.841
  703WAT     H2 2321   4.562   3.614   0.858
  704WAT      O 2322   4.396   3.197   1.059
  704WAT     H1 2323   4.389   3.103   1.043
  704WAT     H2 2324   4.472   3.206   1.116
  705WAT      O 2325   3.615   2.258   1.291
  705WAT     H1 2326   3.597   2.168   1.319
  705WAT     H2 2327   3.575   2.313   1.359
  706WAT      O 2328   4.499   2.478   1.082
  706WAT     H1 2329   4.537   2.391   1.070
  706WAT     H2 2330   4.489   2.512   0.992
  707WAT      O 2331   3.912   2.315   0.628
  707WAT     H1 2332   3.923   2.405   0.658
  707WAT     H2 2333   3.821   2.310   0.599
  708WAT      O 2334   3.677   2.507   1.152
  708WAT     H1 2335   3.745   2.534   1.214
  708WAT     H2 2336   3.645   2.423   1.186
  709WAT      O 2337   4.096   2.612   1.061
  709WAT     H1 2338   4.147   2.662   1.125
  709WAT     H2 2339   4.149   2.534   1.043
  710WAT      O 2340   3.925   2.076   1.488
  710WAT     H1 2341   3.925   2.128   1.407
  710WAT     H2 2342   3.842   2.028   1.485
  711WAT      O 2343   4.563   3.087   0.637
  711WAT     H1 2344   4.501   3.134   0.581
  711WAT     H2 2345   4.615   3.157   0.679
  712WAT      O 2346   4.050   3.040   1.305
  712WAT     H1 2347   4.016   3.103   1.370
  712WAT     H2 2348   4.067   3.093   1.227
  713WAT      O 2349   3.893   2.247   1.288
  713WAT     H1 2350   3.927   2.332   1.259
  713WAT     H2 2351   3.799   2.262   1.300
  714WAT      O 2352   3.971   3.237   1.487
  714WAT     H1 2353   4.033   3.304   1.459
  714WAT     H2 2354   3.885   3.278   1.478
  715WAT      O 2355   3.500   3.156   0.375
  715WAT     H1 2356   3.462   3.205   0.302
  715WAT     H2 2357   3.526   3.223   0.438
  716WAT      O 2358   4.261   1.996   0.921
  716WAT     H1 2359   4.292   1.941   0.849
  716WAT     H2 2360   4.168   2.009   0.902
  717WAT      O 2361   4.500   2.803   0.594
  717WAT     H1 2362   4.407   2.796   0.617
  717WAT     H2 2363   4.515   2.896   0.583
  718WAT      O 2364   4.499   2.430   0.294
  718WAT     H1 2365   4.405   2.446   0.303
  718WAT     H2 2366   4.530   2.502   0.239
  719WAT      O 2367   4.060   2.855   0.873
  719WAT     H1 2368   4.020   2.784   0.823
  719WAT     H2 2369   4.069   2.821   0.961
  720WAT      O 2370   4.107   3.224   1.089
  720WAT     H1 2371   4.078   3.163   1.021
  720WAT     H2 2372   4.202   3.228   1.078
  721WAT      O 2373   3.932   2.533   1.251
  721WAT     H1 2374   3.987   2.544   1.173
  721WAT     H2 2375   3.983   2.570   1.322
  722WAT      O 2376   4.016   3.198   1.754
  722WAT     H1 2377   3.927   3.220   1.779
  722WAT     H2 2378   4.019   3.210   1.659
  723WAT      O 2379   4.720   2.883   0.345
  723WAT     H1 2380   4.764   2.799   0.331
  723WAT     H2 2381   4.792   2.946   0.354
  724WAT      O 2382   3.899   2.885   1.612
  724WAT     H1 2383   3.885   2.972   1.648
  724WAT     H2 2384   3.811   2.851   1.597
  725WAT      O 2385   4.531   3.377   0.742
  725WAT     H1 2386   4.575   3.451   0.701
  725WAT     H2 2387   4.525   3.401   0.835
  726WAT      O 2388   4.079   3.479   1.832
  726WAT     H1 2389   4.076   3.519   1.746
  726WAT     H2 2390   4.063   3.386   1.816
  727WAT      O 2391   3.730   2.745   0.623
  727WAT     H1 2392   3.718   2.817   0.561
  727WAT     H2 2393   3.699   2.668   0.575
  728WAT      O 2394   3.494   3.062   1.203
  728WAT     H1 2395   3.502   3.075   1.109
  728WAT     H2 2396   3.556   2.991   1.223
  729WAT      O 2397   3.619   3.232   0.844
  729WAT     H1 2398   3.578   3.246   0.759
  729WAT     H2 2399   3.708   3.203   0.824
  730WAT      O 2400   4.601   3.647   1.535
  730WAT     H1 2401   4.652   3.638   1.615
  730WAT     H2 2402   4.516   3.681   1.564
  731WAT      O 2403   4.798   3.675   0.478
  731WAT     H1 2404   4.782   3.646   0.568
  731WAT     H2 2405   4.782   3.598   0.424
  732WAT      O 2406   4.046   3.653   0.656
  732WAT     H1 2407   4.028   3.562   0.634
  732WAT     H2 2408   3.961   3.689   0.680
  733WAT      O 2409   4.725   3.589   0.741
  733WAT     H1 2410   4.770   3.511   0.773
  733WAT     H2 2411   4.759   3.660   0.796
  734WAT      O 2412   3.500   3.166   1.457
  734WAT     H1 2413   3.516   3.119   1.375
  734WAT     H2 2414   3.546   3.115   1.524
  735WAT      O 2415   3.977   2.079   0.961
  735WAT     H1 2416   3.933   2.157   0.928
  735WAT     H2 2417   4.033   2.111   1.032
  736WAT      O 2418   4.406   2.366   1.521
  736WAT     H1 2419   4.360   2.387   1.602
  736WAT     H2 2420   4.366   2.284   1.491
  737WAT      O 2421   4.615   2.638   1.844
  737WAT     H1 2422   4.648   2.554   1.810
  737WAT     H2 2423   4.694   2.690   1.859
  738WAT      O 2424   4.289   2.041   0.449
  738WAT     H1 2425   4.226   2.041   0.521
  738WAT     H2 2426   4.280   1.954   0.409
  739WAT      O 2427   4.181   2.133   1.147
  739WAT     H1 2428   4.211   2.224   1.139
  739WAT     H2 2429   4.236   2.085   1.085
  740WAT      O 2430   3.956   2.591   0.734
  740WAT     H1 2431   3.934   2.570   0.824
  740WAT     H2 2432   3.878   2.635   0.699
  741WAT      O 2433   4.679   2.592   0.594
  741WAT     H1 2434   4.619   2.664   0.575
  741WAT     H2 2435   4.734   2.586   0.515
  742WAT      O 2436   4.200   2.681   1.800
  742WAT     H1 2437   4.191   2.587   1.785
  742WAT     H2 2438   4.285   2.703   1.761
  743WAT      O 2439   4.540   2.456   0.797
  743WAT     H1 2440   4.579   2.487   0.715
  743WAT     H2 2441   4.576   2.368   0.808
  744WAT      O 2442   3.713   2.322   1.616
  744WAT     H1 2443   3.674   2.407   1.636
  744WAT     H2 2444   3.645   2.259   1.635
  745WAT      O 2445   4.371   2.331   1.923
  745WAT     H1 2446   4.302   2.311   1.986
  745WAT     H2 2447   4.445   2.359   1.976
  746WAT      O 2448   3.444   2.115   1.019
  746WAT     H1 2449   3.415   2.172   1.090
  746WAT     H2 2450   3.518   2.067   1.055
  747WAT      O 2451   4.598   2.715   1.206
  747WAT     H1 2452   4.525   2.766   1.241
  747WAT     H2 2453   4.559   2.633   1.176
  748WAT      O 2454   4.242   2.382   1.047
  748WAT     H1 2455   4.243   2.338   0.962
  748WAT     H2 2456   4.332   2.414   1.057
  749WAT      O 2457   3.827   2.370   0.943
  749WAT     H1 2458   3.793   2.418   1.018
  749WAT     H2 2459   3.751   2.325   0.907
  750WAT      O 2460   4.248   2.482   0.346
  750WAT     H1 2461   4.261   2.478   0.441
  750WAT     H2 2462   4.210   2.569   0.330
  751WAT      O 2463   4.645   2.260   1.147
  751WAT     H1 2464   4.646   2.305   1.232
  751WAT     H2 2465   4.620   2.170   1.169
  752WAT      O 2466   4.150   2.713   0.286
  752WAT     H1 2467   4.093   2.669   0.223
  752WAT     H2 2468   4.220   2.749   0.232
  753WAT      O 2469   3.657   3.103   1.673
  753WAT     H1 2470   3.619   3.039   1.733
  753WAT     H2 2471   3.688   3.174   1.730
  754WAT      O 2472   4.272   2.788   1.221
  754WAT     H1 2473   4.309   2.741   1.296
  754WAT     H2 2474   4.253   2.876   1.255
  755WAT      O 2475   3.559   2.263   0.834
  755WAT     H1 2476   3.530   2.226   0.918
  755WAT     H2 2477   3.552   2.189   0.773
  756WAT      O 2478   4.051   2.692   1.453
  756WAT     H1 2479   4.021   2.780   1.476
  756WAT     H2 2480   4.147   2.698   1.457
  757WAT      O 2481   3.904   3.113   0.513
  757WAT     H1 2482   3.827   3.059   0.497
  757WAT     H2 2483   3.977   3.061   0.479
  758WAT      O 2484   4.526   2.152   0.506
  758WAT     H1 2485   4.445   2.102   0.499
  758WAT     H2 2486   4.507   2.236   0.465
  759WAT      O 2487   4.518   3.020   1.681
  759WAT     H1 2488   4.512   2.928   1.655
  759WAT     H2 2489   4.455   3.029   1.752
  760WAT      O 2490   3.908   3.080   0.877
  760WAT     H1 2491   3.960   2.999   0.871
  760WAT     H2 2492   3.863   3.074   0.961
  761WAT      O 2493   4.397   3.206   0.404
  761WAT     H1 2494   4.431   3.281   0.354
  761WAT     H2 2495   4.314   3.238   0.440
  762WAT      O 2496   3.657   2.776   1.568
  762WAT     H1 2497   3.621   2.843   1.627
  762WAT     H2 2498   3.627   2.693   1.605
  763WAT      O 2499   3.977   2.822   1.856
  763WAT     H1 2500   3.947   2.837   1.767
  763WAT     H2 2501   4.054   2.766   1.847
  764WAT      O 2502   4.511   3.302   1.656
  764WAT     H1 2503   4.513   3.209   1.634
  764WAT     H2 2504   4.441   3.310   1.720
  765WAT      O 2505   4.685   3.139   0.940
  765WAT     H1 2506   4.721   3.079   0.874
  765WAT     H2 2507   4.597   3.106   0.957
  766WAT      O 2508   4.294   3.215   0.681
  766WAT     H1 2509   4.363   3.269   0.719
  766WAT     H2 2510   4.215   3.269   0.685
  767WAT      O 2511   3.508   2.776   0.230
  767WAT     H1 2512   3.595   2.804   0.259
  767WAT     H2 2513   3.459   2.858   0.219
  768WAT      O 2514   4.224   2.915   0.642
  768WAT     H1 2515   4.270   2.996   0.665
  768WAT     H2 2516   4.189   2.883   0.725
  769WAT      O 2517   4.455   3.466   1.365
  769WAT     H1 2518   4.519   3.487   1.433
  769WAT     H2 2519   4.491   3.390   1.320
  770WAT      O 2520   3.814   1.949   0.689
  770WAT     H1 2521   3.802   1.949   0.784
  770WAT     H2 2522   3.732   1.983   0.654
  771WAT      O 2523   4.582   3.266   1.237
  771WAT     H1 2524   4.646   3.196   1.248
  771WAT     H2 2525   4.634   3.344   1.219
  772WAT      O 2526   4.759   3.346   1.557
  772WAT     H1 2527   4.793   3.405   1.625
  772WAT     H2 2528   4.667   3.333   1.580
  773WAT      O 2529   3.545   3.698   0.287
  773WAT     H1 2530   3.581   3.757   0.221
  773WAT     H2 2531   3.531   3.752   0.364
  774WAT      O 2532   3.514   2.125   1.636
  774WAT     H1 2533   3.443   2.145   1.696
  774WAT     H2 2534   3.556   2.048   1.673
  775WAT      O 2535   4.342   3.351   1.874
  775WAT     H1 2536   4.310   3.279   1.929
  775WAT     H2 2537   4.275   3.419   1.882
  776WAT      O 2538   4.146   3.436   0.369
  776WAT     H1 2539   4.145   3.509   0.307
  776WAT     H2 2540   4.054   3.411   0.378
  777WAT      O 2541   3.706   2.958   0.443
  777WAT     H1 2542   3.646   3.032   0.444
  777WAT     H2 2543   3.754   2.967   0.360
  778WAT      O 2544   4.664   2.374   1.411
  778WAT     H1 2545   4.701   2.292   1.443
  778WAT     H2 2546   4.578   2.380   1.452
  779WAT      O 2547   4.197   2.498   0.633
  779WAT     H1 2548   4.126   2.545   0.677
  779WAT     H2 2549   4.226   2.432   0.696
  780WAT      O 2550   4.360   2.640   1.433
  780WAT     H1 2551   4.410   2.687   1.499
  780WAT     H2 2552   4.374   2.548   1.454
  781WAT      O 2553   4.600   2.170   0.777
  781WAT     H1 2554   4.588   2.172   0.682
  781WAT     H2 2555   4.695   2.175   0.789
  782WAT      O 2556   4.309   3.694   0.704
  782WAT     H1 2557   4.335   3.690   0.612
  782WAT     H2 2558   4.214   3.681   0.704
  783WAT      O 2559   4.018   2.329   0.371
  783WAT     H1 2560   4.102   2.372   0.364
  783WAT     H2 2561   3.981   2.360   0.453
  784WAT      O 2562   3.777   2.697   0.286
  784WAT     H1 2563   3.785   2.603   0.297
  784WAT     H2 2564   3.866   2.730   0.297
  785WAT      O 2565   3.857   3.712   0.997
  785WAT     H1 2566   3.931   3.657   1.024
  785WAT     H2 2567   3.896   3.799   0.983
  786WAT      O 2568   3.546   3.319   0.584
  786WAT     H1 2569   3.453   3.343   0.583
  786WAT     H2 2570   3.592   3.402   0.572
  787WAT      O 2571   3.758   3.631   1.915
  787WAT     H1 2572   3.838   3.663   1.957
  787WAT     H2 2573   3.706   3.595   1.988
  788WAT      O 2574   4.641   3.242   1.910
  788WAT     H1 2575   4.581   3.244   1.836
  788WAT     H2 2576   4.611   3.168   1.964
  789WAT      O 2577   3.530   2.879   1.810
  789WAT     H1 2578   3.580   2.822   1.867
  789WAT     H2 2579   3.456   2.908   1.864
  790WAT      O 2580   4.235   3.020   1.763
  790WAT     H1 2581   4.159   3.077   1.755
  790WAT     H2 2582   4.253   2.991   1.674
  791WAT      O 2583   4.544   3.058   0.226
  791WAT     H1 2584   4.489   3.103   0.290
  791WAT     H2 2585   4.606   3.007   0.278
  792WAT      O 2586   3.733   2.694   1.899
  792WAT     H1 2587   3.737   2.664   1.990
  792WAT     H2 2588   3.818   2.734   1.883
  793WAT      O 2589   4.111   2.954   0.415
  793WAT     H1 2590   4.153   2.937   0.500
  793WAT     H2 2591   4.123   2.873   0.366
  794WAT      O 2592   3.927   2.552   1.696
  794WAT     H1 2593   3.874   2.503   1.633
  794WAT     H2 2594   3.994   2.595   1.643
  795WAT      O 2595   3.976   2.248   1.704
  795WAT     H1 2596   3.966   2.187   1.632
  795WAT     H2 2597   3.918   2.321   1.681
  796WAT      O 2598   4.252   2.104   1.407
  796WAT     H1 2599   4.207   2.106   1.323
  796WAT     H2 2600   4.189   2.064   1.467
  797WAT      O 2601   4.293   2.994   1.469
  797WAT     H1 2602   4.335   3.078   1.452
  797WAT     H2 2603   4.201   3.007   1.446
  798WAT      O 2604   4.527   2.767   1.608
  798WAT     H1 2605   4.538   2.707   1.682
  798WAT     H2 2606   4.612   2.770   1.566
  799WAT      O 2607   4.760   2.822   1.465
  799WAT     H1 2608   4.708   2.875   1.405
  799WAT     H2 2609   4.795   2.885   1.528
  800WAT      O 2610   4.078   3.624   1.581
  800WAT     H1 2611   4.024   3.697   1.549
  800WAT     H2 2612   4.103   3.576   1.502
  801WAT      O 2613   4.203   2.421   1.734
  801WAT     H1 2614   4.262   2.390   1.802
  801WAT     H2 2615   4.121   2.374   1.749
  802WAT      O 2616   4.685   2.383   1.757
  802WAT     H1 2617   4.616   2.316   1.750
  802WAT     H2 2618   4.757   2.338   1.801
  803WAT      O 2619   4.748   2.042   0.363
  803WAT     H1 2620   4.776   1.958   0.398
  803WAT     H2 2621   4.671   2.065   0.414
  804WAT      O 2622   4.364   3.748   1.607
  804WAT     H1 2623   4.356   3.838   1.638
  804WAT     H2 2624   4.273   3.716   1.604
  805WAT      O 2625   4.418   3.664   0.369
  805WAT     H1 2626   4.508   3.698   0.371
  805WAT     H2 2627   4.422   3.592   0.306
  806WAT      O 2628   3.782   3.201   0.192
  806WAT     H1 2629   3.826   3.256   0.258
  806WAT     H2 2630   3.831   3.119   0.193
  807WAT      O 2631   3.504   3.480   0.937
  807WAT     H1 2632   3.537   3.394   0.914
  807WAT     H2 2633   3.547   3.501   1.020
  808WAT      O 2634   3.963   3.313   0.703
  808WAT     H1 2635   3.933   3.301   0.793
  808WAT     H2 2636   3.953   3.228   0.662
  809WAT      O 2637   3.553   3.567   1.211
  809WAT     H1 2638   3.509   3.585   1.294
  809WAT     H2 2639   3.610   3.643   1.197
  810WAT      O 2640   3.536   2.818   0.847
  810WAT     H1 2641   3.471   2.791   0.782
  810WAT     H2 2642   3.620   2.807   0.802
  811WAT      O 2643   3.640   2.857   1.301
  811WAT     H1 2644   3.677   2.848   1.389
  811WAT     H2 2645   3.583   2.780   1.291
  812WAT      O 2646   3.595   2.548   1.691
  812WAT     H1 2647   3.505   2.545   1.725
  812WAT     H2 2648   3.649   2.568   1.768
  813WAT      O 2649   3.457   2.539   0.441
  813WAT     H1 2650   3.367   2.566   0.424
  813WAT     H2 2651   3.506   2.566   0.363
  814WAT      O 2652   3.712   2.445   0.232
  814WAT     H1 2653   3.783   2.403   0.184
  814WAT     H2 2654   3.640   2.452   0.169
  815WAT      O 2655   3.645   1.975   1.126
  815WAT     H1 2656   3.710   1.920   1.082
  815WAT     H2 2657   3.687   2.001   1.208
  816WAT      O 2658   3.621   1.991   1.401
  816WAT     H1 2659   3.586   2.037   1.477
  816WAT     H2 2660   3.588   1.902   1.409
  817WAT      O 2661   3.781   3.308   1.817
  817WAT     H1 2662   3.777   3.271   1.905
  817WAT     H2 2663   3.794   3.402   1.831
  818WAT      O 2664   4.151   3.464   1.377
  818WAT     H1 2665   4.127   3.490   1.289
  818WAT     H2 2666   4.245   3.481   1.383
  819WAT      O 2667   4.372   2.110   1.753
  819WAT     H1 2668   4.366   2.169   1.828
  819WAT     H2 2669   4.466   2.099   1.738
  820WAT      O 2670   4.636   2.076   1.717
  820WAT     H1 2671   4.697   2.108   1.651
  820WAT     H2 2672   4.690   2.027   1.779
  821WAT      O 2673   3.688   1.944   1.728
  821WAT     H1 2674   3.743   1.926   1.652
  821WAT     H2 2675   3.694   1.865   1.782
  822WAT      O 2676   3.765   3.603   1.529
  822WAT     H1 2677   3.706   3.590   1.603
  822WAT     H2 2678   3.764   3.519   1.483
  823WAT      O 2679   4.710   1.932   1.349
  823WAT     H1 2680   4.622   1.965   1.329
  823WAT     H2 2681   4.699   1.885   1.432
  824WAT      O 2682   3.728   3.339   1.424
  824WAT     H1 2683   3.656   3.277   1.417
  824WAT     H2 2684   3.734   3.379   1.337
  825WAT      O 2685   4.089   3.561   1.103
  825WAT     H1 2686   4.140   3.500   1.050
  825WAT     H2 2687   4.154   3.611   1.152
  826WAT      O 2688   4.363   3.650   1.185
  826WAT     H1 2689   4.391   3.624   1.098
  826WAT     H2 2690   4.414   3.595   1.244
  827WAT      O 2691   4.484   2.024   1.243
  827WAT     H1 2692   4.406   2.071   1.271
  827WAT     H2 2693   4.455   1.933   1.232
  828WAT      O 2694   3.557   3.671   0.745
  828WAT     H1 2695   3.540   3.608   0.815
  828WAT     H2 2696   3.470   3.692   0.710
  829WAT      O 2697   3.619   2.054   0.495
  829WAT     H1 2698   3.695   2.066   0.438
  829WAT     H2 2699   3.573   2.138   0.491
  830WAT      O 2700   4.273   2.266   0.794
  830WAT     H1 2701   4.192   2.228   0.760
  830WAT     H2 2702   4.323   2.190   0.825
  831WAT      O 2703   4.723   1.932   0.918
  831WAT     H1 2704   4.784   1.989   0.966
  831WAT     H2 2705   4.649   1.988   0.896
  832WAT      O 2706   3.717   3.540   0.490
  832WAT     H1 2707   3.665   3.579   0.419
  832WAT     H2 2708   3.710   3.603   0.562
  833WAT      O 2709   3.856   2.107   0.349
  833WAT     H1 2710   3.909   2.028   0.337
  833WAT     H2 2711   3.919   2.175   0.373
  834WAT      O 2712   4.076   2.081   0.655
  834WAT     H1 2713   4.013   2.011   0.672
  834WAT     H2 2714   4.022   2.157   0.633
  835WAT      O 2715   4.369   3.742   1.922
  835WAT     H1 2716   4.462   3.718   1.926
  835WAT     H2 2717   4.368   3.825   1.874
  836WAT      O 2718   4.088   2.008   1.898
  836WAT     H1 2719   4.060   2.059   1.822
  836WAT     H2 2720   4.126   1.929   1.862
  837WAT      O 2721   3.977   3.735   0.377
  837WAT     H1 2722   4.050   3.707   0.322
  837WAT     H2 2723   4.003   3.711   0.466
  838WAT      O 2724   3.893   3.347   0.378
  838WAT     H1 2725   3.830   3.394   0.432
  838WAT     H2 2726   3.905   3.262   0.421
  839WAT      O 2727   4.639   0.875   4.625
  839WAT     H1 2728   4.631   0.783   4.598
  839WAT     H2 2729   4.597   0.924   4.554
  840WAT      O 2730   4.452   1.052   4.813
  840WAT     H1 2731   4.374   1.004   4.842
  840WAT     H2 2732   4.517   0.984   4.796
  841WAT      O 2733   3.854   1.084   4.901
  841WAT     H1 2734   3.770   1.058   4.941
  841WAT     H2 2735   3.914   1.091   4.974
  842WAT      O 2736   3.852   1.487   4.920
  842WAT     H1 2737   3.882   1.398   4.902
  842WAT     H2 2738   3.926   1.543   4.898
  843WAT      O 2739   3.695   0.580   4.279
  843WAT     H1 2740   3.606   0.614   4.269
  843WAT     H2 2741   3.723   0.560   4.190
  844WAT      O 2742   3.491   0.840   4.868
  844WAT     H1 2743   3.548   0.763   4.868
  844WAT     H2 2744   3.491   0.869   4.777
  845WAT      O 2745   4.477   1.721   4.653
  845WAT     H1 2746   4.415   1.767   4.596
  845WAT     H2 2747   4.562   1.737   4.613
  846WAT      O 2748   4.396   1.320   4.814
  846WAT     H1 2749   4.389   1.226   4.798
  846WAT     H2 2750   4.472   1.329   4.871
  847WAT      O 2751   3.615   0.380   5.046
  847WAT     H1 2752   3.597   0.291   5.074
  847WAT     H2 2753   3.575   0.435   5.114
  848WAT      O 2754   4.499   0.601   4.836
  848WAT     H1 2755   4.537   0.513   4.825
  848WAT     H2 2756   4.489   0.634   4.747
  849WAT      O 2757   3.912   0.438   4.383
  849WAT     H1 2758   3.923   0.528   4.413
  849WAT     H2 2759   3.821   0.433   4.354
  850WAT      O 2760   3.677   0.630   4.907
  850WAT     H1 2761   3.745   0.656   4.969
  850WAT     H2 2762   3.645   0.546   4.940
  851WAT      O 2763   4.096   0.735   4.816
  851WAT     H1 2764   4.147   0.785   4.880
  851WAT     H2 2765   4.149   0.657   4.798
  852WAT      O 2766   4.563   1.210   4.392
  852WAT     H1 2767   4.501   1.256   4.336
  852WAT     H2 2768   4.615   1.279   4.434
  853WAT      O 2769   4.050   1.163   5.060
  853WAT     H1 2770   4.016   1.225   5.124
  853WAT     H2 2771   4.067   1.215   4.982
  854WAT      O 2772   3.893   0.370   5.043
  854WAT     H1 2773   3.927   0.454   5.014
  854WAT     H2 2774   3.799   0.385   5.055
  855WAT      O 2775   3.971   1.359   5.242
  855WAT     H1 2776   4.033   1.427   5.214
  855WAT     H2 2777   3.885   1.400   5.233
  856WAT      O 2778   3.500   1.278   4.130
  856WAT     H1 2779   3.462   1.327   4.057
  856WAT     H2 2780   3.526   1.346   4.193
  857WAT      O 2781   4.500   0.925   4.349
  857WAT     H1 2782   4.407   0.918   4.372
  857WAT     H2 2783   4.515   1.019   4.338
  858WAT      O 2784   4.499   0.552   4.049
  858WAT     H1 2785   4.405   0.568   4.057
  858WAT     H2 2786   4.530   0.624   3.994
  859WAT      O 2787   4.060   0.978   4.627
  859WAT     H1 2788   4.020   0.907   4.578
  859WAT     H2 2789   4.069   0.943   4.716
  860WAT      O 2790   4.107   1.346   4.844
  860WAT     H1 2791   4.078   1.286   4.776
  860WAT     H2 2792   4.202   1.350   4.833
  861WAT      O 2793   3.932   0.655   5.005
  861WAT     H1 2794   3.987   0.666   4.928
  861WAT     H2 2795   3.983   0.693   5.077
  862WAT      O 2796   4.016   1.320   5.509
  862WAT     H1 2797   3.927   1.343   5.534
  862WAT     H2 2798   4.019   1.333   5.414
  863WAT      O 2799   4.720   1.005   4.100
  863WAT     H1 2800   4.764   0.921   4.086
  863WAT     H2 2801   4.792   1.068   4.109
  864WAT      O 2802   3.899   1.007   5.366
  864WAT     H1 2803   3.885   1.095   5.403
  864WAT     H2 2804   3.811   0.973   5.352
  865WAT      O 2805   4.531   1.499   4.497
  865WAT     H1 2806   4.575   1.573   4.456
  865WAT     H2 2807   4.525   1.523   4.589
  866WAT      O 2808   4.079   1.602   5.587
  866WAT     H1 2809   4.076   1.642   5.501
  866WAT     H2 2810   4.063   1.509   5.571
  867WAT      O 2811   3.730   0.867   4.377
  867WAT     H1 2812   3.718   0.940   4.316
  867WAT     H2 2813   3.699   0.790   4.330
  868WAT      O 2814   3.494   1.184   4.958
  868WAT     H1 2815   3.502   1.198   4.864
  868WAT     H2 2816   3.556   1.114   4.977
  869WAT      O 2817   3.619   1.354   4.599
  869WAT     H1 2818   3.578   1.369   4.514
  869WAT     H2 2819   3.708   1.326   4.579
  870WAT      O 2820   4.601   1.769   5.290
  870WAT     H1 2821   4.652   1.760   5.370
  870WAT     H2 2822   4.516   1.804   5.319
  871WAT      O 2823   4.798   1.798   4.233
  871WAT     H1 2824   4.782   1.769   4.323
  871WAT     H2 2825   4.782   1.720   4.179
  872WAT      O 2826   4.046   1.776   4.410
  872WAT     H1 2827   4.028   1.684   4.389
  872WAT     H2 2828   3.961   1.812   4.434
  873WAT      O 2829   4.725   1.711   4.496
  873WAT     H1 2830   4.770   1.633   4.528
  873WAT     H2 2831   4.759   1.782   4.551
  874WAT      O 2832   3.500   1.288   5.212
  874WAT     H1 2833   3.516   1.242   5.130
  874WAT     H2 2834   3.546   1.238   5.279
  875WAT      O 2835   3.977   0.202   4.716
  875WAT     H1 2836   3.933   0.280   4.683
  875WAT     H2 2837   4.033   0.234   4.786
  876WAT      O 2838   4.406   0.488   5.276
  876WAT     H1 2839   4.360   0.509   5.357
  876WAT     H2 2840   4.366   0.407   5.246
  877WAT      O 2841   4.615   0.760   5.599
  877WAT     H1 2842   4.648   0.677   5.565
  877WAT     H2 2843   4.694   0.813   5.614
  878WAT      O 2844   4.181   0.256   4.902
  878WAT     H1 2845   4.211   0.347   4.894
  878WAT     H2 2846   4.236   0.207   4.840
  879WAT      O 2847   3.956   0.714   4.489
  879WAT     H1 2848   3.934   0.692   4.579
  879WAT     H2 2849   3.878   0.757   4.454
  880WAT      O 2850   4.679   0.715   4.348
  880WAT     H1 2851   4.619   0.787   4.330
  880WAT     H2 2852   4.734   0.708   4.270
  881WAT      O 2853   4.200   0.804   5.555
  881WAT     H1 2854   4.191   0.710   5.540
  881WAT     H2 2855   4.285   0.826   5.516
  882WAT      O 2856   4.540   0.578   4.551
  882WAT     H1 2857   4.579   0.610   4.470
  882WAT     H2 2858   4.576   0.490   4.563
  883WAT      O 2859   3.713   0.445   5.370
  883WAT     H1 2860   3.674   0.530   5.391
  883WAT     H2 2861   3.645   0.381   5.390
  884WAT      O 2862   3.444   0.237   4.774
  884WAT     H1 2863   3.415   0.294   4.845
  884WAT     H2 2864   3.518   0.189   4.810
  885WAT      O 2865   3.462   0.631   3.895
  885WAT     H1 2866   3.454   0.726   3.909
  885WAT     H2 2867   3.427   0.617   3.807
  886WAT      O 2868   4.598   0.837   4.961
  886WAT     H1 2869   4.525   0.888   4.996
  886WAT     H2 2870   4.559   0.756   4.931
  887WAT      O 2871   4.242   0.505   4.801
  887WAT     H1 2872   4.243   0.461   4.717
  887WAT     H2 2873   4.332   0.537   4.812
  888WAT      O 2874   3.827   0.493   4.697
  888WAT     H1 2875   3.793   0.541   4.773
  888WAT     H2 2876   3.751   0.448   4.661
  889WAT      O 2877   4.248   0.605   4.101
  889WAT     H1 2878   4.261   0.601   4.195
  889WAT     H2 2879   4.210   0.691   4.085
  890WAT      O 2880   4.645   0.383   4.902
  890WAT     H1 2881   4.646   0.428   4.987
  890WAT     H2 2882   4.620   0.293   4.924
  891WAT      O 2883   4.150   0.836   4.040
  891WAT     H1 2884   4.093   0.791   3.978
  891WAT     H2 2885   4.220   0.872   3.987
  892WAT      O 2886   3.657   1.226   5.428
  892WAT     H1 2887   3.619   1.162   5.488
  892WAT     H2 2888   3.688   1.296   5.485
  893WAT      O 2889   4.272   0.911   4.976
  893WAT     H1 2890   4.309   0.863   5.051
  893WAT     H2 2891   4.253   0.998   5.010
  894WAT      O 2892   3.559   0.385   4.589
  894WAT     H1 2893   3.530   0.349   4.673
  894WAT     H2 2894   3.552   0.312   4.528
  895WAT      O 2895   4.051   0.815   5.208
  895WAT     H1 2896   4.021   0.903   5.230
  895WAT     H2 2897   4.147   0.821   5.212
  896WAT      O 2898   3.904   1.235   4.268
  896WAT     H1 2899   3.827   1.181   4.252
  896WAT     H2 2900   3.977   1.184   4.234
  897WAT      O 2901   4.526   0.275   4.261
  897WAT     H1 2902   4.445   0.225   4.254
  897WAT     H2 2903   4.507   0.358   4.220
  898WAT      O 2904   4.518   1.142   5.436
  898WAT     H1 2905   4.512   1.050   5.410
  898WAT     H2 2906   4.455   1.152   5.507
  899WAT      O 2907   3.908   1.202   4.631
  899WAT     H1 2908   3.960   1.122   4.626
  899WAT     H2 2909   3.863   1.196   4.716
  900WAT      O 2910   4.397   1.329   4.159
  900WAT     H1 2911   4.431   1.403   4.109
  900WAT     H2 2912   4.314   1.360   4.195
  901WAT      O 2913   3.657   0.899   5.323
  901WAT     H1 2914   3.621   0.965   5.381
  901WAT     H2 2915   3.627   0.816   5.360
  902WAT      O 2916   3.977   0.945   5.611
  902WAT     H1 2917   3.947   0.959   5.521
  902WAT     H2 2918   4.054   0.889   5.602
  903WAT      O 2919   4.511   1.424   5.411
  903WAT     H1 2920   4.513   1.331   5.389
  903WAT     H2 2921   4.441   1.433   5.475
  904WAT      O 2922   4.685   1.261   4.695
  904WAT     H1 2923   4.721   1.201   4.629
  904WAT     H2 2924   4.597   1.229   4.712
  905WAT      O 2925   4.294   1.337   4.436
  905WAT     H1 2926   4.363   1.392   4.474
  905WAT     H2 2927   4.215   1.391   4.439
  906WAT      O 2928   3.508   0.899   3.985
  906WAT     H1 2929   3.595   0.927   4.013
  906WAT     H2 2930   3.459   0.980   3.974
  907WAT      O 2931   4.224   1.038   4.397
  907WAT     H1 2932   4.270   1.119   4.420
  907WAT     H2 2933   4.189   1.006   4.480
  908WAT      O 2934   4.455   1.589   5.120
  908WAT     H1 2935   4.519   1.609   5.188
  908WAT     H2 2936   4.491   1.512   5.075
  909WAT      O 2937   4.582   1.389   4.992
  909WAT     H1 2938   4.646   1.319   5.003
  909WAT     H2 2939   4.634   1.467   4.974
  910WAT      O 2940   4.759   1.469   5.312
  910WAT     H1 2941   4.793   1.528   5.380
  910WAT     H2 2942   4.667   1.456   5.335
  911WAT      O 2943   3.545   1.820   4.042
  911WAT     H1 2944   3.581   1.880   3.976
  911WAT     H2 2945   3.531   1.875   4.119
  912WAT      O 2946   3.514   0.248   5.390
  912WAT     H1 2947   3.443   0.268   5.451
  912WAT     H2 2948   3.556   0.170   5.428
  913WAT      O 2949   3.543   1.647   5.489
  913WAT     H1 2950   3.554   1.553   5.475
  913WAT     H2 2951   3.478   1.673   5.424
  914WAT      O 2952   4.146   1.558   4.123
  914WAT     H1 2953   4.145   1.632   4.062
  914WAT     H2 2954   4.054   1.534   4.133
  915WAT      O 2955   3.706   1.081   4.198
  915WAT     H1 2956   3.646   1.155   4.199
  915WAT     H2 2957   3.754   1.090   4.115
  916WAT      O 2958   4.664   0.497   5.165
  916WAT     H1 2959   4.701   0.415   5.198
  916WAT     H2 2960   4.578   0.503   5.207
  917WAT      O 2961   4.445   1.565   3.990
  917WAT     H1 2962   4.455   1.544   3.897
  917WAT     H2 2963   4.355   1.539   4.010
  918WAT      O 2964   4.197   0.620   4.388
  918WAT     H1 2965   4.126   0.667   4.432
  918WAT     H2 2966   4.226   0.555   4.451
  919WAT      O 2967   4.360   0.762   5.188
  919WAT     H1 2968   4.410   0.810   5.254
  919WAT     H2 2969   4.374   0.670   5.209
  920WAT      O 2970   4.600   0.293   4.532
  920WAT     H1 2971   4.588   0.295   4.437
  920WAT     H2 2972   4.695   0.298   4.544
  921WAT      O 2973   4.309   1.817   4.459
  921WAT     H1 2974   4.335   1.813   4.367
  921WAT     H2 2975   4.214   1.804   4.458
  922WAT      O 2976   4.018   0.451   4.125
  922WAT     H1 2977   4.102   0.495   4.119
  922WAT     H2 2978   3.981   0.483   4.208
  923WAT      O 2979   3.907   1.077   3.973
  923WAT     H1 2980   3.984   1.065   4.029
  923WAT     H2 2981   3.915   1.007   3.908
  924WAT      O 2982   3.777   0.820   4.041
  924WAT     H1 2983   3.785   0.725   4.052
  924WAT     H2 2984   3.866   0.853   4.052
  925WAT      O 2985   3.857   1.835   4.751
  925WAT     H1 2986   3.931   1.780   4.779
  925WAT     H2 2987   3.896   1.921   4.737
  926WAT      O 2988   3.546   1.442   4.339
  926WAT     H1 2989   3.453   1.466   4.338
  926WAT     H2 2990   3.592   1.524   4.327
  927WAT      O 2991   4.168   1.752   3.934
  927WAT     H1 2992   4.247   1.781   3.889
  927WAT     H2 2993   4.116   1.709   3.866
  928WAT      O 2994   3.530   1.002   5.565
  928WAT     H1 2995   3.580   0.944   5.622
  928WAT     H2 2996   3.456   1.030   5.618
  929WAT      O 2997   4.220   1.274   3.920
  929WAT     H1 2998   4.209   1.213   3.993
  929WAT     H2 2999   4.203   1.222   3.842
  930WAT      O 3000   4.235   1.143   5.518
  930WAT     H1 3001   4.159   1.200   5.510
  930WAT     H2 3002   4.253   1.114   5.429
  931WAT      O 3003   4.544   1.180   3.981
  931WAT     H1 3004   4.489   1.225   4.045
  931WAT     H2 3005   4.606   1.130   4.033
  932WAT      O 3006   4.111   1.076   4.170
  932WAT     H1 3007   4.153   1.060   4.254
  932WAT     H2 3008   4.123   0.995   4.121
  933WAT      O 3009   3.927   0.674   5.451
  933WAT     H1 3010   3.874   0.625   5.388
  933WAT     H2 3011   3.994   0.717   5.397
  934WAT      O 3012   4.362   0.979   3.895
  934WAT     H1 3013   4.414   0.907   3.858
  934WAT     H2 3014   4.427   1.043   3.925
  935WAT      O 3015   3.976   0.371   5.459
  935WAT     H1 3016   3.966   0.309   5.386
  935WAT     H2 3017   3.918   0.444   5.436
  936WAT      O 3018   4.252   0.227   5.162
  936WAT     H1 3019   4.207   0.229   5.078
  936WAT     H2 3020   4.189   0.187   5.222
  937WAT      O 3021   4.293   1.116   5.224
  937WAT     H1 3022   4.335   1.200   5.207
  937WAT     H2 3023   4.201   1.130   5.201
  938WAT      O 3024   4.527   0.889   5.363
  938WAT     H1 3025   4.538   0.830   5.437
  938WAT     H2 3026   4.612   0.893   5.321
  939WAT      O 3027   4.760   0.945   5.220
  939WAT     H1 3028   4.708   0.997   5.160
  939WAT     H2 3029   4.795   1.008   5.283
  940WAT      O 3030   4.000   0.684   3.865
  940WAT     H1 3031   3.980   0.597   3.901
  940WAT     H2 3032   3.983   0.675   3.771
  941WAT      O 3033   4.078   1.747   5.336
  941WAT     H1 3034   4.024   1.819   5.304
  941WAT     H2 3035   4.103   1.699   5.257
  942WAT      O 3036   4.203   0.544   5.488
  942WAT     H1 3037   4.262   0.513   5.557
  942WAT     H2 3038   4.121   0.496   5.504
  943WAT      O 3039   4.685   0.505   5.512
  943WAT     H1 3040   4.616   0.439   5.505
  943WAT     H2 3041   4.757   0.461   5.556
  944WAT      O 3042   3.880   0.394   3.864
  944WAT     H1 3043   3.910   0.394   3.773
  944WAT     H2 3044   3.954   0.359   3.913
  945WAT      O 3045   4.364   1.870   5.362
  945WAT     H1 3046   4.356   1.961   5.392
  945WAT     H2 3047   4.273   1.838   5.359
  946WAT      O 3048   4.202   0.288   3.962
  946WAT     H1 3049   4.167   0.220   3.904
  946WAT     H2 3050   4.222   0.242   4.044
  947WAT      O 3051   4.418   1.787   4.124
  947WAT     H1 3052   4.508   1.821   4.126
  947WAT     H2 3053   4.422   1.715   4.061
  948WAT      O 3054   3.782   1.324   3.947
  948WAT     H1 3055   3.826   1.378   4.012
  948WAT     H2 3056   3.831   1.242   3.948
  949WAT      O 3057   3.504   1.603   4.692
  949WAT     H1 3058   3.537   1.516   4.669
  949WAT     H2 3059   3.547   1.624   4.775
  950WAT      O 3060   3.963   1.436   4.458
  950WAT     H1 3061   3.933   1.424   4.548
  950WAT     H2 3062   3.953   1.350   4.417
  951WAT      O 3063   3.553   1.690   4.966
  951WAT     H1 3064   3.509   1.708   5.049
  951WAT     H2 3065   3.610   1.765   4.952
  952WAT      O 3066   3.536   0.941   4.602
  952WAT     H1 3067   3.471   0.914   4.537
  952WAT     H2 3068   3.620   0.930   4.557
  953WAT      O 3069   3.640   0.979   5.056
  953WAT     H1 3070   3.677   0.971   5.144
  953WAT     H2 3071   3.583   0.903   5.046
  954WAT      O 3072   3.595   0.670   5.446
  954WAT     H1 3073   3.505   0.667   5.480
  954WAT     H2 3074   3.649   0.690   5.523
  955WAT      O 3075   3.457   0.662   4.196
  955WAT     H1 3076   3.367   0.688   4.179
  955WAT     H2 3077   3.506   0.689   4.118
  956WAT      O 3078   3.712   0.568   3.987
  956WAT     H1 3079   3.783   0.525   3.938
  956WAT     H2 3080   3.640   0.574   3.924
  957WAT      O 3081   4.151   1.586   5.132
  957WAT     H1 3082   4.127   1.613   5.043
  957WAT     H2 3083   4.245   1.603   5.138
  958WAT      O 3084   4.372   0.233   5.508
  958WAT     H1 3085   4.366   0.292   5.583
  958WAT     H2 3086   4.466   0.222   5.493
  959WAT      O 3087   3.765   1.725   5.284
  959WAT     H1 3088   3.706   1.712   5.358
  959WAT     H2 3089   3.764   1.642   5.237
  960WAT      O 3090   3.728   1.462   5.179
  960WAT     H1 3091   3.656   1.400   5.172
  960WAT     H2 3092   3.734   1.501   5.092
  961WAT      O 3093   4.089   1.683   4.858
  961WAT     H1 3094   4.140   1.622   4.805
  961WAT     H2 3095   4.154   1.734   4.907
  962WAT      O 3096   4.363   1.772   4.940
  962WAT     H1 3097   4.391   1.747   4.853
  962WAT     H2 3098   4.414   1.717   4.999
  963WAT      O 3099   3.557   1.794   4.500
  963WAT     H1 3100   3.540   1.730   4.570
  963WAT     H2 3101   3.470   1.814   4.465
  964WAT      O 3102   3.619   0.177   4.250
  964WAT     H1 3103   3.695   0.188   4.193
  964WAT     H2 3104   3.573   0.261   4.246
  965WAT      O 3105   4.273   0.388   4.549
  965WAT     H1 3106   4.192   0.351   4.515
  965WAT     H2 3107   4.323   0.313   4.580
  966WAT      O 3108   3.717   1.663   4.245
  966WAT     H1 3109   3.665   1.701   4.174
  966WAT     H2 3110   3.710   1.726   4.317
  967WAT      O 3111   3.977   1.858   4.132
  967WAT     H1 3112   4.050   1.829   4.077
  967WAT     H2 3113   4.003   1.834   4.221
  968WAT      O 3114   3.893   1.469   4.132
  968WAT     H1 3115   3.830   1.516   4.187
  968WAT     H2 3116   3.905   1.385   4.176
  969WAT      O 3117   4.639   0.875   2.747
  969WAT     H1 3118   4.631   0.783   2.720
  969WAT     H2 3119   4.597   0.924   2.677
  970WAT      O 3120   4.452   1.052   2.936
  970WAT     H1 3121   4.374   1.004   2.965
  970WAT     H2 3122   4.517   0.984   2.918
  971WAT      O 3123   3.854   1.084   3.023
  971WAT     H1 3124   3.770   1.058   3.063
  971WAT     H2 3125   3.914   1.091   3.097
  972WAT      O 3126   3.852   1.487   3.043
  972WAT     H1 3127   3.882   1.398   3.025
  972WAT     H2 3128   3.926   1.543   3.020
  973WAT      O 3129   3.695   0.580   2.402
  973WAT     H1 3130   3.606   0.614   2.392
  973WAT     H2 3131   3.723   0.560   2.313
  974WAT      O 3132   3.491   0.840   2.990
  974WAT     H1 3133   3.548   0.763   2.990
  974WAT     H2 3134   3.491   0.869   2.899
  975WAT      O 3135   4.477   1.721   2.776
  975WAT     H1 3136   4.415   1.767   2.719
  975WAT     H2 3137   4.562   1.737   2.735
  976WAT      O 3138   4.396   1.320   2.936
  976WAT     H1 3139   4.389   1.226   2.920
  976WAT     H2 3140   4.472   1.329   2.993
  977WAT      O 3141   3.615   0.380   3.169
  977WAT     H1 3142   3.597   0.291   3.197
  977WAT     H2 3143   3.575   0.435   3.236
  978WAT      O 3144   4.499   0.601   2.959
  978WAT     H1 3145   4.537   0.513   2.948
  978WAT     H2 3146   4.489   0.634   2.870
  979WAT      O 3147   3.912   0.438   2.505
  979WAT     H1 3148   3.923   0.528   2.536
  979WAT     H2 3149   3.821   0.433   2.476
  980WAT      O 3150   3.677   0.630   3.030
  980WAT     H1 3151   3.745   0.656   3.092
  980WAT     H2 3152   3.645   0.546   3.063
  981WAT      O 3153   4.096   0.735   2.938
  981WAT     H1 3154   4.147   0.785   3.002
  981WAT     H2 3155   4.149   0.657   2.921
  982WAT      O 3156   4.563   1.210   2.515
  982WAT     H1 3157   4.501   1.256   2.459
  982WAT     H2 3158   4.615   1.279   2.557
  983WAT      O 3159   4.050   1.163   3.183
  983WAT     H1 3160   4.016   1.225   3.247
  983WAT     H2 3161   4.067   1.215   3.105
  984WAT      O 3162   3.893   0.370   3.166
  984WAT     H1 3163   3.927   0.454   3.136
  984WAT     H2 3164   3.799   0.385   3.177
  985WAT      O 3165   3.971   1.359   3.364
  985WAT     H1 3166   4.033   1.427   3.336
  985WAT     H2 3167   3.885   1.400   3.355
  986WAT      O 3168   3.500   1.278   2.252
  986WAT     H1 3169   3.462   1.327   2.179
  986WAT     H2 3170   3.526   1.346   2.315
  987WAT      O 3171   4.500   0.925   2.472
  987WAT     H1 3172   4.407   0.918   2.495
  987WAT     H2 3173   4.515   1.019   2.460
  988WAT      O 3174   4.499   0.552   2.171
  988WAT     H1 3175   4.405   0.568   2.180
  988WAT     H2 3176   4.530   0.624   2.117
  989WAT      O 3177   4.060   0.978   2.750
  989WAT     H1 3178   4.020   0.907   2.700
  989WAT     H2 3179   4.069   0.943   2.839
  990WAT      O 3180   4.107   1.346   2.966
  990WAT     H1 3181   4.078   1.286   2.898
  990WAT     H2 3182   4.202   1.350   2.955
  991WAT      O 3183   3.932   0.655   3.128
  991WAT     H1 3184   3.987   0.666   3.050
  991WAT     H2 3185   3.983   0.693   3.200
  992WAT      O 3186   4.016   1.320   3.631
  992WAT     H1 3187   3.927   1.343   3.656
  992WAT     H2 3188   4.019   1.333   3.537
  993WAT      O 3189   4.720   1.005   2.223
  993WAT     H1 3190   4.764   0.921   2.208
  993WAT     H2 3191   4.792   1.068   2.231
  994WAT      O 3192   3.899   1.007   3.489
  994WAT     H1 3193   3.885   1.095   3.526
  994WAT     H2 3194   3.811   0.973   3.474
  995WAT      O 3195   4.531   1.499   2.620
  995WAT     H1 3196   4.575   1.573   2.578
  995WAT     H2 3197   4.525   1.523   2.712
  996WAT      O 3198   4.079   1.602   3.710
  996WAT     H1 3199   4.076   1.642   3.623
  996WAT     H2 3200   4.063   1.509   3.694
  997WAT      O 3201   3.730   0.867   2.500
  997WAT     H1 3202   3.718   0.940   2.439
  997WAT     H2 3203   3.699   0.790   2.452
  998WAT      O 3204   3.494   1.184   3.081
  998WAT     H1 3205   3.502   1.198   2.986
  998WAT     H2 3206   3.556   1.114   3.100
  999WAT      O 3207   3.619   1.354   2.722
  999WAT     H1 3208   3.578   1.369   2.636
  999WAT     H2 3209   3.708   1.326   2.701
 1000WAT      O 3210   4.601   1.769   3.412
 1000WAT     H1 3211   4.652   1.760   3.493
 1000WAT     H2 3212   4.516   1.804   3.442
 1001WAT      O 3213   4.798   1.798   2.355
 1001WAT     H1 3214   4.782   1.769   2.445
 1001WAT     H2 3215   4.782   1.720   2.302
 1002WAT      O 3216   4.046   1.776   2.533
 1002WAT     H1 3217   4.028   1.684   2.512
 1002WAT     H2 3218   3.961   1.812   2.557
 1003WAT      O 3219   4.725   1.711   2.619
 1003WAT     H1 3220   4.770   1.633   2.650
 1003WAT     H2 3221   4.759   1.782   2.673
 1004WAT      O 3222   3.500   1.288   3.335
 1004WAT     H1 3223   3.516   1.242   3.253
 1004WAT     H2 3224   3.546   1.238   3.401
 1005WAT      O 3225   3.977   0.202   2.838
 1005WAT     H1 3226   3.933   0.280   2.805
 1005WAT     H2 3227   4.033   0.234   2.909
 1006WAT      O 3228   4.406   0.488   3.399
 1006WAT     H1 3229   4.360   0.509   3.480
 1006WAT     H2 3230   4.366   0.407   3.368
 1007WAT      O 3231   4.615   0.760   3.722
 1007WAT     H1 3232   4.648   0.677   3.688
 1007WAT     H2 3233   4.694   0.813   3.736
 1008WAT      O 3234   4.181   0.256   3.024
 1008WAT     H1 3235   4.211   0.347   3.016
 1008WAT     H2 3236   4.236   0.207   2.963
 1009WAT      O 3237   3.956   0.714   2.611
 1009WAT     H1 3238   3.934   0.692   2.702
 1009WAT     H2 3239   3.878   0.757   2.577
 1010WAT      O 3240   4.679   0.715   2.471
 1010WAT     H1 3241   4.619   0.787   2.453
 1010WAT     H2 3242   4.734   0.708   2.393
 1011WAT      O 3243   4.200   0.804   3.678
 1011WAT     H1 3244   4.191   0.710   3.663
 1011WAT     H2 3245   4.285   0.826   3.638
 1012WAT      O 3246   4.540   0.578   2.674
 1012WAT     H1 3247   4.579   0.610   2.593
 1012WAT     H2 3248   4.576   0.490   2.685
 1013WAT      O 3249   3.713   0.445   3.493
 1013WAT     H1 3250   3.674   0.530   3.514
 1013WAT     H2 3251   3.645   0.381   3.512
 1014WAT      O 3252   4.371   0.453   3.800
 1014WAT     H1 3253   4.302   0.434   3.863
 1014WAT     H2 3254   4.445   0.482   3.853
 1015WAT      O 3255   3.444   0.237   2.896
 1015WAT     H1 3256   3.415   0.294   2.968
 1015WAT     H2 3257   3.518   0.189   2.933
 1016WAT      O 3258   3.462   0.631   2.017
 1016WAT     H1 3259   3.454   0.726   2.032
 1016WAT     H2 3260   3.427   0.617   1.929
 1017WAT      O 3261   4.598   0.837   3.084
 1017WAT     H1 3262   4.525   0.888   3.118
 1017WAT     H2 3263   4.559   0.756   3.053
 1018WAT      O 3264   4.242   0.505   2.924
 1018WAT     H1 3265   4.243   0.461   2.839
 1018WAT     H2 3266   4.332   0.537   2.935
 1019WAT      O 3267   3.827   0.493   2.820
 1019WAT     H1 3268   3.793   0.541   2.896
 1019WAT     H2 3269   3.751   0.448   2.784
 1020WAT      O 3270   4.248   0.605   2.223
 1020WAT     H1 3271   4.261   0.601   2.318
 1020WAT     H2 3272   4.210   0.691   2.208
 1021WAT      O 3273   4.645   0.383   3.025
 1021WAT     H1 3274   4.646   0.428   3.109
 1021WAT     H2 3275   4.620   0.293   3.046
 1022WAT      O 3276   4.150   0.836   2.163
 1022WAT     H1 3277   4.093   0.791   2.100
 1022WAT     H2 3278   4.220   0.872   2.110
 1023WAT      O 3279   3.657   1.226   3.551
 1023WAT     H1 3280   3.619   1.162   3.610
 1023WAT     H2 3281   3.688   1.296   3.608
 1024WAT      O 3282   4.272   0.911   3.099
 1024WAT     H1 3283   4.309   0.863   3.173
 1024WAT     H2 3284   4.253   0.998   3.133
 1025WAT      O 3285   3.559   0.385   2.712
 1025WAT     H1 3286   3.530   0.349   2.795
 1025WAT     H2 3287   3.552   0.312   2.650
 1026WAT      O 3288   4.051   0.815   3.331
 1026WAT     H1 3289   4.021   0.903   3.353
 1026WAT     H2 3290   4.147   0.821   3.334
 1027WAT      O 3291   3.904   1.235   2.390
 1027WAT     H1 3292   3.827   1.181   2.374
 1027WAT     H2 3293   3.977   1.184   2.356
 1028WAT      O 3294   4.526   0.275   2.384
 1028WAT     H1 3295   4.445   0.225   2.376
 1028WAT     H2 3296   4.507   0.358   2.342
 1029WAT      O 3297   4.518   1.142   3.558
 1029WAT     H1 3298   4.512   1.050   3.533
 1029WAT     H2 3299   4.455   1.152   3.630
 1030WAT      O 3300   3.908   1.202   2.754
 1030WAT     H1 3301   3.960   1.122   2.749
 1030WAT     H2 3302   3.863   1.196   2.838
 1031WAT      O 3303   4.397   1.329   2.281
 1031WAT     H1 3304   4.431   1.403   2.232
 1031WAT     H2 3305   4.314   1.360   2.318
 1032WAT      O 3306   3.657   0.899   3.445
 1032WAT     H1 3307   3.621   0.965   3.504
 1032WAT     H2 3308   3.627   0.816   3.482
 1033WAT      O 3309   3.977   0.945   3.734
 1033WAT     H1 3310   3.947   0.959   3.644
 1033WAT     H2 3311   4.054   0.889   3.724
 1034WAT      O 3312   4.511   1.424   3.533
 1034WAT     H1 3313   4.513   1.331   3.511
 1034WAT     H2 3314   4.441   1.433   3.597
 1035WAT      O 3315   4.685   1.261   2.818
 1035WAT     H1 3316   4.721   1.201   2.752
 1035WAT     H2 3317   4.597   1.229   2.835
 1036WAT      O 3318   4.294   1.337   2.558
 1036WAT     H1 3319   4.363   1.392   2.597
 1036WAT     H2 3320   4.215   1.391   2.562
 1037WAT      O 3321   3.508   0.899   2.108
 1037WAT     H1 3322   3.595   0.927   2.136
 1037WAT     H2 3323   3.459   0.980   2.096
 1038WAT      O 3324   4.224   1.038   2.520
 1038WAT     H1 3325   4.270   1.119   2.542
 1038WAT     H2 3326   4.189   1.006   2.603
 1039WAT      O 3327   4.455   1.589   3.243
 1039WAT     H1 3328   4.519   1.609   3.310
 1039WAT     H2 3329   4.491   1.512   3.197
 1040WAT      O 3330   4.582   1.389   3.114
 1040WAT     H1 3331   4.646   1.319   3.126
 1040WAT     H2 3332   4.634   1.467   3.096
 1041WAT      O 3333   4.759   1.469   3.435
 1041WAT     H1 3334   4.793   1.528   3.503
 1041WAT     H2 3335   4.667   1.456   3.458
 1042WAT      O 3336   3.545   1.820   2.164
 1042WAT     H1 3337   3.581   1.880   2.099
 1042WAT     H2 3338   3.531   1.875   2.242
 1043WAT      O 3339   3.514   0.248   3.513
 1043WAT     H1 3340   3.443   0.268   3.574
 1043WAT     H2 3341   3.556   0.170   3.550
 1044WAT      O 3342   3.543   1.647   3.612
 1044WAT     H1 3343   3.554   1.553   3.598
 1044WAT     H2 3344   3.478   1.673   3.547
 1045WAT      O 3345   4.342   1.474   3.752
 1045WAT     H1 3346   4.310   1.402   3.806
 1045WAT     H2 3347   4.275   1.541   3.759
 1046WAT      O 3348   4.146   1.558   2.246
 1046WAT     H1 3349   4.145   1.632   2.184
 1046WAT     H2 3350   4.054   1.534   2.255
 1047WAT      O 3351   3.706   1.081   2.320
 1047WAT     H1 3352   3.646   1.155   2.321
 1047WAT     H2 3353   3.754   1.090   2.238
 1048WAT      O 3354   4.664   0.497   3.288
 1048WAT     H1 3355   4.701   0.415   3.321
 1048WAT     H2 3356   4.578   0.503   3.330
 1049WAT      O 3357   4.445   1.565   2.112
 1049WAT     H1 3358   4.455   1.544   2.019
 1049WAT     H2 3359   4.355   1.539   2.133
 1050WAT      O 3360   4.197   0.620   2.510
 1050WAT     H1 3361   4.126   0.667   2.555
 1050WAT     H2 3362   4.226   0.555   2.574
 1051WAT      O 3363   4.360   0.762   3.310
 1051WAT     H1 3364   4.410   0.810   3.377
 1051WAT     H2 3365   4.374   0.670   3.331
 1052WAT      O 3366   4.600   0.293   2.654
 1052WAT     H1 3367   4.588   0.295   2.560
 1052WAT     H2 3368   4.695   0.298   2.666
 1053WAT      O 3369   4.309   1.817   2.582
 1053WAT     H1 3370   4.335   1.813   2.489
 1053WAT     H2 3371   4.214   1.804   2.581
 1054WAT      O 3372   4.018   0.451   2.248
 1054WAT     H1 3373   4.102   0.495   2.241
 1054WAT     H2 3374   3.981   0.483   2.331
 1055WAT      O 3375   3.907   1.077   2.095
 1055WAT     H1 3376   3.984   1.065   2.152
 1055WAT     H2 3377   3.915   1.007   2.030
 1056WAT      O 3378   3.777   0.820   2.164
 1056WAT     H1 3379   3.785   0.725   2.175
 1056WAT     H2 3380   3.866   0.853   2.174
 1057WAT      O 3381   3.857   1.835   2.874
 1057WAT     H1 3382   3.931   1.780   2.901
 1057WAT     H2 3383   3.896   1.921   2.860
 1058WAT      O 3384   3.546   1.442   2.461
 1058WAT     H1 3385   3.453   1.466   2.460
 1058WAT     H2 3386   3.592   1.524   2.449
 1059WAT      O 3387   3.758   1.753   3.793
 1059WAT     H1 3388   3.838   1.785   3.834
 1059WAT     H2 3389   3.706   1.717   3.865
 1060WAT      O 3390   4.168   1.752   2.056
 1060WAT     H1 3391   4.247   1.781   2.011
 1060WAT     H2 3392   4.116   1.709   1.988
 1061WAT      O 3393   4.641   1.364   3.788
 1061WAT     H1 3394   4.581   1.366   3.714
 1061WAT     H2 3395   4.611   1.291   3.841
 1062WAT      O 3396   3.530   1.002   3.687
 1062WAT     H1 3397   3.580   0.944   3.744
 1062WAT     H2 3398   3.456   1.030   3.741
 1063WAT      O 3399   4.220   1.274   2.043
 1063WAT     H1 3400   4.209   1.213   2.115
 1063WAT     H2 3401   4.203   1.222   1.964
 1064WAT      O 3402   4.235   1.143   3.641
 1064WAT     H1 3403   4.159   1.200   3.632
 1064WAT     H2 3404   4.253   1.114   3.551
 1065WAT      O 3405   4.544   1.180   2.103
 1065WAT     H1 3406   4.489   1.225   2.168
 1065WAT     H2 3407   4.606   1.130   2.155
 1066WAT      O 3408   3.733   0.816   3.777
 1066WAT     H1 3409   3.737   0.786   3.868
 1066WAT     H2 3410   3.818   0.856   3.761
 1067WAT      O 3411   4.111   1.076   2.293
 1067WAT     H1 3412   4.153   1.060   2.377
 1067WAT     H2 3413   4.123   0.995   2.243
 1068WAT      O 3414   3.927   0.674   3.573
 1068WAT     H1 3415   3.874   0.625   3.511
 1068WAT     H2 3416   3.994   0.717   3.520
 1069WAT      O 3417   4.362   0.979   2.018
 1069WAT     H1 3418   4.414   0.907   1.981
 1069WAT     H2 3419   4.427   1.043   2.048
 1070WAT      O 3420   3.976   0.371   3.581
 1070WAT     H1 3421   3.966   0.309   3.509
 1070WAT     H2 3422   3.918   0.444   3.559
 1071WAT      O 3423   4.252   0.227   3.285
 1071WAT     H1 3424   4.207   0.229   3.200
 1071WAT     H2 3425   4.189   0.187   3.344
 1072WAT      O 3426   4.293   1.116   3.347
 1072WAT     H1 3427   4.335   1.200   3.330
 1072WAT     H2 3428   4.201   1.130   3.324
 1073WAT      O 3429   4.527   0.889   3.485
 1073WAT     H1 3430   4.538   0.830   3.559
 1073WAT     H2 3431   4.612   0.893   3.443
 1074WAT      O 3432   4.760   0.945   3.343
 1074WAT     H1 3433   4.708   0.997   3.282
 1074WAT     H2 3434   4.795   1.008   3.406
 1075WAT      O 3435   4.000   0.684   1.987
 1075WAT     H1 3436   3.980   0.597   2.023
 1075WAT     H2 3437   3.983   0.675   1.894
 1076WAT      O 3438   4.078   1.747   3.458
 1076WAT     H1 3439   4.024   1.819   3.426
 1076WAT     H2 3440   4.103   1.699   3.379
 1077WAT      O 3441   4.203   0.544   3.611
 1077WAT     H1 3442   4.262   0.513   3.680
 1077WAT     H2 3443   4.121   0.496   3.627
 1078WAT      O 3444   4.685   0.505   3.634
 1078WAT     H1 3445   4.616   0.439   3.628
 1078WAT     H2 3446   4.757   0.461   3.679
 1079WAT      O 3447   3.880   0.394   1.986
 1079WAT     H1 3448   3.910   0.394   1.895
 1079WAT     H2 3449   3.954   0.359   2.036
 1080WAT      O 3450   4.364   1.870   3.484
 1080WAT     H1 3451   4.356   1.961   3.515
 1080WAT     H2 3452   4.273   1.838   3.481
 1081WAT      O 3453   4.202   0.288   2.085
 1081WAT     H1 3454   4.167   0.220   2.027
 1081WAT     H2 3455   4.222   0.242   2.166
 1082WAT      O 3456   4.418   1.787   2.247
 1082WAT     H1 3457   4.508   1.821   2.249
 1082WAT     H2 3458   4.422   1.715   2.184
 1083WAT      O 3459   3.782   1.324   2.069
 1083WAT     H1 3460   3.826   1.378   2.135
 1083WAT     H2 3461   3.831   1.242   2.070
 1084WAT      O 3462   3.504   1.603   2.815
 1084WAT     H1 3463   3.537   1.516   2.791
 1084WAT     H2 3464   3.547   1.624   2.898
 1085WAT      O 3465   3.963   1.436   2.581
 1085WAT     H1 3466   3.933   1.424   2.671
 1085WAT     H2 3467   3.953   1.350   2.540
 1086WAT      O 3468   3.553   1.690   3.088
 1086WAT     H1 3469   3.509   1.708   3.172
 1086WAT     H2 3470   3.610   1.765   3.074
 1087WAT      O 3471   3.536   0.941   2.724
 1087WAT     H1 3472   3.471   0.914   2.660
 1087WAT     H2 3473   3.620   0.930   2.679
 1088WAT      O 3474   3.640   0.979   3.178
 1088WAT     H1 3475   3.677   0.971   3.266
 1088WAT     H2 3476   3.583   0.903   3.168
 1089WAT      O 3477   3.595   0.670   3.569
 1089WAT     H1 3478   3.505   0.667   3.603
 1089WAT     H2 3479   3.649   0.690   3.645
 1090WAT      O 3480   3.457   0.662   2.319
 1090WAT     H1 3481   3.367   0.688   2.301
 1090WAT     H2 3482   3.506   0.689   2.241
 1091WAT      O 3483   3.712   0.568   2.110
 1091WAT     H1 3484   3.783   0.525   2.061
 1091WAT     H2 3485   3.640   0.574   2.046
 1092WAT      O 3486   3.781   1.431   3.695
 1092WAT     H1 3487   3.777   1.394   3.783
 1092WAT     H2 3488   3.794   1.524   3.709
 1093WAT      O 3489   4.151   1.586   3.255
 1093WAT     H1 3490   4.127   1.613   3.166
 1093WAT     H2 3491   4.245   1.603   3.260
 1094WAT      O 3492   4.372   0.233   3.630
 1094WAT     H1 3493   4.366   0.292   3.705
 1094WAT     H2 3494   4.466   0.222   3.616
 1095WAT      O 3495   3.765   1.725   3.407
 1095WAT     H1 3496   3.706   1.712   3.480
 1095WAT     H2 3497   3.764   1.642   3.360
 1096WAT      O 3498   3.728   1.462   3.302
 1096WAT     H1 3499   3.656   1.400   3.295
 1096WAT     H2 3500   3.734   1.501   3.215
 1097WAT      O 3501   4.089   1.683   2.980
 1097WAT     H1 3502   4.140   1.622   2.928
 1097WAT     H2 3503   4.154   1.734   3.029
 1098WAT      O 3504   4.363   1.772   3.063
 1098WAT     H1 3505   4.391   1.747   2.975
 1098WAT     H2 3506   4.414   1.717   3.122
 1099WAT      O 3507   3.557   1.794   2.623
 1099WAT     H1 3508   3.540   1.730   2.692
 1099WAT     H2 3509   3.470   1.814   2.588
 1100WAT      O 3510   3.619   0.177   2.373
 1100WAT     H1 3511   3.695   0.188   2.316
 1100WAT     H2 3512   3.573   0.261   2.368
 1101WAT      O 3513   4.273   0.388   2.672
 1101WAT     H1 3514   4.192   0.351   2.638
 1101WAT     H2 3515   4.323   0.313   2.702
 1102WAT      O 3516   3.717   1.663   2.367
 1102WAT     H1 3517   3.665   1.701   2.297
 1102WAT     H2 3518   3.710   1.726   2.439
 1103WAT      O 3519   4.369   1.865   3.799
 1103WAT     H1 3520   4.462   1.841   3.804
 1103WAT     H2 3521   4.368   1.947   3.751
 1104WAT      O 3522   3.977   1.858   2.255
 1104WAT     H1 3523   4.050   1.829   2.200
 1104WAT     H2 3524   4.003   1.834   2.344
 1105WAT      O 3525   3.893   1.469   2.255
 1105WAT     H1 3526   3.830   1.516   2.310
 1105WAT     H2 3527   3.905   1.385   2.298
 1106WAT      O 3528   4.639   0.875   0.870
 1106WAT     H1 3529   4.631   0.783   0.843
 1106WAT     H2 3530   4.597   0.924   0.799
 1107WAT      O 3531   4.452   1.052   1.058
 1107WAT     H1 3532   4.374   1.004   1.087
 1107WAT     H2 3533   4.517   0.984   1.041
 1108WAT      O 3534   3.854   1.084   1.146
 1108WAT     H1 3535   3.770   1.058   1.186
 1108WAT     H2 3536   3.914   1.091   1.219
 1109WAT      O 3537   3.852   1.487   1.165
 1109WAT     H1 3538   3.882   1.398   1.148
 1109WAT     H2 3539   3.926   1.543   1.143
 1110WAT      O 3540   3.695   0.580   0.524
 1110WAT     H1 3541   3.606   0.614   0.514
 1110WAT     H2 3542   3.723   0.560   0.435
 1111WAT      O 3543   3.491   0.840   1.113
 1111WAT     H1 3544   3.548   0.763   1.113
 1111WAT     H2 3545   3.491   0.869   1.022
 1112WAT      O 3546   4.477   1.721   0.898
 1112WAT     H1 3547   4.415   1.767   0.841
 1112WAT     H2 3548   4.562   1.737   0.858
 1113WAT      O 3549   4.396   1.320   1.059
 1113WAT     H1 3550   4.389   1.226   1.043
 1113WAT     H2 3551   4.472   1.329   1.116
 1114WAT      O 3552   3.615   0.380   1.291
 1114WAT     H1 3553   3.597   0.291   1.319
 1114WAT     H2 3554   3.575   0.435   1.359
 1115WAT      O 3555   4.499   0.601   1.082
 1115WAT     H1 3556   4.537   0.513   1.070
 1115WAT     H2 3557   4.489   0.634   0.992
 1116WAT      O 3558   3.912   0.438   0.628
 1116WAT     H1 3559   3.923   0.528   0.658
 1116WAT     H2 3560   3.821   0.433   0.599
 1117WAT      O 3561   3.677   0.630   1.152
 1117WAT     H1 3562   3.745   0.656   1.214
 1117WAT     H2 3563   3.645   0.546   1.186
 1118WAT      O 3564   4.096   0.735   1.061
 1118WAT     H1 3565   4.147   0.785   1.125
 1118WAT     H2 3566   4.149   0.657   1.043
 1119WAT      O 3567   4.563   1.210   0.637
 1119WAT     H1 3568   4.501   1.256   0.581
 1119WAT     H2 3569   4.615   1.279   0.679
 1120WAT      O 3570   4.050   1.163   1.305
 1120WAT     H1 3571   4.016   1.225   1.370
 1120WAT     H2 3572   4.067   1.215   1.227
 1121WAT      O 3573   3.893   0.370   1.288
 1121WAT     H1 3574   3.927   0.454   1.259
 1121WAT     H2 3575   3.799   0.385   1.300
 1122WAT      O 3576   3.971   1.359   1.487
 1122WAT     H1 3577   4.033   1.427   1.459
 1122WAT     H2 3578   3.885   1.400   1.478
 1123WAT      O 3579   3.500   1.278   0.375
 1123WAT     H1 3580   3.462   1.327   0.302
 1123WAT     H2 3581   3.526   1.346   0.438
 1124WAT      O 3582   4.500   0.925   0.594
 1124WAT     H1 3583   4.407   0.918   0.617
 1124WAT     H2 3584   4.515   1.019   0.583
 1125WAT      O 3585   4.499   0.552   0.294
 1125WAT     H1 3586   4.405   0.568   0.303
 1125WAT     H2 3587   4.530   0.624   0.239
 1126WAT      O 3588   4.060   0.978   0.873
 1126WAT     H1 3589   4.020   0.907   0.823
 1126WAT     H2 3590   4.069   0.943   0.961
 1127WAT      O 3591   4.107   1.346   1.089
 1127WAT     H1 3592   4.078   1.286   1.021
 1127WAT     H2 3593   4.202   1.350   1.078
 1128WAT      O 3594   3.932   0.655   1.251
 1128WAT     H1 3595   3.987   0.666   1.173
 1128WAT     H2 3596   3.983   0.693   1.322
 1129WAT      O 3597   4.016   1.320   1.754
 1129WAT     H1 3598   3.927   1.343   1.779
 1129WAT     H2 3599   4.019   1.333   1.659
 1130WAT      O 3600   4.720   1.005   0.345
 1130WAT     H1 3601   4.764   0.921   0.331
 1130WAT     H2 3602   4.792   1.068   0.354
 1131WAT      O 3603   3.899   1.007   1.612
 1131WAT     H1 3604   3.885   1.095   1.648
 1131WAT     H2 3605   3.811   0.973   1.597
 1132WAT      O 3606   4.531   1.499   0.742
 1132WAT     H1 3607   4.575   1.573   0.701
 1132WAT     H2 3608   4.525   1.523   0.835
 1133WAT      O 3609   4.079   1.602   1.832
 1133WAT     H1 3610   4.076   1.642   1.746
 1133WAT     H2 3611   4.063   1.509   1.816
 1134WAT      O 3612   3.730   0.867   0.623
 1134WAT     H1 3613   3.718   0.940   0.561
 1134WAT     H2 3614   3.699   0.790   0.575
 1135WAT      O 3615   3.494   1.184   1.203
 1135WAT     H1 3616   3.502   1.198   1.109
 1135WAT     H2 3617   3.556   1.114   1.223
 1136WAT      O 3618   3.619   1.354   0.844
 1136WAT     H1 3619   3.578   1.369   0.759
 1136WAT     H2 3620   3.708   1.326   0.824
 1137WAT      O 3621   4.601   1.769   1.535
 1137WAT     H1 3622   4.652   1.760   1.615
 1137WAT     H2 3623   4.516   1.804   1.564
 1138WAT      O 3624   4.798   1.798   0.478
 1138WAT     H1 3625   4.782   1.769   0.568
 1138WAT     H2 3626   4.782   1.720   0.424
 1139WAT      O 3627   4.046   1.776   0.656
 1139WAT     H1 3628   4.028   1.684   0.634
 1139WAT     H2 3629   3.961   1.812   0.680
 1140WAT      O 3630   4.725   1.711   0.741
 1140WAT     H1 3631   4.770   1.633   0.773
 1140WAT     H2 3632   4.759   1.782   0.796
 1141WAT      O 3633   3.500   1.288   1.457
 1141WAT     H1 3634   3.516   1.242   1.375
 1141WAT     H2 3635   3.546   1.238   1.524
 1142WAT      O 3636   3.977   0.202   0.961
 1142WAT     H1 3637   3.933   0.280   0.928
 1142WAT     H2 3638   4.033   0.234   1.032
 1143WAT      O 3639   4.406   0.488   1.521
 1143WAT     H1 3640   4.360   0.509   1.602
 1143WAT     H2 3641   4.366   0.407   1.491
 1144WAT      O 3642   4.615   0.760   1.844
 1144WAT     H1 3643   4.648   0.677   1.810
 1144WAT     H2 3644   4.694   0.813   1.859
 1145WAT      O 3645   4.181   0.256   1.147
 1145WAT     H1 3646   4.211   0.347   1.139
 1145WAT     H2 3647   4.236   0.207   1.085
 1146WAT      O 3648   3.956   0.714   0.734
 1146WAT     H1 3649   3.934   0.692   0.824
 1146WAT     H2 3650   3.878   0.757   0.699
 1147WAT      O 3651   4.679   0.715   0.594
 1147WAT     H1 3652   4.619   0.787   0.575
 1147WAT     H2 3653   4.734   0.708   0.515
 1148WAT      O 3654   4.200   0.804   1.800
 1148WAT     H1 3655   4.191   0.710   1.785
 1148WAT     H2 3656   4.285   0.826   1.761
 1149WAT      O 3657   4.540   0.578   0.797
 1149WAT     H1 3658   4.579   0.610   0.715
 1149WAT     H2 3659   4.576   0.490   0.808
 1150WAT      O 3660   3.713   0.445   1.616
 1150WAT     H1 3661   3.674   0.530   1.636
 1150WAT     H2 3662   3.645   0.381   1.635
 1151WAT      O 3663   4.371   0.453   1.923
 1151WAT     H1 3664   4.302   0.434   1.986
 1151WAT     H2 3665   4.445   0.482   1.976
 1152WAT      O 3666   3.444   0.237   1.019
 1152WAT     H1 3667   3.415   0.294   1.090
 1152WAT     H2 3668   3.518   0.189   1.055
 1153WAT      O 3669   4.598   0.837   1.206
 1153WAT     H1 3670   4.525   0.888   1.241
 1153WAT     H2 3671   4.559   0.756   1.176
 1154WAT      O 3672   4.242   0.505   1.047
 1154WAT     H1 3673   4.243   0.461   0.962
 1154WAT     H2 3674   4.332   0.537   1.057
 1155WAT      O 3675   3.827   0.493   0.943
 1155WAT     H1 3676   3.793   0.541   1.018
 1155WAT     H2 3677   3.751   0.448   0.907
 1156WAT      O 3678   4.248   0.605   0.346
 1156WAT     H1 3679   4.261   0.601   0.441
 1156WAT     H2 3680   4.210   0.691   0.330
 1157WAT      O 3681   4.645   0.383   1.147
 1157WAT     H1 3682   4.646   0.428   1.232
 1157WAT     H2 3683   4.620   0.293   1.169
 1158WAT      O 3684   4.150   0.836   0.286
 1158WAT     H1 3685   4.093   0.791   0.223
 1158WAT     H2 3686   4.220   0.872   0.232
 1159WAT      O 3687   3.657   1.226   1.673
 1159WAT     H1 3688   3.619   1.162   1.733
 1159WAT     H2 3689   3.688   1.296   1.730
 1160WAT      O 3690   4.272   0.911   1.221
 1160WAT     H1 3691   4.309   0.863   1.296
 1160WAT     H2 3692   4.253   0.998   1.255
 1161WAT      O 3693   3.559   0.385   0.834
 1161WAT     H1 3694   3.530   0.349   0.918
 1161WAT     H2 3695   3.552   0.312   0.773
 1162WAT      O 3696   4.051   0.815   1.453
 1162WAT     H1 3697   4.021   0.903   1.476
 1162WAT     H2 3698   4.147   0.821   1.457
 1163WAT      O 3699   3.904   1.235   0.513
 1163WAT     H1 3700   3.827   1.181   0.497
 1163WAT     H2 3701   3.977   1.184   0.479
 1164WAT      O 3702   4.526   0.275   0.506
 1164WAT     H1 3703   4.445   0.225   0.499
 1164WAT     H2 3704   4.507   0.358   0.465
 1165WAT      O 3705   4.518   1.142   1.681
 1165WAT     H1 3706   4.512   1.050   1.655
 1165WAT     H2 3707   4.455   1.152   1.752
 1166WAT      O 3708   3.908   1.202   0.877
 1166WAT     H1 3709   3.960   1.122   0.871
 1166WAT     H2 3710   3.863   1.196   0.961
 1167WAT      O 3711   4.397   1.329   0.404
 1167WAT     H1 3712   4.431   1.403   0.354
 1167WAT     H2 3713   4.314   1.360   0.440
 1168WAT      O 3714   3.657   0.899   1.568
 1168WAT     H1 3715   3.621   0.965   1.627
 1168WAT     H2 3716   3.627   0.816   1.605
 1169WAT      O 3717   3.977   0.945   1.856
 1169WAT     H1 3718   3.947   0.959   1.767
 1169WAT     H2 3719   4.054   0.889   1.847
 1170WAT      O 3720   4.511   1.424   1.656
 1170WAT     H1 3721   4.513   1.331   1.634
 1170WAT     H2 3722   4.441   1.433   1.720
 1171WAT      O 3723   4.685   1.261   0.940
 1171WAT     H1 3724   4.721   1.201   0.874
 1171WAT     H2 3725   4.597   1.229   0.957
 1172WAT      O 3726   4.294   1.337   0.681
 1172WAT     H1 3727   4.363   1.392   0.719
 1172WAT     H2 3728   4.215   1.391   0.685
 1173WAT      O 3729   3.508   0.899   0.230
 1173WAT     H1 3730   3.595   0.927   0.259
 1173WAT     H2 3731   3.459   0.980   0.219
 1174WAT      O 3732   4.224   1.038   0.642
 1174WAT     H1 3733   4.270   1.119   0.665
 1174WAT     H2 3734   4.189   1.006   0.725
 1175WAT      O 3735   4.455   1.589   1.365
 1175WAT     H1 3736   4.519   1.609   1.433
 1175WAT     H2 3737   4.491   1.512   1.320
 1176WAT      O 3738   4.582   1.389   1.237
 1176WAT     H1 3739   4.646   1.319   1.248
 1176WAT     H2 3740   4.634   1.467   1.219
 1177WAT      O 3741   4.759   1.469   1.557
 1177WAT     H1 3742   4.793   1.528   1.625
 1177WAT     H2 3743   4.667   1.456   1.580
 1178WAT      O 3744   3.545   1.820   0.287
 1178WAT     H1 3745   3.581   1.880   0.221
 1178WAT     H2 3746   3.531   1.875   0.364
 1179WAT      O 3747   3.514   0.248   1.636
 1179WAT     H1 3748   3.443   0.268   1.696
 1179WAT     H2 3749   3.556   0.170   1.673
 1180WAT      O 3750   3.543   1.647   1.734
 1180WAT     H1 3751   3.554   1.553   1.720
 1180WAT     H2 3752   3.478   1.673   1.669
 1181WAT      O 3753   4.342   1.474   1.874
 1181WAT     H1 3754   4.310   1.402   1.929
 1181WAT     H2 3755   4.275   1.541   1.882
 1182WAT      O 3756   4.146   1.558   0.369
 1182WAT     H1 3757   4.145   1.632   0.307
 1182WAT     H2 3758   4.054   1.534   0.378
 1183WAT      O 3759   3.706   1.081   0.443
 1183WAT     H1 3760   3.646   1.155   0.444
 1183WAT     H2 3761   3.754   1.090   0.360
 1184WAT      O 3762   4.664   0.497   1.411
 1184WAT     H1 3763   4.701   0.415   1.443
 1184WAT     H2 3764   4.578   0.503   1.452
 1185WAT      O 3765   4.197   0.620   0.633
 1185WAT     H1 3766   4.126   0.667   0.677
 1185WAT     H2 3767   4.226   0.555   0.696
 1186WAT      O 3768   4.360   0.762   1.433
 1186WAT     H1 3769   4.410   0.810   1.499
 1186WAT     H2 3770   4.374   0.670   1.454
 1187WAT      O 3771   4.600   0.293   0.777
 1187WAT     H1 3772   4.588   0.295   0.682
 1187WAT     H2 3773   4.695   0.298   0.789
 1188WAT      O 3774   4.309   1.817   0.704
 1188WAT     H1 3775   4.335   1.813   0.612
 1188WAT     H2 3776   4.214   1.804   0.704
 1189WAT      O 3777   4.018   0.451   0.371
 1189WAT     H1 3778   4.102   0.495   0.364
 1189WAT     H2 3779   3.981   0.483   0.453
 1190WAT      O 3780   3.777   0.820   0.286
 1190WAT     H1 3781   3.785   0.725   0.297
 1190WAT     H2 3782   3.866   0.853   0.297
 1191WAT      O 3783   3.857   1.835   0.997
 1191WAT     H1 3784   3.931   1.780   1.024
 1191WAT     H2 3785   3.896   1.921   0.983
 1192WAT      O 3786   3.546   1.442   0.584
 1192WAT     H1 3787   3.453   1.466   0.583
 1192WAT     H2 3788   3.592   1.524   0.572
 1193WAT      O 3789   3.758   1.753   1.915
 1193WAT     H1 3790   3.838   1.785   1.957
 1193WAT     H2 3791   3.706   1.717   1.988
 1194WAT      O 3792   4.641   1.364   1.910
 1194WAT     H1 3793   4.581   1.366   1.836
 1194WAT     H2 3794   4.611   1.291   1.964
 1195WAT      O 3795   3.530   1.002   1.810
 1195WAT     H1 3796   3.580   0.944   1.867
 1195WAT     H2 3797   3.456   1.030   1.864
 1196WAT      O 3798   4.235   1.143   1.763
 1196WAT     H1 3799   4.159   1.200   1.755
 1196WAT     H2 3800   4.253   1.114   1.674
 1197WAT      O 3801   4.544   1.180   0.226
 1197WAT     H1 3802   4.489   1.225   0.290
 1197WAT     H2 3803   4.606   1.130   0.278
 1198WAT      O 3804   3.733   0.816   1.899
 1198WAT     H1 3805   3.737   0.786   1.990
 1198WAT     H2 3806   3.818   0.856   1.883
 1199WAT      O 3807   4.111   1.076   0.415
 1199WAT     H1 3808   4.153   1.060   0.500
 1199WAT     H2 3809   4.123   0.995   0.366
 1200WAT      O 3810   3.927   0.674   1.696
 1200WAT     H1 3811   3.874   0.625   1.633
 1200WAT     H2 3812   3.994   0.717   1.643
 1201WAT      O 3813   3.976   0.371   1.704
 1201WAT     H1 3814   3.966   0.309   1.632
 1201WAT     H2 3815   3.918   0.444   1.681
 1202WAT      O 3816   4.252   0.227   1.407
 1202WAT     H1 3817   4.207   0.229   1.323
 1202WAT     H2 3818   4.189   0.187   1.467
 1203WAT      O 3819   4.293   1.116   1.469
 1203WAT     H1 3820   4.335   1.200   1.452
 1203WAT     H2 3821   4.201   1.130   1.446
 1204WAT      O 3822   4.527   0.889   1.608
 1204WAT     H1 3823   4.538   0.830   1.682
 1204WAT     H2 3824   4.612   0.893   1.566
 1205WAT      O 3825   4.760   0.945   1.465
 1205WAT     H1 3826   4.708   0.997   1.405
 1205WAT     H2 3827   4.795   1.008   1.528
 1206WAT      O 3828   4.078   1.747   1.581
 1206WAT     H1 3829   4.024   1.819   1.549
 1206WAT     H2 3830   4.103   1.699   1.502
 1207WAT      O 3831   4.203   0.544   1.734
 1207WAT     H1 3832   4.262   0.513   1.802
 1207WAT     H2 3833   4.121   0.496   1.749
 1208WAT      O 3834   4.685   0.505   1.757
 1208WAT     H1 3835   4.616   0.439   1.750
 1208WAT     H2 3836   4.757   0.461   1.801
 1209WAT      O 3837   4.364   1.870   1.607
 1209WAT     H1 3838   4.356   1.961   1.638
 1209WAT     H2 3839   4.273   1.838   1.604
 1210WAT      O 3840   4.418   1.787   0.369
 1210WAT     H1 3841   4.508   1.821   0.371
 1210WAT     H2 3842   4.422   1.715   0.306
 1211WAT      O 3843   3.782   1.324   0.192
 1211WAT     H1 3844   3.826   1.378   0.258
 1211WAT     H2 3845   3.831   1.242   0.193
 1212WAT      O 3846   3.504   1.603   0.937
 1212WAT     H1 3847   3.537   1.516   0.914
 1212WAT     H2 3848   3.547   1.624   1.020
 1213WAT      O 3849   3.963   1.436   0.703
 1213WAT     H1 3850   3.933   1.424   0.793
 1213WAT     H2 3851   3.953   1.350   0.662
 1214WAT      O 3852   3.553   1.690   1.211
 1214WAT     H1 3853   3.509   1.708   1.294
 1214WAT     H2 3854   3.610   1.765   1.197
 1215WAT      O 3855   3.536   0.941   0.847
 1215WAT     H1 3856   3.471   0.914   0.782
 1215WAT     H2 3857   3.620   0.930   0.802
 1216WAT      O 3858   3.640   0.979   1.301
 1216WAT     H1 3859   3.677   0.971   1.389
 1216WAT     H2 3860   3.583   0.903   1.291
 1217WAT      O 3861   3.595   0.670   1.691
 1217WAT     H1 3862   3.505   0.667   1.725
 1217WAT     H2 3863   3.649   0.690   1.768
 1218WAT      O 3864   3.457   0.662   0.441
 1218WAT     H1 3865   3.367   0.688   0.424
 1218WAT     H2 3866   3.506   0.689   0.363
 1219WAT      O 3867   3.712   0.568   0.232
 1219WAT     H1 3868   3.783   0.525   0.184
 1219WAT     H2 3869   3.640   0.574   0.169
 1220WAT      O 3870   3.781   1.431   1.817
 1220WAT     H1 3871   3.777   1.394   1.905
 1220WAT     H2 3872   3.794   1.524   1.831
 1221WAT      O 3873   4.151   1.586   1.377
 1221WAT     H1 3874   4.127   1.613   1.289
 1221WAT     H2 3875   4.245   1.603   1.383
 1222WAT      O 3876   4.372   0.233   1.753
 1222WAT     H1 3877   4.366   0.292   1.828
 1222WAT     H2 3878   4.466   0.222   1.738
 1223WAT      O 3879   3.765   1.725   1.529
 1223WAT     H1 3880   3.706   1.712   1.603
 1223WAT     H2 3881   3.764   1.642   1.483
 1224WAT      O 3882   3.728   1.462   1.424
 1224WAT     H1 3883   3.656   1.400   1.417
 1224WAT     H2 3884   3.734   1.501   1.337
 1225WAT      O 3885   4.089   1.683   1.103
 1225WAT     H1 3886   4.140   1.622   1.050
 1225WAT     H2 3887   4.154   1.734   1.152
 1226WAT      O 3888   4.363   1.772   1.185
 1226WAT     H1 3889   4.391   1.747   1.098
 1226WAT     H2 3890   4.414   1.717   1.244
 1227WAT      O 3891   3.557   1.794   0.745
 1227WAT     H1 3892   3.540   1.730   0.815
 1227WAT     H2 3893   3.470   1.814   0.710
 1228WAT      O 3894   3.619   0.177   0.495
 1228WAT     H1 3895   3.695   0.188   0.438
 1228WAT     H2 3896   3.573   0.261   0.491
 1229WAT      O 3897   4.273   0.388   0.794
 1229WAT     H1 3898   4.192   0.351   0.760
 1229WAT     H2 3899   4.323   0.313   0.825
 1230WAT      O 3900   3.717   1.663   0.490
 1230WAT     H1 3901   3.665   1.701   0.419
 1230WAT     H2 3902   3.710   1.726   0.562
 1231WAT      O 3903   4.369   1.865   1.922
 1231WAT     H1 3904   4.462   1.841   1.926
 1231WAT     H2 3905   4.368   1.947   1.874
 1232WAT      O 3906   3.977   1.858   0.377
 1232WAT     H1 3907   4.050   1.829   0.322
 1232WAT     H2 3908   4.003   1.834   0.466
 1233WAT      O 3909   3.893   1.469   0.378
 1233WAT     H1 3910   3.830   1.516   0.432
 1233WAT     H2 3911   3.905   1.385   0.421
 1234WAT      O 3912   2.761   4.629   4.625
 1234WAT     H1 3913   2.753   4.538   4.598
 1234WAT     H2 3914   2.720   4.679   4.554
 1235WAT      O 3915   2.575   4.807   4.813
 1235WAT     H1 3916   2.497   4.759   4.842
 1235WAT     H2 3917   2.640   4.739   4.796
 1236WAT      O 3918   1.976   4.838   4.901
 1236WAT     H1 3919   1.893   4.813   4.941
 1236WAT     H2 3920   2.037   4.845   4.974
 1237WAT      O 3921   2.977   5.248   4.691
 1237WAT     H1 3922   2.930   5.171   4.724
 1237WAT     H2 3923   3.058   5.250   4.742
 1238WAT      O 3924   1.974   5.242   4.920
 1238WAT     H1 3925   2.004   5.153   4.902
 1238WAT     H2 3926   2.049   5.297   4.898
 1239WAT      O 3927   1.817   4.334   4.279
 1239WAT     H1 3928   1.728   4.369   4.269
 1239WAT     H2 3929   1.846   4.314   4.190
 1240WAT      O 3930   1.613   4.594   4.868
 1240WAT     H1 3931   1.671   4.518   4.868
 1240WAT     H2 3932   1.613   4.624   4.777
 1241WAT      O 3933   2.519   5.075   4.814
 1241WAT     H1 3934   2.512   4.981   4.798
 1241WAT     H2 3935   2.595   5.084   4.871
 1242WAT      O 3936   1.738   4.135   5.046
 1242WAT     H1 3937   1.720   4.046   5.074
 1242WAT     H2 3938   1.697   4.190   5.114
 1243WAT      O 3939   2.622   4.355   4.836
 1243WAT     H1 3940   2.659   4.268   4.825
 1243WAT     H2 3941   2.612   4.389   4.747
 1244WAT      O 3942   2.035   4.193   4.383
 1244WAT     H1 3943   2.045   4.283   4.413
 1244WAT     H2 3944   1.944   4.188   4.354
 1245WAT      O 3945   3.000   4.105   4.530
 1245WAT     H1 3946   3.082   4.056   4.534
 1245WAT     H2 3947   3.003   4.164   4.605
 1246WAT      O 3948   1.800   4.385   4.907
 1246WAT     H1 3949   1.868   4.411   4.969
 1246WAT     H2 3950   1.768   4.301   4.940
 1247WAT      O 3951   2.219   4.490   4.816
 1247WAT     H1 3952   2.270   4.539   4.880
 1247WAT     H2 3953   2.272   4.412   4.798
 1248WAT      O 3954   3.429   4.307   5.186
 1248WAT     H1 3955   3.358   4.345   5.134
 1248WAT     H2 3956   3.455   4.376   5.246
 1249WAT      O 3957   2.047   3.954   5.242
 1249WAT     H1 3958   2.047   4.005   5.162
 1249WAT     H2 3959   1.964   3.906   5.240
 1250WAT      O 3960   2.686   4.965   4.392
 1250WAT     H1 3961   2.624   5.011   4.336
 1250WAT     H2 3962   2.737   5.034   4.434
 1251WAT      O 3963   2.172   4.918   5.060
 1251WAT     H1 3964   2.139   4.980   5.124
 1251WAT     H2 3965   2.190   4.970   4.982
 1252WAT      O 3966   3.024   4.299   4.807
 1252WAT     H1 3967   2.953   4.328   4.865
 1252WAT     H2 3968   3.060   4.380   4.771
 1253WAT      O 3969   2.015   4.125   5.043
 1253WAT     H1 3970   2.049   4.209   5.014
 1253WAT     H2 3971   1.921   4.140   5.055
 1254WAT      O 3972   2.093   5.114   5.242
 1254WAT     H1 3973   2.155   5.182   5.214
 1254WAT     H2 3974   2.007   5.155   5.233
 1255WAT      O 3975   1.623   5.033   4.130
 1255WAT     H1 3976   1.585   5.082   4.057
 1255WAT     H2 3977   1.648   5.101   4.193
 1256WAT      O 3978   3.185   5.261   5.033
 1256WAT     H1 3979   3.117   5.328   5.032
 1256WAT     H2 3980   3.239   5.281   4.957
 1257WAT      O 3981   3.330   4.244   4.846
 1257WAT     H1 3982   3.236   4.247   4.859
 1257WAT     H2 3983   3.363   4.325   4.885
 1258WAT      O 3984   2.384   3.873   4.676
 1258WAT     H1 3985   2.414   3.818   4.604
 1258WAT     H2 3986   2.291   3.887   4.657
 1259WAT      O 3987   3.068   5.117   4.414
 1259WAT     H1 3988   3.057   5.023   4.426
 1259WAT     H2 3989   3.068   5.153   4.502
 1260WAT      O 3990   2.879   4.935   5.038
 1260WAT     H1 3991   2.920   4.914   4.954
 1260WAT     H2 3992   2.951   4.961   5.095
 1261WAT      O 3993   2.622   4.680   4.349
 1261WAT     H1 3994   2.530   4.673   4.372
 1261WAT     H2 3995   2.638   4.774   4.338
 1262WAT      O 3996   2.621   4.307   4.049
 1262WAT     H1 3997   2.527   4.323   4.057
 1262WAT     H2 3998   2.653   4.379   3.994
 1263WAT      O 3999   3.273   4.775   5.047
 1263WAT     H1 4000   3.190   4.782   4.999
 1263WAT     H2 4001   3.333   4.834   5.000
 1264WAT      O 4002   3.025   4.836   4.400
 1264WAT     H1 4003   2.964   4.802   4.335
 1264WAT     H2 4004   3.024   4.772   4.470
 1265WAT      O 4005   2.970   4.454   5.141
 1265WAT     H1 4006   2.928   4.537   5.167
 1265WAT     H2 4007   2.896   4.395   5.122
 1266WAT      O 4008   2.183   4.733   4.627
 1266WAT     H1 4009   2.143   4.661   4.578
 1266WAT     H2 4010   2.192   4.698   4.716
 1267WAT      O 4011   2.230   5.101   4.844
 1267WAT     H1 4012   2.200   5.041   4.776
 1267WAT     H2 4013   2.325   5.105   4.833
 1268WAT      O 4014   2.054   4.410   5.005
 1268WAT     H1 4015   2.109   4.421   4.928
 1268WAT     H2 4016   2.106   4.447   5.077
 1269WAT      O 4017   2.139   5.075   5.509
 1269WAT     H1 4018   2.049   5.098   5.534
 1269WAT     H2 4019   2.142   5.087   5.414
 1270WAT      O 4020   2.843   4.760   4.100
 1270WAT     H1 4021   2.887   4.676   4.086
 1270WAT     H2 4022   2.914   4.823   4.109
 1271WAT      O 4023   2.022   4.762   5.366
 1271WAT     H1 4024   2.008   4.849   5.403
 1271WAT     H2 4025   1.934   4.728   5.352
 1272WAT      O 4026   2.654   5.254   4.497
 1272WAT     H1 4027   2.698   5.328   4.456
 1272WAT     H2 4028   2.648   5.278   4.589
 1273WAT      O 4029   2.201   5.356   5.587
 1273WAT     H1 4030   2.199   5.397   5.501
 1273WAT     H2 4031   2.185   5.264   5.571
 1274WAT      O 4032   3.201   3.885   3.932
 1274WAT     H1 4033   3.170   3.895   4.022
 1274WAT     H2 4034   3.277   3.943   3.927
 1275WAT      O 4035   1.853   4.622   4.377
 1275WAT     H1 4036   1.841   4.695   4.316
 1275WAT     H2 4037   1.822   4.545   4.330
 1276WAT      O 4038   1.617   4.939   4.958
 1276WAT     H1 4039   1.625   4.953   4.864
 1276WAT     H2 4040   1.678   4.868   4.977
 1277WAT      O 4041   1.741   5.109   4.599
 1277WAT     H1 4042   1.701   5.123   4.514
 1277WAT     H2 4043   1.830   5.081   4.579
 1278WAT      O 4044   3.337   5.154   5.433
 1278WAT     H1 4045   3.350   5.130   5.341
 1278WAT     H2 4046   3.341   5.071   5.480
 1279WAT      O 4047   2.891   5.304   4.089
 1279WAT     H1 4048   2.822   5.303   4.023
 1279WAT     H2 4049   2.965   5.261   4.046
 1280WAT      O 4050   3.322   4.359   5.529
 1280WAT     H1 4051   3.261   4.410   5.477
 1280WAT     H2 4052   3.290   4.269   5.524
 1281WAT      O 4053   1.622   5.043   5.212
 1281WAT     H1 4054   1.639   4.996   5.130
 1281WAT     H2 4055   1.669   4.993   5.279
 1282WAT      O 4056   2.100   3.956   4.716
 1282WAT     H1 4057   2.055   4.035   4.683
 1282WAT     H2 4058   2.156   3.989   4.786
 1283WAT      O 4059   2.528   4.243   5.276
 1283WAT     H1 4060   2.482   4.264   5.357
 1283WAT     H2 4061   2.488   4.162   5.246
 1284WAT      O 4062   3.028   4.365   5.389
 1284WAT     H1 4063   2.943   4.335   5.421
 1284WAT     H2 4064   3.012   4.390   5.298
 1285WAT      O 4065   2.738   4.515   5.599
 1285WAT     H1 4066   2.770   4.432   5.565
 1285WAT     H2 4067   2.817   4.567   5.614
 1286WAT      O 4068   2.411   3.919   4.204
 1286WAT     H1 4069   2.349   3.918   4.276
 1286WAT     H2 4070   2.403   3.832   4.164
 1287WAT      O 4071   2.303   4.011   4.902
 1287WAT     H1 4072   2.333   4.102   4.894
 1287WAT     H2 4073   2.358   3.962   4.840
 1288WAT      O 4074   2.079   4.469   4.489
 1288WAT     H1 4075   2.056   4.447   4.579
 1288WAT     H2 4076   2.001   4.512   4.454
 1289WAT      O 4077   2.802   4.469   4.348
 1289WAT     H1 4078   2.742   4.542   4.330
 1289WAT     H2 4079   2.857   4.463   4.270
 1290WAT      O 4080   2.323   4.559   5.555
 1290WAT     H1 4081   2.313   4.465   5.540
 1290WAT     H2 4082   2.407   4.581   5.516
 1291WAT      O 4083   2.662   4.333   4.551
 1291WAT     H1 4084   2.702   4.365   4.470
 1291WAT     H2 4085   2.699   4.245   4.563
 1292WAT      O 4086   1.836   4.200   5.370
 1292WAT     H1 4087   1.797   4.285   5.391
 1292WAT     H2 4088   1.767   4.136   5.390
 1293WAT      O 4089   1.566   3.992   4.774
 1293WAT     H1 4090   1.537   4.049   4.845
 1293WAT     H2 4091   1.641   3.944   4.810
 1294WAT      O 4092   1.585   4.386   3.895
 1294WAT     H1 4093   1.577   4.481   3.909
 1294WAT     H2 4094   1.550   4.372   3.807
 1295WAT      O 4095   2.721   4.592   4.961
 1295WAT     H1 4096   2.648   4.643   4.996
 1295WAT     H2 4097   2.681   4.510   4.931
 1296WAT      O 4098   2.365   4.260   4.801
 1296WAT     H1 4099   2.365   4.216   4.717
 1296WAT     H2 4100   2.454   4.292   4.812
 1297WAT      O 4101   1.950   4.248   4.697
 1297WAT     H1 4102   1.916   4.296   4.773
 1297WAT     H2 4103   1.874   4.203   4.661
 1298WAT      O 4104   2.371   4.360   4.101
 1298WAT     H1 4105   2.383   4.356   4.195
 1298WAT     H2 4106   2.332   4.446   4.085
 1299WAT      O 4107   2.767   4.137   4.902
 1299WAT     H1 4108   2.769   4.183   4.987
 1299WAT     H2 4109   2.742   4.047   4.924
 1300WAT      O 4110   2.272   4.591   4.040
 1300WAT     H1 4111   2.215   4.546   3.978
 1300WAT     H2 4112   2.343   4.627   3.987
 1301WAT      O 4113   3.110   3.879   5.486
 1301WAT     H1 4114   3.142   3.806   5.539
 1301WAT     H2 4115   3.114   3.847   5.396
 1302WAT      O 4116   1.780   4.981   5.428
 1302WAT     H1 4117   1.741   4.917   5.488
 1302WAT     H2 4118   1.811   5.051   5.485
 1303WAT      O 4119   2.395   4.666   4.976
 1303WAT     H1 4120   2.432   4.618   5.051
 1303WAT     H2 4121   2.376   4.753   5.010
 1304WAT      O 4122   1.681   4.140   4.589
 1304WAT     H1 4123   1.653   4.104   4.673
 1304WAT     H2 4124   1.675   4.067   4.528
 1305WAT      O 4125   2.174   4.570   5.208
 1305WAT     H1 4126   2.143   4.658   5.230
 1305WAT     H2 4127   2.269   4.576   5.212
 1306WAT      O 4128   2.027   4.990   4.268
 1306WAT     H1 4129   1.949   4.936   4.252
 1306WAT     H2 4130   2.100   4.938   4.234
 1307WAT      O 4131   3.103   4.890   4.847
 1307WAT     H1 4132   3.175   4.940   4.808
 1307WAT     H2 4133   3.082   4.822   4.782
 1308WAT      O 4134   2.649   4.029   4.261
 1308WAT     H1 4135   2.567   3.980   4.254
 1308WAT     H2 4136   2.629   4.113   4.220
 1309WAT      O 4137   2.641   4.897   5.436
 1309WAT     H1 4138   2.634   4.805   5.410
 1309WAT     H2 4139   2.578   4.907   5.507
 1310WAT      O 4140   2.920   4.467   4.091
 1310WAT     H1 4141   3.009   4.498   4.073
 1310WAT     H2 4142   2.917   4.379   4.052
 1311WAT      O 4143   2.031   4.957   4.631
 1311WAT     H1 4144   2.083   4.877   4.626
 1311WAT     H2 4145   1.986   4.951   4.716
 1312WAT      O 4146   2.520   5.084   4.159
 1312WAT     H1 4147   2.554   5.158   4.109
 1312WAT     H2 4148   2.437   5.115   4.195
 1313WAT      O 4149   1.779   4.654   5.323
 1313WAT     H1 4150   1.744   4.720   5.381
 1313WAT     H2 4151   1.750   4.571   5.360
 1314WAT      O 4152   2.100   4.700   5.611
 1314WAT     H1 4153   2.070   4.714   5.521
 1314WAT     H2 4154   2.177   4.644   5.602
 1315WAT      O 4155   2.634   5.179   5.411
 1315WAT     H1 4156   2.635   5.086   5.389
 1315WAT     H2 4157   2.563   5.188   5.475
 1316WAT      O 4158   3.147   4.598   4.038
 1316WAT     H1 4159   3.139   4.641   3.953
 1316WAT     H2 4160   3.219   4.644   4.081
 1317WAT      O 4161   3.255   4.843   5.345
 1317WAT     H1 4162   3.182   4.903   5.326
 1317WAT     H2 4163   3.308   4.843   5.265
 1318WAT      O 4164   3.250   5.283   4.310
 1318WAT     H1 4165   3.186   5.218   4.338
 1318WAT     H2 4166   3.211   5.324   4.233
 1319WAT      O 4167   2.808   5.016   4.695
 1319WAT     H1 4168   2.843   4.956   4.629
 1319WAT     H2 4169   2.720   4.983   4.712
 1320WAT      O 4170   2.417   5.092   4.436
 1320WAT     H1 4171   2.485   5.147   4.474
 1320WAT     H2 4172   2.338   5.146   4.439
 1321WAT      O 4173   1.631   4.654   3.985
 1321WAT     H1 4174   1.717   4.682   4.013
 1321WAT     H2 4175   1.581   4.735   3.974
 1322WAT      O 4176   2.347   4.792   4.397
 1322WAT     H1 4177   2.393   4.873   4.420
 1322WAT     H2 4178   2.312   4.761   4.480
 1323WAT      O 4179   2.577   5.343   5.120
 1323WAT     H1 4180   2.642   5.364   5.188
 1323WAT     H2 4181   2.614   5.267   5.075
 1324WAT      O 4182   1.937   3.827   4.444
 1324WAT     H1 4183   1.924   3.826   4.539
 1324WAT     H2 4184   1.855   3.861   4.409
 1325WAT      O 4185   2.705   5.144   4.992
 1325WAT     H1 4186   2.769   5.074   5.003
 1325WAT     H2 4187   2.757   5.222   4.974
 1326WAT      O 4188   3.089   5.172   3.964
 1326WAT     H1 4189   3.066   5.101   4.023
 1326WAT     H2 4190   3.050   5.147   3.880
 1327WAT      O 4191   2.882   5.224   5.312
 1327WAT     H1 4192   2.915   5.282   5.380
 1327WAT     H2 4193   2.790   5.211   5.335
 1328WAT      O 4194   1.637   4.003   5.390
 1328WAT     H1 4195   1.566   4.023   5.451
 1328WAT     H2 4196   1.679   3.925   5.428
 1329WAT      O 4197   3.047   4.964   4.130
 1329WAT     H1 4198   3.018   5.010   4.209
 1329WAT     H2 4199   3.127   4.918   4.157
 1330WAT      O 4200   1.666   5.401   5.489
 1330WAT     H1 4201   1.677   5.307   5.475
 1330WAT     H2 4202   1.600   5.428   5.424
 1331WAT      O 4203   2.269   5.313   4.123
 1331WAT     H1 4204   2.268   5.387   4.062
 1331WAT     H2 4205   2.177   5.289   4.133
 1332WAT      O 4206   1.829   4.835   4.198
 1332WAT     H1 4207   1.768   4.909   4.199
 1332WAT     H2 4208   1.877   4.844   4.115
 1333WAT      O 4209   2.786   4.252   5.165
 1333WAT     H1 4210   2.823   4.170   5.198
 1333WAT     H2 4211   2.700   4.258   5.207
 1334WAT      O 4212   3.123   4.147   4.246
 1334WAT     H1 4213   3.060   4.158   4.175
 1334WAT     H2 4214   3.073   4.169   4.325
 1335WAT      O 4215   2.568   5.320   3.990
 1335WAT     H1 4216   2.578   5.299   3.897
 1335WAT     H2 4217   2.478   5.294   4.010
 1336WAT      O 4218   2.320   4.375   4.388
 1336WAT     H1 4219   2.249   4.422   4.432
 1336WAT     H2 4220   2.348   4.310   4.451
 1337WAT      O 4221   2.482   4.517   5.188
 1337WAT     H1 4222   2.532   4.565   5.254
 1337WAT     H2 4223   2.497   4.425   5.209
 1338WAT      O 4224   2.723   4.048   4.532
 1338WAT     H1 4225   2.711   4.050   4.437
 1338WAT     H2 4226   2.818   4.053   4.544
 1339WAT      O 4227   2.140   4.206   4.125
 1339WAT     H1 4228   2.225   4.250   4.119
 1339WAT     H2 4229   2.103   4.237   4.208
 1340WAT      O 4230   3.203   4.139   5.272
 1340WAT     H1 4231   3.153   4.213   5.306
 1340WAT     H2 4232   3.285   4.178   5.240
 1341WAT      O 4233   3.032   4.663   4.617
 1341WAT     H1 4234   2.938   4.665   4.634
 1341WAT     H2 4235   3.064   4.585   4.661
 1342WAT      O 4236   2.030   4.832   3.973
 1342WAT     H1 4237   2.107   4.820   4.029
 1342WAT     H2 4238   2.038   4.762   3.908
 1343WAT      O 4239   1.900   4.575   4.041
 1343WAT     H1 4240   1.908   4.480   4.052
 1343WAT     H2 4241   1.989   4.608   4.052
 1344WAT      O 4242   3.233   5.380   4.784
 1344WAT     H1 4243   3.245   5.463   4.831
 1344WAT     H2 4244   3.319   5.359   4.750
 1345WAT      O 4245   1.668   5.196   4.339
 1345WAT     H1 4246   1.576   5.221   4.338
 1345WAT     H2 4247   1.715   5.279   4.327
 1346WAT      O 4248   1.652   4.757   5.565
 1346WAT     H1 4249   1.703   4.699   5.622
 1346WAT     H2 4250   1.578   4.785   5.618
 1347WAT      O 4251   2.342   5.029   3.920
 1347WAT     H1 4252   2.332   4.968   3.993
 1347WAT     H2 4253   2.326   4.977   3.842
 1348WAT      O 4254   2.358   4.898   5.518
 1348WAT     H1 4255   2.281   4.954   5.510
 1348WAT     H2 4256   2.376   4.868   5.429
 1349WAT      O 4257   2.667   4.935   3.981
 1349WAT     H1 4258   2.612   4.980   4.045
 1349WAT     H2 4259   2.729   4.885   4.033
 1350WAT      O 4260   3.072   5.071   5.574
 1350WAT     H1 4261   3.146   5.104   5.523
 1350WAT     H2 4262   2.996   5.088   5.518
 1351WAT      O 4263   2.233   4.831   4.170
 1351WAT     H1 4264   2.275   4.815   4.254
 1351WAT     H2 4265   2.246   4.750   4.121
 1352WAT      O 4266   2.050   4.429   5.451
 1352WAT     H1 4267   1.996   4.380   5.388
 1352WAT     H2 4268   2.116   4.472   5.397
 1353WAT      O 4269   2.485   4.734   3.895
 1353WAT     H1 4270   2.537   4.662   3.858
 1353WAT     H2 4271   2.549   4.797   3.925
 1354WAT      O 4272   2.939   4.876   5.427
 1354WAT     H1 4273   2.981   4.891   5.512
 1354WAT     H2 4274   2.846   4.888   5.444
 1355WAT      O 4275   2.987   4.610   5.628
 1355WAT     H1 4276   3.045   4.534   5.619
 1355WAT     H2 4277   3.004   4.663   5.550
 1356WAT      O 4278   2.098   4.126   5.459
 1356WAT     H1 4279   2.089   4.064   5.386
 1356WAT     H2 4280   2.040   4.198   5.436
 1357WAT      O 4281   2.375   3.981   5.162
 1357WAT     H1 4282   2.330   3.984   5.078
 1357WAT     H2 4283   2.312   3.942   5.222
 1358WAT      O 4284   2.415   4.871   5.224
 1358WAT     H1 4285   2.457   4.955   5.207
 1358WAT     H2 4286   2.324   4.885   5.201
 1359WAT      O 4287   2.649   4.644   5.363
 1359WAT     H1 4288   2.661   4.585   5.437
 1359WAT     H2 4289   2.735   4.648   5.321
 1360WAT      O 4290   2.883   4.700   5.220
 1360WAT     H1 4291   2.830   4.752   5.160
 1360WAT     H2 4292   2.917   4.763   5.283
 1361WAT      O 4293   2.123   4.439   3.865
 1361WAT     H1 4294   2.103   4.352   3.901
 1361WAT     H2 4295   2.106   4.430   3.771
 1362WAT      O 4296   2.326   4.298   5.488
 1362WAT     H1 4297   2.385   4.268   5.557
 1362WAT     H2 4298   2.244   4.251   5.504
 1363WAT      O 4299   2.808   4.260   5.512
 1363WAT     H1 4300   2.739   4.194   5.505
 1363WAT     H2 4301   2.880   4.215   5.556
 1364WAT      O 4302   2.871   3.920   4.118
 1364WAT     H1 4303   2.899   3.835   4.153
 1364WAT     H2 4304   2.793   3.943   4.169
 1365WAT      O 4305   2.003   4.149   3.864
 1365WAT     H1 4306   2.033   4.149   3.773
 1365WAT     H2 4307   2.077   4.113   3.913
 1366WAT      O 4308   2.325   4.043   3.962
 1366WAT     H1 4309   2.290   3.975   3.904
 1366WAT     H2 4310   2.345   3.997   4.044
 1367WAT      O 4311   1.905   5.079   3.947
 1367WAT     H1 4312   1.949   5.133   4.012
 1367WAT     H2 4313   1.953   4.996   3.948
 1368WAT      O 4314   1.626   5.358   4.692
 1368WAT     H1 4315   1.659   5.271   4.669
 1368WAT     H2 4316   1.669   5.378   4.775
 1369WAT      O 4317   2.086   5.191   4.458
 1369WAT     H1 4318   2.056   5.179   4.548
 1369WAT     H2 4319   2.075   5.105   4.417
 1370WAT      O 4320   3.239   5.395   5.395
 1370WAT     H1 4321   3.179   5.401   5.320
 1370WAT     H2 4322   3.252   5.301   5.408
 1371WAT      O 4323   3.363   5.169   3.928
 1371WAT     H1 4324   3.280   5.176   3.975
 1371WAT     H2 4325   3.381   5.258   3.898
 1372WAT      O 4326   3.309   4.843   4.179
 1372WAT     H1 4327   3.385   4.900   4.189
 1372WAT     H2 4328   3.310   4.787   4.256
 1373WAT      O 4329   1.659   4.696   4.602
 1373WAT     H1 4330   1.593   4.669   4.537
 1373WAT     H2 4331   1.742   4.685   4.557
 1374WAT      O 4332   3.409   4.929   4.663
 1374WAT     H1 4333   3.446   4.851   4.622
 1374WAT     H2 4334   3.473   4.998   4.645
 1375WAT      O 4335   3.107   5.067   5.204
 1375WAT     H1 4336   3.026   5.110   5.231
 1375WAT     H2 4337   3.148   5.128   5.143
 1376WAT      O 4338   3.314   4.873   3.894
 1376WAT     H1 4339   3.341   4.963   3.882
 1376WAT     H2 4340   3.295   4.866   3.988
 1377WAT      O 4341   2.953   4.175   4.024
 1377WAT     H1 4342   2.995   4.156   3.940
 1377WAT     H2 4343   2.923   4.090   4.055
 1378WAT      O 4344   3.303   4.666   4.394
 1378WAT     H1 4345   3.266   4.590   4.351
 1378WAT     H2 4346   3.230   4.705   4.442
 1379WAT      O 4347   1.762   4.734   5.056
 1379WAT     H1 4348   1.799   4.726   5.144
 1379WAT     H2 4349   1.705   4.658   5.046
 1380WAT      O 4350   3.242   4.581   5.357
 1380WAT     H1 4351   3.219   4.558   5.267
 1380WAT     H2 4352   3.268   4.673   5.353
 1381WAT      O 4353   1.717   4.425   5.446
 1381WAT     H1 4354   1.628   4.422   5.480
 1381WAT     H2 4355   1.771   4.445   5.523
 1382WAT      O 4356   1.580   4.417   4.196
 1382WAT     H1 4357   1.490   4.443   4.179
 1382WAT     H2 4358   1.628   4.444   4.118
 1383WAT      O 4359   3.231   4.489   4.724
 1383WAT     H1 4360   3.283   4.440   4.661
 1383WAT     H2 4361   3.289   4.502   4.798
 1384WAT      O 4362   3.249   4.497   5.076
 1384WAT     H1 4363   3.154   4.494   5.087
 1384WAT     H2 4364   3.267   4.588   5.052
 1385WAT      O 4365   1.834   4.322   3.987
 1385WAT     H1 4366   1.905   4.280   3.938
 1385WAT     H2 4367   1.763   4.329   3.924
 1386WAT      O 4368   1.799   3.928   3.891
 1386WAT     H1 4369   1.871   3.982   3.923
 1386WAT     H2 4370   1.826   3.900   3.803
 1387WAT      O 4371   3.180   4.415   4.318
 1387WAT     H1 4372   3.229   4.391   4.396
 1387WAT     H2 4373   3.160   4.331   4.276
 1388WAT      O 4374   1.768   3.853   4.881
 1388WAT     H1 4375   1.833   3.798   4.837
 1388WAT     H2 4376   1.810   3.878   4.963
 1389WAT      O 4377   3.323   4.278   4.571
 1389WAT     H1 4378   3.312   4.263   4.665
 1389WAT     H2 4379   3.399   4.226   4.547
 1390WAT      O 4380   3.157   3.872   5.217
 1390WAT     H1 4381   3.221   3.934   5.253
 1390WAT     H2 4382   3.172   3.876   5.122
 1391WAT      O 4383   3.412   4.061   3.895
 1391WAT     H1 4384   3.504   4.048   3.874
 1391WAT     H2 4385   3.409   4.069   3.990
 1392WAT      O 4386   3.419   4.138   4.158
 1392WAT     H1 4387   3.340   4.132   4.211
 1392WAT     H2 4388   3.439   4.232   4.157
 1393WAT      O 4389   1.743   3.868   5.155
 1393WAT     H1 4390   1.708   3.914   5.232
 1393WAT     H2 4391   1.710   3.779   5.164
 1394WAT      O 4392   2.274   5.341   5.132
 1394WAT     H1 4393   2.250   5.368   5.043
 1394WAT     H2 4394   2.368   5.358   5.138
 1395WAT      O 4395   2.494   3.988   5.508
 1395WAT     H1 4396   2.488   4.047   5.583
 1395WAT     H2 4397   2.588   3.977   5.493
 1396WAT      O 4398   2.758   3.953   5.472
 1396WAT     H1 4399   2.820   3.985   5.405
 1396WAT     H2 4400   2.813   3.905   5.534
 1397WAT      O 4401   1.810   3.821   5.483
 1397WAT     H1 4402   1.865   3.803   5.407
 1397WAT     H2 4403   1.817   3.742   5.537
 1398WAT      O 4404   1.888   5.480   5.284
 1398WAT     H1 4405   1.828   5.467   5.358
 1398WAT     H2 4406   1.887   5.397   5.237
 1399WAT      O 4407   2.832   3.810   5.104
 1399WAT     H1 4408   2.745   3.843   5.084
 1399WAT     H2 4409   2.821   3.762   5.187
 1400WAT      O 4410   2.923   4.030   5.243
 1400WAT     H1 4411   2.890   3.949   5.205
 1400WAT     H2 4412   3.018   4.026   5.230
 1401WAT      O 4413   1.851   5.217   5.179
 1401WAT     H1 4414   1.778   5.155   5.172
 1401WAT     H2 4415   1.857   5.256   5.092
 1402WAT      O 4416   2.211   5.438   4.858
 1402WAT     H1 4417   2.263   5.377   4.805
 1402WAT     H2 4418   2.276   5.489   4.907
 1403WAT      O 4419   2.607   3.901   4.998
 1403WAT     H1 4420   2.529   3.949   5.026
 1403WAT     H2 4421   2.578   3.811   4.987
 1404WAT      O 4422   3.062   3.971   4.803
 1404WAT     H1 4423   3.106   3.966   4.718
 1404WAT     H2 4424   3.035   4.063   4.810
 1405WAT      O 4425   3.249   3.935   4.604
 1405WAT     H1 4426   3.243   3.840   4.589
 1405WAT     H2 4427   3.327   3.945   4.658
 1406WAT      O 4428   1.741   3.932   4.250
 1406WAT     H1 4429   1.817   3.943   4.193
 1406WAT     H2 4430   1.695   4.015   4.246
 1407WAT      O 4431   2.396   4.143   4.549
 1407WAT     H1 4432   2.314   4.106   4.515
 1407WAT     H2 4433   2.446   4.068   4.580
 1408WAT      O 4434   2.846   3.810   4.673
 1408WAT     H1 4435   2.906   3.867   4.721
 1408WAT     H2 4436   2.772   3.866   4.651
 1409WAT      O 4437   3.160   3.850   4.201
 1409WAT     H1 4438   3.180   3.940   4.227
 1409WAT     H2 4439   3.081   3.827   4.250
 1410WAT      O 4440   1.840   5.418   4.245
 1410WAT     H1 4441   1.787   5.456   4.174
 1410WAT     H2 4442   1.832   5.480   4.317
 1411WAT      O 4443   1.979   3.984   4.104
 1411WAT     H1 4444   2.032   3.906   4.091
 1411WAT     H2 4445   2.042   4.052   4.128
 1412WAT      O 4446   2.198   3.958   4.410
 1412WAT     H1 4447   2.135   3.888   4.427
 1412WAT     H2 4448   2.144   4.034   4.388
 1413WAT      O 4449   2.211   3.886   5.653
 1413WAT     H1 4450   2.182   3.936   5.577
 1413WAT     H2 4451   2.249   3.806   5.617
 1414WAT      O 4452   2.016   5.224   4.132
 1414WAT     H1 4453   1.953   5.271   4.187
 1414WAT     H2 4454   2.027   5.140   4.176
 1415WAT      O 4455   2.761   4.629   2.747
 1415WAT     H1 4456   2.753   4.538   2.720
 1415WAT     H2 4457   2.720   4.679   2.677
 1416WAT      O 4458   2.575   4.807   2.936
 1416WAT     H1 4459   2.497   4.759   2.965
 1416WAT     H2 4460   2.640   4.739   2.918
 1417WAT      O 4461   1.976   4.838   3.023
 1417WAT     H1 4462   1.893   4.813   3.063
 1417WAT     H2 4463   2.037   4.845   3.097
 1418WAT      O 4464   2.977   5.248   2.814
 1418WAT     H1 4465   2.930   5.171   2.846
 1418WAT     H2 4466   3.058   5.250   2.864
 1419WAT      O 4467   1.974   5.242   3.043
 1419WAT     H1 4468   2.004   5.153   3.025
 1419WAT     H2 4469   2.049   5.297   3.020
 1420WAT      O 4470   1.817   4.334   2.402
 1420WAT     H1 4471   1.728   4.369   2.392
 1420WAT     H2 4472   1.846   4.314   2.313
 1421WAT      O 4473   1.613   4.594   2.990
 1421WAT     H1 4474   1.671   4.518   2.990
 1421WAT     H2 4475   1.613   4.624   2.899
 1422WAT      O 4476   2.519   5.075   2.936
 1422WAT     H1 4477   2.512   4.981   2.920
 1422WAT     H2 4478   2.595   5.084   2.993
 1423WAT      O 4479   1.738   4.135   3.169
 1423WAT     H1 4480   1.720   4.046   3.197
 1423WAT     H2 4481   1.697   4.190   3.236
 1424WAT      O 4482   2.622   4.355   2.959
 1424WAT     H1 4483   2.659   4.268   2.948
 1424WAT     H2 4484   2.612   4.389   2.870
 1425WAT      O 4485   2.035   4.193   2.505
 1425WAT     H1 4486   2.045   4.283   2.536
 1425WAT     H2 4487   1.944   4.188   2.476
 1426WAT      O 4488   3.000   4.105   2.652
 1426WAT     H1 4489   3.082   4.056   2.657
 1426WAT     H2 4490   3.003   4.164   2.728
 1427WAT      O 4491   1.800   4.385   3.030
 1427WAT     H1 4492   1.868   4.411   3.092
 1427WAT     H2 4493   1.768   4.301   3.063
 1428WAT      O 4494   2.219   4.490   2.938
 1428WAT     H1 4495   2.270   4.539   3.002
 1428WAT     H2 4496   2.272   4.412   2.921
 1429WAT      O 4497   3.429   4.307   3.309
 1429WAT     H1 4498   3.358   4.345   3.257
 1429WAT     H2 4499   3.455   4.376   3.369
 1430WAT      O 4500   2.047   3.954   3.365
 1430WAT     H1 4501   2.047   4.005   3.284
 1430WAT     H2 4502   1.964   3.906   3.363
 1431WAT      O 4503   2.686   4.965   2.515
 1431WAT     H1 4504   2.624   5.011   2.459
 1431WAT     H2 4505   2.737   5.034   2.557
 1432WAT      O 4506   2.172   4.918   3.183
 1432WAT     H1 4507   2.139   4.980   3.247
 1432WAT     H2 4508   2.190   4.970   3.105
 1433WAT      O 4509   3.024   4.299   2.930
 1433WAT     H1 4510   2.953   4.328   2.988
 1433WAT     H2 4511   3.060   4.380   2.894
 1434WAT      O 4512   2.015   4.125   3.166
 1434WAT     H1 4513   2.049   4.209   3.136
 1434WAT     H2 4514   1.921   4.140   3.177
 1435WAT      O 4515   2.093   5.114   3.364
 1435WAT     H1 4516   2.155   5.182   3.336
 1435WAT     H2 4517   2.007   5.155   3.355
 1436WAT      O 4518   1.623   5.033   2.252
 1436WAT     H1 4519   1.585   5.082   2.179
 1436WAT     H2 4520   1.648   5.101   2.315
 1437WAT      O 4521   3.185   5.261   3.156
 1437WAT     H1 4522   3.117   5.328   3.155
 1437WAT     H2 4523   3.239   5.281   3.079
 1438WAT      O 4524   3.330   4.244   2.969
 1438WAT     H1 4525   3.236   4.247   2.982
 1438WAT     H2 4526   3.363   4.325   3.007
 1439WAT      O 4527   2.384   3.873   2.798
 1439WAT     H1 4528   2.414   3.818   2.727
 1439WAT     H2 4529   2.291   3.887   2.780
 1440WAT      O 4530   3.068   5.117   2.536
 1440WAT     H1 4531   3.057   5.023   2.549
 1440WAT     H2 4532   3.068   5.153   2.625
 1441WAT      O 4533   2.879   4.935   3.160
 1441WAT     H1 4534   2.920   4.914   3.077
 1441WAT     H2 4535   2.951   4.961   3.217
 1442WAT      O 4536   2.622   4.680   2.472
 1442WAT     H1 4537   2.530   4.673   2.495
 1442WAT     H2 4538   2.638   4.774   2.460
 1443WAT      O 4539   2.621   4.307   2.171
 1443WAT     H1 4540   2.527   4.323   2.180
 1443WAT     H2 4541   2.653   4.379   2.117
 1444WAT      O 4542   3.273   4.775   3.169
 1444WAT     H1 4543   3.190   4.782   3.122
 1444WAT     H2 4544   3.333   4.834   3.122
 1445WAT      O 4545   3.025   4.836   2.522
 1445WAT     H1 4546   2.964   4.802   2.457
 1445WAT     H2 4547   3.024   4.772   2.593
 1446WAT      O 4548   2.970   4.454   3.264
 1446WAT     H1 4549   2.928   4.537   3.289
 1446WAT     H2 4550   2.896   4.395   3.245
 1447WAT      O 4551   2.183   4.733   2.750
 1447WAT     H1 4552   2.143   4.661   2.700
 1447WAT     H2 4553   2.192   4.698   2.839
 1448WAT      O 4554   2.230   5.101   2.966
 1448WAT     H1 4555   2.200   5.041   2.898
 1448WAT     H2 4556   2.325   5.105   2.955
 1449WAT      O 4557   2.054   4.410   3.128
 1449WAT     H1 4558   2.109   4.421   3.050
 1449WAT     H2 4559   2.106   4.447   3.200
 1450WAT      O 4560   2.139   5.075   3.631
 1450WAT     H1 4561   2.049   5.098   3.656
 1450WAT     H2 4562   2.142   5.087   3.537
 1451WAT      O 4563   2.843   4.760   2.223
 1451WAT     H1 4564   2.887   4.676   2.208
 1451WAT     H2 4565   2.914   4.823   2.231
 1452WAT      O 4566   2.022   4.762   3.489
 1452WAT     H1 4567   2.008   4.849   3.526
 1452WAT     H2 4568   1.934   4.728   3.474
 1453WAT      O 4569   2.654   5.254   2.620
 1453WAT     H1 4570   2.698   5.328   2.578
 1453WAT     H2 4571   2.648   5.278   2.712
 1454WAT      O 4572   2.201   5.356   3.710
 1454WAT     H1 4573   2.199   5.397   3.623
 1454WAT     H2 4574   2.185   5.264   3.694
 1455WAT      O 4575   1.853   4.622   2.500
 1455WAT     H1 4576   1.841   4.695   2.439
 1455WAT     H2 4577   1.822   4.545   2.452
 1456WAT      O 4578   3.397   5.435   3.840
 1456WAT     H1 4579   3.444   5.483   3.907
 1456WAT     H2 4580   3.459   5.428   3.767
 1457WAT      O 4581   1.617   4.939   3.081
 1457WAT     H1 4582   1.625   4.953   2.986
 1457WAT     H2 4583   1.678   4.868   3.100
 1458WAT      O 4584   1.741   5.109   2.722
 1458WAT     H1 4585   1.701   5.123   2.636
 1458WAT     H2 4586   1.830   5.081   2.701
 1459WAT      O 4587   3.337   5.154   3.556
 1459WAT     H1 4588   3.350   5.130   3.464
 1459WAT     H2 4589   3.341   5.071   3.603
 1460WAT      O 4590   2.891   5.304   2.211
 1460WAT     H1 4591   2.822   5.303   2.145
 1460WAT     H2 4592   2.965   5.261   2.168
 1461WAT      O 4593   3.322   4.359   3.652
 1461WAT     H1 4594   3.261   4.410   3.599
 1461WAT     H2 4595   3.290   4.269   3.646
 1462WAT      O 4596   1.622   5.043   3.335
 1462WAT     H1 4597   1.639   4.996   3.253
 1462WAT     H2 4598   1.669   4.993   3.401
 1463WAT      O 4599   2.100   3.956   2.838
 1463WAT     H1 4600   2.055   4.035   2.805
 1463WAT     H2 4601   2.156   3.989   2.909
 1464WAT      O 4602   2.528   4.243   3.399
 1464WAT     H1 4603   2.482   4.264   3.480
 1464WAT     H2 4604   2.488   4.162   3.368
 1465WAT      O 4605   3.028   4.365   3.512
 1465WAT     H1 4606   2.943   4.335   3.544
 1465WAT     H2 4607   3.012   4.390   3.420
 1466WAT      O 4608   2.738   4.515   3.722
 1466WAT     H1 4609   2.770   4.432   3.688
 1466WAT     H2 4610   2.817   4.567   3.736
 1467WAT      O 4611   2.411   3.919   2.326
 1467WAT     H1 4612   2.349   3.918   2.399
 1467WAT     H2 4613   2.403   3.832   2.287
 1468WAT      O 4614   2.303   4.011   3.024
 1468WAT     H1 4615   2.333   4.102   3.016
 1468WAT     H2 4616   2.358   3.962   2.963
 1469WAT      O 4617   2.079   4.469   2.611
 1469WAT     H1 4618   2.056   4.447   2.702
 1469WAT     H2 4619   2.001   4.512   2.577
 1470WAT      O 4620   2.802   4.469   2.471
 1470WAT     H1 4621   2.742   4.542   2.453
 1470WAT     H2 4622   2.857   4.463   2.393
 1471WAT      O 4623   2.323   4.559   3.678
 1471WAT     H1 4624   2.313   4.465   3.663
 1471WAT     H2 4625   2.407   4.581   3.638
 1472WAT      O 4626   2.662   4.333   2.674
 1472WAT     H1 4627   2.702   4.365   2.593
 1472WAT     H2 4628   2.699   4.245   2.685
 1473WAT      O 4629   1.836   4.200   3.493
 1473WAT     H1 4630   1.797   4.285   3.514
 1473WAT     H2 4631   1.767   4.136   3.512
 1474WAT      O 4632   2.493   4.208   3.800
 1474WAT     H1 4633   2.424   4.189   3.863
 1474WAT     H2 4634   2.568   4.236   3.853
 1475WAT      O 4635   1.566   3.992   2.896
 1475WAT     H1 4636   1.537   4.049   2.968
 1475WAT     H2 4637   1.641   3.944   2.933
 1476WAT      O 4638   1.585   4.386   2.017
 1476WAT     H1 4639   1.577   4.481   2.032
 1476WAT     H2 4640   1.550   4.372   1.929
 1477WAT      O 4641   2.721   4.592   3.084
 1477WAT     H1 4642   2.648   4.643   3.118
 1477WAT     H2 4643   2.681   4.510   3.053
 1478WAT      O 4644   2.365   4.260   2.924
 1478WAT     H1 4645   2.365   4.216   2.839
 1478WAT     H2 4646   2.454   4.292   2.935
 1479WAT      O 4647   1.950   4.248   2.820
 1479WAT     H1 4648   1.916   4.296   2.896
 1479WAT     H2 4649   1.874   4.203   2.784
 1480WAT      O 4650   2.371   4.360   2.223
 1480WAT     H1 4651   2.383   4.356   2.318
 1480WAT     H2 4652   2.332   4.446   2.208
 1481WAT      O 4653   2.767   4.137   3.025
 1481WAT     H1 4654   2.769   4.183   3.109
 1481WAT     H2 4655   2.742   4.047   3.046
 1482WAT      O 4656   2.272   4.591   2.163
 1482WAT     H1 4657   2.215   4.546   2.100
 1482WAT     H2 4658   2.343   4.627   2.110
 1483WAT      O 4659   1.780   4.981   3.551
 1483WAT     H1 4660   1.741   4.917   3.610
 1483WAT     H2 4661   1.811   5.051   3.608
 1484WAT      O 4662   2.395   4.666   3.099
 1484WAT     H1 4663   2.432   4.618   3.173
 1484WAT     H2 4664   2.376   4.753   3.133
 1485WAT      O 4665   1.681   4.140   2.712
 1485WAT     H1 4666   1.653   4.104   2.795
 1485WAT     H2 4667   1.675   4.067   2.650
 1486WAT      O 4668   2.174   4.570   3.331
 1486WAT     H1 4669   2.143   4.658   3.353
 1486WAT     H2 4670   2.269   4.576   3.334
 1487WAT      O 4671   2.027   4.990   2.390
 1487WAT     H1 4672   1.949   4.936   2.374
 1487WAT     H2 4673   2.100   4.938   2.356
 1488WAT      O 4674   3.103   4.890   2.969
 1488WAT     H1 4675   3.175   4.940   2.930
 1488WAT     H2 4676   3.082   4.822   2.905
 1489WAT      O 4677   2.649   4.029   2.384
 1489WAT     H1 4678   2.567   3.980   2.376
 1489WAT     H2 4679   2.629   4.113   2.342
 1490WAT      O 4680   2.641   4.897   3.558
 1490WAT     H1 4681   2.634   4.805   3.533
 1490WAT     H2 4682   2.578   4.907   3.630
 1491WAT      O 4683   2.920   4.467   2.213
 1491WAT     H1 4684   3.009   4.498   2.196
 1491WAT     H2 4685   2.917   4.379   2.174
 1492WAT      O 4686   2.031   4.957   2.754
 1492WAT     H1 4687   2.083   4.877   2.749
 1492WAT     H2 4688   1.986   4.951   2.838
 1493WAT      O 4689   2.520   5.084   2.281
 1493WAT     H1 4690   2.554   5.158   2.232
 1493WAT     H2 4691   2.437   5.115   2.318
 1494WAT      O 4692   1.779   4.654   3.445
 1494WAT     H1 4693   1.744   4.720   3.504
 1494WAT     H2 4694   1.750   4.571   3.482
 1495WAT      O 4695   2.100   4.700   3.734
 1495WAT     H1 4696   2.070   4.714   3.644
 1495WAT     H2 4697   2.177   4.644   3.724
 1496WAT      O 4698   2.634   5.179   3.533
 1496WAT     H1 4699   2.635   5.086   3.511
 1496WAT     H2 4700   2.563   5.188   3.597
 1497WAT      O 4701   3.147   4.598   2.160
 1497WAT     H1 4702   3.139   4.641   2.075
 1497WAT     H2 4703   3.219   4.644   2.203
 1498WAT      O 4704   3.255   4.843   3.468
 1498WAT     H1 4705   3.182   4.903   3.448
 1498WAT     H2 4706   3.308   4.843   3.388
 1499WAT      O 4707   3.250   5.283   2.433
 1499WAT     H1 4708   3.186   5.218   2.460
 1499WAT     H2 4709   3.211   5.324   2.355
 1500WAT      O 4710   2.808   5.016   2.818
 1500WAT     H1 4711   2.843   4.956   2.752
 1500WAT     H2 4712   2.720   4.983   2.835
 1501WAT      O 4713   2.417   5.092   2.558
 1501WAT     H1 4714   2.485   5.147   2.597
 1501WAT     H2 4715   2.338   5.146   2.562
 1502WAT      O 4716   1.631   4.654   2.108
 1502WAT     H1 4717   1.717   4.682   2.136
 1502WAT     H2 4718   1.581   4.735   2.096
 1503WAT      O 4719   2.347   4.792   2.520
 1503WAT     H1 4720   2.393   4.873   2.542
 1503WAT     H2 4721   2.312   4.761   2.603
 1504WAT      O 4722   2.577   5.343   3.243
 1504WAT     H1 4723   2.642   5.364   3.310
 1504WAT     H2 4724   2.614   5.267   3.197
 1505WAT      O 4725   1.937   3.827   2.567
 1505WAT     H1 4726   1.924   3.826   2.662
 1505WAT     H2 4727   1.855   3.861   2.532
 1506WAT      O 4728   2.705   5.144   3.114
 1506WAT     H1 4729   2.769   5.074   3.126
 1506WAT     H2 4730   2.757   5.222   3.096
 1507WAT      O 4731   3.089   5.172   2.087
 1507WAT     H1 4732   3.066   5.101   2.146
 1507WAT     H2 4733   3.050   5.147   2.003
 1508WAT      O 4734   2.882   5.224   3.435
 1508WAT     H1 4735   2.915   5.282   3.503
 1508WAT     H2 4736   2.790   5.211   3.458
 1509WAT      O 4737   1.637   4.003   3.513
 1509WAT     H1 4738   1.566   4.023   3.574
 1509WAT     H2 4739   1.679   3.925   3.550
 1510WAT      O 4740   3.047   4.964   2.253
 1510WAT     H1 4741   3.018   5.010   2.332
 1510WAT     H2 4742   3.127   4.918   2.280
 1511WAT      O 4743   1.666   5.401   3.612
 1511WAT     H1 4744   1.677   5.307   3.598
 1511WAT     H2 4745   1.600   5.428   3.547
 1512WAT      O 4746   2.465   5.229   3.752
 1512WAT     H1 4747   2.433   5.157   3.806
 1512WAT     H2 4748   2.397   5.296   3.759
 1513WAT      O 4749   2.269   5.313   2.246
 1513WAT     H1 4750   2.268   5.387   2.184
 1513WAT     H2 4751   2.177   5.289   2.255
 1514WAT      O 4752   1.829   4.835   2.320
 1514WAT     H1 4753   1.768   4.909   2.321
 1514WAT     H2 4754   1.877   4.844   2.238
 1515WAT      O 4755   2.786   4.252   3.288
 1515WAT     H1 4756   2.823   4.170   3.321
 1515WAT     H2 4757   2.700   4.258   3.330
 1516WAT      O 4758   2.568   5.320   2.112
 1516WAT     H1 4759   2.578   5.299   2.019
 1516WAT     H2 4760   2.478   5.294   2.133
 1517WAT      O 4761   2.320   4.375   2.510
 1517WAT     H1 4762   2.249   4.422   2.555
 1517WAT     H2 4763   2.348   4.310   2.574
 1518WAT      O 4764   2.482   4.517   3.310
 1518WAT     H1 4765   2.532   4.565   3.377
 1518WAT     H2 4766   2.497   4.425   3.331
 1519WAT      O 4767   2.723   4.048   2.654
 1519WAT     H1 4768   2.711   4.050   2.560
 1519WAT     H2 4769   2.818   4.053   2.666
 1520WAT      O 4770   2.140   4.206   2.248
 1520WAT     H1 4771   2.225   4.250   2.241
 1520WAT     H2 4772   2.103   4.237   2.331
 1521WAT      O 4773   3.203   4.139   3.395
 1521WAT     H1 4774   3.153   4.213   3.429
 1521WAT     H2 4775   3.285   4.178   3.363
 1522WAT      O 4776   3.032   4.663   2.739
 1522WAT     H1 4777   2.938   4.665   2.757
 1522WAT     H2 4778   3.064   4.585   2.784
 1523WAT      O 4779   2.030   4.832   2.095
 1523WAT     H1 4780   2.107   4.820   2.152
 1523WAT     H2 4781   2.038   4.762   2.030
 1524WAT      O 4782   1.900   4.575   2.164
 1524WAT     H1 4783   1.908   4.480   2.175
 1524WAT     H2 4784   1.989   4.608   2.174
 1525WAT      O 4785   3.233   5.380   2.907
 1525WAT     H1 4786   3.245   5.463   2.954
 1525WAT     H2 4787   3.319   5.359   2.872
 1526WAT      O 4788   1.668   5.196   2.461
 1526WAT     H1 4789   1.576   5.221   2.460
 1526WAT     H2 4790   1.715   5.279   2.449
 1527WAT      O 4791   2.764   5.119   3.788
 1527WAT     H1 4792   2.703   5.121   3.714
 1527WAT     H2 4793   2.733   5.046   3.841
 1528WAT      O 4794   1.652   4.757   3.687
 1528WAT     H1 4795   1.703   4.699   3.744
 1528WAT     H2 4796   1.578   4.785   3.741
 1529WAT      O 4797   2.342   5.029   2.043
 1529WAT     H1 4798   2.332   4.968   2.115
 1529WAT     H2 4799   2.326   4.977   1.964
 1530WAT      O 4800   2.358   4.898   3.641
 1530WAT     H1 4801   2.281   4.954   3.632
 1530WAT     H2 4802   2.376   4.868   3.551
 1531WAT      O 4803   2.667   4.935   2.103
 1531WAT     H1 4804   2.612   4.980   2.168
 1531WAT     H2 4805   2.729   4.885   2.155
 1532WAT      O 4806   3.072   5.071   3.696
 1532WAT     H1 4807   3.146   5.104   3.646
 1532WAT     H2 4808   2.996   5.088   3.641
 1533WAT      O 4809   1.855   4.571   3.777
 1533WAT     H1 4810   1.860   4.541   3.868
 1533WAT     H2 4811   1.941   4.611   3.761
 1534WAT      O 4812   2.233   4.831   2.293
 1534WAT     H1 4813   2.275   4.815   2.377
 1534WAT     H2 4814   2.246   4.750   2.243
 1535WAT      O 4815   2.050   4.429   3.573
 1535WAT     H1 4816   1.996   4.380   3.511
 1535WAT     H2 4817   2.116   4.472   3.520
 1536WAT      O 4818   2.485   4.734   2.018
 1536WAT     H1 4819   2.537   4.662   1.981
 1536WAT     H2 4820   2.549   4.797   2.048
 1537WAT      O 4821   2.939   4.876   3.550
 1537WAT     H1 4822   2.981   4.891   3.635
 1537WAT     H2 4823   2.846   4.888   3.566
 1538WAT      O 4824   2.987   4.610   3.750
 1538WAT     H1 4825   3.045   4.534   3.741
 1538WAT     H2 4826   3.004   4.663   3.673
 1539WAT      O 4827   2.098   4.126   3.581
 1539WAT     H1 4828   2.089   4.064   3.509
 1539WAT     H2 4829   2.040   4.198   3.559
 1540WAT      O 4830   2.375   3.981   3.285
 1540WAT     H1 4831   2.330   3.984   3.200
 1540WAT     H2 4832   2.312   3.942   3.344
 1541WAT      O 4833   2.415   4.871   3.347
 1541WAT     H1 4834   2.457   4.955   3.330
 1541WAT     H2 4835   2.324   4.885   3.324
 1542WAT      O 4836   2.649   4.644   3.485
 1542WAT     H1 4837   2.661   4.585   3.559
 1542WAT     H2 4838   2.735   4.648   3.443
 1543WAT      O 4839   2.883   4.700   3.343
 1543WAT     H1 4840   2.830   4.752   3.282
 1543WAT     H2 4841   2.917   4.763   3.406
 1544WAT      O 4842   2.123   4.439   1.987
 1544WAT     H1 4843   2.103   4.352   2.023
 1544WAT     H2 4844   2.106   4.430   1.894
 1545WAT      O 4845   2.326   4.298   3.611
 1545WAT     H1 4846   2.385   4.268   3.680
 1545WAT     H2 4847   2.244   4.251   3.627
 1546WAT      O 4848   2.808   4.260   3.634
 1546WAT     H1 4849   2.739   4.194   3.628
 1546WAT     H2 4850   2.880   4.215   3.679
 1547WAT      O 4851   2.003   4.149   1.986
 1547WAT     H1 4852   2.033   4.149   1.895
 1547WAT     H2 4853   2.077   4.113   2.036
 1548WAT      O 4854   2.325   4.043   2.085
 1548WAT     H1 4855   2.290   3.975   2.027
 1548WAT     H2 4856   2.345   3.997   2.166
 1549WAT      O 4857   1.905   5.079   2.069
 1549WAT     H1 4858   1.949   5.133   2.135
 1549WAT     H2 4859   1.953   4.996   2.070
 1550WAT      O 4860   1.626   5.358   2.815
 1550WAT     H1 4861   1.659   5.271   2.791
 1550WAT     H2 4862   1.669   5.378   2.898
 1551WAT      O 4863   2.086   5.191   2.581
 1551WAT     H1 4864   2.056   5.179   2.671
 1551WAT     H2 4865   2.075   5.105   2.540
 1552WAT      O 4866   3.239   5.395   3.517
 1552WAT     H1 4867   3.179   5.401   3.443
 1552WAT     H2 4868   3.252   5.301   3.530
 1553WAT      O 4869   3.363   5.169   2.051
 1553WAT     H1 4870   3.280   5.176   2.098
 1553WAT     H2 4871   3.381   5.258   2.021
 1554WAT      O 4872   3.309   4.843   2.301
 1554WAT     H1 4873   3.385   4.900   2.312
 1554WAT     H2 4874   3.310   4.787   2.378
 1555WAT      O 4875   1.659   4.696   2.724
 1555WAT     H1 4876   1.593   4.669   2.660
 1555WAT     H2 4877   1.742   4.685   2.679
 1556WAT      O 4878   3.409   4.929   2.786
 1556WAT     H1 4879   3.446   4.851   2.745
 1556WAT     H2 4880   3.473   4.998   2.768
 1557WAT      O 4881   3.107   5.067   3.327
 1557WAT     H1 4882   3.026   5.110   3.353
 1557WAT     H2 4883   3.148   5.128   3.266
 1558WAT      O 4884   3.314   4.873   2.017
 1558WAT     H1 4885   3.341   4.963   2.004
 1558WAT     H2 4886   3.295   4.866   2.111
 1559WAT      O 4887   3.303   4.666   2.516
 1559WAT     H1 4888   3.266   4.590   2.473
 1559WAT     H2 4889   3.230   4.705   2.565
 1560WAT      O 4890   1.762   4.734   3.178
 1560WAT     H1 4891   1.799   4.726   3.266
 1560WAT     H2 4892   1.705   4.658   3.168
 1561WAT      O 4893   3.242   4.581   3.480
 1561WAT     H1 4894   3.219   4.558   3.390
 1561WAT     H2 4895   3.268   4.673   3.475
 1562WAT      O 4896   1.717   4.425   3.569
 1562WAT     H1 4897   1.628   4.422   3.603
 1562WAT     H2 4898   1.771   4.445   3.645
 1563WAT      O 4899   3.086   4.104   3.757
 1563WAT     H1 4900   3.174   4.104   3.796
 1563WAT     H2 4901   3.087   4.030   3.696
 1564WAT      O 4902   1.580   4.417   2.319
 1564WAT     H1 4903   1.490   4.443   2.301
 1564WAT     H2 4904   1.628   4.444   2.241
 1565WAT      O 4905   3.231   4.489   2.846
 1565WAT     H1 4906   3.283   4.440   2.783
 1565WAT     H2 4907   3.289   4.502   2.921
 1566WAT      O 4908   3.249   4.497   3.199
 1566WAT     H1 4909   3.154   4.494   3.210
 1566WAT     H2 4910   3.267   4.588   3.175
 1567WAT      O 4911   1.834   4.322   2.110
 1567WAT     H1 4912   1.905   4.280   2.061
 1567WAT     H2 4913   1.763   4.329   2.046
 1568WAT      O 4914   1.799   3.928   2.014
 1568WAT     H1 4915   1.871   3.982   2.045
 1568WAT     H2 4916   1.826   3.900   1.926
 1569WAT      O 4917   3.180   4.415   2.440
 1569WAT     H1 4918   3.229   4.391   2.519
 1569WAT     H2 4919   3.160   4.331   2.399
 1570WAT      O 4920   1.768   3.853   3.004
 1570WAT     H1 4921   1.833   3.798   2.960
 1570WAT     H2 4922   1.810   3.878   3.086
 1571WAT      O 4923   3.323   4.278   2.694
 1571WAT     H1 4924   3.312   4.263   2.787
 1571WAT     H2 4925   3.399   4.226   2.669
 1572WAT      O 4926   1.743   3.868   3.278
 1572WAT     H1 4927   1.708   3.914   3.355
 1572WAT     H2 4928   1.710   3.779   3.286
 1573WAT      O 4929   1.904   5.186   3.695
 1573WAT     H1 4930   1.900   5.149   3.783
 1573WAT     H2 4931   1.917   5.279   3.709
 1574WAT      O 4932   2.274   5.341   3.255
 1574WAT     H1 4933   2.250   5.368   3.166
 1574WAT     H2 4934   2.368   5.358   3.260
 1575WAT      O 4935   2.494   3.988   3.630
 1575WAT     H1 4936   2.488   4.047   3.705
 1575WAT     H2 4937   2.588   3.977   3.616
 1576WAT      O 4938   2.758   3.953   3.594
 1576WAT     H1 4939   2.820   3.985   3.528
 1576WAT     H2 4940   2.813   3.905   3.656
 1577WAT      O 4941   1.810   3.821   3.606
 1577WAT     H1 4942   1.865   3.803   3.529
 1577WAT     H2 4943   1.817   3.742   3.659
 1578WAT      O 4944   1.888   5.480   3.407
 1578WAT     H1 4945   1.828   5.467   3.480
 1578WAT     H2 4946   1.887   5.397   3.360
 1579WAT      O 4947   2.923   4.030   3.365
 1579WAT     H1 4948   2.890   3.949   3.327
 1579WAT     H2 4949   3.018   4.026   3.353
 1580WAT      O 4950   1.851   5.217   3.302
 1580WAT     H1 4951   1.778   5.155   3.295
 1580WAT     H2 4952   1.857   5.256   3.215
 1581WAT      O 4953   2.211   5.438   2.980
 1581WAT     H1 4954   2.263   5.377   2.928
 1581WAT     H2 4955   2.276   5.489   3.029
 1582WAT      O 4956   2.607   3.901   3.121
 1582WAT     H1 4957   2.529   3.949   3.149
 1582WAT     H2 4958   2.578   3.811   3.110
 1583WAT      O 4959   3.062   3.971   2.925
 1583WAT     H1 4960   3.106   3.966   2.840
 1583WAT     H2 4961   3.035   4.063   2.932
 1584WAT      O 4962   1.741   3.932   2.373
 1584WAT     H1 4963   1.817   3.943   2.316
 1584WAT     H2 4964   1.695   4.015   2.368
 1585WAT      O 4965   2.396   4.143   2.672
 1585WAT     H1 4966   2.314   4.106   2.638
 1585WAT     H2 4967   2.446   4.068   2.702
 1586WAT      O 4968   1.840   5.418   2.367
 1586WAT     H1 4969   1.787   5.456   2.297
 1586WAT     H2 4970   1.832   5.480   2.439
 1587WAT      O 4971   1.979   3.984   2.227
 1587WAT     H1 4972   2.032   3.906   2.214
 1587WAT     H2 4973   2.042   4.052   2.250
 1588WAT      O 4974   2.198   3.958   2.532
 1588WAT     H1 4975   2.135   3.888   2.549
 1588WAT     H2 4976   2.144   4.034   2.511
 1589WAT      O 4977   2.211   3.886   3.776
 1589WAT     H1 4978   2.182   3.936   3.700
 1589WAT     H2 4979   2.249   3.806   3.739
 1590WAT      O 4980   2.016   5.224   2.255
 1590WAT     H1 4981   1.953   5.271   2.310
 1590WAT     H2 4982   2.027   5.140   2.298
 1591WAT      O 4983   2.871   3.827   3.834
 1591WAT     H1 4984   2.859   3.859   3.923
 1591WAT     H2 4985   2.952   3.868   3.804
 1592WAT      O 4986   2.761   4.629   0.870
 1592WAT     H1 4987   2.753   4.538   0.843
 1592WAT     H2 4988   2.720   4.679   0.799
 1593WAT      O 4989   2.575   4.807   1.058
 1593WAT     H1 4990   2.497   4.759   1.087
 1593WAT     H2 4991   2.640   4.739   1.041
 1594WAT      O 4992   1.976   4.838   1.146
 1594WAT     H1 4993   1.893   4.813   1.186
 1594WAT     H2 4994   2.037   4.845   1.219
 1595WAT      O 4995   2.977   5.248   0.936
 1595WAT     H1 4996   2.930   5.171   0.969
 1595WAT     H2 4997   3.058   5.250   0.987
 1596WAT      O 4998   1.974   5.242   1.165
 1596WAT     H1 4999   2.004   5.153   1.148
 1596WAT     H2 5000   2.049   5.297   1.143
 1597WAT      O 5001   1.817   4.334   0.524
 1597WAT     H1 5002   1.728   4.369   0.514
 1597WAT     H2 5003   1.846   4.314   0.435
 1598WAT      O 5004   1.613   4.594   1.113
 1598WAT     H1 5005   1.671   4.518   1.113
 1598WAT     H2 5006   1.613   4.624   1.022
 1599WAT      O 5007   2.519   5.075   1.059
 1599WAT     H1 5008   2.512   4.981   1.043
 1599WAT     H2 5009   2.595   5.084   1.116
 1600WAT      O 5010   1.738   4.135   1.291
 1600WAT     H1 5011   1.720   4.046   1.319
 1600WAT     H2 5012   1.697   4.190   1.359
 1601WAT      O 5013   2.622   4.355   1.082
 1601WAT     H1 5014   2.659   4.268   1.070
 1601WAT     H2 5015   2.612   4.389   0.992
 1602WAT      O 5016   2.035   4.193   0.628
 1602WAT     H1 5017   2.045   4.283   0.658
 1602WAT     H2 5018   1.944   4.188   0.599
 1603WAT      O 5019   3.000   4.105   0.775
 1603WAT     H1 5020   3.082   4.056   0.779
 1603WAT     H2 5021   3.003   4.164   0.850
 1604WAT      O 5022   1.800   4.385   1.152
 1604WAT     H1 5023   1.868   4.411   1.214
 1604WAT     H2 5024   1.768   4.301   1.186
 1605WAT      O 5025   2.219   4.490   1.061
 1605WAT     H1 5026   2.270   4.539   1.125
 1605WAT     H2 5027   2.272   4.412   1.043
 1606WAT      O 5028   2.047   3.954   1.488
 1606WAT     H1 5029   2.047   4.005   1.407
 1606WAT     H2 5030   1.964   3.906   1.485
 1607WAT      O 5031   2.686   4.965   0.637
 1607WAT     H1 5032   2.624   5.011   0.581
 1607WAT     H2 5033   2.737   5.034   0.679
 1608WAT      O 5034   2.172   4.918   1.305
 1608WAT     H1 5035   2.139   4.980   1.370
 1608WAT     H2 5036   2.190   4.970   1.227
 1609WAT      O 5037   3.024   4.299   1.052
 1609WAT     H1 5038   2.953   4.328   1.110
 1609WAT     H2 5039   3.060   4.380   1.016
 1610WAT      O 5040   2.015   4.125   1.288
 1610WAT     H1 5041   2.049   4.209   1.259
 1610WAT     H2 5042   1.921   4.140   1.300
 1611WAT      O 5043   2.093   5.114   1.487
 1611WAT     H1 5044   2.155   5.182   1.459
 1611WAT     H2 5045   2.007   5.155   1.478
 1612WAT      O 5046   1.623   5.033   0.375
 1612WAT     H1 5047   1.585   5.082   0.302
 1612WAT     H2 5048   1.648   5.101   0.438
 1613WAT      O 5049   3.185   5.261   1.278
 1613WAT     H1 5050   3.117   5.328   1.278
 1613WAT     H2 5051   3.239   5.281   1.202
 1614WAT      O 5052   3.330   4.244   1.091
 1614WAT     H1 5053   3.236   4.247   1.104
 1614WAT     H2 5054   3.363   4.325   1.130
 1615WAT      O 5055   2.384   3.873   0.921
 1615WAT     H1 5056   2.414   3.818   0.849
 1615WAT     H2 5057   2.291   3.887   0.902
 1616WAT      O 5058   3.068   5.117   0.659
 1616WAT     H1 5059   3.057   5.023   0.671
 1616WAT     H2 5060   3.068   5.153   0.747
 1617WAT      O 5061   2.879   4.935   1.283
 1617WAT     H1 5062   2.920   4.914   1.199
 1617WAT     H2 5063   2.951   4.961   1.340
 1618WAT      O 5064   2.622   4.680   0.594
 1618WAT     H1 5065   2.530   4.673   0.617
 1618WAT     H2 5066   2.638   4.774   0.583
 1619WAT      O 5067   2.621   4.307   0.294
 1619WAT     H1 5068   2.527   4.323   0.303
 1619WAT     H2 5069   2.653   4.379   0.239
 1620WAT      O 5070   3.273   4.775   1.292
 1620WAT     H1 5071   3.190   4.782   1.244
 1620WAT     H2 5072   3.333   4.834   1.245
 1621WAT      O 5073   3.025   4.836   0.645
 1621WAT     H1 5074   2.964   4.802   0.580
 1621WAT     H2 5075   3.024   4.772   0.715
 1622WAT      O 5076   2.970   4.454   1.386
 1622WAT     H1 5077   2.928   4.537   1.412
 1622WAT     H2 5078   2.896   4.395   1.367
 1623WAT      O 5079   2.183   4.733   0.873
 1623WAT     H1 5080   2.143   4.661   0.823
 1623WAT     H2 5081   2.192   4.698   0.961
 1624WAT      O 5082   2.230   5.101   1.089
 1624WAT     H1 5083   2.200   5.041   1.021
 1624WAT     H2 5084   2.325   5.105   1.078
 1625WAT      O 5085   2.054   4.410   1.251
 1625WAT     H1 5086   2.109   4.421   1.173
 1625WAT     H2 5087   2.106   4.447   1.322
 1626WAT      O 5088   2.139   5.075   1.754
 1626WAT     H1 5089   2.049   5.098   1.779
 1626WAT     H2 5090   2.142   5.087   1.659
 1627WAT      O 5091   2.843   4.760   0.345
 1627WAT     H1 5092   2.887   4.676   0.331
 1627WAT     H2 5093   2.914   4.823   0.354
 1628WAT      O 5094   2.022   4.762   1.612
 1628WAT     H1 5095   2.008   4.849   1.648
 1628WAT     H2 5096   1.934   4.728   1.597
 1629WAT      O 5097   2.654   5.254   0.742
 1629WAT     H1 5098   2.698   5.328   0.701
 1629WAT     H2 5099   2.648   5.278   0.835
 1630WAT      O 5100   2.201   5.356   1.832
 1630WAT     H1 5101   2.199   5.397   1.746
 1630WAT     H2 5102   2.185   5.264   1.816
 1631WAT      O 5103   3.201   3.885   0.177
 1631WAT     H1 5104   3.170   3.895   0.267
 1631WAT     H2 5105   3.277   3.943   0.172
 1632WAT      O 5106   1.853   4.622   0.623
 1632WAT     H1 5107   1.841   4.695   0.561
 1632WAT     H2 5108   1.822   4.545   0.575
 1633WAT      O 5109   3.397   5.435   1.962
 1633WAT     H1 5110   3.444   5.483   2.030
 1633WAT     H2 5111   3.459   5.428   1.890
 1634WAT      O 5112   1.617   4.939   1.203
 1634WAT     H1 5113   1.625   4.953   1.109
 1634WAT     H2 5114   1.678   4.868   1.223
 1635WAT      O 5115   1.741   5.109   0.844
 1635WAT     H1 5116   1.701   5.123   0.759
 1635WAT     H2 5117   1.830   5.081   0.824
 1636WAT      O 5118   3.337   5.154   1.678
 1636WAT     H1 5119   3.350   5.130   1.586
 1636WAT     H2 5120   3.341   5.071   1.725
 1637WAT      O 5121   2.891   5.304   0.334
 1637WAT     H1 5122   2.822   5.303   0.268
 1637WAT     H2 5123   2.965   5.261   0.291
 1638WAT      O 5124   1.622   5.043   1.457
 1638WAT     H1 5125   1.639   4.996   1.375
 1638WAT     H2 5126   1.669   4.993   1.524
 1639WAT      O 5127   2.100   3.956   0.961
 1639WAT     H1 5128   2.055   4.035   0.928
 1639WAT     H2 5129   2.156   3.989   1.032
 1640WAT      O 5130   2.528   4.243   1.521
 1640WAT     H1 5131   2.482   4.264   1.602
 1640WAT     H2 5132   2.488   4.162   1.491
 1641WAT      O 5133   3.028   4.365   1.634
 1641WAT     H1 5134   2.943   4.335   1.666
 1641WAT     H2 5135   3.012   4.390   1.543
 1642WAT      O 5136   2.738   4.515   1.844
 1642WAT     H1 5137   2.770   4.432   1.810
 1642WAT     H2 5138   2.817   4.567   1.859
 1643WAT      O 5139   2.411   3.919   0.449
 1643WAT     H1 5140   2.349   3.918   0.521
 1643WAT     H2 5141   2.403   3.832   0.409
 1644WAT      O 5142   2.303   4.011   1.147
 1644WAT     H1 5143   2.333   4.102   1.139
 1644WAT     H2 5144   2.358   3.962   1.085
 1645WAT      O 5145   2.079   4.469   0.734
 1645WAT     H1 5146   2.056   4.447   0.824
 1645WAT     H2 5147   2.001   4.512   0.699
 1646WAT      O 5148   2.802   4.469   0.594
 1646WAT     H1 5149   2.742   4.542   0.575
 1646WAT     H2 5150   2.857   4.463   0.515
 1647WAT      O 5151   2.323   4.559   1.800
 1647WAT     H1 5152   2.313   4.465   1.785
 1647WAT     H2 5153   2.407   4.581   1.761
 1648WAT      O 5154   2.662   4.333   0.797
 1648WAT     H1 5155   2.702   4.365   0.715
 1648WAT     H2 5156   2.699   4.245   0.808
 1649WAT      O 5157   1.836   4.200   1.616
 1649WAT     H1 5158   1.797   4.285   1.636
 1649WAT     H2 5159   1.767   4.136   1.635
 1650WAT      O 5160   2.493   4.208   1.923
 1650WAT     H1 5161   2.424   4.189   1.986
 1650WAT     H2 5162   2.568   4.236   1.976
 1651WAT      O 5163   1.566   3.992   1.019
 1651WAT     H1 5164   1.537   4.049   1.090
 1651WAT     H2 5165   1.641   3.944   1.055
 1652WAT      O 5166   2.721   4.592   1.206
 1652WAT     H1 5167   2.648   4.643   1.241
 1652WAT     H2 5168   2.681   4.510   1.176
 1653WAT      O 5169   2.365   4.260   1.047
 1653WAT     H1 5170   2.365   4.216   0.962
 1653WAT     H2 5171   2.454   4.292   1.057
 1654WAT      O 5172   1.950   4.248   0.943
 1654WAT     H1 5173   1.916   4.296   1.018
 1654WAT     H2 5174   1.874   4.203   0.907
 1655WAT      O 5175   2.371   4.360   0.346
 1655WAT     H1 5176   2.383   4.356   0.441
 1655WAT     H2 5177   2.332   4.446   0.330
 1656WAT      O 5178   2.767   4.137   1.147
 1656WAT     H1 5179   2.769   4.183   1.232
 1656WAT     H2 5180   2.742   4.047   1.169
 1657WAT      O 5181   2.272   4.591   0.286
 1657WAT     H1 5182   2.215   4.546   0.223
 1657WAT     H2 5183   2.343   4.627   0.232
 1658WAT      O 5184   1.780   4.981   1.673
 1658WAT     H1 5185   1.741   4.917   1.733
 1658WAT     H2 5186   1.811   5.051   1.730
 1659WAT      O 5187   2.395   4.666   1.221
 1659WAT     H1 5188   2.432   4.618   1.296
 1659WAT     H2 5189   2.376   4.753   1.255
 1660WAT      O 5190   1.681   4.140   0.834
 1660WAT     H1 5191   1.653   4.104   0.918
 1660WAT     H2 5192   1.675   4.067   0.773
 1661WAT      O 5193   2.174   4.570   1.453
 1661WAT     H1 5194   2.143   4.658   1.476
 1661WAT     H2 5195   2.269   4.576   1.457
 1662WAT      O 5196   2.027   4.990   0.513
 1662WAT     H1 5197   1.949   4.936   0.497
 1662WAT     H2 5198   2.100   4.938   0.479
 1663WAT      O 5199   3.103   4.890   1.092
 1663WAT     H1 5200   3.175   4.940   1.053
 1663WAT     H2 5201   3.082   4.822   1.028
 1664WAT      O 5202   2.649   4.029   0.506
 1664WAT     H1 5203   2.567   3.980   0.499
 1664WAT     H2 5204   2.629   4.113   0.465
 1665WAT      O 5205   2.641   4.897   1.681
 1665WAT     H1 5206   2.634   4.805   1.655
 1665WAT     H2 5207   2.578   4.907   1.752
 1666WAT      O 5208   2.920   4.467   0.336
 1666WAT     H1 5209   3.009   4.498   0.318
 1666WAT     H2 5210   2.917   4.379   0.297
 1667WAT      O 5211   2.031   4.957   0.877
 1667WAT     H1 5212   2.083   4.877   0.871
 1667WAT     H2 5213   1.986   4.951   0.961
 1668WAT      O 5214   2.520   5.084   0.404
 1668WAT     H1 5215   2.554   5.158   0.354
 1668WAT     H2 5216   2.437   5.115   0.440
 1669WAT      O 5217   1.779   4.654   1.568
 1669WAT     H1 5218   1.744   4.720   1.627
 1669WAT     H2 5219   1.750   4.571   1.605
 1670WAT      O 5220   2.100   4.700   1.856
 1670WAT     H1 5221   2.070   4.714   1.767
 1670WAT     H2 5222   2.177   4.644   1.847
 1671WAT      O 5223   2.634   5.179   1.656
 1671WAT     H1 5224   2.635   5.086   1.634
 1671WAT     H2 5225   2.563   5.188   1.720
 1672WAT      O 5226   3.147   4.598   0.283
 1672WAT     H1 5227   3.139   4.641   0.198
 1672WAT     H2 5228   3.219   4.644   0.326
 1673WAT      O 5229   3.255   4.843   1.590
 1673WAT     H1 5230   3.182   4.903   1.571
 1673WAT     H2 5231   3.308   4.843   1.511
 1674WAT      O 5232   3.250   5.283   0.556
 1674WAT     H1 5233   3.186   5.218   0.583
 1674WAT     H2 5234   3.211   5.324   0.478
 1675WAT      O 5235   2.808   5.016   0.940
 1675WAT     H1 5236   2.843   4.956   0.874
 1675WAT     H2 5237   2.720   4.983   0.957
 1676WAT      O 5238   2.417   5.092   0.681
 1676WAT     H1 5239   2.485   5.147   0.719
 1676WAT     H2 5240   2.338   5.146   0.685
 1677WAT      O 5241   1.631   4.654   0.230
 1677WAT     H1 5242   1.717   4.682   0.259
 1677WAT     H2 5243   1.581   4.735   0.219
 1678WAT      O 5244   2.347   4.792   0.642
 1678WAT     H1 5245   2.393   4.873   0.665
 1678WAT     H2 5246   2.312   4.761   0.725
 1679WAT      O 5247   2.577   5.343   1.365
 1679WAT     H1 5248   2.642   5.364   1.433
 1679WAT     H2 5249   2.614   5.267   1.320
 1680WAT      O 5250   1.937   3.827   0.689
 1680WAT     H1 5251   1.924   3.826   0.784
 1680WAT     H2 5252   1.855   3.861   0.654
 1681WAT      O 5253   2.705   5.144   1.237
 1681WAT     H1 5254   2.769   5.074   1.248
 1681WAT     H2 5255   2.757   5.222   1.219
 1682WAT      O 5256   2.882   5.224   1.557
 1682WAT     H1 5257   2.915   5.282   1.625
 1682WAT     H2 5258   2.790   5.211   1.580
 1683WAT      O 5259   1.637   4.003   1.636
 1683WAT     H1 5260   1.566   4.023   1.696
 1683WAT     H2 5261   1.679   3.925   1.673
 1684WAT      O 5262   3.047   4.964   0.375
 1684WAT     H1 5263   3.018   5.010   0.454
 1684WAT     H2 5264   3.127   4.918   0.402
 1685WAT      O 5265   1.666   5.401   1.734
 1685WAT     H1 5266   1.677   5.307   1.720
 1685WAT     H2 5267   1.600   5.428   1.669
 1686WAT      O 5268   2.465   5.229   1.874
 1686WAT     H1 5269   2.433   5.157   1.929
 1686WAT     H2 5270   2.397   5.296   1.882
 1687WAT      O 5271   2.269   5.313   0.369
 1687WAT     H1 5272   2.268   5.387   0.307
 1687WAT     H2 5273   2.177   5.289   0.378
 1688WAT      O 5274   1.829   4.835   0.443
 1688WAT     H1 5275   1.768   4.909   0.444
 1688WAT     H2 5276   1.877   4.844   0.360
 1689WAT      O 5277   2.786   4.252   1.411
 1689WAT     H1 5278   2.823   4.170   1.443
 1689WAT     H2 5279   2.700   4.258   1.452
 1690WAT      O 5280   3.123   4.147   0.491
 1690WAT     H1 5281   3.060   4.158   0.420
 1690WAT     H2 5282   3.073   4.169   0.570
 1691WAT      O 5283   2.320   4.375   0.633
 1691WAT     H1 5284   2.249   4.422   0.677
 1691WAT     H2 5285   2.348   4.310   0.696
 1692WAT      O 5286   2.482   4.517   1.433
 1692WAT     H1 5287   2.532   4.565   1.499
 1692WAT     H2 5288   2.497   4.425   1.454
 1693WAT      O 5289   2.723   4.048   0.777
 1693WAT     H1 5290   2.711   4.050   0.682
 1693WAT     H2 5291   2.818   4.053   0.789
 1694WAT      O 5292   2.140   4.206   0.371
 1694WAT     H1 5293   2.225   4.250   0.364
 1694WAT     H2 5294   2.103   4.237   0.453
 1695WAT      O 5295   3.032   4.663   0.862
 1695WAT     H1 5296   2.938   4.665   0.879
 1695WAT     H2 5297   3.064   4.585   0.906
 1696WAT      O 5298   1.900   4.575   0.286
 1696WAT     H1 5299   1.908   4.480   0.297
 1696WAT     H2 5300   1.989   4.608   0.297
 1697WAT      O 5301   3.233   5.380   1.029
 1697WAT     H1 5302   3.245   5.463   1.077
 1697WAT     H2 5303   3.319   5.359   0.995
 1698WAT      O 5304   1.668   5.196   0.584
 1698WAT     H1 5305   1.576   5.221   0.583
 1698WAT     H2 5306   1.715   5.279   0.572
 1699WAT      O 5307   2.764   5.119   1.910
 1699WAT     H1 5308   2.703   5.121   1.836
 1699WAT     H2 5309   2.733   5.046   1.964
 1700WAT      O 5310   1.652   4.757   1.810
 1700WAT     H1 5311   1.703   4.699   1.867
 1700WAT     H2 5312   1.578   4.785   1.864
 1701WAT      O 5313   2.358   4.898   1.763
 1701WAT     H1 5314   2.281   4.954   1.755
 1701WAT     H2 5315   2.376   4.868   1.674
 1702WAT      O 5316   2.667   4.935   0.226
 1702WAT     H1 5317   2.612   4.980   0.290
 1702WAT     H2 5318   2.729   4.885   0.278
 1703WAT      O 5319   3.072   5.071   1.819
 1703WAT     H1 5320   3.146   5.104   1.769
 1703WAT     H2 5321   2.996   5.088   1.764
 1704WAT      O 5322   1.855   4.571   1.899
 1704WAT     H1 5323   1.860   4.541   1.990
 1704WAT     H2 5324   1.941   4.611   1.883
 1705WAT      O 5325   2.233   4.831   0.415
 1705WAT     H1 5326   2.275   4.815   0.500
 1705WAT     H2 5327   2.246   4.750   0.366
 1706WAT      O 5328   2.050   4.429   1.696
 1706WAT     H1 5329   1.996   4.380   1.633
 1706WAT     H2 5330   2.116   4.472   1.643
 1707WAT      O 5331   2.939   4.876   1.672
 1707WAT     H1 5332   2.981   4.891   1.757
 1707WAT     H2 5333   2.846   4.888   1.689
 1708WAT      O 5334   2.987   4.610   1.873
 1708WAT     H1 5335   3.045   4.534   1.864
 1708WAT     H2 5336   3.004   4.663   1.795
 1709WAT      O 5337   2.098   4.126   1.704
 1709WAT     H1 5338   2.089   4.064   1.632
 1709WAT     H2 5339   2.040   4.198   1.681
 1710WAT      O 5340   2.375   3.981   1.407
 1710WAT     H1 5341   2.330   3.984   1.323
 1710WAT     H2 5342   2.312   3.942   1.467
 1711WAT      O 5343   2.415   4.871   1.469
 1711WAT     H1 5344   2.457   4.955   1.452
 1711WAT     H2 5345   2.324   4.885   1.446
 1712WAT      O 5346   2.649   4.644   1.608
 1712WAT     H1 5347   2.661   4.585   1.682
 1712WAT     H2 5348   2.735   4.648   1.566
 1713WAT      O 5349   2.883   4.700   1.465
 1713WAT     H1 5350   2.830   4.752   1.405
 1713WAT     H2 5351   2.917   4.763   1.528
 1714WAT      O 5352   2.326   4.298   1.734
 1714WAT     H1 5353   2.385   4.268   1.802
 1714WAT     H2 5354   2.244   4.251   1.749
 1715WAT      O 5355   2.808   4.260   1.757
 1715WAT     H1 5356   2.739   4.194   1.750
 1715WAT     H2 5357   2.880   4.215   1.801
 1716WAT      O 5358   2.871   3.920   0.363
 1716WAT     H1 5359   2.899   3.835   0.398
 1716WAT     H2 5360   2.793   3.943   0.414
 1717WAT      O 5361   1.905   5.079   0.192
 1717WAT     H1 5362   1.949   5.133   0.258
 1717WAT     H2 5363   1.953   4.996   0.193
 1718WAT      O 5364   1.626   5.358   0.937
 1718WAT     H1 5365   1.659   5.271   0.914
 1718WAT     H2 5366   1.669   5.378   1.020
 1719WAT      O 5367   2.086   5.191   0.703
 1719WAT     H1 5368   2.056   5.179   0.793
 1719WAT     H2 5369   2.075   5.105   0.662
 1720WAT      O 5370   3.239   5.395   1.640
 1720WAT     H1 5371   3.179   5.401   1.565
 1720WAT     H2 5372   3.252   5.301   1.653
 1721WAT      O 5373   3.309   4.843   0.424
 1721WAT     H1 5374   3.385   4.900   0.434
 1721WAT     H2 5375   3.310   4.787   0.501
 1722WAT      O 5376   1.659   4.696   0.847
 1722WAT     H1 5377   1.593   4.669   0.782
 1722WAT     H2 5378   1.742   4.685   0.802
 1723WAT      O 5379   3.409   4.929   0.908
 1723WAT     H1 5380   3.446   4.851   0.868
 1723WAT     H2 5381   3.473   4.998   0.890
 1724WAT      O 5382   3.107   5.067   1.450
 1724WAT     H1 5383   3.026   5.110   1.476
 1724WAT     H2 5384   3.148   5.128   1.388
 1725WAT      O 5385   2.953   4.175   0.269
 1725WAT     H1 5386   2.995   4.156   0.185
 1725WAT     H2 5387   2.923   4.090   0.300
 1726WAT      O 5388   3.303   4.666   0.639
 1726WAT     H1 5389   3.266   4.590   0.596
 1726WAT     H2 5390   3.230   4.705   0.688
 1727WAT      O 5391   1.762   4.734   1.301
 1727WAT     H1 5392   1.799   4.726   1.389
 1727WAT     H2 5393   1.705   4.658   1.291
 1728WAT      O 5394   3.242   4.581   1.602
 1728WAT     H1 5395   3.219   4.558   1.512
 1728WAT     H2 5396   3.268   4.673   1.598
 1729WAT      O 5397   1.717   4.425   1.691
 1729WAT     H1 5398   1.628   4.422   1.725
 1729WAT     H2 5399   1.771   4.445   1.768
 1730WAT      O 5400   1.580   4.417   0.441
 1730WAT     H1 5401   1.490   4.443   0.424
 1730WAT     H2 5402   1.628   4.444   0.363
 1731WAT      O 5403   3.231   4.489   0.969
 1731WAT     H1 5404   3.283   4.440   0.906
 1731WAT     H2 5405   3.289   4.502   1.043
 1732WAT      O 5406   3.249   4.497   1.321
 1732WAT     H1 5407   3.154   4.494   1.333
 1732WAT     H2 5408   3.267   4.588   1.298
 1733WAT      O 5409   1.834   4.322   0.232
 1733WAT     H1 5410   1.905   4.280   0.184
 1733WAT     H2 5411   1.763   4.329   0.169
 1734WAT      O 5412   3.180   4.415   0.563
 1734WAT     H1 5413   3.229   4.391   0.641
 1734WAT     H2 5414   3.160   4.331   0.521
 1735WAT      O 5415   1.768   3.853   1.126
 1735WAT     H1 5416   1.833   3.798   1.082
 1735WAT     H2 5417   1.810   3.878   1.208
 1736WAT      O 5418   3.323   4.278   0.816
 1736WAT     H1 5419   3.312   4.263   0.910
 1736WAT     H2 5420   3.399   4.226   0.792
 1737WAT      O 5421   3.419   4.138   0.403
 1737WAT     H1 5422   3.340   4.132   0.456
 1737WAT     H2 5423   3.439   4.232   0.402
 1738WAT      O 5424   1.743   3.868   1.401
 1738WAT     H1 5425   1.708   3.914   1.477
 1738WAT     H2 5426   1.710   3.779   1.409
 1739WAT      O 5427   1.904   5.186   1.817
 1739WAT     H1 5428   1.900   5.149   1.905
 1739WAT     H2 5429   1.917   5.279   1.831
 1740WAT      O 5430   2.274   5.341   1.377
 1740WAT     H1 5431   2.250   5.368   1.289
 1740WAT     H2 5432   2.368   5.358   1.383
 1741WAT      O 5433   2.494   3.988   1.753
 1741WAT     H1 5434   2.488   4.047   1.828
 1741WAT     H2 5435   2.588   3.977   1.738
 1742WAT      O 5436   1.810   3.821   1.728
 1742WAT     H1 5437   1.865   3.803   1.652
 1742WAT     H2 5438   1.817   3.742   1.782
 1743WAT      O 5439   1.888   5.480   1.529
 1743WAT     H1 5440   1.828   5.467   1.603
 1743WAT     H2 5441   1.887   5.397   1.483
 1744WAT      O 5442   2.832   3.810   1.349
 1744WAT     H1 5443   2.745   3.843   1.329
 1744WAT     H2 5444   2.821   3.762   1.432
 1745WAT      O 5445   1.851   5.217   1.424
 1745WAT     H1 5446   1.778   5.155   1.417
 1745WAT     H2 5447   1.857   5.256   1.337
 1746WAT      O 5448   2.211   5.438   1.103
 1746WAT     H1 5449   2.263   5.377   1.050
 1746WAT     H2 5450   2.276   5.489   1.152
 1747WAT      O 5451   2.607   3.901   1.243
 1747WAT     H1 5452   2.529   3.949   1.271
 1747WAT     H2 5453   2.578   3.811   1.232
 1748WAT      O 5454   3.062   3.971   1.048
 1748WAT     H1 5455   3.106   3.966   0.963
 1748WAT     H2 5456   3.035   4.063   1.055
 1749WAT      O 5457   3.249   3.935   0.849
 1749WAT     H1 5458   3.243   3.840   0.834
 1749WAT     H2 5459   3.327   3.945   0.903
 1750WAT      O 5460   1.741   3.932   0.495
 1750WAT     H1 5461   1.817   3.943   0.438
 1750WAT     H2 5462   1.695   4.015   0.491
 1751WAT      O 5463   2.396   4.143   0.794
 1751WAT     H1 5464   2.314   4.106   0.760
 1751WAT     H2 5465   2.446   4.068   0.825
 1752WAT      O 5466   2.846   3.810   0.918
 1752WAT     H1 5467   2.906   3.867   0.966
 1752WAT     H2 5468   2.772   3.866   0.896
 1753WAT      O 5469   3.160   3.850   0.446
 1753WAT     H1 5470   3.180   3.940   0.472
 1753WAT     H2 5471   3.081   3.827   0.495
 1754WAT      O 5472   1.840   5.418   0.490
 1754WAT     H1 5473   1.787   5.456   0.419
 1754WAT     H2 5474   1.832   5.480   0.562
 1755WAT      O 5475   1.979   3.984   0.349
 1755WAT     H1 5476   2.032   3.906   0.337
 1755WAT     H2 5477   2.042   4.052   0.373
 1756WAT      O 5478   2.198   3.958   0.655
 1756WAT     H1 5479   2.135   3.888   0.672
 1756WAT     H2 5480   2.144   4.034   0.633
 1757WAT      O 5481   2.211   3.886   1.898
 1757WAT     H1 5482   2.182   3.936   1.822
 1757WAT     H2 5483   2.249   3.806   1.862
 1758WAT      O 5484   2.016   5.224   0.378
 1758WAT     H1 5485   1.953   5.271   0.432
 1758WAT     H2 5486   2.027   5.140   0.421
 1759WAT      O 5487   2.761   2.752   4.625
 1759WAT     H1 5488   2.753   2.661   4.598
 1759WAT     H2 5489   2.720   2.802   4.554
 1760WAT      O 5490   2.575   2.930   4.813
 1760WAT     H1 5491   2.497   2.882   4.842
 1760WAT     H2 5492   2.640   2.862   4.796
 1761WAT      O 5493   1.976   2.961   4.901
 1761WAT     H1 5494   1.893   2.935   4.941
 1761WAT     H2 5495   2.037   2.968   4.974
 1762WAT      O 5496   2.977   3.370   4.691
 1762WAT     H1 5497   2.930   3.293   4.724
 1762WAT     H2 5498   3.058   3.373   4.742
 1763WAT      O 5499   1.974   3.364   4.920
 1763WAT     H1 5500   2.004   3.275   4.902
 1763WAT     H2 5501   2.049   3.420   4.898
 1764WAT      O 5502   1.817   2.457   4.279
 1764WAT     H1 5503   1.728   2.491   4.269
 1764WAT     H2 5504   1.846   2.437   4.190
 1765WAT      O 5505   1.613   2.717   4.868
 1765WAT     H1 5506   1.671   2.640   4.868
 1765WAT     H2 5507   1.613   2.747   4.777
 1766WAT      O 5508   2.599   3.599   4.653
 1766WAT     H1 5509   2.537   3.645   4.596
 1766WAT     H2 5510   2.685   3.614   4.613
 1767WAT      O 5511   2.519   3.197   4.814
 1767WAT     H1 5512   2.512   3.103   4.798
 1767WAT     H2 5513   2.595   3.206   4.871
 1768WAT      O 5514   1.738   2.258   5.046
 1768WAT     H1 5515   1.720   2.168   5.074
 1768WAT     H2 5516   1.697   2.313   5.114
 1769WAT      O 5517   2.622   2.478   4.836
 1769WAT     H1 5518   2.659   2.391   4.825
 1769WAT     H2 5519   2.612   2.512   4.747
 1770WAT      O 5520   3.000   2.228   4.530
 1770WAT     H1 5521   3.082   2.178   4.534
 1770WAT     H2 5522   3.003   2.287   4.605
 1771WAT      O 5523   1.800   2.507   4.907
 1771WAT     H1 5524   1.868   2.534   4.969
 1771WAT     H2 5525   1.768   2.423   4.940
 1772WAT      O 5526   2.219   2.612   4.816
 1772WAT     H1 5527   2.270   2.662   4.880
 1772WAT     H2 5528   2.272   2.534   4.798
 1773WAT      O 5529   3.429   2.429   5.186
 1773WAT     H1 5530   3.358   2.468   5.134
 1773WAT     H2 5531   3.455   2.499   5.246
 1774WAT      O 5532   2.047   2.076   5.242
 1774WAT     H1 5533   2.047   2.128   5.162
 1774WAT     H2 5534   1.964   2.028   5.240
 1775WAT      O 5535   2.686   3.087   4.392
 1775WAT     H1 5536   2.624   3.134   4.336
 1775WAT     H2 5537   2.737   3.157   4.434
 1776WAT      O 5538   2.172   3.040   5.060
 1776WAT     H1 5539   2.139   3.103   5.124
 1776WAT     H2 5540   2.190   3.093   4.982
 1777WAT      O 5541   3.024   2.422   4.807
 1777WAT     H1 5542   2.953   2.450   4.865
 1777WAT     H2 5543   3.060   2.503   4.771
 1778WAT      O 5544   2.015   2.247   5.043
 1778WAT     H1 5545   2.049   2.332   5.014
 1778WAT     H2 5546   1.921   2.262   5.055
 1779WAT      O 5547   2.093   3.237   5.242
 1779WAT     H1 5548   2.155   3.304   5.214
 1779WAT     H2 5549   2.007   3.278   5.233
 1780WAT      O 5550   1.623   3.156   4.130
 1780WAT     H1 5551   1.585   3.205   4.057
 1780WAT     H2 5552   1.648   3.223   4.193
 1781WAT      O 5553   3.185   3.383   5.033
 1781WAT     H1 5554   3.117   3.450   5.032
 1781WAT     H2 5555   3.239   3.403   4.957
 1782WAT      O 5556   3.330   2.366   4.846
 1782WAT     H1 5557   3.236   2.369   4.859
 1782WAT     H2 5558   3.363   2.447   4.885
 1783WAT      O 5559   2.384   1.996   4.676
 1783WAT     H1 5560   2.414   1.941   4.604
 1783WAT     H2 5561   2.291   2.009   4.657
 1784WAT      O 5562   2.939   3.568   4.905
 1784WAT     H1 5563   2.940   3.527   4.818
 1784WAT     H2 5564   2.884   3.645   4.894
 1785WAT      O 5565   3.068   3.240   4.414
 1785WAT     H1 5566   3.057   3.146   4.426
 1785WAT     H2 5567   3.068   3.276   4.502
 1786WAT      O 5568   2.879   3.058   5.038
 1786WAT     H1 5569   2.920   3.037   4.954
 1786WAT     H2 5570   2.951   3.084   5.095
 1787WAT      O 5571   3.273   2.898   5.047
 1787WAT     H1 5572   3.190   2.905   4.999
 1787WAT     H2 5573   3.333   2.956   5.000
 1788WAT      O 5574   3.025   2.959   4.400
 1788WAT     H1 5575   2.964   2.925   4.335
 1788WAT     H2 5576   3.024   2.894   4.470
 1789WAT      O 5577   2.970   2.577   5.141
 1789WAT     H1 5578   2.928   2.659   5.167
 1789WAT     H2 5579   2.896   2.518   5.122
 1790WAT      O 5580   2.230   3.224   4.844
 1790WAT     H1 5581   2.200   3.163   4.776
 1790WAT     H2 5582   2.325   3.228   4.833
 1791WAT      O 5583   2.054   2.533   5.005
 1791WAT     H1 5584   2.109   2.544   4.928
 1791WAT     H2 5585   2.106   2.570   5.077
 1792WAT      O 5586   3.039   3.581   5.210
 1792WAT     H1 5587   2.991   3.662   5.191
 1792WAT     H2 5588   2.970   3.516   5.225
 1793WAT      O 5589   2.139   3.198   5.509
 1793WAT     H1 5590   2.049   3.220   5.534
 1793WAT     H2 5591   2.142   3.210   5.414
 1794WAT      O 5592   2.843   2.883   4.100
 1794WAT     H1 5593   2.887   2.799   4.086
 1794WAT     H2 5594   2.914   2.946   4.109
 1795WAT      O 5595   2.022   2.885   5.366
 1795WAT     H1 5596   2.008   2.972   5.403
 1795WAT     H2 5597   1.934   2.851   5.352
 1796WAT      O 5598   2.654   3.377   4.497
 1796WAT     H1 5599   2.698   3.451   4.456
 1796WAT     H2 5600   2.648   3.401   4.589
 1797WAT      O 5601   2.201   3.479   5.587
 1797WAT     H1 5602   2.199   3.519   5.501
 1797WAT     H2 5603   2.185   3.386   5.571
 1798WAT      O 5604   1.853   2.745   4.377
 1798WAT     H1 5605   1.841   2.817   4.316
 1798WAT     H2 5606   1.822   2.668   4.330
 1799WAT      O 5607   1.617   3.062   4.958
 1799WAT     H1 5608   1.625   3.075   4.864
 1799WAT     H2 5609   1.678   2.991   4.977
 1800WAT      O 5610   1.741   3.232   4.599
 1800WAT     H1 5611   1.701   3.246   4.514
 1800WAT     H2 5612   1.830   3.203   4.579
 1801WAT      O 5613   3.337   3.276   5.433
 1801WAT     H1 5614   3.350   3.253   5.341
 1801WAT     H2 5615   3.341   3.193   5.480
 1802WAT      O 5616   2.723   3.647   5.290
 1802WAT     H1 5617   2.775   3.638   5.370
 1802WAT     H2 5618   2.639   3.681   5.319
 1803WAT      O 5619   2.921   3.675   4.233
 1803WAT     H1 5620   2.905   3.646   4.323
 1803WAT     H2 5621   2.904   3.598   4.179
 1804WAT      O 5622   2.169   3.653   4.410
 1804WAT     H1 5623   2.151   3.562   4.389
 1804WAT     H2 5624   2.083   3.689   4.434
 1805WAT      O 5625   2.891   3.426   4.089
 1805WAT     H1 5626   2.822   3.426   4.023
 1805WAT     H2 5627   2.965   3.384   4.046
 1806WAT      O 5628   2.847   3.589   4.496
 1806WAT     H1 5629   2.893   3.511   4.528
 1806WAT     H2 5630   2.881   3.660   4.551
 1807WAT      O 5631   3.322   2.482   5.529
 1807WAT     H1 5632   3.261   2.533   5.477
 1807WAT     H2 5633   3.290   2.392   5.524
 1808WAT      O 5634   1.622   3.166   5.212
 1808WAT     H1 5635   1.639   3.119   5.130
 1808WAT     H2 5636   1.669   3.115   5.279
 1809WAT      O 5637   2.100   2.079   4.716
 1809WAT     H1 5638   2.055   2.157   4.683
 1809WAT     H2 5639   2.156   2.111   4.786
 1810WAT      O 5640   2.528   2.366   5.276
 1810WAT     H1 5641   2.482   2.387   5.357
 1810WAT     H2 5642   2.488   2.284   5.246
 1811WAT      O 5643   3.028   2.488   5.389
 1811WAT     H1 5644   2.943   2.458   5.421
 1811WAT     H2 5645   3.012   2.512   5.298
 1812WAT      O 5646   2.738   2.638   5.599
 1812WAT     H1 5647   2.770   2.554   5.565
 1812WAT     H2 5648   2.817   2.690   5.614
 1813WAT      O 5649   2.303   2.133   4.902
 1813WAT     H1 5650   2.333   2.224   4.894
 1813WAT     H2 5651   2.358   2.085   4.840
 1814WAT      O 5652   2.802   2.592   4.348
 1814WAT     H1 5653   2.742   2.664   4.330
 1814WAT     H2 5654   2.857   2.586   4.270
 1815WAT      O 5655   2.323   2.681   5.555
 1815WAT     H1 5656   2.313   2.587   5.540
 1815WAT     H2 5657   2.407   2.703   5.516
 1816WAT      O 5658   2.662   2.456   4.551
 1816WAT     H1 5659   2.702   2.487   4.470
 1816WAT     H2 5660   2.699   2.368   4.563
 1817WAT      O 5661   1.836   2.322   5.370
 1817WAT     H1 5662   1.797   2.407   5.391
 1817WAT     H2 5663   1.767   2.259   5.390
 1818WAT      O 5664   1.566   2.115   4.774
 1818WAT     H1 5665   1.537   2.172   4.845
 1818WAT     H2 5666   1.641   2.067   4.810
 1819WAT      O 5667   1.585   2.509   3.895
 1819WAT     H1 5668   1.577   2.603   3.909
 1819WAT     H2 5669   1.550   2.495   3.807
 1820WAT      O 5670   2.721   2.715   4.961
 1820WAT     H1 5671   2.648   2.766   4.996
 1820WAT     H2 5672   2.681   2.633   4.931
 1821WAT      O 5673   2.365   2.382   4.801
 1821WAT     H1 5674   2.365   2.338   4.717
 1821WAT     H2 5675   2.454   2.414   4.812
 1822WAT      O 5676   1.950   2.370   4.697
 1822WAT     H1 5677   1.916   2.418   4.773
 1822WAT     H2 5678   1.874   2.325   4.661
 1823WAT      O 5679   2.767   2.260   4.902
 1823WAT     H1 5680   2.769   2.305   4.987
 1823WAT     H2 5681   2.742   2.170   4.924
 1824WAT      O 5682   3.110   2.001   5.486
 1824WAT     H1 5683   3.142   1.928   5.539
 1824WAT     H2 5684   3.114   1.969   5.396
 1825WAT      O 5685   1.780   3.103   5.428
 1825WAT     H1 5686   1.741   3.039   5.488
 1825WAT     H2 5687   1.811   3.174   5.485
 1826WAT      O 5688   2.395   2.788   4.976
 1826WAT     H1 5689   2.432   2.741   5.051
 1826WAT     H2 5690   2.376   2.876   5.010
 1827WAT      O 5691   1.681   2.263   4.589
 1827WAT     H1 5692   1.653   2.226   4.673
 1827WAT     H2 5693   1.675   2.189   4.528
 1828WAT      O 5694   2.174   2.692   5.208
 1828WAT     H1 5695   2.143   2.780   5.230
 1828WAT     H2 5696   2.269   2.698   5.212
 1829WAT      O 5697   2.027   3.113   4.268
 1829WAT     H1 5698   1.949   3.059   4.252
 1829WAT     H2 5699   2.100   3.061   4.234
 1830WAT      O 5700   3.103   3.013   4.847
 1830WAT     H1 5701   3.175   3.062   4.808
 1830WAT     H2 5702   3.082   2.945   4.782
 1831WAT      O 5703   2.649   2.152   4.261
 1831WAT     H1 5704   2.567   2.102   4.254
 1831WAT     H2 5705   2.629   2.236   4.220
 1832WAT      O 5706   2.641   3.020   5.436
 1832WAT     H1 5707   2.634   2.928   5.410
 1832WAT     H2 5708   2.578   3.029   5.507
 1833WAT      O 5709   2.031   3.080   4.631
 1833WAT     H1 5710   2.083   2.999   4.626
 1833WAT     H2 5711   1.986   3.074   4.716
 1834WAT      O 5712   2.520   3.206   4.159
 1834WAT     H1 5713   2.554   3.281   4.109
 1834WAT     H2 5714   2.437   3.238   4.195
 1835WAT      O 5715   1.779   2.776   5.323
 1835WAT     H1 5716   1.744   2.843   5.381
 1835WAT     H2 5717   1.750   2.693   5.360
 1836WAT      O 5718   2.100   2.822   5.611
 1836WAT     H1 5719   2.070   2.837   5.521
 1836WAT     H2 5720   2.177   2.766   5.602
 1837WAT      O 5721   2.634   3.302   5.411
 1837WAT     H1 5722   2.635   3.209   5.389
 1837WAT     H2 5723   2.563   3.310   5.475
 1838WAT      O 5724   3.255   2.966   5.345
 1838WAT     H1 5725   3.182   3.025   5.326
 1838WAT     H2 5726   3.308   2.965   5.265
 1839WAT      O 5727   3.250   3.406   4.310
 1839WAT     H1 5728   3.186   3.340   4.338
 1839WAT     H2 5729   3.211   3.446   4.233
 1840WAT      O 5730   2.808   3.139   4.695
 1840WAT     H1 5731   2.843   3.079   4.629
 1840WAT     H2 5732   2.720   3.106   4.712
 1841WAT      O 5733   2.417   3.215   4.436
 1841WAT     H1 5734   2.485   3.269   4.474
 1841WAT     H2 5735   2.338   3.269   4.439
 1842WAT      O 5736   1.631   2.776   3.985
 1842WAT     H1 5737   1.717   2.804   4.013
 1842WAT     H2 5738   1.581   2.858   3.974
 1843WAT      O 5739   2.577   3.466   5.120
 1843WAT     H1 5740   2.642   3.487   5.188
 1843WAT     H2 5741   2.614   3.390   5.075
 1844WAT      O 5742   1.937   1.949   4.444
 1844WAT     H1 5743   1.924   1.949   4.539
 1844WAT     H2 5744   1.855   1.983   4.409
 1845WAT      O 5745   2.705   3.266   4.992
 1845WAT     H1 5746   2.769   3.196   5.003
 1845WAT     H2 5747   2.757   3.344   4.974
 1846WAT      O 5748   3.089   3.295   3.964
 1846WAT     H1 5749   3.066   3.223   4.023
 1846WAT     H2 5750   3.050   3.270   3.880
 1847WAT      O 5751   2.882   3.346   5.312
 1847WAT     H1 5752   2.915   3.405   5.380
 1847WAT     H2 5753   2.790   3.333   5.335
 1848WAT      O 5754   1.667   3.698   4.042
 1848WAT     H1 5755   1.703   3.757   3.976
 1848WAT     H2 5756   1.653   3.752   4.119
 1849WAT      O 5757   1.637   2.125   5.390
 1849WAT     H1 5758   1.566   2.145   5.451
 1849WAT     H2 5759   1.679   2.048   5.428
 1850WAT      O 5760   3.047   3.087   4.130
 1850WAT     H1 5761   3.018   3.133   4.209
 1850WAT     H2 5762   3.127   3.041   4.157
 1851WAT      O 5763   1.666   3.524   5.489
 1851WAT     H1 5764   1.677   3.430   5.475
 1851WAT     H2 5765   1.600   3.551   5.424
 1852WAT      O 5766   2.269   3.436   4.123
 1852WAT     H1 5767   2.268   3.509   4.062
 1852WAT     H2 5768   2.177   3.411   4.133
 1853WAT      O 5769   1.829   2.958   4.198
 1853WAT     H1 5770   1.768   3.032   4.199
 1853WAT     H2 5771   1.877   2.967   4.115
 1854WAT      O 5772   2.786   2.374   5.165
 1854WAT     H1 5773   2.823   2.292   5.198
 1854WAT     H2 5774   2.700   2.380   5.207
 1855WAT      O 5775   2.568   3.442   3.990
 1855WAT     H1 5776   2.578   3.422   3.897
 1855WAT     H2 5777   2.478   3.417   4.010
 1856WAT      O 5778   2.482   2.640   5.188
 1856WAT     H1 5779   2.532   2.687   5.254
 1856WAT     H2 5780   2.497   2.548   5.209
 1857WAT      O 5781   2.723   2.170   4.532
 1857WAT     H1 5782   2.711   2.172   4.437
 1857WAT     H2 5783   2.818   2.175   4.544
 1858WAT      O 5784   2.432   3.694   4.459
 1858WAT     H1 5785   2.457   3.690   4.367
 1858WAT     H2 5786   2.337   3.681   4.458
 1859WAT      O 5787   3.203   2.262   5.272
 1859WAT     H1 5788   3.153   2.336   5.306
 1859WAT     H2 5789   3.285   2.300   5.240
 1860WAT      O 5790   3.032   2.786   4.617
 1860WAT     H1 5791   2.938   2.787   4.634
 1860WAT     H2 5792   3.064   2.707   4.661
 1861WAT      O 5793   2.030   2.954   3.973
 1861WAT     H1 5794   2.107   2.943   4.029
 1861WAT     H2 5795   2.038   2.884   3.908
 1862WAT      O 5796   1.900   2.697   4.041
 1862WAT     H1 5797   1.908   2.603   4.052
 1862WAT     H2 5798   1.989   2.730   4.052
 1863WAT      O 5799   3.233   3.503   4.784
 1863WAT     H1 5800   3.245   3.585   4.831
 1863WAT     H2 5801   3.319   3.482   4.750
 1864WAT      O 5802   1.980   3.712   4.751
 1864WAT     H1 5803   2.053   3.657   4.779
 1864WAT     H2 5804   2.018   3.799   4.737
 1865WAT      O 5805   1.668   3.319   4.339
 1865WAT     H1 5806   1.576   3.343   4.338
 1865WAT     H2 5807   1.715   3.402   4.327
 1866WAT      O 5808   2.291   3.630   3.934
 1866WAT     H1 5809   2.370   3.658   3.889
 1866WAT     H2 5810   2.239   3.587   3.866
 1867WAT      O 5811   2.907   3.614   5.526
 1867WAT     H1 5812   3.002   3.606   5.521
 1867WAT     H2 5813   2.892   3.681   5.593
 1868WAT      O 5814   3.196   3.552   4.076
 1868WAT     H1 5815   3.167   3.511   3.995
 1868WAT     H2 5816   3.176   3.645   4.064
 1869WAT      O 5817   1.652   2.879   5.565
 1869WAT     H1 5818   1.703   2.822   5.622
 1869WAT     H2 5819   1.578   2.908   5.618
 1870WAT      O 5820   2.342   3.152   3.920
 1870WAT     H1 5821   2.332   3.090   3.993
 1870WAT     H2 5822   2.326   3.099   3.842
 1871WAT      O 5823   2.358   3.020   5.518
 1871WAT     H1 5824   2.281   3.077   5.510
 1871WAT     H2 5825   2.376   2.991   5.429
 1872WAT      O 5826   2.667   3.058   3.981
 1872WAT     H1 5827   2.612   3.103   4.045
 1872WAT     H2 5828   2.729   3.007   4.033
 1873WAT      O 5829   3.072   3.193   5.574
 1873WAT     H1 5830   3.146   3.227   5.523
 1873WAT     H2 5831   2.996   3.210   5.518
 1874WAT      O 5832   2.050   2.552   5.451
 1874WAT     H1 5833   1.996   2.503   5.388
 1874WAT     H2 5834   2.116   2.595   5.397
 1875WAT      O 5835   2.939   2.998   5.427
 1875WAT     H1 5836   2.981   3.014   5.512
 1875WAT     H2 5837   2.846   3.011   5.444
 1876WAT      O 5838   2.987   2.732   5.628
 1876WAT     H1 5839   3.045   2.657   5.619
 1876WAT     H2 5840   3.004   2.785   5.550
 1877WAT      O 5841   2.098   2.248   5.459
 1877WAT     H1 5842   2.089   2.187   5.386
 1877WAT     H2 5843   2.040   2.321   5.436
 1878WAT      O 5844   2.375   2.104   5.162
 1878WAT     H1 5845   2.330   2.106   5.078
 1878WAT     H2 5846   2.312   2.064   5.222
 1879WAT      O 5847   2.415   2.994   5.224
 1879WAT     H1 5848   2.457   3.078   5.207
 1879WAT     H2 5849   2.324   3.007   5.201
 1880WAT      O 5850   2.649   2.767   5.363
 1880WAT     H1 5851   2.661   2.707   5.437
 1880WAT     H2 5852   2.735   2.770   5.321
 1881WAT      O 5853   2.883   2.822   5.220
 1881WAT     H1 5854   2.830   2.875   5.160
 1881WAT     H2 5855   2.917   2.885   5.283
 1882WAT      O 5856   2.201   3.624   5.336
 1882WAT     H1 5857   2.147   3.697   5.304
 1882WAT     H2 5858   2.226   3.576   5.257
 1883WAT      O 5859   2.326   2.421   5.488
 1883WAT     H1 5860   2.385   2.390   5.557
 1883WAT     H2 5861   2.244   2.374   5.504
 1884WAT      O 5862   2.808   2.383   5.512
 1884WAT     H1 5863   2.739   2.316   5.505
 1884WAT     H2 5864   2.880   2.338   5.556
 1885WAT      O 5865   2.486   3.748   5.362
 1885WAT     H1 5866   2.479   3.838   5.392
 1885WAT     H2 5867   2.396   3.716   5.359
 1886WAT      O 5868   2.541   3.664   4.124
 1886WAT     H1 5869   2.631   3.698   4.126
 1886WAT     H2 5870   2.544   3.592   4.061
 1887WAT      O 5871   1.905   3.201   3.947
 1887WAT     H1 5872   1.949   3.256   4.012
 1887WAT     H2 5873   1.953   3.119   3.948
 1888WAT      O 5874   1.626   3.480   4.692
 1888WAT     H1 5875   1.659   3.394   4.669
 1888WAT     H2 5876   1.669   3.501   4.775
 1889WAT      O 5877   2.086   3.313   4.458
 1889WAT     H1 5878   2.056   3.301   4.548
 1889WAT     H2 5879   2.075   3.228   4.417
 1890WAT      O 5880   1.675   3.567   4.966
 1890WAT     H1 5881   1.632   3.585   5.049
 1890WAT     H2 5882   1.732   3.643   4.952
 1891WAT      O 5883   3.239   3.517   5.395
 1891WAT     H1 5884   3.179   3.523   5.320
 1891WAT     H2 5885   3.252   3.423   5.408
 1892WAT      O 5886   3.363   3.291   3.928
 1892WAT     H1 5887   3.280   3.298   3.975
 1892WAT     H2 5888   3.381   3.380   3.898
 1893WAT      O 5889   3.309   2.966   4.179
 1893WAT     H1 5890   3.385   3.023   4.189
 1893WAT     H2 5891   3.310   2.909   4.256
 1894WAT      O 5892   1.659   2.818   4.602
 1894WAT     H1 5893   1.593   2.791   4.537
 1894WAT     H2 5894   1.742   2.807   4.557
 1895WAT      O 5895   3.409   3.051   4.663
 1895WAT     H1 5896   3.446   2.973   4.622
 1895WAT     H2 5897   3.473   3.120   4.645
 1896WAT      O 5898   3.107   3.190   5.204
 1896WAT     H1 5899   3.026   3.233   5.231
 1896WAT     H2 5900   3.148   3.251   5.143
 1897WAT      O 5901   3.314   2.995   3.894
 1897WAT     H1 5902   3.341   3.086   3.882
 1897WAT     H2 5903   3.295   2.989   3.988
 1898WAT      O 5904   3.303   2.789   4.394
 1898WAT     H1 5905   3.266   2.712   4.351
 1898WAT     H2 5906   3.230   2.827   4.442
 1899WAT      O 5907   1.762   2.857   5.056
 1899WAT     H1 5908   1.799   2.848   5.144
 1899WAT     H2 5909   1.705   2.780   5.046
 1900WAT      O 5910   3.242   2.704   5.357
 1900WAT     H1 5911   3.219   2.681   5.267
 1900WAT     H2 5912   3.268   2.796   5.353
 1901WAT      O 5913   1.717   2.548   5.446
 1901WAT     H1 5914   1.628   2.545   5.480
 1901WAT     H2 5915   1.771   2.568   5.523
 1902WAT      O 5916   1.580   2.539   4.196
 1902WAT     H1 5917   1.490   2.566   4.179
 1902WAT     H2 5918   1.628   2.566   4.118
 1903WAT      O 5919   3.231   2.612   4.724
 1903WAT     H1 5920   3.283   2.562   4.661
 1903WAT     H2 5921   3.289   2.625   4.798
 1904WAT      O 5922   3.249   2.620   5.076
 1904WAT     H1 5923   3.154   2.617   5.087
 1904WAT     H2 5924   3.267   2.711   5.052
 1905WAT      O 5925   1.834   2.445   3.987
 1905WAT     H1 5926   1.905   2.403   3.938
 1905WAT     H2 5927   1.763   2.452   3.924
 1906WAT      O 5928   3.180   2.537   4.318
 1906WAT     H1 5929   3.229   2.514   4.396
 1906WAT     H2 5930   3.160   2.453   4.276
 1907WAT      O 5931   1.768   1.975   4.881
 1907WAT     H1 5932   1.833   1.920   4.837
 1907WAT     H2 5933   1.810   2.001   4.963
 1908WAT      O 5934   3.323   2.401   4.571
 1908WAT     H1 5935   3.312   2.385   4.665
 1908WAT     H2 5936   3.399   2.348   4.547
 1909WAT      O 5937   3.157   1.995   5.217
 1909WAT     H1 5938   3.221   2.056   5.253
 1909WAT     H2 5939   3.172   1.998   5.122
 1910WAT      O 5940   3.113   3.665   4.557
 1910WAT     H1 5941   3.173   3.633   4.489
 1910WAT     H2 5942   3.139   3.618   4.636
 1911WAT      O 5943   1.743   1.991   5.155
 1911WAT     H1 5944   1.708   2.037   5.232
 1911WAT     H2 5945   1.710   1.902   5.164
 1912WAT      O 5946   2.274   3.464   5.132
 1912WAT     H1 5947   2.250   3.490   5.043
 1912WAT     H2 5948   2.368   3.481   5.138
 1913WAT      O 5949   2.494   2.110   5.508
 1913WAT     H1 5950   2.488   2.169   5.583
 1913WAT     H2 5951   2.588   2.099   5.493
 1914WAT      O 5952   2.758   2.076   5.472
 1914WAT     H1 5953   2.820   2.108   5.405
 1914WAT     H2 5954   2.813   2.027   5.534
 1915WAT      O 5955   3.400   3.666   5.212
 1915WAT     H1 5956   3.351   3.705   5.140
 1915WAT     H2 5957   3.339   3.603   5.252
 1916WAT      O 5958   1.810   1.944   5.483
 1916WAT     H1 5959   1.865   1.926   5.407
 1916WAT     H2 5960   1.817   1.865   5.537
 1917WAT      O 5961   1.888   3.603   5.284
 1917WAT     H1 5962   1.828   3.590   5.358
 1917WAT     H2 5963   1.887   3.519   5.237
 1918WAT      O 5964   2.832   1.932   5.104
 1918WAT     H1 5965   2.745   1.965   5.084
 1918WAT     H2 5966   2.821   1.885   5.187
 1919WAT      O 5967   2.923   2.153   5.243
 1919WAT     H1 5968   2.890   2.071   5.205
 1919WAT     H2 5969   3.018   2.148   5.230
 1920WAT      O 5970   3.168   3.730   4.940
 1920WAT     H1 5971   3.122   3.805   4.903
 1920WAT     H2 5972   3.105   3.658   4.934
 1921WAT      O 5973   1.851   3.339   5.179
 1921WAT     H1 5974   1.778   3.277   5.172
 1921WAT     H2 5975   1.857   3.379   5.092
 1922WAT      O 5976   2.211   3.561   4.858
 1922WAT     H1 5977   2.263   3.500   4.805
 1922WAT     H2 5978   2.276   3.611   4.907
 1923WAT      O 5979   2.485   3.650   4.940
 1923WAT     H1 5980   2.514   3.624   4.853
 1923WAT     H2 5981   2.536   3.595   4.999
 1924WAT      O 5982   2.607   2.024   4.998
 1924WAT     H1 5983   2.529   2.071   5.026
 1924WAT     H2 5984   2.578   1.933   4.987
 1925WAT      O 5985   3.062   2.094   4.803
 1925WAT     H1 5986   3.106   2.088   4.718
 1925WAT     H2 5987   3.035   2.186   4.810
 1926WAT      O 5988   3.249   2.057   4.604
 1926WAT     H1 5989   3.243   1.963   4.589
 1926WAT     H2 5990   3.327   2.068   4.658
 1927WAT      O 5991   1.679   3.671   4.500
 1927WAT     H1 5992   1.662   3.608   4.570
 1927WAT     H2 5993   1.593   3.692   4.465
 1928WAT      O 5994   2.396   2.266   4.549
 1928WAT     H1 5995   2.314   2.228   4.515
 1928WAT     H2 5996   2.446   2.190   4.580
 1929WAT      O 5997   2.846   1.932   4.673
 1929WAT     H1 5998   2.906   1.989   4.721
 1929WAT     H2 5999   2.772   1.988   4.651
 1930WAT      O 6000   1.840   3.540   4.245
 1930WAT     H1 6001   1.787   3.579   4.174
 1930WAT     H2 6002   1.832   3.603   4.317
 1931WAT      O 6003   2.198   2.081   4.410
 1931WAT     H1 6004   2.135   2.011   4.427
 1931WAT     H2 6005   2.144   2.157   4.388
 1932WAT      O 6006   3.315   3.696   4.377
 1932WAT     H1 6007   3.333   3.628   4.312
 1932WAT     H2 6008   3.246   3.749   4.337
 1933WAT      O 6009   2.211   2.008   5.653
 1933WAT     H1 6010   2.182   2.059   5.577
 1933WAT     H2 6011   2.249   1.929   5.617
 1934WAT      O 6012   2.100   3.735   4.132
 1934WAT     H1 6013   2.173   3.707   4.077
 1934WAT     H2 6014   2.126   3.711   4.221
 1935WAT      O 6015   2.016   3.347   4.132
 1935WAT     H1 6016   1.953   3.394   4.187
 1935WAT     H2 6017   2.027   3.262   4.176
 1936WAT      O 6018   1.976   2.961   3.023
 1936WAT     H1 6019   1.893   2.935   3.063
 1936WAT     H2 6020   2.037   2.968   3.097
 1937WAT      O 6021   1.974   3.364   3.043
 1937WAT     H1 6022   2.004   3.275   3.025
 1937WAT     H2 6023   2.049   3.420   3.020
 1938WAT      O 6024   1.817   2.457   2.402
 1938WAT     H1 6025   1.728   2.491   2.392
 1938WAT     H2 6026   1.846   2.437   2.313
 1939WAT      O 6027   1.613   2.717   2.990
 1939WAT     H1 6028   1.671   2.640   2.990
 1939WAT     H2 6029   1.613   2.747   2.899
 1940WAT      O 6030   2.599   3.599   2.776
 1940WAT     H1 6031   2.537   3.645   2.719
 1940WAT     H2 6032   2.685   3.614   2.735
 1941WAT      O 6033   1.738   2.258   3.169
 1941WAT     H1 6034   1.720   2.168   3.197
 1941WAT     H2 6035   1.697   2.313   3.236
 1942WAT      O 6036   2.622   2.478   2.959
 1942WAT     H1 6037   2.659   2.391   2.948
 1942WAT     H2 6038   2.612   2.512   2.870
 1943WAT      O 6039   2.035   2.315   2.505
 1943WAT     H1 6040   2.045   2.405   2.536
 1943WAT     H2 6041   1.944   2.310   2.476
 1944WAT      O 6042   3.000   2.228   2.652
 1944WAT     H1 6043   3.082   2.178   2.657
 1944WAT     H2 6044   3.003   2.287   2.728
 1945WAT      O 6045   1.800   2.507   3.030
 1945WAT     H1 6046   1.868   2.534   3.092
 1945WAT     H2 6047   1.768   2.423   3.063
 1946WAT      O 6048   2.219   2.612   2.938
 1946WAT     H1 6049   2.270   2.662   3.002
 1946WAT     H2 6050   2.272   2.534   2.921
 1947WAT      O 6051   3.429   2.429   3.309
 1947WAT     H1 6052   3.358   2.468   3.257
 1947WAT     H2 6053   3.455   2.499   3.369
 1948WAT      O 6054   2.047   2.076   3.365
 1948WAT     H1 6055   2.047   2.128   3.284
 1948WAT     H2 6056   1.964   2.028   3.363
 1949WAT      O 6057   2.172   3.040   3.183
 1949WAT     H1 6058   2.139   3.103   3.247
 1949WAT     H2 6059   2.190   3.093   3.105
 1950WAT      O 6060   3.024   2.422   2.930
 1950WAT     H1 6061   2.953   2.450   2.988
 1950WAT     H2 6062   3.060   2.503   2.894
 1951WAT      O 6063   2.015   2.247   3.166
 1951WAT     H1 6064   2.049   2.332   3.136
 1951WAT     H2 6065   1.921   2.262   3.177
 1952WAT      O 6066   2.093   3.237   3.364
 1952WAT     H1 6067   2.155   3.304   3.336
 1952WAT     H2 6068   2.007   3.278   3.355
 1953WAT      O 6069   1.623   3.156   2.252
 1953WAT     H1 6070   1.585   3.205   2.179
 1953WAT     H2 6071   1.648   3.223   2.315
 1954WAT      O 6072   3.330   2.366   2.969
 1954WAT     H1 6073   3.236   2.369   2.982
 1954WAT     H2 6074   3.363   2.447   3.007
 1955WAT      O 6075   2.384   1.996   2.798
 1955WAT     H1 6076   2.414   1.941   2.727
 1955WAT     H2 6077   2.291   2.009   2.780
 1956WAT      O 6078   2.622   2.803   2.472
 1956WAT     H1 6079   2.530   2.796   2.495
 1956WAT     H2 6080   2.638   2.896   2.460
 1957WAT      O 6081   2.621   2.430   2.171
 1957WAT     H1 6082   2.527   2.446   2.180
 1957WAT     H2 6083   2.653   2.502   2.117
 1958WAT      O 6084   2.183   2.855   2.750
 1958WAT     H1 6085   2.143   2.784   2.700
 1958WAT     H2 6086   2.192   2.821   2.839
 1959WAT      O 6087   2.230   3.224   2.966
 1959WAT     H1 6088   2.200   3.163   2.898
 1959WAT     H2 6089   2.325   3.228   2.955
 1960WAT      O 6090   2.054   2.533   3.128
 1960WAT     H1 6091   2.109   2.544   3.050
 1960WAT     H2 6092   2.106   2.570   3.200
 1961WAT      O 6093   2.139   3.198   3.631
 1961WAT     H1 6094   2.049   3.220   3.656
 1961WAT     H2 6095   2.142   3.210   3.537
 1962WAT      O 6096   2.022   2.885   3.489
 1962WAT     H1 6097   2.008   2.972   3.526
 1962WAT     H2 6098   1.934   2.851   3.474
 1963WAT      O 6099   2.654   3.377   2.620
 1963WAT     H1 6100   2.698   3.451   2.578
 1963WAT     H2 6101   2.648   3.401   2.712
 1964WAT      O 6102   2.201   3.479   3.710
 1964WAT     H1 6103   2.199   3.519   3.623
 1964WAT     H2 6104   2.185   3.386   3.694
 1965WAT      O 6105   3.201   2.008   2.054
 1965WAT     H1 6106   3.170   2.017   2.144
 1965WAT     H2 6107   3.277   2.066   2.049
 1966WAT      O 6108   1.853   2.745   2.500
 1966WAT     H1 6109   1.841   2.817   2.439
 1966WAT     H2 6110   1.822   2.668   2.452
 1967WAT      O 6111   3.397   3.557   3.840
 1967WAT     H1 6112   3.444   3.605   3.907
 1967WAT     H2 6113   3.459   3.550   3.767
 1968WAT      O 6114   1.617   3.062   3.081
 1968WAT     H1 6115   1.625   3.075   2.986
 1968WAT     H2 6116   1.678   2.991   3.100
 1969WAT      O 6117   1.741   3.232   2.722
 1969WAT     H1 6118   1.701   3.246   2.636
 1969WAT     H2 6119   1.830   3.203   2.701
 1970WAT      O 6120   2.169   3.653   2.533
 1970WAT     H1 6121   2.151   3.562   2.512
 1970WAT     H2 6122   2.083   3.689   2.557
 1971WAT      O 6123   1.622   3.166   3.335
 1971WAT     H1 6124   1.639   3.119   3.253
 1971WAT     H2 6125   1.669   3.115   3.401
 1972WAT      O 6126   2.100   2.079   2.838
 1972WAT     H1 6127   2.055   2.157   2.805
 1972WAT     H2 6128   2.156   2.111   2.909
 1973WAT      O 6129   2.528   2.366   3.399
 1973WAT     H1 6130   2.482   2.387   3.480
 1973WAT     H2 6131   2.488   2.284   3.368
 1974WAT      O 6132   2.411   2.041   2.326
 1974WAT     H1 6133   2.349   2.041   2.399
 1974WAT     H2 6134   2.403   1.954   2.287
 1975WAT      O 6135   2.303   2.133   3.024
 1975WAT     H1 6136   2.333   2.224   3.016
 1975WAT     H2 6137   2.358   2.085   2.963
 1976WAT      O 6138   2.079   2.591   2.611
 1976WAT     H1 6139   2.056   2.570   2.702
 1976WAT     H2 6140   2.001   2.635   2.577
 1977WAT      O 6141   2.802   2.592   2.471
 1977WAT     H1 6142   2.742   2.664   2.453
 1977WAT     H2 6143   2.857   2.586   2.393
 1978WAT      O 6144   2.323   2.681   3.678
 1978WAT     H1 6145   2.313   2.587   3.663
 1978WAT     H2 6146   2.407   2.703   3.638
 1979WAT      O 6147   2.662   2.456   2.674
 1979WAT     H1 6148   2.702   2.487   2.593
 1979WAT     H2 6149   2.699   2.368   2.685
 1980WAT      O 6150   1.836   2.322   3.493
 1980WAT     H1 6151   1.797   2.407   3.514
 1980WAT     H2 6152   1.767   2.259   3.512
 1981WAT      O 6153   1.566   2.115   2.896
 1981WAT     H1 6154   1.537   2.172   2.968
 1981WAT     H2 6155   1.641   2.067   2.933
 1982WAT      O 6156   1.585   2.509   2.017
 1982WAT     H1 6157   1.577   2.603   2.032
 1982WAT     H2 6158   1.550   2.495   1.929
 1983WAT      O 6159   2.365   2.382   2.924
 1983WAT     H1 6160   2.365   2.338   2.839
 1983WAT     H2 6161   2.454   2.414   2.935
 1984WAT      O 6162   1.950   2.370   2.820
 1984WAT     H1 6163   1.916   2.418   2.896
 1984WAT     H2 6164   1.874   2.325   2.784
 1985WAT      O 6165   2.371   2.482   2.223
 1985WAT     H1 6166   2.383   2.478   2.318
 1985WAT     H2 6167   2.332   2.569   2.208
 1986WAT      O 6168   2.767   2.260   3.025
 1986WAT     H1 6169   2.769   2.305   3.109
 1986WAT     H2 6170   2.742   2.170   3.046
 1987WAT      O 6171   2.272   2.713   2.163
 1987WAT     H1 6172   2.215   2.669   2.100
 1987WAT     H2 6173   2.343   2.749   2.110
 1988WAT      O 6174   1.780   3.103   3.551
 1988WAT     H1 6175   1.741   3.039   3.610
 1988WAT     H2 6176   1.811   3.174   3.608
 1989WAT      O 6177   1.681   2.263   2.712
 1989WAT     H1 6178   1.653   2.226   2.795
 1989WAT     H2 6179   1.675   2.189   2.650
 1990WAT      O 6180   2.174   2.692   3.331
 1990WAT     H1 6181   2.143   2.780   3.353
 1990WAT     H2 6182   2.269   2.698   3.334
 1991WAT      O 6183   2.027   3.113   2.390
 1991WAT     H1 6184   1.949   3.059   2.374
 1991WAT     H2 6185   2.100   3.061   2.356
 1992WAT      O 6186   2.649   2.152   2.384
 1992WAT     H1 6187   2.567   2.102   2.376
 1992WAT     H2 6188   2.629   2.236   2.342
 1993WAT      O 6189   2.920   2.589   2.213
 1993WAT     H1 6190   3.009   2.620   2.196
 1993WAT     H2 6191   2.917   2.502   2.174
 1994WAT      O 6192   2.031   3.080   2.754
 1994WAT     H1 6193   2.083   2.999   2.749
 1994WAT     H2 6194   1.986   3.074   2.838
 1995WAT      O 6195   2.520   3.206   2.281
 1995WAT     H1 6196   2.554   3.281   2.232
 1995WAT     H2 6197   2.437   3.238   2.318
 1996WAT      O 6198   1.779   2.776   3.445
 1996WAT     H1 6199   1.744   2.843   3.504
 1996WAT     H2 6200   1.750   2.693   3.482
 1997WAT      O 6201   2.100   2.822   3.734
 1997WAT     H1 6202   2.070   2.837   3.644
 1997WAT     H2 6203   2.177   2.766   3.724
 1998WAT      O 6204   2.634   3.302   3.533
 1998WAT     H1 6205   2.635   3.209   3.511
 1998WAT     H2 6206   2.563   3.310   3.597
 1999WAT      O 6207   3.147   2.720   2.160
 1999WAT     H1 6208   3.139   2.763   2.075
 1999WAT     H2 6209   3.219   2.766   2.203
 2000WAT      O 6210   2.417   3.215   2.558
 2000WAT     H1 6211   2.485   3.269   2.597
 2000WAT     H2 6212   2.338   3.269   2.562
 2001WAT      O 6213   1.631   2.776   2.108
 2001WAT     H1 6214   1.717   2.804   2.136
 2001WAT     H2 6215   1.581   2.858   2.096
 2002WAT      O 6216   2.347   2.915   2.520
 2002WAT     H1 6217   2.393   2.996   2.542
 2002WAT     H2 6218   2.312   2.883   2.603
 2003WAT      O 6219   2.577   3.466   3.243
 2003WAT     H1 6220   2.642   3.487   3.310
 2003WAT     H2 6221   2.614   3.390   3.197
 2004WAT      O 6222   1.937   1.949   2.567
 2004WAT     H1 6223   1.924   1.949   2.662
 2004WAT     H2 6224   1.855   1.983   2.532
 2005WAT      O 6225   1.667   3.698   2.164
 2005WAT     H1 6226   1.703   3.757   2.099
 2005WAT     H2 6227   1.653   3.752   2.242
 2006WAT      O 6228   1.637   2.125   3.513
 2006WAT     H1 6229   1.566   2.145   3.574
 2006WAT     H2 6230   1.679   2.048   3.550
 2007WAT      O 6231   1.666   3.524   3.612
 2007WAT     H1 6232   1.677   3.430   3.598
 2007WAT     H2 6233   1.600   3.551   3.547
 2008WAT      O 6234   2.465   3.351   3.752
 2008WAT     H1 6235   2.433   3.279   3.806
 2008WAT     H2 6236   2.397   3.419   3.759
 2009WAT      O 6237   2.269   3.436   2.246
 2009WAT     H1 6238   2.268   3.509   2.184
 2009WAT     H2 6239   2.177   3.411   2.255
 2010WAT      O 6240   1.829   2.958   2.320
 2010WAT     H1 6241   1.768   3.032   2.321
 2010WAT     H2 6242   1.877   2.967   2.238
 2011WAT      O 6243   2.786   2.374   3.288
 2011WAT     H1 6244   2.823   2.292   3.321
 2011WAT     H2 6245   2.700   2.380   3.330
 2012WAT      O 6246   3.123   2.270   2.369
 2012WAT     H1 6247   3.060   2.281   2.297
 2012WAT     H2 6248   3.073   2.292   2.448
 2013WAT      O 6249   2.568   3.442   2.112
 2013WAT     H1 6250   2.578   3.422   2.019
 2013WAT     H2 6251   2.478   3.417   2.133
 2014WAT      O 6252   2.320   2.498   2.510
 2014WAT     H1 6253   2.249   2.545   2.555
 2014WAT     H2 6254   2.348   2.432   2.574
 2015WAT      O 6255   2.723   2.170   2.654
 2015WAT     H1 6256   2.711   2.172   2.560
 2015WAT     H2 6257   2.818   2.175   2.666
 2016WAT      O 6258   2.432   3.694   2.582
 2016WAT     H1 6259   2.457   3.690   2.489
 2016WAT     H2 6260   2.337   3.681   2.581
 2017WAT      O 6261   2.140   2.329   2.248
 2017WAT     H1 6262   2.225   2.372   2.241
 2017WAT     H2 6263   2.103   2.360   2.331
 2018WAT      O 6264   2.030   2.954   2.095
 2018WAT     H1 6265   2.107   2.943   2.152
 2018WAT     H2 6266   2.038   2.884   2.030
 2019WAT      O 6267   1.900   2.697   2.164
 2019WAT     H1 6268   1.908   2.603   2.175
 2019WAT     H2 6269   1.989   2.730   2.174
 2020WAT      O 6270   1.980   3.712   2.874
 2020WAT     H1 6271   2.053   3.657   2.901
 2020WAT     H2 6272   2.018   3.799   2.860
 2021WAT      O 6273   1.668   3.319   2.461
 2021WAT     H1 6274   1.576   3.343   2.460
 2021WAT     H2 6275   1.715   3.402   2.449
 2022WAT      O 6276   1.880   3.631   3.793
 2022WAT     H1 6277   1.960   3.663   3.834
 2022WAT     H2 6278   1.829   3.595   3.865
 2023WAT      O 6279   2.291   3.630   2.056
 2023WAT     H1 6280   2.370   3.658   2.011
 2023WAT     H2 6281   2.239   3.587   1.988
 2024WAT      O 6282   2.764   3.242   3.788
 2024WAT     H1 6283   2.703   3.244   3.714
 2024WAT     H2 6284   2.733   3.168   3.841
 2025WAT      O 6285   1.652   2.879   3.687
 2025WAT     H1 6286   1.703   2.822   3.744
 2025WAT     H2 6287   1.578   2.908   3.741
 2026WAT      O 6288   2.342   3.152   2.043
 2026WAT     H1 6289   2.332   3.090   2.115
 2026WAT     H2 6290   2.326   3.099   1.964
 2027WAT      O 6291   1.855   2.694   3.777
 2027WAT     H1 6292   1.860   2.664   3.868
 2027WAT     H2 6293   1.941   2.734   3.761
 2028WAT      O 6294   2.233   2.954   2.293
 2028WAT     H1 6295   2.275   2.937   2.377
 2028WAT     H2 6296   2.246   2.873   2.243
 2029WAT      O 6297   2.050   2.552   3.573
 2029WAT     H1 6298   1.996   2.503   3.511
 2029WAT     H2 6299   2.116   2.595   3.520
 2030WAT      O 6300   2.485   2.856   2.018
 2030WAT     H1 6301   2.537   2.785   1.981
 2030WAT     H2 6302   2.549   2.920   2.048
 2031WAT      O 6303   2.375   2.104   3.285
 2031WAT     H1 6304   2.330   2.106   3.200
 2031WAT     H2 6305   2.312   2.064   3.344
 2032WAT      O 6306   2.123   2.561   1.987
 2032WAT     H1 6307   2.103   2.475   2.023
 2032WAT     H2 6308   2.106   2.552   1.894
 2033WAT      O 6309   2.201   3.624   3.458
 2033WAT     H1 6310   2.147   3.697   3.426
 2033WAT     H2 6311   2.226   3.576   3.379
 2034WAT      O 6312   2.871   2.042   2.240
 2034WAT     H1 6313   2.899   1.958   2.276
 2034WAT     H2 6314   2.793   2.065   2.292
 2035WAT      O 6315   2.003   2.271   1.986
 2035WAT     H1 6316   2.033   2.272   1.895
 2035WAT     H2 6317   2.077   2.236   2.036
 2036WAT      O 6318   2.486   3.748   3.484
 2036WAT     H1 6319   2.479   3.838   3.515
 2036WAT     H2 6320   2.396   3.716   3.481
 2037WAT      O 6321   2.325   2.165   2.085
 2037WAT     H1 6322   2.290   2.098   2.027
 2037WAT     H2 6323   2.345   2.119   2.166
 2038WAT      O 6324   2.541   3.664   2.247
 2038WAT     H1 6325   2.631   3.698   2.249
 2038WAT     H2 6326   2.544   3.592   2.184
 2039WAT      O 6327   1.905   3.201   2.069
 2039WAT     H1 6328   1.949   3.256   2.135
 2039WAT     H2 6329   1.953   3.119   2.070
 2040WAT      O 6330   1.626   3.480   2.815
 2040WAT     H1 6331   1.659   3.394   2.791
 2040WAT     H2 6332   1.669   3.501   2.898
 2041WAT      O 6333   2.086   3.313   2.581
 2041WAT     H1 6334   2.056   3.301   2.671
 2041WAT     H2 6335   2.075   3.228   2.540
 2042WAT      O 6336   1.675   3.567   3.088
 2042WAT     H1 6337   1.632   3.585   3.172
 2042WAT     H2 6338   1.732   3.643   3.074
 2043WAT      O 6339   1.659   2.818   2.724
 2043WAT     H1 6340   1.593   2.791   2.660
 2043WAT     H2 6341   1.742   2.807   2.679
 2044WAT      O 6342   2.953   2.298   2.146
 2044WAT     H1 6343   2.995   2.279   2.062
 2044WAT     H2 6344   2.923   2.212   2.178
 2045WAT      O 6345   1.762   2.857   3.178
 2045WAT     H1 6346   1.799   2.848   3.266
 2045WAT     H2 6347   1.705   2.780   3.168
 2046WAT      O 6348   1.717   2.548   3.569
 2046WAT     H1 6349   1.628   2.545   3.603
 2046WAT     H2 6350   1.771   2.568   3.645
 2047WAT      O 6351   1.580   2.539   2.319
 2047WAT     H1 6352   1.490   2.566   2.301
 2047WAT     H2 6353   1.628   2.566   2.241
 2048WAT      O 6354   3.231   2.612   2.846
 2048WAT     H1 6355   3.283   2.562   2.783
 2048WAT     H2 6356   3.289   2.625   2.921
 2049WAT      O 6357   3.249   2.620   3.199
 2049WAT     H1 6358   3.154   2.617   3.210
 2049WAT     H2 6359   3.267   2.711   3.175
 2050WAT      O 6360   1.834   2.445   2.110
 2050WAT     H1 6361   1.905   2.403   2.061
 2050WAT     H2 6362   1.763   2.452   2.046
 2051WAT      O 6363   1.799   2.050   2.014
 2051WAT     H1 6364   1.871   2.104   2.045
 2051WAT     H2 6365   1.826   2.023   1.926
 2052WAT      O 6366   3.180   2.537   2.440
 2052WAT     H1 6367   3.229   2.514   2.519
 2052WAT     H2 6368   3.160   2.453   2.399
 2053WAT      O 6369   1.768   1.975   3.004
 2053WAT     H1 6370   1.833   1.920   2.960
 2053WAT     H2 6371   1.810   2.001   3.086
 2054WAT      O 6372   3.323   2.401   2.694
 2054WAT     H1 6373   3.312   2.385   2.787
 2054WAT     H2 6374   3.399   2.348   2.669
 2055WAT      O 6375   3.412   2.184   2.018
 2055WAT     H1 6376   3.504   2.171   1.997
 2055WAT     H2 6377   3.409   2.192   2.113
 2056WAT      O 6378   3.419   2.261   2.280
 2056WAT     H1 6379   3.340   2.255   2.333
 2056WAT     H2 6380   3.439   2.355   2.279
 2057WAT      O 6381   1.743   1.991   3.278
 2057WAT     H1 6382   1.708   2.037   3.355
 2057WAT     H2 6383   1.710   1.902   3.286
 2058WAT      O 6384   1.904   3.308   3.695
 2058WAT     H1 6385   1.900   3.271   3.783
 2058WAT     H2 6386   1.917   3.402   3.709
 2059WAT      O 6387   2.274   3.464   3.255
 2059WAT     H1 6388   2.250   3.490   3.166
 2059WAT     H2 6389   2.368   3.481   3.260
 2060WAT      O 6390   1.888   3.603   3.407
 2060WAT     H1 6391   1.828   3.590   3.480
 2060WAT     H2 6392   1.887   3.519   3.360
 2061WAT      O 6393   1.851   3.339   3.302
 2061WAT     H1 6394   1.778   3.277   3.295
 2061WAT     H2 6395   1.857   3.379   3.215
 2062WAT      O 6396   2.211   3.561   2.980
 2062WAT     H1 6397   2.263   3.500   2.928
 2062WAT     H2 6398   2.276   3.611   3.029
 2063WAT      O 6399   2.485   3.650   3.063
 2063WAT     H1 6400   2.514   3.624   2.975
 2063WAT     H2 6401   2.536   3.595   3.122
 2064WAT      O 6402   2.607   2.024   3.121
 2064WAT     H1 6403   2.529   2.071   3.149
 2064WAT     H2 6404   2.578   1.933   3.110
 2065WAT      O 6405   3.062   2.094   2.925
 2065WAT     H1 6406   3.106   2.088   2.840
 2065WAT     H2 6407   3.035   2.186   2.932
 2066WAT      O 6408   3.249   2.057   2.726
 2066WAT     H1 6409   3.243   1.963   2.712
 2066WAT     H2 6410   3.327   2.068   2.781
 2067WAT      O 6411   1.679   3.671   2.623
 2067WAT     H1 6412   1.662   3.608   2.692
 2067WAT     H2 6413   1.593   3.692   2.588
 2068WAT      O 6414   1.741   2.054   2.373
 2068WAT     H1 6415   1.817   2.066   2.316
 2068WAT     H2 6416   1.695   2.138   2.368
 2069WAT      O 6417   2.396   2.266   2.672
 2069WAT     H1 6418   2.314   2.228   2.638
 2069WAT     H2 6419   2.446   2.190   2.702
 2070WAT      O 6420   2.846   1.932   2.796
 2070WAT     H1 6421   2.906   1.989   2.843
 2070WAT     H2 6422   2.772   1.988   2.773
 2071WAT      O 6423   3.160   1.972   2.323
 2071WAT     H1 6424   3.180   2.062   2.350
 2071WAT     H2 6425   3.081   1.949   2.372
 2072WAT      O 6426   1.840   3.540   2.367
 2072WAT     H1 6427   1.787   3.579   2.297
 2072WAT     H2 6428   1.832   3.603   2.439
 2073WAT      O 6429   1.979   2.107   2.227
 2073WAT     H1 6430   2.032   2.028   2.214
 2073WAT     H2 6431   2.042   2.175   2.250
 2074WAT      O 6432   2.198   2.081   2.532
 2074WAT     H1 6433   2.135   2.011   2.549
 2074WAT     H2 6434   2.144   2.157   2.511
 2075WAT      O 6435   2.492   3.742   3.799
 2075WAT     H1 6436   2.585   3.718   3.804
 2075WAT     H2 6437   2.490   3.825   3.751
 2076WAT      O 6438   2.100   3.735   2.255
 2076WAT     H1 6439   2.173   3.707   2.200
 2076WAT     H2 6440   2.126   3.711   2.344
 2077WAT      O 6441   2.016   3.347   2.255
 2077WAT     H1 6442   1.953   3.394   2.310
 2077WAT     H2 6443   2.027   3.262   2.298
 2078WAT      O 6444   2.761   2.752   0.870
 2078WAT     H1 6445   2.753   2.661   0.843
 2078WAT     H2 6446   2.720   2.802   0.799
 2079WAT      O 6447   2.575   2.930   1.058
 2079WAT     H1 6448   2.497   2.882   1.087
 2079WAT     H2 6449   2.640   2.862   1.041
 2080WAT      O 6450   1.976   2.961   1.146
 2080WAT     H1 6451   1.893   2.935   1.186
 2080WAT     H2 6452   2.037   2.968   1.219
 2081WAT      O 6453   2.977   3.370   0.936
 2081WAT     H1 6454   2.930   3.293   0.969
 2081WAT     H2 6455   3.058   3.373   0.987
 2082WAT      O 6456   1.974   3.364   1.165
 2082WAT     H1 6457   2.004   3.275   1.148
 2082WAT     H2 6458   2.049   3.420   1.143
 2083WAT      O 6459   1.817   2.457   0.524
 2083WAT     H1 6460   1.728   2.491   0.514
 2083WAT     H2 6461   1.846   2.437   0.435
 2084WAT      O 6462   1.613   2.717   1.113
 2084WAT     H1 6463   1.671   2.640   1.113
 2084WAT     H2 6464   1.613   2.747   1.022
 2085WAT      O 6465   2.599   3.599   0.898
 2085WAT     H1 6466   2.537   3.645   0.841
 2085WAT     H2 6467   2.685   3.614   0.858
 2086WAT      O 6468   2.519   3.197   1.059
 2086WAT     H1 6469   2.512   3.103   1.043
 2086WAT     H2 6470   2.595   3.206   1.116
 2087WAT      O 6471   1.738   2.258   1.291
 2087WAT     H1 6472   1.720   2.168   1.319
 2087WAT     H2 6473   1.697   2.313   1.359
 2088WAT      O 6474   2.622   2.478   1.082
 2088WAT     H1 6475   2.659   2.391   1.070
 2088WAT     H2 6476   2.612   2.512   0.992
 2089WAT      O 6477   2.035   2.315   0.628
 2089WAT     H1 6478   2.045   2.405   0.658
 2089WAT     H2 6479   1.944   2.310   0.599
 2090WAT      O 6480   3.000   2.228   0.775
 2090WAT     H1 6481   3.082   2.178   0.779
 2090WAT     H2 6482   3.003   2.287   0.850
 2091WAT      O 6483   1.800   2.507   1.152
 2091WAT     H1 6484   1.868   2.534   1.214
 2091WAT     H2 6485   1.768   2.423   1.186
 2092WAT      O 6486   2.219   2.612   1.061
 2092WAT     H1 6487   2.270   2.662   1.125
 2092WAT     H2 6488   2.272   2.534   1.043
 2093WAT      O 6489   3.429   2.429   1.431
 2093WAT     H1 6490   3.358   2.468   1.379
 2093WAT     H2 6491   3.455   2.499   1.491
 2094WAT      O 6492   2.047   2.076   1.488
 2094WAT     H1 6493   2.047   2.128   1.407
 2094WAT     H2 6494   1.964   2.028   1.485
 2095WAT      O 6495   2.686   3.087   0.637
 2095WAT     H1 6496   2.624   3.134   0.581
 2095WAT     H2 6497   2.737   3.157   0.679
 2096WAT      O 6498   2.172   3.040   1.305
 2096WAT     H1 6499   2.139   3.103   1.370
 2096WAT     H2 6500   2.190   3.093   1.227
 2097WAT      O 6501   3.024   2.422   1.052
 2097WAT     H1 6502   2.953   2.450   1.110
 2097WAT     H2 6503   3.060   2.503   1.016
 2098WAT      O 6504   2.015   2.247   1.288
 2098WAT     H1 6505   2.049   2.332   1.259
 2098WAT     H2 6506   1.921   2.262   1.300
 2099WAT      O 6507   2.093   3.237   1.487
 2099WAT     H1 6508   2.155   3.304   1.459
 2099WAT     H2 6509   2.007   3.278   1.478
 2100WAT      O 6510   1.623   3.156   0.375
 2100WAT     H1 6511   1.585   3.205   0.302
 2100WAT     H2 6512   1.648   3.223   0.438
 2101WAT      O 6513   3.330   2.366   1.091
 2101WAT     H1 6514   3.236   2.369   1.104
 2101WAT     H2 6515   3.363   2.447   1.130
 2102WAT      O 6516   2.384   1.996   0.921
 2102WAT     H1 6517   2.414   1.941   0.849
 2102WAT     H2 6518   2.291   2.009   0.902
 2103WAT      O 6519   2.939   3.568   1.150
 2103WAT     H1 6520   2.940   3.527   1.063
 2103WAT     H2 6521   2.884   3.645   1.139
 2104WAT      O 6522   3.068   3.240   0.659
 2104WAT     H1 6523   3.057   3.146   0.671
 2104WAT     H2 6524   3.068   3.276   0.747
 2105WAT      O 6525   2.879   3.058   1.283
 2105WAT     H1 6526   2.920   3.037   1.199
 2105WAT     H2 6527   2.951   3.084   1.340
 2106WAT      O 6528   2.622   2.803   0.594
 2106WAT     H1 6529   2.530   2.796   0.617
 2106WAT     H2 6530   2.638   2.896   0.583
 2107WAT      O 6531   2.621   2.430   0.294
 2107WAT     H1 6532   2.527   2.446   0.303
 2107WAT     H2 6533   2.653   2.502   0.239
 2108WAT      O 6534   3.273   2.898   1.292
 2108WAT     H1 6535   3.190   2.905   1.244
 2108WAT     H2 6536   3.333   2.956   1.245
 2109WAT      O 6537   3.025   2.959   0.645
 2109WAT     H1 6538   2.964   2.925   0.580
 2109WAT     H2 6539   3.024   2.894   0.715
 2110WAT      O 6540   2.970   2.577   1.386
 2110WAT     H1 6541   2.928   2.659   1.412
 2110WAT     H2 6542   2.896   2.518   1.367
 2111WAT      O 6543   2.183   2.855   0.873
 2111WAT     H1 6544   2.143   2.784   0.823
 2111WAT     H2 6545   2.192   2.821   0.961
 2112WAT      O 6546   2.230   3.224   1.089
 2112WAT     H1 6547   2.200   3.163   1.021
 2112WAT     H2 6548   2.325   3.228   1.078
 2113WAT      O 6549   2.054   2.533   1.251
 2113WAT     H1 6550   2.109   2.544   1.173
 2113WAT     H2 6551   2.106   2.570   1.322
 2114WAT      O 6552   2.139   3.198   1.754
 2114WAT     H1 6553   2.049   3.220   1.779
 2114WAT     H2 6554   2.142   3.210   1.659
 2115WAT      O 6555   2.843   2.883   0.345
 2115WAT     H1 6556   2.887   2.799   0.331
 2115WAT     H2 6557   2.914   2.946   0.354
 2116WAT      O 6558   2.022   2.885   1.612
 2116WAT     H1 6559   2.008   2.972   1.648
 2116WAT     H2 6560   1.934   2.851   1.597
 2117WAT      O 6561   2.654   3.377   0.742
 2117WAT     H1 6562   2.698   3.451   0.701
 2117WAT     H2 6563   2.648   3.401   0.835
 2118WAT      O 6564   2.201   3.479   1.832
 2118WAT     H1 6565   2.199   3.519   1.746
 2118WAT     H2 6566   2.185   3.386   1.816
 2119WAT      O 6567   3.201   2.008   0.177
 2119WAT     H1 6568   3.170   2.017   0.267
 2119WAT     H2 6569   3.277   2.066   0.172
 2120WAT      O 6570   1.853   2.745   0.623
 2120WAT     H1 6571   1.841   2.817   0.561
 2120WAT     H2 6572   1.822   2.668   0.575
 2121WAT      O 6573   1.617   3.062   1.203
 2121WAT     H1 6574   1.625   3.075   1.109
 2121WAT     H2 6575   1.678   2.991   1.223
 2122WAT      O 6576   1.741   3.232   0.844
 2122WAT     H1 6577   1.701   3.246   0.759
 2122WAT     H2 6578   1.830   3.203   0.824
 2123WAT      O 6579   2.723   3.647   1.535
 2123WAT     H1 6580   2.775   3.638   1.615
 2123WAT     H2 6581   2.639   3.681   1.564
 2124WAT      O 6582   2.921   3.675   0.478
 2124WAT     H1 6583   2.905   3.646   0.568
 2124WAT     H2 6584   2.904   3.598   0.424
 2125WAT      O 6585   2.169   3.653   0.656
 2125WAT     H1 6586   2.151   3.562   0.634
 2125WAT     H2 6587   2.083   3.689   0.680
 2126WAT      O 6588   2.891   3.426   0.334
 2126WAT     H1 6589   2.822   3.426   0.268
 2126WAT     H2 6590   2.965   3.384   0.291
 2127WAT      O 6591   2.847   3.589   0.741
 2127WAT     H1 6592   2.893   3.511   0.773
 2127WAT     H2 6593   2.881   3.660   0.796
 2128WAT      O 6594   3.322   2.482   1.775
 2128WAT     H1 6595   3.261   2.533   1.722
 2128WAT     H2 6596   3.290   2.392   1.769
 2129WAT      O 6597   1.622   3.166   1.457
 2129WAT     H1 6598   1.639   3.119   1.375
 2129WAT     H2 6599   1.669   3.115   1.524
 2130WAT      O 6600   2.100   2.079   0.961
 2130WAT     H1 6601   2.055   2.157   0.928
 2130WAT     H2 6602   2.156   2.111   1.032
 2131WAT      O 6603   2.528   2.366   1.521
 2131WAT     H1 6604   2.482   2.387   1.602
 2131WAT     H2 6605   2.488   2.284   1.491
 2132WAT      O 6606   3.028   2.488   1.634
 2132WAT     H1 6607   2.943   2.458   1.666
 2132WAT     H2 6608   3.012   2.512   1.543
 2133WAT      O 6609   2.411   2.041   0.449
 2133WAT     H1 6610   2.349   2.041   0.521
 2133WAT     H2 6611   2.403   1.954   0.409
 2134WAT      O 6612   2.303   2.133   1.147
 2134WAT     H1 6613   2.333   2.224   1.139
 2134WAT     H2 6614   2.358   2.085   1.085
 2135WAT      O 6615   2.079   2.591   0.734
 2135WAT     H1 6616   2.056   2.570   0.824
 2135WAT     H2 6617   2.001   2.635   0.699
 2136WAT      O 6618   2.802   2.592   0.594
 2136WAT     H1 6619   2.742   2.664   0.575
 2136WAT     H2 6620   2.857   2.586   0.515
 2137WAT      O 6621   2.323   2.681   1.800
 2137WAT     H1 6622   2.313   2.587   1.785
 2137WAT     H2 6623   2.407   2.703   1.761
 2138WAT      O 6624   2.662   2.456   0.797
 2138WAT     H1 6625   2.702   2.487   0.715
 2138WAT     H2 6626   2.699   2.368   0.808
 2139WAT      O 6627   1.836   2.322   1.616
 2139WAT     H1 6628   1.797   2.407   1.636
 2139WAT     H2 6629   1.767   2.259   1.635
 2140WAT      O 6630   2.493   2.331   1.923
 2140WAT     H1 6631   2.424   2.311   1.986
 2140WAT     H2 6632   2.568   2.359   1.976
 2141WAT      O 6633   1.566   2.115   1.019
 2141WAT     H1 6634   1.537   2.172   1.090
 2141WAT     H2 6635   1.641   2.067   1.055
 2142WAT      O 6636   2.721   2.715   1.206
 2142WAT     H1 6637   2.648   2.766   1.241
 2142WAT     H2 6638   2.681   2.633   1.176
 2143WAT      O 6639   2.365   2.382   1.047
 2143WAT     H1 6640   2.365   2.338   0.962
 2143WAT     H2 6641   2.454   2.414   1.057
 2144WAT      O 6642   1.950   2.370   0.943
 2144WAT     H1 6643   1.916   2.418   1.018
 2144WAT     H2 6644   1.874   2.325   0.907
 2145WAT      O 6645   2.371   2.482   0.346
 2145WAT     H1 6646   2.383   2.478   0.441
 2145WAT     H2 6647   2.332   2.569   0.330
 2146WAT      O 6648   2.767   2.260   1.147
 2146WAT     H1 6649   2.769   2.305   1.232
 2146WAT     H2 6650   2.742   2.170   1.169
 2147WAT      O 6651   2.272   2.713   0.286
 2147WAT     H1 6652   2.215   2.669   0.223
 2147WAT     H2 6653   2.343   2.749   0.232
 2148WAT      O 6654   3.110   2.001   1.731
 2148WAT     H1 6655   3.142   1.928   1.784
 2148WAT     H2 6656   3.114   1.969   1.641
 2149WAT      O 6657   1.780   3.103   1.673
 2149WAT     H1 6658   1.741   3.039   1.733
 2149WAT     H2 6659   1.811   3.174   1.730
 2150WAT      O 6660   2.395   2.788   1.221
 2150WAT     H1 6661   2.432   2.741   1.296
 2150WAT     H2 6662   2.376   2.876   1.255
 2151WAT      O 6663   1.681   2.263   0.834
 2151WAT     H1 6664   1.653   2.226   0.918
 2151WAT     H2 6665   1.675   2.189   0.773
 2152WAT      O 6666   2.174   2.692   1.453
 2152WAT     H1 6667   2.143   2.780   1.476
 2152WAT     H2 6668   2.269   2.698   1.457
 2153WAT      O 6669   2.027   3.113   0.513
 2153WAT     H1 6670   1.949   3.059   0.497
 2153WAT     H2 6671   2.100   3.061   0.479
 2154WAT      O 6672   3.103   3.013   1.092
 2154WAT     H1 6673   3.175   3.062   1.053
 2154WAT     H2 6674   3.082   2.945   1.028
 2155WAT      O 6675   2.649   2.152   0.506
 2155WAT     H1 6676   2.567   2.102   0.499
 2155WAT     H2 6677   2.629   2.236   0.465
 2156WAT      O 6678   2.920   2.589   0.336
 2156WAT     H1 6679   3.009   2.620   0.318
 2156WAT     H2 6680   2.917   2.502   0.297
 2157WAT      O 6681   2.031   3.080   0.877
 2157WAT     H1 6682   2.083   2.999   0.871
 2157WAT     H2 6683   1.986   3.074   0.961
 2158WAT      O 6684   2.520   3.206   0.404
 2158WAT     H1 6685   2.554   3.281   0.354
 2158WAT     H2 6686   2.437   3.238   0.440
 2159WAT      O 6687   1.779   2.776   1.568
 2159WAT     H1 6688   1.744   2.843   1.627
 2159WAT     H2 6689   1.750   2.693   1.605
 2160WAT      O 6690   2.100   2.822   1.856
 2160WAT     H1 6691   2.070   2.837   1.767
 2160WAT     H2 6692   2.177   2.766   1.847
 2161WAT      O 6693   2.634   3.302   1.656
 2161WAT     H1 6694   2.635   3.209   1.634
 2161WAT     H2 6695   2.563   3.310   1.720
 2162WAT      O 6696   3.147   2.720   0.283
 2162WAT     H1 6697   3.139   2.763   0.198
 2162WAT     H2 6698   3.219   2.766   0.326
 2163WAT      O 6699   3.250   3.406   0.556
 2163WAT     H1 6700   3.186   3.340   0.583
 2163WAT     H2 6701   3.211   3.446   0.478
 2164WAT      O 6702   2.808   3.139   0.940
 2164WAT     H1 6703   2.843   3.079   0.874
 2164WAT     H2 6704   2.720   3.106   0.957
 2165WAT      O 6705   2.417   3.215   0.681
 2165WAT     H1 6706   2.485   3.269   0.719
 2165WAT     H2 6707   2.338   3.269   0.685
 2166WAT      O 6708   1.631   2.776   0.230
 2166WAT     H1 6709   1.717   2.804   0.259
 2166WAT     H2 6710   1.581   2.858   0.219
 2167WAT      O 6711   2.347   2.915   0.642
 2167WAT     H1 6712   2.393   2.996   0.665
 2167WAT     H2 6713   2.312   2.883   0.725
 2168WAT      O 6714   2.577   3.466   1.365
 2168WAT     H1 6715   2.642   3.487   1.433
 2168WAT     H2 6716   2.614   3.390   1.320
 2169WAT      O 6717   1.937   1.949   0.689
 2169WAT     H1 6718   1.924   1.949   0.784
 2169WAT     H2 6719   1.855   1.983   0.654
 2170WAT      O 6720   2.705   3.266   1.237
 2170WAT     H1 6721   2.769   3.196   1.248
 2170WAT     H2 6722   2.757   3.344   1.219
 2171WAT      O 6723   1.667   3.698   0.287
 2171WAT     H1 6724   1.703   3.757   0.221
 2171WAT     H2 6725   1.653   3.752   0.364
 2172WAT      O 6726   1.637   2.125   1.636
 2172WAT     H1 6727   1.566   2.145   1.696
 2172WAT     H2 6728   1.679   2.048   1.673
 2173WAT      O 6729   3.047   3.087   0.375
 2173WAT     H1 6730   3.018   3.133   0.454
 2173WAT     H2 6731   3.127   3.041   0.402
 2174WAT      O 6732   1.666   3.524   1.734
 2174WAT     H1 6733   1.677   3.430   1.720
 2174WAT     H2 6734   1.600   3.551   1.669
 2175WAT      O 6735   2.465   3.351   1.874
 2175WAT     H1 6736   2.433   3.279   1.929
 2175WAT     H2 6737   2.397   3.419   1.882
 2176WAT      O 6738   2.269   3.436   0.369
 2176WAT     H1 6739   2.268   3.509   0.307
 2176WAT     H2 6740   2.177   3.411   0.378
 2177WAT      O 6741   1.829   2.958   0.443
 2177WAT     H1 6742   1.768   3.032   0.444
 2177WAT     H2 6743   1.877   2.967   0.360
 2178WAT      O 6744   2.786   2.374   1.411
 2178WAT     H1 6745   2.823   2.292   1.443
 2178WAT     H2 6746   2.700   2.380   1.452
 2179WAT      O 6747   3.123   2.270   0.491
 2179WAT     H1 6748   3.060   2.281   0.420
 2179WAT     H2 6749   3.073   2.292   0.570
 2180WAT      O 6750   2.320   2.498   0.633
 2180WAT     H1 6751   2.249   2.545   0.677
 2180WAT     H2 6752   2.348   2.432   0.696
 2181WAT      O 6753   2.482   2.640   1.433
 2181WAT     H1 6754   2.532   2.687   1.499
 2181WAT     H2 6755   2.497   2.548   1.454
 2182WAT      O 6756   2.723   2.170   0.777
 2182WAT     H1 6757   2.711   2.172   0.682
 2182WAT     H2 6758   2.818   2.175   0.789
 2183WAT      O 6759   2.432   3.694   0.704
 2183WAT     H1 6760   2.457   3.690   0.612
 2183WAT     H2 6761   2.337   3.681   0.704
 2184WAT      O 6762   2.140   2.329   0.371
 2184WAT     H1 6763   2.225   2.372   0.364
 2184WAT     H2 6764   2.103   2.360   0.453
 2185WAT      O 6765   3.203   2.262   1.517
 2185WAT     H1 6766   3.153   2.336   1.551
 2185WAT     H2 6767   3.285   2.300   1.486
 2186WAT      O 6768   3.032   2.786   0.862
 2186WAT     H1 6769   2.938   2.787   0.879
 2186WAT     H2 6770   3.064   2.707   0.906
 2187WAT      O 6771   1.900   2.697   0.286
 2187WAT     H1 6772   1.908   2.603   0.297
 2187WAT     H2 6773   1.989   2.730   0.297
 2188WAT      O 6774   3.233   3.503   1.029
 2188WAT     H1 6775   3.245   3.585   1.077
 2188WAT     H2 6776   3.319   3.482   0.995
 2189WAT      O 6777   1.980   3.712   0.997
 2189WAT     H1 6778   2.053   3.657   1.024
 2189WAT     H2 6779   2.018   3.799   0.983
 2190WAT      O 6780   1.668   3.319   0.584
 2190WAT     H1 6781   1.576   3.343   0.583
 2190WAT     H2 6782   1.715   3.402   0.572
 2191WAT      O 6783   1.880   3.631   1.915
 2191WAT     H1 6784   1.960   3.663   1.957
 2191WAT     H2 6785   1.829   3.595   1.988
 2192WAT      O 6786   3.196   3.552   0.321
 2192WAT     H1 6787   3.167   3.511   0.240
 2192WAT     H2 6788   3.176   3.645   0.309
 2193WAT      O 6789   1.652   2.879   1.810
 2193WAT     H1 6790   1.703   2.822   1.867
 2193WAT     H2 6791   1.578   2.908   1.864
 2194WAT      O 6792   2.358   3.020   1.763
 2194WAT     H1 6793   2.281   3.077   1.755
 2194WAT     H2 6794   2.376   2.991   1.674
 2195WAT      O 6795   2.667   3.058   0.226
 2195WAT     H1 6796   2.612   3.103   0.290
 2195WAT     H2 6797   2.729   3.007   0.278
 2196WAT      O 6798   1.855   2.694   1.899
 2196WAT     H1 6799   1.860   2.664   1.990
 2196WAT     H2 6800   1.941   2.734   1.883
 2197WAT      O 6801   2.233   2.954   0.415
 2197WAT     H1 6802   2.275   2.937   0.500
 2197WAT     H2 6803   2.246   2.873   0.366
 2198WAT      O 6804   2.050   2.552   1.696
 2198WAT     H1 6805   1.996   2.503   1.633
 2198WAT     H2 6806   2.116   2.595   1.643
 2199WAT      O 6807   2.098   2.248   1.704
 2199WAT     H1 6808   2.089   2.187   1.632
 2199WAT     H2 6809   2.040   2.321   1.681
 2200WAT      O 6810   2.375   2.104   1.407
 2200WAT     H1 6811   2.330   2.106   1.323
 2200WAT     H2 6812   2.312   2.064   1.467
 2201WAT      O 6813   2.415   2.994   1.469
 2201WAT     H1 6814   2.457   3.078   1.452
 2201WAT     H2 6815   2.324   3.007   1.446
 2202WAT      O 6816   2.201   3.624   1.581
 2202WAT     H1 6817   2.147   3.697   1.549
 2202WAT     H2 6818   2.226   3.576   1.502
 2203WAT      O 6819   2.326   2.421   1.734
 2203WAT     H1 6820   2.385   2.390   1.802
 2203WAT     H2 6821   2.244   2.374   1.749
 2204WAT      O 6822   2.808   2.383   1.757
 2204WAT     H1 6823   2.739   2.316   1.750
 2204WAT     H2 6824   2.880   2.338   1.801
 2205WAT      O 6825   2.871   2.042   0.363
 2205WAT     H1 6826   2.899   1.958   0.398
 2205WAT     H2 6827   2.793   2.065   0.414
 2206WAT      O 6828   2.486   3.748   1.607
 2206WAT     H1 6829   2.479   3.838   1.638
 2206WAT     H2 6830   2.396   3.716   1.604
 2207WAT      O 6831   2.541   3.664   0.369
 2207WAT     H1 6832   2.631   3.698   0.371
 2207WAT     H2 6833   2.544   3.592   0.306
 2208WAT      O 6834   1.905   3.201   0.192
 2208WAT     H1 6835   1.949   3.256   0.258
 2208WAT     H2 6836   1.953   3.119   0.193
 2209WAT      O 6837   1.626   3.480   0.937
 2209WAT     H1 6838   1.659   3.394   0.914
 2209WAT     H2 6839   1.669   3.501   1.020
 2210WAT      O 6840   2.086   3.313   0.703
 2210WAT     H1 6841   2.056   3.301   0.793
 2210WAT     H2 6842   2.075   3.228   0.662
 2211WAT      O 6843   1.675   3.567   1.211
 2211WAT     H1 6844   1.632   3.585   1.294
 2211WAT     H2 6845   1.732   3.643   1.197
 2212WAT      O 6846   3.309   2.966   0.424
 2212WAT     H1 6847   3.385   3.023   0.434
 2212WAT     H2 6848   3.310   2.909   0.501
 2213WAT      O 6849   1.659   2.818   0.847
 2213WAT     H1 6850   1.593   2.791   0.782
 2213WAT     H2 6851   1.742   2.807   0.802
 2214WAT      O 6852   3.409   3.051   0.908
 2214WAT     H1 6853   3.446   2.973   0.868
 2214WAT     H2 6854   3.473   3.120   0.890
 2215WAT      O 6855   2.953   2.298   0.269
 2215WAT     H1 6856   2.995   2.279   0.185
 2215WAT     H2 6857   2.923   2.212   0.300
 2216WAT      O 6858   3.303   2.789   0.639
 2216WAT     H1 6859   3.266   2.712   0.596
 2216WAT     H2 6860   3.230   2.827   0.688
 2217WAT      O 6861   1.762   2.857   1.301
 2217WAT     H1 6862   1.799   2.848   1.389
 2217WAT     H2 6863   1.705   2.780   1.291
 2218WAT      O 6864   1.717   2.548   1.691
 2218WAT     H1 6865   1.628   2.545   1.725
 2218WAT     H2 6866   1.771   2.568   1.768
 2219WAT      O 6867   3.086   2.226   1.880
 2219WAT     H1 6868   3.174   2.227   1.918
 2219WAT     H2 6869   3.087   2.153   1.819
 2220WAT      O 6870   1.580   2.539   0.441
 2220WAT     H1 6871   1.490   2.566   0.424
 2220WAT     H2 6872   1.628   2.566   0.363
 2221WAT      O 6873   3.231   2.612   0.969
 2221WAT     H1 6874   3.283   2.562   0.906
 2221WAT     H2 6875   3.289   2.625   1.043
 2222WAT      O 6876   3.249   2.620   1.321
 2222WAT     H1 6877   3.154   2.617   1.333
 2222WAT     H2 6878   3.267   2.711   1.298
 2223WAT      O 6879   1.834   2.445   0.232
 2223WAT     H1 6880   1.905   2.403   0.184
 2223WAT     H2 6881   1.763   2.452   0.169
 2224WAT      O 6882   3.180   2.537   0.563
 2224WAT     H1 6883   3.229   2.514   0.641
 2224WAT     H2 6884   3.160   2.453   0.521
 2225WAT      O 6885   1.768   1.975   1.126
 2225WAT     H1 6886   1.833   1.920   1.082
 2225WAT     H2 6887   1.810   2.001   1.208
 2226WAT      O 6888   3.323   2.401   0.816
 2226WAT     H1 6889   3.312   2.385   0.910
 2226WAT     H2 6890   3.399   2.348   0.792
 2227WAT      O 6891   3.157   1.995   1.462
 2227WAT     H1 6892   3.221   2.056   1.499
 2227WAT     H2 6893   3.172   1.998   1.368
 2228WAT      O 6894   3.419   2.261   0.403
 2228WAT     H1 6895   3.340   2.255   0.456
 2228WAT     H2 6896   3.439   2.355   0.402
 2229WAT      O 6897   3.113   3.665   0.802
 2229WAT     H1 6898   3.173   3.633   0.735
 2229WAT     H2 6899   3.139   3.618   0.881
 2230WAT      O 6900   1.743   1.991   1.401
 2230WAT     H1 6901   1.708   2.037   1.477
 2230WAT     H2 6902   1.710   1.902   1.409
 2231WAT      O 6903   1.904   3.308   1.817
 2231WAT     H1 6904   1.900   3.271   1.905
 2231WAT     H2 6905   1.917   3.402   1.831
 2232WAT      O 6906   2.274   3.464   1.377
 2232WAT     H1 6907   2.250   3.490   1.289
 2232WAT     H2 6908   2.368   3.481   1.383
 2233WAT      O 6909   2.494   2.110   1.753
 2233WAT     H1 6910   2.488   2.169   1.828
 2233WAT     H2 6911   2.588   2.099   1.738
 2234WAT      O 6912   2.758   2.076   1.717
 2234WAT     H1 6913   2.820   2.108   1.651
 2234WAT     H2 6914   2.813   2.027   1.779
 2235WAT      O 6915   1.810   1.944   1.728
 2235WAT     H1 6916   1.865   1.926   1.652
 2235WAT     H2 6917   1.817   1.865   1.782
 2236WAT      O 6918   1.888   3.603   1.529
 2236WAT     H1 6919   1.828   3.590   1.603
 2236WAT     H2 6920   1.887   3.519   1.483
 2237WAT      O 6921   2.832   1.932   1.349
 2237WAT     H1 6922   2.745   1.965   1.329
 2237WAT     H2 6923   2.821   1.885   1.432
 2238WAT      O 6924   2.923   2.153   1.488
 2238WAT     H1 6925   2.890   2.071   1.450
 2238WAT     H2 6926   3.018   2.148   1.475
 2239WAT      O 6927   3.168   3.730   1.185
 2239WAT     H1 6928   3.122   3.805   1.148
 2239WAT     H2 6929   3.105   3.658   1.179
 2240WAT      O 6930   1.851   3.339   1.424
 2240WAT     H1 6931   1.778   3.277   1.417
 2240WAT     H2 6932   1.857   3.379   1.337
 2241WAT      O 6933   2.211   3.561   1.103
 2241WAT     H1 6934   2.263   3.500   1.050
 2241WAT     H2 6935   2.276   3.611   1.152
 2242WAT      O 6936   2.485   3.650   1.185
 2242WAT     H1 6937   2.514   3.624   1.098
 2242WAT     H2 6938   2.536   3.595   1.244
 2243WAT      O 6939   2.607   2.024   1.243
 2243WAT     H1 6940   2.529   2.071   1.271
 2243WAT     H2 6941   2.578   1.933   1.232
 2244WAT      O 6942   3.062   2.094   1.048
 2244WAT     H1 6943   3.106   2.088   0.963
 2244WAT     H2 6944   3.035   2.186   1.055
 2245WAT      O 6945   3.249   2.057   0.849
 2245WAT     H1 6946   3.243   1.963   0.834
 2245WAT     H2 6947   3.327   2.068   0.903
 2246WAT      O 6948   1.679   3.671   0.745
 2246WAT     H1 6949   1.662   3.608   0.815
 2246WAT     H2 6950   1.593   3.692   0.710
 2247WAT      O 6951   1.741   2.054   0.495
 2247WAT     H1 6952   1.817   2.066   0.438
 2247WAT     H2 6953   1.695   2.138   0.491
 2248WAT      O 6954   2.396   2.266   0.794
 2248WAT     H1 6955   2.314   2.228   0.760
 2248WAT     H2 6956   2.446   2.190   0.825
 2249WAT      O 6957   2.846   1.932   0.918
 2249WAT     H1 6958   2.906   1.989   0.966
 2249WAT     H2 6959   2.772   1.988   0.896
 2250WAT      O 6960   3.160   1.972   0.446
 2250WAT     H1 6961   3.180   2.062   0.472
 2250WAT     H2 6962   3.081   1.949   0.495
 2251WAT      O 6963   1.840   3.540   0.490
 2251WAT     H1 6964   1.787   3.579   0.419
 2251WAT     H2 6965   1.832   3.603   0.562
 2252WAT      O 6966   1.979   2.107   0.349
 2252WAT     H1 6967   2.032   2.028   0.337
 2252WAT     H2 6968   2.042   2.175   0.373
 2253WAT      O 6969   2.198   2.081   0.655
 2253WAT     H1 6970   2.135   2.011   0.672
 2253WAT     H2 6971   2.144   2.157   0.633
 2254WAT      O 6972   2.492   3.742   1.922
 2254WAT     H1 6973   2.585   3.718   1.926
 2254WAT     H2 6974   2.490   3.825   1.874
 2255WAT      O 6975   3.315   3.696   0.622
 2255WAT     H1 6976   3.333   3.628   0.557
 2255WAT     H2 6977   3.246   3.749   0.583
 2256WAT      O 6978   2.211   2.008   1.898
 2256WAT     H1 6979   2.182   2.059   1.822
 2256WAT     H2 6980   2.249   1.929   1.862
 2257WAT      O 6981   2.100   3.735   0.377
 2257WAT     H1 6982   2.173   3.707   0.322
 2257WAT     H2 6983   2.126   3.711   0.466
 2258WAT      O 6984   2.016   3.347   0.378
 2258WAT     H1 6985   1.953   3.394   0.432
 2258WAT     H2 6986   2.027   3.262   0.421
 2259WAT      O 6987   2.871   1.950   1.956
 2259WAT     H1 6988   2.859   1.982   2.046
 2259WAT     H2 6989   2.952   1.990   1.927
 2260WAT      O 6990   2.761   0.875   4.625
 2260WAT     H1 6991   2.753   0.783   4.598
 2260WAT     H2 6992   2.720   0.924   4.554
 2261WAT      O 6993   2.575   1.052   4.813
 2261WAT     H1 6994   2.497   1.004   4.842
 2261WAT     H2 6995   2.640   0.984   4.796
 2262WAT      O 6996   1.976   1.084   4.901
 2262WAT     H1 6997   1.893   1.058   4.941
 2262WAT     H2 6998   2.037   1.091   4.974
 2263WAT      O 6999   2.977   1.493   4.691
 2263WAT     H1 7000   2.930   1.416   4.724
 2263WAT     H2 7001   3.058   1.496   4.742
 2264WAT      O 7002   1.974   1.487   4.920
 2264WAT     H1 7003   2.004   1.398   4.902
 2264WAT     H2 7004   2.049   1.543   4.898
 2265WAT      O 7005   1.817   0.580   4.279
 2265WAT     H1 7006   1.728   0.614   4.269
 2265WAT     H2 7007   1.846   0.560   4.190
 2266WAT      O 7008   1.613   0.840   4.868
 2266WAT     H1 7009   1.671   0.763   4.868
 2266WAT     H2 7010   1.613   0.869   4.777
 2267WAT      O 7011   2.599   1.721   4.653
 2267WAT     H1 7012   2.537   1.767   4.596
 2267WAT     H2 7013   2.685   1.737   4.613
 2268WAT      O 7014   2.519   1.320   4.814
 2268WAT     H1 7015   2.512   1.226   4.798
 2268WAT     H2 7016   2.595   1.329   4.871
 2269WAT      O 7017   1.738   0.380   5.046
 2269WAT     H1 7018   1.720   0.291   5.074
 2269WAT     H2 7019   1.697   0.435   5.114
 2270WAT      O 7020   2.622   0.601   4.836
 2270WAT     H1 7021   2.659   0.513   4.825
 2270WAT     H2 7022   2.612   0.634   4.747
 2271WAT      O 7023   2.035   0.438   4.383
 2271WAT     H1 7024   2.045   0.528   4.413
 2271WAT     H2 7025   1.944   0.433   4.354
 2272WAT      O 7026   3.000   0.350   4.530
 2272WAT     H1 7027   3.082   0.301   4.534
 2272WAT     H2 7028   3.003   0.409   4.605
 2273WAT      O 7029   1.800   0.630   4.907
 2273WAT     H1 7030   1.868   0.656   4.969
 2273WAT     H2 7031   1.768   0.546   4.940
 2274WAT      O 7032   2.219   0.735   4.816
 2274WAT     H1 7033   2.270   0.785   4.880
 2274WAT     H2 7034   2.272   0.657   4.798
 2275WAT      O 7035   3.429   0.552   5.186
 2275WAT     H1 7036   3.358   0.591   5.134
 2275WAT     H2 7037   3.455   0.621   5.246
 2276WAT      O 7038   2.686   1.210   4.392
 2276WAT     H1 7039   2.624   1.256   4.336
 2276WAT     H2 7040   2.737   1.279   4.434
 2277WAT      O 7041   2.172   1.163   5.060
 2277WAT     H1 7042   2.139   1.225   5.124
 2277WAT     H2 7043   2.190   1.215   4.982
 2278WAT      O 7044   3.024   0.544   4.807
 2278WAT     H1 7045   2.953   0.573   4.865
 2278WAT     H2 7046   3.060   0.625   4.771
 2279WAT      O 7047   2.015   0.370   5.043
 2279WAT     H1 7048   2.049   0.454   5.014
 2279WAT     H2 7049   1.921   0.385   5.055
 2280WAT      O 7050   2.093   1.359   5.242
 2280WAT     H1 7051   2.155   1.427   5.214
 2280WAT     H2 7052   2.007   1.400   5.233
 2281WAT      O 7053   3.185   1.506   5.033
 2281WAT     H1 7054   3.117   1.573   5.032
 2281WAT     H2 7055   3.239   1.526   4.957
 2282WAT      O 7056   3.330   0.489   4.846
 2282WAT     H1 7057   3.236   0.492   4.859
 2282WAT     H2 7058   3.363   0.570   4.885
 2283WAT      O 7059   2.939   1.690   4.905
 2283WAT     H1 7060   2.940   1.650   4.818
 2283WAT     H2 7061   2.884   1.768   4.894
 2284WAT      O 7062   3.068   1.362   4.414
 2284WAT     H1 7063   3.057   1.268   4.426
 2284WAT     H2 7064   3.068   1.399   4.502
 2285WAT      O 7065   2.879   1.181   5.038
 2285WAT     H1 7066   2.920   1.159   4.954
 2285WAT     H2 7067   2.951   1.206   5.095
 2286WAT      O 7068   2.622   0.925   4.349
 2286WAT     H1 7069   2.530   0.918   4.372
 2286WAT     H2 7070   2.638   1.019   4.338
 2287WAT      O 7071   2.621   0.552   4.049
 2287WAT     H1 7072   2.527   0.568   4.057
 2287WAT     H2 7073   2.653   0.624   3.994
 2288WAT      O 7074   3.273   1.020   5.047
 2288WAT     H1 7075   3.190   1.027   4.999
 2288WAT     H2 7076   3.333   1.079   5.000
 2289WAT      O 7077   3.025   1.081   4.400
 2289WAT     H1 7078   2.964   1.048   4.335
 2289WAT     H2 7079   3.024   1.017   4.470
 2290WAT      O 7080   2.970   0.699   5.141
 2290WAT     H1 7081   2.928   0.782   5.167
 2290WAT     H2 7082   2.896   0.641   5.122
 2291WAT      O 7083   2.183   0.978   4.627
 2291WAT     H1 7084   2.143   0.907   4.578
 2291WAT     H2 7085   2.192   0.943   4.716
 2292WAT      O 7086   2.230   1.346   4.844
 2292WAT     H1 7087   2.200   1.286   4.776
 2292WAT     H2 7088   2.325   1.350   4.833
 2293WAT      O 7089   2.054   0.655   5.005
 2293WAT     H1 7090   2.109   0.666   4.928
 2293WAT     H2 7091   2.106   0.693   5.077
 2294WAT      O 7092   3.039   1.704   5.210
 2294WAT     H1 7093   2.991   1.784   5.191
 2294WAT     H2 7094   2.970   1.639   5.225
 2295WAT      O 7095   2.139   1.320   5.509
 2295WAT     H1 7096   2.049   1.343   5.534
 2295WAT     H2 7097   2.142   1.333   5.414
 2296WAT      O 7098   2.843   1.005   4.100
 2296WAT     H1 7099   2.887   0.921   4.086
 2296WAT     H2 7100   2.914   1.068   4.109
 2297WAT      O 7101   2.022   1.007   5.366
 2297WAT     H1 7102   2.008   1.095   5.403
 2297WAT     H2 7103   1.934   0.973   5.352
 2298WAT      O 7104   2.654   1.499   4.497
 2298WAT     H1 7105   2.698   1.573   4.456
 2298WAT     H2 7106   2.648   1.523   4.589
 2299WAT      O 7107   2.201   1.602   5.587
 2299WAT     H1 7108   2.199   1.642   5.501
 2299WAT     H2 7109   2.185   1.509   5.571
 2300WAT      O 7110   1.853   0.867   4.377
 2300WAT     H1 7111   1.841   0.940   4.316
 2300WAT     H2 7112   1.822   0.790   4.330
 2301WAT      O 7113   1.617   1.184   4.958
 2301WAT     H1 7114   1.625   1.198   4.864
 2301WAT     H2 7115   1.678   1.114   4.977
 2302WAT      O 7116   1.741   1.354   4.599
 2302WAT     H1 7117   1.701   1.369   4.514
 2302WAT     H2 7118   1.830   1.326   4.579
 2303WAT      O 7119   3.337   1.399   5.433
 2303WAT     H1 7120   3.350   1.375   5.341
 2303WAT     H2 7121   3.341   1.316   5.480
 2304WAT      O 7122   2.723   1.769   5.290
 2304WAT     H1 7123   2.775   1.760   5.370
 2304WAT     H2 7124   2.639   1.804   5.319
 2305WAT      O 7125   2.921   1.798   4.233
 2305WAT     H1 7126   2.905   1.769   4.323
 2305WAT     H2 7127   2.904   1.720   4.179
 2306WAT      O 7128   2.169   1.776   4.410
 2306WAT     H1 7129   2.151   1.684   4.389
 2306WAT     H2 7130   2.083   1.812   4.434
 2307WAT      O 7131   2.891   1.549   4.089
 2307WAT     H1 7132   2.822   1.548   4.023
 2307WAT     H2 7133   2.965   1.506   4.046
 2308WAT      O 7134   2.847   1.711   4.496
 2308WAT     H1 7135   2.893   1.633   4.528
 2308WAT     H2 7136   2.881   1.782   4.551
 2309WAT      O 7137   3.322   0.604   5.529
 2309WAT     H1 7138   3.261   0.655   5.477
 2309WAT     H2 7139   3.290   0.514   5.524
 2310WAT      O 7140   1.622   1.288   5.212
 2310WAT     H1 7141   1.639   1.242   5.130
 2310WAT     H2 7142   1.669   1.238   5.279
 2311WAT      O 7143   2.100   0.202   4.716
 2311WAT     H1 7144   2.055   0.280   4.683
 2311WAT     H2 7145   2.156   0.234   4.786
 2312WAT      O 7146   2.528   0.488   5.276
 2312WAT     H1 7147   2.482   0.509   5.357
 2312WAT     H2 7148   2.488   0.407   5.246
 2313WAT      O 7149   3.028   0.610   5.389
 2313WAT     H1 7150   2.943   0.580   5.421
 2313WAT     H2 7151   3.012   0.635   5.298
 2314WAT      O 7152   2.738   0.760   5.599
 2314WAT     H1 7153   2.770   0.677   5.565
 2314WAT     H2 7154   2.817   0.813   5.614
 2315WAT      O 7155   2.303   0.256   4.902
 2315WAT     H1 7156   2.333   0.347   4.894
 2315WAT     H2 7157   2.358   0.207   4.840
 2316WAT      O 7158   2.079   0.714   4.489
 2316WAT     H1 7159   2.056   0.692   4.579
 2316WAT     H2 7160   2.001   0.757   4.454
 2317WAT      O 7161   2.802   0.715   4.348
 2317WAT     H1 7162   2.742   0.787   4.330
 2317WAT     H2 7163   2.857   0.708   4.270
 2318WAT      O 7164   2.323   0.804   5.555
 2318WAT     H1 7165   2.313   0.710   5.540
 2318WAT     H2 7166   2.407   0.826   5.516
 2319WAT      O 7167   2.662   0.578   4.551
 2319WAT     H1 7168   2.702   0.610   4.470
 2319WAT     H2 7169   2.699   0.490   4.563
 2320WAT      O 7170   1.836   0.445   5.370
 2320WAT     H1 7171   1.797   0.530   5.391
 2320WAT     H2 7172   1.767   0.381   5.390
 2321WAT      O 7173   1.566   0.237   4.774
 2321WAT     H1 7174   1.537   0.294   4.845
 2321WAT     H2 7175   1.641   0.189   4.810
 2322WAT      O 7176   1.585   0.631   3.895
 2322WAT     H1 7177   1.577   0.726   3.909
 2322WAT     H2 7178   1.550   0.617   3.807
 2323WAT      O 7179   2.721   0.837   4.961
 2323WAT     H1 7180   2.648   0.888   4.996
 2323WAT     H2 7181   2.681   0.756   4.931
 2324WAT      O 7182   2.365   0.505   4.801
 2324WAT     H1 7183   2.365   0.461   4.717
 2324WAT     H2 7184   2.454   0.537   4.812
 2325WAT      O 7185   1.950   0.493   4.697
 2325WAT     H1 7186   1.916   0.541   4.773
 2325WAT     H2 7187   1.874   0.448   4.661
 2326WAT      O 7188   2.371   0.605   4.101
 2326WAT     H1 7189   2.383   0.601   4.195
 2326WAT     H2 7190   2.332   0.691   4.085
 2327WAT      O 7191   2.767   0.383   4.902
 2327WAT     H1 7192   2.769   0.428   4.987
 2327WAT     H2 7193   2.742   0.293   4.924
 2328WAT      O 7194   2.272   0.836   4.040
 2328WAT     H1 7195   2.215   0.791   3.978
 2328WAT     H2 7196   2.343   0.872   3.987
 2329WAT      O 7197   1.780   1.226   5.428
 2329WAT     H1 7198   1.741   1.162   5.488
 2329WAT     H2 7199   1.811   1.296   5.485
 2330WAT      O 7200   2.395   0.911   4.976
 2330WAT     H1 7201   2.432   0.863   5.051
 2330WAT     H2 7202   2.376   0.998   5.010
 2331WAT      O 7203   1.681   0.385   4.589
 2331WAT     H1 7204   1.653   0.349   4.673
 2331WAT     H2 7205   1.675   0.312   4.528
 2332WAT      O 7206   2.174   0.815   5.208
 2332WAT     H1 7207   2.143   0.903   5.230
 2332WAT     H2 7208   2.269   0.821   5.212
 2333WAT      O 7209   2.027   1.235   4.268
 2333WAT     H1 7210   1.949   1.181   4.252
 2333WAT     H2 7211   2.100   1.184   4.234
 2334WAT      O 7212   3.103   1.135   4.847
 2334WAT     H1 7213   3.175   1.185   4.808
 2334WAT     H2 7214   3.082   1.067   4.782
 2335WAT      O 7215   2.649   0.275   4.261
 2335WAT     H1 7216   2.567   0.225   4.254
 2335WAT     H2 7217   2.629   0.358   4.220
 2336WAT      O 7218   2.641   1.142   5.436
 2336WAT     H1 7219   2.634   1.050   5.410
 2336WAT     H2 7220   2.578   1.152   5.507
 2337WAT      O 7221   2.920   0.712   4.091
 2337WAT     H1 7222   3.009   0.743   4.073
 2337WAT     H2 7223   2.917   0.624   4.052
 2338WAT      O 7224   2.031   1.202   4.631
 2338WAT     H1 7225   2.083   1.122   4.626
 2338WAT     H2 7226   1.986   1.196   4.716
 2339WAT      O 7227   2.520   1.329   4.159
 2339WAT     H1 7228   2.554   1.403   4.109
 2339WAT     H2 7229   2.437   1.360   4.195
 2340WAT      O 7230   1.779   0.899   5.323
 2340WAT     H1 7231   1.744   0.965   5.381
 2340WAT     H2 7232   1.750   0.816   5.360
 2341WAT      O 7233   2.100   0.945   5.611
 2341WAT     H1 7234   2.070   0.959   5.521
 2341WAT     H2 7235   2.177   0.889   5.602
 2342WAT      O 7236   2.634   1.424   5.411
 2342WAT     H1 7237   2.635   1.331   5.389
 2342WAT     H2 7238   2.563   1.433   5.475
 2343WAT      O 7239   3.147   0.843   4.038
 2343WAT     H1 7240   3.139   0.886   3.953
 2343WAT     H2 7241   3.219   0.889   4.081
 2344WAT      O 7242   3.255   1.088   5.345
 2344WAT     H1 7243   3.182   1.148   5.326
 2344WAT     H2 7244   3.308   1.088   5.265
 2345WAT      O 7245   3.250   1.528   4.310
 2345WAT     H1 7246   3.186   1.463   4.338
 2345WAT     H2 7247   3.211   1.569   4.233
 2346WAT      O 7248   2.808   1.261   4.695
 2346WAT     H1 7249   2.843   1.201   4.629
 2346WAT     H2 7250   2.720   1.229   4.712
 2347WAT      O 7251   2.417   1.337   4.436
 2347WAT     H1 7252   2.485   1.392   4.474
 2347WAT     H2 7253   2.338   1.391   4.439
 2348WAT      O 7254   1.631   0.899   3.985
 2348WAT     H1 7255   1.717   0.927   4.013
 2348WAT     H2 7256   1.581   0.980   3.974
 2349WAT      O 7257   2.347   1.038   4.397
 2349WAT     H1 7258   2.393   1.119   4.420
 2349WAT     H2 7259   2.312   1.006   4.480
 2350WAT      O 7260   2.577   1.589   5.120
 2350WAT     H1 7261   2.642   1.609   5.188
 2350WAT     H2 7262   2.614   1.512   5.075
 2351WAT      O 7263   2.705   1.389   4.992
 2351WAT     H1 7264   2.769   1.319   5.003
 2351WAT     H2 7265   2.757   1.467   4.974
 2352WAT      O 7266   3.089   1.417   3.964
 2352WAT     H1 7267   3.066   1.346   4.023
 2352WAT     H2 7268   3.050   1.393   3.880
 2353WAT      O 7269   2.882   1.469   5.312
 2353WAT     H1 7270   2.915   1.528   5.380
 2353WAT     H2 7271   2.790   1.456   5.335
 2354WAT      O 7272   1.637   0.248   5.390
 2354WAT     H1 7273   1.566   0.268   5.451
 2354WAT     H2 7274   1.679   0.170   5.428
 2355WAT      O 7275   3.047   1.209   4.130
 2355WAT     H1 7276   3.018   1.255   4.209
 2355WAT     H2 7277   3.127   1.163   4.157
 2356WAT      O 7278   1.666   1.647   5.489
 2356WAT     H1 7279   1.677   1.553   5.475
 2356WAT     H2 7280   1.600   1.673   5.424
 2357WAT      O 7281   1.829   1.081   4.198
 2357WAT     H1 7282   1.768   1.155   4.199
 2357WAT     H2 7283   1.877   1.090   4.115
 2358WAT      O 7284   2.786   0.497   5.165
 2358WAT     H1 7285   2.823   0.415   5.198
 2358WAT     H2 7286   2.700   0.503   5.207
 2359WAT      O 7287   3.123   0.393   4.246
 2359WAT     H1 7288   3.060   0.403   4.175
 2359WAT     H2 7289   3.073   0.415   4.325
 2360WAT      O 7290   2.320   0.620   4.388
 2360WAT     H1 7291   2.249   0.667   4.432
 2360WAT     H2 7292   2.348   0.555   4.451
 2361WAT      O 7293   2.482   0.762   5.188
 2361WAT     H1 7294   2.532   0.810   5.254
 2361WAT     H2 7295   2.497   0.670   5.209
 2362WAT      O 7296   2.723   0.293   4.532
 2362WAT     H1 7297   2.711   0.295   4.437
 2362WAT     H2 7298   2.818   0.298   4.544
 2363WAT      O 7299   2.432   1.817   4.459
 2363WAT     H1 7300   2.457   1.813   4.367
 2363WAT     H2 7301   2.337   1.804   4.458
 2364WAT      O 7302   2.140   0.451   4.125
 2364WAT     H1 7303   2.225   0.495   4.119
 2364WAT     H2 7304   2.103   0.483   4.208
 2365WAT      O 7305   3.203   0.384   5.272
 2365WAT     H1 7306   3.153   0.458   5.306
 2365WAT     H2 7307   3.285   0.423   5.240
 2366WAT      O 7308   3.032   0.908   4.617
 2366WAT     H1 7309   2.938   0.910   4.634
 2366WAT     H2 7310   3.064   0.830   4.661
 2367WAT      O 7311   2.030   1.077   3.973
 2367WAT     H1 7312   2.107   1.065   4.029
 2367WAT     H2 7313   2.038   1.007   3.908
 2368WAT      O 7314   1.900   0.820   4.041
 2368WAT     H1 7315   1.908   0.725   4.052
 2368WAT     H2 7316   1.989   0.853   4.052
 2369WAT      O 7317   3.233   1.626   4.784
 2369WAT     H1 7318   3.245   1.708   4.831
 2369WAT     H2 7319   3.319   1.604   4.750
 2370WAT      O 7320   1.980   1.835   4.751
 2370WAT     H1 7321   2.053   1.780   4.779
 2370WAT     H2 7322   2.018   1.921   4.737
 2371WAT      O 7323   2.907   1.737   5.526
 2371WAT     H1 7324   3.002   1.728   5.521
 2371WAT     H2 7325   2.892   1.803   5.593
 2372WAT      O 7326   3.196   1.675   4.076
 2372WAT     H1 7327   3.167   1.634   3.995
 2372WAT     H2 7328   3.176   1.768   4.064
 2373WAT      O 7329   1.652   1.002   5.565
 2373WAT     H1 7330   1.703   0.944   5.622
 2373WAT     H2 7331   1.578   1.030   5.618
 2374WAT      O 7332   2.358   1.143   5.518
 2374WAT     H1 7333   2.281   1.200   5.510
 2374WAT     H2 7334   2.376   1.114   5.429
 2375WAT      O 7335   2.667   1.180   3.981
 2375WAT     H1 7336   2.612   1.225   4.045
 2375WAT     H2 7337   2.729   1.130   4.033
 2376WAT      O 7338   3.072   1.316   5.574
 2376WAT     H1 7339   3.146   1.350   5.523
 2376WAT     H2 7340   2.996   1.333   5.518
 2377WAT      O 7341   2.233   1.076   4.170
 2377WAT     H1 7342   2.275   1.060   4.254
 2377WAT     H2 7343   2.246   0.995   4.121
 2378WAT      O 7344   2.050   0.674   5.451
 2378WAT     H1 7345   1.996   0.625   5.388
 2378WAT     H2 7346   2.116   0.717   5.397
 2379WAT      O 7347   2.485   0.979   3.895
 2379WAT     H1 7348   2.537   0.907   3.858
 2379WAT     H2 7349   2.549   1.043   3.925
 2380WAT      O 7350   2.939   1.121   5.427
 2380WAT     H1 7351   2.981   1.136   5.512
 2380WAT     H2 7352   2.846   1.134   5.444
 2381WAT      O 7353   2.987   0.855   5.628
 2381WAT     H1 7354   3.045   0.779   5.619
 2381WAT     H2 7355   3.004   0.908   5.550
 2382WAT      O 7356   2.098   0.371   5.459
 2382WAT     H1 7357   2.089   0.309   5.386
 2382WAT     H2 7358   2.040   0.444   5.436
 2383WAT      O 7359   2.375   0.227   5.162
 2383WAT     H1 7360   2.330   0.229   5.078
 2383WAT     H2 7361   2.312   0.187   5.222
 2384WAT      O 7362   2.415   1.116   5.224
 2384WAT     H1 7363   2.457   1.200   5.207
 2384WAT     H2 7364   2.324   1.130   5.201
 2385WAT      O 7365   2.649   0.889   5.363
 2385WAT     H1 7366   2.661   0.830   5.437
 2385WAT     H2 7367   2.735   0.893   5.321
 2386WAT      O 7368   2.883   0.945   5.220
 2386WAT     H1 7369   2.830   0.997   5.160
 2386WAT     H2 7370   2.917   1.008   5.283
 2387WAT      O 7371   2.123   0.684   3.865
 2387WAT     H1 7372   2.103   0.597   3.901
 2387WAT     H2 7373   2.106   0.675   3.771
 2388WAT      O 7374   2.201   1.747   5.336
 2388WAT     H1 7375   2.147   1.819   5.304
 2388WAT     H2 7376   2.226   1.699   5.257
 2389WAT      O 7377   2.326   0.544   5.488
 2389WAT     H1 7378   2.385   0.513   5.557
 2389WAT     H2 7379   2.244   0.496   5.504
 2390WAT      O 7380   2.808   0.505   5.512
 2390WAT     H1 7381   2.739   0.439   5.505
 2390WAT     H2 7382   2.880   0.461   5.556
 2391WAT      O 7383   2.003   0.394   3.864
 2391WAT     H1 7384   2.033   0.394   3.773
 2391WAT     H2 7385   2.077   0.359   3.913
 2392WAT      O 7386   2.486   1.870   5.362
 2392WAT     H1 7387   2.479   1.961   5.392
 2392WAT     H2 7388   2.396   1.838   5.359
 2393WAT      O 7389   2.325   0.288   3.962
 2393WAT     H1 7390   2.290   0.220   3.904
 2393WAT     H2 7391   2.345   0.242   4.044
 2394WAT      O 7392   1.626   1.603   4.692
 2394WAT     H1 7393   1.659   1.516   4.669
 2394WAT     H2 7394   1.669   1.624   4.775
 2395WAT      O 7395   2.086   1.436   4.458
 2395WAT     H1 7396   2.056   1.424   4.548
 2395WAT     H2 7397   2.075   1.350   4.417
 2396WAT      O 7398   1.675   1.690   4.966
 2396WAT     H1 7399   1.632   1.708   5.049
 2396WAT     H2 7400   1.732   1.765   4.952
 2397WAT      O 7401   3.239   1.640   5.395
 2397WAT     H1 7402   3.179   1.646   5.320
 2397WAT     H2 7403   3.252   1.546   5.408
 2398WAT      O 7404   3.363   1.414   3.928
 2398WAT     H1 7405   3.280   1.421   3.975
 2398WAT     H2 7406   3.381   1.503   3.898
 2399WAT      O 7407   3.309   1.088   4.179
 2399WAT     H1 7408   3.385   1.145   4.189
 2399WAT     H2 7409   3.310   1.032   4.256
 2400WAT      O 7410   1.659   0.941   4.602
 2400WAT     H1 7411   1.593   0.914   4.537
 2400WAT     H2 7412   1.742   0.930   4.557
 2401WAT      O 7413   3.409   1.174   4.663
 2401WAT     H1 7414   3.446   1.096   4.622
 2401WAT     H2 7415   3.473   1.243   4.645
 2402WAT      O 7416   3.107   1.312   5.204
 2402WAT     H1 7417   3.026   1.355   5.231
 2402WAT     H2 7418   3.148   1.374   5.143
 2403WAT      O 7419   3.314   1.118   3.894
 2403WAT     H1 7420   3.341   1.209   3.882
 2403WAT     H2 7421   3.295   1.111   3.988
 2404WAT      O 7422   2.953   0.420   4.024
 2404WAT     H1 7423   2.995   0.402   3.940
 2404WAT     H2 7424   2.923   0.335   4.055
 2405WAT      O 7425   3.303   0.912   4.394
 2405WAT     H1 7426   3.266   0.835   4.351
 2405WAT     H2 7427   3.230   0.950   4.442
 2406WAT      O 7428   1.762   0.979   5.056
 2406WAT     H1 7429   1.799   0.971   5.144
 2406WAT     H2 7430   1.705   0.903   5.046
 2407WAT      O 7431   3.242   0.826   5.357
 2407WAT     H1 7432   3.219   0.803   5.267
 2407WAT     H2 7433   3.268   0.918   5.353
 2408WAT      O 7434   1.717   0.670   5.446
 2408WAT     H1 7435   1.628   0.667   5.480
 2408WAT     H2 7436   1.771   0.690   5.523
 2409WAT      O 7437   1.580   0.662   4.196
 2409WAT     H1 7438   1.490   0.688   4.179
 2409WAT     H2 7439   1.628   0.689   4.118
 2410WAT      O 7440   3.231   0.734   4.724
 2410WAT     H1 7441   3.283   0.685   4.661
 2410WAT     H2 7442   3.289   0.748   4.798
 2411WAT      O 7443   3.249   0.742   5.076
 2411WAT     H1 7444   3.154   0.739   5.087
 2411WAT     H2 7445   3.267   0.833   5.052
 2412WAT      O 7446   1.834   0.568   3.987
 2412WAT     H1 7447   1.905   0.525   3.938
 2412WAT     H2 7448   1.763   0.574   3.924
 2413WAT      O 7449   3.180   0.660   4.318
 2413WAT     H1 7450   3.229   0.637   4.396
 2413WAT     H2 7451   3.160   0.576   4.276
 2414WAT      O 7452   3.323   0.523   4.571
 2414WAT     H1 7453   3.312   0.508   4.665
 2414WAT     H2 7454   3.399   0.471   4.547
 2415WAT      O 7455   3.412   0.307   3.895
 2415WAT     H1 7456   3.504   0.293   3.874
 2415WAT     H2 7457   3.409   0.314   3.990
 2416WAT      O 7458   3.419   0.384   4.158
 2416WAT     H1 7459   3.340   0.377   4.211
 2416WAT     H2 7460   3.439   0.477   4.157
 2417WAT      O 7461   3.113   1.788   4.557
 2417WAT     H1 7462   3.173   1.755   4.489
 2417WAT     H2 7463   3.139   1.740   4.636
 2418WAT      O 7464   2.274   1.586   5.132
 2418WAT     H1 7465   2.250   1.613   5.043
 2418WAT     H2 7466   2.368   1.603   5.138
 2419WAT      O 7467   2.494   0.233   5.508
 2419WAT     H1 7468   2.488   0.292   5.583
 2419WAT     H2 7469   2.588   0.222   5.493
 2420WAT      O 7470   3.400   1.788   5.212
 2420WAT     H1 7471   3.351   1.828   5.140
 2420WAT     H2 7472   3.339   1.726   5.252
 2421WAT      O 7473   1.888   1.725   5.284
 2421WAT     H1 7474   1.828   1.712   5.358
 2421WAT     H2 7475   1.887   1.642   5.237
 2422WAT      O 7476   2.923   0.275   5.243
 2422WAT     H1 7477   2.890   0.194   5.205
 2422WAT     H2 7478   3.018   0.271   5.230
 2423WAT      O 7479   3.168   1.852   4.940
 2423WAT     H1 7480   3.122   1.928   4.903
 2423WAT     H2 7481   3.105   1.781   4.934
 2424WAT      O 7482   1.851   1.462   5.179
 2424WAT     H1 7483   1.778   1.400   5.172
 2424WAT     H2 7484   1.857   1.501   5.092
 2425WAT      O 7485   2.211   1.683   4.858
 2425WAT     H1 7486   2.263   1.622   4.805
 2425WAT     H2 7487   2.276   1.734   4.907
 2426WAT      O 7488   2.485   1.772   4.940
 2426WAT     H1 7489   2.514   1.747   4.853
 2426WAT     H2 7490   2.536   1.717   4.999
 2427WAT      O 7491   3.062   0.217   4.803
 2427WAT     H1 7492   3.106   0.211   4.718
 2427WAT     H2 7493   3.035   0.308   4.810
 2428WAT      O 7494   1.679   1.794   4.500
 2428WAT     H1 7495   1.662   1.730   4.570
 2428WAT     H2 7496   1.593   1.814   4.465
 2429WAT      O 7497   1.741   0.177   4.250
 2429WAT     H1 7498   1.817   0.188   4.193
 2429WAT     H2 7499   1.695   0.261   4.246
 2430WAT      O 7500   2.396   0.388   4.549
 2430WAT     H1 7501   2.314   0.351   4.515
 2430WAT     H2 7502   2.446   0.313   4.580
 2431WAT      O 7503   3.315   1.819   4.377
 2431WAT     H1 7504   3.333   1.750   4.312
 2431WAT     H2 7505   3.246   1.871   4.337
 2432WAT      O 7506   2.761   0.875   2.747
 2432WAT     H1 7507   2.753   0.783   2.720
 2432WAT     H2 7508   2.720   0.924   2.677
 2433WAT      O 7509   2.575   1.052   2.936
 2433WAT     H1 7510   2.497   1.004   2.965
 2433WAT     H2 7511   2.640   0.984   2.918
 2434WAT      O 7512   1.976   1.084   3.023
 2434WAT     H1 7513   1.893   1.058   3.063
 2434WAT     H2 7514   2.037   1.091   3.097
 2435WAT      O 7515   2.977   1.493   2.814
 2435WAT     H1 7516   2.930   1.416   2.846
 2435WAT     H2 7517   3.058   1.496   2.864
 2436WAT      O 7518   1.974   1.487   3.043
 2436WAT     H1 7519   2.004   1.398   3.025
 2436WAT     H2 7520   2.049   1.543   3.020
 2437WAT      O 7521   1.817   0.580   2.402
 2437WAT     H1 7522   1.728   0.614   2.392
 2437WAT     H2 7523   1.846   0.560   2.313
 2438WAT      O 7524   1.613   0.840   2.990
 2438WAT     H1 7525   1.671   0.763   2.990
 2438WAT     H2 7526   1.613   0.869   2.899
 2439WAT      O 7527   2.599   1.721   2.776
 2439WAT     H1 7528   2.537   1.767   2.719
 2439WAT     H2 7529   2.685   1.737   2.735
 2440WAT      O 7530   2.519   1.320   2.936
 2440WAT     H1 7531   2.512   1.226   2.920
 2440WAT     H2 7532   2.595   1.329   2.993
 2441WAT      O 7533   1.738   0.380   3.169
 2441WAT     H1 7534   1.720   0.291   3.197
 2441WAT     H2 7535   1.697   0.435   3.236
 2442WAT      O 7536   2.622   0.601   2.959
 2442WAT     H1 7537   2.659   0.513   2.948
 2442WAT     H2 7538   2.612   0.634   2.870
 2443WAT      O 7539   2.035   0.438   2.505
 2443WAT     H1 7540   2.045   0.528   2.536
 2443WAT     H2 7541   1.944   0.433   2.476
 2444WAT      O 7542   3.000   0.350   2.652
 2444WAT     H1 7543   3.082   0.301   2.657
 2444WAT     H2 7544   3.003   0.409   2.728
 2445WAT      O 7545   1.800   0.630   3.030
 2445WAT     H1 7546   1.868   0.656   3.092
 2445WAT     H2 7547   1.768   0.546   3.063
 2446WAT      O 7548   2.219   0.735   2.938
 2446WAT     H1 7549   2.270   0.785   3.002
 2446WAT     H2 7550   2.272   0.657   2.921
 2447WAT      O 7551   3.429   0.552   3.309
 2447WAT     H1 7552   3.358   0.591   3.257
 2447WAT     H2 7553   3.455   0.621   3.369
 2448WAT      O 7554   2.686   1.210   2.515
 2448WAT     H1 7555   2.624   1.256   2.459
 2448WAT     H2 7556   2.737   1.279   2.557
 2449WAT      O 7557   2.172   1.163   3.183
 2449WAT     H1 7558   2.139   1.225   3.247
 2449WAT     H2 7559   2.190   1.215   3.105
 2450WAT      O 7560   3.024   0.544   2.930
 2450WAT     H1 7561   2.953   0.573   2.988
 2450WAT     H2 7562   3.060   0.625   2.894
 2451WAT      O 7563   2.015   0.370   3.166
 2451WAT     H1 7564   2.049   0.454   3.136
 2451WAT     H2 7565   1.921   0.385   3.177
 2452WAT      O 7566   2.093   1.359   3.364
 2452WAT     H1 7567   2.155   1.427   3.336
 2452WAT     H2 7568   2.007   1.400   3.355
 2453WAT      O 7569   1.623   1.278   2.252
 2453WAT     H1 7570   1.585   1.327   2.179
 2453WAT     H2 7571   1.648   1.346   2.315
 2454WAT      O 7572   3.185   1.506   3.156
 2454WAT     H1 7573   3.117   1.573   3.155
 2454WAT     H2 7574   3.239   1.526   3.079
 2455WAT      O 7575   3.330   0.489   2.969
 2455WAT     H1 7576   3.236   0.492   2.982
 2455WAT     H2 7577   3.363   0.570   3.007
 2456WAT      O 7578   2.939   1.690   3.027
 2456WAT     H1 7579   2.940   1.650   2.940
 2456WAT     H2 7580   2.884   1.768   3.017
 2457WAT      O 7581   3.068   1.362   2.536
 2457WAT     H1 7582   3.057   1.268   2.549
 2457WAT     H2 7583   3.068   1.399   2.625
 2458WAT      O 7584   2.879   1.181   3.160
 2458WAT     H1 7585   2.920   1.159   3.077
 2458WAT     H2 7586   2.951   1.206   3.217
 2459WAT      O 7587   2.622   0.925   2.472
 2459WAT     H1 7588   2.530   0.918   2.495
 2459WAT     H2 7589   2.638   1.019   2.460
 2460WAT      O 7590   2.621   0.552   2.171
 2460WAT     H1 7591   2.527   0.568   2.180
 2460WAT     H2 7592   2.653   0.624   2.117
 2461WAT      O 7593   3.273   1.020   3.169
 2461WAT     H1 7594   3.190   1.027   3.122
 2461WAT     H2 7595   3.333   1.079   3.122
 2462WAT      O 7596   3.025   1.081   2.522
 2462WAT     H1 7597   2.964   1.048   2.457
 2462WAT     H2 7598   3.024   1.017   2.593
 2463WAT      O 7599   2.970   0.699   3.264
 2463WAT     H1 7600   2.928   0.782   3.289
 2463WAT     H2 7601   2.896   0.641   3.245
 2464WAT      O 7602   2.183   0.978   2.750
 2464WAT     H1 7603   2.143   0.907   2.700
 2464WAT     H2 7604   2.192   0.943   2.839
 2465WAT      O 7605   2.230   1.346   2.966
 2465WAT     H1 7606   2.200   1.286   2.898
 2465WAT     H2 7607   2.325   1.350   2.955
 2466WAT      O 7608   2.054   0.655   3.128
 2466WAT     H1 7609   2.109   0.666   3.050
 2466WAT     H2 7610   2.106   0.693   3.200
 2467WAT      O 7611   3.039   1.704   3.333
 2467WAT     H1 7612   2.991   1.784   3.313
 2467WAT     H2 7613   2.970   1.639   3.348
 2468WAT      O 7614   2.843   1.005   2.223
 2468WAT     H1 7615   2.887   0.921   2.208
 2468WAT     H2 7616   2.914   1.068   2.231
 2469WAT      O 7617   2.022   1.007   3.489
 2469WAT     H1 7618   2.008   1.095   3.526
 2469WAT     H2 7619   1.934   0.973   3.474
 2470WAT      O 7620   2.654   1.499   2.620
 2470WAT     H1 7621   2.698   1.573   2.578
 2470WAT     H2 7622   2.648   1.523   2.712
 2471WAT      O 7623   1.853   0.867   2.500
 2471WAT     H1 7624   1.841   0.940   2.439
 2471WAT     H2 7625   1.822   0.790   2.452
 2472WAT      O 7626   3.397   1.680   3.840
 2472WAT     H1 7627   3.444   1.728   3.907
 2472WAT     H2 7628   3.459   1.673   3.767
 2473WAT      O 7629   1.617   1.184   3.081
 2473WAT     H1 7630   1.625   1.198   2.986
 2473WAT     H2 7631   1.678   1.114   3.100
 2474WAT      O 7632   1.741   1.354   2.722
 2474WAT     H1 7633   1.701   1.369   2.636
 2474WAT     H2 7634   1.830   1.326   2.701
 2475WAT      O 7635   3.337   1.399   3.556
 2475WAT     H1 7636   3.350   1.375   3.464
 2475WAT     H2 7637   3.341   1.316   3.603
 2476WAT      O 7638   2.921   1.798   2.355
 2476WAT     H1 7639   2.905   1.769   2.445
 2476WAT     H2 7640   2.904   1.720   2.302
 2477WAT      O 7641   2.169   1.776   2.533
 2477WAT     H1 7642   2.151   1.684   2.512
 2477WAT     H2 7643   2.083   1.812   2.557
 2478WAT      O 7644   2.891   1.549   2.211
 2478WAT     H1 7645   2.822   1.548   2.145
 2478WAT     H2 7646   2.965   1.506   2.168
 2479WAT      O 7647   2.847   1.711   2.619
 2479WAT     H1 7648   2.893   1.633   2.650
 2479WAT     H2 7649   2.881   1.782   2.673
 2480WAT      O 7650   3.322   0.604   3.652
 2480WAT     H1 7651   3.261   0.655   3.599
 2480WAT     H2 7652   3.290   0.514   3.646
 2481WAT      O 7653   1.622   1.288   3.335
 2481WAT     H1 7654   1.639   1.242   3.253
 2481WAT     H2 7655   1.669   1.238   3.401
 2482WAT      O 7656   2.100   0.202   2.838
 2482WAT     H1 7657   2.055   0.280   2.805
 2482WAT     H2 7658   2.156   0.234   2.909
 2483WAT      O 7659   2.528   0.488   3.399
 2483WAT     H1 7660   2.482   0.509   3.480
 2483WAT     H2 7661   2.488   0.407   3.368
 2484WAT      O 7662   3.028   0.610   3.512
 2484WAT     H1 7663   2.943   0.580   3.544
 2484WAT     H2 7664   3.012   0.635   3.420
 2485WAT      O 7665   2.738   0.760   3.722
 2485WAT     H1 7666   2.770   0.677   3.688
 2485WAT     H2 7667   2.817   0.813   3.736
 2486WAT      O 7668   2.303   0.256   3.024
 2486WAT     H1 7669   2.333   0.347   3.016
 2486WAT     H2 7670   2.358   0.207   2.963
 2487WAT      O 7671   2.079   0.714   2.611
 2487WAT     H1 7672   2.056   0.692   2.702
 2487WAT     H2 7673   2.001   0.757   2.577
 2488WAT      O 7674   2.802   0.715   2.471
 2488WAT     H1 7675   2.742   0.787   2.453
 2488WAT     H2 7676   2.857   0.708   2.393
 2489WAT      O 7677   2.323   0.804   3.678
 2489WAT     H1 7678   2.313   0.710   3.663
 2489WAT     H2 7679   2.407   0.826   3.638
 2490WAT      O 7680   2.662   0.578   2.674
 2490WAT     H1 7681   2.702   0.610   2.593
 2490WAT     H2 7682   2.699   0.490   2.685
 2491WAT      O 7683   1.836   0.445   3.493
 2491WAT     H1 7684   1.797   0.530   3.514
 2491WAT     H2 7685   1.767   0.381   3.512
 2492WAT      O 7686   2.493   0.453   3.800
 2492WAT     H1 7687   2.424   0.434   3.863
 2492WAT     H2 7688   2.568   0.482   3.853
 2493WAT      O 7689   1.566   0.237   2.896
 2493WAT     H1 7690   1.537   0.294   2.968
 2493WAT     H2 7691   1.641   0.189   2.933
 2494WAT      O 7692   1.585   0.631   2.017
 2494WAT     H1 7693   1.577   0.726   2.032
 2494WAT     H2 7694   1.550   0.617   1.929
 2495WAT      O 7695   2.721   0.837   3.084
 2495WAT     H1 7696   2.648   0.888   3.118
 2495WAT     H2 7697   2.681   0.756   3.053
 2496WAT      O 7698   2.365   0.505   2.924
 2496WAT     H1 7699   2.365   0.461   2.839
 2496WAT     H2 7700   2.454   0.537   2.935
 2497WAT      O 7701   1.950   0.493   2.820
 2497WAT     H1 7702   1.916   0.541   2.896
 2497WAT     H2 7703   1.874   0.448   2.784
 2498WAT      O 7704   2.371   0.605   2.223
 2498WAT     H1 7705   2.383   0.601   2.318
 2498WAT     H2 7706   2.332   0.691   2.208
 2499WAT      O 7707   2.767   0.383   3.025
 2499WAT     H1 7708   2.769   0.428   3.109
 2499WAT     H2 7709   2.742   0.293   3.046
 2500WAT      O 7710   2.272   0.836   2.163
 2500WAT     H1 7711   2.215   0.791   2.100
 2500WAT     H2 7712   2.343   0.872   2.110
 2501WAT      O 7713   1.780   1.226   3.551
 2501WAT     H1 7714   1.741   1.162   3.610
 2501WAT     H2 7715   1.811   1.296   3.608
 2502WAT      O 7716   2.395   0.911   3.099
 2502WAT     H1 7717   2.432   0.863   3.173
 2502WAT     H2 7718   2.376   0.998   3.133
 2503WAT      O 7719   1.681   0.385   2.712
 2503WAT     H1 7720   1.653   0.349   2.795
 2503WAT     H2 7721   1.675   0.312   2.650
 2504WAT      O 7722   2.174   0.815   3.331
 2504WAT     H1 7723   2.143   0.903   3.353
 2504WAT     H2 7724   2.269   0.821   3.334
 2505WAT      O 7725   2.027   1.235   2.390
 2505WAT     H1 7726   1.949   1.181   2.374
 2505WAT     H2 7727   2.100   1.184   2.356
 2506WAT      O 7728   3.103   1.135   2.969
 2506WAT     H1 7729   3.175   1.185   2.930
 2506WAT     H2 7730   3.082   1.067   2.905
 2507WAT      O 7731   2.649   0.275   2.384
 2507WAT     H1 7732   2.567   0.225   2.376
 2507WAT     H2 7733   2.629   0.358   2.342
 2508WAT      O 7734   2.641   1.142   3.558
 2508WAT     H1 7735   2.634   1.050   3.533
 2508WAT     H2 7736   2.578   1.152   3.630
 2509WAT      O 7737   2.920   0.712   2.213
 2509WAT     H1 7738   3.009   0.743   2.196
 2509WAT     H2 7739   2.917   0.624   2.174
 2510WAT      O 7740   2.031   1.202   2.754
 2510WAT     H1 7741   2.083   1.122   2.749
 2510WAT     H2 7742   1.986   1.196   2.838
 2511WAT      O 7743   2.520   1.329   2.281
 2511WAT     H1 7744   2.554   1.403   2.232
 2511WAT     H2 7745   2.437   1.360   2.318
 2512WAT      O 7746   1.779   0.899   3.445
 2512WAT     H1 7747   1.744   0.965   3.504
 2512WAT     H2 7748   1.750   0.816   3.482
 2513WAT      O 7749   2.100   0.945   3.734
 2513WAT     H1 7750   2.070   0.959   3.644
 2513WAT     H2 7751   2.177   0.889   3.724
 2514WAT      O 7752   3.147   0.843   2.160
 2514WAT     H1 7753   3.139   0.886   2.075
 2514WAT     H2 7754   3.219   0.889   2.203
 2515WAT      O 7755   3.255   1.088   3.468
 2515WAT     H1 7756   3.182   1.148   3.448
 2515WAT     H2 7757   3.308   1.088   3.388
 2516WAT      O 7758   3.250   1.528   2.433
 2516WAT     H1 7759   3.186   1.463   2.460
 2516WAT     H2 7760   3.211   1.569   2.355
 2517WAT      O 7761   2.808   1.261   2.818
 2517WAT     H1 7762   2.843   1.201   2.752
 2517WAT     H2 7763   2.720   1.229   2.835
 2518WAT      O 7764   2.417   1.337   2.558
 2518WAT     H1 7765   2.485   1.392   2.597
 2518WAT     H2 7766   2.338   1.391   2.562
 2519WAT      O 7767   1.631   0.899   2.108
 2519WAT     H1 7768   1.717   0.927   2.136
 2519WAT     H2 7769   1.581   0.980   2.096
 2520WAT      O 7770   2.347   1.038   2.520
 2520WAT     H1 7771   2.393   1.119   2.542
 2520WAT     H2 7772   2.312   1.006   2.603
 2521WAT      O 7773   2.577   1.589   3.243
 2521WAT     H1 7774   2.642   1.609   3.310
 2521WAT     H2 7775   2.614   1.512   3.197
 2522WAT      O 7776   2.705   1.389   3.114
 2522WAT     H1 7777   2.769   1.319   3.126
 2522WAT     H2 7778   2.757   1.467   3.096
 2523WAT      O 7779   3.089   1.417   2.087
 2523WAT     H1 7780   3.066   1.346   2.146
 2523WAT     H2 7781   3.050   1.393   2.003
 2524WAT      O 7782   2.882   1.469   3.435
 2524WAT     H1 7783   2.915   1.528   3.503
 2524WAT     H2 7784   2.790   1.456   3.458
 2525WAT      O 7785   1.667   1.820   2.164
 2525WAT     H1 7786   1.703   1.880   2.099
 2525WAT     H2 7787   1.653   1.875   2.242
 2526WAT      O 7788   1.637   0.248   3.513
 2526WAT     H1 7789   1.566   0.268   3.574
 2526WAT     H2 7790   1.679   0.170   3.550
 2527WAT      O 7791   3.047   1.209   2.253
 2527WAT     H1 7792   3.018   1.255   2.332
 2527WAT     H2 7793   3.127   1.163   2.280
 2528WAT      O 7794   2.269   1.558   2.246
 2528WAT     H1 7795   2.268   1.632   2.184
 2528WAT     H2 7796   2.177   1.534   2.255
 2529WAT      O 7797   1.829   1.081   2.320
 2529WAT     H1 7798   1.768   1.155   2.321
 2529WAT     H2 7799   1.877   1.090   2.238
 2530WAT      O 7800   2.786   0.497   3.288
 2530WAT     H1 7801   2.823   0.415   3.321
 2530WAT     H2 7802   2.700   0.503   3.330
 2531WAT      O 7803   3.123   0.393   2.369
 2531WAT     H1 7804   3.060   0.403   2.297
 2531WAT     H2 7805   3.073   0.415   2.448
 2532WAT      O 7806   2.568   1.565   2.112
 2532WAT     H1 7807   2.578   1.544   2.019
 2532WAT     H2 7808   2.478   1.539   2.133
 2533WAT      O 7809   2.320   0.620   2.510
 2533WAT     H1 7810   2.249   0.667   2.555
 2533WAT     H2 7811   2.348   0.555   2.574
 2534WAT      O 7812   2.482   0.762   3.310
 2534WAT     H1 7813   2.532   0.810   3.377
 2534WAT     H2 7814   2.497   0.670   3.331
 2535WAT      O 7815   2.723   0.293   2.654
 2535WAT     H1 7816   2.711   0.295   2.560
 2535WAT     H2 7817   2.818   0.298   2.666
 2536WAT      O 7818   2.432   1.817   2.582
 2536WAT     H1 7819   2.457   1.813   2.489
 2536WAT     H2 7820   2.337   1.804   2.581
 2537WAT      O 7821   2.140   0.451   2.248
 2537WAT     H1 7822   2.225   0.495   2.241
 2537WAT     H2 7823   2.103   0.483   2.331
 2538WAT      O 7824   3.203   0.384   3.395
 2538WAT     H1 7825   3.153   0.458   3.429
 2538WAT     H2 7826   3.285   0.423   3.363
 2539WAT      O 7827   3.032   0.908   2.739
 2539WAT     H1 7828   2.938   0.910   2.757
 2539WAT     H2 7829   3.064   0.830   2.784
 2540WAT      O 7830   2.030   1.077   2.095
 2540WAT     H1 7831   2.107   1.065   2.152
 2540WAT     H2 7832   2.038   1.007   2.030
 2541WAT      O 7833   1.900   0.820   2.164
 2541WAT     H1 7834   1.908   0.725   2.175
 2541WAT     H2 7835   1.989   0.853   2.174
 2542WAT      O 7836   3.233   1.626   2.907
 2542WAT     H1 7837   3.245   1.708   2.954
 2542WAT     H2 7838   3.319   1.604   2.872
 2543WAT      O 7839   1.980   1.835   2.874
 2543WAT     H1 7840   2.053   1.780   2.901
 2543WAT     H2 7841   2.018   1.921   2.860
 2544WAT      O 7842   1.668   1.442   2.461
 2544WAT     H1 7843   1.576   1.466   2.460
 2544WAT     H2 7844   1.715   1.524   2.449
 2545WAT      O 7845   2.291   1.752   2.056
 2545WAT     H1 7846   2.370   1.781   2.011
 2545WAT     H2 7847   2.239   1.709   1.988
 2546WAT      O 7848   2.764   1.364   3.788
 2546WAT     H1 7849   2.703   1.366   3.714
 2546WAT     H2 7850   2.733   1.291   3.841
 2547WAT      O 7851   3.196   1.675   2.199
 2547WAT     H1 7852   3.167   1.634   2.117
 2547WAT     H2 7853   3.176   1.768   2.187
 2548WAT      O 7854   1.652   1.002   3.687
 2548WAT     H1 7855   1.703   0.944   3.744
 2548WAT     H2 7856   1.578   1.030   3.741
 2549WAT      O 7857   2.342   1.274   2.043
 2549WAT     H1 7858   2.332   1.213   2.115
 2549WAT     H2 7859   2.326   1.222   1.964
 2550WAT      O 7860   2.358   1.143   3.641
 2550WAT     H1 7861   2.281   1.200   3.632
 2550WAT     H2 7862   2.376   1.114   3.551
 2551WAT      O 7863   2.667   1.180   2.103
 2551WAT     H1 7864   2.612   1.225   2.168
 2551WAT     H2 7865   2.729   1.130   2.155
 2552WAT      O 7866   3.072   1.316   3.696
 2552WAT     H1 7867   3.146   1.350   3.646
 2552WAT     H2 7868   2.996   1.333   3.641
 2553WAT      O 7869   1.855   0.816   3.777
 2553WAT     H1 7870   1.860   0.786   3.868
 2553WAT     H2 7871   1.941   0.856   3.761
 2554WAT      O 7872   2.233   1.076   2.293
 2554WAT     H1 7873   2.275   1.060   2.377
 2554WAT     H2 7874   2.246   0.995   2.243
 2555WAT      O 7875   2.050   0.674   3.573
 2555WAT     H1 7876   1.996   0.625   3.511
 2555WAT     H2 7877   2.116   0.717   3.520
 2556WAT      O 7878   2.485   0.979   2.018
 2556WAT     H1 7879   2.537   0.907   1.981
 2556WAT     H2 7880   2.549   1.043   2.048
 2557WAT      O 7881   2.939   1.121   3.550
 2557WAT     H1 7882   2.981   1.136   3.635
 2557WAT     H2 7883   2.846   1.134   3.566
 2558WAT      O 7884   2.987   0.855   3.750
 2558WAT     H1 7885   3.045   0.779   3.741
 2558WAT     H2 7886   3.004   0.908   3.673
 2559WAT      O 7887   2.098   0.371   3.581
 2559WAT     H1 7888   2.089   0.309   3.509
 2559WAT     H2 7889   2.040   0.444   3.559
 2560WAT      O 7890   2.375   0.227   3.285
 2560WAT     H1 7891   2.330   0.229   3.200
 2560WAT     H2 7892   2.312   0.187   3.344
 2561WAT      O 7893   2.415   1.116   3.347
 2561WAT     H1 7894   2.457   1.200   3.330
 2561WAT     H2 7895   2.324   1.130   3.324
 2562WAT      O 7896   2.649   0.889   3.485
 2562WAT     H1 7897   2.661   0.830   3.559
 2562WAT     H2 7898   2.735   0.893   3.443
 2563WAT      O 7899   2.883   0.945   3.343
 2563WAT     H1 7900   2.830   0.997   3.282
 2563WAT     H2 7901   2.917   1.008   3.406
 2564WAT      O 7902   2.123   0.684   1.987
 2564WAT     H1 7903   2.103   0.597   2.023
 2564WAT     H2 7904   2.106   0.675   1.894
 2565WAT      O 7905   2.326   0.544   3.611
 2565WAT     H1 7906   2.385   0.513   3.680
 2565WAT     H2 7907   2.244   0.496   3.627
 2566WAT      O 7908   2.808   0.505   3.634
 2566WAT     H1 7909   2.739   0.439   3.628
 2566WAT     H2 7910   2.880   0.461   3.679
 2567WAT      O 7911   2.003   0.394   1.986
 2567WAT     H1 7912   2.033   0.394   1.895
 2567WAT     H2 7913   2.077   0.359   2.036
 2568WAT      O 7914   2.325   0.288   2.085
 2568WAT     H1 7915   2.290   0.220   2.027
 2568WAT     H2 7916   2.345   0.242   2.166
 2569WAT      O 7917   2.541   1.787   2.247
 2569WAT     H1 7918   2.631   1.821   2.249
 2569WAT     H2 7919   2.544   1.715   2.184
 2570WAT      O 7920   1.905   1.324   2.069
 2570WAT     H1 7921   1.949   1.378   2.135
 2570WAT     H2 7922   1.953   1.242   2.070
 2571WAT      O 7923   1.626   1.603   2.815
 2571WAT     H1 7924   1.659   1.516   2.791
 2571WAT     H2 7925   1.669   1.624   2.898
 2572WAT      O 7926   2.086   1.436   2.581
 2572WAT     H1 7927   2.056   1.424   2.671
 2572WAT     H2 7928   2.075   1.350   2.540
 2573WAT      O 7929   1.675   1.690   3.088
 2573WAT     H1 7930   1.632   1.708   3.172
 2573WAT     H2 7931   1.732   1.765   3.074
 2574WAT      O 7932   3.239   1.640   3.517
 2574WAT     H1 7933   3.179   1.646   3.443
 2574WAT     H2 7934   3.252   1.546   3.530
 2575WAT      O 7935   3.363   1.414   2.051
 2575WAT     H1 7936   3.280   1.421   2.098
 2575WAT     H2 7937   3.381   1.503   2.021
 2576WAT      O 7938   3.309   1.088   2.301
 2576WAT     H1 7939   3.385   1.145   2.312
 2576WAT     H2 7940   3.310   1.032   2.378
 2577WAT      O 7941   1.659   0.941   2.724
 2577WAT     H1 7942   1.593   0.914   2.660
 2577WAT     H2 7943   1.742   0.930   2.679
 2578WAT      O 7944   3.409   1.174   2.786
 2578WAT     H1 7945   3.446   1.096   2.745
 2578WAT     H2 7946   3.473   1.243   2.768
 2579WAT      O 7947   3.107   1.312   3.327
 2579WAT     H1 7948   3.026   1.355   3.353
 2579WAT     H2 7949   3.148   1.374   3.266
 2580WAT      O 7950   3.314   1.118   2.017
 2580WAT     H1 7951   3.341   1.209   2.004
 2580WAT     H2 7952   3.295   1.111   2.111
 2581WAT      O 7953   2.953   0.420   2.146
 2581WAT     H1 7954   2.995   0.402   2.062
 2581WAT     H2 7955   2.923   0.335   2.178
 2582WAT      O 7956   3.303   0.912   2.516
 2582WAT     H1 7957   3.266   0.835   2.473
 2582WAT     H2 7958   3.230   0.950   2.565
 2583WAT      O 7959   1.762   0.979   3.178
 2583WAT     H1 7960   1.799   0.971   3.266
 2583WAT     H2 7961   1.705   0.903   3.168
 2584WAT      O 7962   3.242   0.826   3.480
 2584WAT     H1 7963   3.219   0.803   3.390
 2584WAT     H2 7964   3.268   0.918   3.475
 2585WAT      O 7965   1.717   0.670   3.569
 2585WAT     H1 7966   1.628   0.667   3.603
 2585WAT     H2 7967   1.771   0.690   3.645
 2586WAT      O 7968   3.086   0.349   3.757
 2586WAT     H1 7969   3.174   0.350   3.796
 2586WAT     H2 7970   3.087   0.275   3.696
 2587WAT      O 7971   1.580   0.662   2.319
 2587WAT     H1 7972   1.490   0.688   2.301
 2587WAT     H2 7973   1.628   0.689   2.241
 2588WAT      O 7974   3.231   0.734   2.846
 2588WAT     H1 7975   3.283   0.685   2.783
 2588WAT     H2 7976   3.289   0.748   2.921
 2589WAT      O 7977   3.249   0.742   3.199
 2589WAT     H1 7978   3.154   0.739   3.210
 2589WAT     H2 7979   3.267   0.833   3.175
 2590WAT      O 7980   1.834   0.568   2.110
 2590WAT     H1 7981   1.905   0.525   2.061
 2590WAT     H2 7982   1.763   0.574   2.046
 2591WAT      O 7983   3.180   0.660   2.440
 2591WAT     H1 7984   3.229   0.637   2.519
 2591WAT     H2 7985   3.160   0.576   2.399
 2592WAT      O 7986   3.323   0.523   2.694
 2592WAT     H1 7987   3.312   0.508   2.787
 2592WAT     H2 7988   3.399   0.471   2.669
 2593WAT      O 7989   3.412   0.307   2.018
 2593WAT     H1 7990   3.504   0.293   1.997
 2593WAT     H2 7991   3.409   0.314   2.113
 2594WAT      O 7992   3.419   0.384   2.280
 2594WAT     H1 7993   3.340   0.377   2.333
 2594WAT     H2 7994   3.439   0.477   2.279
 2595WAT      O 7995   3.113   1.788   2.680
 2595WAT     H1 7996   3.173   1.755   2.612
 2595WAT     H2 7997   3.139   1.740   2.759
 2596WAT      O 7998   2.494   0.233   3.630
 2596WAT     H1 7999   2.488   0.292   3.705
 2596WAT     H2 8000   2.588   0.222   3.616
 2597WAT      O 8001   3.400   1.788   3.335
 2597WAT     H1 8002   3.351   1.828   3.263
 2597WAT     H2 8003   3.339   1.726   3.374
 2598WAT      O 8004   2.923   0.275   3.365
 2598WAT     H1 8005   2.890   0.194   3.327
 2598WAT     H2 8006   3.018   0.271   3.353
 2599WAT      O 8007   3.168   1.852   3.063
 2599WAT     H1 8008   3.122   1.928   3.025
 2599WAT     H2 8009   3.105   1.781   3.057
 2600WAT      O 8010   1.851   1.462   3.302
 2600WAT     H1 8011   1.778   1.400   3.295
 2600WAT     H2 8012   1.857   1.501   3.215
 2601WAT      O 8013   2.211   1.683   2.980
 2601WAT     H1 8014   2.263   1.622   2.928
 2601WAT     H2 8015   2.276   1.734   3.029
 2602WAT      O 8016   2.485   1.772   3.063
 2602WAT     H1 8017   2.514   1.747   2.975
 2602WAT     H2 8018   2.536   1.717   3.122
 2603WAT      O 8019   3.062   0.217   2.925
 2603WAT     H1 8020   3.106   0.211   2.840
 2603WAT     H2 8021   3.035   0.308   2.932
 2604WAT      O 8022   1.679   1.794   2.623
 2604WAT     H1 8023   1.662   1.730   2.692
 2604WAT     H2 8024   1.593   1.814   2.588
 2605WAT      O 8025   1.741   0.177   2.373
 2605WAT     H1 8026   1.817   0.188   2.316
 2605WAT     H2 8027   1.695   0.261   2.368
 2606WAT      O 8028   2.396   0.388   2.672
 2606WAT     H1 8029   2.314   0.351   2.638
 2606WAT     H2 8030   2.446   0.313   2.702
 2607WAT      O 8031   1.840   1.663   2.367
 2607WAT     H1 8032   1.787   1.701   2.297
 2607WAT     H2 8033   1.832   1.726   2.439
 2608WAT      O 8034   3.315   1.819   2.499
 2608WAT     H1 8035   3.333   1.750   2.435
 2608WAT     H2 8036   3.246   1.871   2.460
 2609WAT      O 8037   2.100   1.858   2.255
 2609WAT     H1 8038   2.173   1.829   2.200
 2609WAT     H2 8039   2.126   1.834   2.344
 2610WAT      O 8040   2.016   1.469   2.255
 2610WAT     H1 8041   1.953   1.516   2.310
 2610WAT     H2 8042   2.027   1.385   2.298
 2611WAT      O 8043   2.761   0.875   0.870
 2611WAT     H1 8044   2.753   0.783   0.843
 2611WAT     H2 8045   2.720   0.924   0.799
 2612WAT      O 8046   2.575   1.052   1.058
 2612WAT     H1 8047   2.497   1.004   1.087
 2612WAT     H2 8048   2.640   0.984   1.041
 2613WAT      O 8049   1.976   1.084   1.146
 2613WAT     H1 8050   1.893   1.058   1.186
 2613WAT     H2 8051   2.037   1.091   1.219
 2614WAT      O 8052   2.977   1.493   0.936
 2614WAT     H1 8053   2.930   1.416   0.969
 2614WAT     H2 8054   3.058   1.496   0.987
 2615WAT      O 8055   1.974   1.487   1.165
 2615WAT     H1 8056   2.004   1.398   1.148
 2615WAT     H2 8057   2.049   1.543   1.143
 2616WAT      O 8058   1.817   0.580   0.524
 2616WAT     H1 8059   1.728   0.614   0.514
 2616WAT     H2 8060   1.846   0.560   0.435
 2617WAT      O 8061   1.613   0.840   1.113
 2617WAT     H1 8062   1.671   0.763   1.113
 2617WAT     H2 8063   1.613   0.869   1.022
 2618WAT      O 8064   2.599   1.721   0.898
 2618WAT     H1 8065   2.537   1.767   0.841
 2618WAT     H2 8066   2.685   1.737   0.858
 2619WAT      O 8067   2.519   1.320   1.059
 2619WAT     H1 8068   2.512   1.226   1.043
 2619WAT     H2 8069   2.595   1.329   1.116
 2620WAT      O 8070   1.738   0.380   1.291
 2620WAT     H1 8071   1.720   0.291   1.319
 2620WAT     H2 8072   1.697   0.435   1.359
 2621WAT      O 8073   2.622   0.601   1.082
 2621WAT     H1 8074   2.659   0.513   1.070
 2621WAT     H2 8075   2.612   0.634   0.992
 2622WAT      O 8076   2.035   0.438   0.628
 2622WAT     H1 8077   2.045   0.528   0.658
 2622WAT     H2 8078   1.944   0.433   0.599
 2623WAT      O 8079   3.000   0.350   0.775
 2623WAT     H1 8080   3.082   0.301   0.779
 2623WAT     H2 8081   3.003   0.409   0.850
 2624WAT      O 8082   1.800   0.630   1.152
 2624WAT     H1 8083   1.868   0.656   1.214
 2624WAT     H2 8084   1.768   0.546   1.186
 2625WAT      O 8085   2.219   0.735   1.061
 2625WAT     H1 8086   2.270   0.785   1.125
 2625WAT     H2 8087   2.272   0.657   1.043
 2626WAT      O 8088   3.429   0.552   1.431
 2626WAT     H1 8089   3.358   0.591   1.379
 2626WAT     H2 8090   3.455   0.621   1.491
 2627WAT      O 8091   2.686   1.210   0.637
 2627WAT     H1 8092   2.624   1.256   0.581
 2627WAT     H2 8093   2.737   1.279   0.679
 2628WAT      O 8094   2.172   1.163   1.305
 2628WAT     H1 8095   2.139   1.225   1.370
 2628WAT     H2 8096   2.190   1.215   1.227
 2629WAT      O 8097   3.024   0.544   1.052
 2629WAT     H1 8098   2.953   0.573   1.110
 2629WAT     H2 8099   3.060   0.625   1.016
 2630WAT      O 8100   2.015   0.370   1.288
 2630WAT     H1 8101   2.049   0.454   1.259
 2630WAT     H2 8102   1.921   0.385   1.300
 2631WAT      O 8103   2.093   1.359   1.487
 2631WAT     H1 8104   2.155   1.427   1.459
 2631WAT     H2 8105   2.007   1.400   1.478
 2632WAT      O 8106   1.623   1.278   0.375
 2632WAT     H1 8107   1.585   1.327   0.302
 2632WAT     H2 8108   1.648   1.346   0.438
 2633WAT      O 8109   3.185   1.506   1.278
 2633WAT     H1 8110   3.117   1.573   1.278
 2633WAT     H2 8111   3.239   1.526   1.202
 2634WAT      O 8112   3.330   0.489   1.091
 2634WAT     H1 8113   3.236   0.492   1.104
 2634WAT     H2 8114   3.363   0.570   1.130
 2635WAT      O 8115   2.939   1.690   1.150
 2635WAT     H1 8116   2.940   1.650   1.063
 2635WAT     H2 8117   2.884   1.768   1.139
 2636WAT      O 8118   3.068   1.362   0.659
 2636WAT     H1 8119   3.057   1.268   0.671
 2636WAT     H2 8120   3.068   1.399   0.747
 2637WAT      O 8121   2.879   1.181   1.283
 2637WAT     H1 8122   2.920   1.159   1.199
 2637WAT     H2 8123   2.951   1.206   1.340
 2638WAT      O 8124   2.622   0.925   0.594
 2638WAT     H1 8125   2.530   0.918   0.617
 2638WAT     H2 8126   2.638   1.019   0.583
 2639WAT      O 8127   2.621   0.552   0.294
 2639WAT     H1 8128   2.527   0.568   0.303
 2639WAT     H2 8129   2.653   0.624   0.239
 2640WAT      O 8130   3.273   1.020   1.292
 2640WAT     H1 8131   3.190   1.027   1.244
 2640WAT     H2 8132   3.333   1.079   1.245
 2641WAT      O 8133   3.025   1.081   0.645
 2641WAT     H1 8134   2.964   1.048   0.580
 2641WAT     H2 8135   3.024   1.017   0.715
 2642WAT      O 8136   2.970   0.699   1.386
 2642WAT     H1 8137   2.928   0.782   1.412
 2642WAT     H2 8138   2.896   0.641   1.367
 2643WAT      O 8139   2.183   0.978   0.873
 2643WAT     H1 8140   2.143   0.907   0.823
 2643WAT     H2 8141   2.192   0.943   0.961
 2644WAT      O 8142   2.230   1.346   1.089
 2644WAT     H1 8143   2.200   1.286   1.021
 2644WAT     H2 8144   2.325   1.350   1.078
 2645WAT      O 8145   2.054   0.655   1.251
 2645WAT     H1 8146   2.109   0.666   1.173
 2645WAT     H2 8147   2.106   0.693   1.322
 2646WAT      O 8148   3.039   1.704   1.455
 2646WAT     H1 8149   2.991   1.784   1.436
 2646WAT     H2 8150   2.970   1.639   1.470
 2647WAT      O 8151   2.139   1.320   1.754
 2647WAT     H1 8152   2.049   1.343   1.779
 2647WAT     H2 8153   2.142   1.333   1.659
 2648WAT      O 8154   2.843   1.005   0.345
 2648WAT     H1 8155   2.887   0.921   0.331
 2648WAT     H2 8156   2.914   1.068   0.354
 2649WAT      O 8157   2.022   1.007   1.612
 2649WAT     H1 8158   2.008   1.095   1.648
 2649WAT     H2 8159   1.934   0.973   1.597
 2650WAT      O 8160   2.654   1.499   0.742
 2650WAT     H1 8161   2.698   1.573   0.701
 2650WAT     H2 8162   2.648   1.523   0.835
 2651WAT      O 8163   2.201   1.602   1.832
 2651WAT     H1 8164   2.199   1.642   1.746
 2651WAT     H2 8165   2.185   1.509   1.816
 2652WAT      O 8166   1.853   0.867   0.623
 2652WAT     H1 8167   1.841   0.940   0.561
 2652WAT     H2 8168   1.822   0.790   0.575
 2653WAT      O 8169   3.397   1.680   1.962
 2653WAT     H1 8170   3.444   1.728   2.030
 2653WAT     H2 8171   3.459   1.673   1.890
 2654WAT      O 8172   1.617   1.184   1.203
 2654WAT     H1 8173   1.625   1.198   1.109
 2654WAT     H2 8174   1.678   1.114   1.223
 2655WAT      O 8175   1.741   1.354   0.844
 2655WAT     H1 8176   1.701   1.369   0.759
 2655WAT     H2 8177   1.830   1.326   0.824
 2656WAT      O 8178   3.337   1.399   1.678
 2656WAT     H1 8179   3.350   1.375   1.586
 2656WAT     H2 8180   3.341   1.316   1.725
 2657WAT      O 8181   2.723   1.769   1.535
 2657WAT     H1 8182   2.775   1.760   1.615
 2657WAT     H2 8183   2.639   1.804   1.564
 2658WAT      O 8184   2.921   1.798   0.478
 2658WAT     H1 8185   2.905   1.769   0.568
 2658WAT     H2 8186   2.904   1.720   0.424
 2659WAT      O 8187   2.169   1.776   0.656
 2659WAT     H1 8188   2.151   1.684   0.634
 2659WAT     H2 8189   2.083   1.812   0.680
 2660WAT      O 8190   2.891   1.549   0.334
 2660WAT     H1 8191   2.822   1.548   0.268
 2660WAT     H2 8192   2.965   1.506   0.291
 2661WAT      O 8193   2.847   1.711   0.741
 2661WAT     H1 8194   2.893   1.633   0.773
 2661WAT     H2 8195   2.881   1.782   0.796
 2662WAT      O 8196   3.322   0.604   1.775
 2662WAT     H1 8197   3.261   0.655   1.722
 2662WAT     H2 8198   3.290   0.514   1.769
 2663WAT      O 8199   1.622   1.288   1.457
 2663WAT     H1 8200   1.639   1.242   1.375
 2663WAT     H2 8201   1.669   1.238   1.524
 2664WAT      O 8202   2.100   0.202   0.961
 2664WAT     H1 8203   2.055   0.280   0.928
 2664WAT     H2 8204   2.156   0.234   1.032
 2665WAT      O 8205   2.528   0.488   1.521
 2665WAT     H1 8206   2.482   0.509   1.602
 2665WAT     H2 8207   2.488   0.407   1.491
 2666WAT      O 8208   3.028   0.610   1.634
 2666WAT     H1 8209   2.943   0.580   1.666
 2666WAT     H2 8210   3.012   0.635   1.543
 2667WAT      O 8211   2.738   0.760   1.844
 2667WAT     H1 8212   2.770   0.677   1.810
 2667WAT     H2 8213   2.817   0.813   1.859
 2668WAT      O 8214   2.303   0.256   1.147
 2668WAT     H1 8215   2.333   0.347   1.139
 2668WAT     H2 8216   2.358   0.207   1.085
 2669WAT      O 8217   2.079   0.714   0.734
 2669WAT     H1 8218   2.056   0.692   0.824
 2669WAT     H2 8219   2.001   0.757   0.699
 2670WAT      O 8220   2.802   0.715   0.594
 2670WAT     H1 8221   2.742   0.787   0.575
 2670WAT     H2 8222   2.857   0.708   0.515
 2671WAT      O 8223   2.323   0.804   1.800
 2671WAT     H1 8224   2.313   0.710   1.785
 2671WAT     H2 8225   2.407   0.826   1.761
 2672WAT      O 8226   2.662   0.578   0.797
 2672WAT     H1 8227   2.702   0.610   0.715
 2672WAT     H2 8228   2.699   0.490   0.808
 2673WAT      O 8229   1.836   0.445   1.616
 2673WAT     H1 8230   1.797   0.530   1.636
 2673WAT     H2 8231   1.767   0.381   1.635
 2674WAT      O 8232   2.493   0.453   1.923
 2674WAT     H1 8233   2.424   0.434   1.986
 2674WAT     H2 8234   2.568   0.482   1.976
 2675WAT      O 8235   1.566   0.237   1.019
 2675WAT     H1 8236   1.537   0.294   1.090
 2675WAT     H2 8237   1.641   0.189   1.055
 2676WAT      O 8238   2.721   0.837   1.206
 2676WAT     H1 8239   2.648   0.888   1.241
 2676WAT     H2 8240   2.681   0.756   1.176
 2677WAT      O 8241   2.365   0.505   1.047
 2677WAT     H1 8242   2.365   0.461   0.962
 2677WAT     H2 8243   2.454   0.537   1.057
 2678WAT      O 8244   1.950   0.493   0.943
 2678WAT     H1 8245   1.916   0.541   1.018
 2678WAT     H2 8246   1.874   0.448   0.907
 2679WAT      O 8247   2.371   0.605   0.346
 2679WAT     H1 8248   2.383   0.601   0.441
 2679WAT     H2 8249   2.332   0.691   0.330
 2680WAT      O 8250   2.767   0.383   1.147
 2680WAT     H1 8251   2.769   0.428   1.232
 2680WAT     H2 8252   2.742   0.293   1.169
 2681WAT      O 8253   2.272   0.836   0.286
 2681WAT     H1 8254   2.215   0.791   0.223
 2681WAT     H2 8255   2.343   0.872   0.232
 2682WAT      O 8256   1.780   1.226   1.673
 2682WAT     H1 8257   1.741   1.162   1.733
 2682WAT     H2 8258   1.811   1.296   1.730
 2683WAT      O 8259   2.395   0.911   1.221
 2683WAT     H1 8260   2.432   0.863   1.296
 2683WAT     H2 8261   2.376   0.998   1.255
 2684WAT      O 8262   1.681   0.385   0.834
 2684WAT     H1 8263   1.653   0.349   0.918
 2684WAT     H2 8264   1.675   0.312   0.773
 2685WAT      O 8265   2.174   0.815   1.453
 2685WAT     H1 8266   2.143   0.903   1.476
 2685WAT     H2 8267   2.269   0.821   1.457
 2686WAT      O 8268   2.027   1.235   0.513
 2686WAT     H1 8269   1.949   1.181   0.497
 2686WAT     H2 8270   2.100   1.184   0.479
 2687WAT      O 8271   3.103   1.135   1.092
 2687WAT     H1 8272   3.175   1.185   1.053
 2687WAT     H2 8273   3.082   1.067   1.028
 2688WAT      O 8274   2.649   0.275   0.506
 2688WAT     H1 8275   2.567   0.225   0.499
 2688WAT     H2 8276   2.629   0.358   0.465
 2689WAT      O 8277   2.641   1.142   1.681
 2689WAT     H1 8278   2.634   1.050   1.655
 2689WAT     H2 8279   2.578   1.152   1.752
 2690WAT      O 8280   2.920   0.712   0.336
 2690WAT     H1 8281   3.009   0.743   0.318
 2690WAT     H2 8282   2.917   0.624   0.297
 2691WAT      O 8283   2.031   1.202   0.877
 2691WAT     H1 8284   2.083   1.122   0.871
 2691WAT     H2 8285   1.986   1.196   0.961
 2692WAT      O 8286   2.520   1.329   0.404
 2692WAT     H1 8287   2.554   1.403   0.354
 2692WAT     H2 8288   2.437   1.360   0.440
 2693WAT      O 8289   1.779   0.899   1.568
 2693WAT     H1 8290   1.744   0.965   1.627
 2693WAT     H2 8291   1.750   0.816   1.605
 2694WAT      O 8292   2.100   0.945   1.856
 2694WAT     H1 8293   2.070   0.959   1.767
 2694WAT     H2 8294   2.177   0.889   1.847
 2695WAT      O 8295   2.634   1.424   1.656
 2695WAT     H1 8296   2.635   1.331   1.634
 2695WAT     H2 8297   2.563   1.433   1.720
 2696WAT      O 8298   3.147   0.843   0.283
 2696WAT     H1 8299   3.139   0.886   0.198
 2696WAT     H2 8300   3.219   0.889   0.326
 2697WAT      O 8301   3.255   1.088   1.590
 2697WAT     H1 8302   3.182   1.148   1.571
 2697WAT     H2 8303   3.308   1.088   1.511
 2698WAT      O 8304   3.250   1.528   0.556
 2698WAT     H1 8305   3.186   1.463   0.583
 2698WAT     H2 8306   3.211   1.569   0.478
 2699WAT      O 8307   2.808   1.261   0.940
 2699WAT     H1 8308   2.843   1.201   0.874
 2699WAT     H2 8309   2.720   1.229   0.957
 2700WAT      O 8310   2.417   1.337   0.681
 2700WAT     H1 8311   2.485   1.392   0.719
 2700WAT     H2 8312   2.338   1.391   0.685
 2701WAT      O 8313   1.631   0.899   0.230
 2701WAT     H1 8314   1.717   0.927   0.259
 2701WAT     H2 8315   1.581   0.980   0.219
 2702WAT      O 8316   2.347   1.038   0.642
 2702WAT     H1 8317   2.393   1.119   0.665
 2702WAT     H2 8318   2.312   1.006   0.725
 2703WAT      O 8319   2.577   1.589   1.365
 2703WAT     H1 8320   2.642   1.609   1.433
 2703WAT     H2 8321   2.614   1.512   1.320
 2704WAT      O 8322   2.705   1.389   1.237
 2704WAT     H1 8323   2.769   1.319   1.248
 2704WAT     H2 8324   2.757   1.467   1.219
 2705WAT      O 8325   2.882   1.469   1.557
 2705WAT     H1 8326   2.915   1.528   1.625
 2705WAT     H2 8327   2.790   1.456   1.580
 2706WAT      O 8328   1.667   1.820   0.287
 2706WAT     H1 8329   1.703   1.880   0.221
 2706WAT     H2 8330   1.653   1.875   0.364
 2707WAT      O 8331   1.637   0.248   1.636
 2707WAT     H1 8332   1.566   0.268   1.696
 2707WAT     H2 8333   1.679   0.170   1.673
 2708WAT      O 8334   3.047   1.209   0.375
 2708WAT     H1 8335   3.018   1.255   0.454
 2708WAT     H2 8336   3.127   1.163   0.402
 2709WAT      O 8337   1.666   1.647   1.734
 2709WAT     H1 8338   1.677   1.553   1.720
 2709WAT     H2 8339   1.600   1.673   1.669
 2710WAT      O 8340   2.465   1.474   1.874
 2710WAT     H1 8341   2.433   1.402   1.929
 2710WAT     H2 8342   2.397   1.541   1.882
 2711WAT      O 8343   2.269   1.558   0.369
 2711WAT     H1 8344   2.268   1.632   0.307
 2711WAT     H2 8345   2.177   1.534   0.378
 2712WAT      O 8346   1.829   1.081   0.443
 2712WAT     H1 8347   1.768   1.155   0.444
 2712WAT     H2 8348   1.877   1.090   0.360
 2713WAT      O 8349   2.786   0.497   1.411
 2713WAT     H1 8350   2.823   0.415   1.443
 2713WAT     H2 8351   2.700   0.503   1.452
 2714WAT      O 8352   3.123   0.393   0.491
 2714WAT     H1 8353   3.060   0.403   0.420
 2714WAT     H2 8354   3.073   0.415   0.570
 2715WAT      O 8355   2.320   0.620   0.633
 2715WAT     H1 8356   2.249   0.667   0.677
 2715WAT     H2 8357   2.348   0.555   0.696
 2716WAT      O 8358   2.482   0.762   1.433
 2716WAT     H1 8359   2.532   0.810   1.499
 2716WAT     H2 8360   2.497   0.670   1.454
 2717WAT      O 8361   2.723   0.293   0.777
 2717WAT     H1 8362   2.711   0.295   0.682
 2717WAT     H2 8363   2.818   0.298   0.789
 2718WAT      O 8364   2.432   1.817   0.704
 2718WAT     H1 8365   2.457   1.813   0.612
 2718WAT     H2 8366   2.337   1.804   0.704
 2719WAT      O 8367   2.140   0.451   0.371
 2719WAT     H1 8368   2.225   0.495   0.364
 2719WAT     H2 8369   2.103   0.483   0.453
 2720WAT      O 8370   3.203   0.384   1.517
 2720WAT     H1 8371   3.153   0.458   1.551
 2720WAT     H2 8372   3.285   0.423   1.486
 2721WAT      O 8373   3.032   0.908   0.862
 2721WAT     H1 8374   2.938   0.910   0.879
 2721WAT     H2 8375   3.064   0.830   0.906
 2722WAT      O 8376   1.900   0.820   0.286
 2722WAT     H1 8377   1.908   0.725   0.297
 2722WAT     H2 8378   1.989   0.853   0.297
 2723WAT      O 8379   3.233   1.626   1.029
 2723WAT     H1 8380   3.245   1.708   1.077
 2723WAT     H2 8381   3.319   1.604   0.995
 2724WAT      O 8382   1.980   1.835   0.997
 2724WAT     H1 8383   2.053   1.780   1.024
 2724WAT     H2 8384   2.018   1.921   0.983
 2725WAT      O 8385   1.668   1.442   0.584
 2725WAT     H1 8386   1.576   1.466   0.583
 2725WAT     H2 8387   1.715   1.524   0.572
 2726WAT      O 8388   1.880   1.753   1.915
 2726WAT     H1 8389   1.960   1.785   1.957
 2726WAT     H2 8390   1.829   1.717   1.988
 2727WAT      O 8391   2.764   1.364   1.910
 2727WAT     H1 8392   2.703   1.366   1.836
 2727WAT     H2 8393   2.733   1.291   1.964
 2728WAT      O 8394   2.907   1.737   1.771
 2728WAT     H1 8395   3.002   1.728   1.766
 2728WAT     H2 8396   2.892   1.803   1.839
 2729WAT      O 8397   3.196   1.675   0.321
 2729WAT     H1 8398   3.167   1.634   0.240
 2729WAT     H2 8399   3.176   1.768   0.309
 2730WAT      O 8400   1.652   1.002   1.810
 2730WAT     H1 8401   1.703   0.944   1.867
 2730WAT     H2 8402   1.578   1.030   1.864
 2731WAT      O 8403   2.358   1.143   1.763
 2731WAT     H1 8404   2.281   1.200   1.755
 2731WAT     H2 8405   2.376   1.114   1.674
 2732WAT      O 8406   2.667   1.180   0.226
 2732WAT     H1 8407   2.612   1.225   0.290
 2732WAT     H2 8408   2.729   1.130   0.278
 2733WAT      O 8409   3.072   1.316   1.819
 2733WAT     H1 8410   3.146   1.350   1.769
 2733WAT     H2 8411   2.996   1.333   1.764
 2734WAT      O 8412   1.855   0.816   1.899
 2734WAT     H1 8413   1.860   0.786   1.990
 2734WAT     H2 8414   1.941   0.856   1.883
 2735WAT      O 8415   2.233   1.076   0.415
 2735WAT     H1 8416   2.275   1.060   0.500
 2735WAT     H2 8417   2.246   0.995   0.366
 2736WAT      O 8418   2.050   0.674   1.696
 2736WAT     H1 8419   1.996   0.625   1.633
 2736WAT     H2 8420   2.116   0.717   1.643
 2737WAT      O 8421   2.939   1.121   1.672
 2737WAT     H1 8422   2.981   1.136   1.757
 2737WAT     H2 8423   2.846   1.134   1.689
 2738WAT      O 8424   2.987   0.855   1.873
 2738WAT     H1 8425   3.045   0.779   1.864
 2738WAT     H2 8426   3.004   0.908   1.795
 2739WAT      O 8427   2.098   0.371   1.704
 2739WAT     H1 8428   2.089   0.309   1.632
 2739WAT     H2 8429   2.040   0.444   1.681
 2740WAT      O 8430   2.375   0.227   1.407
 2740WAT     H1 8431   2.330   0.229   1.323
 2740WAT     H2 8432   2.312   0.187   1.467
 2741WAT      O 8433   2.415   1.116   1.469
 2741WAT     H1 8434   2.457   1.200   1.452
 2741WAT     H2 8435   2.324   1.130   1.446
 2742WAT      O 8436   2.649   0.889   1.608
 2742WAT     H1 8437   2.661   0.830   1.682
 2742WAT     H2 8438   2.735   0.893   1.566
 2743WAT      O 8439   2.883   0.945   1.465
 2743WAT     H1 8440   2.830   0.997   1.405
 2743WAT     H2 8441   2.917   1.008   1.528
 2744WAT      O 8442   2.201   1.747   1.581
 2744WAT     H1 8443   2.147   1.819   1.549
 2744WAT     H2 8444   2.226   1.699   1.502
 2745WAT      O 8445   2.326   0.544   1.734
 2745WAT     H1 8446   2.385   0.513   1.802
 2745WAT     H2 8447   2.244   0.496   1.749
 2746WAT      O 8448   2.808   0.505   1.757
 2746WAT     H1 8449   2.739   0.439   1.750
 2746WAT     H2 8450   2.880   0.461   1.801
 2747WAT      O 8451   2.486   1.870   1.607
 2747WAT     H1 8452   2.479   1.961   1.638
 2747WAT     H2 8453   2.396   1.838   1.604
 2748WAT      O 8454   2.541   1.787   0.369
 2748WAT     H1 8455   2.631   1.821   0.371
 2748WAT     H2 8456   2.544   1.715   0.306
 2749WAT      O 8457   1.905   1.324   0.192
 2749WAT     H1 8458   1.949   1.378   0.258
 2749WAT     H2 8459   1.953   1.242   0.193
 2750WAT      O 8460   1.626   1.603   0.937
 2750WAT     H1 8461   1.659   1.516   0.914
 2750WAT     H2 8462   1.669   1.624   1.020
 2751WAT      O 8463   2.086   1.436   0.703
 2751WAT     H1 8464   2.056   1.424   0.793
 2751WAT     H2 8465   2.075   1.350   0.662
 2752WAT      O 8466   1.675   1.690   1.211
 2752WAT     H1 8467   1.632   1.708   1.294
 2752WAT     H2 8468   1.732   1.765   1.197
 2753WAT      O 8469   3.239   1.640   1.640
 2753WAT     H1 8470   3.179   1.646   1.565
 2753WAT     H2 8471   3.252   1.546   1.653
 2754WAT      O 8472   3.309   1.088   0.424
 2754WAT     H1 8473   3.385   1.145   0.434
 2754WAT     H2 8474   3.310   1.032   0.501
 2755WAT      O 8475   1.659   0.941   0.847
 2755WAT     H1 8476   1.593   0.914   0.782
 2755WAT     H2 8477   1.742   0.930   0.802
 2756WAT      O 8478   3.409   1.174   0.908
 2756WAT     H1 8479   3.446   1.096   0.868
 2756WAT     H2 8480   3.473   1.243   0.890
 2757WAT      O 8481   3.107   1.312   1.450
 2757WAT     H1 8482   3.026   1.355   1.476
 2757WAT     H2 8483   3.148   1.374   1.388
 2758WAT      O 8484   2.953   0.420   0.269
 2758WAT     H1 8485   2.995   0.402   0.185
 2758WAT     H2 8486   2.923   0.335   0.300
 2759WAT      O 8487   3.303   0.912   0.639
 2759WAT     H1 8488   3.266   0.835   0.596
 2759WAT     H2 8489   3.230   0.950   0.688
 2760WAT      O 8490   1.762   0.979   1.301
 2760WAT     H1 8491   1.799   0.971   1.389
 2760WAT     H2 8492   1.705   0.903   1.291
 2761WAT      O 8493   3.242   0.826   1.602
 2761WAT     H1 8494   3.219   0.803   1.512
 2761WAT     H2 8495   3.268   0.918   1.598
 2762WAT      O 8496   1.717   0.670   1.691
 2762WAT     H1 8497   1.628   0.667   1.725
 2762WAT     H2 8498   1.771   0.690   1.768
 2763WAT      O 8499   3.086   0.349   1.880
 2763WAT     H1 8500   3.174   0.350   1.918
 2763WAT     H2 8501   3.087   0.275   1.819
 2764WAT      O 8502   1.580   0.662   0.441
 2764WAT     H1 8503   1.490   0.688   0.424
 2764WAT     H2 8504   1.628   0.689   0.363
 2765WAT      O 8505   3.231   0.734   0.969
 2765WAT     H1 8506   3.283   0.685   0.906
 2765WAT     H2 8507   3.289   0.748   1.043
 2766WAT      O 8508   3.249   0.742   1.321
 2766WAT     H1 8509   3.154   0.739   1.333
 2766WAT     H2 8510   3.267   0.833   1.298
 2767WAT      O 8511   1.834   0.568   0.232
 2767WAT     H1 8512   1.905   0.525   0.184
 2767WAT     H2 8513   1.763   0.574   0.169
 2768WAT      O 8514   3.180   0.660   0.563
 2768WAT     H1 8515   3.229   0.637   0.641
 2768WAT     H2 8516   3.160   0.576   0.521
 2769WAT      O 8517   3.323   0.523   0.816
 2769WAT     H1 8518   3.312   0.508   0.910
 2769WAT     H2 8519   3.399   0.471   0.792
 2770WAT      O 8520   3.419   0.384   0.403
 2770WAT     H1 8521   3.340   0.377   0.456
 2770WAT     H2 8522   3.439   0.477   0.402
 2771WAT      O 8523   3.113   1.788   0.802
 2771WAT     H1 8524   3.173   1.755   0.735
 2771WAT     H2 8525   3.139   1.740   0.881
 2772WAT      O 8526   1.904   1.431   1.817
 2772WAT     H1 8527   1.900   1.394   1.905
 2772WAT     H2 8528   1.917   1.524   1.831
 2773WAT      O 8529   2.274   1.586   1.377
 2773WAT     H1 8530   2.250   1.613   1.289
 2773WAT     H2 8531   2.368   1.603   1.383
 2774WAT      O 8532   2.494   0.233   1.753
 2774WAT     H1 8533   2.488   0.292   1.828
 2774WAT     H2 8534   2.588   0.222   1.738
 2775WAT      O 8535   3.400   1.788   1.457
 2775WAT     H1 8536   3.351   1.828   1.386
 2775WAT     H2 8537   3.339   1.726   1.497
 2776WAT      O 8538   1.888   1.725   1.529
 2776WAT     H1 8539   1.828   1.712   1.603
 2776WAT     H2 8540   1.887   1.642   1.483
 2777WAT      O 8541   2.923   0.275   1.488
 2777WAT     H1 8542   2.890   0.194   1.450
 2777WAT     H2 8543   3.018   0.271   1.475
 2778WAT      O 8544   3.168   1.852   1.185
 2778WAT     H1 8545   3.122   1.928   1.148
 2778WAT     H2 8546   3.105   1.781   1.179
 2779WAT      O 8547   1.851   1.462   1.424
 2779WAT     H1 8548   1.778   1.400   1.417
 2779WAT     H2 8549   1.857   1.501   1.337
 2780WAT      O 8550   2.211   1.683   1.103
 2780WAT     H1 8551   2.263   1.622   1.050
 2780WAT     H2 8552   2.276   1.734   1.152
 2781WAT      O 8553   2.485   1.772   1.185
 2781WAT     H1 8554   2.514   1.747   1.098
 2781WAT     H2 8555   2.536   1.717   1.244
 2782WAT      O 8556   3.062   0.217   1.048
 2782WAT     H1 8557   3.106   0.211   0.963
 2782WAT     H2 8558   3.035   0.308   1.055
 2783WAT      O 8559   1.679   1.794   0.745
 2783WAT     H1 8560   1.662   1.730   0.815
 2783WAT     H2 8561   1.593   1.814   0.710
 2784WAT      O 8562   1.741   0.177   0.495
 2784WAT     H1 8563   1.817   0.188   0.438
 2784WAT     H2 8564   1.695   0.261   0.491
 2785WAT      O 8565   2.396   0.388   0.794
 2785WAT     H1 8566   2.314   0.351   0.760
 2785WAT     H2 8567   2.446   0.313   0.825
 2786WAT      O 8568   1.840   1.663   0.490
 2786WAT     H1 8569   1.787   1.701   0.419
 2786WAT     H2 8570   1.832   1.726   0.562
 2787WAT      O 8571   2.492   1.865   1.922
 2787WAT     H1 8572   2.585   1.841   1.926
 2787WAT     H2 8573   2.490   1.947   1.874
 2788WAT      O 8574   3.315   1.819   0.622
 2788WAT     H1 8575   3.333   1.750   0.557
 2788WAT     H2 8576   3.246   1.871   0.583
 2789WAT      O 8577   2.100   1.858   0.377
 2789WAT     H1 8578   2.173   1.829   0.322
 2789WAT     H2 8579   2.126   1.834   0.466
 2790WAT      O 8580   2.016   1.469   0.378
 2790WAT     H1 8581   1.953   1.516   0.432
 2790WAT     H2 8582   2.027   1.385   0.421
 2791WAT      O 8583   3.149   1.787   1.904
 2791WAT     H1 8584   3.228   1.738   1.884
 2791WAT     H2 8585   3.178   1.855   1.965
 2792WAT      O 8586   0.884   4.629   4.625
 2792WAT     H1 8587   0.876   4.538   4.598
 2792WAT     H2 8588   0.843   4.679   4.554
 2793WAT      O 8589   0.697   4.807   4.813
 2793WAT     H1 8590   0.620   4.759   4.842
 2793WAT     H2 8591   0.762   4.739   4.796
 2794WAT      O 8592   1.099   5.248   4.691
 2794WAT     H1 8593   1.053   5.171   4.724
 2794WAT     H2 8594   1.180   5.250   4.742
 2795WAT      O 8595   0.641   5.075   4.814
 2795WAT     H1 8596   0.634   4.981   4.798
 2795WAT     H2 8597   0.717   5.084   4.871
 2796WAT      O 8598   0.744   4.355   4.836
 2796WAT     H1 8599   0.782   4.268   4.825
 2796WAT     H2 8600   0.734   4.389   4.747
 2797WAT      O 8601   1.122   4.105   4.530
 2797WAT     H1 8602   1.205   4.056   4.534
 2797WAT     H2 8603   1.126   4.164   4.605
 2798WAT      O 8604   0.341   4.490   4.816
 2798WAT     H1 8605   0.392   4.539   4.880
 2798WAT     H2 8606   0.395   4.412   4.798
 2799WAT      O 8607   1.551   4.307   5.186
 2799WAT     H1 8608   1.481   4.345   5.134
 2799WAT     H2 8609   1.578   4.376   5.246
 2800WAT      O 8610   0.808   4.965   4.392
 2800WAT     H1 8611   0.747   5.011   4.336
 2800WAT     H2 8612   0.860   5.034   4.434
 2801WAT      O 8613   0.295   4.918   5.060
 2801WAT     H1 8614   0.261   4.980   5.124
 2801WAT     H2 8615   0.312   4.970   4.982
 2802WAT      O 8616   1.146   4.299   4.807
 2802WAT     H1 8617   1.076   4.328   4.865
 2802WAT     H2 8618   1.182   4.380   4.771
 2803WAT      O 8619   1.308   5.261   5.033
 2803WAT     H1 8620   1.239   5.328   5.032
 2803WAT     H2 8621   1.362   5.281   4.957
 2804WAT      O 8622   1.453   4.244   4.846
 2804WAT     H1 8623   1.358   4.247   4.859
 2804WAT     H2 8624   1.485   4.325   4.885
 2805WAT      O 8625   0.506   3.873   4.676
 2805WAT     H1 8626   0.537   3.818   4.604
 2805WAT     H2 8627   0.413   3.887   4.657
 2806WAT      O 8628   1.191   5.117   4.414
 2806WAT     H1 8629   1.180   5.023   4.426
 2806WAT     H2 8630   1.190   5.153   4.502
 2807WAT      O 8631   1.001   4.935   5.038
 2807WAT     H1 8632   1.043   4.914   4.954
 2807WAT     H2 8633   1.074   4.961   5.095
 2808WAT      O 8634   0.745   4.680   4.349
 2808WAT     H1 8635   0.652   4.673   4.372
 2808WAT     H2 8636   0.760   4.774   4.338
 2809WAT      O 8637   0.744   4.307   4.049
 2809WAT     H1 8638   0.650   4.323   4.057
 2809WAT     H2 8639   0.776   4.379   3.994
 2810WAT      O 8640   1.396   4.775   5.047
 2810WAT     H1 8641   1.313   4.782   4.999
 2810WAT     H2 8642   1.455   4.834   5.000
 2811WAT      O 8643   1.148   4.836   4.400
 2811WAT     H1 8644   1.086   4.802   4.335
 2811WAT     H2 8645   1.146   4.772   4.470
 2812WAT      O 8646   1.092   4.454   5.141
 2812WAT     H1 8647   1.051   4.537   5.167
 2812WAT     H2 8648   1.019   4.395   5.122
 2813WAT      O 8649   0.306   4.733   4.627
 2813WAT     H1 8650   0.265   4.661   4.578
 2813WAT     H2 8651   0.314   4.698   4.716
 2814WAT      O 8652   0.352   5.101   4.844
 2814WAT     H1 8653   0.323   5.041   4.776
 2814WAT     H2 8654   0.447   5.105   4.833
 2815WAT      O 8655   0.177   4.410   5.005
 2815WAT     H1 8656   0.232   4.421   4.928
 2815WAT     H2 8657   0.228   4.447   5.077
 2816WAT      O 8658   0.262   5.075   5.509
 2816WAT     H1 8659   0.172   5.098   5.534
 2816WAT     H2 8660   0.264   5.087   5.414
 2817WAT      O 8661   0.966   4.760   4.100
 2817WAT     H1 8662   1.010   4.676   4.086
 2817WAT     H2 8663   1.037   4.823   4.109
 2818WAT      O 8664   0.777   5.254   4.497
 2818WAT     H1 8665   0.821   5.328   4.456
 2818WAT     H2 8666   0.770   5.278   4.589
 2819WAT      O 8667   0.324   5.356   5.587
 2819WAT     H1 8668   0.321   5.397   5.501
 2819WAT     H2 8669   0.308   5.264   5.571
 2820WAT      O 8670   1.324   3.885   3.932
 2820WAT     H1 8671   1.292   3.895   4.022
 2820WAT     H2 8672   1.400   3.943   3.927
 2821WAT      O 8673   1.460   5.154   5.433
 2821WAT     H1 8674   1.472   5.130   5.341
 2821WAT     H2 8675   1.464   5.071   5.480
 2822WAT      O 8676   1.014   5.304   4.089
 2822WAT     H1 8677   0.944   5.303   4.023
 2822WAT     H2 8678   1.088   5.261   4.046
 2823WAT      O 8679   1.445   4.359   5.529
 2823WAT     H1 8680   1.383   4.410   5.477
 2823WAT     H2 8681   1.413   4.269   5.524
 2824WAT      O 8682   0.222   3.956   4.716
 2824WAT     H1 8683   0.178   4.035   4.683
 2824WAT     H2 8684   0.278   3.989   4.786
 2825WAT      O 8685   0.651   4.243   5.276
 2825WAT     H1 8686   0.605   4.264   5.357
 2825WAT     H2 8687   0.611   4.162   5.246
 2826WAT      O 8688   1.151   4.365   5.389
 2826WAT     H1 8689   1.066   4.335   5.421
 2826WAT     H2 8690   1.135   4.390   5.298
 2827WAT      O 8691   0.860   4.515   5.599
 2827WAT     H1 8692   0.893   4.432   5.565
 2827WAT     H2 8693   0.939   4.567   5.614
 2828WAT      O 8694   0.534   3.919   4.204
 2828WAT     H1 8695   0.471   3.918   4.276
 2828WAT     H2 8696   0.525   3.832   4.164
 2829WAT      O 8697   0.426   4.011   4.902
 2829WAT     H1 8698   0.456   4.102   4.894
 2829WAT     H2 8699   0.481   3.962   4.840
 2830WAT      O 8700   0.924   4.469   4.348
 2830WAT     H1 8701   0.864   4.542   4.330
 2830WAT     H2 8702   0.979   4.463   4.270
 2831WAT      O 8703   0.445   4.559   5.555
 2831WAT     H1 8704   0.436   4.465   5.540
 2831WAT     H2 8705   0.530   4.581   5.516
 2832WAT      O 8706   0.785   4.333   4.551
 2832WAT     H1 8707   0.824   4.365   4.470
 2832WAT     H2 8708   0.821   4.245   4.563
 2833WAT      O 8709   0.844   4.592   4.961
 2833WAT     H1 8710   0.770   4.643   4.996
 2833WAT     H2 8711   0.804   4.510   4.931
 2834WAT      O 8712   0.487   4.260   4.801
 2834WAT     H1 8713   0.488   4.216   4.717
 2834WAT     H2 8714   0.577   4.292   4.812
 2835WAT      O 8715   0.494   4.360   4.101
 2835WAT     H1 8716   0.506   4.356   4.195
 2835WAT     H2 8717   0.455   4.446   4.085
 2836WAT      O 8718   0.890   4.137   4.902
 2836WAT     H1 8719   0.892   4.183   4.987
 2836WAT     H2 8720   0.865   4.047   4.924
 2837WAT      O 8721   0.395   4.591   4.040
 2837WAT     H1 8722   0.338   4.546   3.978
 2837WAT     H2 8723   0.466   4.627   3.987
 2838WAT      O 8724   1.233   3.879   5.486
 2838WAT     H1 8725   1.265   3.806   5.539
 2838WAT     H2 8726   1.236   3.847   5.396
 2839WAT      O 8727   0.517   4.666   4.976
 2839WAT     H1 8728   0.554   4.618   5.051
 2839WAT     H2 8729   0.498   4.753   5.010
 2840WAT      O 8730   0.296   4.570   5.208
 2840WAT     H1 8731   0.266   4.658   5.230
 2840WAT     H2 8732   0.392   4.576   5.212
 2841WAT      O 8733   1.225   4.890   4.847
 2841WAT     H1 8734   1.297   4.940   4.808
 2841WAT     H2 8735   1.205   4.822   4.782
 2842WAT      O 8736   0.771   4.029   4.261
 2842WAT     H1 8737   0.690   3.980   4.254
 2842WAT     H2 8738   0.752   4.113   4.220
 2843WAT      O 8739   0.763   4.897   5.436
 2843WAT     H1 8740   0.757   4.805   5.410
 2843WAT     H2 8741   0.700   4.907   5.507
 2844WAT      O 8742   1.043   4.467   4.091
 2844WAT     H1 8743   1.131   4.498   4.073
 2844WAT     H2 8744   1.040   4.379   4.052
 2845WAT      O 8745   0.642   5.084   4.159
 2845WAT     H1 8746   0.676   5.158   4.109
 2845WAT     H2 8747   0.559   5.115   4.195
 2846WAT      O 8748   0.222   4.700   5.611
 2846WAT     H1 8749   0.192   4.714   5.521
 2846WAT     H2 8750   0.299   4.644   5.602
 2847WAT      O 8751   0.756   5.179   5.411
 2847WAT     H1 8752   0.758   5.086   5.389
 2847WAT     H2 8753   0.686   5.188   5.475
 2848WAT      O 8754   1.270   4.598   4.038
 2848WAT     H1 8755   1.261   4.641   3.953
 2848WAT     H2 8756   1.342   4.644   4.081
 2849WAT      O 8757   1.378   4.843   5.345
 2849WAT     H1 8758   1.305   4.903   5.326
 2849WAT     H2 8759   1.430   4.843   5.265
 2850WAT      O 8760   1.373   5.283   4.310
 2850WAT     H1 8761   1.308   5.218   4.338
 2850WAT     H2 8762   1.334   5.324   4.233
 2851WAT      O 8763   0.931   5.016   4.695
 2851WAT     H1 8764   0.966   4.956   4.629
 2851WAT     H2 8765   0.842   4.983   4.712
 2852WAT      O 8766   0.539   5.092   4.436
 2852WAT     H1 8767   0.608   5.147   4.474
 2852WAT     H2 8768   0.461   5.146   4.439
 2853WAT      O 8769   0.469   4.792   4.397
 2853WAT     H1 8770   0.515   4.873   4.420
 2853WAT     H2 8771   0.434   4.761   4.480
 2854WAT      O 8772   0.700   5.343   5.120
 2854WAT     H1 8773   0.764   5.364   5.188
 2854WAT     H2 8774   0.736   5.267   5.075
 2855WAT      O 8775   0.827   5.144   4.992
 2855WAT     H1 8776   0.891   5.074   5.003
 2855WAT     H2 8777   0.880   5.222   4.974
 2856WAT      O 8778   1.212   5.172   3.964
 2856WAT     H1 8779   1.189   5.101   4.023
 2856WAT     H2 8780   1.173   5.147   3.880
 2857WAT      O 8781   1.004   5.224   5.312
 2857WAT     H1 8782   1.038   5.282   5.380
 2857WAT     H2 8783   0.912   5.211   5.335
 2858WAT      O 8784   1.170   4.964   4.130
 2858WAT     H1 8785   1.141   5.010   4.209
 2858WAT     H2 8786   1.249   4.918   4.157
 2859WAT      O 8787   0.392   5.313   4.123
 2859WAT     H1 8788   0.391   5.387   4.062
 2859WAT     H2 8789   0.299   5.289   4.133
 2860WAT      O 8790   0.909   4.252   5.165
 2860WAT     H1 8791   0.946   4.170   5.198
 2860WAT     H2 8792   0.823   4.258   5.207
 2861WAT      O 8793   1.246   4.147   4.246
 2861WAT     H1 8794   1.183   4.158   4.175
 2861WAT     H2 8795   1.196   4.169   4.325
 2862WAT      O 8796   0.690   5.320   3.990
 2862WAT     H1 8797   0.700   5.299   3.897
 2862WAT     H2 8798   0.600   5.294   4.010
 2863WAT      O 8799   0.442   4.375   4.388
 2863WAT     H1 8800   0.372   4.422   4.432
 2863WAT     H2 8801   0.471   4.310   4.451
 2864WAT      O 8802   0.605   4.517   5.188
 2864WAT     H1 8803   0.655   4.565   5.254
 2864WAT     H2 8804   0.619   4.425   5.209
 2865WAT      O 8805   0.846   4.048   4.532
 2865WAT     H1 8806   0.833   4.050   4.437
 2865WAT     H2 8807   0.940   4.053   4.544
 2866WAT      O 8808   0.263   4.206   4.125
 2866WAT     H1 8809   0.348   4.250   4.119
 2866WAT     H2 8810   0.226   4.237   4.208
 2867WAT      O 8811   1.326   4.139   5.272
 2867WAT     H1 8812   1.275   4.213   5.306
 2867WAT     H2 8813   1.407   4.178   5.240
 2868WAT      O 8814   1.155   4.663   4.617
 2868WAT     H1 8815   1.061   4.665   4.634
 2868WAT     H2 8816   1.186   4.585   4.661
 2869WAT      O 8817   1.355   5.380   4.784
 2869WAT     H1 8818   1.368   5.463   4.831
 2869WAT     H2 8819   1.442   5.359   4.750
 2870WAT      O 8820   0.465   5.029   3.920
 2870WAT     H1 8821   0.455   4.968   3.993
 2870WAT     H2 8822   0.448   4.977   3.842
 2871WAT      O 8823   0.480   4.898   5.518
 2871WAT     H1 8824   0.404   4.954   5.510
 2871WAT     H2 8825   0.498   4.868   5.429
 2872WAT      O 8826   0.789   4.935   3.981
 2872WAT     H1 8827   0.734   4.980   4.045
 2872WAT     H2 8828   0.851   4.885   4.033
 2873WAT      O 8829   1.194   5.071   5.574
 2873WAT     H1 8830   1.269   5.104   5.523
 2873WAT     H2 8831   1.118   5.088   5.518
 2874WAT      O 8832   0.356   4.831   4.170
 2874WAT     H1 8833   0.398   4.815   4.254
 2874WAT     H2 8834   0.368   4.750   4.121
 2875WAT      O 8835   0.607   4.734   3.895
 2875WAT     H1 8836   0.659   4.662   3.858
 2875WAT     H2 8837   0.672   4.797   3.925
 2876WAT      O 8838   1.062   4.876   5.427
 2876WAT     H1 8839   1.103   4.891   5.512
 2876WAT     H2 8840   0.968   4.888   5.444
 2877WAT      O 8841   1.109   4.610   5.628
 2877WAT     H1 8842   1.167   4.534   5.619
 2877WAT     H2 8843   1.127   4.663   5.550
 2878WAT      O 8844   0.497   3.981   5.162
 2878WAT     H1 8845   0.453   3.984   5.078
 2878WAT     H2 8846   0.434   3.942   5.222
 2879WAT      O 8847   0.538   4.871   5.224
 2879WAT     H1 8848   0.580   4.955   5.207
 2879WAT     H2 8849   0.446   4.885   5.201
 2880WAT      O 8850   0.772   4.644   5.363
 2880WAT     H1 8851   0.784   4.585   5.437
 2880WAT     H2 8852   0.858   4.648   5.321
 2881WAT      O 8853   1.006   4.700   5.220
 2881WAT     H1 8854   0.953   4.752   5.160
 2881WAT     H2 8855   1.040   4.763   5.283
 2882WAT      O 8856   0.245   4.439   3.865
 2882WAT     H1 8857   0.225   4.352   3.901
 2882WAT     H2 8858   0.228   4.430   3.771
 2883WAT      O 8859   0.448   4.298   5.488
 2883WAT     H1 8860   0.507   4.268   5.557
 2883WAT     H2 8861   0.367   4.251   5.504
 2884WAT      O 8862   0.930   4.260   5.512
 2884WAT     H1 8863   0.861   4.194   5.505
 2884WAT     H2 8864   1.002   4.215   5.556
 2885WAT      O 8865   0.993   3.920   4.118
 2885WAT     H1 8866   1.021   3.835   4.153
 2885WAT     H2 8867   0.916   3.943   4.169
 2886WAT      O 8868   0.447   4.043   3.962
 2886WAT     H1 8869   0.412   3.975   3.904
 2886WAT     H2 8870   0.467   3.997   4.044
 2887WAT      O 8871   0.209   5.191   4.458
 2887WAT     H1 8872   0.179   5.179   4.548
 2887WAT     H2 8873   0.198   5.105   4.417
 2888WAT      O 8874   1.362   5.395   5.395
 2888WAT     H1 8875   1.302   5.401   5.320
 2888WAT     H2 8876   1.374   5.301   5.408
 2889WAT      O 8877   1.486   5.169   3.928
 2889WAT     H1 8878   1.402   5.176   3.975
 2889WAT     H2 8879   1.503   5.258   3.898
 2890WAT      O 8880   1.431   4.843   4.179
 2890WAT     H1 8881   1.507   4.900   4.189
 2890WAT     H2 8882   1.433   4.787   4.256
 2891WAT      O 8883   1.532   4.929   4.663
 2891WAT     H1 8884   1.569   4.851   4.622
 2891WAT     H2 8885   1.596   4.998   4.645
 2892WAT      O 8886   1.230   5.067   5.204
 2892WAT     H1 8887   1.149   5.110   5.231
 2892WAT     H2 8888   1.271   5.128   5.143
 2893WAT      O 8889   1.436   4.873   3.894
 2893WAT     H1 8890   1.464   4.963   3.882
 2893WAT     H2 8891   1.417   4.866   3.988
 2894WAT      O 8892   1.076   4.175   4.024
 2894WAT     H1 8893   1.118   4.156   3.940
 2894WAT     H2 8894   1.045   4.090   4.055
 2895WAT      O 8895   1.426   4.666   4.394
 2895WAT     H1 8896   1.388   4.590   4.351
 2895WAT     H2 8897   1.353   4.705   4.442
 2896WAT      O 8898   1.365   4.581   5.357
 2896WAT     H1 8899   1.342   4.558   5.267
 2896WAT     H2 8900   1.391   4.673   5.353
 2897WAT      O 8901   1.353   4.489   4.724
 2897WAT     H1 8902   1.406   4.440   4.661
 2897WAT     H2 8903   1.412   4.502   4.798
 2898WAT      O 8904   1.371   4.497   5.076
 2898WAT     H1 8905   1.276   4.494   5.087
 2898WAT     H2 8906   1.389   4.588   5.052
 2899WAT      O 8907   1.302   4.415   4.318
 2899WAT     H1 8908   1.352   4.391   4.396
 2899WAT     H2 8909   1.283   4.331   4.276
 2900WAT      O 8910   1.445   4.278   4.571
 2900WAT     H1 8911   1.434   4.263   4.665
 2900WAT     H2 8912   1.521   4.226   4.547
 2901WAT      O 8913   1.280   3.872   5.217
 2901WAT     H1 8914   1.344   3.934   5.253
 2901WAT     H2 8915   1.295   3.876   5.122
 2902WAT      O 8916   1.534   4.061   3.895
 2902WAT     H1 8917   1.627   4.048   3.874
 2902WAT     H2 8918   1.532   4.069   3.990
 2903WAT      O 8919   1.542   4.138   4.158
 2903WAT     H1 8920   1.462   4.132   4.211
 2903WAT     H2 8921   1.562   4.232   4.157
 2904WAT      O 8922   0.396   5.341   5.132
 2904WAT     H1 8923   0.372   5.368   5.043
 2904WAT     H2 8924   0.491   5.358   5.138
 2905WAT      O 8925   0.617   3.988   5.508
 2905WAT     H1 8926   0.611   4.047   5.583
 2905WAT     H2 8927   0.711   3.977   5.493
 2906WAT      O 8928   0.881   3.953   5.472
 2906WAT     H1 8929   0.942   3.985   5.405
 2906WAT     H2 8930   0.935   3.905   5.534
 2907WAT      O 8931   0.955   3.810   5.104
 2907WAT     H1 8932   0.867   3.843   5.084
 2907WAT     H2 8933   0.944   3.762   5.187
 2908WAT      O 8934   1.046   4.030   5.243
 2908WAT     H1 8935   1.013   3.949   5.205
 2908WAT     H2 8936   1.140   4.026   5.230
 2909WAT      O 8937   0.334   5.438   4.858
 2909WAT     H1 8938   0.386   5.377   4.805
 2909WAT     H2 8939   0.399   5.489   4.907
 2910WAT      O 8940   0.730   3.901   4.998
 2910WAT     H1 8941   0.651   3.949   5.026
 2910WAT     H2 8942   0.700   3.811   4.987
 2911WAT      O 8943   1.185   3.971   4.803
 2911WAT     H1 8944   1.229   3.966   4.718
 2911WAT     H2 8945   1.158   4.063   4.810
 2912WAT      O 8946   1.371   3.935   4.604
 2912WAT     H1 8947   1.365   3.840   4.589
 2912WAT     H2 8948   1.449   3.945   4.658
 2913WAT      O 8949   0.518   4.143   4.549
 2913WAT     H1 8950   0.437   4.106   4.515
 2913WAT     H2 8951   0.569   4.068   4.580
 2914WAT      O 8952   0.968   3.810   4.673
 2914WAT     H1 8953   1.029   3.867   4.721
 2914WAT     H2 8954   0.894   3.866   4.651
 2915WAT      O 8955   1.283   3.850   4.201
 2915WAT     H1 8956   1.302   3.940   4.227
 2915WAT     H2 8957   1.204   3.827   4.250
 2916WAT      O 8958   0.321   3.958   4.410
 2916WAT     H1 8959   0.258   3.888   4.427
 2916WAT     H2 8960   0.267   4.034   4.388
 2917WAT      O 8961   0.333   3.886   5.653
 2917WAT     H1 8962   0.305   3.936   5.577
 2917WAT     H2 8963   0.371   3.806   5.617
 2918WAT      O 8964   0.884   4.629   2.747
 2918WAT     H1 8965   0.876   4.538   2.720
 2918WAT     H2 8966   0.843   4.679   2.677
 2919WAT      O 8967   0.697   4.807   2.936
 2919WAT     H1 8968   0.620   4.759   2.965
 2919WAT     H2 8969   0.762   4.739   2.918
 2920WAT      O 8970   1.099   5.248   2.814
 2920WAT     H1 8971   1.053   5.171   2.846
 2920WAT     H2 8972   1.180   5.250   2.864
 2921WAT      O 8973   0.641   5.075   2.936
 2921WAT     H1 8974   0.634   4.981   2.920
 2921WAT     H2 8975   0.717   5.084   2.993
 2922WAT      O 8976   0.744   4.355   2.959
 2922WAT     H1 8977   0.782   4.268   2.948
 2922WAT     H2 8978   0.734   4.389   2.870
 2923WAT      O 8979   1.122   4.105   2.652
 2923WAT     H1 8980   1.205   4.056   2.657
 2923WAT     H2 8981   1.126   4.164   2.728
 2924WAT      O 8982   0.341   4.490   2.938
 2924WAT     H1 8983   0.392   4.539   3.002
 2924WAT     H2 8984   0.395   4.412   2.921
 2925WAT      O 8985   1.551   4.307   3.309
 2925WAT     H1 8986   1.481   4.345   3.257
 2925WAT     H2 8987   1.578   4.376   3.369
 2926WAT      O 8988   0.808   4.965   2.515
 2926WAT     H1 8989   0.747   5.011   2.459
 2926WAT     H2 8990   0.860   5.034   2.557
 2927WAT      O 8991   0.295   4.918   3.183
 2927WAT     H1 8992   0.261   4.980   3.247
 2927WAT     H2 8993   0.312   4.970   3.105
 2928WAT      O 8994   1.146   4.299   2.930
 2928WAT     H1 8995   1.076   4.328   2.988
 2928WAT     H2 8996   1.182   4.380   2.894
 2929WAT      O 8997   1.308   5.261   3.156
 2929WAT     H1 8998   1.239   5.328   3.155
 2929WAT     H2 8999   1.362   5.281   3.079
 2930WAT      O 9000   1.453   4.244   2.969
 2930WAT     H1 9001   1.358   4.247   2.982
 2930WAT     H2 9002   1.485   4.325   3.007
 2931WAT      O 9003   0.506   3.873   2.798
 2931WAT     H1 9004   0.537   3.818   2.727
 2931WAT     H2 9005   0.413   3.887   2.780
 2932WAT      O 9006   1.191   5.117   2.536
 2932WAT     H1 9007   1.180   5.023   2.549
 2932WAT     H2 9008   1.190   5.153   2.625
 2933WAT      O 9009   1.001   4.935   3.160
 2933WAT     H1 9010   1.043   4.914   3.077
 2933WAT     H2 9011   1.074   4.961   3.217
 2934WAT      O 9012   0.745   4.680   2.472
 2934WAT     H1 9013   0.652   4.673   2.495
 2934WAT     H2 9014   0.760   4.774   2.460
 2935WAT      O 9015   0.744   4.307   2.171
 2935WAT     H1 9016   0.650   4.323   2.180
 2935WAT     H2 9017   0.776   4.379   2.117
 2936WAT      O 9018   1.396   4.775   3.169
 2936WAT     H1 9019   1.313   4.782   3.122
 2936WAT     H2 9020   1.455   4.834   3.122
 2937WAT      O 9021   1.148   4.836   2.522
 2937WAT     H1 9022   1.086   4.802   2.457
 2937WAT     H2 9023   1.146   4.772   2.593
 2938WAT      O 9024   1.092   4.454   3.264
 2938WAT     H1 9025   1.051   4.537   3.289
 2938WAT     H2 9026   1.019   4.395   3.245
 2939WAT      O 9027   0.306   4.733   2.750
 2939WAT     H1 9028   0.265   4.661   2.700
 2939WAT     H2 9029   0.314   4.698   2.839
 2940WAT      O 9030   0.352   5.101   2.966
 2940WAT     H1 9031   0.323   5.041   2.898
 2940WAT     H2 9032   0.447   5.105   2.955
 2941WAT      O 9033   0.177   4.410   3.128
 2941WAT     H1 9034   0.232   4.421   3.050
 2941WAT     H2 9035   0.228   4.447   3.200
 2942WAT      O 9036   0.262   5.075   3.631
 2942WAT     H1 9037   0.172   5.098   3.656
 2942WAT     H2 9038   0.264   5.087   3.537
 2943WAT      O 9039   0.966   4.760   2.223
 2943WAT     H1 9040   1.010   4.676   2.208
 2943WAT     H2 9041   1.037   4.823   2.231
 2944WAT      O 9042   0.777   5.254   2.620
 2944WAT     H1 9043   0.821   5.328   2.578
 2944WAT     H2 9044   0.770   5.278   2.712
 2945WAT      O 9045   0.324   5.356   3.710
 2945WAT     H1 9046   0.321   5.397   3.623
 2945WAT     H2 9047   0.308   5.264   3.694
 2946WAT      O 9048   1.324   3.885   2.054
 2946WAT     H1 9049   1.292   3.895   2.144
 2946WAT     H2 9050   1.400   3.943   2.049
 2947WAT      O 9051   1.519   5.435   3.840
 2947WAT     H1 9052   1.567   5.483   3.907
 2947WAT     H2 9053   1.581   5.428   3.767
 2948WAT      O 9054   1.460   5.154   3.556
 2948WAT     H1 9055   1.472   5.130   3.464
 2948WAT     H2 9056   1.464   5.071   3.603
 2949WAT      O 9057   1.014   5.304   2.211
 2949WAT     H1 9058   0.944   5.303   2.145
 2949WAT     H2 9059   1.088   5.261   2.168
 2950WAT      O 9060   1.445   4.359   3.652
 2950WAT     H1 9061   1.383   4.410   3.599
 2950WAT     H2 9062   1.413   4.269   3.646
 2951WAT      O 9063   0.222   3.956   2.838
 2951WAT     H1 9064   0.178   4.035   2.805
 2951WAT     H2 9065   0.278   3.989   2.909
 2952WAT      O 9066   0.651   4.243   3.399
 2952WAT     H1 9067   0.605   4.264   3.480
 2952WAT     H2 9068   0.611   4.162   3.368
 2953WAT      O 9069   1.151   4.365   3.512
 2953WAT     H1 9070   1.066   4.335   3.544
 2953WAT     H2 9071   1.135   4.390   3.420
 2954WAT      O 9072   0.860   4.515   3.722
 2954WAT     H1 9073   0.893   4.432   3.688
 2954WAT     H2 9074   0.939   4.567   3.736
 2955WAT      O 9075   0.534   3.919   2.326
 2955WAT     H1 9076   0.471   3.918   2.399
 2955WAT     H2 9077   0.525   3.832   2.287
 2956WAT      O 9078   0.426   4.011   3.024
 2956WAT     H1 9079   0.456   4.102   3.016
 2956WAT     H2 9080   0.481   3.962   2.963
 2957WAT      O 9081   0.924   4.469   2.471
 2957WAT     H1 9082   0.864   4.542   2.453
 2957WAT     H2 9083   0.979   4.463   2.393
 2958WAT      O 9084   0.445   4.559   3.678
 2958WAT     H1 9085   0.436   4.465   3.663
 2958WAT     H2 9086   0.530   4.581   3.638
 2959WAT      O 9087   0.785   4.333   2.674
 2959WAT     H1 9088   0.824   4.365   2.593
 2959WAT     H2 9089   0.821   4.245   2.685
 2960WAT      O 9090   0.616   4.208   3.800
 2960WAT     H1 9091   0.547   4.189   3.863
 2960WAT     H2 9092   0.690   4.236   3.853
 2961WAT      O 9093   0.844   4.592   3.084
 2961WAT     H1 9094   0.770   4.643   3.118
 2961WAT     H2 9095   0.804   4.510   3.053
 2962WAT      O 9096   0.487   4.260   2.924
 2962WAT     H1 9097   0.488   4.216   2.839
 2962WAT     H2 9098   0.577   4.292   2.935
 2963WAT      O 9099   0.494   4.360   2.223
 2963WAT     H1 9100   0.506   4.356   2.318
 2963WAT     H2 9101   0.455   4.446   2.208
 2964WAT      O 9102   0.890   4.137   3.025
 2964WAT     H1 9103   0.892   4.183   3.109
 2964WAT     H2 9104   0.865   4.047   3.046
 2965WAT      O 9105   0.395   4.591   2.163
 2965WAT     H1 9106   0.338   4.546   2.100
 2965WAT     H2 9107   0.466   4.627   2.110
 2966WAT      O 9108   1.233   3.879   3.609
 2966WAT     H1 9109   1.265   3.806   3.661
 2966WAT     H2 9110   1.236   3.847   3.518
 2967WAT      O 9111   0.517   4.666   3.099
 2967WAT     H1 9112   0.554   4.618   3.173
 2967WAT     H2 9113   0.498   4.753   3.133
 2968WAT      O 9114   0.296   4.570   3.331
 2968WAT     H1 9115   0.266   4.658   3.353
 2968WAT     H2 9116   0.392   4.576   3.334
 2969WAT      O 9117   1.225   4.890   2.969
 2969WAT     H1 9118   1.297   4.940   2.930
 2969WAT     H2 9119   1.205   4.822   2.905
 2970WAT      O 9120   0.771   4.029   2.384
 2970WAT     H1 9121   0.690   3.980   2.376
 2970WAT     H2 9122   0.752   4.113   2.342
 2971WAT      O 9123   0.763   4.897   3.558
 2971WAT     H1 9124   0.757   4.805   3.533
 2971WAT     H2 9125   0.700   4.907   3.630
 2972WAT      O 9126   1.043   4.467   2.213
 2972WAT     H1 9127   1.131   4.498   2.196
 2972WAT     H2 9128   1.040   4.379   2.174
 2973WAT      O 9129   0.642   5.084   2.281
 2973WAT     H1 9130   0.676   5.158   2.232
 2973WAT     H2 9131   0.559   5.115   2.318
 2974WAT      O 9132   0.222   4.700   3.734
 2974WAT     H1 9133   0.192   4.714   3.644
 2974WAT     H2 9134   0.299   4.644   3.724
 2975WAT      O 9135   0.756   5.179   3.533
 2975WAT     H1 9136   0.758   5.086   3.511
 2975WAT     H2 9137   0.686   5.188   3.597
 2976WAT      O 9138   1.270   4.598   2.160
 2976WAT     H1 9139   1.261   4.641   2.075
 2976WAT     H2 9140   1.342   4.644   2.203
 2977WAT      O 9141   1.378   4.843   3.468
 2977WAT     H1 9142   1.305   4.903   3.448
 2977WAT     H2 9143   1.430   4.843   3.388
 2978WAT      O 9144   1.373   5.283   2.433
 2978WAT     H1 9145   1.308   5.218   2.460
 2978WAT     H2 9146   1.334   5.324   2.355
 2979WAT      O 9147   0.931   5.016   2.818
 2979WAT     H1 9148   0.966   4.956   2.752
 2979WAT     H2 9149   0.842   4.983   2.835
 2980WAT      O 9150   0.539   5.092   2.558
 2980WAT     H1 9151   0.608   5.147   2.597
 2980WAT     H2 9152   0.461   5.146   2.562
 2981WAT      O 9153   0.469   4.792   2.520
 2981WAT     H1 9154   0.515   4.873   2.542
 2981WAT     H2 9155   0.434   4.761   2.603
 2982WAT      O 9156   0.700   5.343   3.243
 2982WAT     H1 9157   0.764   5.364   3.310
 2982WAT     H2 9158   0.736   5.267   3.197
 2983WAT      O 9159   0.827   5.144   3.114
 2983WAT     H1 9160   0.891   5.074   3.126
 2983WAT     H2 9161   0.880   5.222   3.096
 2984WAT      O 9162   1.212   5.172   2.087
 2984WAT     H1 9163   1.189   5.101   2.146
 2984WAT     H2 9164   1.173   5.147   2.003
 2985WAT      O 9165   1.004   5.224   3.435
 2985WAT     H1 9166   1.038   5.282   3.503
 2985WAT     H2 9167   0.912   5.211   3.458
 2986WAT      O 9168   1.170   4.964   2.253
 2986WAT     H1 9169   1.141   5.010   2.332
 2986WAT     H2 9170   1.249   4.918   2.280
 2987WAT      O 9171   0.587   5.229   3.752
 2987WAT     H1 9172   0.555   5.157   3.806
 2987WAT     H2 9173   0.520   5.296   3.759
 2988WAT      O 9174   0.392   5.313   2.246
 2988WAT     H1 9175   0.391   5.387   2.184
 2988WAT     H2 9176   0.299   5.289   2.255
 2989WAT      O 9177   0.909   4.252   3.288
 2989WAT     H1 9178   0.946   4.170   3.321
 2989WAT     H2 9179   0.823   4.258   3.330
 2990WAT      O 9180   1.246   4.147   2.369
 2990WAT     H1 9181   1.183   4.158   2.297
 2990WAT     H2 9182   1.196   4.169   2.448
 2991WAT      O 9183   0.690   5.320   2.112
 2991WAT     H1 9184   0.700   5.299   2.019
 2991WAT     H2 9185   0.600   5.294   2.133
 2992WAT      O 9186   0.442   4.375   2.510
 2992WAT     H1 9187   0.372   4.422   2.555
 2992WAT     H2 9188   0.471   4.310   2.574
 2993WAT      O 9189   0.605   4.517   3.310
 2993WAT     H1 9190   0.655   4.565   3.377
 2993WAT     H2 9191   0.619   4.425   3.331
 2994WAT      O 9192   0.846   4.048   2.654
 2994WAT     H1 9193   0.833   4.050   2.560
 2994WAT     H2 9194   0.940   4.053   2.666
 2995WAT      O 9195   0.263   4.206   2.248
 2995WAT     H1 9196   0.348   4.250   2.241
 2995WAT     H2 9197   0.226   4.237   2.331
 2996WAT      O 9198   1.326   4.139   3.395
 2996WAT     H1 9199   1.275   4.213   3.429
 2996WAT     H2 9200   1.407   4.178   3.363
 2997WAT      O 9201   1.155   4.663   2.739
 2997WAT     H1 9202   1.061   4.665   2.757
 2997WAT     H2 9203   1.186   4.585   2.784
 2998WAT      O 9204   1.355   5.380   2.907
 2998WAT     H1 9205   1.368   5.463   2.954
 2998WAT     H2 9206   1.442   5.359   2.872
 2999WAT      O 9207   0.886   5.119   3.788
 2999WAT     H1 9208   0.826   5.121   3.714
 2999WAT     H2 9209   0.856   5.046   3.841
 3000WAT      O 9210   0.465   5.029   2.043
 3000WAT     H1 9211   0.455   4.968   2.115
 3000WAT     H2 9212   0.448   4.977   1.964
 3001WAT      O 9213   0.480   4.898   3.641
 3001WAT     H1 9214   0.404   4.954   3.632
 3001WAT     H2 9215   0.498   4.868   3.551
 3002WAT      O 9216   0.789   4.935   2.103
 3002WAT     H1 9217   0.734   4.980   2.168
 3002WAT     H2 9218   0.851   4.885   2.155
 3003WAT      O 9219   1.194   5.071   3.696
 3003WAT     H1 9220   1.269   5.104   3.646
 3003WAT     H2 9221   1.118   5.088   3.641
 3004WAT      O 9222   0.356   4.831   2.293
 3004WAT     H1 9223   0.398   4.815   2.377
 3004WAT     H2 9224   0.368   4.750   2.243
 3005WAT      O 9225   0.607   4.734   2.018
 3005WAT     H1 9226   0.659   4.662   1.981
 3005WAT     H2 9227   0.672   4.797   2.048
 3006WAT      O 9228   1.062   4.876   3.550
 3006WAT     H1 9229   1.103   4.891   3.635
 3006WAT     H2 9230   0.968   4.888   3.566
 3007WAT      O 9231   1.109   4.610   3.750
 3007WAT     H1 9232   1.167   4.534   3.741
 3007WAT     H2 9233   1.127   4.663   3.673
 3008WAT      O 9234   0.497   3.981   3.285
 3008WAT     H1 9235   0.453   3.984   3.200
 3008WAT     H2 9236   0.434   3.942   3.344
 3009WAT      O 9237   0.538   4.871   3.347
 3009WAT     H1 9238   0.580   4.955   3.330
 3009WAT     H2 9239   0.446   4.885   3.324
 3010WAT      O 9240   0.772   4.644   3.485
 3010WAT     H1 9241   0.784   4.585   3.559
 3010WAT     H2 9242   0.858   4.648   3.443
 3011WAT      O 9243   1.006   4.700   3.343
 3011WAT     H1 9244   0.953   4.752   3.282
 3011WAT     H2 9245   1.040   4.763   3.406
 3012WAT      O 9246   0.245   4.439   1.987
 3012WAT     H1 9247   0.225   4.352   2.023
 3012WAT     H2 9248   0.228   4.430   1.894
 3013WAT      O 9249   0.448   4.298   3.611
 3013WAT     H1 9250   0.507   4.268   3.680
 3013WAT     H2 9251   0.367   4.251   3.627
 3014WAT      O 9252   0.930   4.260   3.634
 3014WAT     H1 9253   0.861   4.194   3.628
 3014WAT     H2 9254   1.002   4.215   3.679
 3015WAT      O 9255   0.993   3.920   2.240
 3015WAT     H1 9256   1.021   3.835   2.276
 3015WAT     H2 9257   0.916   3.943   2.292
 3016WAT      O 9258   0.447   4.043   2.085
 3016WAT     H1 9259   0.412   3.975   2.027
 3016WAT     H2 9260   0.467   3.997   2.166
 3017WAT      O 9261   0.209   5.191   2.581
 3017WAT     H1 9262   0.179   5.179   2.671
 3017WAT     H2 9263   0.198   5.105   2.540
 3018WAT      O 9264   1.362   5.395   3.517
 3018WAT     H1 9265   1.302   5.401   3.443
 3018WAT     H2 9266   1.374   5.301   3.530
 3019WAT      O 9267   1.486   5.169   2.051
 3019WAT     H1 9268   1.402   5.176   2.098
 3019WAT     H2 9269   1.503   5.258   2.021
 3020WAT      O 9270   1.431   4.843   2.301
 3020WAT     H1 9271   1.507   4.900   2.312
 3020WAT     H2 9272   1.433   4.787   2.378
 3021WAT      O 9273   1.532   4.929   2.786
 3021WAT     H1 9274   1.569   4.851   2.745
 3021WAT     H2 9275   1.596   4.998   2.768
 3022WAT      O 9276   1.230   5.067   3.327
 3022WAT     H1 9277   1.149   5.110   3.353
 3022WAT     H2 9278   1.271   5.128   3.266
 3023WAT      O 9279   1.436   4.873   2.017
 3023WAT     H1 9280   1.464   4.963   2.004
 3023WAT     H2 9281   1.417   4.866   2.111
 3024WAT      O 9282   1.076   4.175   2.146
 3024WAT     H1 9283   1.118   4.156   2.062
 3024WAT     H2 9284   1.045   4.090   2.178
 3025WAT      O 9285   1.426   4.666   2.516
 3025WAT     H1 9286   1.388   4.590   2.473
 3025WAT     H2 9287   1.353   4.705   2.565
 3026WAT      O 9288   1.365   4.581   3.480
 3026WAT     H1 9289   1.342   4.558   3.390
 3026WAT     H2 9290   1.391   4.673   3.475
 3027WAT      O 9291   1.209   4.104   3.757
 3027WAT     H1 9292   1.297   4.104   3.796
 3027WAT     H2 9293   1.210   4.030   3.696
 3028WAT      O 9294   1.353   4.489   2.846
 3028WAT     H1 9295   1.406   4.440   2.783
 3028WAT     H2 9296   1.412   4.502   2.921
 3029WAT      O 9297   1.371   4.497   3.199
 3029WAT     H1 9298   1.276   4.494   3.210
 3029WAT     H2 9299   1.389   4.588   3.175
 3030WAT      O 9300   1.302   4.415   2.440
 3030WAT     H1 9301   1.352   4.391   2.519
 3030WAT     H2 9302   1.283   4.331   2.399
 3031WAT      O 9303   1.445   4.278   2.694
 3031WAT     H1 9304   1.434   4.263   2.787
 3031WAT     H2 9305   1.521   4.226   2.669
 3032WAT      O 9306   1.280   3.872   3.339
 3032WAT     H1 9307   1.344   3.934   3.376
 3032WAT     H2 9308   1.295   3.876   3.245
 3033WAT      O 9309   1.534   4.061   2.018
 3033WAT     H1 9310   1.627   4.048   1.997
 3033WAT     H2 9311   1.532   4.069   2.113
 3034WAT      O 9312   1.542   4.138   2.280
 3034WAT     H1 9313   1.462   4.132   2.333
 3034WAT     H2 9314   1.562   4.232   2.279
 3035WAT      O 9315   0.396   5.341   3.255
 3035WAT     H1 9316   0.372   5.368   3.166
 3035WAT     H2 9317   0.491   5.358   3.260
 3036WAT      O 9318   0.617   3.988   3.630
 3036WAT     H1 9319   0.611   4.047   3.705
 3036WAT     H2 9320   0.711   3.977   3.616
 3037WAT      O 9321   0.881   3.953   3.594
 3037WAT     H1 9322   0.942   3.985   3.528
 3037WAT     H2 9323   0.935   3.905   3.656
 3038WAT      O 9324   0.955   3.810   3.227
 3038WAT     H1 9325   0.867   3.843   3.207
 3038WAT     H2 9326   0.944   3.762   3.309
 3039WAT      O 9327   1.046   4.030   3.365
 3039WAT     H1 9328   1.013   3.949   3.327
 3039WAT     H2 9329   1.140   4.026   3.353
 3040WAT      O 9330   0.334   5.438   2.980
 3040WAT     H1 9331   0.386   5.377   2.928
 3040WAT     H2 9332   0.399   5.489   3.029
 3041WAT      O 9333   0.730   3.901   3.121
 3041WAT     H1 9334   0.651   3.949   3.149
 3041WAT     H2 9335   0.700   3.811   3.110
 3042WAT      O 9336   1.185   3.971   2.925
 3042WAT     H1 9337   1.229   3.966   2.840
 3042WAT     H2 9338   1.158   4.063   2.932
 3043WAT      O 9339   1.371   3.935   2.726
 3043WAT     H1 9340   1.365   3.840   2.712
 3043WAT     H2 9341   1.449   3.945   2.781
 3044WAT      O 9342   0.518   4.143   2.672
 3044WAT     H1 9343   0.437   4.106   2.638
 3044WAT     H2 9344   0.569   4.068   2.702
 3045WAT      O 9345   0.968   3.810   2.796
 3045WAT     H1 9346   1.029   3.867   2.843
 3045WAT     H2 9347   0.894   3.866   2.773
 3046WAT      O 9348   1.283   3.850   2.323
 3046WAT     H1 9349   1.302   3.940   2.350
 3046WAT     H2 9350   1.204   3.827   2.372
 3047WAT      O 9351   0.321   3.958   2.532
 3047WAT     H1 9352   0.258   3.888   2.549
 3047WAT     H2 9353   0.267   4.034   2.511
 3048WAT      O 9354   0.333   3.886   3.776
 3048WAT     H1 9355   0.305   3.936   3.700
 3048WAT     H2 9356   0.371   3.806   3.739
 3049WAT      O 9357   0.993   3.827   3.834
 3049WAT     H1 9358   0.982   3.859   3.923
 3049WAT     H2 9359   1.075   3.868   3.804
 3050WAT      O 9360   0.884   4.629   0.870
 3050WAT     H1 9361   0.876   4.538   0.843
 3050WAT     H2 9362   0.843   4.679   0.799
 3051WAT      O 9363   0.697   4.807   1.058
 3051WAT     H1 9364   0.620   4.759   1.087
 3051WAT     H2 9365   0.762   4.739   1.041
 3052WAT      O 9366   1.099   5.248   0.936
 3052WAT     H1 9367   1.053   5.171   0.969
 3052WAT     H2 9368   1.180   5.250   0.987
 3053WAT      O 9369   0.641   5.075   1.059
 3053WAT     H1 9370   0.634   4.981   1.043
 3053WAT     H2 9371   0.717   5.084   1.116
 3054WAT      O 9372   0.744   4.355   1.082
 3054WAT     H1 9373   0.782   4.268   1.070
 3054WAT     H2 9374   0.734   4.389   0.992
 3055WAT      O 9375   1.122   4.105   0.775
 3055WAT     H1 9376   1.205   4.056   0.779
 3055WAT     H2 9377   1.126   4.164   0.850
 3056WAT      O 9378   0.341   4.490   1.061
 3056WAT     H1 9379   0.392   4.539   1.125
 3056WAT     H2 9380   0.395   4.412   1.043
 3057WAT      O 9381   1.551   4.307   1.431
 3057WAT     H1 9382   1.481   4.345   1.379
 3057WAT     H2 9383   1.578   4.376   1.491
 3058WAT      O 9384   0.808   4.965   0.637
 3058WAT     H1 9385   0.747   5.011   0.581
 3058WAT     H2 9386   0.860   5.034   0.679
 3059WAT      O 9387   0.295   4.918   1.305
 3059WAT     H1 9388   0.261   4.980   1.370
 3059WAT     H2 9389   0.312   4.970   1.227
 3060WAT      O 9390   1.146   4.299   1.052
 3060WAT     H1 9391   1.076   4.328   1.110
 3060WAT     H2 9392   1.182   4.380   1.016
 3061WAT      O 9393   1.308   5.261   1.278
 3061WAT     H1 9394   1.239   5.328   1.278
 3061WAT     H2 9395   1.362   5.281   1.202
 3062WAT      O 9396   1.453   4.244   1.091
 3062WAT     H1 9397   1.358   4.247   1.104
 3062WAT     H2 9398   1.485   4.325   1.130
 3063WAT      O 9399   0.506   3.873   0.921
 3063WAT     H1 9400   0.537   3.818   0.849
 3063WAT     H2 9401   0.413   3.887   0.902
 3064WAT      O 9402   1.191   5.117   0.659
 3064WAT     H1 9403   1.180   5.023   0.671
 3064WAT     H2 9404   1.190   5.153   0.747
 3065WAT      O 9405   1.001   4.935   1.283
 3065WAT     H1 9406   1.043   4.914   1.199
 3065WAT     H2 9407   1.074   4.961   1.340
 3066WAT      O 9408   0.745   4.680   0.594
 3066WAT     H1 9409   0.652   4.673   0.617
 3066WAT     H2 9410   0.760   4.774   0.583
 3067WAT      O 9411   0.744   4.307   0.294
 3067WAT     H1 9412   0.650   4.323   0.303
 3067WAT     H2 9413   0.776   4.379   0.239
 3068WAT      O 9414   1.396   4.775   1.292
 3068WAT     H1 9415   1.313   4.782   1.244
 3068WAT     H2 9416   1.455   4.834   1.245
 3069WAT      O 9417   1.148   4.836   0.645
 3069WAT     H1 9418   1.086   4.802   0.580
 3069WAT     H2 9419   1.146   4.772   0.715
 3070WAT      O 9420   1.092   4.454   1.386
 3070WAT     H1 9421   1.051   4.537   1.412
 3070WAT     H2 9422   1.019   4.395   1.367
 3071WAT      O 9423   0.306   4.733   0.873
 3071WAT     H1 9424   0.265   4.661   0.823
 3071WAT     H2 9425   0.314   4.698   0.961
 3072WAT      O 9426   0.352   5.101   1.089
 3072WAT     H1 9427   0.323   5.041   1.021
 3072WAT     H2 9428   0.447   5.105   1.078
 3073WAT      O 9429   0.177   4.410   1.251
 3073WAT     H1 9430   0.232   4.421   1.173
 3073WAT     H2 9431   0.228   4.447   1.322
 3074WAT      O 9432   0.262   5.075   1.754
 3074WAT     H1 9433   0.172   5.098   1.779
 3074WAT     H2 9434   0.264   5.087   1.659
 3075WAT      O 9435   0.966   4.760   0.345
 3075WAT     H1 9436   1.010   4.676   0.331
 3075WAT     H2 9437   1.037   4.823   0.354
 3076WAT      O 9438   0.777   5.254   0.742
 3076WAT     H1 9439   0.821   5.328   0.701
 3076WAT     H2 9440   0.770   5.278   0.835
 3077WAT      O 9441   0.324   5.356   1.832
 3077WAT     H1 9442   0.321   5.397   1.746
 3077WAT     H2 9443   0.308   5.264   1.816
 3078WAT      O 9444   1.324   3.885   0.177
 3078WAT     H1 9445   1.292   3.895   0.267
 3078WAT     H2 9446   1.400   3.943   0.172
 3079WAT      O 9447   1.519   5.435   1.962
 3079WAT     H1 9448   1.567   5.483   2.030
 3079WAT     H2 9449   1.581   5.428   1.890
 3080WAT      O 9450   1.460   5.154   1.678
 3080WAT     H1 9451   1.472   5.130   1.586
 3080WAT     H2 9452   1.464   5.071   1.725
 3081WAT      O 9453   1.014   5.304   0.334
 3081WAT     H1 9454   0.944   5.303   0.268
 3081WAT     H2 9455   1.088   5.261   0.291
 3082WAT      O 9456   1.445   4.359   1.775
 3082WAT     H1 9457   1.383   4.410   1.722
 3082WAT     H2 9458   1.413   4.269   1.769
 3083WAT      O 9459   0.222   3.956   0.961
 3083WAT     H1 9460   0.178   4.035   0.928
 3083WAT     H2 9461   0.278   3.989   1.032
 3084WAT      O 9462   0.651   4.243   1.521
 3084WAT     H1 9463   0.605   4.264   1.602
 3084WAT     H2 9464   0.611   4.162   1.491
 3085WAT      O 9465   1.151   4.365   1.634
 3085WAT     H1 9466   1.066   4.335   1.666
 3085WAT     H2 9467   1.135   4.390   1.543
 3086WAT      O 9468   0.860   4.515   1.844
 3086WAT     H1 9469   0.893   4.432   1.810
 3086WAT     H2 9470   0.939   4.567   1.859
 3087WAT      O 9471   0.534   3.919   0.449
 3087WAT     H1 9472   0.471   3.918   0.521
 3087WAT     H2 9473   0.525   3.832   0.409
 3088WAT      O 9474   0.426   4.011   1.147
 3088WAT     H1 9475   0.456   4.102   1.139
 3088WAT     H2 9476   0.481   3.962   1.085
 3089WAT      O 9477   0.924   4.469   0.594
 3089WAT     H1 9478   0.864   4.542   0.575
 3089WAT     H2 9479   0.979   4.463   0.515
 3090WAT      O 9480   0.445   4.559   1.800
 3090WAT     H1 9481   0.436   4.465   1.785
 3090WAT     H2 9482   0.530   4.581   1.761
 3091WAT      O 9483   0.785   4.333   0.797
 3091WAT     H1 9484   0.824   4.365   0.715
 3091WAT     H2 9485   0.821   4.245   0.808
 3092WAT      O 9486   0.616   4.208   1.923
 3092WAT     H1 9487   0.547   4.189   1.986
 3092WAT     H2 9488   0.690   4.236   1.976
 3093WAT      O 9489   0.844   4.592   1.206
 3093WAT     H1 9490   0.770   4.643   1.241
 3093WAT     H2 9491   0.804   4.510   1.176
 3094WAT      O 9492   0.487   4.260   1.047
 3094WAT     H1 9493   0.488   4.216   0.962
 3094WAT     H2 9494   0.577   4.292   1.057
 3095WAT      O 9495   0.494   4.360   0.346
 3095WAT     H1 9496   0.506   4.356   0.441
 3095WAT     H2 9497   0.455   4.446   0.330
 3096WAT      O 9498   0.890   4.137   1.147
 3096WAT     H1 9499   0.892   4.183   1.232
 3096WAT     H2 9500   0.865   4.047   1.169
 3097WAT      O 9501   0.395   4.591   0.286
 3097WAT     H1 9502   0.338   4.546   0.223
 3097WAT     H2 9503   0.466   4.627   0.232
 3098WAT      O 9504   1.233   3.879   1.731
 3098WAT     H1 9505   1.265   3.806   1.784
 3098WAT     H2 9506   1.236   3.847   1.641
 3099WAT      O 9507   0.517   4.666   1.221
 3099WAT     H1 9508   0.554   4.618   1.296
 3099WAT     H2 9509   0.498   4.753   1.255
 3100WAT      O 9510   0.296   4.570   1.453
 3100WAT     H1 9511   0.266   4.658   1.476
 3100WAT     H2 9512   0.392   4.576   1.457
 3101WAT      O 9513   1.225   4.890   1.092
 3101WAT     H1 9514   1.297   4.940   1.053
 3101WAT     H2 9515   1.205   4.822   1.028
 3102WAT      O 9516   0.771   4.029   0.506
 3102WAT     H1 9517   0.690   3.980   0.499
 3102WAT     H2 9518   0.752   4.113   0.465
 3103WAT      O 9519   0.763   4.897   1.681
 3103WAT     H1 9520   0.757   4.805   1.655
 3103WAT     H2 9521   0.700   4.907   1.752
 3104WAT      O 9522   1.043   4.467   0.336
 3104WAT     H1 9523   1.131   4.498   0.318
 3104WAT     H2 9524   1.040   4.379   0.297
 3105WAT      O 9525   0.642   5.084   0.404
 3105WAT     H1 9526   0.676   5.158   0.354
 3105WAT     H2 9527   0.559   5.115   0.440
 3106WAT      O 9528   0.222   4.700   1.856
 3106WAT     H1 9529   0.192   4.714   1.767
 3106WAT     H2 9530   0.299   4.644   1.847
 3107WAT      O 9531   0.756   5.179   1.656
 3107WAT     H1 9532   0.758   5.086   1.634
 3107WAT     H2 9533   0.686   5.188   1.720
 3108WAT      O 9534   1.270   4.598   0.283
 3108WAT     H1 9535   1.261   4.641   0.198
 3108WAT     H2 9536   1.342   4.644   0.326
 3109WAT      O 9537   1.378   4.843   1.590
 3109WAT     H1 9538   1.305   4.903   1.571
 3109WAT     H2 9539   1.430   4.843   1.511
 3110WAT      O 9540   1.373   5.283   0.556
 3110WAT     H1 9541   1.308   5.218   0.583
 3110WAT     H2 9542   1.334   5.324   0.478
 3111WAT      O 9543   0.931   5.016   0.940
 3111WAT     H1 9544   0.966   4.956   0.874
 3111WAT     H2 9545   0.842   4.983   0.957
 3112WAT      O 9546   0.539   5.092   0.681
 3112WAT     H1 9547   0.608   5.147   0.719
 3112WAT     H2 9548   0.461   5.146   0.685
 3113WAT      O 9549   0.469   4.792   0.642
 3113WAT     H1 9550   0.515   4.873   0.665
 3113WAT     H2 9551   0.434   4.761   0.725
 3114WAT      O 9552   0.700   5.343   1.365
 3114WAT     H1 9553   0.764   5.364   1.433
 3114WAT     H2 9554   0.736   5.267   1.320
 3115WAT      O 9555   0.827   5.144   1.237
 3115WAT     H1 9556   0.891   5.074   1.248
 3115WAT     H2 9557   0.880   5.222   1.219
 3116WAT      O 9558   1.004   5.224   1.557
 3116WAT     H1 9559   1.038   5.282   1.625
 3116WAT     H2 9560   0.912   5.211   1.580
 3117WAT      O 9561   1.170   4.964   0.375
 3117WAT     H1 9562   1.141   5.010   0.454
 3117WAT     H2 9563   1.249   4.918   0.402
 3118WAT      O 9564   0.587   5.229   1.874
 3118WAT     H1 9565   0.555   5.157   1.929
 3118WAT     H2 9566   0.520   5.296   1.882
 3119WAT      O 9567   0.392   5.313   0.369
 3119WAT     H1 9568   0.391   5.387   0.307
 3119WAT     H2 9569   0.299   5.289   0.378
 3120WAT      O 9570   0.909   4.252   1.411
 3120WAT     H1 9571   0.946   4.170   1.443
 3120WAT     H2 9572   0.823   4.258   1.452
 3121WAT      O 9573   1.246   4.147   0.491
 3121WAT     H1 9574   1.183   4.158   0.420
 3121WAT     H2 9575   1.196   4.169   0.570
 3122WAT      O 9576   0.442   4.375   0.633
 3122WAT     H1 9577   0.372   4.422   0.677
 3122WAT     H2 9578   0.471   4.310   0.696
 3123WAT      O 9579   0.605   4.517   1.433
 3123WAT     H1 9580   0.655   4.565   1.499
 3123WAT     H2 9581   0.619   4.425   1.454
 3124WAT      O 9582   0.846   4.048   0.777
 3124WAT     H1 9583   0.833   4.050   0.682
 3124WAT     H2 9584   0.940   4.053   0.789
 3125WAT      O 9585   0.263   4.206   0.371
 3125WAT     H1 9586   0.348   4.250   0.364
 3125WAT     H2 9587   0.226   4.237   0.453
 3126WAT      O 9588   1.326   4.139   1.517
 3126WAT     H1 9589   1.275   4.213   1.551
 3126WAT     H2 9590   1.407   4.178   1.486
 3127WAT      O 9591   1.155   4.663   0.862
 3127WAT     H1 9592   1.061   4.665   0.879
 3127WAT     H2 9593   1.186   4.585   0.906
 3128WAT      O 9594   1.355   5.380   1.029
 3128WAT     H1 9595   1.368   5.463   1.077
 3128WAT     H2 9596   1.442   5.359   0.995
 3129WAT      O 9597   0.886   5.119   1.910
 3129WAT     H1 9598   0.826   5.121   1.836
 3129WAT     H2 9599   0.856   5.046   1.964
 3130WAT      O 9600   0.480   4.898   1.763
 3130WAT     H1 9601   0.404   4.954   1.755
 3130WAT     H2 9602   0.498   4.868   1.674
 3131WAT      O 9603   0.789   4.935   0.226
 3131WAT     H1 9604   0.734   4.980   0.290
 3131WAT     H2 9605   0.851   4.885   0.278
 3132WAT      O 9606   1.194   5.071   1.819
 3132WAT     H1 9607   1.269   5.104   1.769
 3132WAT     H2 9608   1.118   5.088   1.764
 3133WAT      O 9609   0.356   4.831   0.415
 3133WAT     H1 9610   0.398   4.815   0.500
 3133WAT     H2 9611   0.368   4.750   0.366
 3134WAT      O 9612   1.062   4.876   1.672
 3134WAT     H1 9613   1.103   4.891   1.757
 3134WAT     H2 9614   0.968   4.888   1.689
 3135WAT      O 9615   1.109   4.610   1.873
 3135WAT     H1 9616   1.167   4.534   1.864
 3135WAT     H2 9617   1.127   4.663   1.795
 3136WAT      O 9618   0.497   3.981   1.407
 3136WAT     H1 9619   0.453   3.984   1.323
 3136WAT     H2 9620   0.434   3.942   1.467
 3137WAT      O 9621   0.538   4.871   1.469
 3137WAT     H1 9622   0.580   4.955   1.452
 3137WAT     H2 9623   0.446   4.885   1.446
 3138WAT      O 9624   0.772   4.644   1.608
 3138WAT     H1 9625   0.784   4.585   1.682
 3138WAT     H2 9626   0.858   4.648   1.566
 3139WAT      O 9627   1.006   4.700   1.465
 3139WAT     H1 9628   0.953   4.752   1.405
 3139WAT     H2 9629   1.040   4.763   1.528
 3140WAT      O 9630   0.448   4.298   1.734
 3140WAT     H1 9631   0.507   4.268   1.802
 3140WAT     H2 9632   0.367   4.251   1.749
 3141WAT      O 9633   0.930   4.260   1.757
 3141WAT     H1 9634   0.861   4.194   1.750
 3141WAT     H2 9635   1.002   4.215   1.801
 3142WAT      O 9636   0.993   3.920   0.363
 3142WAT     H1 9637   1.021   3.835   0.398
 3142WAT     H2 9638   0.916   3.943   0.414
 3143WAT      O 9639   0.209   5.191   0.703
 3143WAT     H1 9640   0.179   5.179   0.793
 3143WAT     H2 9641   0.198   5.105   0.662
 3144WAT      O 9642   1.362   5.395   1.640
 3144WAT     H1 9643   1.302   5.401   1.565
 3144WAT     H2 9644   1.374   5.301   1.653
 3145WAT      O 9645   1.431   4.843   0.424
 3145WAT     H1 9646   1.507   4.900   0.434
 3145WAT     H2 9647   1.433   4.787   0.501
 3146WAT      O 9648   1.532   4.929   0.908
 3146WAT     H1 9649   1.569   4.851   0.868
 3146WAT     H2 9650   1.596   4.998   0.890
 3147WAT      O 9651   1.230   5.067   1.450
 3147WAT     H1 9652   1.149   5.110   1.476
 3147WAT     H2 9653   1.271   5.128   1.388
 3148WAT      O 9654   1.076   4.175   0.269
 3148WAT     H1 9655   1.118   4.156   0.185
 3148WAT     H2 9656   1.045   4.090   0.300
 3149WAT      O 9657   1.426   4.666   0.639
 3149WAT     H1 9658   1.388   4.590   0.596
 3149WAT     H2 9659   1.353   4.705   0.688
 3150WAT      O 9660   1.365   4.581   1.602
 3150WAT     H1 9661   1.342   4.558   1.512
 3150WAT     H2 9662   1.391   4.673   1.598
 3151WAT      O 9663   1.209   4.104   1.880
 3151WAT     H1 9664   1.297   4.104   1.918
 3151WAT     H2 9665   1.210   4.030   1.819
 3152WAT      O 9666   1.353   4.489   0.969
 3152WAT     H1 9667   1.406   4.440   0.906
 3152WAT     H2 9668   1.412   4.502   1.043
 3153WAT      O 9669   1.371   4.497   1.321
 3153WAT     H1 9670   1.276   4.494   1.333
 3153WAT     H2 9671   1.389   4.588   1.298
 3154WAT      O 9672   1.302   4.415   0.563
 3154WAT     H1 9673   1.352   4.391   0.641
 3154WAT     H2 9674   1.283   4.331   0.521
 3155WAT      O 9675   1.445   4.278   0.816
 3155WAT     H1 9676   1.434   4.263   0.910
 3155WAT     H2 9677   1.521   4.226   0.792
 3156WAT      O 9678   1.280   3.872   1.462
 3156WAT     H1 9679   1.344   3.934   1.499
 3156WAT     H2 9680   1.295   3.876   1.368
 3157WAT      O 9681   1.542   4.138   0.403
 3157WAT     H1 9682   1.462   4.132   0.456
 3157WAT     H2 9683   1.562   4.232   0.402
 3158WAT      O 9684   0.396   5.341   1.377
 3158WAT     H1 9685   0.372   5.368   1.289
 3158WAT     H2 9686   0.491   5.358   1.383
 3159WAT      O 9687   0.617   3.988   1.753
 3159WAT     H1 9688   0.611   4.047   1.828
 3159WAT     H2 9689   0.711   3.977   1.738
 3160WAT      O 9690   0.881   3.953   1.717
 3160WAT     H1 9691   0.942   3.985   1.651
 3160WAT     H2 9692   0.935   3.905   1.779
 3161WAT      O 9693   0.955   3.810   1.349
 3161WAT     H1 9694   0.867   3.843   1.329
 3161WAT     H2 9695   0.944   3.762   1.432
 3162WAT      O 9696   1.046   4.030   1.488
 3162WAT     H1 9697   1.013   3.949   1.450
 3162WAT     H2 9698   1.140   4.026   1.475
 3163WAT      O 9699   0.334   5.438   1.103
 3163WAT     H1 9700   0.386   5.377   1.050
 3163WAT     H2 9701   0.399   5.489   1.152
 3164WAT      O 9702   0.730   3.901   1.243
 3164WAT     H1 9703   0.651   3.949   1.271
 3164WAT     H2 9704   0.700   3.811   1.232
 3165WAT      O 9705   1.185   3.971   1.048
 3165WAT     H1 9706   1.229   3.966   0.963
 3165WAT     H2 9707   1.158   4.063   1.055
 3166WAT      O 9708   1.371   3.935   0.849
 3166WAT     H1 9709   1.365   3.840   0.834
 3166WAT     H2 9710   1.449   3.945   0.903
 3167WAT      O 9711   0.518   4.143   0.794
 3167WAT     H1 9712   0.437   4.106   0.760
 3167WAT     H2 9713   0.569   4.068   0.825
 3168WAT      O 9714   0.968   3.810   0.918
 3168WAT     H1 9715   1.029   3.867   0.966
 3168WAT     H2 9716   0.894   3.866   0.896
 3169WAT      O 9717   1.283   3.850   0.446
 3169WAT     H1 9718   1.302   3.940   0.472
 3169WAT     H2 9719   1.204   3.827   0.495
 3170WAT      O 9720   0.321   3.958   0.655
 3170WAT     H1 9721   0.258   3.888   0.672
 3170WAT     H2 9722   0.267   4.034   0.633
 3171WAT      O 9723   0.333   3.886   1.898
 3171WAT     H1 9724   0.305   3.936   1.822
 3171WAT     H2 9725   0.371   3.806   1.862
 3172WAT      O 9726   0.993   3.827   1.956
 3172WAT     H1 9727   0.982   3.859   2.046
 3172WAT     H2 9728   1.075   3.868   1.927
 3173WAT      O 9729   0.884   2.752   4.625
 3173WAT     H1 9730   0.876   2.661   4.598
 3173WAT     H2 9731   0.843   2.802   4.554
 3174WAT      O 9732   0.697   2.930   4.813
 3174WAT     H1 9733   0.620   2.882   4.842
 3174WAT     H2 9734   0.762   2.862   4.796
 3175WAT      O 9735   1.099   3.370   4.691
 3175WAT     H1 9736   1.053   3.293   4.724
 3175WAT     H2 9737   1.180   3.373   4.742
 3176WAT      O 9738   0.722   3.599   4.653
 3176WAT     H1 9739   0.660   3.645   4.596
 3176WAT     H2 9740   0.807   3.614   4.613
 3177WAT      O 9741   0.641   3.197   4.814
 3177WAT     H1 9742   0.634   3.103   4.798
 3177WAT     H2 9743   0.717   3.206   4.871
 3178WAT      O 9744   0.744   2.478   4.836
 3178WAT     H1 9745   0.782   2.391   4.825
 3178WAT     H2 9746   0.734   2.512   4.747
 3179WAT      O 9747   1.122   2.228   4.530
 3179WAT     H1 9748   1.205   2.178   4.534
 3179WAT     H2 9749   1.126   2.287   4.605
 3180WAT      O 9750   0.341   2.612   4.816
 3180WAT     H1 9751   0.392   2.662   4.880
 3180WAT     H2 9752   0.395   2.534   4.798
 3181WAT      O 9753   1.551   2.429   5.186
 3181WAT     H1 9754   1.481   2.468   5.134
 3181WAT     H2 9755   1.578   2.499   5.246
 3182WAT      O 9756   0.808   3.087   4.392
 3182WAT     H1 9757   0.747   3.134   4.336
 3182WAT     H2 9758   0.860   3.157   4.434
 3183WAT      O 9759   0.295   3.040   5.060
 3183WAT     H1 9760   0.261   3.103   5.124
 3183WAT     H2 9761   0.312   3.093   4.982
 3184WAT      O 9762   1.146   2.422   4.807
 3184WAT     H1 9763   1.076   2.450   4.865
 3184WAT     H2 9764   1.182   2.503   4.771
 3185WAT      O 9765   1.308   3.383   5.033
 3185WAT     H1 9766   1.239   3.450   5.032
 3185WAT     H2 9767   1.362   3.403   4.957
 3186WAT      O 9768   1.453   2.366   4.846
 3186WAT     H1 9769   1.358   2.369   4.859
 3186WAT     H2 9770   1.485   2.447   4.885
 3187WAT      O 9771   0.506   1.996   4.676
 3187WAT     H1 9772   0.537   1.941   4.604
 3187WAT     H2 9773   0.413   2.009   4.657
 3188WAT      O 9774   1.061   3.568   4.905
 3188WAT     H1 9775   1.063   3.527   4.818
 3188WAT     H2 9776   1.006   3.645   4.894
 3189WAT      O 9777   1.191   3.240   4.414
 3189WAT     H1 9778   1.180   3.146   4.426
 3189WAT     H2 9779   1.190   3.276   4.502
 3190WAT      O 9780   1.001   3.058   5.038
 3190WAT     H1 9781   1.043   3.037   4.954
 3190WAT     H2 9782   1.074   3.084   5.095
 3191WAT      O 9783   0.745   2.803   4.349
 3191WAT     H1 9784   0.652   2.796   4.372
 3191WAT     H2 9785   0.760   2.896   4.338
 3192WAT      O 9786   0.744   2.430   4.049
 3192WAT     H1 9787   0.650   2.446   4.057
 3192WAT     H2 9788   0.776   2.502   3.994
 3193WAT      O 9789   1.396   2.898   5.047
 3193WAT     H1 9790   1.313   2.905   4.999
 3193WAT     H2 9791   1.455   2.956   5.000
 3194WAT      O 9792   1.148   2.959   4.400
 3194WAT     H1 9793   1.086   2.925   4.335
 3194WAT     H2 9794   1.146   2.894   4.470
 3195WAT      O 9795   1.092   2.577   5.141
 3195WAT     H1 9796   1.051   2.659   5.167
 3195WAT     H2 9797   1.019   2.518   5.122
 3196WAT      O 9798   0.306   2.855   4.627
 3196WAT     H1 9799   0.265   2.784   4.578
 3196WAT     H2 9800   0.314   2.821   4.716
 3197WAT      O 9801   0.352   3.224   4.844
 3197WAT     H1 9802   0.323   3.163   4.776
 3197WAT     H2 9803   0.447   3.228   4.833
 3198WAT      O 9804   0.177   2.533   5.005
 3198WAT     H1 9805   0.232   2.544   4.928
 3198WAT     H2 9806   0.228   2.570   5.077
 3199WAT      O 9807   1.161   3.581   5.210
 3199WAT     H1 9808   1.114   3.662   5.191
 3199WAT     H2 9809   1.093   3.516   5.225
 3200WAT      O 9810   0.262   3.198   5.509
 3200WAT     H1 9811   0.172   3.220   5.534
 3200WAT     H2 9812   0.264   3.210   5.414
 3201WAT      O 9813   0.966   2.883   4.100
 3201WAT     H1 9814   1.010   2.799   4.086
 3201WAT     H2 9815   1.037   2.946   4.109
 3202WAT      O 9816   0.777   3.377   4.497
 3202WAT     H1 9817   0.821   3.451   4.456
 3202WAT     H2 9818   0.770   3.401   4.589
 3203WAT      O 9819   0.324   3.479   5.587
 3203WAT     H1 9820   0.321   3.519   5.501
 3203WAT     H2 9821   0.308   3.386   5.571
 3204WAT      O 9822   1.460   3.276   5.433
 3204WAT     H1 9823   1.472   3.253   5.341
 3204WAT     H2 9824   1.464   3.193   5.480
 3205WAT      O 9825   0.846   3.647   5.290
 3205WAT     H1 9826   0.897   3.638   5.370
 3205WAT     H2 9827   0.761   3.681   5.319
 3206WAT      O 9828   1.043   3.675   4.233
 3206WAT     H1 9829   1.027   3.646   4.323
 3206WAT     H2 9830   1.027   3.598   4.179
 3207WAT      O 9831   0.291   3.653   4.410
 3207WAT     H1 9832   0.274   3.562   4.389
 3207WAT     H2 9833   0.206   3.689   4.434
 3208WAT      O 9834   1.014   3.426   4.089
 3208WAT     H1 9835   0.944   3.426   4.023
 3208WAT     H2 9836   1.088   3.384   4.046
 3209WAT      O 9837   0.970   3.589   4.496
 3209WAT     H1 9838   1.016   3.511   4.528
 3209WAT     H2 9839   1.004   3.660   4.551
 3210WAT      O 9840   1.445   2.482   5.529
 3210WAT     H1 9841   1.383   2.533   5.477
 3210WAT     H2 9842   1.413   2.392   5.524
 3211WAT      O 9843   0.222   2.079   4.716
 3211WAT     H1 9844   0.178   2.157   4.683
 3211WAT     H2 9845   0.278   2.111   4.786
 3212WAT      O 9846   0.651   2.366   5.276
 3212WAT     H1 9847   0.605   2.387   5.357
 3212WAT     H2 9848   0.611   2.284   5.246
 3213WAT      O 9849   1.151   2.488   5.389
 3213WAT     H1 9850   1.066   2.458   5.421
 3213WAT     H2 9851   1.135   2.512   5.298
 3214WAT      O 9852   0.860   2.638   5.599
 3214WAT     H1 9853   0.893   2.554   5.565
 3214WAT     H2 9854   0.939   2.690   5.614
 3215WAT      O 9855   0.534   2.041   4.204
 3215WAT     H1 9856   0.471   2.041   4.276
 3215WAT     H2 9857   0.525   1.954   4.164
 3216WAT      O 9858   0.426   2.133   4.902
 3216WAT     H1 9859   0.456   2.224   4.894
 3216WAT     H2 9860   0.481   2.085   4.840
 3217WAT      O 9861   0.924   2.592   4.348
 3217WAT     H1 9862   0.864   2.664   4.330
 3217WAT     H2 9863   0.979   2.586   4.270
 3218WAT      O 9864   0.445   2.681   5.555
 3218WAT     H1 9865   0.436   2.587   5.540
 3218WAT     H2 9866   0.530   2.703   5.516
 3219WAT      O 9867   0.785   2.456   4.551
 3219WAT     H1 9868   0.824   2.487   4.470
 3219WAT     H2 9869   0.821   2.368   4.563
 3220WAT      O 9870   0.844   2.715   4.961
 3220WAT     H1 9871   0.770   2.766   4.996
 3220WAT     H2 9872   0.804   2.633   4.931
 3221WAT      O 9873   0.487   2.382   4.801
 3221WAT     H1 9874   0.488   2.338   4.717
 3221WAT     H2 9875   0.577   2.414   4.812
 3222WAT      O 9876   0.494   2.482   4.101
 3222WAT     H1 9877   0.506   2.478   4.195
 3222WAT     H2 9878   0.455   2.569   4.085
 3223WAT      O 9879   0.890   2.260   4.902
 3223WAT     H1 9880   0.892   2.305   4.987
 3223WAT     H2 9881   0.865   2.170   4.924
 3224WAT      O 9882   0.395   2.713   4.040
 3224WAT     H1 9883   0.338   2.669   3.978
 3224WAT     H2 9884   0.466   2.749   3.987
 3225WAT      O 9885   1.233   2.001   5.486
 3225WAT     H1 9886   1.265   1.928   5.539
 3225WAT     H2 9887   1.236   1.969   5.396
 3226WAT      O 9888   0.517   2.788   4.976
 3226WAT     H1 9889   0.554   2.741   5.051
 3226WAT     H2 9890   0.498   2.876   5.010
 3227WAT      O 9891   0.296   2.692   5.208
 3227WAT     H1 9892   0.266   2.780   5.230
 3227WAT     H2 9893   0.392   2.698   5.212
 3228WAT      O 9894   1.225   3.013   4.847
 3228WAT     H1 9895   1.297   3.062   4.808
 3228WAT     H2 9896   1.205   2.945   4.782
 3229WAT      O 9897   0.771   2.152   4.261
 3229WAT     H1 9898   0.690   2.102   4.254
 3229WAT     H2 9899   0.752   2.236   4.220
 3230WAT      O 9900   0.763   3.020   5.436
 3230WAT     H1 9901   0.757   2.928   5.410
 3230WAT     H2 9902   0.700   3.029   5.507
 3231WAT      O 9903   1.043   2.589   4.091
 3231WAT     H1 9904   1.131   2.620   4.073
 3231WAT     H2 9905   1.040   2.502   4.052
 3232WAT      O 9906   0.642   3.206   4.159
 3232WAT     H1 9907   0.676   3.281   4.109
 3232WAT     H2 9908   0.559   3.238   4.195
 3233WAT      O 9909   0.222   2.822   5.611
 3233WAT     H1 9910   0.192   2.837   5.521
 3233WAT     H2 9911   0.299   2.766   5.602
 3234WAT      O 9912   0.756   3.302   5.411
 3234WAT     H1 9913   0.758   3.209   5.389
 3234WAT     H2 9914   0.686   3.310   5.475
 3235WAT      O 9915   1.270   2.720   4.038
 3235WAT     H1 9916   1.261   2.763   3.953
 3235WAT     H2 9917   1.342   2.766   4.081
 3236WAT      O 9918   1.378   2.966   5.345
 3236WAT     H1 9919   1.305   3.025   5.326
 3236WAT     H2 9920   1.430   2.965   5.265
 3237WAT      O 9921   1.373   3.406   4.310
 3237WAT     H1 9922   1.308   3.340   4.338
 3237WAT     H2 9923   1.334   3.446   4.233
 3238WAT      O 9924   0.931   3.139   4.695
 3238WAT     H1 9925   0.966   3.079   4.629
 3238WAT     H2 9926   0.842   3.106   4.712
 3239WAT      O 9927   0.539   3.215   4.436
 3239WAT     H1 9928   0.608   3.269   4.474
 3239WAT     H2 9929   0.461   3.269   4.439
 3240WAT      O 9930   0.469   2.915   4.397
 3240WAT     H1 9931   0.515   2.996   4.420
 3240WAT     H2 9932   0.434   2.883   4.480
 3241WAT      O 9933   0.700   3.466   5.120
 3241WAT     H1 9934   0.764   3.487   5.188
 3241WAT     H2 9935   0.736   3.390   5.075
 3242WAT      O 9936   0.827   3.266   4.992
 3242WAT     H1 9937   0.891   3.196   5.003
 3242WAT     H2 9938   0.880   3.344   4.974
 3243WAT      O 9939   1.212   3.295   3.964
 3243WAT     H1 9940   1.189   3.223   4.023
 3243WAT     H2 9941   1.173   3.270   3.880
 3244WAT      O 9942   1.004   3.346   5.312
 3244WAT     H1 9943   1.038   3.405   5.380
 3244WAT     H2 9944   0.912   3.333   5.335
 3245WAT      O 9945   1.170   3.087   4.130
 3245WAT     H1 9946   1.141   3.133   4.209
 3245WAT     H2 9947   1.249   3.041   4.157
 3246WAT      O 9948   0.392   3.436   4.123
 3246WAT     H1 9949   0.391   3.509   4.062
 3246WAT     H2 9950   0.299   3.411   4.133
 3247WAT      O 9951   0.909   2.374   5.165
 3247WAT     H1 9952   0.946   2.292   5.198
 3247WAT     H2 9953   0.823   2.380   5.207
 3248WAT      O 9954   1.246   2.270   4.246
 3248WAT     H1 9955   1.183   2.281   4.175
 3248WAT     H2 9956   1.196   2.292   4.325
 3249WAT      O 9957   0.690   3.442   3.990
 3249WAT     H1 9958   0.700   3.422   3.897
 3249WAT     H2 9959   0.600   3.417   4.010
 3250WAT      O 9960   0.442   2.498   4.388
 3250WAT     H1 9961   0.372   2.545   4.432
 3250WAT     H2 9962   0.471   2.432   4.451
 3251WAT      O 9963   0.605   2.640   5.188
 3251WAT     H1 9964   0.655   2.687   5.254
 3251WAT     H2 9965   0.619   2.548   5.209
 3252WAT      O 9966   0.846   2.170   4.532
 3252WAT     H1 9967   0.833   2.172   4.437
 3252WAT     H2 9968   0.940   2.175   4.544
 3253WAT      O 9969   0.554   3.694   4.459
 3253WAT     H1 9970   0.580   3.690   4.367
 3253WAT     H2 9971   0.459   3.681   4.458
 3254WAT      O 9972   0.263   2.329   4.125
 3254WAT     H1 9973   0.348   2.372   4.119
 3254WAT     H2 9974   0.226   2.360   4.208
 3255WAT      O 9975   1.326   2.262   5.272
 3255WAT     H1 9976   1.275   2.336   5.306
 3255WAT     H2 9977   1.407   2.300   5.240
 3256WAT      O 9978   1.155   2.786   4.617
 3256WAT     H1 9979   1.061   2.787   4.634
 3256WAT     H2 9980   1.186   2.707   4.661
 3257WAT      O 9981   1.355   3.503   4.784
 3257WAT     H1 9982   1.368   3.585   4.831
 3257WAT     H2 9983   1.442   3.482   4.750
 3258WAT      O 9984   0.413   3.630   3.934
 3258WAT     H1 9985   0.493   3.658   3.889
 3258WAT     H2 9986   0.361   3.587   3.866
 3259WAT      O 9987   1.029   3.614   5.526
 3259WAT     H1 9988   1.125   3.606   5.521
 3259WAT     H2 9989   1.015   3.681   5.593
 3260WAT      O 9990   1.319   3.552   4.076
 3260WAT     H1 9991   1.290   3.511   3.995
 3260WAT     H2 9992   1.299   3.645   4.064
 3261WAT      O 9993   0.465   3.152   3.920
 3261WAT     H1 9994   0.455   3.090   3.993
 3261WAT     H2 9995   0.448   3.099   3.842
 3262WAT      O 9996   0.480   3.020   5.518
 3262WAT     H1 9997   0.404   3.077   5.510
 3262WAT     H2 9998   0.498   2.991   5.429
 3263WAT      O 9999   0.789   3.058   3.981
 3263WAT     H110000   0.734   3.103   4.045
 3263WAT     H210001   0.851   3.007   4.033
 3264WAT      O10002   1.194   3.193   5.574
 3264WAT     H110003   1.269   3.227   5.523
 3264WAT     H210004   1.118   3.210   5.518
 3265WAT      O10005   0.356   2.954   4.170
 3265WAT     H110006   0.398   2.937   4.254
 3265WAT     H210007   0.368   2.873   4.121
 3266WAT      O10008   0.607   2.856   3.895
 3266WAT     H110009   0.659   2.785   3.858
 3266WAT     H210010   0.672   2.920   3.925
 3267WAT      O10011   1.062   2.998   5.427
 3267WAT     H110012   1.103   3.014   5.512
 3267WAT     H210013   0.968   3.011   5.444
 3268WAT      O10014   1.109   2.732   5.628
 3268WAT     H110015   1.167   2.657   5.619
 3268WAT     H210016   1.127   2.785   5.550
 3269WAT      O10017   0.497   2.104   5.162
 3269WAT     H110018   0.453   2.106   5.078
 3269WAT     H210019   0.434   2.064   5.222
 3270WAT      O10020   0.538   2.994   5.224
 3270WAT     H110021   0.580   3.078   5.207
 3270WAT     H210022   0.446   3.007   5.201
 3271WAT      O10023   0.772   2.767   5.363
 3271WAT     H110024   0.784   2.707   5.437
 3271WAT     H210025   0.858   2.770   5.321
 3272WAT      O10026   1.006   2.822   5.220
 3272WAT     H110027   0.953   2.875   5.160
 3272WAT     H210028   1.040   2.885   5.283
 3273WAT      O10029   0.245   2.561   3.865
 3273WAT     H110030   0.225   2.475   3.901
 3273WAT     H210031   0.228   2.552   3.771
 3274WAT      O10032   0.323   3.624   5.336
 3274WAT     H110033   0.269   3.697   5.304
 3274WAT     H210034   0.348   3.576   5.257
 3275WAT      O10035   0.448   2.421   5.488
 3275WAT     H110036   0.507   2.390   5.557
 3275WAT     H210037   0.367   2.374   5.504
 3276WAT      O10038   0.930   2.383   5.512
 3276WAT     H110039   0.861   2.316   5.505
 3276WAT     H210040   1.002   2.338   5.556
 3277WAT      O10041   0.993   2.042   4.118
 3277WAT     H110042   1.021   1.958   4.153
 3277WAT     H210043   0.916   2.065   4.169
 3278WAT      O10044   0.609   3.748   5.362
 3278WAT     H110045   0.601   3.838   5.392
 3278WAT     H210046   0.519   3.716   5.359
 3279WAT      O10047   0.447   2.165   3.962
 3279WAT     H110048   0.412   2.098   3.904
 3279WAT     H210049   0.467   2.119   4.044
 3280WAT      O10050   0.664   3.664   4.124
 3280WAT     H110051   0.753   3.698   4.126
 3280WAT     H210052   0.667   3.592   4.061
 3281WAT      O10053   0.209   3.313   4.458
 3281WAT     H110054   0.179   3.301   4.548
 3281WAT     H210055   0.198   3.228   4.417
 3282WAT      O10056   1.362   3.517   5.395
 3282WAT     H110057   1.302   3.523   5.320
 3282WAT     H210058   1.374   3.423   5.408
 3283WAT      O10059   1.486   3.291   3.928
 3283WAT     H110060   1.402   3.298   3.975
 3283WAT     H210061   1.503   3.380   3.898
 3284WAT      O10062   1.431   2.966   4.179
 3284WAT     H110063   1.507   3.023   4.189
 3284WAT     H210064   1.433   2.909   4.256
 3285WAT      O10065   1.532   3.051   4.663
 3285WAT     H110066   1.569   2.973   4.622
 3285WAT     H210067   1.596   3.120   4.645
 3286WAT      O10068   1.230   3.190   5.204
 3286WAT     H110069   1.149   3.233   5.231
 3286WAT     H210070   1.271   3.251   5.143
 3287WAT      O10071   1.436   2.995   3.894
 3287WAT     H110072   1.464   3.086   3.882
 3287WAT     H210073   1.417   2.989   3.988
 3288WAT      O10074   1.076   2.298   4.024
 3288WAT     H110075   1.118   2.279   3.940
 3288WAT     H210076   1.045   2.212   4.055
 3289WAT      O10077   1.426   2.789   4.394
 3289WAT     H110078   1.388   2.712   4.351
 3289WAT     H210079   1.353   2.827   4.442
 3290WAT      O10080   1.365   2.704   5.357
 3290WAT     H110081   1.342   2.681   5.267
 3290WAT     H210082   1.391   2.796   5.353
 3291WAT      O10083   1.353   2.612   4.724
 3291WAT     H110084   1.406   2.562   4.661
 3291WAT     H210085   1.412   2.625   4.798
 3292WAT      O10086   1.371   2.620   5.076
 3292WAT     H110087   1.276   2.617   5.087
 3292WAT     H210088   1.389   2.711   5.052
 3293WAT      O10089   1.302   2.537   4.318
 3293WAT     H110090   1.352   2.514   4.396
 3293WAT     H210091   1.283   2.453   4.276
 3294WAT      O10092   1.445   2.401   4.571
 3294WAT     H110093   1.434   2.385   4.665
 3294WAT     H210094   1.521   2.348   4.547
 3295WAT      O10095   1.280   1.995   5.217
 3295WAT     H110096   1.344   2.056   5.253
 3295WAT     H210097   1.295   1.998   5.122
 3296WAT      O10098   1.236   3.665   4.557
 3296WAT     H110099   1.295   3.633   4.489
 3296WAT     H210100   1.262   3.618   4.636
 3297WAT      O10101   0.396   3.464   5.132
 3297WAT     H110102   0.372   3.490   5.043
 3297WAT     H210103   0.491   3.481   5.138
 3298WAT      O10104   0.617   2.110   5.508
 3298WAT     H110105   0.611   2.169   5.583
 3298WAT     H210106   0.711   2.099   5.493
 3299WAT      O10107   0.881   2.076   5.472
 3299WAT     H110108   0.942   2.108   5.405
 3299WAT     H210109   0.935   2.027   5.534
 3300WAT      O10110   1.523   3.666   5.212
 3300WAT     H110111   1.473   3.705   5.140
 3300WAT     H210112   1.462   3.603   5.252
 3301WAT      O10113   0.955   1.932   5.104
 3301WAT     H110114   0.867   1.965   5.084
 3301WAT     H210115   0.944   1.885   5.187
 3302WAT      O10116   1.046   2.153   5.243
 3302WAT     H110117   1.013   2.071   5.205
 3302WAT     H210118   1.140   2.148   5.230
 3303WAT      O10119   1.291   3.730   4.940
 3303WAT     H110120   1.245   3.805   4.903
 3303WAT     H210121   1.228   3.658   4.934
 3304WAT      O10122   0.334   3.561   4.858
 3304WAT     H110123   0.386   3.500   4.805
 3304WAT     H210124   0.399   3.611   4.907
 3305WAT      O10125   0.608   3.650   4.940
 3305WAT     H110126   0.637   3.624   4.853
 3305WAT     H210127   0.659   3.595   4.999
 3306WAT      O10128   0.730   2.024   4.998
 3306WAT     H110129   0.651   2.071   5.026
 3306WAT     H210130   0.700   1.933   4.987
 3307WAT      O10131   1.185   2.094   4.803
 3307WAT     H110132   1.229   2.088   4.718
 3307WAT     H210133   1.158   2.186   4.810
 3308WAT      O10134   1.371   2.057   4.604
 3308WAT     H110135   1.365   1.963   4.589
 3308WAT     H210136   1.449   2.068   4.658
 3309WAT      O10137   0.518   2.266   4.549
 3309WAT     H110138   0.437   2.228   4.515
 3309WAT     H210139   0.569   2.190   4.580
 3310WAT      O10140   0.968   1.932   4.673
 3310WAT     H110141   1.029   1.989   4.721
 3310WAT     H210142   0.894   1.988   4.651
 3311WAT      O10143   0.321   2.081   4.410
 3311WAT     H110144   0.258   2.011   4.427
 3311WAT     H210145   0.267   2.157   4.388
 3312WAT      O10146   1.438   3.696   4.377
 3312WAT     H110147   1.456   3.628   4.312
 3312WAT     H210148   1.368   3.749   4.337
 3313WAT      O10149   0.333   2.008   5.653
 3313WAT     H110150   0.305   2.059   5.577
 3313WAT     H210151   0.371   1.929   5.617
 3314WAT      O10152   0.222   3.735   4.132
 3314WAT     H110153   0.295   3.707   4.077
 3314WAT     H210154   0.248   3.711   4.221
 3315WAT      O10155   0.884   2.752   2.747
 3315WAT     H110156   0.876   2.661   2.720
 3315WAT     H210157   0.843   2.802   2.677
 3316WAT      O10158   0.697   2.930   2.936
 3316WAT     H110159   0.620   2.882   2.965
 3316WAT     H210160   0.762   2.862   2.918
 3317WAT      O10161   1.099   3.370   2.814
 3317WAT     H110162   1.053   3.293   2.846
 3317WAT     H210163   1.180   3.373   2.864
 3318WAT      O10164   0.722   3.599   2.776
 3318WAT     H110165   0.660   3.645   2.719
 3318WAT     H210166   0.807   3.614   2.735
 3319WAT      O10167   0.641   3.197   2.936
 3319WAT     H110168   0.634   3.103   2.920
 3319WAT     H210169   0.717   3.206   2.993
 3320WAT      O10170   0.744   2.478   2.959
 3320WAT     H110171   0.782   2.391   2.948
 3320WAT     H210172   0.734   2.512   2.870
 3321WAT      O10173   1.122   2.228   2.652
 3321WAT     H110174   1.205   2.178   2.657
 3321WAT     H210175   1.126   2.287   2.728
 3322WAT      O10176   0.341   2.612   2.938
 3322WAT     H110177   0.392   2.662   3.002
 3322WAT     H210178   0.395   2.534   2.921
 3323WAT      O10179   1.551   2.429   3.309
 3323WAT     H110180   1.481   2.468   3.257
 3323WAT     H210181   1.578   2.499   3.369
 3324WAT      O10182   0.808   3.087   2.515
 3324WAT     H110183   0.747   3.134   2.459
 3324WAT     H210184   0.860   3.157   2.557
 3325WAT      O10185   0.295   3.040   3.183
 3325WAT     H110186   0.261   3.103   3.247
 3325WAT     H210187   0.312   3.093   3.105
 3326WAT      O10188   1.146   2.422   2.930
 3326WAT     H110189   1.076   2.450   2.988
 3326WAT     H210190   1.182   2.503   2.894
 3327WAT      O10191   1.308   3.383   3.156
 3327WAT     H110192   1.239   3.450   3.155
 3327WAT     H210193   1.362   3.403   3.079
 3328WAT      O10194   1.453   2.366   2.969
 3328WAT     H110195   1.358   2.369   2.982
 3328WAT     H210196   1.485   2.447   3.007
 3329WAT      O10197   0.506   1.996   2.798
 3329WAT     H110198   0.537   1.941   2.727
 3329WAT     H210199   0.413   2.009   2.780
 3330WAT      O10200   1.061   3.568   3.027
 3330WAT     H110201   1.063   3.527   2.940
 3330WAT     H210202   1.006   3.645   3.017
 3331WAT      O10203   1.191   3.240   2.536
 3331WAT     H110204   1.180   3.146   2.549
 3331WAT     H210205   1.190   3.276   2.625
 3332WAT      O10206   1.001   3.058   3.160
 3332WAT     H110207   1.043   3.037   3.077
 3332WAT     H210208   1.074   3.084   3.217
 3333WAT      O10209   0.745   2.803   2.472
 3333WAT     H110210   0.652   2.796   2.495
 3333WAT     H210211   0.760   2.896   2.460
 3334WAT      O10212   0.744   2.430   2.171
 3334WAT     H110213   0.650   2.446   2.180
 3334WAT     H210214   0.776   2.502   2.117
 3335WAT      O10215   1.396   2.898   3.169
 3335WAT     H110216   1.313   2.905   3.122
 3335WAT     H210217   1.455   2.956   3.122
 3336WAT      O10218   1.148   2.959   2.522
 3336WAT     H110219   1.086   2.925   2.457
 3336WAT     H210220   1.146   2.894   2.593
 3337WAT      O10221   1.092   2.577   3.264
 3337WAT     H110222   1.051   2.659   3.289
 3337WAT     H210223   1.019   2.518   3.245
 3338WAT      O10224   0.306   2.855   2.750
 3338WAT     H110225   0.265   2.784   2.700
 3338WAT     H210226   0.314   2.821   2.839
 3339WAT      O10227   0.352   3.224   2.966
 3339WAT     H110228   0.323   3.163   2.898
 3339WAT     H210229   0.447   3.228   2.955
 3340WAT      O10230   0.177   2.533   3.128
 3340WAT     H110231   0.232   2.544   3.050
 3340WAT     H210232   0.228   2.570   3.200
 3341WAT      O10233   1.161   3.581   3.333
 3341WAT     H110234   1.114   3.662   3.313
 3341WAT     H210235   1.093   3.516   3.348
 3342WAT      O10236   0.262   3.198   3.631
 3342WAT     H110237   0.172   3.220   3.656
 3342WAT     H210238   0.264   3.210   3.537
 3343WAT      O10239   0.966   2.883   2.223
 3343WAT     H110240   1.010   2.799   2.208
 3343WAT     H210241   1.037   2.946   2.231
 3344WAT      O10242   0.777   3.377   2.620
 3344WAT     H110243   0.821   3.451   2.578
 3344WAT     H210244   0.770   3.401   2.712
 3345WAT      O10245   0.324   3.479   3.710
 3345WAT     H110246   0.321   3.519   3.623
 3345WAT     H210247   0.308   3.386   3.694
 3346WAT      O10248   1.324   2.008   2.054
 3346WAT     H110249   1.292   2.017   2.144
 3346WAT     H210250   1.400   2.066   2.049
 3347WAT      O10251   1.519   3.557   3.840
 3347WAT     H110252   1.567   3.605   3.907
 3347WAT     H210253   1.581   3.550   3.767
 3348WAT      O10254   1.460   3.276   3.556
 3348WAT     H110255   1.472   3.253   3.464
 3348WAT     H210256   1.464   3.193   3.603
 3349WAT      O10257   0.846   3.647   3.412
 3349WAT     H110258   0.897   3.638   3.493
 3349WAT     H210259   0.761   3.681   3.442
 3350WAT      O10260   1.043   3.675   2.355
 3350WAT     H110261   1.027   3.646   2.445
 3350WAT     H210262   1.027   3.598   2.302
 3351WAT      O10263   0.291   3.653   2.533
 3351WAT     H110264   0.274   3.562   2.512
 3351WAT     H210265   0.206   3.689   2.557
 3352WAT      O10266   1.014   3.426   2.211
 3352WAT     H110267   0.944   3.426   2.145
 3352WAT     H210268   1.088   3.384   2.168
 3353WAT      O10269   0.970   3.589   2.619
 3353WAT     H110270   1.016   3.511   2.650
 3353WAT     H210271   1.004   3.660   2.673
 3354WAT      O10272   1.445   2.482   3.652
 3354WAT     H110273   1.383   2.533   3.599
 3354WAT     H210274   1.413   2.392   3.646
 3355WAT      O10275   0.222   2.079   2.838
 3355WAT     H110276   0.178   2.157   2.805
 3355WAT     H210277   0.278   2.111   2.909
 3356WAT      O10278   0.651   2.366   3.399
 3356WAT     H110279   0.605   2.387   3.480
 3356WAT     H210280   0.611   2.284   3.368
 3357WAT      O10281   1.151   2.488   3.512
 3357WAT     H110282   1.066   2.458   3.544
 3357WAT     H210283   1.135   2.512   3.420
 3358WAT      O10284   0.860   2.638   3.722
 3358WAT     H110285   0.893   2.554   3.688
 3358WAT     H210286   0.939   2.690   3.736
 3359WAT      O10287   0.534   2.041   2.326
 3359WAT     H110288   0.471   2.041   2.399
 3359WAT     H210289   0.525   1.954   2.287
 3360WAT      O10290   0.426   2.133   3.024
 3360WAT     H110291   0.456   2.224   3.016
 3360WAT     H210292   0.481   2.085   2.963
 3361WAT      O10293   0.924   2.592   2.471
 3361WAT     H110294   0.864   2.664   2.453
 3361WAT     H210295   0.979   2.586   2.393
 3362WAT      O10296   0.445   2.681   3.678
 3362WAT     H110297   0.436   2.587   3.663
 3362WAT     H210298   0.530   2.703   3.638
 3363WAT      O10299   0.785   2.456   2.674
 3363WAT     H110300   0.824   2.487   2.593
 3363WAT     H210301   0.821   2.368   2.685
 3364WAT      O10302   0.616   2.331   3.800
 3364WAT     H110303   0.547   2.311   3.863
 3364WAT     H210304   0.690   2.359   3.853
 3365WAT      O10305   0.844   2.715   3.084
 3365WAT     H110306   0.770   2.766   3.118
 3365WAT     H210307   0.804   2.633   3.053
 3366WAT      O10308   0.487   2.382   2.924
 3366WAT     H110309   0.488   2.338   2.839
 3366WAT     H210310   0.577   2.414   2.935
 3367WAT      O10311   0.494   2.482   2.223
 3367WAT     H110312   0.506   2.478   2.318
 3367WAT     H210313   0.455   2.569   2.208
 3368WAT      O10314   0.890   2.260   3.025
 3368WAT     H110315   0.892   2.305   3.109
 3368WAT     H210316   0.865   2.170   3.046
 3369WAT      O10317   0.395   2.713   2.163
 3369WAT     H110318   0.338   2.669   2.100
 3369WAT     H210319   0.466   2.749   2.110
 3370WAT      O10320   1.233   2.001   3.609
 3370WAT     H110321   1.265   1.928   3.661
 3370WAT     H210322   1.236   1.969   3.518
 3371WAT      O10323   0.517   2.788   3.099
 3371WAT     H110324   0.554   2.741   3.173
 3371WAT     H210325   0.498   2.876   3.133
 3372WAT      O10326   0.296   2.692   3.331
 3372WAT     H110327   0.266   2.780   3.353
 3372WAT     H210328   0.392   2.698   3.334
 3373WAT      O10329   1.225   3.013   2.969
 3373WAT     H110330   1.297   3.062   2.930
 3373WAT     H210331   1.205   2.945   2.905
 3374WAT      O10332   0.771   2.152   2.384
 3374WAT     H110333   0.690   2.102   2.376
 3374WAT     H210334   0.752   2.236   2.342
 3375WAT      O10335   0.763   3.020   3.558
 3375WAT     H110336   0.757   2.928   3.533
 3375WAT     H210337   0.700   3.029   3.630
 3376WAT      O10338   1.043   2.589   2.213
 3376WAT     H110339   1.131   2.620   2.196
 3376WAT     H210340   1.040   2.502   2.174
 3377WAT      O10341   0.642   3.206   2.281
 3377WAT     H110342   0.676   3.281   2.232
 3377WAT     H210343   0.559   3.238   2.318
 3378WAT      O10344   0.222   2.822   3.734
 3378WAT     H110345   0.192   2.837   3.644
 3378WAT     H210346   0.299   2.766   3.724
 3379WAT      O10347   0.756   3.302   3.533
 3379WAT     H110348   0.758   3.209   3.511
 3379WAT     H210349   0.686   3.310   3.597
 3380WAT      O10350   1.270   2.720   2.160
 3380WAT     H110351   1.261   2.763   2.075
 3380WAT     H210352   1.342   2.766   2.203
 3381WAT      O10353   1.378   2.966   3.468
 3381WAT     H110354   1.305   3.025   3.448
 3381WAT     H210355   1.430   2.965   3.388
 3382WAT      O10356   1.373   3.406   2.433
 3382WAT     H110357   1.308   3.340   2.460
 3382WAT     H210358   1.334   3.446   2.355
 3383WAT      O10359   0.931   3.139   2.818
 3383WAT     H110360   0.966   3.079   2.752
 3383WAT     H210361   0.842   3.106   2.835
 3384WAT      O10362   0.539   3.215   2.558
 3384WAT     H110363   0.608   3.269   2.597
 3384WAT     H210364   0.461   3.269   2.562
 3385WAT      O10365   0.469   2.915   2.520
 3385WAT     H110366   0.515   2.996   2.542
 3385WAT     H210367   0.434   2.883   2.603
 3386WAT      O10368   0.700   3.466   3.243
 3386WAT     H110369   0.764   3.487   3.310
 3386WAT     H210370   0.736   3.390   3.197
 3387WAT      O10371   0.827   3.266   3.114
 3387WAT     H110372   0.891   3.196   3.126
 3387WAT     H210373   0.880   3.344   3.096
 3388WAT      O10374   1.212   3.295   2.087
 3388WAT     H110375   1.189   3.223   2.146
 3388WAT     H210376   1.173   3.270   2.003
 3389WAT      O10377   1.004   3.346   3.435
 3389WAT     H110378   1.038   3.405   3.503
 3389WAT     H210379   0.912   3.333   3.458
 3390WAT      O10380   1.170   3.087   2.253
 3390WAT     H110381   1.141   3.133   2.332
 3390WAT     H210382   1.249   3.041   2.280
 3391WAT      O10383   0.587   3.351   3.752
 3391WAT     H110384   0.555   3.279   3.806
 3391WAT     H210385   0.520   3.419   3.759
 3392WAT      O10386   0.392   3.436   2.246
 3392WAT     H110387   0.391   3.509   2.184
 3392WAT     H210388   0.299   3.411   2.255
 3393WAT      O10389   0.909   2.374   3.288
 3393WAT     H110390   0.946   2.292   3.321
 3393WAT     H210391   0.823   2.380   3.330
 3394WAT      O10392   1.246   2.270   2.369
 3394WAT     H110393   1.183   2.281   2.297
 3394WAT     H210394   1.196   2.292   2.448
 3395WAT      O10395   0.690   3.442   2.112
 3395WAT     H110396   0.700   3.422   2.019
 3395WAT     H210397   0.600   3.417   2.133
 3396WAT      O10398   0.442   2.498   2.510
 3396WAT     H110399   0.372   2.545   2.555
 3396WAT     H210400   0.471   2.432   2.574
 3397WAT      O10401   0.605   2.640   3.310
 3397WAT     H110402   0.655   2.687   3.377
 3397WAT     H210403   0.619   2.548   3.331
 3398WAT      O10404   0.846   2.170   2.654
 3398WAT     H110405   0.833   2.172   2.560
 3398WAT     H210406   0.940   2.175   2.666
 3399WAT      O10407   0.554   3.694   2.582
 3399WAT     H110408   0.580   3.690   2.489
 3399WAT     H210409   0.459   3.681   2.581
 3400WAT      O10410   0.263   2.329   2.248
 3400WAT     H110411   0.348   2.372   2.241
 3400WAT     H210412   0.226   2.360   2.331
 3401WAT      O10413   1.326   2.262   3.395
 3401WAT     H110414   1.275   2.336   3.429
 3401WAT     H210415   1.407   2.300   3.363
 3402WAT      O10416   1.155   2.786   2.739
 3402WAT     H110417   1.061   2.787   2.757
 3402WAT     H210418   1.186   2.707   2.784
 3403WAT      O10419   1.355   3.503   2.907
 3403WAT     H110420   1.368   3.585   2.954
 3403WAT     H210421   1.442   3.482   2.872
 3404WAT      O10422   0.413   3.630   2.056
 3404WAT     H110423   0.493   3.658   2.011
 3404WAT     H210424   0.361   3.587   1.988
 3405WAT      O10425   0.886   3.242   3.788
 3405WAT     H110426   0.826   3.244   3.714
 3405WAT     H210427   0.856   3.168   3.841
 3406WAT      O10428   1.029   3.614   3.649
 3406WAT     H110429   1.125   3.606   3.644
 3406WAT     H210430   1.015   3.681   3.716
 3407WAT      O10431   1.319   3.552   2.199
 3407WAT     H110432   1.290   3.511   2.117
 3407WAT     H210433   1.299   3.645   2.187
 3408WAT      O10434   0.465   3.152   2.043
 3408WAT     H110435   0.455   3.090   2.115
 3408WAT     H210436   0.448   3.099   1.964
 3409WAT      O10437   0.480   3.020   3.641
 3409WAT     H110438   0.404   3.077   3.632
 3409WAT     H210439   0.498   2.991   3.551
 3410WAT      O10440   0.789   3.058   2.103
 3410WAT     H110441   0.734   3.103   2.168
 3410WAT     H210442   0.851   3.007   2.155
 3411WAT      O10443   1.194   3.193   3.696
 3411WAT     H110444   1.269   3.227   3.646
 3411WAT     H210445   1.118   3.210   3.641
 3412WAT      O10446   0.356   2.954   2.293
 3412WAT     H110447   0.398   2.937   2.377
 3412WAT     H210448   0.368   2.873   2.243
 3413WAT      O10449   0.607   2.856   2.018
 3413WAT     H110450   0.659   2.785   1.981
 3413WAT     H210451   0.672   2.920   2.048
 3414WAT      O10452   1.062   2.998   3.550
 3414WAT     H110453   1.103   3.014   3.635
 3414WAT     H210454   0.968   3.011   3.566
 3415WAT      O10455   1.109   2.732   3.750
 3415WAT     H110456   1.167   2.657   3.741
 3415WAT     H210457   1.127   2.785   3.673
 3416WAT      O10458   0.497   2.104   3.285
 3416WAT     H110459   0.453   2.106   3.200
 3416WAT     H210460   0.434   2.064   3.344
 3417WAT      O10461   0.538   2.994   3.347
 3417WAT     H110462   0.580   3.078   3.330
 3417WAT     H210463   0.446   3.007   3.324
 3418WAT      O10464   0.772   2.767   3.485
 3418WAT     H110465   0.784   2.707   3.559
 3418WAT     H210466   0.858   2.770   3.443
 3419WAT      O10467   1.006   2.822   3.343
 3419WAT     H110468   0.953   2.875   3.282
 3419WAT     H210469   1.040   2.885   3.406
 3420WAT      O10470   0.245   2.561   1.987
 3420WAT     H110471   0.225   2.475   2.023
 3420WAT     H210472   0.228   2.552   1.894
 3421WAT      O10473   0.323   3.624   3.458
 3421WAT     H110474   0.269   3.697   3.426
 3421WAT     H210475   0.348   3.576   3.379
 3422WAT      O10476   0.448   2.421   3.611
 3422WAT     H110477   0.507   2.390   3.680
 3422WAT     H210478   0.367   2.374   3.627
 3423WAT      O10479   0.930   2.383   3.634
 3423WAT     H110480   0.861   2.316   3.628
 3423WAT     H210481   1.002   2.338   3.679
 3424WAT      O10482   0.993   2.042   2.240
 3424WAT     H110483   1.021   1.958   2.276
 3424WAT     H210484   0.916   2.065   2.292
 3425WAT      O10485   0.609   3.748   3.484
 3425WAT     H110486   0.601   3.838   3.515
 3425WAT     H210487   0.519   3.716   3.481
 3426WAT      O10488   0.447   2.165   2.085
 3426WAT     H110489   0.412   2.098   2.027
 3426WAT     H210490   0.467   2.119   2.166
 3427WAT      O10491   0.664   3.664   2.247
 3427WAT     H110492   0.753   3.698   2.249
 3427WAT     H210493   0.667   3.592   2.184
 3428WAT      O10494   0.209   3.313   2.581
 3428WAT     H110495   0.179   3.301   2.671
 3428WAT     H210496   0.198   3.228   2.540
 3429WAT      O10497   1.362   3.517   3.517
 3429WAT     H110498   1.302   3.523   3.443
 3429WAT     H210499   1.374   3.423   3.530
 3430WAT      O10500   1.486   3.291   2.051
 3430WAT     H110501   1.402   3.298   2.098
 3430WAT     H210502   1.503   3.380   2.021
 3431WAT      O10503   1.431   2.966   2.301
 3431WAT     H110504   1.507   3.023   2.312
 3431WAT     H210505   1.433   2.909   2.378
 3432WAT      O10506   1.532   3.051   2.786
 3432WAT     H110507   1.569   2.973   2.745
 3432WAT     H210508   1.596   3.120   2.768
 3433WAT      O10509   1.230   3.190   3.327
 3433WAT     H110510   1.149   3.233   3.353
 3433WAT     H210511   1.271   3.251   3.266
 3434WAT      O10512   1.436   2.995   2.017
 3434WAT     H110513   1.464   3.086   2.004
 3434WAT     H210514   1.417   2.989   2.111
 3435WAT      O10515   1.076   2.298   2.146
 3435WAT     H110516   1.118   2.279   2.062
 3435WAT     H210517   1.045   2.212   2.178
 3436WAT      O10518   1.426   2.789   2.516
 3436WAT     H110519   1.388   2.712   2.473
 3436WAT     H210520   1.353   2.827   2.565
 3437WAT      O10521   1.365   2.704   3.480
 3437WAT     H110522   1.342   2.681   3.390
 3437WAT     H210523   1.391   2.796   3.475
 3438WAT      O10524   1.209   2.226   3.757
 3438WAT     H110525   1.297   2.227   3.796
 3438WAT     H210526   1.210   2.153   3.696
 3439WAT      O10527   1.353   2.612   2.846
 3439WAT     H110528   1.406   2.562   2.783
 3439WAT     H210529   1.412   2.625   2.921
 3440WAT      O10530   1.371   2.620   3.199
 3440WAT     H110531   1.276   2.617   3.210
 3440WAT     H210532   1.389   2.711   3.175
 3441WAT      O10533   1.302   2.537   2.440
 3441WAT     H110534   1.352   2.514   2.519
 3441WAT     H210535   1.283   2.453   2.399
 3442WAT      O10536   1.445   2.401   2.694
 3442WAT     H110537   1.434   2.385   2.787
 3442WAT     H210538   1.521   2.348   2.669
 3443WAT      O10539   1.280   1.995   3.339
 3443WAT     H110540   1.344   2.056   3.376
 3443WAT     H210541   1.295   1.998   3.245
 3444WAT      O10542   1.534   2.184   2.018
 3444WAT     H110543   1.627   2.171   1.997
 3444WAT     H210544   1.532   2.192   2.113
 3445WAT      O10545   1.542   2.261   2.280
 3445WAT     H110546   1.462   2.255   2.333
 3445WAT     H210547   1.562   2.355   2.279
 3446WAT      O10548   1.236   3.665   2.680
 3446WAT     H110549   1.295   3.633   2.612
 3446WAT     H210550   1.262   3.618   2.759
 3447WAT      O10551   0.396   3.464   3.255
 3447WAT     H110552   0.372   3.490   3.166
 3447WAT     H210553   0.491   3.481   3.260
 3448WAT      O10554   0.617   2.110   3.630
 3448WAT     H110555   0.611   2.169   3.705
 3448WAT     H210556   0.711   2.099   3.616
 3449WAT      O10557   0.881   2.076   3.594
 3449WAT     H110558   0.942   2.108   3.528
 3449WAT     H210559   0.935   2.027   3.656
 3450WAT      O10560   1.523   3.666   3.335
 3450WAT     H110561   1.473   3.705   3.263
 3450WAT     H210562   1.462   3.603   3.374
 3451WAT      O10563   0.955   1.932   3.227
 3451WAT     H110564   0.867   1.965   3.207
 3451WAT     H210565   0.944   1.885   3.309
 3452WAT      O10566   1.046   2.153   3.365
 3452WAT     H110567   1.013   2.071   3.327
 3452WAT     H210568   1.140   2.148   3.353
 3453WAT      O10569   1.291   3.730   3.063
 3453WAT     H110570   1.245   3.805   3.025
 3453WAT     H210571   1.228   3.658   3.057
 3454WAT      O10572   0.334   3.561   2.980
 3454WAT     H110573   0.386   3.500   2.928
 3454WAT     H210574   0.399   3.611   3.029
 3455WAT      O10575   0.608   3.650   3.063
 3455WAT     H110576   0.637   3.624   2.975
 3455WAT     H210577   0.659   3.595   3.122
 3456WAT      O10578   0.730   2.024   3.121
 3456WAT     H110579   0.651   2.071   3.149
 3456WAT     H210580   0.700   1.933   3.110
 3457WAT      O10581   1.185   2.094   2.925
 3457WAT     H110582   1.229   2.088   2.840
 3457WAT     H210583   1.158   2.186   2.932
 3458WAT      O10584   1.371   2.057   2.726
 3458WAT     H110585   1.365   1.963   2.712
 3458WAT     H210586   1.449   2.068   2.781
 3459WAT      O10587   0.518   2.266   2.672
 3459WAT     H110588   0.437   2.228   2.638
 3459WAT     H210589   0.569   2.190   2.702
 3460WAT      O10590   0.968   1.932   2.796
 3460WAT     H110591   1.029   1.989   2.843
 3460WAT     H210592   0.894   1.988   2.773
 3461WAT      O10593   1.283   1.972   2.323
 3461WAT     H110594   1.302   2.062   2.350
 3461WAT     H210595   1.204   1.949   2.372
 3462WAT      O10596   0.321   2.081   2.532
 3462WAT     H110597   0.258   2.011   2.549
 3462WAT     H210598   0.267   2.157   2.511
 3463WAT      O10599   0.615   3.742   3.799
 3463WAT     H110600   0.707   3.718   3.804
 3463WAT     H210601   0.613   3.825   3.751
 3464WAT      O10602   1.438   3.696   2.499
 3464WAT     H110603   1.456   3.628   2.435
 3464WAT     H210604   1.368   3.749   2.460
 3465WAT      O10605   0.333   2.008   3.776
 3465WAT     H110606   0.305   2.059   3.700
 3465WAT     H210607   0.371   1.929   3.739
 3466WAT      O10608   0.222   3.735   2.255
 3466WAT     H110609   0.295   3.707   2.200
 3466WAT     H210610   0.248   3.711   2.344
 3467WAT      O10611   0.993   1.950   3.834
 3467WAT     H110612   0.982   1.982   3.923
 3467WAT     H210613   1.075   1.990   3.804
 3468WAT      O10614   1.271   3.665   3.782
 3468WAT     H110615   1.351   3.615   3.761
 3468WAT     H210616   1.301   3.733   3.843
 3469WAT      O10617   0.884   2.752   0.870
 3469WAT     H110618   0.876   2.661   0.843
 3469WAT     H210619   0.843   2.802   0.799
 3470WAT      O10620   0.697   2.930   1.058
 3470WAT     H110621   0.620   2.882   1.087
 3470WAT     H210622   0.762   2.862   1.041
 3471WAT      O10623   1.099   3.370   0.936
 3471WAT     H110624   1.053   3.293   0.969
 3471WAT     H210625   1.180   3.373   0.987
 3472WAT      O10626   0.722   3.599   0.898
 3472WAT     H110627   0.660   3.645   0.841
 3472WAT     H210628   0.807   3.614   0.858
 3473WAT      O10629   0.641   3.197   1.059
 3473WAT     H110630   0.634   3.103   1.043
 3473WAT     H210631   0.717   3.206   1.116
 3474WAT      O10632   0.744   2.478   1.082
 3474WAT     H110633   0.782   2.391   1.070
 3474WAT     H210634   0.734   2.512   0.992
 3475WAT      O10635   1.122   2.228   0.775
 3475WAT     H110636   1.205   2.178   0.779
 3475WAT     H210637   1.126   2.287   0.850
 3476WAT      O10638   0.341   2.612   1.061
 3476WAT     H110639   0.392   2.662   1.125
 3476WAT     H210640   0.395   2.534   1.043
 3477WAT      O10641   1.551   2.429   1.431
 3477WAT     H110642   1.481   2.468   1.379
 3477WAT     H210643   1.578   2.499   1.491
 3478WAT      O10644   0.808   3.087   0.637
 3478WAT     H110645   0.747   3.134   0.581
 3478WAT     H210646   0.860   3.157   0.679
 3479WAT      O10647   0.295   3.040   1.305
 3479WAT     H110648   0.261   3.103   1.370
 3479WAT     H210649   0.312   3.093   1.227
 3480WAT      O10650   1.146   2.422   1.052
 3480WAT     H110651   1.076   2.450   1.110
 3480WAT     H210652   1.182   2.503   1.016
 3481WAT      O10653   1.308   3.383   1.278
 3481WAT     H110654   1.239   3.450   1.278
 3481WAT     H210655   1.362   3.403   1.202
 3482WAT      O10656   1.453   2.366   1.091
 3482WAT     H110657   1.358   2.369   1.104
 3482WAT     H210658   1.485   2.447   1.130
 3483WAT      O10659   0.506   1.996   0.921
 3483WAT     H110660   0.537   1.941   0.849
 3483WAT     H210661   0.413   2.009   0.902
 3484WAT      O10662   1.061   3.568   1.150
 3484WAT     H110663   1.063   3.527   1.063
 3484WAT     H210664   1.006   3.645   1.139
 3485WAT      O10665   1.191   3.240   0.659
 3485WAT     H110666   1.180   3.146   0.671
 3485WAT     H210667   1.190   3.276   0.747
 3486WAT      O10668   1.001   3.058   1.283
 3486WAT     H110669   1.043   3.037   1.199
 3486WAT     H210670   1.074   3.084   1.340
 3487WAT      O10671   0.745   2.803   0.594
 3487WAT     H110672   0.652   2.796   0.617
 3487WAT     H210673   0.760   2.896   0.583
 3488WAT      O10674   0.744   2.430   0.294
 3488WAT     H110675   0.650   2.446   0.303
 3488WAT     H210676   0.776   2.502   0.239
 3489WAT      O10677   1.396   2.898   1.292
 3489WAT     H110678   1.313   2.905   1.244
 3489WAT     H210679   1.455   2.956   1.245
 3490WAT      O10680   1.148   2.959   0.645
 3490WAT     H110681   1.086   2.925   0.580
 3490WAT     H210682   1.146   2.894   0.715
 3491WAT      O10683   1.092   2.577   1.386
 3491WAT     H110684   1.051   2.659   1.412
 3491WAT     H210685   1.019   2.518   1.367
 3492WAT      O10686   0.306   2.855   0.873
 3492WAT     H110687   0.265   2.784   0.823
 3492WAT     H210688   0.314   2.821   0.961
 3493WAT      O10689   0.352   3.224   1.089
 3493WAT     H110690   0.323   3.163   1.021
 3493WAT     H210691   0.447   3.228   1.078
 3494WAT      O10692   0.177   2.533   1.251
 3494WAT     H110693   0.232   2.544   1.173
 3494WAT     H210694   0.228   2.570   1.322
 3495WAT      O10695   1.161   3.581   1.455
 3495WAT     H110696   1.114   3.662   1.436
 3495WAT     H210697   1.093   3.516   1.470
 3496WAT      O10698   0.262   3.198   1.754
 3496WAT     H110699   0.172   3.220   1.779
 3496WAT     H210700   0.264   3.210   1.659
 3497WAT      O10701   0.966   2.883   0.345
 3497WAT     H110702   1.010   2.799   0.331
 3497WAT     H210703   1.037   2.946   0.354
 3498WAT      O10704   0.777   3.377   0.742
 3498WAT     H110705   0.821   3.451   0.701
 3498WAT     H210706   0.770   3.401   0.835
 3499WAT      O10707   0.324   3.479   1.832
 3499WAT     H110708   0.321   3.519   1.746
 3499WAT     H210709   0.308   3.386   1.816
 3500WAT      O10710   1.324   2.008   0.177
 3500WAT     H110711   1.292   2.017   0.267
 3500WAT     H210712   1.400   2.066   0.172
 3501WAT      O10713   1.519   3.557   1.962
 3501WAT     H110714   1.567   3.605   2.030
 3501WAT     H210715   1.581   3.550   1.890
 3502WAT      O10716   1.460   3.276   1.678
 3502WAT     H110717   1.472   3.253   1.586
 3502WAT     H210718   1.464   3.193   1.725
 3503WAT      O10719   0.846   3.647   1.535
 3503WAT     H110720   0.897   3.638   1.615
 3503WAT     H210721   0.761   3.681   1.564
 3504WAT      O10722   1.043   3.675   0.478
 3504WAT     H110723   1.027   3.646   0.568
 3504WAT     H210724   1.027   3.598   0.424
 3505WAT      O10725   0.291   3.653   0.656
 3505WAT     H110726   0.274   3.562   0.634
 3505WAT     H210727   0.206   3.689   0.680
 3506WAT      O10728   1.014   3.426   0.334
 3506WAT     H110729   0.944   3.426   0.268
 3506WAT     H210730   1.088   3.384   0.291
 3507WAT      O10731   0.970   3.589   0.741
 3507WAT     H110732   1.016   3.511   0.773
 3507WAT     H210733   1.004   3.660   0.796
 3508WAT      O10734   1.445   2.482   1.775
 3508WAT     H110735   1.383   2.533   1.722
 3508WAT     H210736   1.413   2.392   1.769
 3509WAT      O10737   0.222   2.079   0.961
 3509WAT     H110738   0.178   2.157   0.928
 3509WAT     H210739   0.278   2.111   1.032
 3510WAT      O10740   0.651   2.366   1.521
 3510WAT     H110741   0.605   2.387   1.602
 3510WAT     H210742   0.611   2.284   1.491
 3511WAT      O10743   1.151   2.488   1.634
 3511WAT     H110744   1.066   2.458   1.666
 3511WAT     H210745   1.135   2.512   1.543
 3512WAT      O10746   0.860   2.638   1.844
 3512WAT     H110747   0.893   2.554   1.810
 3512WAT     H210748   0.939   2.690   1.859
 3513WAT      O10749   0.534   2.041   0.449
 3513WAT     H110750   0.471   2.041   0.521
 3513WAT     H210751   0.525   1.954   0.409
 3514WAT      O10752   0.426   2.133   1.147
 3514WAT     H110753   0.456   2.224   1.139
 3514WAT     H210754   0.481   2.085   1.085
 3515WAT      O10755   0.924   2.592   0.594
 3515WAT     H110756   0.864   2.664   0.575
 3515WAT     H210757   0.979   2.586   0.515
 3516WAT      O10758   0.445   2.681   1.800
 3516WAT     H110759   0.436   2.587   1.785
 3516WAT     H210760   0.530   2.703   1.761
 3517WAT      O10761   0.785   2.456   0.797
 3517WAT     H110762   0.824   2.487   0.715
 3517WAT     H210763   0.821   2.368   0.808
 3518WAT      O10764   0.616   2.331   1.923
 3518WAT     H110765   0.547   2.311   1.986
 3518WAT     H210766   0.690   2.359   1.976
 3519WAT      O10767   0.844   2.715   1.206
 3519WAT     H110768   0.770   2.766   1.241
 3519WAT     H210769   0.804   2.633   1.176
 3520WAT      O10770   0.487   2.382   1.047
 3520WAT     H110771   0.488   2.338   0.962
 3520WAT     H210772   0.577   2.414   1.057
 3521WAT      O10773   0.494   2.482   0.346
 3521WAT     H110774   0.506   2.478   0.441
 3521WAT     H210775   0.455   2.569   0.330
 3522WAT      O10776   0.890   2.260   1.147
 3522WAT     H110777   0.892   2.305   1.232
 3522WAT     H210778   0.865   2.170   1.169
 3523WAT      O10779   0.395   2.713   0.286
 3523WAT     H110780   0.338   2.669   0.223
 3523WAT     H210781   0.466   2.749   0.232
 3524WAT      O10782   1.233   2.001   1.731
 3524WAT     H110783   1.265   1.928   1.784
 3524WAT     H210784   1.236   1.969   1.641
 3525WAT      O10785   0.517   2.788   1.221
 3525WAT     H110786   0.554   2.741   1.296
 3525WAT     H210787   0.498   2.876   1.255
 3526WAT      O10788   0.296   2.692   1.453
 3526WAT     H110789   0.266   2.780   1.476
 3526WAT     H210790   0.392   2.698   1.457
 3527WAT      O10791   1.225   3.013   1.092
 3527WAT     H110792   1.297   3.062   1.053
 3527WAT     H210793   1.205   2.945   1.028
 3528WAT      O10794   0.771   2.152   0.506
 3528WAT     H110795   0.690   2.102   0.499
 3528WAT     H210796   0.752   2.236   0.465
 3529WAT      O10797   0.763   3.020   1.681
 3529WAT     H110798   0.757   2.928   1.655
 3529WAT     H210799   0.700   3.029   1.752
 3530WAT      O10800   1.043   2.589   0.336
 3530WAT     H110801   1.131   2.620   0.318
 3530WAT     H210802   1.040   2.502   0.297
 3531WAT      O10803   0.642   3.206   0.404
 3531WAT     H110804   0.676   3.281   0.354
 3531WAT     H210805   0.559   3.238   0.440
 3532WAT      O10806   0.222   2.822   1.856
 3532WAT     H110807   0.192   2.837   1.767
 3532WAT     H210808   0.299   2.766   1.847
 3533WAT      O10809   0.756   3.302   1.656
 3533WAT     H110810   0.758   3.209   1.634
 3533WAT     H210811   0.686   3.310   1.720
 3534WAT      O10812   1.270   2.720   0.283
 3534WAT     H110813   1.261   2.763   0.198
 3534WAT     H210814   1.342   2.766   0.326
 3535WAT      O10815   1.378   2.966   1.590
 3535WAT     H110816   1.305   3.025   1.571
 3535WAT     H210817   1.430   2.965   1.511
 3536WAT      O10818   1.373   3.406   0.556
 3536WAT     H110819   1.308   3.340   0.583
 3536WAT     H210820   1.334   3.446   0.478
 3537WAT      O10821   0.931   3.139   0.940
 3537WAT     H110822   0.966   3.079   0.874
 3537WAT     H210823   0.842   3.106   0.957
 3538WAT      O10824   0.539   3.215   0.681
 3538WAT     H110825   0.608   3.269   0.719
 3538WAT     H210826   0.461   3.269   0.685
 3539WAT      O10827   0.469   2.915   0.642
 3539WAT     H110828   0.515   2.996   0.665
 3539WAT     H210829   0.434   2.883   0.725
 3540WAT      O10830   0.700   3.466   1.365
 3540WAT     H110831   0.764   3.487   1.433
 3540WAT     H210832   0.736   3.390   1.320
 3541WAT      O10833   0.827   3.266   1.237
 3541WAT     H110834   0.891   3.196   1.248
 3541WAT     H210835   0.880   3.344   1.219
 3542WAT      O10836   1.004   3.346   1.557
 3542WAT     H110837   1.038   3.405   1.625
 3542WAT     H210838   0.912   3.333   1.580
 3543WAT      O10839   1.170   3.087   0.375
 3543WAT     H110840   1.141   3.133   0.454
 3543WAT     H210841   1.249   3.041   0.402
 3544WAT      O10842   0.587   3.351   1.874
 3544WAT     H110843   0.555   3.279   1.929
 3544WAT     H210844   0.520   3.419   1.882
 3545WAT      O10845   0.392   3.436   0.369
 3545WAT     H110846   0.391   3.509   0.307
 3545WAT     H210847   0.299   3.411   0.378
 3546WAT      O10848   0.909   2.374   1.411
 3546WAT     H110849   0.946   2.292   1.443
 3546WAT     H210850   0.823   2.380   1.452
 3547WAT      O10851   1.246   2.270   0.491
 3547WAT     H110852   1.183   2.281   0.420
 3547WAT     H210853   1.196   2.292   0.570
 3548WAT      O10854   0.442   2.498   0.633
 3548WAT     H110855   0.372   2.545   0.677
 3548WAT     H210856   0.471   2.432   0.696
 3549WAT      O10857   0.605   2.640   1.433
 3549WAT     H110858   0.655   2.687   1.499
 3549WAT     H210859   0.619   2.548   1.454
 3550WAT      O10860   0.846   2.170   0.777
 3550WAT     H110861   0.833   2.172   0.682
 3550WAT     H210862   0.940   2.175   0.789
 3551WAT      O10863   0.554   3.694   0.704
 3551WAT     H110864   0.580   3.690   0.612
 3551WAT     H210865   0.459   3.681   0.704
 3552WAT      O10866   0.263   2.329   0.371
 3552WAT     H110867   0.348   2.372   0.364
 3552WAT     H210868   0.226   2.360   0.453
 3553WAT      O10869   1.326   2.262   1.517
 3553WAT     H110870   1.275   2.336   1.551
 3553WAT     H210871   1.407   2.300   1.486
 3554WAT      O10872   1.155   2.786   0.862
 3554WAT     H110873   1.061   2.787   0.879
 3554WAT     H210874   1.186   2.707   0.906
 3555WAT      O10875   1.355   3.503   1.029
 3555WAT     H110876   1.368   3.585   1.077
 3555WAT     H210877   1.442   3.482   0.995
 3556WAT      O10878   0.886   3.242   1.910
 3556WAT     H110879   0.826   3.244   1.836
 3556WAT     H210880   0.856   3.168   1.964
 3557WAT      O10881   1.029   3.614   1.771
 3557WAT     H110882   1.125   3.606   1.766
 3557WAT     H210883   1.015   3.681   1.839
 3558WAT      O10884   1.319   3.552   0.321
 3558WAT     H110885   1.290   3.511   0.240
 3558WAT     H210886   1.299   3.645   0.309
 3559WAT      O10887   0.480   3.020   1.763
 3559WAT     H110888   0.404   3.077   1.755
 3559WAT     H210889   0.498   2.991   1.674
 3560WAT      O10890   0.789   3.058   0.226
 3560WAT     H110891   0.734   3.103   0.290
 3560WAT     H210892   0.851   3.007   0.278
 3561WAT      O10893   1.194   3.193   1.819
 3561WAT     H110894   1.269   3.227   1.769
 3561WAT     H210895   1.118   3.210   1.764
 3562WAT      O10896   0.356   2.954   0.415
 3562WAT     H110897   0.398   2.937   0.500
 3562WAT     H210898   0.368   2.873   0.366
 3563WAT      O10899   1.062   2.998   1.672
 3563WAT     H110900   1.103   3.014   1.757
 3563WAT     H210901   0.968   3.011   1.689
 3564WAT      O10902   1.109   2.732   1.873
 3564WAT     H110903   1.167   2.657   1.864
 3564WAT     H210904   1.127   2.785   1.795
 3565WAT      O10905   0.497   2.104   1.407
 3565WAT     H110906   0.453   2.106   1.323
 3565WAT     H210907   0.434   2.064   1.467
 3566WAT      O10908   0.538   2.994   1.469
 3566WAT     H110909   0.580   3.078   1.452
 3566WAT     H210910   0.446   3.007   1.446
 3567WAT      O10911   0.772   2.767   1.608
 3567WAT     H110912   0.784   2.707   1.682
 3567WAT     H210913   0.858   2.770   1.566
 3568WAT      O10914   1.006   2.822   1.465
 3568WAT     H110915   0.953   2.875   1.405
 3568WAT     H210916   1.040   2.885   1.528
 3569WAT      O10917   0.323   3.624   1.581
 3569WAT     H110918   0.269   3.697   1.549
 3569WAT     H210919   0.348   3.576   1.502
 3570WAT      O10920   0.448   2.421   1.734
 3570WAT     H110921   0.507   2.390   1.802
 3570WAT     H210922   0.367   2.374   1.749
 3571WAT      O10923   0.930   2.383   1.757
 3571WAT     H110924   0.861   2.316   1.750
 3571WAT     H210925   1.002   2.338   1.801
 3572WAT      O10926   0.993   2.042   0.363
 3572WAT     H110927   1.021   1.958   0.398
 3572WAT     H210928   0.916   2.065   0.414
 3573WAT      O10929   0.609   3.748   1.607
 3573WAT     H110930   0.601   3.838   1.638
 3573WAT     H210931   0.519   3.716   1.604
 3574WAT      O10932   0.664   3.664   0.369
 3574WAT     H110933   0.753   3.698   0.371
 3574WAT     H210934   0.667   3.592   0.306
 3575WAT      O10935   0.209   3.313   0.703
 3575WAT     H110936   0.179   3.301   0.793
 3575WAT     H210937   0.198   3.228   0.662
 3576WAT      O10938   1.362   3.517   1.640
 3576WAT     H110939   1.302   3.523   1.565
 3576WAT     H210940   1.374   3.423   1.653
 3577WAT      O10941   1.431   2.966   0.424
 3577WAT     H110942   1.507   3.023   0.434
 3577WAT     H210943   1.433   2.909   0.501
 3578WAT      O10944   1.532   3.051   0.908
 3578WAT     H110945   1.569   2.973   0.868
 3578WAT     H210946   1.596   3.120   0.890
 3579WAT      O10947   1.230   3.190   1.450
 3579WAT     H110948   1.149   3.233   1.476
 3579WAT     H210949   1.271   3.251   1.388
 3580WAT      O10950   1.076   2.298   0.269
 3580WAT     H110951   1.118   2.279   0.185
 3580WAT     H210952   1.045   2.212   0.300
 3581WAT      O10953   1.426   2.789   0.639
 3581WAT     H110954   1.388   2.712   0.596
 3581WAT     H210955   1.353   2.827   0.688
 3582WAT      O10956   1.365   2.704   1.602
 3582WAT     H110957   1.342   2.681   1.512
 3582WAT     H210958   1.391   2.796   1.598
 3583WAT      O10959   1.209   2.226   1.880
 3583WAT     H110960   1.297   2.227   1.918
 3583WAT     H210961   1.210   2.153   1.819
 3584WAT      O10962   1.353   2.612   0.969
 3584WAT     H110963   1.406   2.562   0.906
 3584WAT     H210964   1.412   2.625   1.043
 3585WAT      O10965   1.371   2.620   1.321
 3585WAT     H110966   1.276   2.617   1.333
 3585WAT     H210967   1.389   2.711   1.298
 3586WAT      O10968   1.302   2.537   0.563
 3586WAT     H110969   1.352   2.514   0.641
 3586WAT     H210970   1.283   2.453   0.521
 3587WAT      O10971   1.445   2.401   0.816
 3587WAT     H110972   1.434   2.385   0.910
 3587WAT     H210973   1.521   2.348   0.792
 3588WAT      O10974   1.280   1.995   1.462
 3588WAT     H110975   1.344   2.056   1.499
 3588WAT     H210976   1.295   1.998   1.368
 3589WAT      O10977   1.542   2.261   0.403
 3589WAT     H110978   1.462   2.255   0.456
 3589WAT     H210979   1.562   2.355   0.402
 3590WAT      O10980   1.236   3.665   0.802
 3590WAT     H110981   1.295   3.633   0.735
 3590WAT     H210982   1.262   3.618   0.881
 3591WAT      O10983   0.396   3.464   1.377
 3591WAT     H110984   0.372   3.490   1.289
 3591WAT     H210985   0.491   3.481   1.383
 3592WAT      O10986   0.617   2.110   1.753
 3592WAT     H110987   0.611   2.169   1.828
 3592WAT     H210988   0.711   2.099   1.738
 3593WAT      O10989   0.881   2.076   1.717
 3593WAT     H110990   0.942   2.108   1.651
 3593WAT     H210991   0.935   2.027   1.779
 3594WAT      O10992   1.523   3.666   1.457
 3594WAT     H110993   1.473   3.705   1.386
 3594WAT     H210994   1.462   3.603   1.497
 3595WAT      O10995   0.955   1.932   1.349
 3595WAT     H110996   0.867   1.965   1.329
 3595WAT     H210997   0.944   1.885   1.432
 3596WAT      O10998   1.046   2.153   1.488
 3596WAT     H110999   1.013   2.071   1.450
 3596WAT     H211000   1.140   2.148   1.475
 3597WAT      O11001   1.291   3.730   1.185
 3597WAT     H111002   1.245   3.805   1.148
 3597WAT     H211003   1.228   3.658   1.179
 3598WAT      O11004   0.334   3.561   1.103
 3598WAT     H111005   0.386   3.500   1.050
 3598WAT     H211006   0.399   3.611   1.152
 3599WAT      O11007   0.608   3.650   1.185
 3599WAT     H111008   0.637   3.624   1.098
 3599WAT     H211009   0.659   3.595   1.244
 3600WAT      O11010   0.730   2.024   1.243
 3600WAT     H111011   0.651   2.071   1.271
 3600WAT     H211012   0.700   1.933   1.232
 3601WAT      O11013   1.185   2.094   1.048
 3601WAT     H111014   1.229   2.088   0.963
 3601WAT     H211015   1.158   2.186   1.055
 3602WAT      O11016   1.371   2.057   0.849
 3602WAT     H111017   1.365   1.963   0.834
 3602WAT     H211018   1.449   2.068   0.903
 3603WAT      O11019   0.518   2.266   0.794
 3603WAT     H111020   0.437   2.228   0.760
 3603WAT     H211021   0.569   2.190   0.825
 3604WAT      O11022   0.968   1.932   0.918
 3604WAT     H111023   1.029   1.989   0.966
 3604WAT     H211024   0.894   1.988   0.896
 3605WAT      O11025   1.283   1.972   0.446
 3605WAT     H111026   1.302   2.062   0.472
 3605WAT     H211027   1.204   1.949   0.495
 3606WAT      O11028   0.321   2.081   0.655
 3606WAT     H111029   0.258   2.011   0.672
 3606WAT     H211030   0.267   2.157   0.633
 3607WAT      O11031   0.615   3.742   1.922
 3607WAT     H111032   0.707   3.718   1.926
 3607WAT     H211033   0.613   3.825   1.874
 3608WAT      O11034   1.438   3.696   0.622
 3608WAT     H111035   1.456   3.628   0.557
 3608WAT     H211036   1.368   3.749   0.583
 3609WAT      O11037   0.333   2.008   1.898
 3609WAT     H111038   0.305   2.059   1.822
 3609WAT     H211039   0.371   1.929   1.862
 3610WAT      O11040   0.222   3.735   0.377
 3610WAT     H111041   0.295   3.707   0.322
 3610WAT     H211042   0.248   3.711   0.466
 3611WAT      O11043   0.993   1.950   1.956
 3611WAT     H111044   0.982   1.982   2.046
 3611WAT     H211045   1.075   1.990   1.927
 3612WAT      O11046   1.271   3.665   1.904
 3612WAT     H111047   1.351   3.615   1.884
 3612WAT     H211048   1.301   3.733   1.965
 3613WAT      O11049   0.884   0.875   4.625
 3613WAT     H111050   0.876   0.783   4.598
 3613WAT     H211051   0.843   0.924   4.554
 3614WAT      O11052   0.697   1.052   4.813
 3614WAT     H111053   0.620   1.004   4.842
 3614WAT     H211054   0.762   0.984   4.796
 3615WAT      O11055   1.099   1.493   4.691
 3615WAT     H111056   1.053   1.416   4.724
 3615WAT     H211057   1.180   1.496   4.742
 3616WAT      O11058   0.722   1.721   4.653
 3616WAT     H111059   0.660   1.767   4.596
 3616WAT     H211060   0.807   1.737   4.613
 3617WAT      O11061   0.641   1.320   4.814
 3617WAT     H111062   0.634   1.226   4.798
 3617WAT     H211063   0.717   1.329   4.871
 3618WAT      O11064   0.744   0.601   4.836
 3618WAT     H111065   0.782   0.513   4.825
 3618WAT     H211066   0.734   0.634   4.747
 3619WAT      O11067   1.122   0.350   4.530
 3619WAT     H111068   1.205   0.301   4.534
 3619WAT     H211069   1.126   0.409   4.605
 3620WAT      O11070   0.341   0.735   4.816
 3620WAT     H111071   0.392   0.785   4.880
 3620WAT     H211072   0.395   0.657   4.798
 3621WAT      O11073   1.551   0.552   5.186
 3621WAT     H111074   1.481   0.591   5.134
 3621WAT     H211075   1.578   0.621   5.246
 3622WAT      O11076   0.808   1.210   4.392
 3622WAT     H111077   0.747   1.256   4.336
 3622WAT     H211078   0.860   1.279   4.434
 3623WAT      O11079   0.295   1.163   5.060
 3623WAT     H111080   0.261   1.225   5.124
 3623WAT     H211081   0.312   1.215   4.982
 3624WAT      O11082   1.146   0.544   4.807
 3624WAT     H111083   1.076   0.573   4.865
 3624WAT     H211084   1.182   0.625   4.771
 3625WAT      O11085   1.308   1.506   5.033
 3625WAT     H111086   1.239   1.573   5.032
 3625WAT     H211087   1.362   1.526   4.957
 3626WAT      O11088   1.453   0.489   4.846
 3626WAT     H111089   1.358   0.492   4.859
 3626WAT     H211090   1.485   0.570   4.885
 3627WAT      O11091   1.061   1.690   4.905
 3627WAT     H111092   1.063   1.650   4.818
 3627WAT     H211093   1.006   1.768   4.894
 3628WAT      O11094   1.191   1.362   4.414
 3628WAT     H111095   1.180   1.268   4.426
 3628WAT     H211096   1.190   1.399   4.502
 3629WAT      O11097   1.001   1.181   5.038
 3629WAT     H111098   1.043   1.159   4.954
 3629WAT     H211099   1.074   1.206   5.095
 3630WAT      O11100   0.745   0.925   4.349
 3630WAT     H111101   0.652   0.918   4.372
 3630WAT     H211102   0.760   1.019   4.338
 3631WAT      O11103   0.744   0.552   4.049
 3631WAT     H111104   0.650   0.568   4.057
 3631WAT     H211105   0.776   0.624   3.994
 3632WAT      O11106   1.396   1.020   5.047
 3632WAT     H111107   1.313   1.027   4.999
 3632WAT     H211108   1.455   1.079   5.000
 3633WAT      O11109   1.148   1.081   4.400
 3633WAT     H111110   1.086   1.048   4.335
 3633WAT     H211111   1.146   1.017   4.470
 3634WAT      O11112   1.092   0.699   5.141
 3634WAT     H111113   1.051   0.782   5.167
 3634WAT     H211114   1.019   0.641   5.122
 3635WAT      O11115   0.306   0.978   4.627
 3635WAT     H111116   0.265   0.907   4.578
 3635WAT     H211117   0.314   0.943   4.716
 3636WAT      O11118   0.352   1.346   4.844
 3636WAT     H111119   0.323   1.286   4.776
 3636WAT     H211120   0.447   1.350   4.833
 3637WAT      O11121   0.177   0.655   5.005
 3637WAT     H111122   0.232   0.666   4.928
 3637WAT     H211123   0.228   0.693   5.077
 3638WAT      O11124   1.161   1.704   5.210
 3638WAT     H111125   1.114   1.784   5.191
 3638WAT     H211126   1.093   1.639   5.225
 3639WAT      O11127   0.262   1.320   5.509
 3639WAT     H111128   0.172   1.343   5.534
 3639WAT     H211129   0.264   1.333   5.414
 3640WAT      O11130   0.966   1.005   4.100
 3640WAT     H111131   1.010   0.921   4.086
 3640WAT     H211132   1.037   1.068   4.109
 3641WAT      O11133   0.777   1.499   4.497
 3641WAT     H111134   0.821   1.573   4.456
 3641WAT     H211135   0.770   1.523   4.589
 3642WAT      O11136   0.324   1.602   5.587
 3642WAT     H111137   0.321   1.642   5.501
 3642WAT     H211138   0.308   1.509   5.571
 3643WAT      O11139   1.460   1.399   5.433
 3643WAT     H111140   1.472   1.375   5.341
 3643WAT     H211141   1.464   1.316   5.480
 3644WAT      O11142   0.846   1.769   5.290
 3644WAT     H111143   0.897   1.760   5.370
 3644WAT     H211144   0.761   1.804   5.319
 3645WAT      O11145   1.043   1.798   4.233
 3645WAT     H111146   1.027   1.769   4.323
 3645WAT     H211147   1.027   1.720   4.179
 3646WAT      O11148   0.291   1.776   4.410
 3646WAT     H111149   0.274   1.684   4.389
 3646WAT     H211150   0.206   1.812   4.434
 3647WAT      O11151   1.014   1.549   4.089
 3647WAT     H111152   0.944   1.548   4.023
 3647WAT     H211153   1.088   1.506   4.046
 3648WAT      O11154   0.970   1.711   4.496
 3648WAT     H111155   1.016   1.633   4.528
 3648WAT     H211156   1.004   1.782   4.551
 3649WAT      O11157   1.445   0.604   5.529
 3649WAT     H111158   1.383   0.655   5.477
 3649WAT     H211159   1.413   0.514   5.524
 3650WAT      O11160   0.222   0.202   4.716
 3650WAT     H111161   0.178   0.280   4.683
 3650WAT     H211162   0.278   0.234   4.786
 3651WAT      O11163   0.651   0.488   5.276
 3651WAT     H111164   0.605   0.509   5.357
 3651WAT     H211165   0.611   0.407   5.246
 3652WAT      O11166   1.151   0.610   5.389
 3652WAT     H111167   1.066   0.580   5.421
 3652WAT     H211168   1.135   0.635   5.298
 3653WAT      O11169   0.860   0.760   5.599
 3653WAT     H111170   0.893   0.677   5.565
 3653WAT     H211171   0.939   0.813   5.614
 3654WAT      O11172   0.426   0.256   4.902
 3654WAT     H111173   0.456   0.347   4.894
 3654WAT     H211174   0.481   0.207   4.840
 3655WAT      O11175   0.924   0.715   4.348
 3655WAT     H111176   0.864   0.787   4.330
 3655WAT     H211177   0.979   0.708   4.270
 3656WAT      O11178   0.445   0.804   5.555
 3656WAT     H111179   0.436   0.710   5.540
 3656WAT     H211180   0.530   0.826   5.516
 3657WAT      O11181   0.785   0.578   4.551
 3657WAT     H111182   0.824   0.610   4.470
 3657WAT     H211183   0.821   0.490   4.563
 3658WAT      O11184   0.844   0.837   4.961
 3658WAT     H111185   0.770   0.888   4.996
 3658WAT     H211186   0.804   0.756   4.931
 3659WAT      O11187   0.487   0.505   4.801
 3659WAT     H111188   0.488   0.461   4.717
 3659WAT     H211189   0.577   0.537   4.812
 3660WAT      O11190   0.494   0.605   4.101
 3660WAT     H111191   0.506   0.601   4.195
 3660WAT     H211192   0.455   0.691   4.085
 3661WAT      O11193   0.890   0.383   4.902
 3661WAT     H111194   0.892   0.428   4.987
 3661WAT     H211195   0.865   0.293   4.924
 3662WAT      O11196   0.395   0.836   4.040
 3662WAT     H111197   0.338   0.791   3.978
 3662WAT     H211198   0.466   0.872   3.987
 3663WAT      O11199   0.517   0.911   4.976
 3663WAT     H111200   0.554   0.863   5.051
 3663WAT     H211201   0.498   0.998   5.010
 3664WAT      O11202   0.296   0.815   5.208
 3664WAT     H111203   0.266   0.903   5.230
 3664WAT     H211204   0.392   0.821   5.212
 3665WAT      O11205   1.225   1.135   4.847
 3665WAT     H111206   1.297   1.185   4.808
 3665WAT     H211207   1.205   1.067   4.782
 3666WAT      O11208   0.771   0.275   4.261
 3666WAT     H111209   0.690   0.225   4.254
 3666WAT     H211210   0.752   0.358   4.220
 3667WAT      O11211   0.763   1.142   5.436
 3667WAT     H111212   0.757   1.050   5.410
 3667WAT     H211213   0.700   1.152   5.507
 3668WAT      O11214   1.043   0.712   4.091
 3668WAT     H111215   1.131   0.743   4.073
 3668WAT     H211216   1.040   0.624   4.052
 3669WAT      O11217   0.642   1.329   4.159
 3669WAT     H111218   0.676   1.403   4.109
 3669WAT     H211219   0.559   1.360   4.195
 3670WAT      O11220   0.222   0.945   5.611
 3670WAT     H111221   0.192   0.959   5.521
 3670WAT     H211222   0.299   0.889   5.602
 3671WAT      O11223   0.756   1.424   5.411
 3671WAT     H111224   0.758   1.331   5.389
 3671WAT     H211225   0.686   1.433   5.475
 3672WAT      O11226   1.270   0.843   4.038
 3672WAT     H111227   1.261   0.886   3.953
 3672WAT     H211228   1.342   0.889   4.081
 3673WAT      O11229   1.378   1.088   5.345
 3673WAT     H111230   1.305   1.148   5.326
 3673WAT     H211231   1.430   1.088   5.265
 3674WAT      O11232   1.373   1.528   4.310
 3674WAT     H111233   1.308   1.463   4.338
 3674WAT     H211234   1.334   1.569   4.233
 3675WAT      O11235   0.931   1.261   4.695
 3675WAT     H111236   0.966   1.201   4.629
 3675WAT     H211237   0.842   1.229   4.712
 3676WAT      O11238   0.539   1.337   4.436
 3676WAT     H111239   0.608   1.392   4.474
 3676WAT     H211240   0.461   1.391   4.439
 3677WAT      O11241   0.469   1.038   4.397
 3677WAT     H111242   0.515   1.119   4.420
 3677WAT     H211243   0.434   1.006   4.480
 3678WAT      O11244   0.700   1.589   5.120
 3678WAT     H111245   0.764   1.609   5.188
 3678WAT     H211246   0.736   1.512   5.075
 3679WAT      O11247   0.827   1.389   4.992
 3679WAT     H111248   0.891   1.319   5.003
 3679WAT     H211249   0.880   1.467   4.974
 3680WAT      O11250   1.212   1.417   3.964
 3680WAT     H111251   1.189   1.346   4.023
 3680WAT     H211252   1.173   1.393   3.880
 3681WAT      O11253   1.004   1.469   5.312
 3681WAT     H111254   1.038   1.528   5.380
 3681WAT     H211255   0.912   1.456   5.335
 3682WAT      O11256   1.170   1.209   4.130
 3682WAT     H111257   1.141   1.255   4.209
 3682WAT     H211258   1.249   1.163   4.157
 3683WAT      O11259   0.392   1.558   4.123
 3683WAT     H111260   0.391   1.632   4.062
 3683WAT     H211261   0.299   1.534   4.133
 3684WAT      O11262   0.909   0.497   5.165
 3684WAT     H111263   0.946   0.415   5.198
 3684WAT     H211264   0.823   0.503   5.207
 3685WAT      O11265   1.246   0.393   4.246
 3685WAT     H111266   1.183   0.403   4.175
 3685WAT     H211267   1.196   0.415   4.325
 3686WAT      O11268   0.690   1.565   3.990
 3686WAT     H111269   0.700   1.544   3.897
 3686WAT     H211270   0.600   1.539   4.010
 3687WAT      O11271   0.442   0.620   4.388
 3687WAT     H111272   0.372   0.667   4.432
 3687WAT     H211273   0.471   0.555   4.451
 3688WAT      O11274   0.605   0.762   5.188
 3688WAT     H111275   0.655   0.810   5.254
 3688WAT     H211276   0.619   0.670   5.209
 3689WAT      O11277   0.846   0.293   4.532
 3689WAT     H111278   0.833   0.295   4.437
 3689WAT     H211279   0.940   0.298   4.544
 3690WAT      O11280   0.554   1.817   4.459
 3690WAT     H111281   0.580   1.813   4.367
 3690WAT     H211282   0.459   1.804   4.458
 3691WAT      O11283   0.263   0.451   4.125
 3691WAT     H111284   0.348   0.495   4.119
 3691WAT     H211285   0.226   0.483   4.208
 3692WAT      O11286   1.326   0.384   5.272
 3692WAT     H111287   1.275   0.458   5.306
 3692WAT     H211288   1.407   0.423   5.240
 3693WAT      O11289   1.155   0.908   4.617
 3693WAT     H111290   1.061   0.910   4.634
 3693WAT     H211291   1.186   0.830   4.661
 3694WAT      O11292   1.355   1.626   4.784
 3694WAT     H111293   1.368   1.708   4.831
 3694WAT     H211294   1.442   1.604   4.750
 3695WAT      O11295   0.413   1.752   3.934
 3695WAT     H111296   0.493   1.781   3.889
 3695WAT     H211297   0.361   1.709   3.866
 3696WAT      O11298   1.029   1.737   5.526
 3696WAT     H111299   1.125   1.728   5.521
 3696WAT     H211300   1.015   1.803   5.593
 3697WAT      O11301   0.465   1.274   3.920
 3697WAT     H111302   0.455   1.213   3.993
 3697WAT     H211303   0.448   1.222   3.842
 3698WAT      O11304   0.480   1.143   5.518
 3698WAT     H111305   0.404   1.200   5.510
 3698WAT     H211306   0.498   1.114   5.429
 3699WAT      O11307   0.789   1.180   3.981
 3699WAT     H111308   0.734   1.225   4.045
 3699WAT     H211309   0.851   1.130   4.033
 3700WAT      O11310   1.194   1.316   5.574
 3700WAT     H111311   1.269   1.350   5.523
 3700WAT     H211312   1.118   1.333   5.518
 3701WAT      O11313   0.356   1.076   4.170
 3701WAT     H111314   0.398   1.060   4.254
 3701WAT     H211315   0.368   0.995   4.121
 3702WAT      O11316   0.607   0.979   3.895
 3702WAT     H111317   0.659   0.907   3.858
 3702WAT     H211318   0.672   1.043   3.925
 3703WAT      O11319   1.062   1.121   5.427
 3703WAT     H111320   1.103   1.136   5.512
 3703WAT     H211321   0.968   1.134   5.444
 3704WAT      O11322   1.109   0.855   5.628
 3704WAT     H111323   1.167   0.779   5.619
 3704WAT     H211324   1.127   0.908   5.550
 3705WAT      O11325   0.497   0.227   5.162
 3705WAT     H111326   0.453   0.229   5.078
 3705WAT     H211327   0.434   0.187   5.222
 3706WAT      O11328   0.538   1.116   5.224
 3706WAT     H111329   0.580   1.200   5.207
 3706WAT     H211330   0.446   1.130   5.201
 3707WAT      O11331   0.772   0.889   5.363
 3707WAT     H111332   0.784   0.830   5.437
 3707WAT     H211333   0.858   0.893   5.321
 3708WAT      O11334   1.006   0.945   5.220
 3708WAT     H111335   0.953   0.997   5.160
 3708WAT     H211336   1.040   1.008   5.283
 3709WAT      O11337   0.245   0.684   3.865
 3709WAT     H111338   0.225   0.597   3.901
 3709WAT     H211339   0.228   0.675   3.771
 3710WAT      O11340   0.323   1.747   5.336
 3710WAT     H111341   0.269   1.819   5.304
 3710WAT     H211342   0.348   1.699   5.257
 3711WAT      O11343   0.448   0.544   5.488
 3711WAT     H111344   0.507   0.513   5.557
 3711WAT     H211345   0.367   0.496   5.504
 3712WAT      O11346   0.930   0.505   5.512
 3712WAT     H111347   0.861   0.439   5.505
 3712WAT     H211348   1.002   0.461   5.556
 3713WAT      O11349   0.609   1.870   5.362
 3713WAT     H111350   0.601   1.961   5.392
 3713WAT     H211351   0.519   1.838   5.359
 3714WAT      O11352   0.447   0.288   3.962
 3714WAT     H111353   0.412   0.220   3.904
 3714WAT     H211354   0.467   0.242   4.044
 3715WAT      O11355   0.664   1.787   4.124
 3715WAT     H111356   0.753   1.821   4.126
 3715WAT     H211357   0.667   1.715   4.061
 3716WAT      O11358   0.209   1.436   4.458
 3716WAT     H111359   0.179   1.424   4.548
 3716WAT     H211360   0.198   1.350   4.417
 3717WAT      O11361   1.362   1.640   5.395
 3717WAT     H111362   1.302   1.646   5.320
 3717WAT     H211363   1.374   1.546   5.408
 3718WAT      O11364   1.431   1.088   4.179
 3718WAT     H111365   1.507   1.145   4.189
 3718WAT     H211366   1.433   1.032   4.256
 3719WAT      O11367   1.532   1.174   4.663
 3719WAT     H111368   1.569   1.096   4.622
 3719WAT     H211369   1.596   1.243   4.645
 3720WAT      O11370   1.230   1.312   5.204
 3720WAT     H111371   1.149   1.355   5.231
 3720WAT     H211372   1.271   1.374   5.143
 3721WAT      O11373   1.436   1.118   3.894
 3721WAT     H111374   1.464   1.209   3.882
 3721WAT     H211375   1.417   1.111   3.988
 3722WAT      O11376   1.076   0.420   4.024
 3722WAT     H111377   1.118   0.402   3.940
 3722WAT     H211378   1.045   0.335   4.055
 3723WAT      O11379   1.426   0.912   4.394
 3723WAT     H111380   1.388   0.835   4.351
 3723WAT     H211381   1.353   0.950   4.442
 3724WAT      O11382   1.365   0.826   5.357
 3724WAT     H111383   1.342   0.803   5.267
 3724WAT     H211384   1.391   0.918   5.353
 3725WAT      O11385   1.353   0.734   4.724
 3725WAT     H111386   1.406   0.685   4.661
 3725WAT     H211387   1.412   0.748   4.798
 3726WAT      O11388   1.371   0.742   5.076
 3726WAT     H111389   1.276   0.739   5.087
 3726WAT     H211390   1.389   0.833   5.052
 3727WAT      O11391   1.302   0.660   4.318
 3727WAT     H111392   1.352   0.637   4.396
 3727WAT     H211393   1.283   0.576   4.276
 3728WAT      O11394   1.445   0.523   4.571
 3728WAT     H111395   1.434   0.508   4.665
 3728WAT     H211396   1.521   0.471   4.547
 3729WAT      O11397   1.534   0.307   3.895
 3729WAT     H111398   1.627   0.293   3.874
 3729WAT     H211399   1.532   0.314   3.990
 3730WAT      O11400   1.542   0.384   4.158
 3730WAT     H111401   1.462   0.377   4.211
 3730WAT     H211402   1.562   0.477   4.157
 3731WAT      O11403   1.236   1.788   4.557
 3731WAT     H111404   1.295   1.755   4.489
 3731WAT     H211405   1.262   1.740   4.636
 3732WAT      O11406   0.396   1.586   5.132
 3732WAT     H111407   0.372   1.613   5.043
 3732WAT     H211408   0.491   1.603   5.138
 3733WAT      O11409   0.617   0.233   5.508
 3733WAT     H111410   0.611   0.292   5.583
 3733WAT     H211411   0.711   0.222   5.493
 3734WAT      O11412   1.523   1.788   5.212
 3734WAT     H111413   1.473   1.828   5.140
 3734WAT     H211414   1.462   1.726   5.252
 3735WAT      O11415   1.046   0.275   5.243
 3735WAT     H111416   1.013   0.194   5.205
 3735WAT     H211417   1.140   0.271   5.230
 3736WAT      O11418   1.291   1.852   4.940
 3736WAT     H111419   1.245   1.928   4.903
 3736WAT     H211420   1.228   1.781   4.934
 3737WAT      O11421   0.334   1.683   4.858
 3737WAT     H111422   0.386   1.622   4.805
 3737WAT     H211423   0.399   1.734   4.907
 3738WAT      O11424   0.608   1.772   4.940
 3738WAT     H111425   0.637   1.747   4.853
 3738WAT     H211426   0.659   1.717   4.999
 3739WAT      O11427   1.185   0.217   4.803
 3739WAT     H111428   1.229   0.211   4.718
 3739WAT     H211429   1.158   0.308   4.810
 3740WAT      O11430   0.518   0.388   4.549
 3740WAT     H111431   0.437   0.351   4.515
 3740WAT     H211432   0.569   0.313   4.580
 3741WAT      O11433   0.222   1.858   4.132
 3741WAT     H111434   0.295   1.829   4.077
 3741WAT     H211435   0.248   1.834   4.221
 3742WAT      O11436   0.884   0.875   2.747
 3742WAT     H111437   0.876   0.783   2.720
 3742WAT     H211438   0.843   0.924   2.677
 3743WAT      O11439   0.697   1.052   2.936
 3743WAT     H111440   0.620   1.004   2.965
 3743WAT     H211441   0.762   0.984   2.918
 3744WAT      O11442   1.099   1.493   2.814
 3744WAT     H111443   1.053   1.416   2.846
 3744WAT     H211444   1.180   1.496   2.864
 3745WAT      O11445   0.722   1.721   2.776
 3745WAT     H111446   0.660   1.767   2.719
 3745WAT     H211447   0.807   1.737   2.735
 3746WAT      O11448   0.641   1.320   2.936
 3746WAT     H111449   0.634   1.226   2.920
 3746WAT     H211450   0.717   1.329   2.993
 3747WAT      O11451   0.744   0.601   2.959
 3747WAT     H111452   0.782   0.513   2.948
 3747WAT     H211453   0.734   0.634   2.870
 3748WAT      O11454   1.122   0.350   2.652
 3748WAT     H111455   1.205   0.301   2.657
 3748WAT     H211456   1.126   0.409   2.728
 3749WAT      O11457   0.341   0.735   2.938
 3749WAT     H111458   0.392   0.785   3.002
 3749WAT     H211459   0.395   0.657   2.921
 3750WAT      O11460   1.551   0.552   3.309
 3750WAT     H111461   1.481   0.591   3.257
 3750WAT     H211462   1.578   0.621   3.369
 3751WAT      O11463   0.808   1.210   2.515
 3751WAT     H111464   0.747   1.256   2.459
 3751WAT     H211465   0.860   1.279   2.557
 3752WAT      O11466   0.295   1.163   3.183
 3752WAT     H111467   0.261   1.225   3.247
 3752WAT     H211468   0.312   1.215   3.105
 3753WAT      O11469   1.146   0.544   2.930
 3753WAT     H111470   1.076   0.573   2.988
 3753WAT     H211471   1.182   0.625   2.894
 3754WAT      O11472   1.308   1.506   3.156
 3754WAT     H111473   1.239   1.573   3.155
 3754WAT     H211474   1.362   1.526   3.079
 3755WAT      O11475   1.453   0.489   2.969
 3755WAT     H111476   1.358   0.492   2.982
 3755WAT     H211477   1.485   0.570   3.007
 3756WAT      O11478   1.061   1.690   3.027
 3756WAT     H111479   1.063   1.650   2.940
 3756WAT     H211480   1.006   1.768   3.017
 3757WAT      O11481   1.191   1.362   2.536
 3757WAT     H111482   1.180   1.268   2.549
 3757WAT     H211483   1.190   1.399   2.625
 3758WAT      O11484   1.001   1.181   3.160
 3758WAT     H111485   1.043   1.159   3.077
 3758WAT     H211486   1.074   1.206   3.217
 3759WAT      O11487   0.745   0.925   2.472
 3759WAT     H111488   0.652   0.918   2.495
 3759WAT     H211489   0.760   1.019   2.460
 3760WAT      O11490   0.744   0.552   2.171
 3760WAT     H111491   0.650   0.568   2.180
 3760WAT     H211492   0.776   0.624   2.117
 3761WAT      O11493   1.396   1.020   3.169
 3761WAT     H111494   1.313   1.027   3.122
 3761WAT     H211495   1.455   1.079   3.122
 3762WAT      O11496   1.148   1.081   2.522
 3762WAT     H111497   1.086   1.048   2.457
 3762WAT     H211498   1.146   1.017   2.593
 3763WAT      O11499   1.092   0.699   3.264
 3763WAT     H111500   1.051   0.782   3.289
 3763WAT     H211501   1.019   0.641   3.245
 3764WAT      O11502   0.306   0.978   2.750
 3764WAT     H111503   0.265   0.907   2.700
 3764WAT     H211504   0.314   0.943   2.839
 3765WAT      O11505   0.352   1.346   2.966
 3765WAT     H111506   0.323   1.286   2.898
 3765WAT     H211507   0.447   1.350   2.955
 3766WAT      O11508   0.177   0.655   3.128
 3766WAT     H111509   0.232   0.666   3.050
 3766WAT     H211510   0.228   0.693   3.200
 3767WAT      O11511   1.161   1.704   3.333
 3767WAT     H111512   1.114   1.784   3.313
 3767WAT     H211513   1.093   1.639   3.348
 3768WAT      O11514   0.262   1.320   3.631
 3768WAT     H111515   0.172   1.343   3.656
 3768WAT     H211516   0.264   1.333   3.537
 3769WAT      O11517   0.966   1.005   2.223
 3769WAT     H111518   1.010   0.921   2.208
 3769WAT     H211519   1.037   1.068   2.231
 3770WAT      O11520   0.777   1.499   2.620
 3770WAT     H111521   0.821   1.573   2.578
 3770WAT     H211522   0.770   1.523   2.712
 3771WAT      O11523   0.324   1.602   3.710
 3771WAT     H111524   0.321   1.642   3.623
 3771WAT     H211525   0.308   1.509   3.694
 3772WAT      O11526   0.846   1.769   3.412
 3772WAT     H111527   0.897   1.760   3.493
 3772WAT     H211528   0.761   1.804   3.442
 3773WAT      O11529   1.043   1.798   2.355
 3773WAT     H111530   1.027   1.769   2.445
 3773WAT     H211531   1.027   1.720   2.302
 3774WAT      O11532   0.291   1.776   2.533
 3774WAT     H111533   0.274   1.684   2.512
 3774WAT     H211534   0.206   1.812   2.557
 3775WAT      O11535   1.014   1.549   2.211
 3775WAT     H111536   0.944   1.548   2.145
 3775WAT     H211537   1.088   1.506   2.168
 3776WAT      O11538   0.970   1.711   2.619
 3776WAT     H111539   1.016   1.633   2.650
 3776WAT     H211540   1.004   1.782   2.673
 3777WAT      O11541   1.445   0.604   3.652
 3777WAT     H111542   1.383   0.655   3.599
 3777WAT     H211543   1.413   0.514   3.646
 3778WAT      O11544   0.222   0.202   2.838
 3778WAT     H111545   0.178   0.280   2.805
 3778WAT     H211546   0.278   0.234   2.909
 3779WAT      O11547   0.651   0.488   3.399
 3779WAT     H111548   0.605   0.509   3.480
 3779WAT     H211549   0.611   0.407   3.368
 3780WAT      O11550   1.151   0.610   3.512
 3780WAT     H111551   1.066   0.580   3.544
 3780WAT     H211552   1.135   0.635   3.420
 3781WAT      O11553   0.860   0.760   3.722
 3781WAT     H111554   0.893   0.677   3.688
 3781WAT     H211555   0.939   0.813   3.736
 3782WAT      O11556   0.426   0.256   3.024
 3782WAT     H111557   0.456   0.347   3.016
 3782WAT     H211558   0.481   0.207   2.963
 3783WAT      O11559   0.924   0.715   2.471
 3783WAT     H111560   0.864   0.787   2.453
 3783WAT     H211561   0.979   0.708   2.393
 3784WAT      O11562   0.445   0.804   3.678
 3784WAT     H111563   0.436   0.710   3.663
 3784WAT     H211564   0.530   0.826   3.638
 3785WAT      O11565   0.785   0.578   2.674
 3785WAT     H111566   0.824   0.610   2.593
 3785WAT     H211567   0.821   0.490   2.685
 3786WAT      O11568   0.616   0.453   3.800
 3786WAT     H111569   0.547   0.434   3.863
 3786WAT     H211570   0.690   0.482   3.853
 3787WAT      O11571   0.844   0.837   3.084
 3787WAT     H111572   0.770   0.888   3.118
 3787WAT     H211573   0.804   0.756   3.053
 3788WAT      O11574   0.487   0.505   2.924
 3788WAT     H111575   0.488   0.461   2.839
 3788WAT     H211576   0.577   0.537   2.935
 3789WAT      O11577   0.494   0.605   2.223
 3789WAT     H111578   0.506   0.601   2.318
 3789WAT     H211579   0.455   0.691   2.208
 3790WAT      O11580   0.890   0.383   3.025
 3790WAT     H111581   0.892   0.428   3.109
 3790WAT     H211582   0.865   0.293   3.046
 3791WAT      O11583   0.395   0.836   2.163
 3791WAT     H111584   0.338   0.791   2.100
 3791WAT     H211585   0.466   0.872   2.110
 3792WAT      O11586   0.517   0.911   3.099
 3792WAT     H111587   0.554   0.863   3.173
 3792WAT     H211588   0.498   0.998   3.133
 3793WAT      O11589   0.296   0.815   3.331
 3793WAT     H111590   0.266   0.903   3.353
 3793WAT     H211591   0.392   0.821   3.334
 3794WAT      O11592   1.225   1.135   2.969
 3794WAT     H111593   1.297   1.185   2.930
 3794WAT     H211594   1.205   1.067   2.905
 3795WAT      O11595   0.771   0.275   2.384
 3795WAT     H111596   0.690   0.225   2.376
 3795WAT     H211597   0.752   0.358   2.342
 3796WAT      O11598   0.763   1.142   3.558
 3796WAT     H111599   0.757   1.050   3.533
 3796WAT     H211600   0.700   1.152   3.630
 3797WAT      O11601   1.043   0.712   2.213
 3797WAT     H111602   1.131   0.743   2.196
 3797WAT     H211603   1.040   0.624   2.174
 3798WAT      O11604   0.642   1.329   2.281
 3798WAT     H111605   0.676   1.403   2.232
 3798WAT     H211606   0.559   1.360   2.318
 3799WAT      O11607   0.222   0.945   3.734
 3799WAT     H111608   0.192   0.959   3.644
 3799WAT     H211609   0.299   0.889   3.724
 3800WAT      O11610   0.756   1.424   3.533
 3800WAT     H111611   0.758   1.331   3.511
 3800WAT     H211612   0.686   1.433   3.597
 3801WAT      O11613   1.270   0.843   2.160
 3801WAT     H111614   1.261   0.886   2.075
 3801WAT     H211615   1.342   0.889   2.203
 3802WAT      O11616   1.378   1.088   3.468
 3802WAT     H111617   1.305   1.148   3.448
 3802WAT     H211618   1.430   1.088   3.388
 3803WAT      O11619   1.373   1.528   2.433
 3803WAT     H111620   1.308   1.463   2.460
 3803WAT     H211621   1.334   1.569   2.355
 3804WAT      O11622   0.931   1.261   2.818
 3804WAT     H111623   0.966   1.201   2.752
 3804WAT     H211624   0.842   1.229   2.835
 3805WAT      O11625   0.539   1.337   2.558
 3805WAT     H111626   0.608   1.392   2.597
 3805WAT     H211627   0.461   1.391   2.562
 3806WAT      O11628   0.469   1.038   2.520
 3806WAT     H111629   0.515   1.119   2.542
 3806WAT     H211630   0.434   1.006   2.603
 3807WAT      O11631   0.700   1.589   3.243
 3807WAT     H111632   0.764   1.609   3.310
 3807WAT     H211633   0.736   1.512   3.197
 3808WAT      O11634   0.827   1.389   3.114
 3808WAT     H111635   0.891   1.319   3.126
 3808WAT     H211636   0.880   1.467   3.096
 3809WAT      O11637   1.212   1.417   2.087
 3809WAT     H111638   1.189   1.346   2.146
 3809WAT     H211639   1.173   1.393   2.003
 3810WAT      O11640   1.004   1.469   3.435
 3810WAT     H111641   1.038   1.528   3.503
 3810WAT     H211642   0.912   1.456   3.458
 3811WAT      O11643   1.170   1.209   2.253
 3811WAT     H111644   1.141   1.255   2.332
 3811WAT     H211645   1.249   1.163   2.280
 3812WAT      O11646   0.587   1.474   3.752
 3812WAT     H111647   0.555   1.402   3.806
 3812WAT     H211648   0.520   1.541   3.759
 3813WAT      O11649   0.392   1.558   2.246
 3813WAT     H111650   0.391   1.632   2.184
 3813WAT     H211651   0.299   1.534   2.255
 3814WAT      O11652   0.909   0.497   3.288
 3814WAT     H111653   0.946   0.415   3.321
 3814WAT     H211654   0.823   0.503   3.330
 3815WAT      O11655   1.246   0.393   2.369
 3815WAT     H111656   1.183   0.403   2.297
 3815WAT     H211657   1.196   0.415   2.448
 3816WAT      O11658   0.690   1.565   2.112
 3816WAT     H111659   0.700   1.544   2.019
 3816WAT     H211660   0.600   1.539   2.133
 3817WAT      O11661   0.442   0.620   2.510
 3817WAT     H111662   0.372   0.667   2.555
 3817WAT     H211663   0.471   0.555   2.574
 3818WAT      O11664   0.605   0.762   3.310
 3818WAT     H111665   0.655   0.810   3.377
 3818WAT     H211666   0.619   0.670   3.331
 3819WAT      O11667   0.846   0.293   2.654
 3819WAT     H111668   0.833   0.295   2.560
 3819WAT     H211669   0.940   0.298   2.666
 3820WAT      O11670   0.554   1.817   2.582
 3820WAT     H111671   0.580   1.813   2.489
 3820WAT     H211672   0.459   1.804   2.581
 3821WAT      O11673   0.263   0.451   2.248
 3821WAT     H111674   0.348   0.495   2.241
 3821WAT     H211675   0.226   0.483   2.331
 3822WAT      O11676   1.326   0.384   3.395
 3822WAT     H111677   1.275   0.458   3.429
 3822WAT     H211678   1.407   0.423   3.363
 3823WAT      O11679   1.155   0.908   2.739
 3823WAT     H111680   1.061   0.910   2.757
 3823WAT     H211681   1.186   0.830   2.784
 3824WAT      O11682   1.355   1.626   2.907
 3824WAT     H111683   1.368   1.708   2.954
 3824WAT     H211684   1.442   1.604   2.872
 3825WAT      O11685   0.413   1.752   2.056
 3825WAT     H111686   0.493   1.781   2.011
 3825WAT     H211687   0.361   1.709   1.988
 3826WAT      O11688   0.886   1.364   3.788
 3826WAT     H111689   0.826   1.366   3.714
 3826WAT     H211690   0.856   1.291   3.841
 3827WAT      O11691   1.029   1.737   3.649
 3827WAT     H111692   1.125   1.728   3.644
 3827WAT     H211693   1.015   1.803   3.716
 3828WAT      O11694   1.319   1.675   2.199
 3828WAT     H111695   1.290   1.634   2.117
 3828WAT     H211696   1.299   1.768   2.187
 3829WAT      O11697   0.465   1.274   2.043
 3829WAT     H111698   0.455   1.213   2.115
 3829WAT     H211699   0.448   1.222   1.964
 3830WAT      O11700   0.480   1.143   3.641
 3830WAT     H111701   0.404   1.200   3.632
 3830WAT     H211702   0.498   1.114   3.551
 3831WAT      O11703   0.789   1.180   2.103
 3831WAT     H111704   0.734   1.225   2.168
 3831WAT     H211705   0.851   1.130   2.155
 3832WAT      O11706   1.194   1.316   3.696
 3832WAT     H111707   1.269   1.350   3.646
 3832WAT     H211708   1.118   1.333   3.641
 3833WAT      O11709   0.356   1.076   2.293
 3833WAT     H111710   0.398   1.060   2.377
 3833WAT     H211711   0.368   0.995   2.243
 3834WAT      O11712   0.607   0.979   2.018
 3834WAT     H111713   0.659   0.907   1.981
 3834WAT     H211714   0.672   1.043   2.048
 3835WAT      O11715   1.062   1.121   3.550
 3835WAT     H111716   1.103   1.136   3.635
 3835WAT     H211717   0.968   1.134   3.566
 3836WAT      O11718   1.109   0.855   3.750
 3836WAT     H111719   1.167   0.779   3.741
 3836WAT     H211720   1.127   0.908   3.673
 3837WAT      O11721   0.497   0.227   3.285
 3837WAT     H111722   0.453   0.229   3.200
 3837WAT     H211723   0.434   0.187   3.344
 3838WAT      O11724   0.538   1.116   3.347
 3838WAT     H111725   0.580   1.200   3.330
 3838WAT     H211726   0.446   1.130   3.324
 3839WAT      O11727   0.772   0.889   3.485
 3839WAT     H111728   0.784   0.830   3.559
 3839WAT     H211729   0.858   0.893   3.443
 3840WAT      O11730   1.006   0.945   3.343
 3840WAT     H111731   0.953   0.997   3.282
 3840WAT     H211732   1.040   1.008   3.406
 3841WAT      O11733   0.245   0.684   1.987
 3841WAT     H111734   0.225   0.597   2.023
 3841WAT     H211735   0.228   0.675   1.894
 3842WAT      O11736   0.323   1.747   3.458
 3842WAT     H111737   0.269   1.819   3.426
 3842WAT     H211738   0.348   1.699   3.379
 3843WAT      O11739   0.448   0.544   3.611
 3843WAT     H111740   0.507   0.513   3.680
 3843WAT     H211741   0.367   0.496   3.627
 3844WAT      O11742   0.930   0.505   3.634
 3844WAT     H111743   0.861   0.439   3.628
 3844WAT     H211744   1.002   0.461   3.679
 3845WAT      O11745   0.609   1.870   3.484
 3845WAT     H111746   0.601   1.961   3.515
 3845WAT     H211747   0.519   1.838   3.481
 3846WAT      O11748   0.447   0.288   2.085
 3846WAT     H111749   0.412   0.220   2.027
 3846WAT     H211750   0.467   0.242   2.166
 3847WAT      O11751   0.664   1.787   2.247
 3847WAT     H111752   0.753   1.821   2.249
 3847WAT     H211753   0.667   1.715   2.184
 3848WAT      O11754   0.209   1.436   2.581
 3848WAT     H111755   0.179   1.424   2.671
 3848WAT     H211756   0.198   1.350   2.540
 3849WAT      O11757   1.486   1.414   2.051
 3849WAT     H111758   1.402   1.421   2.098
 3849WAT     H211759   1.503   1.503   2.021
 3850WAT      O11760   1.431   1.088   2.301
 3850WAT     H111761   1.507   1.145   2.312
 3850WAT     H211762   1.433   1.032   2.378
 3851WAT      O11763   1.532   1.174   2.786
 3851WAT     H111764   1.569   1.096   2.745
 3851WAT     H211765   1.596   1.243   2.768
 3852WAT      O11766   1.230   1.312   3.327
 3852WAT     H111767   1.149   1.355   3.353
 3852WAT     H211768   1.271   1.374   3.266
 3853WAT      O11769   1.436   1.118   2.017
 3853WAT     H111770   1.464   1.209   2.004
 3853WAT     H211771   1.417   1.111   2.111
 3854WAT      O11772   1.076   0.420   2.146
 3854WAT     H111773   1.118   0.402   2.062
 3854WAT     H211774   1.045   0.335   2.178
 3855WAT      O11775   1.426   0.912   2.516
 3855WAT     H111776   1.388   0.835   2.473
 3855WAT     H211777   1.353   0.950   2.565
 3856WAT      O11778   1.365   0.826   3.480
 3856WAT     H111779   1.342   0.803   3.390
 3856WAT     H211780   1.391   0.918   3.475
 3857WAT      O11781   1.209   0.349   3.757
 3857WAT     H111782   1.297   0.350   3.796
 3857WAT     H211783   1.210   0.275   3.696
 3858WAT      O11784   1.353   0.734   2.846
 3858WAT     H111785   1.406   0.685   2.783
 3858WAT     H211786   1.412   0.748   2.921
 3859WAT      O11787   1.371   0.742   3.199
 3859WAT     H111788   1.276   0.739   3.210
 3859WAT     H211789   1.389   0.833   3.175
 3860WAT      O11790   1.302   0.660   2.440
 3860WAT     H111791   1.352   0.637   2.519
 3860WAT     H211792   1.283   0.576   2.399
 3861WAT      O11793   1.445   0.523   2.694
 3861WAT     H111794   1.434   0.508   2.787
 3861WAT     H211795   1.521   0.471   2.669
 3862WAT      O11796   1.534   0.307   2.018
 3862WAT     H111797   1.627   0.293   1.997
 3862WAT     H211798   1.532   0.314   2.113
 3863WAT      O11799   1.542   0.384   2.280
 3863WAT     H111800   1.462   0.377   2.333
 3863WAT     H211801   1.562   0.477   2.279
 3864WAT      O11802   1.236   1.788   2.680
 3864WAT     H111803   1.295   1.755   2.612
 3864WAT     H211804   1.262   1.740   2.759
 3865WAT      O11805   0.396   1.586   3.255
 3865WAT     H111806   0.372   1.613   3.166
 3865WAT     H211807   0.491   1.603   3.260
 3866WAT      O11808   0.617   0.233   3.630
 3866WAT     H111809   0.611   0.292   3.705
 3866WAT     H211810   0.711   0.222   3.616
 3867WAT      O11811   1.523   1.788   3.335
 3867WAT     H111812   1.473   1.828   3.263
 3867WAT     H211813   1.462   1.726   3.374
 3868WAT      O11814   1.046   0.275   3.365
 3868WAT     H111815   1.013   0.194   3.327
 3868WAT     H211816   1.140   0.271   3.353
 3869WAT      O11817   1.291   1.852   3.063
 3869WAT     H111818   1.245   1.928   3.025
 3869WAT     H211819   1.228   1.781   3.057
 3870WAT      O11820   0.334   1.683   2.980
 3870WAT     H111821   0.386   1.622   2.928
 3870WAT     H211822   0.399   1.734   3.029
 3871WAT      O11823   0.608   1.772   3.063
 3871WAT     H111824   0.637   1.747   2.975
 3871WAT     H211825   0.659   1.717   3.122
 3872WAT      O11826   1.185   0.217   2.925
 3872WAT     H111827   1.229   0.211   2.840
 3872WAT     H211828   1.158   0.308   2.932
 3873WAT      O11829   0.518   0.388   2.672
 3873WAT     H111830   0.437   0.351   2.638
 3873WAT     H211831   0.569   0.313   2.702
 3874WAT      O11832   0.615   1.865   3.799
 3874WAT     H111833   0.707   1.841   3.804
 3874WAT     H211834   0.613   1.947   3.751
 3875WAT      O11835   1.438   1.819   2.499
 3875WAT     H111836   1.456   1.750   2.435
 3875WAT     H211837   1.368   1.871   2.460
 3876WAT      O11838   0.222   1.858   2.255
 3876WAT     H111839   0.295   1.829   2.200
 3876WAT     H211840   0.248   1.834   2.344
 3877WAT      O11841   0.884   0.875   0.870
 3877WAT     H111842   0.876   0.783   0.843
 3877WAT     H211843   0.843   0.924   0.799
 3878WAT      O11844   0.697   1.052   1.058
 3878WAT     H111845   0.620   1.004   1.087
 3878WAT     H211846   0.762   0.984   1.041
 3879WAT      O11847   1.099   1.493   0.936
 3879WAT     H111848   1.053   1.416   0.969
 3879WAT     H211849   1.180   1.496   0.987
 3880WAT      O11850   0.722   1.721   0.898
 3880WAT     H111851   0.660   1.767   0.841
 3880WAT     H211852   0.807   1.737   0.858
 3881WAT      O11853   0.641   1.320   1.059
 3881WAT     H111854   0.634   1.226   1.043
 3881WAT     H211855   0.717   1.329   1.116
 3882WAT      O11856   0.744   0.601   1.082
 3882WAT     H111857   0.782   0.513   1.070
 3882WAT     H211858   0.734   0.634   0.992
 3883WAT      O11859   1.122   0.350   0.775
 3883WAT     H111860   1.205   0.301   0.779
 3883WAT     H211861   1.126   0.409   0.850
 3884WAT      O11862   0.341   0.735   1.061
 3884WAT     H111863   0.392   0.785   1.125
 3884WAT     H211864   0.395   0.657   1.043
 3885WAT      O11865   1.551   0.552   1.431
 3885WAT     H111866   1.481   0.591   1.379
 3885WAT     H211867   1.578   0.621   1.491
 3886WAT      O11868   0.808   1.210   0.637
 3886WAT     H111869   0.747   1.256   0.581
 3886WAT     H211870   0.860   1.279   0.679
 3887WAT      O11871   0.295   1.163   1.305
 3887WAT     H111872   0.261   1.225   1.370
 3887WAT     H211873   0.312   1.215   1.227
 3888WAT      O11874   1.146   0.544   1.052
 3888WAT     H111875   1.076   0.573   1.110
 3888WAT     H211876   1.182   0.625   1.016
 3889WAT      O11877   1.308   1.506   1.278
 3889WAT     H111878   1.239   1.573   1.278
 3889WAT     H211879   1.362   1.526   1.202
 3890WAT      O11880   1.453   0.489   1.091
 3890WAT     H111881   1.358   0.492   1.104
 3890WAT     H211882   1.485   0.570   1.130
 3891WAT      O11883   1.061   1.690   1.150
 3891WAT     H111884   1.063   1.650   1.063
 3891WAT     H211885   1.006   1.768   1.139
 3892WAT      O11886   1.191   1.362   0.659
 3892WAT     H111887   1.180   1.268   0.671
 3892WAT     H211888   1.190   1.399   0.747
 3893WAT      O11889   1.001   1.181   1.283
 3893WAT     H111890   1.043   1.159   1.199
 3893WAT     H211891   1.074   1.206   1.340
 3894WAT      O11892   0.745   0.925   0.594
 3894WAT     H111893   0.652   0.918   0.617
 3894WAT     H211894   0.760   1.019   0.583
 3895WAT      O11895   0.744   0.552   0.294
 3895WAT     H111896   0.650   0.568   0.303
 3895WAT     H211897   0.776   0.624   0.239
 3896WAT      O11898   1.396   1.020   1.292
 3896WAT     H111899   1.313   1.027   1.244
 3896WAT     H211900   1.455   1.079   1.245
 3897WAT      O11901   1.148   1.081   0.645
 3897WAT     H111902   1.086   1.048   0.580
 3897WAT     H211903   1.146   1.017   0.715
 3898WAT      O11904   1.092   0.699   1.386
 3898WAT     H111905   1.051   0.782   1.412
 3898WAT     H211906   1.019   0.641   1.367
 3899WAT      O11907   0.306   0.978   0.873
 3899WAT     H111908   0.265   0.907   0.823
 3899WAT     H211909   0.314   0.943   0.961
 3900WAT      O11910   0.352   1.346   1.089
 3900WAT     H111911   0.323   1.286   1.021
 3900WAT     H211912   0.447   1.350   1.078
 3901WAT      O11913   0.177   0.655   1.251
 3901WAT     H111914   0.232   0.666   1.173
 3901WAT     H211915   0.228   0.693   1.322
 3902WAT      O11916   1.161   1.704   1.455
 3902WAT     H111917   1.114   1.784   1.436
 3902WAT     H211918   1.093   1.639   1.470
 3903WAT      O11919   0.262   1.320   1.754
 3903WAT     H111920   0.172   1.343   1.779
 3903WAT     H211921   0.264   1.333   1.659
 3904WAT      O11922   0.966   1.005   0.345
 3904WAT     H111923   1.010   0.921   0.331
 3904WAT     H211924   1.037   1.068   0.354
 3905WAT      O11925   0.777   1.499   0.742
 3905WAT     H111926   0.821   1.573   0.701
 3905WAT     H211927   0.770   1.523   0.835
 3906WAT      O11928   0.324   1.602   1.832
 3906WAT     H111929   0.321   1.642   1.746
 3906WAT     H211930   0.308   1.509   1.816
 3907WAT      O11931   1.519   1.680   1.962
 3907WAT     H111932   1.567   1.728   2.030
 3907WAT     H211933   1.581   1.673   1.890
 3908WAT      O11934   1.460   1.399   1.678
 3908WAT     H111935   1.472   1.375   1.586
 3908WAT     H211936   1.464   1.316   1.725
 3909WAT      O11937   0.846   1.769   1.535
 3909WAT     H111938   0.897   1.760   1.615
 3909WAT     H211939   0.761   1.804   1.564
 3910WAT      O11940   1.043   1.798   0.478
 3910WAT     H111941   1.027   1.769   0.568
 3910WAT     H211942   1.027   1.720   0.424
 3911WAT      O11943   0.291   1.776   0.656
 3911WAT     H111944   0.274   1.684   0.634
 3911WAT     H211945   0.206   1.812   0.680
 3912WAT      O11946   1.014   1.549   0.334
 3912WAT     H111947   0.944   1.548   0.268
 3912WAT     H211948   1.088   1.506   0.291
 3913WAT      O11949   0.970   1.711   0.741
 3913WAT     H111950   1.016   1.633   0.773
 3913WAT     H211951   1.004   1.782   0.796
 3914WAT      O11952   1.445   0.604   1.775
 3914WAT     H111953   1.383   0.655   1.722
 3914WAT     H211954   1.413   0.514   1.769
 3915WAT      O11955   0.222   0.202   0.961
 3915WAT     H111956   0.178   0.280   0.928
 3915WAT     H211957   0.278   0.234   1.032
 3916WAT      O11958   0.651   0.488   1.521
 3916WAT     H111959   0.605   0.509   1.602
 3916WAT     H211960   0.611   0.407   1.491
 3917WAT      O11961   1.151   0.610   1.634
 3917WAT     H111962   1.066   0.580   1.666
 3917WAT     H211963   1.135   0.635   1.543
 3918WAT      O11964   0.860   0.760   1.844
 3918WAT     H111965   0.893   0.677   1.810
 3918WAT     H211966   0.939   0.813   1.859
 3919WAT      O11967   0.426   0.256   1.147
 3919WAT     H111968   0.456   0.347   1.139
 3919WAT     H211969   0.481   0.207   1.085
 3920WAT      O11970   0.924   0.715   0.594
 3920WAT     H111971   0.864   0.787   0.575
 3920WAT     H211972   0.979   0.708   0.515
 3921WAT      O11973   0.445   0.804   1.800
 3921WAT     H111974   0.436   0.710   1.785
 3921WAT     H211975   0.530   0.826   1.761
 3922WAT      O11976   0.785   0.578   0.797
 3922WAT     H111977   0.824   0.610   0.715
 3922WAT     H211978   0.821   0.490   0.808
 3923WAT      O11979   0.616   0.453   1.923
 3923WAT     H111980   0.547   0.434   1.986
 3923WAT     H211981   0.690   0.482   1.976
 3924WAT      O11982   0.844   0.837   1.206
 3924WAT     H111983   0.770   0.888   1.241
 3924WAT     H211984   0.804   0.756   1.176
 3925WAT      O11985   0.487   0.505   1.047
 3925WAT     H111986   0.488   0.461   0.962
 3925WAT     H211987   0.577   0.537   1.057
 3926WAT      O11988   0.494   0.605   0.346
 3926WAT     H111989   0.506   0.601   0.441
 3926WAT     H211990   0.455   0.691   0.330
 3927WAT      O11991   0.890   0.383   1.147
 3927WAT     H111992   0.892   0.428   1.232
 3927WAT     H211993   0.865   0.293   1.169
 3928WAT      O11994   0.395   0.836   0.286
 3928WAT     H111995   0.338   0.791   0.223
 3928WAT     H211996   0.466   0.872   0.232
 3929WAT      O11997   0.517   0.911   1.221
 3929WAT     H111998   0.554   0.863   1.296
 3929WAT     H211999   0.498   0.998   1.255
 3930WAT      O12000   0.296   0.815   1.453
 3930WAT     H112001   0.266   0.903   1.476
 3930WAT     H212002   0.392   0.821   1.457
 3931WAT      O12003   1.225   1.135   1.092
 3931WAT     H112004   1.297   1.185   1.053
 3931WAT     H212005   1.205   1.067   1.028
 3932WAT      O12006   0.771   0.275   0.506
 3932WAT     H112007   0.690   0.225   0.499
 3932WAT     H212008   0.752   0.358   0.465
 3933WAT      O12009   0.763   1.142   1.681
 3933WAT     H112010   0.757   1.050   1.655
 3933WAT     H212011   0.700   1.152   1.752
 3934WAT      O12012   1.043   0.712   0.336
 3934WAT     H112013   1.131   0.743   0.318
 3934WAT     H212014   1.040   0.624   0.297
 3935WAT      O12015   0.642   1.329   0.404
 3935WAT     H112016   0.676   1.403   0.354
 3935WAT     H212017   0.559   1.360   0.440
 3936WAT      O12018   0.222   0.945   1.856
 3936WAT     H112019   0.192   0.959   1.767
 3936WAT     H212020   0.299   0.889   1.847
 3937WAT      O12021   0.756   1.424   1.656
 3937WAT     H112022   0.758   1.331   1.634
 3937WAT     H212023   0.686   1.433   1.720
 3938WAT      O12024   1.270   0.843   0.283
 3938WAT     H112025   1.261   0.886   0.198
 3938WAT     H212026   1.342   0.889   0.326
 3939WAT      O12027   1.378   1.088   1.590
 3939WAT     H112028   1.305   1.148   1.571
 3939WAT     H212029   1.430   1.088   1.511
 3940WAT      O12030   1.373   1.528   0.556
 3940WAT     H112031   1.308   1.463   0.583
 3940WAT     H212032   1.334   1.569   0.478
 3941WAT      O12033   0.931   1.261   0.940
 3941WAT     H112034   0.966   1.201   0.874
 3941WAT     H212035   0.842   1.229   0.957
 3942WAT      O12036   0.539   1.337   0.681
 3942WAT     H112037   0.608   1.392   0.719
 3942WAT     H212038   0.461   1.391   0.685
 3943WAT      O12039   0.469   1.038   0.642
 3943WAT     H112040   0.515   1.119   0.665
 3943WAT     H212041   0.434   1.006   0.725
 3944WAT      O12042   0.700   1.589   1.365
 3944WAT     H112043   0.764   1.609   1.433
 3944WAT     H212044   0.736   1.512   1.320
 3945WAT      O12045   0.827   1.389   1.237
 3945WAT     H112046   0.891   1.319   1.248
 3945WAT     H212047   0.880   1.467   1.219
 3946WAT      O12048   1.004   1.469   1.557
 3946WAT     H112049   1.038   1.528   1.625
 3946WAT     H212050   0.912   1.456   1.580
 3947WAT      O12051   1.170   1.209   0.375
 3947WAT     H112052   1.141   1.255   0.454
 3947WAT     H212053   1.249   1.163   0.402
 3948WAT      O12054   0.587   1.474   1.874
 3948WAT     H112055   0.555   1.402   1.929
 3948WAT     H212056   0.520   1.541   1.882
 3949WAT      O12057   0.392   1.558   0.369
 3949WAT     H112058   0.391   1.632   0.307
 3949WAT     H212059   0.299   1.534   0.378
 3950WAT      O12060   0.909   0.497   1.411
 3950WAT     H112061   0.946   0.415   1.443
 3950WAT     H212062   0.823   0.503   1.452
 3951WAT      O12063   1.246   0.393   0.491
 3951WAT     H112064   1.183   0.403   0.420
 3951WAT     H212065   1.196   0.415   0.570
 3952WAT      O12066   0.442   0.620   0.633
 3952WAT     H112067   0.372   0.667   0.677
 3952WAT     H212068   0.471   0.555   0.696
 3953WAT      O12069   0.605   0.762   1.433
 3953WAT     H112070   0.655   0.810   1.499
 3953WAT     H212071   0.619   0.670   1.454
 3954WAT      O12072   0.846   0.293   0.777
 3954WAT     H112073   0.833   0.295   0.682
 3954WAT     H212074   0.940   0.298   0.789
 3955WAT      O12075   0.554   1.817   0.704
 3955WAT     H112076   0.580   1.813   0.612
 3955WAT     H212077   0.459   1.804   0.704
 3956WAT      O12078   0.263   0.451   0.371
 3956WAT     H112079   0.348   0.495   0.364
 3956WAT     H212080   0.226   0.483   0.453
 3957WAT      O12081   1.326   0.384   1.517
 3957WAT     H112082   1.275   0.458   1.551
 3957WAT     H212083   1.407   0.423   1.486
 3958WAT      O12084   1.155   0.908   0.862
 3958WAT     H112085   1.061   0.910   0.879
 3958WAT     H212086   1.186   0.830   0.906
 3959WAT      O12087   1.355   1.626   1.029
 3959WAT     H112088   1.368   1.708   1.077
 3959WAT     H212089   1.442   1.604   0.995
 3960WAT      O12090   0.886   1.364   1.910
 3960WAT     H112091   0.826   1.366   1.836
 3960WAT     H212092   0.856   1.291   1.964
 3961WAT      O12093   1.029   1.737   1.771
 3961WAT     H112094   1.125   1.728   1.766
 3961WAT     H212095   1.015   1.803   1.839
 3962WAT      O12096   1.319   1.675   0.321
 3962WAT     H112097   1.290   1.634   0.240
 3962WAT     H212098   1.299   1.768   0.309
 3963WAT      O12099   0.480   1.143   1.763
 3963WAT     H112100   0.404   1.200   1.755
 3963WAT     H212101   0.498   1.114   1.674
 3964WAT      O12102   0.789   1.180   0.226
 3964WAT     H112103   0.734   1.225   0.290
 3964WAT     H212104   0.851   1.130   0.278
 3965WAT      O12105   1.194   1.316   1.819
 3965WAT     H112106   1.269   1.350   1.769
 3965WAT     H212107   1.118   1.333   1.764
 3966WAT      O12108   0.356   1.076   0.415
 3966WAT     H112109   0.398   1.060   0.500
 3966WAT     H212110   0.368   0.995   0.366
 3967WAT      O12111   1.062   1.121   1.672
 3967WAT     H112112   1.103   1.136   1.757
 3967WAT     H212113   0.968   1.134   1.689
 3968WAT      O12114   1.109   0.855   1.873
 3968WAT     H112115   1.167   0.779   1.864
 3968WAT     H212116   1.127   0.908   1.795
 3969WAT      O12117   0.497   0.227   1.407
 3969WAT     H112118   0.453   0.229   1.323
 3969WAT     H212119   0.434   0.187   1.467
 3970WAT      O12120   0.538   1.116   1.469
 3970WAT     H112121   0.580   1.200   1.452
 3970WAT     H212122   0.446   1.130   1.446
 3971WAT      O12123   0.772   0.889   1.608
 3971WAT     H112124   0.784   0.830   1.682
 3971WAT     H212125   0.858   0.893   1.566
 3972WAT      O12126   1.006   0.945   1.465
 3972WAT     H112127   0.953   0.997   1.405
 3972WAT     H212128   1.040   1.008   1.528
 3973WAT      O12129   0.323   1.747   1.581
 3973WAT     H112130   0.269   1.819   1.549
 3973WAT     H212131   0.348   1.699   1.502
 3974WAT      O12132   0.448   0.544   1.734
 3974WAT     H112133   0.507   0.513   1.802
 3974WAT     H212134   0.367   0.496   1.749
 3975WAT      O12135   0.930   0.505   1.757
 3975WAT     H112136   0.861   0.439   1.750
 3975WAT     H212137   1.002   0.461   1.801
 3976WAT      O12138   0.609   1.870   1.607
 3976WAT     H112139   0.601   1.961   1.638
 3976WAT     H212140   0.519   1.838   1.604
 3977WAT      O12141   0.664   1.787   0.369
 3977WAT     H112142   0.753   1.821   0.371
 3977WAT     H212143   0.667   1.715   0.306
 3978WAT      O12144   0.209   1.436   0.703
 3978WAT     H112145   0.179   1.424   0.793
 3978WAT     H212146   0.198   1.350   0.662
 3979WAT      O12147   1.362   1.640   1.640
 3979WAT     H112148   1.302   1.646   1.565
 3979WAT     H212149   1.374   1.546   1.653
 3980WAT      O12150   1.431   1.088   0.424
 3980WAT     H112151   1.507   1.145   0.434
 3980WAT     H212152   1.433   1.032   0.501
 3981WAT      O12153   1.532   1.174   0.908
 3981WAT     H112154   1.569   1.096   0.868
 3981WAT     H212155   1.596   1.243   0.890
 3982WAT      O12156   1.230   1.312   1.450
 3982WAT     H112157   1.149   1.355   1.476
 3982WAT     H212158   1.271   1.374   1.388
 3983WAT      O12159   1.076   0.420   0.269
 3983WAT     H112160   1.118   0.402   0.185
 3983WAT     H212161   1.045   0.335   0.300
 3984WAT      O12162   1.426   0.912   0.639
 3984WAT     H112163   1.388   0.835   0.596
 3984WAT     H212164   1.353   0.950   0.688
 3985WAT      O12165   1.365   0.826   1.602
 3985WAT     H112166   1.342   0.803   1.512
 3985WAT     H212167   1.391   0.918   1.598
 3986WAT      O12168   1.209   0.349   1.880
 3986WAT     H112169   1.297   0.350   1.918
 3986WAT     H212170   1.210   0.275   1.819
 3987WAT      O12171   1.353   0.734   0.969
 3987WAT     H112172   1.406   0.685   0.906
 3987WAT     H212173   1.412   0.748   1.043
 3988WAT      O12174   1.371   0.742   1.321
 3988WAT     H112175   1.276   0.739   1.333
 3988WAT     H212176   1.389   0.833   1.298
 3989WAT      O12177   1.302   0.660   0.563
 3989WAT     H112178   1.352   0.637   0.641
 3989WAT     H212179   1.283   0.576   0.521
 3990WAT      O12180   1.445   0.523   0.816
 3990WAT     H112181   1.434   0.508   0.910
 3990WAT     H212182   1.521   0.471   0.792
 3991WAT      O12183   1.542   0.384   0.403
 3991WAT     H112184   1.462   0.377   0.456
 3991WAT     H212185   1.562   0.477   0.402
 3992WAT      O12186   1.236   1.788   0.802
 3992WAT     H112187   1.295   1.755   0.735
 3992WAT     H212188   1.262   1.740   0.881
 3993WAT      O12189   0.396   1.586   1.377
 3993WAT     H112190   0.372   1.613   1.289
 3993WAT     H212191   0.491   1.603   1.383
 3994WAT      O12192   0.617   0.233   1.753
 3994WAT     H112193   0.611   0.292   1.828
 3994WAT     H212194   0.711   0.222   1.738
 3995WAT      O12195   1.523   1.788   1.457
 3995WAT     H112196   1.473   1.828   1.386
 3995WAT     H212197   1.462   1.726   1.497
 3996WAT      O12198   1.046   0.275   1.488
 3996WAT     H112199   1.013   0.194   1.450
 3996WAT     H212200   1.140   0.271   1.475
 3997WAT      O12201   1.291   1.852   1.185
 3997WAT     H112202   1.245   1.928   1.148
 3997WAT     H212203   1.228   1.781   1.179
 3998WAT      O12204   0.334   1.683   1.103
 3998WAT     H112205   0.386   1.622   1.050
 3998WAT     H212206   0.399   1.734   1.152
 3999WAT      O12207   0.608   1.772   1.185
 3999WAT     H112208   0.637   1.747   1.098
 3999WAT     H212209   0.659   1.717   1.244
 4000WAT      O12210   1.185   0.217   1.048
 4000WAT     H112211   1.229   0.211   0.963
 4000WAT     H212212   1.158   0.308   1.055
 4001WAT      O12213   0.518   0.388   0.794
 4001WAT     H112214   0.437   0.351   0.760
 4001WAT     H212215   0.569   0.313   0.825
 4002WAT      O12216   0.615   1.865   1.922
 4002WAT     H112217   0.707   1.841   1.926
 4002WAT     H212218   0.613   1.947   1.874
 4003WAT      O12219   1.438   1.819   0.622
 4003WAT     H112220   1.456   1.750   0.557
 4003WAT     H212221   1.368   1.871   0.583
 4004WAT      O12222   0.222   1.858   0.377
 4004WAT     H112223   0.295   1.829   0.322
 4004WAT     H212224   0.248   1.834   0.466
 4005WAT      O12225   1.271   1.787   1.904
 4005WAT     H112226   1.351   1.738   1.884
 4005WAT     H212227   1.301   1.855   1.965
   4.97495   5.65703   5.83016
