4QHU_QSPVLIYDDT_UNCAPPED in water
 5107
   43ACE    CH3    1   2.398   3.547   3.237  0.3317  0.3505 -0.6691
   43ACE   HH31    2   2.371   3.463   3.302 -1.4576 -0.0594 -1.8430
   43ACE   HH32    3   2.393   3.633   3.304 -0.4500  0.3843 -0.7539
   43ACE   HH33    4   2.319   3.549   3.161 -0.2834  0.3193 -0.0473
   43ACE      C    5   2.530   3.538   3.167 -0.3776  0.7931 -0.0360
   43ACE      O    6   2.626   3.590   3.222 -0.2846  0.5854  0.0334
   44VAL      N    7   2.536   3.496   3.041  0.4354 -0.6949 -0.1446
   44VAL      H    8   2.452   3.447   3.011  0.6602 -1.4808  0.4586
   44VAL     CA    9   2.659   3.486   2.954  0.8014 -0.1022 -0.2318
   44VAL     HA   10   2.746   3.535   2.997  2.6303 -2.3201 -1.1913
   44VAL     CB   11   2.703   3.340   2.942  0.1511  0.5532 -0.4524
   44VAL     HB   12   2.616   3.279   2.916 -0.7106  1.8664 -0.7716
   44VAL    CG1   13   2.816   3.317   2.836  0.2889  0.2940  0.8741
   44VAL   HG11   14   2.900   3.381   2.863  0.4245  0.8547 -0.7568
   44VAL   HG12   15   2.845   3.212   2.837  1.1409  0.4891  3.3671
   44VAL   HG13   16   2.783   3.352   2.738  1.6171  0.6663  0.5390
   44VAL    CG2   17   2.760   3.304   3.084 -0.4481 -0.0812  1.0325
   44VAL   HG21   18   2.836   3.375   3.117 -2.0868  2.4399 -0.3041
   44VAL   HG22   19   2.680   3.304   3.158 -1.5480  4.1283  0.0869
   44VAL   HG23   20   2.790   3.199   3.088 -0.4960 -0.0825  1.4088
   44VAL      C   21   2.628   3.542   2.820 -1.4031  0.2770  0.0038
   44VAL      O   22   2.539   3.501   2.750 -0.4343 -0.3186 -0.2997
   45LEU      N   23   2.714   3.631   2.772  0.3513 -0.6542  0.0584
   45LEU      H   24   2.793   3.652   2.832  0.3421 -0.4888  0.0149
   45LEU     CA   25   2.716   3.692   2.639 -0.0567 -0.8687 -0.5881
   45LEU     HA   26   2.621   3.701   2.587  0.6938  0.5224 -1.7978
   45LEU     CB   27   2.773   3.835   2.645  0.8631  0.6851 -0.4803
   45LEU    HB1   28   2.794   3.869   2.544  4.3302 -1.1814 -0.5488
   45LEU    HB2   29   2.861   3.835   2.710 -0.2080  1.2564  1.0465
   45LEU     CG   30   2.687   3.944   2.711 -0.3178  0.5814  0.1013
   45LEU     HG   31   2.661   3.905   2.809 -0.9098  0.1391 -0.2265
   45LEU    CD1   32   2.782   4.065   2.721  0.0485  1.0222  0.1577
   45LEU   HD11   33   2.867   4.042   2.785  0.7673 -0.9665 -1.4286
   45LEU   HD12   34   2.811   4.091   2.619 -1.1551  0.0284 -0.4504
   45LEU   HD13   35   2.737   4.147   2.777 -1.2569  0.3391  0.1190
   45LEU    CD2   36   2.561   3.980   2.631  0.0186  0.1982  0.1812
   45LEU   HD21   37   2.505   4.055   2.686  1.5449  0.6753  1.1620
   45LEU   HD22   38   2.585   4.039   2.542  0.4677  1.2691  0.9831
   45LEU   HD23   39   2.501   3.893   2.605  0.4079  0.3186 -1.2292
   45LEU      C   40   2.807   3.614   2.544 -0.3314  0.8589 -0.0526
   45LEU      O   41   2.760   3.559   2.447 -0.2934 -0.4519 -0.4119
   46VAL      N   42   2.934   3.583   2.582  0.3516  0.3763 -0.2270
   46VAL      H   43   2.966   3.597   2.677  0.3445  0.0437 -0.1734
   46VAL     CA   44   3.027   3.512   2.490  0.1353  0.1260  0.2685
   46VAL     HA   45   2.975   3.487   2.398 -1.1002 -1.4511  1.3503
   46VAL     CB   46   3.143   3.604   2.451  0.3287  0.3306 -0.0506
   46VAL     HB   47   3.203   3.628   2.539 -0.3729 -0.4902  0.6795
   46VAL    CG1   48   3.247   3.535   2.356 -0.1066  0.0487 -0.4450
   46VAL   HG11   49   3.194   3.483   2.276 -0.1431  1.2578 -1.2298
   46VAL   HG12   50   3.328   3.602   2.325  1.0226  0.6321  3.2702
   46VAL   HG13   51   3.307   3.465   2.414  3.5387  0.7712 -2.9515
   46VAL    CG2   52   3.096   3.730   2.371  0.0078 -0.4586 -0.5930
   46VAL   HG21   53   3.040   3.715   2.279 -1.4408 -0.7869  0.2941
   46VAL   HG22   54   3.037   3.796   2.436 -1.7304 -0.6864 -1.8749
   46VAL   HG23   55   3.185   3.782   2.335  0.8721 -0.9032  0.8304
   46VAL      C   56   3.086   3.387   2.559 -0.0218  0.4319  0.2890
   46VAL      O   57   3.145   3.401   2.670 -0.1090  0.2898 -0.3197
   47ILE      N   58   3.078   3.272   2.491 -0.3316 -0.2236 -0.6489
   47ILE      H   59   3.022   3.264   2.408  0.0092 -1.6018 -0.7800
   47ILE     CA   60   3.135   3.147   2.545 -0.7686  0.1220 -0.4121
   47ILE     HA   61   3.169   3.163   2.647  1.9431 -2.3234 -0.8036
   47ILE     CB   62   3.023   3.040   2.579  0.5774 -0.2928  0.4024
   47ILE     HB   63   2.960   3.082   2.658  0.2077 -0.1870  0.0547
   47ILE    CG2   64   2.940   3.021   2.449 -0.7147 -0.6506 -0.8770
   47ILE   HG21   65   2.891   3.114   2.420  1.1055  0.9287  0.8159
   47ILE   HG22   66   3.008   2.986   2.372  0.6673  0.2898 -0.1292
   47ILE   HG23   67   2.858   2.951   2.466 -2.3897  1.1915 -1.0186
   47ILE    CG1   68   3.075   2.910   2.635  0.5002 -0.5932 -0.1223
   47ILE   HG11   69   3.150   2.937   2.709  1.2336 -0.8117 -0.7797
   47ILE   HG12   70   3.121   2.851   2.556  0.9065 -2.0787  1.1613
   47ILE     CD   71   2.969   2.826   2.701 -0.0511  0.7998 -0.4545
   47ILE    HD1   72   2.910   2.781   2.621  0.9988  0.0263 -0.8228
   47ILE    HD2   73   3.005   2.732   2.743 -0.7332 -0.7395 -3.1130
   47ILE    HD3   74   2.908   2.881   2.772 -1.4288 -2.9563  1.5555
   47ILE      C   75   3.249   3.084   2.463 -0.1014 -1.0376  0.2329
   47ILE      O   76   3.342   3.030   2.522 -0.4723  0.1424  0.2974
   48TYR      N   77   3.251   3.111   2.329  0.0901 -0.0046  0.4773
   48TYR      H   78   3.178   3.163   2.283  0.0847  0.0883  0.5925
   48TYR     CA   79   3.345   3.046   2.235  0.6193  0.3907  0.5900
   48TYR     HA   80   3.399   2.978   2.300  1.9624 -0.6713 -1.5409
   48TYR     CB   81   3.275   2.961   2.131 -0.0643 -0.2593 -0.1817
   48TYR    HB1   82   3.349   2.914   2.068  0.6502  1.8988 -1.0605
   48TYR    HB2   83   3.218   3.023   2.061 -0.1675  1.0989  1.0457
   48TYR     CG   84   3.180   2.851   2.179  0.3491  0.0130 -0.6755
   48TYR    CD1   85   3.233   2.754   2.263  0.2131  0.5916 -0.0416
   48TYR    HD1   86   3.341   2.746   2.269  0.3856  0.0602 -2.7780
   48TYR    CE1   87   3.149   2.655   2.315  0.2940 -0.1689  0.3958
   48TYR    HE1   88   3.188   2.578   2.380 -2.2226 -2.4737 -0.6423
   48TYR     CZ   89   3.015   2.653   2.287 -0.2264 -0.7295 -0.6091
   48TYR     OH   90   2.927   2.576   2.359 -0.1132 -0.0760 -0.0284
   48TYR     HH   91   2.972   2.529   2.430 -1.7416 -1.3247  0.2394
   48TYR    CE2   92   2.959   2.755   2.201 -0.0453  0.2639  0.4935
   48TYR    HE2   93   2.853   2.746   2.186  0.0191 -1.4789  0.8884
   48TYR    CD2   94   3.043   2.854   2.147  0.3863 -0.1306  0.0307
   48TYR    HD2   95   3.002   2.927   2.079 -0.0508 -1.1843 -0.8567
   48TYR      C   96   3.454   3.137   2.183 -0.6500  0.3563  0.2343
   48TYR      O   97   3.435   3.259   2.172 -0.4676  0.0086 -0.6450
   49NME      N   98   3.569   3.082   2.145  0.0047 -0.6011  0.5077
   49NME      H   99   3.571   2.982   2.160 -0.7009 -0.5677  0.8564
   49NME    CH3  100   3.680   3.152   2.089 -0.9861  0.3807  0.2852
   49NME   HH31  101   3.757   3.157   2.167 -0.1252 -0.7227 -0.4509
   49NME   HH32  102   3.718   3.095   2.004 -1.8017 -1.6911  1.2387
   49NME   HH33  103   3.642   3.252   2.071 -0.0787  0.6032 -0.4564
   50SOL     OW  104   1.337   1.915   2.341 -0.2927 -0.1958 -0.4833
   50SOL    HW1  105   1.247   1.922   2.384  0.6384 -1.2544  1.8132
   50SOL    HW2  106   1.344   1.828   2.292  0.6233 -1.9506  2.4982
   51SOL     OW  107   3.278   0.503   1.134 -0.1818  0.3321  0.1307
   51SOL    HW1  108   3.188   0.515   1.176  0.0535  1.9099  0.2430
   51SOL    HW2  109   3.348   0.501   1.205 -0.1321 -1.2116  0.0652
   52SOL     OW  110   3.694   1.099   1.071  0.1870 -0.6359  0.0617
   52SOL    HW1  111   3.618   1.057   1.121  0.6675 -0.0070  1.3412
   52SOL    HW2  112   3.778   1.090   1.124  0.7774 -0.2472 -0.7914
   53SOL     OW  113   2.795   0.401   0.248  0.1858  0.4620  0.3706
   53SOL    HW1  114   2.891   0.400   0.277  0.3602 -0.9041 -0.1766
   53SOL    HW2  115   2.771   0.312   0.209 -0.4856  1.6710 -2.1766
   54SOL     OW  116   2.540   0.129   3.524  0.1473  0.2029  0.4559
   54SOL    HW1  117   2.504   0.148   3.433 -0.2441 -2.2427  0.0378
   54SOL    HW2  118   2.636   0.158   3.529  0.3251 -0.1112 -0.9005
   55SOL     OW  119   0.734   2.871   2.865  0.7596 -0.5671  0.3122
   55SOL    HW1  120   0.695   2.962   2.878  1.1558 -0.1992 -0.8986
   55SOL    HW2  121   0.754   2.857   2.768  1.9302 -1.4410  0.6518
   56SOL     OW  122   2.604   1.633   2.082  0.0748  0.3318 -0.3232
   56SOL    HW1  123   2.540   1.658   2.154  0.1272 -0.4858  0.0128
   56SOL    HW2  124   2.658   1.554   2.110  1.1970  0.9660 -0.6309
   57SOL     OW  125   0.608   0.259   1.446 -0.2382  0.0139 -0.0898
   57SOL    HW1  126   0.650   0.188   1.390 -1.2916  0.6523 -1.7735
   57SOL    HW2  127   0.510   0.243   1.452 -0.5147  1.3312 -0.5746
   58SOL     OW  128   1.011   2.375   1.873  0.6166 -0.0272 -0.3405
   58SOL    HW1  129   1.017   2.470   1.905 -0.4592 -0.4405  1.1684
   58SOL    HW2  130   0.919   2.341   1.887  1.2085 -1.5832 -0.0421
   59SOL     OW  131   3.242   2.409   0.494  0.0846  0.0634  1.2397
   59SOL    HW1  132   3.212   2.438   0.402  2.5662  0.4181  0.4744
   59SOL    HW2  133   3.183   2.335   0.526  0.5658 -1.7580 -1.7130
   60SOL     OW  134   3.116   0.623   0.727 -0.0076 -0.3858  0.3072
   60SOL    HW1  135   3.062   0.548   0.687 -0.5073  0.5692 -0.8927
   60SOL    HW2  136   3.057   0.702   0.742  0.8857  0.4134 -0.2654
   61SOL     OW  137   3.404   3.079   1.829 -0.5071 -0.0311 -0.1576
   61SOL    HW1  138   3.323   3.026   1.853  0.4897 -0.8012  1.7279
   61SOL    HW2  139   3.469   3.021   1.780  0.1245 -0.2855  0.9472
   62SOL     OW  140   1.335   1.711   1.694 -0.3613  0.1469  0.1671
   62SOL    HW1  141   1.300   1.622   1.723  0.8685 -0.9494 -1.5528
   62SOL    HW2  142   1.279   1.747   1.619 -0.1811  0.2865  0.0977
   63SOL     OW  143   0.790   2.285   2.225  0.0089  0.2813 -0.2154
   63SOL    HW1  144   0.884   2.313   2.241 -0.0194  0.0587  0.3370
   63SOL    HW2  145   0.728   2.337   2.284 -0.3691  1.4958 -1.6090
   64SOL     OW  146   0.111   1.200   0.455  0.5127  0.4981 -0.4317
   64SOL    HW1  147   0.196   1.157   0.486  1.1388  1.4414 -0.7857
   64SOL    HW2  148   0.039   1.131   0.447  1.4417 -0.4479 -0.8407
   65SOL     OW  149   2.084   3.329   0.707 -0.1316 -0.2758 -0.0645
   65SOL    HW1  150   2.040   3.348   0.619 -1.3325 -1.5382  0.2236
   65SOL    HW2  151   2.026   3.267   0.760  1.6164 -1.3012  0.7155
   66SOL     OW  152   0.701   1.804   0.634  0.0086 -0.4175 -0.0716
   66SOL    HW1  153   0.708   1.780   0.731 -0.6114 -0.0236  0.0852
   66SOL    HW2  154   0.790   1.834   0.600  0.3217 -0.9509  0.2660
   67SOL     OW  155   1.219   2.193   0.667  0.5656 -0.2045 -0.0198
   67SOL    HW1  156   1.146   2.144   0.621 -0.1027  0.9816 -0.2590
   67SOL    HW2  157   1.305   2.143   0.657  0.3254 -0.2673 -2.0711
   68SOL     OW  158   1.724   1.385   1.953  0.0639  0.3675  0.1679
   68SOL    HW1  159   1.797   1.408   1.889 -0.0654  1.3309  0.3514
   68SOL    HW2  160   1.671   1.309   1.917  0.2499  0.6242 -0.6776
   69SOL     OW  161   3.611   2.277   0.492  0.0998  0.1363 -0.3493
   69SOL    HW1  162   3.584   2.373   0.483 -1.4840 -0.2732 -0.2983
   69SOL    HW2  163   3.666   2.266   0.575 -1.3872  0.6903  0.7592
   70SOL     OW  164   2.963   1.564   0.018 -0.3383 -0.4905 -0.1986
   70SOL    HW1  165   2.950   1.516   0.105  1.2525 -1.5702 -0.5176
   70SOL    HW2  166   3.037   1.520  -0.034  0.2368  1.4740 -1.1341
   71SOL     OW  167   1.498   2.145   1.938 -0.5139 -0.0658 -0.0800
   71SOL    HW1  168   1.430   2.107   1.875  0.1652 -0.9458 -0.3021
   71SOL    HW2  169   1.478   2.115   2.031 -1.3153  0.9487  0.0882
   72SOL     OW  170   2.001   1.259   2.865 -0.4409 -0.6385  0.0941
   72SOL    HW1  171   2.008   1.177   2.808  2.0683  0.1518 -0.8745
   72SOL    HW2  172   1.960   1.333   2.813 -1.0014 -0.7679  0.3509
   73SOL     OW  173   3.386   1.716   0.027 -0.0510 -0.1701 -0.0314
   73SOL    HW1  174   3.461   1.649   0.022 -0.6021 -0.7661 -0.5664
   73SOL    HW2  175   3.340   1.709   0.115 -1.3009 -1.8557 -0.7575
   74SOL     OW  176   1.873   1.798   3.487  0.4303  0.1830 -0.1258
   74SOL    HW1  177   1.842   1.731   3.555  2.3315 -0.6449 -0.0245
   74SOL    HW2  178   1.856   1.762   3.396  1.2989 -0.3931 -0.0706
   75SOL     OW  179   3.272   0.423   0.428 -0.6916 -0.7758 -0.5036
   75SOL    HW1  180   3.351   0.463   0.381  0.3730 -1.6103  0.4857
   75SOL    HW2  181   3.201   0.492   0.440  0.8231  0.6851  0.5710
   76SOL     OW  182   2.270   1.164   0.794  0.3049  0.0423  0.1538
   76SOL    HW1  183   2.266   1.142   0.891 -1.2564 -0.4073  0.0055
   76SOL    HW2  184   2.218   1.248   0.776 -1.9290 -1.4281 -0.6797
   77SOL     OW  185   3.649   2.984   3.390  0.1187 -0.4057  0.0393
   77SOL    HW1  186   3.671   2.954   3.483  0.9718 -0.4331 -0.1678
   77SOL    HW2  187   3.607   2.907   3.341  0.8615 -0.8010  0.0027
   78SOL     OW  188   3.585   1.628   2.297  0.3425  0.0942 -0.3973
   78SOL    HW1  189   3.523   1.602   2.223  1.4648  0.0606 -1.3515
   78SOL    HW2  190   3.670   1.575   2.289  0.7945  0.6812  0.4323
   79SOL     OW  191   3.005   2.222   1.168 -0.4897  0.1858 -0.0669
   79SOL    HW1  192   3.045   2.300   1.119 -0.0831  1.2580  1.8519
   79SOL    HW2  193   3.019   2.234   1.266 -0.4200 -2.3547  0.2911
   80SOL     OW  194   0.478   0.143   0.483  0.0989 -0.2236 -0.7781
   80SOL    HW1  195   0.431   0.084   0.417 -1.5815 -0.7127  0.7624
   80SOL    HW2  196   0.542   0.203   0.434 -0.4433 -1.1341 -2.7335
   81SOL     OW  197   2.993   2.281   2.771  0.4456  0.4542  0.0343
   81SOL    HW1  198   3.079   2.287   2.822 -0.1181 -0.0728  1.1063
   81SOL    HW2  199   2.986   2.190   2.730  0.0039  0.1742  0.7147
   82SOL     OW  200   1.472   2.547   2.023  0.0908 -0.2162 -0.3433
   82SOL    HW1  201   1.446   2.502   2.109  0.2110 -0.4969 -0.4532
   82SOL    HW2  202   1.396   2.603   1.991 -0.2188 -0.6803 -0.4259
   83SOL     OW  203   1.365   0.985   3.161  0.5308 -0.3390  0.3004
   83SOL    HW1  204   1.422   1.041   3.102  0.0302  0.8658  0.9287
   83SOL    HW2  205   1.388   1.003   3.257  0.5867 -1.4602  0.5107
   84SOL     OW  206   2.930   0.693   1.654  0.1565 -0.2594 -0.6463
   84SOL    HW1  207   2.938   0.676   1.556 -1.7786  0.9140 -1.0809
   84SOL    HW2  208   2.855   0.638   1.691 -1.1684  1.5525 -0.5191
   85SOL     OW  209   3.191   1.080   2.783  0.1067  0.4361 -0.0275
   85SOL    HW1  210   3.182   1.055   2.879  1.5921 -0.6201 -0.1359
   85SOL    HW2  211   3.121   1.148   2.760  0.2618  1.3376  1.9868
   86SOL     OW  212   0.884   1.750   3.096  0.3849 -0.0429  0.1101
   86SOL    HW1  213   0.940   1.825   3.130  0.5410 -0.4763  0.8169
   86SOL    HW2  214   0.843   1.777   3.008 -0.8651  1.4962  1.0982
   87SOL     OW  215   0.940   3.091   1.693 -0.1705  0.2069  0.5736
   87SOL    HW1  216   0.985   3.004   1.670 -1.4516 -0.0735 -1.0995
   87SOL    HW2  217   1.009   3.163   1.699  0.5853 -0.2408 -1.6919
   88SOL     OW  218   1.777   2.800   0.587 -0.0828  0.1564 -0.2449
   88SOL    HW1  219   1.831   2.873   0.546 -0.2984  0.1657 -0.5111
   88SOL    HW2  220   1.692   2.838   0.624 -0.9541 -0.1815 -1.7911
   89SOL     OW  221   2.446   0.683   0.134  0.1980 -0.6429  0.3574
   89SOL    HW1  222   2.529   0.736   0.147  0.4422 -0.6663 -0.9375
   89SOL    HW2  223   2.376   0.741   0.091 -0.5248 -0.5753  1.5890
   90SOL     OW  224   2.646   2.762   2.774 -0.0998  1.0372 -0.0635
   90SOL    HW1  225   2.681   2.696   2.708  0.2152  1.0370  0.1014
   90SOL    HW2  226   2.651   2.854   2.735 -2.8544  0.7542 -1.2812
   91SOL     OW  227   3.430   0.785   0.143  0.2462  0.6647 -0.1934
   91SOL    HW1  228   3.478   0.700   0.168  0.7359  0.5377 -1.4892
   91SOL    HW2  229   3.362   0.765   0.073  0.2573  1.3183 -0.3945
   92SOL     OW  230   0.576   0.128   1.742  0.1639  0.3702  0.0365
   92SOL    HW1  231   0.493   0.090   1.782  0.7488 -0.9283  0.0759
   92SOL    HW2  232   0.553   0.178   1.658 -0.7340  0.7210  0.4798
   93SOL     OW  233   1.430   0.561   0.006 -0.6138  0.0742  0.0414
   93SOL    HW1  234   1.518   0.515   0.021 -0.1592 -0.1013 -2.7097
   93SOL    HW2  235   1.447   0.658  -0.011 -0.7465 -0.2165 -1.9571
   94SOL     OW  236   3.014   3.593   3.285 -0.2232  0.6065 -0.1691
   94SOL    HW1  237   3.081   3.567   3.355  0.5659  1.6188 -0.5114
   94SOL    HW2  238   3.023   3.532   3.206  1.3128  1.5879 -0.7971
   95SOL     OW  239   2.036   0.009   0.573  0.0589 -0.0001  0.1817
   95SOL    HW1  240   1.941   0.035   0.555  0.8588  2.2860 -1.2102
   95SOL    HW2  241   2.094   0.042   0.498  2.0155 -1.1136  1.1255
   96SOL     OW  242   2.926   3.133   0.515 -0.0881  0.2455 -0.0371
   96SOL    HW1  243   2.828   3.117   0.498  0.1870 -2.6869  0.6068
   96SOL    HW2  244   2.944   3.232   0.515 -2.9918  0.8710 -0.3215
   97SOL     OW  245   1.627   1.071   1.172 -0.5327 -0.1786  0.8430
   97SOL    HW1  246   1.703   1.024   1.128  0.5864  0.2015  2.2964
   97SOL    HW2  247   1.632   1.169   1.153 -0.3083 -0.0759  1.4007
   98SOL     OW  248   3.076   0.844   3.648 -0.0502 -0.1254  0.6693
   98SOL    HW1  249   3.031   0.761   3.683  1.4093 -0.8347  0.9534
   98SOL    HW2  250   3.034   0.871   3.561 -1.0420 -0.7186  0.9467
   99SOL     OW  251   1.335   0.185   2.007  0.4473  0.0145 -0.3073
   99SOL    HW1  252   1.423   0.139   2.009 -0.3838 -2.1260 -3.8331
   99SOL    HW2  253   1.317   0.226   2.096  3.0386 -3.1955  1.9729
  100SOL     OW  254   0.775   2.891   0.801  0.1957  0.3582  0.0971
  100SOL    HW1  255   0.679   2.900   0.827  0.1984  0.6048  0.0183
  100SOL    HW2  256   0.824   2.840   0.872 -0.0892 -0.1738 -0.0815
  101SOL     OW  257   1.963   1.256   0.912 -0.2105  0.3882 -0.1767
  101SOL    HW1  258   1.900   1.328   0.884  2.2274  2.0314 -1.9248
  101SOL    HW2  259   2.019   1.289   0.989  0.5718  0.1895 -0.6452
  102SOL     OW  260   3.238   0.560   1.484  0.1282  0.4756  0.1370
  102SOL    HW1  261   3.162   0.538   1.422  0.2504  0.5761 -0.0488
  102SOL    HW2  262   3.219   0.644   1.533 -0.5415 -0.2543  1.1734
  103SOL     OW  263   0.993   1.328   1.769  0.6768  0.2289 -0.3196
  103SOL    HW1  264   0.961   1.238   1.797  0.6418  0.5536  0.7462
  103SOL    HW2  265   0.980   1.339   1.671 -1.9306  0.1027 -0.0512
  104SOL     OW  266   1.107   0.683   1.514  0.0449  0.4546  0.3792
  104SOL    HW1  267   1.200   0.649   1.495 -0.3936 -0.1182 -0.8653
  104SOL    HW2  268   1.046   0.653   1.441 -0.8435  2.0062  0.4549
  105SOL     OW  269   2.150   2.191   2.190 -0.8228 -0.2070  0.0541
  105SOL    HW1  270   2.101   2.218   2.273 -1.8237 -0.6687 -0.3723
  105SOL    HW2  271   2.170   2.272   2.135  0.2863  0.1553  0.9773
  106SOL     OW  272   0.841   1.639   1.686 -0.4396  0.1681 -0.7003
  106SOL    HW1  273   0.926   1.613   1.732 -0.3959 -1.0712 -1.4585
  106SOL    HW2  274   0.862   1.674   1.595 -0.7815 -0.7739 -1.1464
  107SOL     OW  275   1.045   2.207   3.389  1.0207  0.5764  0.2786
  107SOL    HW1  276   1.048   2.125   3.445 -1.8668  0.7205  0.7974
  107SOL    HW2  277   1.118   2.203   3.320  1.5010 -1.9799  0.8370
  108SOL     OW  278   0.841   2.107   0.902 -0.3049  0.2865  0.3173
  108SOL    HW1  279   0.748   2.076   0.879 -0.7095  0.2312  1.9190
  108SOL    HW2  280   0.869   2.066   0.988  0.1838  2.3356  1.1820
  109SOL     OW  281   0.647   3.198   1.916 -0.1606 -0.4132  0.1112
  109SOL    HW1  282   0.742   3.228   1.907 -0.1678 -0.6092 -0.6422
  109SOL    HW2  283   0.617   3.212   2.011  0.7785 -0.8063  0.4823
  110SOL     OW  284   2.735   2.133   2.483  0.0012  0.7059  0.0280
  110SOL    HW1  285   2.706   2.051   2.434  1.2732  1.5261 -2.2634
  110SOL    HW2  286   2.816   2.113   2.538 -0.9760 -0.0403  1.2472
  111SOL     OW  287   3.398   0.021   2.754  0.0962  0.1616  0.0915
  111SOL    HW1  288   3.464   0.059   2.689 -0.4552  1.3987  0.2276
  111SOL    HW2  289   3.308   0.061   2.737 -1.1817 -3.0169 -1.4912
  112SOL     OW  290   0.406   3.674   3.031  0.8095 -0.4186  0.8764
  112SOL    HW1  291   0.407   3.742   2.957  0.7373 -0.0259  1.2375
  112SOL    HW2  292   0.495   3.674   3.076  0.5290  0.0510  1.4373
  113SOL     OW  293   3.690   1.521   3.433 -0.0096 -0.2226 -0.8882
  113SOL    HW1  294   3.763   1.561   3.376  1.1027 -0.2445  0.4708
  113SOL    HW2  295   3.623   1.592   3.455 -0.3495 -0.1633 -2.0189
  114SOL     OW  296   1.841   0.366   3.615 -0.3127  0.2330  0.1164
  114SOL    HW1  297   1.896   0.290   3.580  0.2538 -0.1054  1.6579
  114SOL    HW2  298   1.898   0.426   3.671 -1.3080  0.3477  1.0511
  115SOL     OW  299   2.556   0.778   0.710  0.1427 -0.0966 -0.3225
  115SOL    HW1  300   2.486   0.718   0.671 -0.1054 -0.8975  1.2832
  115SOL    HW2  301   2.563   0.861   0.655 -1.3962 -0.4153 -1.0529
  116SOL     OW  302   3.084   2.923   1.698  0.3884 -0.3676  0.5064
  116SOL    HW1  303   3.031   2.842   1.673  0.6405 -0.4845  0.3518
  116SOL    HW2  304   3.159   2.896   1.758 -1.6295  0.1861  3.5022
  117SOL     OW  305   1.556   1.391   0.736  0.1109 -0.3116 -0.6460
  117SOL    HW1  306   1.639   1.401   0.791  0.5329 -0.5989 -1.2144
  117SOL    HW2  307   1.507   1.478   0.734  0.6562  0.0042 -0.7017
  118SOL     OW  308   0.392   2.138   2.670  0.9544 -0.8871 -0.8494
  118SOL    HW1  309   0.469   2.108   2.614  2.1480  0.3670  0.0591
  118SOL    HW2  310   0.426   2.192   2.747 -0.9241  0.9672 -1.2255
  119SOL     OW  311   3.272   1.299   0.507 -0.1623  0.1407 -0.2924
  119SOL    HW1  312   3.243   1.336   0.596  0.4722 -1.9651  0.8491
  119SOL    HW2  313   3.328   1.367   0.460  0.1595  1.0185  1.2801
  120SOL     OW  314   0.650   0.389   3.080  0.1014 -0.2849  0.2345
  120SOL    HW1  315   0.718   0.320   3.054  2.3014  0.7739  2.6663
  120SOL    HW2  316   0.571   0.344   3.120  0.0319 -1.4937 -1.1773
  121SOL     OW  317   1.775   2.696   0.951 -0.5029 -0.4709 -0.3561
  121SOL    HW1  318   1.780   2.641   1.035 -0.7768 -1.5660 -1.0309
  121SOL    HW2  319   1.857   2.680   0.897 -1.0743 -1.0789 -1.0635
  122SOL     OW  320   1.974   1.735   1.293  0.5644  0.1071  0.0963
  122SOL    HW1  321   1.993   1.802   1.220 -0.2379 -1.6348 -1.8053
  122SOL    HW2  322   1.983   1.780   1.382  0.6744  2.5731 -1.0691
  123SOL     OW  323   0.375   2.171   0.834  0.2148  0.2069 -0.6680
  123SOL    HW1  324   0.338   2.082   0.862  1.3765 -0.2295 -0.4712
  123SOL    HW2  325   0.300   2.235   0.820 -0.6983 -0.9804 -1.4382
  124SOL     OW  326   2.711   2.661   1.332  0.0762 -0.5366  0.1549
  124SOL    HW1  327   2.728   2.706   1.420  0.0716  0.7391 -0.4778
  124SOL    HW2  328   2.627   2.696   1.291  1.6465  1.2320 -1.7794
  125SOL     OW  329   1.055   1.720   3.489  0.6568  0.1358  0.0640
  125SOL    HW1  330   1.051   1.688   3.394  3.5180  0.1692 -0.1425
  125SOL    HW2  331   1.145   1.700   3.528 -1.0331 -1.7161  3.4985
  126SOL     OW  332   1.619   1.429   2.892  0.2243 -0.2793 -0.2936
  126SOL    HW1  333   1.612   1.342   2.941  2.1443  0.6307  1.7928
  126SOL    HW2  334   1.711   1.468   2.906  0.9066  0.1858 -4.5761
  127SOL     OW  335   3.066   0.848   3.205 -0.5809 -0.1476 -0.4195
  127SOL    HW1  336   3.133   0.805   3.265 -1.8625  0.4498  1.5278
  127SOL    HW2  337   3.036   0.782   3.136 -0.8710 -1.6666  1.1037
  128SOL     OW  338   1.635   0.932   2.050  0.1888  0.2807  0.2282
  128SOL    HW1  339   1.591   0.951   2.138  0.5435  0.4971  0.3645
  128SOL    HW2  340   1.734   0.925   2.064  0.1418 -0.8088  0.0235
  129SOL     OW  341   3.026   1.231   3.492  0.3791  0.3118  0.4872
  129SOL    HW1  342   2.938   1.275   3.511 -0.0791  0.6085 -2.0199
  129SOL    HW2  343   3.016   1.132   3.499  0.8400  0.3804  3.8384
  130SOL     OW  344   1.796   0.080   2.805  0.4698  0.2976  0.0332
  130SOL    HW1  345   1.889   0.080   2.839  0.9990 -0.4140 -1.3177
  130SOL    HW2  346   1.745   0.004   2.846  0.9873 -0.3314 -0.4708
  131SOL     OW  347   2.353   1.157   1.304 -0.1424  0.0438  0.1341
  131SOL    HW1  348   2.321   1.135   1.212  0.7207  0.1418 -0.1981
  131SOL    HW2  349   2.305   1.100   1.371 -1.0516  0.2405 -0.3339
  132SOL     OW  350   3.520   3.583   3.353 -0.1055  0.0922 -0.1901
  132SOL    HW1  351   3.527   3.634   3.438  1.7658 -1.3664  0.5979
  132SOL    HW2  352   3.555   3.638   3.277  0.4772  0.5233  0.3852
  133SOL     OW  353   0.818   3.310   1.351  0.0024 -0.3821  0.3525
  133SOL    HW1  354   0.804   3.227   1.298 -1.6121  0.3177 -0.3926
  133SOL    HW2  355   0.732   3.336   1.396  0.1096  1.5358 -0.4285
  134SOL     OW  356   3.732   1.147   2.011 -0.4920  0.0034  0.6474
  134SOL    HW1  357   3.716   1.188   2.101 -0.6580  1.0079  0.1837
  134SOL    HW2  358   3.651   1.095   1.983 -0.1937 -0.8483  1.3483
  135SOL     OW  359   3.527   1.141   0.730  0.4964 -0.1147 -0.3550
  135SOL    HW1  360   3.442   1.142   0.783  1.0193  1.5130  0.5410
  135SOL    HW2  361   3.568   1.233   0.732  2.0151 -0.7410 -1.1925
  136SOL     OW  362   0.919   2.428   3.020 -0.2764 -0.2928  0.0224
  136SOL    HW1  363   0.840   2.485   2.996 -0.5682 -0.6183  0.2008
  136SOL    HW2  364   0.897   2.374   3.102  1.3713  2.2479  2.2964
  137SOL     OW  365   1.094   2.514   2.473 -0.0674  0.7092  0.3916
  137SOL    HW1  366   1.063   2.487   2.565  0.0874  1.6379  0.7273
  137SOL    HW2  367   1.152   2.595   2.480  1.1078 -0.0358 -0.3956
  138SOL     OW  368   2.277   0.461   0.763  0.5412 -0.0193 -0.0581
  138SOL    HW1  369   2.299   0.550   0.804  3.4610 -1.5421  2.0568
  138SOL    HW2  370   2.201   0.419   0.812  1.1309  0.0557  0.9427
  139SOL     OW  371   0.165   2.221   1.344 -0.2796 -0.1474 -0.6551
  139SOL    HW1  372   0.115   2.206   1.429 -0.6491  0.8770 -0.6834
  139SOL    HW2  373   0.200   2.315   1.342  0.4389 -0.4183 -1.2631
  140SOL     OW  374   1.134   0.830   3.489 -0.2148 -0.2776  0.1411
  140SOL    HW1  375   1.180   0.781   3.415 -0.5880  3.9733 -3.2447
  140SOL    HW2  376   1.037   0.806   3.489 -0.3278  0.1181 -1.1856
  141SOL     OW  377   2.579   1.448   1.875 -0.5174 -0.1004  0.1228
  141SOL    HW1  378   2.605   1.525   1.933 -0.0420 -0.0960 -0.0963
  141SOL    HW2  379   2.479   1.440   1.873 -0.5657 -1.7299  3.0915
  142SOL     OW  380   1.339   0.183   1.167  0.2499 -0.7894  0.3895
  142SOL    HW1  381   1.379   0.102   1.211  1.5381  0.5826  1.8942
  142SOL    HW2  382   1.396   0.211   1.091  0.5126 -0.5520  0.6739
  143SOL     OW  383   2.062   1.701   2.998 -0.2238  0.0706 -0.0245
  143SOL    HW1  384   2.007   1.784   3.011 -1.2020 -0.4867 -0.4465
  143SOL    HW2  385   2.106   1.677   3.085 -0.6921  0.5049  0.3479
  144SOL     OW  386   1.227   1.369   2.093 -0.1963 -0.5621 -0.2968
  144SOL    HW1  387   1.272   1.384   2.181 -2.1688 -0.4141  0.7502
  144SOL    HW2  388   1.207   1.272   2.082 -1.9457 -0.3256  0.4998
  145SOL     OW  389   1.540   0.818  -0.001  0.4125 -0.5118 -0.0967
  145SOL    HW1  390   1.638   0.816   0.016  0.0566 -1.1837  2.1324
  145SOL    HW2  391   1.494   0.866   0.073 -1.1511 -2.2823  0.1586
  146SOL     OW  392   0.459   1.772   1.833  0.5892  0.7887 -0.3815
  146SOL    HW1  393   0.416   1.758   1.922  1.7220  3.2412  0.6374
  146SOL    HW2  394   0.400   1.736   1.761 -1.6565  1.2571  1.1496
  147SOL     OW  395   3.544   2.523   2.437  0.1485  0.2686  0.3561
  147SOL    HW1  396   3.505   2.608   2.474 -1.1415 -0.3185  0.4319
  147SOL    HW2  397   3.628   2.501   2.487 -0.3342  0.6919  1.4057
  148SOL     OW  398   2.548   1.045   0.220 -0.1852 -0.0687 -0.1850
  148SOL    HW1  399   2.610   0.967   0.215  0.9731  0.8737 -1.0160
  148SOL    HW2  400   2.588   1.116   0.280 -0.4393  0.5492 -0.7341
  149SOL     OW  401   0.337   1.596   0.613  0.0072 -0.3620 -0.0137
  149SOL    HW1  402   0.381   1.655   0.545  0.3563  1.4820  1.7294
  149SOL    HW2  403   0.404   1.536   0.655  0.4188  0.6647  0.8412
  150SOL     OW  404   3.246   0.382   1.767 -0.3119 -0.1073  0.0515
  150SOL    HW1  405   3.242   0.399   1.669 -1.0185  0.7012  0.2064
  150SOL    HW2  406   3.335   0.342   1.791 -0.2264 -0.5191 -0.9384
  151SOL     OW  407   0.124   1.951   1.782 -0.0257 -0.4376 -0.3029
  151SOL    HW1  408   0.168   1.903   1.706 -1.0441  0.2960 -1.4051
  151SOL    HW2  409   0.059   1.890   1.827 -1.4665 -0.0901 -1.8264
  152SOL     OW  410   2.690   3.344   2.339  0.0044  0.3463  0.1538
  152SOL    HW1  411   2.715   3.437   2.364 -2.2241  1.4108 -1.3108
  152SOL    HW2  412   2.625   3.307   2.405 -1.4902  1.0331 -0.8832
  153SOL     OW  413   1.662   0.412   0.092  0.5361 -0.3278  0.2205
  153SOL    HW1  414   1.686   0.378   0.183 -1.1924 -1.6172  0.2409
  153SOL    HW2  415   1.736   0.392   0.028  1.4866  0.0015  1.1850
  154SOL     OW  416   3.695   2.717   2.953  0.2636 -0.1024 -0.1266
  154SOL    HW1  417   3.719   2.723   3.050  2.5538  0.0292 -0.6251
  154SOL    HW2  418   3.597   2.705   2.943  0.2217 -2.6887  2.2887
  155SOL     OW  419   2.458   0.529   3.381 -0.1188  0.3758  0.1597
  155SOL    HW1  420   2.523   0.573   3.320 -1.2850  1.1843 -0.5516
  155SOL    HW2  421   2.463   0.430   3.371  2.3620  0.2788  1.5829
  156SOL     OW  422   0.444   3.229   1.329  0.3553  0.1581 -0.1107
  156SOL    HW1  423   0.352   3.267   1.318  0.9404  1.2817 -1.3183
  156SOL    HW2  424   0.487   3.271   1.409 -0.0335 -0.1051  0.2442
  157SOL     OW  425   3.653   1.419   2.007 -0.0343  0.5268 -0.4649
  157SOL    HW1  426   3.724   1.351   1.987  0.4911  1.0795 -0.5283
  157SOL    HW2  427   3.585   1.419   1.935  0.2823  0.4713 -0.7667
  158SOL     OW  428   2.724   1.412   2.181  0.7048 -0.6136  0.0162
  158SOL    HW1  429   2.651   1.395   2.247 -0.0847 -1.1872 -0.9762
  158SOL    HW2  430   2.753   1.326   2.139 -0.9651 -0.0250 -2.5989
  159SOL     OW  431   0.916   1.940   2.008  0.6716 -0.5825  0.5277
  159SOL    HW1  432   0.885   2.028   2.044  0.5814 -0.3090 -0.1996
  159SOL    HW2  433   0.843   1.900   1.953  1.3011 -0.3302 -0.5075
  160SOL     OW  434   1.724   0.406   2.240  0.9849  0.1166 -0.0819
  160SOL    HW1  435   1.685   0.315   2.221  0.8263  0.0126  0.6866
  160SOL    HW2  436   1.715   0.464   2.159 -1.3300  0.2771  0.2013
  161SOL     OW  437   0.851   2.550   0.984 -0.1394 -0.3394 -0.7963
  161SOL    HW1  438   0.901   2.463   0.991 -0.1611 -0.2226  1.8444
  161SOL    HW2  439   0.916   2.626   0.989 -0.1913 -0.1727 -2.3201
  162SOL     OW  440   1.194   3.678   3.353  0.7179 -0.4793 -0.4120
  162SOL    HW1  441   1.110   3.631   3.379 -1.3811  3.1151 -0.0345
  162SOL    HW2  442   1.243   3.707   3.435 -0.2406  1.4978 -0.4805
  163SOL     OW  443   0.165   0.661   3.371 -0.2487  0.1181 -0.4242
  163SOL    HW1  444   0.152   0.733   3.439  0.1523  0.4768 -0.7165
  163SOL    HW2  445   0.157   0.701   3.279 -1.1423 -0.4220 -0.5939
  164SOL     OW  446   2.634   3.001   2.148 -0.0600  0.3558 -0.6085
  164SOL    HW1  447   2.615   2.908   2.116  1.3458 -0.3235  0.3960
  164SOL    HW2  448   2.579   3.020   2.229  0.2991  0.0537 -0.2895
  165SOL     OW  449   3.561   0.339   3.510  0.6504  0.3094  0.6899
  165SOL    HW1  450   3.548   0.432   3.544 -2.9332 -0.4428  1.8454
  165SOL    HW2  451   3.597   0.281   3.583 -1.4731 -0.0661  1.5249
  166SOL     OW  452   1.668   1.126   1.450  0.0095 -0.1686  0.2921
  166SOL    HW1  453   1.656   1.068   1.369  1.2106  0.6694 -0.5276
  166SOL    HW2  454   1.599   1.199   1.449  0.2695  0.0745 -0.2040
  167SOL     OW  455   2.788   1.033   1.479  0.2047 -0.4124  0.2040
  167SOL    HW1  456   2.732   1.097   1.426 -0.8815 -0.3431  1.3954
  167SOL    HW2  457   2.736   0.950   1.496  0.2930 -0.1885  1.6684
  168SOL     OW  458   0.554   1.165   2.160 -0.0998  0.0287 -0.5365
  168SOL    HW1  459   0.499   1.220   2.098  0.8894  0.3381 -1.1591
  168SOL    HW2  460   0.648   1.201   2.163  0.2678 -0.9304 -0.0770
  169SOL     OW  461   0.255   1.085   0.896  0.6036 -0.1100  0.7302
  169SOL    HW1  462   0.269   1.054   0.802 -1.2962  0.6714  0.1328
  169SOL    HW2  463   0.157   1.093   0.914  0.9190 -0.4635  2.8804
  170SOL     OW  464   1.285   2.494   1.691 -0.5578 -0.0614  0.3666
  170SOL    HW1  465   1.227   2.446   1.625 -0.1315  0.0990 -0.1276
  170SOL    HW2  466   1.365   2.437   1.712 -0.5179  0.0380  0.4841
  171SOL     OW  467   0.788   1.637   3.530 -0.6102  0.1124 -0.5728
  171SOL    HW1  468   0.873   1.677   3.497 -1.4038  1.2216 -1.3469
  171SOL    HW2  469   0.808   1.569   3.601  0.8243  1.5917  0.5016
  172SOL     OW  470   2.527   2.881   3.721 -0.6052  0.2959  0.1922
  172SOL    HW1  471   2.571   2.963   3.757  2.5221 -0.2575 -1.8967
  172SOL    HW2  472   2.531   2.882   3.621  2.5019 -3.6002 -0.0095
  173SOL     OW  473   3.138   0.156   1.462  0.0151 -0.0761 -0.3073
  173SOL    HW1  474   3.235   0.175   1.450 -0.0341 -0.6199 -1.7629
  173SOL    HW2  475   3.106   0.097   1.388 -1.9171  1.9347 -1.1895
  174SOL     OW  476   2.090   2.654   2.678 -0.3444 -0.6422  0.5381
  174SOL    HW1  477   2.154   2.597   2.729  0.9746  1.0442  0.8316
  174SOL    HW2  478   2.070   2.611   2.590  0.1837 -1.8150  0.9779
  175SOL     OW  479   2.687   2.221   3.281 -0.1325 -0.2978 -0.2472
  175SOL    HW1  480   2.658   2.270   3.363 -0.3475 -0.0823 -0.4478
  175SOL    HW2  481   2.657   2.126   3.286  0.0183 -0.3319  0.0065
  176SOL     OW  482   0.867   3.440   0.939 -0.0025  0.8479 -0.2137
  176SOL    HW1  483   0.923   3.504   0.886  1.3218  0.3860  0.6074
  176SOL    HW2  484   0.814   3.383   0.875  0.5212  1.2218 -1.0058
  177SOL     OW  485   1.709   1.361   2.647  0.2165  0.1055 -0.5086
  177SOL    HW1  486   1.677   1.382   2.740 -1.0763  0.7248 -1.0695
  177SOL    HW2  487   1.709   1.261   2.633 -0.8879  0.0697 -0.2823
  178SOL     OW  488   0.164   2.678   1.036 -0.3449 -0.5780  0.0960
  178SOL    HW1  489   0.219   2.733   1.099  1.6704 -0.9951 -1.2115
  178SOL    HW2  490   0.084   2.731   1.006  1.1492  1.4310 -0.5881
  179SOL     OW  491   1.119   2.708   0.445  0.2342  0.4452  0.4776
  179SOL    HW1  492   1.098   2.800   0.479 -0.0339  0.1866  1.0070
  179SOL    HW2  493   1.163   2.655   0.517 -3.2565 -1.1975  1.5709
  180SOL     OW  494   0.291   0.426   3.409  0.4035 -0.3346 -0.0282
  180SOL    HW1  495   0.218   0.358   3.422  0.3710 -0.3425 -0.2521
  180SOL    HW2  496   0.250   0.516   3.395  0.4394 -0.3235 -0.0601
  181SOL     OW  497   2.454   1.748   2.402  0.4130  0.1313 -0.0297
  181SOL    HW1  498   2.404   1.687   2.341 -0.6925  0.4457  0.5274
  181SOL    HW2  499   2.437   1.722   2.497 -1.2882  2.1285  0.2937
  182SOL     OW  500   3.136   3.460   3.052  0.0106 -0.0548  0.0078
  182SOL    HW1  501   3.219   3.517   3.053  1.3496 -1.9196 -0.1962
  182SOL    HW2  502   3.148   3.385   2.987 -2.0939 -0.0532 -0.4417
  183SOL     OW  503   3.182   0.767   1.635  0.1858 -0.2315 -0.0132
  183SOL    HW1  504   3.188   0.867   1.638 -1.0789 -0.1373 -0.2301
  183SOL    HW2  505   3.088   0.738   1.653  0.5225 -1.3857 -0.0186
  184SOL     OW  506   1.654   1.133   1.856 -0.4867 -0.2113 -0.8658
  184SOL    HW1  507   1.725   1.097   1.796 -1.5699 -1.4152 -1.4518
  184SOL    HW2  508   1.630   1.065   1.925 -0.2856  0.6220  0.0606
  185SOL     OW  509   0.904   1.237   1.043  0.2744 -0.2280  0.1595
  185SOL    HW1  510   0.827   1.295   1.017  0.1288 -1.1918 -1.7152
  185SOL    HW2  511   0.913   1.162   0.978  2.6766 -0.2704  0.4545
  186SOL     OW  512   2.565   1.331   2.379  0.0721 -0.4936 -0.7452
  186SOL    HW1  513   2.528   1.241   2.355  0.2568 -0.2596 -2.0032
  186SOL    HW2  514   2.496   1.384   2.427  0.5780 -1.9668  1.7732
  187SOL     OW  515   3.459   1.706   2.014 -0.3819 -0.4874 -0.5078
  187SOL    HW1  516   3.404   1.717   1.931 -1.1330  0.6483  0.1134
  187SOL    HW2  517   3.465   1.794   2.062 -0.6822 -1.2905  1.0769
  188SOL     OW  518   2.893   1.972   0.578  0.0407  0.3701  0.2990
  188SOL    HW1  519   2.805   1.988   0.622 -0.1694 -0.5861  0.2565
  188SOL    HW2  520   2.878   1.938   0.485  0.4409 -0.1423  0.4133
  189SOL     OW  521   0.373   2.612   0.342 -0.3410 -0.4639 -0.5570
  189SOL    HW1  522   0.312   2.661   0.281  0.6005 -0.0977 -1.2386
  189SOL    HW2  523   0.465   2.611   0.303  1.1609  2.7837  2.3437
  190SOL     OW  524   1.833   2.361   0.908 -0.1032  0.3866 -0.5683
  190SOL    HW1  525   1.813   2.400   0.818  0.0846 -0.3598 -0.9406
  190SOL    HW2  526   1.928   2.378   0.933  0.3264 -0.8536 -1.2729
  191SOL     OW  527   2.666   0.433   2.248 -0.2774  0.3541  0.2144
  191SOL    HW1  528   2.667   0.469   2.342  0.2146 -1.7727  1.0753
  191SOL    HW2  529   2.738   0.477   2.195  0.7618  0.1603  1.4202
  192SOL     OW  530   0.818   0.677   3.436 -0.0759  0.2115 -0.4150
  192SOL    HW1  531   0.812   0.607   3.507  0.4296 -0.3125 -0.8860
  192SOL    HW2  532   0.820   0.634   3.346 -0.6356  0.8692 -0.7514
  193SOL     OW  533   0.917   1.976   1.136  0.2002  0.4867  0.4945
  193SOL    HW1  534   0.835   1.932   1.173 -0.3390  0.4350 -0.7177
  193SOL    HW2  535   0.973   2.011   1.211 -1.6863  1.8835  1.3242
  194SOL     OW  536   1.240   1.450   1.713 -0.6148  0.4422 -0.1833
  194SOL    HW1  537   1.154   1.424   1.758 -0.4007 -1.9906 -1.0270
  194SOL    HW2  538   1.264   1.381   1.645  1.7262  1.3890 -0.4063
  195SOL     OW  539   0.420   2.203   2.328 -0.1265  0.2304 -0.0817
  195SOL    HW1  540   0.345   2.139   2.311  0.4683  0.0153 -2.2128
  195SOL    HW2  541   0.493   2.156   2.378  0.0955 -0.6656 -1.1992
  196SOL     OW  542   0.492   1.504   2.224  0.6958  0.1601  0.0021
  196SOL    HW1  543   0.396   1.520   2.249  0.2631 -1.3940 -0.5363
  196SOL    HW2  544   0.498   1.424   2.165  2.4255 -0.2402  0.6574
  197SOL     OW  545   1.060   1.865   2.847  0.2436  0.0876 -0.4588
  197SOL    HW1  546   1.030   1.800   2.917 -1.7942  2.0870  0.6441
  197SOL    HW2  547   1.151   1.899   2.871  0.2533 -0.4476  0.3231
  198SOL     OW  548   2.598   2.404   1.372 -0.4856  1.0487 -0.0253
  198SOL    HW1  549   2.658   2.341   1.322  0.3995  0.3694  1.7849
  198SOL    HW2  550   2.640   2.495   1.374 -0.7791  1.2034 -0.9522
  199SOL     OW  551   3.388   3.323   3.658  1.2510  0.1165 -0.1823
  199SOL    HW1  552   3.323   3.271   3.713  2.5396 -0.0067  1.2556
  199SOL    HW2  553   3.394   3.282   3.567  0.0883 -0.4782 -0.0126
  200SOL     OW  554   0.847   0.774   0.817 -0.3173 -0.1781  0.1041
  200SOL    HW1  555   0.875   0.698   0.758 -0.3420 -1.1734  1.3201
  200SOL    HW2  556   0.748   0.774   0.827 -0.4500  0.8562 -0.9408
  201SOL     OW  557   0.522   1.026   3.242 -0.0517 -0.0776 -0.8586
  201SOL    HW1  558   0.433   0.983   3.229  0.4490 -1.0700 -1.1377
  201SOL    HW2  559   0.566   0.987   3.323 -0.5016  1.5219  0.1904
  202SOL     OW  560   1.400   2.412   2.249 -0.1353  0.1755  0.0405
  202SOL    HW1  561   1.396   2.312   2.248  0.7463  0.1356 -1.3285
  202SOL    HW2  562   1.396   2.444   2.344 -2.2374 -1.0554  0.4293
  203SOL     OW  563   3.055   0.520   1.289 -0.2728 -0.0122 -0.2154
  203SOL    HW1  564   3.020   0.432   1.256  0.6148  0.0629 -1.4174
  203SOL    HW2  565   2.978   0.581   1.309 -0.9741 -1.5040  2.0437
  204SOL     OW  566   2.920   0.284   1.157  0.0704  0.2870  0.1702
  204SOL    HW1  567   2.849   0.233   1.205 -0.2983  1.0453  0.4510
  204SOL    HW2  568   2.997   0.224   1.137 -0.6364 -0.5496 -0.1219
  205SOL     OW  569   1.454   1.828   0.889 -0.3272 -0.5332 -0.5097
  205SOL    HW1  570   1.414   1.891   0.956  0.5996 -0.3408 -0.1161
  205SOL    HW2  571   1.554   1.837   0.891 -0.1527 -2.1775 -0.2722
  206SOL     OW  572   3.019   1.992   1.950  0.1481 -0.2572  0.2416
  206SOL    HW1  573   3.032   1.965   2.045  1.2419  1.9006  0.7899
  206SOL    HW2  574   2.922   2.006   1.931 -0.0752 -0.7197  1.0214
  207SOL     OW  575   1.035   3.478   3.494  0.5601 -0.2821  0.0959
  207SOL    HW1  576   0.995   3.401   3.445  0.1172 -0.2478  0.3967
  207SOL    HW2  577   1.082   3.445   3.576 -0.7449 -0.1241  0.9334
  208SOL     OW  578   1.095   3.569   0.850  0.7573 -0.6702 -0.5824
  208SOL    HW1  579   1.115   3.626   0.930 -0.2696 -1.1793  0.0486
  208SOL    HW2  580   1.087   3.628   0.769  2.4096 -0.2081 -0.4604
  209SOL     OW  581   2.297   0.067   2.980 -0.0125  0.2708  0.1539
  209SOL    HW1  582   2.268   0.001   2.911  1.5632  0.1746 -0.4558
  209SOL    HW2  583   2.395   0.081   2.974  0.4350 -0.7042  3.2093
  210SOL     OW  584   1.264   1.326   0.272  0.3165  0.1001 -0.2774
  210SOL    HW1  585   1.234   1.232   0.254  0.0632  0.1961 -0.3676
  210SOL    HW2  586   1.186   1.379   0.306  0.1771  0.5702 -1.2926
  211SOL     OW  587   0.844   1.625   2.547 -0.4697  0.3622 -0.2459
  211SOL    HW1  588   0.851   1.548   2.611  0.7947  0.6187 -0.0410
  211SOL    HW2  589   0.902   1.608   2.468 -1.6595  0.2643 -1.1165
  212SOL     OW  590   3.042   1.461   1.832 -0.0942  0.6814  0.1398
  212SOL    HW1  591   2.983   1.533   1.868 -0.5833  0.1023  0.5314
  212SOL    HW2  592   3.095   1.496   1.755  3.0251  2.8299  2.9741
  213SOL     OW  593   3.476   2.258   2.347  0.4963 -0.2145  0.3497
  213SOL    HW1  594   3.567   2.226   2.320  0.3086 -0.1504 -0.3839
  213SOL    HW2  595   3.480   2.353   2.376  1.4871 -1.3806  4.7267
  214SOL     OW  596   3.572   2.561   0.001 -0.3768  0.2137  0.3618
  214SOL    HW1  597   3.543   2.652   0.032 -1.2750  0.3642 -0.8618
  214SOL    HW2  598   3.496   2.497   0.012 -0.3625  0.0389 -0.5460
  215SOL     OW  599   2.536   0.168   3.050  0.0121  0.2068 -0.3036
  215SOL    HW1  600   2.516   0.257   3.011 -2.1233  0.4752  1.2625
  215SOL    HW2  601   2.636   0.155   3.053  0.3900  2.6661 -0.1982
  216SOL     OW  602   1.008   3.115   3.010 -0.3010 -0.2906  0.5137
  216SOL    HW1  603   1.071   3.166   3.068  1.0249 -0.3506 -0.8274
  216SOL    HW2  604   0.991   3.025   3.050  1.8147 -0.9306  0.0698
  217SOL     OW  605   2.085   1.257   3.501  0.1509 -0.5037  0.2868
  217SOL    HW1  606   2.124   1.265   3.592  0.4127  0.0555  0.1320
  217SOL    HW2  607   1.988   1.280   3.504 -0.2917 -2.3043  0.7452
  218SOL     OW  608   1.734   0.765   1.378  0.7298 -0.2530 -0.2821
  218SOL    HW1  609   1.786   0.693   1.333  0.9794 -1.1466  1.3551
  218SOL    HW2  610   1.796   0.831   1.420  0.6631 -1.6991  2.2785
  219SOL     OW  611   1.227   3.232   2.231  0.1282 -0.0757  0.2557
  219SOL    HW1  612   1.221   3.329   2.209  0.2315 -0.1374 -0.0507
  219SOL    HW2  613   1.252   3.220   2.327 -0.9505  0.1985  0.5881
  220SOL     OW  614   2.141   1.901   2.413  0.1831  0.3153 -0.0480
  220SOL    HW1  615   2.230   1.878   2.453  0.1886 -0.9858 -0.7433
  220SOL    HW2  616   2.149   1.903   2.314 -0.3786  1.0315 -0.0807
  221SOL     OW  617   1.009   2.872   2.165 -0.0985 -0.2779  0.3332
  221SOL    HW1  618   0.988   2.918   2.078 -0.5907  0.5908  0.9050
  221SOL    HW2  619   1.007   2.772   2.151 -2.4744 -0.2097 -0.1329
  222SOL     OW  620   2.403   2.079   0.894 -0.0620 -0.3667 -0.1941
  222SOL    HW1  621   2.398   2.055   0.797  2.3115  0.6795 -0.6504
  222SOL    HW2  622   2.492   2.120   0.914 -0.0540 -1.5396  2.6867
  223SOL     OW  623   0.866   0.381   2.366 -0.2908 -0.4041  0.4408
  223SOL    HW1  624   0.906   0.354   2.278  1.1060 -1.4201  1.3273
  223SOL    HW2  625   0.785   0.326   2.384 -0.8682  0.1497 -0.4175
  224SOL     OW  626   1.134   0.688   2.879 -0.0942  0.2983 -0.2664
  224SOL    HW1  627   1.218   0.633   2.877  0.4265  1.0673 -0.1364
  224SOL    HW2  628   1.156   0.781   2.909 -1.2253  0.1254  1.1862
  225SOL     OW  629   3.630   3.416   2.320 -0.0893  1.0329  0.0821
  225SOL    HW1  630   3.565   3.394   2.247  0.2193  2.4841 -0.6603
  225SOL    HW2  631   3.580   3.442   2.402 -0.4787  2.1837 -0.5003
  226SOL     OW  632   3.447   3.261   2.953 -0.4507  0.8054  0.0868
  226SOL    HW1  633   3.501   3.205   2.890  1.1334 -0.4872  2.3898
  226SOL    HW2  634   3.462   3.358   2.933  2.0611  0.4744  0.0187
  227SOL     OW  635   1.897   0.277   1.171 -0.2226 -0.4689 -0.0237
  227SOL    HW1  636   1.822   0.210   1.180  0.0466 -0.6423  1.0606
  227SOL    HW2  637   1.984   0.230   1.184  0.0802 -0.2227 -1.0620
  228SOL     OW  638   2.530   0.380   0.861 -0.2901  0.7148  0.2050
  228SOL    HW1  639   2.611   0.435   0.839  0.1027 -0.2434 -0.8973
  228SOL    HW2  640   2.450   0.420   0.816  0.0502  0.2433 -0.8746
  229SOL     OW  641   2.579   1.777   2.854 -0.7230  0.2362  0.3059
  229SOL    HW1  642   2.674   1.750   2.869 -1.1544 -0.9838  1.0303
  229SOL    HW2  643   2.573   1.876   2.843  1.0440  0.1320 -3.0845
  230SOL     OW  644   2.645   2.561   1.775 -0.0461 -0.5127 -0.2218
  230SOL    HW1  645   2.684   2.484   1.723 -0.2916 -1.5542  1.0787
  230SOL    HW2  646   2.658   2.646   1.723  2.6293 -1.0052 -0.5222
  231SOL     OW  647   2.785   0.064   3.121 -0.0395 -0.0716 -0.3161
  231SOL    HW1  648   2.721   0.001   3.165 -0.3287  1.1290  1.0734
  231SOL    HW2  649   2.849   0.100   3.189 -0.1710  1.4579 -0.9595
  232SOL     OW  650   2.484   2.458   1.974  0.0432 -0.8022  0.4845
  232SOL    HW1  651   2.500   2.504   2.062 -0.6272  0.4520 -0.0126
  232SOL    HW2  652   2.553   2.487   1.909 -0.2486 -0.6675  0.2313
  233SOL     OW  653   0.428   1.867   3.683  0.0899  0.3965  0.3762
  233SOL    HW1  654   0.476   1.829   3.604  1.7627  1.6556  0.7407
  233SOL    HW2  655   0.330   1.854   3.671  0.3080  0.3602 -1.8062
  234SOL     OW  656   0.974   0.313   2.087  0.1768  0.2117 -0.7319
  234SOL    HW1  657   0.914   0.262   2.024  1.3958  0.3692 -2.0770
  234SOL    HW2  658   1.011   0.393   2.040  0.9499  0.4575  0.2694
  235SOL     OW  659   1.450   0.882   2.853 -0.4629 -0.2666 -0.6512
  235SOL    HW1  660   1.415   0.797   2.814 -0.4978 -0.9940  0.8965
  235SOL    HW2  661   1.547   0.871   2.875 -0.9872 -0.7349  1.6525
  236SOL     OW  662   3.077   2.497   1.080 -0.7738 -0.2136  0.0716
  236SOL    HW1  663   3.149   2.513   1.148 -1.1056 -1.6048  0.7821
  236SOL    HW2  664   3.011   2.572   1.084 -0.0351  0.4429  0.2814
  237SOL     OW  665   2.405   0.027   2.241 -0.5882 -0.2837 -0.4264
  237SOL    HW1  666   2.379  -0.052   2.186 -0.2692 -1.4861  1.0887
  237SOL    HW2  667   2.483   0.072   2.199 -0.3366 -1.1841 -0.9525
  238SOL     OW  668   3.249   0.574   2.283  0.0182  0.1136  0.3509
  238SOL    HW1  669   3.266   0.635   2.205 -1.8312  0.3781  0.1010
  238SOL    HW2  670   3.247   0.479   2.251  0.8070  0.0813  0.3722
  239SOL     OW  671   2.354   2.513   0.738  0.4367  0.2571 -0.0892
  239SOL    HW1  672   2.375   2.473   0.828  1.4182  1.7002  0.3662
  239SOL    HW2  673   2.334   2.611   0.749 -1.2513  0.0733 -1.2445
  240SOL     OW  674   3.547   2.166   1.769  0.0108 -0.2601  0.1368
  240SOL    HW1  675   3.491   2.213   1.701  1.4919  1.7297  0.2265
  240SOL    HW2  676   3.591   2.087   1.727 -2.6303 -1.7996  0.0213
  241SOL     OW  677   2.040   2.774   1.378  0.2439 -0.2055  0.3094
  241SOL    HW1  678   2.035   2.813   1.470 -0.5172 -1.2855  0.7492
  241SOL    HW2  679   2.007   2.841   1.311 -1.8078 -0.3222  1.1361
  242SOL     OW  680   0.960   2.223   0.314 -0.1961  0.1127  0.1317
  242SOL    HW1  681   1.029   2.294   0.325 -1.5027  1.5714 -0.6951
  242SOL    HW2  682   0.902   2.219   0.395 -0.0955 -0.0626  0.1970
  243SOL     OW  683   1.359   2.620   0.033  0.5409  0.5242 -0.4656
  243SOL    HW1  684   1.300   2.658   0.104  2.0198 -0.8718  1.6454
  243SOL    HW2  685   1.318   2.535  -0.001 -0.2745  1.3028 -1.5170
  244SOL     OW  686   1.407   3.111   3.517 -0.2055 -0.0797  0.3988
  244SOL    HW1  687   1.481   3.166   3.478 -0.4489 -0.7382 -1.0583
  244SOL    HW2  688   1.444   3.048   3.585  0.8738 -1.4287 -1.3429
  245SOL     OW  689   0.090   2.287   2.897  0.3867  0.6156 -0.1157
  245SOL    HW1  690   0.082   2.219   2.824 -0.0639  0.1817  0.3270
  245SOL    HW2  691   0.133   2.370   2.861  1.8331 -0.2433 -0.4403
  246SOL     OW  692   0.393   0.439   2.048  0.0841 -0.6916 -0.1227
  246SOL    HW1  693   0.319   0.419   1.984 -0.0825 -1.9036  0.4196
  246SOL    HW2  694   0.373   0.523   2.098  0.2843  0.3553 -1.7323
  247SOL     OW  695   0.213   2.823   2.533 -0.0582  0.2650 -0.2093
  247SOL    HW1  696   0.156   2.813   2.615  0.9366 -0.4533  0.4139
  247SOL    HW2  697   0.303   2.857   2.559  0.3277 -0.1319 -0.9819
  248SOL     OW  698   3.527   2.430   0.847 -0.0754 -0.1551 -0.5240
  248SOL    HW1  699   3.468   2.368   0.795  1.0663 -0.1335 -1.9167
  248SOL    HW2  700   3.592   2.473   0.784 -2.0529  3.9938 -0.0613
  249SOL     OW  701   0.012   2.714   1.736 -0.1867 -0.1653 -0.1381
  249SOL    HW1  702   0.014   2.615   1.725  0.7270 -0.1910  0.1609
  249SOL    HW2  703   0.051   2.758   1.655  0.0349 -0.0800  0.0137
  250SOL     OW  704   1.711   1.601   2.170 -0.2449 -0.0371 -0.0857
  250SOL    HW1  705   1.757   1.523   2.127  0.1851  0.0181  0.2586
  250SOL    HW2  706   1.678   1.574   2.260  0.2104  0.2668  0.1791
  251SOL     OW  707   1.787   1.840   1.730 -0.0879  0.2388  0.4016
  251SOL    HW1  708   1.713   1.803   1.673 -0.3626 -0.2542  1.0567
  251SOL    HW2  709   1.814   1.771   1.797  1.6689  0.0466 -0.4613
  252SOL     OW  710   1.095   3.611   0.391  0.5756 -0.0749  0.0363
  252SOL    HW1  711   1.032   3.624   0.315  1.2155  1.6599 -0.2453
  252SOL    HW2  712   1.049   3.636   0.476 -0.0750 -1.8224  0.2394
  253SOL     OW  713   3.671   1.817   0.579 -0.5605  0.3103 -0.2344
  253SOL    HW1  714   3.679   1.883   0.504  1.1065 -1.1319 -1.4148
  253SOL    HW2  715   3.716   1.731   0.553 -2.3415 -1.2133  1.3670
  254SOL     OW  716   1.305   3.350   2.825  0.4672 -0.3047  0.2611
  254SOL    HW1  717   1.255   3.401   2.755  0.5736  0.8400  0.9879
  254SOL    HW2  718   1.267   3.258   2.834 -1.5905  0.5480  0.8338
  255SOL     OW  719   0.827   2.185   0.562  0.3921 -0.0780  0.3629
  255SOL    HW1  720   0.771   2.119   0.612 -1.6758  0.8633 -0.6171
  255SOL    HW2  721   0.825   2.273   0.610  0.9345  0.0140  0.2266
  256SOL     OW  722   3.480   2.520   0.487 -0.5201  0.5535 -0.2104
  256SOL    HW1  723   3.467   2.601   0.430 -0.1754  2.8911  2.7946
  256SOL    HW2  724   3.393   2.472   0.496 -0.6553  0.2918 -2.3110
  257SOL     OW  725   2.286   1.871   1.241 -0.1275 -0.4851  1.0058
  257SOL    HW1  726   2.204   1.923   1.266  0.2391 -0.1596  1.5454
  257SOL    HW2  727   2.347   1.864   1.320  0.2334 -0.9781  0.6910
  258SOL     OW  728   3.308   2.803   1.826  0.3782  0.2499  0.3500
  258SOL    HW1  729   3.396   2.755   1.820  1.1165  1.5754  0.1079
  258SOL    HW2  730   3.240   2.743   1.869  2.2620  0.3288  3.7947
  259SOL     OW  731   1.209   0.488   0.872 -0.3048 -0.3390  0.0751
  259SOL    HW1  732   1.151   0.568   0.889 -0.5727  0.0870 -2.4303
  259SOL    HW2  733   1.290   0.493   0.930  0.1603  2.3117 -0.6678
  260SOL     OW  734   3.698   2.036   0.420 -0.1968  0.1276  0.5447
  260SOL    HW1  735   3.646   2.116   0.449 -1.0637 -0.5606  0.9239
  260SOL    HW2  736   3.730   2.050   0.326 -0.0367  1.0539  0.7264
  261SOL     OW  737   0.996   2.478   2.743 -0.0790 -0.4864  0.4412
  261SOL    HW1  738   0.964   2.425   2.822 -0.1872 -0.0611  0.6855
  261SOL    HW2  739   1.003   2.574   2.768  3.3697 -0.7596  1.0845
  262SOL     OW  740   2.321   1.677   2.169 -0.3760  0.2097  0.2497
  262SOL    HW1  741   2.269   1.760   2.147 -0.5668 -0.0890 -0.4627
  262SOL    HW2  742   2.259   1.599   2.173  0.1567 -0.3779 -1.9005
  263SOL     OW  743   1.837   1.102   1.661  0.5208 -0.4188 -0.5930
  263SOL    HW1  744   1.776   1.114   1.583  1.1584 -0.2406 -1.0753
  263SOL    HW2  745   1.880   1.012   1.657  0.3057 -0.5384 -0.2638
  264SOL     OW  746   0.775   3.640   0.138  0.0042 -0.3690 -0.5478
  264SOL    HW1  747   0.698   3.695   0.107  0.0441  0.5094  0.8270
  264SOL    HW2  748   0.784   3.647   0.237  2.9274  1.0603 -0.7939
  265SOL     OW  749   1.460   3.666   1.293 -0.0652  0.0868  0.2934
  265SOL    HW1  750   1.447   3.650   1.391 -1.1734 -1.2224 -0.0466
  265SOL    HW2  751   1.407   3.599   1.240 -1.6613  2.3690 -1.2210
  266SOL     OW  752   0.676   0.157   3.408  0.5005  0.4426  0.1291
  266SOL    HW1  753   0.590   0.114   3.382  0.6273  0.5883 -0.5414
  266SOL    HW2  754   0.745   0.137   3.339  0.9729  0.4439  0.5903
  267SOL     OW  755   2.464   0.408   2.947  0.6947 -0.1964 -0.0798
  267SOL    HW1  756   2.395   0.401   2.876 -1.4978  2.0148  1.6648
  267SOL    HW2  757   2.524   0.486   2.929  0.6801 -0.1502  0.0705
  268SOL     OW  758   1.598   1.746   2.584 -0.1665 -0.2525  0.5715
  268SOL    HW1  759   1.513   1.751   2.635  1.1714 -0.7258  2.9707
  268SOL    HW2  760   1.629   1.838   2.561 -0.5415  0.0005  1.0669
  269SOL     OW  761   3.344   2.288   0.711  0.1610  0.4770 -1.0502
  269SOL    HW1  762   3.313   2.311   0.619  0.1754 -0.0968 -1.2035
  269SOL    HW2  763   3.383   2.196   0.711 -0.9105 -0.0058 -0.2404
  270SOL     OW  764   0.886   1.031   0.825 -0.1941  0.5708  0.6437
  270SOL    HW1  765   0.868   0.933   0.830 -1.8838  0.4653 -3.5300
  270SOL    HW2  766   0.981   1.047   0.799  0.1015  0.0597  1.3987
  271SOL     OW  767   2.906   1.790   2.677 -0.5547 -0.6579 -0.3540
  271SOL    HW1  768   2.886   1.798   2.775  1.2688 -1.7024  0.1545
  271SOL    HW2  769   2.904   1.694   2.651  1.6431 -0.6706 -0.6723
  272SOL     OW  770   3.243   2.379   1.904 -0.5395  0.0723  0.0193
  272SOL    HW1  771   3.204   2.319   1.833 -0.4950  0.9239 -0.7432
  272SOL    HW2  772   3.267   2.324   1.984 -0.1944 -0.9790 -0.7809
  273SOL     OW  773   0.827   1.350   3.471  0.3297  0.1029 -0.1882
  273SOL    HW1  774   0.783   1.347   3.382  0.3963 -2.4725 -0.2022
  273SOL    HW2  775   0.926   1.361   3.459  0.1331  2.2034 -0.2804
  274SOL     OW  776   3.574   1.071   0.465 -0.3869  0.3080  0.4367
  274SOL    HW1  777   3.550   1.101   0.557 -1.0564 -0.3742  0.4889
  274SOL    HW2  778   3.535   0.981   0.448  1.6378 -0.5996  0.3148
  275SOL     OW  779   3.146   1.913   3.418 -0.2130 -0.0855  0.3024
  275SOL    HW1  780   3.110   1.861   3.496 -0.3452 -1.9884 -0.9713
  275SOL    HW2  781   3.176   1.850   3.347 -2.6888  1.5727 -2.4018
  276SOL     OW  782   0.971   3.147   2.498  0.2425 -0.6154  0.1067
  276SOL    HW1  783   1.000   3.221   2.438  0.0372 -1.3516 -0.9166
  276SOL    HW2  784   1.024   3.151   2.583  0.3482  0.5902  0.0103
  277SOL     OW  785   1.944   2.795   3.596  0.7864  0.8345  0.4926
  277SOL    HW1  786   1.967   2.875   3.651 -0.9751  1.5806  0.2070
  277SOL    HW2  787   2.027   2.759   3.553  1.8516  1.5346  1.8750
  278SOL     OW  788   1.786   2.568   1.635 -0.0906 -0.0241 -0.2563
  278SOL    HW1  789   1.792   2.548   1.733 -2.4804 -3.4269 -0.6468
  278SOL    HW2  790   1.753   2.661   1.622 -1.5794 -0.1161  2.2505
  279SOL     OW  791   0.075   0.343   3.076  0.0455  0.6019  0.2101
  279SOL    HW1  792   0.079   0.315   3.172  0.7612  2.0261  0.6291
  279SOL    HW2  793   0.005   0.290   3.028 -0.0465 -0.4060  1.4193
  280SOL     OW  794   1.137   3.092   2.751 -0.0927 -0.2997 -0.0825
  280SOL    HW1  795   1.227   3.059   2.723  0.7937  0.7520  1.3871
  280SOL    HW2  796   1.112   3.048   2.838  0.3527  1.5558  1.0311
  281SOL     OW  797   1.731   2.026   3.547  0.2476  0.0895 -0.1205
  281SOL    HW1  798   1.749   2.093   3.474  2.0657  0.7972  0.9220
  281SOL    HW2  799   1.791   1.947   3.535  0.3323  0.0710  0.4286
  282SOL     OW  800   3.069   0.774   2.319  0.1613 -0.0229 -0.3017
  282SOL    HW1  801   3.143   0.707   2.321  0.0741 -0.1903 -1.6731
  282SOL    HW2  802   3.107   0.864   2.297  0.0392  0.0124 -0.3674
  283SOL     OW  803   2.739   1.526   3.007 -0.1752 -0.0429 -0.3293
  283SOL    HW1  804   2.785   1.612   2.990 -1.6903  1.0074  0.5922
  283SOL    HW2  805   2.729   1.475   2.921 -1.0059  1.6230 -1.2717
  284SOL     OW  806   3.148   3.068   1.464  0.3406  0.0406  0.0534
  284SOL    HW1  807   3.236   3.113   1.483 -0.5627  1.1575  1.9774
  284SOL    HW2  808   3.129   3.001   1.536  0.9646 -2.4899 -1.9804
  285SOL     OW  809   0.575   0.137   0.865  0.3809  0.6469 -0.1874
  285SOL    HW1  810   0.488   0.154   0.819 -0.6700  0.9294  1.7780
  285SOL    HW2  811   0.628   0.222   0.870  0.2803  0.7235 -0.4402
  286SOL     OW  812   2.126   1.226   0.175 -0.0260 -0.2201 -0.2998
  286SOL    HW1  813   2.161   1.183   0.258 -0.0310  1.7309  0.7919
  286SOL    HW2  814   2.199   1.280   0.132 -0.5716  0.4774 -0.3670
  287SOL     OW  815   2.365   1.200   3.149 -0.0558 -1.1550  0.3136
  287SOL    HW1  816   2.275   1.237   3.173 -0.3082 -0.9196 -0.9089
  287SOL    HW2  817   2.436   1.261   3.185 -0.4523  0.0536 -0.8689
  288SOL     OW  818   1.869   1.623   1.894  0.0373  0.3204  0.2363
  288SOL    HW1  819   1.914   1.567   1.964  0.9664 -0.9686 -1.2921
  288SOL    HW2  820   1.771   1.630   1.914  0.2614 -0.1280  1.5800
  289SOL     OW  821   2.054   0.386   0.898 -0.0336 -0.0547  0.0327
  289SOL    HW1  822   2.041   0.289   0.881  1.5079 -0.3402  0.3184
  289SOL    HW2  823   1.972   0.436   0.870 -0.1099 -1.2012 -2.0321
  290SOL     OW  824   2.995   1.920   0.184 -0.3653  0.2738  0.1198
  290SOL    HW1  825   3.060   1.986   0.220  0.9815 -1.1893  0.4555
  290SOL    HW2  826   2.982   1.846   0.250 -1.9219  0.2121 -0.2022
  291SOL     OW  827   0.671   1.020   0.674  0.2310  0.2126  0.5689
  291SOL    HW1  828   0.694   1.045   0.580  1.6838 -1.0757  0.5291
  291SOL    HW2  829   0.749   1.039   0.734  0.4295 -1.6619  0.9724
  292SOL     OW  830   0.695   1.536   1.274  0.2529  0.2932 -0.1025
  292SOL    HW1  831   0.714   1.495   1.185  0.5077 -0.8835  0.4710
  292SOL    HW2  832   0.723   1.632   1.274  1.5499 -0.0674 -0.8447
  293SOL     OW  833   1.686   2.395   3.602  0.3484 -0.1592  0.4401
  293SOL    HW1  834   1.658   2.367   3.694  0.9231  0.1087  0.7052
  293SOL    HW2  835   1.753   2.469   3.609  0.3609 -0.1019 -0.1986
  294SOL     OW  836   1.558   1.378   0.243 -0.0577  0.2724 -0.2244
  294SOL    HW1  837   1.568   1.317   0.164  0.6002  1.0537 -0.7636
  294SOL    HW2  838   1.461   1.384   0.268 -0.1243 -1.0448 -0.1063
  295SOL     OW  839   0.803   0.641   0.392 -0.1454  0.0677 -0.4944
  295SOL    HW1  840   0.728   0.703   0.415  0.2530  0.1194  0.7398
  295SOL    HW2  841   0.786   0.600   0.303 -1.4695  0.3305 -0.3795
  296SOL     OW  842   2.113   1.632   1.762 -0.1437  0.3381  0.2559
  296SOL    HW1  843   2.032   1.620   1.819  0.7813  1.3900  1.8816
  296SOL    HW2  844   2.133   1.547   1.714 -0.2916 -1.0373  2.4592
  297SOL     OW  845   0.067   1.275   1.477  0.2598 -0.0523  0.0627
  297SOL    HW1  846   0.149   1.285   1.533  0.1748 -0.8936  0.3436
  297SOL    HW2  847  -0.000   1.219   1.526 -1.4396  2.5049  0.8935
  298SOL     OW  848  -0.008   0.032   2.281  0.3925  0.1218 -0.2563
  298SOL    HW1  849  -0.012  -0.057   2.237  2.5212  0.3412 -1.0327
  298SOL    HW2  850   0.067   0.033   2.348 -0.3010  0.9955  0.5325
  299SOL     OW  851   3.320   1.425   3.218  0.3219  0.1636  0.4987
  299SOL    HW1  852   3.363   1.442   3.129  0.8235 -1.2192  0.4426
  299SOL    HW2  853   3.363   1.345   3.260 -0.8659 -0.0486  1.3564
  300SOL     OW  854   1.319   3.009   1.189  0.0686 -0.1932 -0.0360
  300SOL    HW1  855   1.288   3.029   1.096 -2.4228  0.8629  0.9468
  300SOL    HW2  856   1.394   3.070   1.213  0.4916 -0.2321 -1.1859
  301SOL     OW  857   0.703   2.279   1.235 -0.1460  0.3426  0.3549
  301SOL    HW1  858   0.627   2.309   1.293 -0.3051  2.7013 -0.9325
  301SOL    HW2  859   0.789   2.307   1.277  0.1932 -2.9558  2.1733
  302SOL     OW  860   2.602   3.147   1.885 -0.2898  0.1742  0.8471
  302SOL    HW1  861   2.679   3.118   1.830 -1.3537 -1.7317  0.2715
  302SOL    HW2  862   2.624   3.137   1.982 -0.2124 -1.5389  0.6725
  303SOL     OW  863   1.271   0.381   1.810  0.1641 -0.6350 -0.8624
  303SOL    HW1  864   1.286   0.293   1.854 -0.8516 -0.4407 -0.0824
  303SOL    HW2  865   1.183   0.418   1.839  2.9931  3.5798  3.9643
  304SOL     OW  866   2.736   0.877   3.494 -0.0253  0.2877 -0.2453
  304SOL    HW1  867   2.702   0.795   3.539 -1.0702  0.2977 -0.9765
  304SOL    HW2  868   2.672   0.904   3.422  0.9337  1.0288 -0.8394
  305SOL     OW  869   0.471   3.027   0.643  0.7865  0.3524 -0.1751
  305SOL    HW1  870   0.417   2.980   0.572 -0.1494 -0.7550  1.2130
  305SOL    HW2  871   0.533   3.091   0.599 -0.9767  0.9999 -1.9199
  306SOL     OW  872   0.135   0.826   2.247  0.5641  0.4474  0.4723
  306SOL    HW1  873   0.048   0.821   2.296  0.3489 -1.0442 -0.0205
  306SOL    HW2  874   0.121   0.802   2.151  0.5417  5.4593 -1.0900
  307SOL     OW  875   2.998   1.130   0.762 -0.2804 -0.1375 -0.1127
  307SOL    HW1  876   3.077   1.070   0.773  0.0963  0.6834  1.9950
  307SOL    HW2  877   3.029   1.225   0.758 -1.0977  0.1331 -0.1529
  308SOL     OW  878   1.845   3.214   0.596 -0.0782 -0.0069 -0.1774
  308SOL    HW1  879   1.861   3.208   0.695 -0.5737 -0.7651 -0.1364
  308SOL    HW2  880   1.815   3.125   0.562 -2.7335  0.9372 -0.5045
  309SOL     OW  881   1.192   2.146   1.893 -0.1538 -0.0129  0.4333
  309SOL    HW1  882   1.143   2.234   1.895 -1.5924 -0.7841  1.3890
  309SOL    HW2  883   1.233   2.133   1.803 -1.8278  0.6616 -0.4892
  310SOL     OW  884   2.839   0.975   0.897  0.5427  0.2128  0.2132
  310SOL    HW1  885   2.789   1.024   0.968  2.8424  1.2963  1.2170
  310SOL    HW2  886   2.887   1.041   0.839 -0.0545 -0.7199 -1.3990
  311SOL     OW  887   2.807   0.233   3.476 -0.0452  0.0417 -0.0770
  311SOL    HW1  888   2.882   0.192   3.424  0.6901  0.7836  0.3724
  311SOL    HW2  889   2.795   0.328   3.449  1.5536  1.0166  2.2871
  312SOL     OW  890   0.039   3.027   1.158  0.3848 -0.3296  0.1957
  312SOL    HW1  891  -0.016   2.950   1.191  0.5592  0.5734  2.8742
  312SOL    HW2  892   0.016   3.047   1.063 -1.5291 -2.0364  0.2346
  313SOL     OW  893   1.239   3.378   0.698 -0.7913  0.3205 -0.1493
  313SOL    HW1  894   1.200   3.286   0.707 -1.6204  0.6723 -0.0659
  313SOL    HW2  895   1.178   3.445   0.742  1.3614  0.5664  2.7361
  314SOL     OW  896   1.155   2.706   0.172  0.2215 -0.4158 -0.4616
  314SOL    HW1  897   1.088   2.739   0.105  0.1956 -0.3760 -0.4160
  314SOL    HW2  898   1.121   2.724   0.265 -0.9714 -2.7771 -0.3631
  315SOL     OW  899   0.278   0.875   1.843  0.5266  0.5217 -0.0875
  315SOL    HW1  900   0.361   0.821   1.852  0.2602 -0.3239 -2.3254
  315SOL    HW2  901   0.202   0.827   1.887  0.4527 -0.5746 -1.3790
  316SOL     OW  902   3.273   2.201   2.144 -0.4938 -0.4592  0.4970
  316SOL    HW1  903   3.306   2.128   2.204  3.2585  0.4927 -0.1388
  316SOL    HW2  904   3.199   2.250   2.190  0.7124 -1.1549  3.4348
  317SOL     OW  905   3.444   3.440   0.762 -0.6446 -0.4653  0.3228
  317SOL    HW1  906   3.489   3.429   0.673  1.2888 -1.5996  1.3870
  317SOL    HW2  907   3.351   3.404   0.757 -0.1926 -1.5225 -0.9455
  318SOL     OW  908   3.516   3.499   2.841 -0.2065  0.0386  0.2557
  318SOL    HW1  909   3.470   3.586   2.825 -0.5136  0.0614  1.2154
  318SOL    HW2  910   3.614   3.515   2.855 -0.2439  0.2172  0.3192
  319SOL     OW  911   1.752   1.469   0.926  0.4482  0.2690 -0.4878
  319SOL    HW1  912   1.718   1.498   1.016 -1.4846  0.6927 -1.3113
  319SOL    HW2  913   1.827   1.529   0.898  2.2647 -0.9124  1.5433
  320SOL     OW  914   3.266   1.162   3.302 -0.6206  0.0375 -0.3142
  320SOL    HW1  915   3.170   1.182   3.322 -0.9815 -2.1948  0.5887
  320SOL    HW2  916   3.316   1.152   3.389 -0.1261 -1.0582 -0.7037
  321SOL     OW  917   3.461   0.526   1.324  0.0490  0.2196 -0.7536
  321SOL    HW1  918   3.503   0.614   1.305  0.2865  0.3638  0.3430
  321SOL    HW2  919   3.402   0.534   1.405  0.5064 -0.7426 -0.3025
  322SOL     OW  920   0.695   0.303   0.445  0.0636  0.6100  0.0272
  322SOL    HW1  921   0.750   0.274   0.367 -0.8363 -0.4956 -0.2135
  322SOL    HW2  922   0.647   0.388   0.422 -1.6359 -0.6576 -1.3449
  323SOL     OW  923   2.925   1.314   1.008 -0.3361 -0.4447 -0.5303
  323SOL    HW1  924   2.855   1.314   0.937 -0.8469 -1.8797 -0.0536
  323SOL    HW2  925   2.941   1.220   1.039 -1.5358  0.2790  2.6243
  324SOL     OW  926   0.507   3.008   0.245  0.4944 -0.4623  0.3521
  324SOL    HW1  927   0.589   3.047   0.286  0.4896 -0.2220  0.1395
  324SOL    HW2  928   0.470   2.937   0.304  1.5932 -1.4918 -0.1390
  325SOL     OW  929   1.044   1.890   2.451  0.2132 -0.3642 -0.0744
  325SOL    HW1  930   1.038   1.970   2.511  0.8612  0.3500 -0.9391
  325SOL    HW2  931   1.062   1.809   2.507 -0.5307  0.0647  0.8216
  326SOL     OW  932   2.197   3.173   1.052  0.1830 -0.0780  0.5347
  326SOL    HW1  933   2.105   3.199   1.023  0.6704 -0.6669 -1.7444
  326SOL    HW2  934   2.261   3.190   0.977  2.0823  0.9615  2.2992
  327SOL     OW  935   3.156   3.090   0.408  0.0401  0.4546 -0.0544
  327SOL    HW1  936   3.220   3.151   0.454 -0.2647  0.8807 -0.1911
  327SOL    HW2  937   3.063   3.120   0.426 -0.0784  1.1282 -1.6144
  328SOL     OW  938   0.061   2.799   1.476 -0.2311  0.1903 -0.0302
  328SOL    HW1  939   0.144   2.850   1.455 -0.0298  0.2401  0.8462
  328SOL    HW2  940   0.060   2.713   1.425 -1.3434  1.7263 -2.8094
  329SOL     OW  941   2.983   3.397   0.535 -0.1472  0.0170 -0.0312
  329SOL    HW1  942   3.068   3.445   0.514  0.6724 -0.0784  2.6701
  329SOL    HW2  943   2.964   3.406   0.633 -2.1959 -1.6805 -0.2163
  330SOL     OW  944   1.066   1.416   0.613 -0.7029 -0.1713  0.5287
  330SOL    HW1  945   1.159   1.385   0.593 -1.8681 -2.6861 -1.6309
  330SOL    HW2  946   1.007   1.336   0.629 -2.6738  1.3040  1.0384
  331SOL     OW  947   1.040   2.004   3.562 -0.5177 -0.4664 -0.3799
  331SOL    HW1  948   1.122   1.986   3.615  1.2165 -0.8436 -3.0265
  331SOL    HW2  949   1.006   1.918   3.524  0.1269  0.1337 -2.3910
  332SOL     OW  950   1.888   1.956   0.256 -0.0679  0.1393  0.1415
  332SOL    HW1  951   1.826   1.994   0.188  0.9222  0.4211 -0.6179
  332SOL    HW2  952   1.932   2.030   0.306  0.0278 -0.0580  0.3546
  333SOL     OW  953   0.431   2.788   3.359 -0.7729 -0.2518 -0.3174
  333SOL    HW1  954   0.352   2.808   3.302 -0.6877  0.5705 -0.1687
  333SOL    HW2  955   0.407   2.801   3.455 -0.1901  1.0470 -0.3246
  334SOL     OW  956   1.315   0.717   0.191 -0.3112 -0.4845  0.5206
  334SOL    HW1  957   1.334   0.651   0.119  0.4380 -0.1398  0.3881
  334SOL    HW2  958   1.240   0.777   0.163  0.8315  0.4981 -0.5632
  335SOL     OW  959   1.692   2.421   1.140  0.1173  0.7567  0.4772
  335SOL    HW1  960   1.753   2.388   1.068 -0.0523 -0.5677  0.9216
  335SOL    HW2  961   1.743   2.484   1.199  0.8325  0.3088  0.3585
  336SOL     OW  962   2.108   0.877   0.220 -0.3317 -0.0761  0.0786
  336SOL    HW1  963   2.139   0.946   0.285  1.6532 -1.7128  0.9902
  336SOL    HW2  964   2.168   0.877   0.140 -1.7763  0.8177 -1.0551
  337SOL     OW  965   2.732   2.830   1.698  0.1065  0.2032 -0.5831
  337SOL    HW1  966   2.781   2.917   1.706  0.6545 -0.1879  0.4506
  337SOL    HW2  967   2.647   2.844   1.648 -0.3135  1.5402  0.4704
  338SOL     OW  968   3.292   0.720   2.068  0.0989  0.2982  0.2344
  338SOL    HW1  969   3.247   0.800   2.027 -0.4043 -0.4912 -0.8058
  338SOL    HW2  970   3.389   0.721   2.044  0.6537  1.8630  2.2575
  339SOL     OW  971   2.374   0.693   1.430  0.0181 -0.0029 -0.1732
  339SOL    HW1  972   2.359   0.753   1.509  0.4105  0.8400 -0.7237
  339SOL    HW2  973   2.471   0.669   1.425  0.3673  1.4952 -1.4510
  340SOL     OW  974   2.577   0.763   1.875  0.6182 -0.0975  0.0602
  340SOL    HW1  975   2.541   0.856   1.865 -1.5084 -0.6660  1.6294
  340SOL    HW2  976   2.558   0.730   1.968 -0.7502 -2.8819 -1.0887
  341SOL     OW  977   3.169   0.141   1.078  0.2711 -0.4337 -0.0660
  341SOL    HW1  978   3.250   0.199   1.077 -0.8747  1.2423 -0.1532
  341SOL    HW2  979   3.181   0.066   1.013  1.3085  0.3980 -0.8700
  342SOL     OW  980   0.120   0.110   2.725  0.1300 -0.0798 -0.0449
  342SOL    HW1  981   0.209   0.112   2.771 -1.3513 -1.4052  3.2404
  342SOL    HW2  982   0.101   0.199   2.685  2.8257  0.2688 -0.7476
  343SOL     OW  983   3.352   2.392   0.013 -0.5113  0.2741 -0.2275
  343SOL    HW1  984   3.360   2.351   0.104 -4.0989  1.1394  0.6435
  343SOL    HW2  985   3.371   2.323  -0.056 -1.9048 -1.6622  1.2049
  344SOL     OW  986   1.015   2.782   2.693  0.4463 -0.9205  0.0927
  344SOL    HW1  987   0.959   2.813   2.616  0.5286 -4.0674 -1.3516
  344SOL    HW2  988   1.109   2.767   2.662  0.9129 -0.5821  1.2807
  345SOL     OW  989   1.880   0.249   2.400  0.0375  0.6581 -0.1703
  345SOL    HW1  990   1.934   0.320   2.444  0.4088  0.5042 -0.3720
  345SOL    HW2  991   1.853   0.279   2.308  1.9383 -0.2464 -1.0792
  346SOL     OW  992   1.626   2.389   2.848  0.7486  0.3348  0.2788
  346SOL    HW1  993   1.593   2.405   2.942 -0.3717  1.2303 -0.2403
  346SOL    HW2  994   1.550   2.398   2.784  1.2828 -1.3749 -0.6425
  347SOL     OW  995   1.161  -0.017   1.090 -0.6833  0.5689 -0.1867
  347SOL    HW1  996   1.231   0.053   1.104 -1.7902  1.8759 -0.9314
  347SOL    HW2  997   1.071   0.023   1.105 -1.4893 -0.0736 -2.7586
  348SOL     OW  998   1.982   0.788   2.845  0.8758  0.1830 -0.2715
  348SOL    HW1  999   1.931   0.713   2.802 -1.4716  1.9080 -0.7336
  348SOL    HW2 1000   2.032   0.753   2.924 -1.3030 -1.6523  0.4174
  349SOL     OW 1001   0.721   0.498   1.494  0.1077  0.2018  0.2368
  349SOL    HW1 1002   0.735   0.558   1.415  0.3309 -0.1216  0.0258
  349SOL    HW2 1003   0.689   0.409   1.463  1.1669 -0.2552  0.4202
  350SOL     OW 1004   1.300   2.008   0.438 -0.4236  0.1454 -0.2630
  350SOL    HW1 1005   1.376   1.978   0.496 -0.6018 -0.0704 -0.1422
  350SOL    HW2 1006   1.214   2.000   0.489 -0.2580  3.3623  0.7848
  351SOL     OW 1007   3.118   1.774   1.191  0.5475 -0.0645  0.3560
  351SOL    HW1 1008   3.097   1.682   1.157 -1.1618  0.3972  0.0208
  351SOL    HW2 1009   3.073   1.842   1.132  1.5059  0.9689  0.7900
  352SOL     OW 1010   0.312   0.182   2.188  0.5564  0.1349  0.9347
  352SOL    HW1 1011   0.271   0.245   2.255  0.1588  0.6029  0.2582
  352SOL    HW2 1012   0.398   0.221   2.154  0.7860 -0.1285  1.2052
  353SOL     OW 1013   2.992   0.142   3.291 -0.2014  0.2776  0.0920
  353SOL    HW1 1014   3.053   0.193   3.230  0.6372 -0.1714  0.5454
  353SOL    HW2 1015   3.023   0.048   3.299 -1.3113 -0.1182 -0.1417
  354SOL     OW 1016   2.683   0.624   3.229  0.3872  0.6672  0.5100
  354SOL    HW1 1017   2.737   0.589   3.305  0.4815  0.4961  0.3662
  354SOL    HW2 1018   2.678   0.724   3.234  0.9449  0.7038  0.3748
  355SOL     OW 1019   0.863   0.572   3.163  0.1042  0.2410  0.1395
  355SOL    HW1 1020   0.781   0.515   3.155 -0.5738  1.2641 -0.3645
  355SOL    HW2 1021   0.944   0.515   3.148 -0.5392 -0.6390 -0.0966
  356SOL     OW 1022   3.570   2.523   2.134  0.9480 -0.1577 -0.7585
  356SOL    HW1 1023   3.637   2.449   2.138 -0.4595 -1.5233 -1.3741
  356SOL    HW2 1024   3.517   2.526   2.219  1.7868  0.9545 -0.2501
  357SOL     OW 1025   3.099   2.407   0.256 -0.1474  0.1337 -0.5976
  357SOL    HW1 1026   3.004   2.381   0.275 -0.1202  1.0077  0.9478
  357SOL    HW2 1027   3.105   2.448   0.165 -1.3257  0.4293 -0.5586
  358SOL     OW 1028   0.368   1.580   3.147 -1.0128  0.1293 -0.0796
  358SOL    HW1 1029   0.453   1.631   3.133 -1.4423  1.4202  1.6018
  358SOL    HW2 1030   0.389   1.482   3.154  0.5971  0.5154  1.6781
  359SOL     OW 1031   1.407   1.473   1.923  0.3800  0.6454  0.0226
  359SOL    HW1 1032   1.374   1.457   1.830  2.0897  1.0449 -0.6946
  359SOL    HW2 1033   1.342   1.434   1.988 -1.3396  1.1947 -1.2778
  360SOL     OW 1034   2.083   0.868   0.574  0.0798 -0.2371  0.0137
  360SOL    HW1 1035   2.120   0.927   0.502  1.2018  0.1705  0.8909
  360SOL    HW2 1036   2.070   0.922   0.657 -0.0069 -0.9672  0.4758
  361SOL     OW 1037   0.771   1.863   2.340  0.0940 -0.2439 -0.4566
  361SOL    HW1 1038   0.869   1.863   2.362  0.3968  0.1630 -1.7134
  361SOL    HW2 1039   0.753   1.796   2.268 -0.0572  1.5630 -2.1726
  362SOL     OW 1040   3.432   1.412   2.150 -0.1814  0.2905 -0.0168
  362SOL    HW1 1041   3.446   1.365   2.238 -1.7436 -1.0068 -0.4188
  362SOL    HW2 1042   3.519   1.413   2.100  0.2519 -0.8663  0.6506
  363SOL     OW 1043   1.047   1.935   3.197 -0.0853  0.0282  0.0315
  363SOL    HW1 1044   1.141   1.906   3.215  0.1287 -2.5587 -3.8990
  363SOL    HW2 1045   1.049   2.024   3.151  0.6127 -0.4419 -0.9041
  364SOL     OW 1046   1.396   1.075   1.816  0.3090  0.4751 -0.2203
  364SOL    HW1 1047   1.378   1.005   1.747  1.8322  1.4789 -1.7056
  364SOL    HW2 1048   1.492   1.102   1.813 -0.4328  3.4294 -0.5213
  365SOL     OW 1049   3.467   1.503   0.379  0.5278 -0.3265  0.0565
  365SOL    HW1 1050   3.423   1.572   0.322 -1.2046 -2.4128 -1.3290
  365SOL    HW2 1051   3.482   1.540   0.471  0.0819  1.9782 -0.7386
  366SOL     OW 1052   3.362   0.285   0.643  0.7889 -0.5661  0.1549
  366SOL    HW1 1053   3.319   0.350   0.580 -1.2526 -1.4445  0.5601
  366SOL    HW2 1054   3.447   0.324   0.679  0.0788  1.4999 -0.2902
  367SOL     OW 1055   0.690   1.365   3.239  0.1377  0.7506  0.3719
  367SOL    HW1 1056   0.736   1.312   3.167 -0.1710  2.0061 -0.8069
  367SOL    HW2 1057   0.592   1.347   3.237  0.1687  0.5374  0.7088
  368SOL     OW 1058   0.297   0.521   0.744  0.2418  0.1631 -0.3220
  368SOL    HW1 1059   0.243   0.604   0.752  0.2865  0.2099 -0.5019
  368SOL    HW2 1060   0.324   0.507   0.649 -1.7414 -1.3177 -0.7442
  369SOL     OW 1061   0.540   1.193   1.584 -0.5904  0.2547 -0.1291
  369SOL    HW1 1062   0.486   1.166   1.505  0.8804 -2.1690 -0.4005
  369SOL    HW2 1063   0.634   1.162   1.573 -0.3413 -0.2478  2.5676
  370SOL     OW 1064   1.760   2.060   1.867  0.3055 -0.3735  0.2578
  370SOL    HW1 1065   1.770   1.973   1.818  1.3443  1.0637 -2.2934
  370SOL    HW2 1066   1.663   2.080   1.880  0.0276 -2.5919  2.3656
  371SOL     OW 1067   2.696   0.232   1.745  0.9457 -0.2315 -0.0538
  371SOL    HW1 1068   2.762   0.224   1.670  0.3719 -1.0099 -0.4899
  371SOL    HW2 1069   2.735   0.192   1.828  1.1299 -0.4359 -0.2396
  372SOL     OW 1070   1.198   1.817   1.480 -0.0637  0.3996  0.0409
  372SOL    HW1 1071   1.108   1.775   1.474  0.7968 -1.5301 -0.2063
  372SOL    HW2 1072   1.246   1.806   1.392  0.5279  1.1401  0.2572
  373SOL     OW 1073   2.018   2.975   0.037  0.0002 -0.2903 -0.3271
  373SOL    HW1 1074   2.065   2.922   0.107 -0.6090 -2.1709 -1.2738
  373SOL    HW2 1075   1.965   3.048   0.081  2.1181  0.6071  0.8865
  374SOL     OW 1076   1.678   0.216   0.314 -0.4037 -0.5777  0.1611
  374SOL    HW1 1077   1.766   0.263   0.312 -0.1882 -0.9579  0.5360
  374SOL    HW2 1078   1.629   0.239   0.399 -0.9446  0.1299 -0.3341
  375SOL     OW 1079   0.264   0.626   1.429  0.4447  0.9645  0.0861
  375SOL    HW1 1080   0.348   0.680   1.428  0.8160  0.3977 -0.3605
  375SOL    HW2 1081   0.249   0.586   1.338 -0.3388  1.1013  0.1486
  376SOL     OW 1082   0.921   3.326   1.953 -0.2873 -0.2939  0.1498
  376SOL    HW1 1083   0.855   3.395   1.923  1.3047  1.6412  0.8498
  376SOL    HW2 1084   1.000   3.327   1.892  0.4452 -0.3617  1.0678
  377SOL     OW 1085   3.665   1.294   3.019 -0.2970  0.3928  0.6027
  377SOL    HW1 1086   3.724   1.338   3.087 -0.1479  1.1536 -0.0033
  377SOL    HW2 1087   3.589   1.354   2.997 -0.8425 -0.2304  0.7464
  378SOL     OW 1088   2.497   0.240   0.570 -0.0142  0.0345 -0.1881
  378SOL    HW1 1089   2.536   0.257   0.661  0.5437 -0.8567 -0.2498
  378SOL    HW2 1090   2.568   0.200   0.511 -0.9143 -1.2873 -0.4150
  379SOL     OW 1091   3.408   0.476   2.472  0.5126  0.1744 -0.1512
  379SOL    HW1 1092   3.351   0.443   2.548  2.7285 -2.9036  0.3692
  379SOL    HW2 1093   3.350   0.519   2.403 -2.1029 -0.5564  1.4568
  380SOL     OW 1094   0.528   1.830   1.470 -0.4441 -0.5796 -0.4433
  380SOL    HW1 1095   0.471   1.907   1.499 -2.3925 -2.2642  0.4968
  380SOL    HW2 1096   0.556   1.777   1.550  1.7438 -0.3414 -0.9852
  381SOL     OW 1097   1.737   3.474   0.571  0.3741  0.2345  0.2558
  381SOL    HW1 1098   1.781   3.385   0.559 -0.9414 -0.5555  0.9955
  381SOL    HW2 1099   1.639   3.460   0.584  0.1642  1.8028  0.4814
  382SOL     OW 1100   3.624   2.045   1.499 -0.8890 -0.6294  0.6209
  382SOL    HW1 1101   3.564   2.084   1.429 -0.7919 -0.9204  0.3735
  382SOL    HW2 1102   3.632   1.946   1.484  0.1877 -0.4983  0.2431
  383SOL     OW 1103   0.823   1.274   2.064  0.6828 -0.3706 -0.2331
  383SOL    HW1 1104   0.859   1.367   2.057  1.3333 -0.6504 -0.7719
  383SOL    HW2 1105   0.804   1.239   1.973  0.7742 -0.8918 -0.0544
  384SOL     OW 1106   1.036   0.837   2.662  0.0321 -0.0839 -0.8268
  384SOL    HW1 1107   1.073   0.777   2.734 -1.6945 -0.5292 -0.2649
  384SOL    HW2 1108   0.970   0.900   2.701 -1.1024 -0.4685 -2.0272
  385SOL     OW 1109   0.999   2.574   2.103  0.8932  0.4593 -0.2577
  385SOL    HW1 1110   0.901   2.577   2.120  0.6193  0.7636 -1.7312
  385SOL    HW2 1111   1.040   2.500   2.157 -0.8176 -2.4016 -2.5603
  386SOL     OW 1112   3.401   2.626   3.392  0.1555 -0.5197  0.2104
  386SOL    HW1 1113   3.345   2.637   3.310  1.1390  1.0910 -0.3018
  386SOL    HW2 1114   3.351   2.661   3.471  0.3921  0.9094 -0.2436
  387SOL     OW 1115   1.280   2.724   2.604 -0.2770  0.4086 -0.1314
  387SOL    HW1 1116   1.343   2.652   2.577 -0.7865 -0.3810  0.7528
  387SOL    HW2 1117   1.319   2.813   2.579  0.8613 -0.0996 -0.2165
  388SOL     OW 1118   1.688   1.511   1.190  0.2445 -0.1362 -0.3316
  388SOL    HW1 1119   1.623   1.435   1.188  0.5482 -0.4127  0.0474
  388SOL    HW2 1120   1.779   1.476   1.215  1.3644 -0.3331 -4.0979
  389SOL     OW 1121   2.458   3.569   0.883  0.2443 -0.1797 -0.1682
  389SOL    HW1 1122   2.463   3.668   0.868 -0.6698  0.3137  2.3343
  389SOL    HW2 1123   2.398   3.528   0.815  0.6301  0.9711 -1.2343
  390SOL     OW 1124   1.686   2.714   2.152  0.1397  0.0230 -0.3636
  390SOL    HW1 1125   1.631   2.688   2.073 -0.2670  1.7494 -0.6958
  390SOL    HW2 1126   1.741   2.636   2.182 -0.2989 -0.8918 -1.8430
  391SOL     OW 1127   2.071   1.270   2.522 -0.2950  0.0252  0.1240
  391SOL    HW1 1128   2.011   1.193   2.544 -1.1951  0.1219 -1.8180
  391SOL    HW2 1129   2.037   1.353   2.564  0.4730 -0.5171  1.9239
  392SOL     OW 1130   1.319   1.939   3.256 -0.1936  0.0584 -0.2599
  392SOL    HW1 1131   1.363   1.891   3.332 -0.0029 -1.2681 -1.1799
  392SOL    HW2 1132   1.326   2.037   3.271  3.3846 -0.0221 -0.4816
  393SOL     OW 1133   3.131   3.421   1.012 -0.0845  0.2503  0.9136
  393SOL    HW1 1134   3.172   3.418   1.103  0.5287 -0.6020  0.6200
  393SOL    HW2 1135   3.165   3.345   0.957  0.5629  1.4648 -0.4617
  394SOL     OW 1136   3.104   2.469   3.062  0.2611 -0.5131 -0.0244
  394SOL    HW1 1137   3.029   2.428   3.115 -1.0273 -0.6633 -1.8913
  394SOL    HW2 1138   3.129   2.408   2.987  0.8062  0.4982 -0.6863
  395SOL     OW 1139   2.660   2.085   1.843  0.3514  0.2795 -0.0189
  395SOL    HW1 1140   2.641   1.994   1.882  0.3788  0.0082 -0.6374
  395SOL    HW2 1141   2.620   2.155   1.903  0.6180 -0.1223  0.6373
  396SOL     OW 1142   1.389   2.996   2.733 -0.6700  0.4932  0.0762
  396SOL    HW1 1143   1.439   3.016   2.649 -2.2723 -0.4106 -1.1499
  396SOL    HW2 1144   1.440   3.031   2.812  1.0830  0.9681 -1.2205
  397SOL     OW 1145   3.182   0.410   2.639  0.8453 -0.5861  0.1221
  397SOL    HW1 1146   3.182   0.477   2.713 -0.9584 -0.3898 -0.0154
  397SOL    HW2 1147   3.113   0.436   2.571  2.4260 -0.7669 -1.6384
  398SOL     OW 1148   1.467   2.655   3.227 -0.2869  0.2557 -0.4906
  398SOL    HW1 1149   1.499   2.731   3.170 -1.6297  0.3918 -1.0909
  398SOL    HW2 1150   1.441   2.690   3.317 -0.8428  0.5038 -0.7443
  399SOL     OW 1151   0.605   0.991   1.806  0.1452  0.0015  0.1125
  399SOL    HW1 1152   0.547   1.053   1.752  1.1683 -0.1939 -1.2666
  399SOL    HW2 1153   0.568   0.898   1.801  0.0619  0.0402 -0.0010
  400SOL     OW 1154   0.502   0.731   1.831  0.2320 -0.4824 -0.0830
  400SOL    HW1 1155   0.497   0.650   1.772  0.1958  0.2791 -1.1674
  400SOL    HW2 1156   0.572   0.717   1.901  2.3263 -0.3790 -2.0150
  401SOL     OW 1157   0.817   3.071   1.228  0.0308  0.2824  0.3189
  401SOL    HW1 1158   0.749   3.002   1.203  0.3739  0.0270  0.0745
  401SOL    HW2 1159   0.892   3.027   1.277 -0.2814  0.6650  1.1679
  402SOL     OW 1160   2.379   3.222   3.472 -0.5066  0.0322 -1.0910
  402SOL    HW1 1161   2.289   3.178   3.466 -1.3087  1.3455  0.5249
  402SOL    HW2 1162   2.387   3.268   3.560  1.9893 -0.5004 -0.9770
  403SOL     OW 1163   0.241   1.512   1.367 -0.4557  0.0104  0.1438
  403SOL    HW1 1164   0.221   1.608   1.351 -1.1456 -0.3456 -1.2897
  403SOL    HW2 1165   0.160   1.457   1.347  0.9124 -1.1799 -2.5411
  404SOL     OW 1166   2.899   2.965   0.742 -0.2364 -0.3897  0.3696
  404SOL    HW1 1167   2.917   3.022   0.662  1.4309 -0.8433  0.3741
  404SOL    HW2 1168   2.881   3.023   0.821 -2.1265  0.0637 -0.3519
  405SOL     OW 1169   0.139   3.195   0.384 -0.6709  0.0174 -0.0959
  405SOL    HW1 1170   0.120   3.240   0.471 -1.1349 -2.0503  0.9240
  405SOL    HW2 1171   0.112   3.099   0.389  1.7900 -0.8441 -1.6130
  406SOL     OW 1172   2.188   2.228   0.224  0.0043 -0.4928 -0.2174
  406SOL    HW1 1173   2.143   2.254   0.138  0.3579 -0.3436 -0.3600
  406SOL    HW2 1174   2.286   2.216   0.208 -0.1191 -1.7586 -0.1141
  407SOL     OW 1175   3.434   2.585   2.925 -1.0316 -0.0211  0.4922
  407SOL    HW1 1176   3.460   2.564   2.831 -0.8741 -0.0513  0.5414
  407SOL    HW2 1177   3.337   2.565   2.938 -0.3546 -3.4139  1.2906
  408SOL     OW 1178   3.548   1.656   1.088  0.0023  0.3071 -0.1522
  408SOL    HW1 1179   3.601   1.741   1.085  1.3050 -0.4923 -0.5570
  408SOL    HW2 1180   3.608   1.579   1.070 -0.6902 -0.9367  2.3890
  409SOL     OW 1181   1.472   0.465   2.035  0.3737  0.0793 -0.1335
  409SOL    HW1 1182   1.415   0.420   1.966 -1.3122  0.8647  0.6870
  409SOL    HW2 1183   1.508   0.550   1.997  1.1446 -0.4929 -0.7076
  410SOL     OW 1184   3.213   1.062   0.403  0.1443  0.1324 -0.0499
  410SOL    HW1 1185   3.192   1.071   0.305 -2.2854  0.7489  0.4415
  410SOL    HW2 1186   3.223   1.153   0.443 -1.9013  0.0571  0.7757
  411SOL     OW 1187   0.309   1.707   0.978  0.5499 -0.2362  0.2978
  411SOL    HW1 1188   0.244   1.761   1.032 -0.3997 -2.2099  1.2031
  411SOL    HW2 1189   0.294   1.610   0.994  1.5671 -0.8437 -2.0540
  412SOL     OW 1190   0.768   0.594   0.113 -0.2135 -0.2358  0.3879
  412SOL    HW1 1191   0.676   0.578   0.077 -0.4664 -0.1405  0.9742
  412SOL    HW2 1192   0.835   0.547   0.057 -0.6363 -0.4191  0.0348
  413SOL     OW 1193   2.073   3.270   2.292 -0.6566  0.0167  0.1204
  413SOL    HW1 1194   2.094   3.366   2.274  2.9261 -0.7266 -0.5036
  413SOL    HW2 1195   2.049   3.225   2.206  0.9138 -0.2618 -0.2062
  414SOL     OW 1196   2.126   0.118   3.722  0.1585 -0.1596 -0.0591
  414SOL    HW1 1197   2.198   0.188   3.722  0.7440 -0.7422  0.2302
  414SOL    HW2 1198   2.058   0.139   3.653 -0.1240  1.1441  0.5941
  415SOL     OW 1199   0.867   1.195   0.132 -0.4282  1.1201 -0.0485
  415SOL    HW1 1200   0.927   1.123   0.099  2.0441  3.0557 -0.1123
  415SOL    HW2 1201   0.887   1.280   0.084 -2.4020  2.1535  0.8295
  416SOL     OW 1202   1.534   0.785   3.444 -0.0788 -0.0630  0.0478
  416SOL    HW1 1203   1.624   0.744   3.433  0.7316  2.1165 -2.3988
  416SOL    HW2 1204   1.512   0.793   3.541  2.0465 -1.2630  0.6739
  417SOL     OW 1205   1.400   1.395   3.468  0.1151 -0.7145 -0.1968
  417SOL    HW1 1206   1.436   1.432   3.554  1.4205  0.1839 -1.0871
  417SOL    HW2 1207   1.473   1.391   3.400 -0.9933 -0.9429 -1.4181
  418SOL     OW 1208   2.378   1.763   2.670 -0.7017 -0.6654  0.4692
  418SOL    HW1 1209   2.283   1.737   2.683 -0.8275  0.2358  1.4814
  418SOL    HW2 1210   2.432   1.735   2.749 -0.8403  1.9703  1.6284
  419SOL     OW 1211  -0.022   3.229   1.347 -0.0913  0.3509 -0.2349
  419SOL    HW1 1212   0.027   3.157   1.298  2.2495 -0.2523  2.6943
  419SOL    HW2 1213   0.020   3.317   1.329  1.0948  0.0605  0.9593
  420SOL     OW 1214   2.693   0.082   0.829  0.5852  0.4796  0.2574
  420SOL    HW1 1215   2.787   0.114   0.820  0.8499  0.4005  2.3462
  420SOL    HW2 1216   2.639   0.149   0.880  0.2811 -0.7597  1.6506
  421SOL     OW 1217   2.589   0.597   1.148  0.4338 -0.0964  0.0098
  421SOL    HW1 1218   2.534   0.515   1.165 -0.7396  0.6765  0.0566
  421SOL    HW2 1219   2.683   0.570   1.128  0.2716 -1.4066  0.8626
  422SOL     OW 1220   1.350   0.100   0.730  0.4132 -0.3709 -0.3697
  422SOL    HW1 1221   1.393   0.063   0.812 -0.8446  0.7029  0.8267
  422SOL    HW2 1222   1.418   0.150   0.676  0.7069  1.4925  1.5952
  423SOL     OW 1223   1.080   2.170   3.070 -0.1378  0.5751 -0.1863
  423SOL    HW1 1224   1.020   2.213   3.002 -0.1645  0.5025 -0.2082
  423SOL    HW2 1225   1.169   2.216   3.069 -0.4028  1.1202  0.3017
  424SOL     OW 1226   0.821   1.527   0.473  0.1964 -0.0574 -0.1785
  424SOL    HW1 1227   0.889   1.454   0.477 -1.8099 -2.1099 -0.9858
  424SOL    HW2 1228   0.781   1.540   0.564  1.0801  0.5805  0.1241
  425SOL     OW 1229   2.882   3.274   1.446  0.2470  0.6964  0.0010
  425SOL    HW1 1230   2.968   3.312   1.479  0.9842 -0.2358 -0.7537
  425SOL    HW2 1231   2.808   3.299   1.507  1.2709  0.4353  1.3958
  426SOL     OW 1232   0.740   0.844   1.557  0.7313  0.3410  0.1872
  426SOL    HW1 1233   0.792   0.929   1.563  0.0865  0.7806 -0.4103
  426SOL    HW2 1234   0.773   0.780   1.627  1.5761  0.8778  0.2939
  427SOL     OW 1235   0.751   1.771   2.846 -0.0410 -0.3213 -0.0490
  427SOL    HW1 1236   0.791   1.780   2.755  0.0731 -1.0376 -0.0727
  427SOL    HW2 1237   0.677   1.703   2.844  0.9696 -1.4716  0.7094
  428SOL     OW 1238   0.364   1.891   3.357  0.4195  0.1810 -0.1779
  428SOL    HW1 1239   0.433   1.935   3.299 -0.4198  0.7509 -0.7718
  428SOL    HW2 1240   0.402   1.809   3.398  1.7063  0.9050  0.1302
  429SOL     OW 1241   0.698   0.054   1.225 -0.1705 -0.0158 -0.5477
  429SOL    HW1 1242   0.618   0.109   1.202  0.8560  1.6740 -0.2899
  429SOL    HW2 1243   0.687  -0.038   1.189 -1.7147  0.5062 -1.5173
  430SOL     OW 1244   3.174   1.353   0.758 -0.1602 -0.6598 -0.4138
  430SOL    HW1 1245   3.151   1.435   0.811  2.0667 -0.9486  1.1500
  430SOL    HW2 1246   3.221   1.287   0.818  0.3737 -2.0042 -2.2278
  431SOL     OW 1247   0.413   0.946   1.047 -0.1719 -0.5975 -0.2325
  431SOL    HW1 1248   0.339   0.994   1.000 -0.6648  0.1073  1.1997
  431SOL    HW2 1249   0.476   1.013   1.088 -0.5887 -1.1355  1.3694
  432SOL     OW 1250   0.925   1.697   1.447  0.2624 -0.0306  0.1807
  432SOL    HW1 1251   0.957   1.664   1.358 -1.1874 -2.3029  0.4222
  432SOL    HW2 1252   0.903   1.795   1.440 -0.5254 -0.2995 -2.1748
  433SOL     OW 1253   1.772   2.965   0.878  0.0688 -0.0459  0.0481
  433SOL    HW1 1254   1.802   2.870   0.882  0.0467 -0.0741 -0.4024
  433SOL    HW2 1255   1.692   2.972   0.818  0.1356  0.2726 -0.0062
  434SOL     OW 1256   1.786   0.287   3.285 -0.4409 -0.2510 -0.0982
  434SOL    HW1 1257   1.812   0.208   3.228 -0.6387 -0.0522 -0.4662
  434SOL    HW2 1258   1.706   0.263   3.340  0.1532 -0.6713  0.6081
  435SOL     OW 1259   3.717   2.842   2.718  0.2644 -0.1303 -0.1820
  435SOL    HW1 1260   3.726   2.800   2.808  1.5759 -1.3155 -0.8226
  435SOL    HW2 1261   3.662   2.783   2.659  2.1452 -1.0636 -1.0971
  436SOL     OW 1262   1.196   1.105   3.530  0.4287  0.7623  0.0359
  436SOL    HW1 1263   1.191   1.017   3.483  1.7314 -0.4257  1.9820
  436SOL    HW2 1264   1.164   1.177   3.468 -1.2373 -1.1010 -1.4182
  437SOL     OW 1265   0.309   3.613   0.649  0.1642  0.4244  0.3488
  437SOL    HW1 1266   0.253   3.624   0.568 -1.9752 -1.7466  1.4168
  437SOL    HW2 1267   0.295   3.690   0.711 -0.8706  0.4086  0.1427
  438SOL     OW 1268   1.209   3.495   1.312  0.6421 -0.1024  0.0966
  438SOL    HW1 1269   1.157   3.547   1.244 -0.3779 -0.1505  0.8112
  438SOL    HW2 1270   1.232   3.405   1.276  0.4705  0.0292 -0.3386
  439SOL     OW 1271   1.190   0.765   1.944  0.0211 -1.0119  0.0274
  439SOL    HW1 1272   1.254   0.728   2.011 -0.7854 -1.2931  0.6548
  439SOL    HW2 1273   1.241   0.814   1.873  0.7764  2.7085  2.8534
  440SOL     OW 1274   0.052   1.141   3.282  0.1888 -0.0512 -0.1812
  440SOL    HW1 1275   0.127   1.080   3.308  0.1519 -1.6287 -3.3408
  440SOL    HW2 1276   0.088   1.215   3.225 -0.1489  1.5228  1.5692
  441SOL     OW 1277   2.350   3.489   2.109 -0.6860  0.3887  0.1415
  441SOL    HW1 1278   2.250   3.491   2.099 -0.5078  2.2679 -2.3540
  441SOL    HW2 1279   2.391   3.458   2.024  0.8845  1.2598  0.5426
  442SOL     OW 1280   1.978   0.351   2.788 -0.8840  0.0314 -0.0862
  442SOL    HW1 1281   1.985   0.368   2.689  0.9692  1.6542  0.2534
  442SOL    HW2 1282   1.891   0.386   2.822 -1.2082  0.1619 -1.0109
  443SOL     OW 1283   1.605   3.278   3.431  0.3010  0.2545  0.4129
  443SOL    HW1 1284   1.630   3.373   3.449  0.0371  0.3987  0.0101
  443SOL    HW2 1285   1.620   3.256   3.335 -0.4701  0.1438  0.3105
  444SOL     OW 1286   3.654   0.044   0.776 -0.1919 -0.0764 -0.1592
  444SOL    HW1 1287   3.660  -0.031   0.841 -3.2461 -0.8755 -0.6770
  444SOL    HW2 1288   3.644   0.130   0.826 -0.4037 -0.4308  0.4136
  445SOL     OW 1289   3.523   1.265   0.230 -0.2972 -0.3083  0.4475
  445SOL    HW1 1290   3.516   1.357   0.269  2.7662 -0.0814  0.7254
  445SOL    HW2 1291   3.555   1.202   0.300 -2.3440 -1.6474  0.2462
  446SOL     OW 1292   2.560   3.040   3.011 -0.2340  0.0606  0.1019
  446SOL    HW1 1293   2.545   3.120   3.069  1.2455  0.4190  0.0437
  446SOL    HW2 1294   2.509   2.962   3.047  0.9835  0.1548  2.1766
  447SOL     OW 1295   1.957   1.924   2.615  0.1204 -0.0385 -0.0420
  447SOL    HW1 1296   2.007   1.951   2.533 -2.2251  2.2398 -0.8246
  447SOL    HW2 1297   1.862   1.905   2.593  0.0430 -2.1665  1.7515
  448SOL     OW 1298   1.905   2.286   1.768  0.0067  0.3592 -0.2228
  448SOL    HW1 1299   1.863   2.294   1.677  0.6860 -2.1612 -0.8402
  448SOL    HW2 1300   1.873   2.202   1.812  2.1438 -0.1468  0.4847
  449SOL     OW 1301   0.698   0.753   2.008  0.4943  0.0475  0.2613
  449SOL    HW1 1302   0.787   0.796   1.990  0.3890  0.2395  0.1864
  449SOL    HW2 1303   0.709   0.679   2.074  0.8775 -0.6079 -0.5175
  450SOL     OW 1304   2.977   2.280   3.270  0.3918  0.2029  0.2922
  450SOL    HW1 1305   3.061   2.226   3.270  0.2334 -0.1345 -1.9380
  450SOL    HW2 1306   2.901   2.223   3.300  0.5327 -0.2884 -0.2574
  451SOL     OW 1307   3.231   2.145   3.273  0.1756  0.1943  0.7398
  451SOL    HW1 1308   3.195   2.088   3.347 -0.3402 -0.1798  0.2021
  451SOL    HW2 1309   3.288   2.218   3.312 -0.5268  0.3273  1.5404
  452SOL     OW 1310   0.601   2.886   1.192 -0.8975 -0.0155 -0.7083
  452SOL    HW1 1311   0.610   2.809   1.128 -0.9494 -0.2816 -0.3971
  452SOL    HW2 1312   0.533   2.951   1.157  1.1577  1.3619 -2.4295
  453SOL     OW 1313   2.981   0.974   3.440  0.4150 -0.1681  0.4866
  453SOL    HW1 1314   3.018   0.927   3.360 -0.2951 -1.4904  0.8988
  453SOL    HW2 1315   2.885   0.947   3.453 -0.2685  1.9697  0.3304
  454SOL     OW 1316   1.866   3.394   2.802 -0.4905 -0.1654 -0.6875
  454SOL    HW1 1317   1.793   3.328   2.787 -1.2283  0.6603 -0.8214
  454SOL    HW2 1318   1.898   3.430   2.715  1.1121 -1.5773 -0.7377
  455SOL     OW 1319   3.050   2.994   3.714 -0.1230 -0.7191  0.1134
  455SOL    HW1 1320   3.071   2.977   3.618  0.6346 -2.9762  0.6061
  455SOL    HW2 1321   2.966   3.049   3.721  0.7273  0.9166 -1.8042
  456SOL     OW 1322   1.537   2.012   2.166  0.2512 -0.0715 -0.1419
  456SOL    HW1 1323   1.619   1.959   2.189  0.2667  0.5924  1.4584
  456SOL    HW2 1324   1.461   1.983   2.225 -0.6151 -0.4699 -1.3995
  457SOL     OW 1325   3.683   1.464   2.615  0.4357 -0.0939  0.4345
  457SOL    HW1 1326   3.610   1.528   2.640 -0.4115 -0.2695 -1.4508
  457SOL    HW2 1327   3.762   1.516   2.583 -0.0478  0.0407 -0.5676
  458SOL     OW 1328   2.234   0.160   3.226 -0.1518  0.1802  0.0440
  458SOL    HW1 1329   2.272   0.124   3.140 -0.4557  1.7947 -0.8107
  458SOL    HW2 1330   2.188   0.086   3.275  0.4604 -0.8942 -0.9339
  459SOL     OW 1331   1.569   2.387   3.123  0.4105 -0.2238 -0.8350
  459SOL    HW1 1332   1.573   2.483   3.153 -0.7610 -0.5799  0.5669
  459SOL    HW2 1333   1.589   2.327   3.201 -2.0333 -1.1673 -0.8528
  460SOL     OW 1334   1.225   2.182   2.163  0.8509  0.2778  0.4349
  460SOL    HW1 1335   1.232   2.171   2.064 -1.5979  0.5283  0.1542
  460SOL    HW2 1336   1.187   2.098   2.203 -0.7305  1.0819  0.7326
  461SOL     OW 1337   0.184   1.352   3.134 -0.2884 -0.0301  0.0249
  461SOL    HW1 1338   0.264   1.321   3.185 -0.6337 -0.9927  0.0017
  461SOL    HW2 1339   0.187   1.452   3.126  0.5759  0.0054  0.5672
  462SOL     OW 1340   0.546   1.125   1.172 -0.1525  1.0334  0.0512
  462SOL    HW1 1341   0.518   1.213   1.211  1.5265  1.1929  1.0306
  462SOL    HW2 1342   0.635   1.099   1.211 -0.2081 -0.6796 -0.8834
  463SOL     OW 1343   0.481   0.216   1.192  0.3399 -0.1084  0.1848
  463SOL    HW1 1344   0.441   0.259   1.274 -0.8956  0.3631 -0.6259
  463SOL    HW2 1345   0.495   0.286   1.122 -0.7700 -0.8466 -0.8107
  464SOL     OW 1346   2.147   0.190   1.892 -0.0216  0.1925  0.5490
  464SOL    HW1 1347   2.080   0.188   1.818  0.8141 -1.9823 -0.2256
  464SOL    HW2 1348   2.112   0.139   1.970  0.5388 -0.6198  0.2837
  465SOL     OW 1349   1.569   3.146   1.012 -0.2593  0.1201 -0.4780
  465SOL    HW1 1350   1.651   3.090   1.026  0.5459  1.1937 -0.8230
  465SOL    HW2 1351   1.580   3.234   1.058 -1.1977  0.3132 -0.5988
  466SOL     OW 1352   3.426   0.762   1.763 -0.2722 -0.4686 -0.8799
  466SOL    HW1 1353   3.477   0.690   1.715  0.4796 -0.1660 -0.5412
  466SOL    HW2 1354   3.333   0.765   1.727  0.4422  0.1583 -2.7764
  467SOL     OW 1355   2.921   2.612   0.470 -0.3670  0.7091 -0.3835
  467SOL    HW1 1356   2.979   2.643   0.545 -0.2452  1.1448 -0.6543
  467SOL    HW2 1357   2.953   2.651   0.384  0.6536 -1.2688 -0.9730
  468SOL     OW 1358   2.752   0.845   1.169 -0.1295 -0.1633 -0.5376
  468SOL    HW1 1359   2.690   0.767   1.176  0.4966 -0.6446 -0.2692
  468SOL    HW2 1360   2.808   0.836   1.087  1.0859 -0.8637  0.3336
  469SOL     OW 1361   0.128   0.938   0.174  0.3124 -0.1691 -0.1657
  469SOL    HW1 1362   0.031   0.960   0.179  0.7668  2.0246  0.5291
  469SOL    HW2 1363   0.179   1.020   0.148  2.2101 -0.4164  2.3381
  470SOL     OW 1364   1.048   1.738   0.964  0.2309  0.1194  0.1343
  470SOL    HW1 1365   1.083   1.827   0.995 -0.2311 -0.0000  1.0378
  470SOL    HW2 1366   1.069   1.726   0.867 -2.1370  2.4834 -0.7974
  471SOL     OW 1367   2.863   3.186   3.690 -0.5123 -0.6144 -0.1621
  471SOL    HW1 1368   2.831   3.202   3.597 -2.0488 -1.6060  0.1566
  471SOL    HW2 1369   2.909   3.268   3.724  0.1309 -0.2662 -1.8027
  472SOL     OW 1370   1.693   0.991   3.213 -0.2167 -0.7447 -0.3933
  472SOL    HW1 1371   1.627   1.009   3.286  1.0322 -0.8157  0.8101
  472SOL    HW2 1372   1.722   0.895   3.217 -0.2933 -0.8013 -1.1260
  473SOL     OW 1373   1.793   1.694   2.778  0.5237  0.4292  0.1903
  473SOL    HW1 1374   1.727   1.696   2.703  0.2427  1.6731  0.4507
  473SOL    HW2 1375   1.748   1.661   2.861  0.1688  1.4318  0.4076
  474SOL     OW 1376   0.141   0.763   0.699  0.8324 -0.0365 -0.1541
  474SOL    HW1 1377   0.053   0.805   0.720  0.7967 -1.0672  2.0480
  474SOL    HW2 1378   0.209   0.834   0.682  0.3860  0.8796  1.7078
  475SOL     OW 1379   3.086   2.436   3.699 -0.6699  0.0132 -0.1021
  475SOL    HW1 1380   3.178   2.398   3.698  0.2241  2.0167 -0.5881
  475SOL    HW2 1381   3.065   2.473   3.608 -1.3335  0.9223  0.4031
  476SOL     OW 1382   3.543   3.422   0.504 -0.4065  0.7482 -0.0923
  476SOL    HW1 1383   3.638   3.420   0.474  0.0302 -0.0038  1.2208
  476SOL    HW2 1384   3.492   3.489   0.452  1.2633  2.4475  0.3602
  477SOL     OW 1385   3.112   2.186   1.769  0.2918 -0.5558  0.4518
  477SOL    HW1 1386   3.078   2.127   1.842  0.2862  1.0337  1.7933
  477SOL    HW2 1387   3.037   2.243   1.735  0.5995 -0.3182  0.1635
  478SOL     OW 1388   1.304   1.296   0.598  0.2246 -0.7245 -0.3308
  478SOL    HW1 1389   1.385   1.292   0.655  0.5668 -0.2610 -0.7724
  478SOL    HW2 1390   1.324   1.254   0.509  1.2348  2.7364 -1.8915
  479SOL     OW 1391   2.644   3.638   1.087  0.5169 -0.4424 -0.1830
  479SOL    HW1 1392   2.606   3.547   1.106 -0.2493 -0.0674  0.1137
  479SOL    HW2 1393   2.642   3.655   0.988 -1.0784 -0.0300 -0.1186
  480SOL     OW 1394   0.877   1.416   2.683 -0.1933  0.3824 -0.3884
  480SOL    HW1 1395   0.786   1.380   2.667 -0.6980  0.9930  0.9507
  480SOL    HW2 1396   0.886   1.444   2.779  0.9491  1.5730 -0.8030
  481SOL     OW 1397   3.568   2.081   2.914 -0.2775 -0.1901  0.3557
  481SOL    HW1 1398   3.595   2.123   3.001 -1.1660 -0.0750  0.5898
  481SOL    HW2 1399   3.514   1.999   2.931 -0.4786 -0.1554 -0.0856
  482SOL     OW 1400   2.017   0.911   1.351  0.1389  0.2444 -0.1894
  482SOL    HW1 1401   2.081   0.945   1.419  0.5292  0.0182 -0.4357
  482SOL    HW2 1402   2.056   0.830   1.306  0.4280  1.1043 -1.5374
  483SOL     OW 1403   2.592   2.561   2.222  0.3710  0.3180  0.2870
  483SOL    HW1 1404   2.622   2.476   2.265 -0.5540  0.0472  0.4247
  483SOL    HW2 1405   2.547   2.619   2.290 -0.2132  0.3212 -0.1019
  484SOL     OW 1406   2.368   2.302   1.799  0.0576 -0.0591  0.3376
  484SOL    HW1 1407   2.421   2.361   1.860  0.1551 -1.4027  1.6214
  484SOL    HW2 1408   2.419   2.286   1.715 -0.0156  1.7283 -0.0659
  485SOL     OW 1409   0.366   3.699   0.258 -0.2093 -0.4250 -0.2002
  485SOL    HW1 1410   0.282   3.648   0.277 -1.2065  1.0400 -0.4356
  485SOL    HW2 1411   0.342   3.785   0.212  1.3597  0.3600  0.3850
  486SOL     OW 1412   1.328   1.629   1.048 -0.4048  0.4167  0.1490
  486SOL    HW1 1413   1.403   1.691   1.026 -1.0171  1.1981  0.2070
  486SOL    HW2 1414   1.265   1.674   1.111  0.3375 -1.0904  2.0802
  487SOL     OW 1415   3.604   0.880   2.962  0.3310 -0.2679 -0.1415
  487SOL    HW1 1416   3.553   0.957   3.001 -1.4770 -1.5539  0.1528
  487SOL    HW2 1417   3.690   0.868   3.012  0.0413  0.7516  0.6364
  488SOL     OW 1418   0.077   2.204   1.621  0.5315 -0.1266 -0.0589
  488SOL    HW1 1419   0.150   2.149   1.663  1.3475  1.0301  0.0742
  488SOL    HW2 1420   0.005   2.143   1.587  0.7842 -1.2100  1.2562
  489SOL     OW 1421   2.370   2.773   2.724 -0.2989  0.0966 -0.2871
  489SOL    HW1 1422   2.470   2.786   2.725 -0.4714  1.6695  0.6541
  489SOL    HW2 1423   2.349   2.677   2.740  1.0696 -0.0566  0.8884
  490SOL     OW 1424   3.617   3.608   1.984 -0.2401  0.1434  0.0268
  490SOL    HW1 1425   3.639   3.705   1.977 -0.1039  0.1198  0.1349
  490SOL    HW2 1426   3.674   3.557   1.920 -1.2421  0.2765 -1.0104
  491SOL     OW 1427   1.051   0.052   0.074 -0.5458 -0.9068  0.2745
  491SOL    HW1 1428   1.095   0.112   0.140 -1.5789  0.7551 -0.4782
  491SOL    HW2 1429   0.970   0.098   0.037 -1.5023 -2.8759 -0.1746
  492SOL     OW 1430   1.466   3.033   1.636 -0.2205 -0.5426  0.1418
  492SOL    HW1 1431   1.426   2.942   1.622  1.1099 -1.0613 -0.4160
  492SOL    HW2 1432   1.548   3.043   1.580 -1.6607  1.9379 -1.7228
  493SOL     OW 1433   1.137   0.005   2.063 -0.3186 -0.2501 -0.0834
  493SOL    HW1 1434   1.128  -0.064   1.991  0.9487 -1.0280  0.4719
  493SOL    HW2 1435   1.213   0.066   2.041 -0.7441  0.2991 -0.0363
  494SOL     OW 1436   2.248   2.421   2.094 -0.3507  0.4039  0.2843
  494SOL    HW1 1437   2.336   2.420   2.046  0.5787  0.5193  1.9068
  494SOL    HW2 1438   2.240   2.507   2.146 -0.5016 -0.4560  1.7364
  495SOL     OW 1439   0.970   3.185   1.016  0.1642 -0.2353 -0.7494
  495SOL    HW1 1440   0.924   3.153   1.099 -0.4027  0.0378 -0.9541
  495SOL    HW2 1441   0.927   3.270   0.984 -1.3999 -1.7181 -2.8276
  496SOL     OW 1442   1.313   3.018   3.058 -0.2229  0.7693 -0.1591
  496SOL    HW1 1443   1.311   3.039   3.156  1.0533 -2.5432  0.6922
  496SOL    HW2 1444   1.237   2.958   3.035  0.3797  0.2476 -0.8392
  497SOL     OW 1445   2.235   3.694   1.690  0.1471 -0.4250  0.0052
  497SOL    HW1 1446   2.260   3.789   1.670 -0.8887 -0.4823 -1.7108
  497SOL    HW2 1447   2.318   3.640   1.701  0.7518  0.3976 -0.4140
  498SOL     OW 1448   3.198   0.928   1.086 -0.1096  0.3364 -0.1152
  498SOL    HW1 1449   3.137   0.995   1.129  0.0163  0.0562  0.5139
  498SOL    HW2 1450   3.150   0.840   1.077 -0.7947  0.8960 -2.3258
  499SOL     OW 1451   1.564   3.135   0.301 -0.0164 -0.5224  0.0241
  499SOL    HW1 1452   1.464   3.131   0.307  0.0930 -2.7109  1.2859
  499SOL    HW2 1453   1.593   3.231   0.296 -2.1249  0.2029  0.7143
  500SOL     OW 1454   1.585   1.158   2.959  0.4071 -0.5510  0.7818
  500SOL    HW1 1455   1.543   1.187   2.873  2.4623  2.9033  0.7554
  500SOL    HW2 1456   1.640   1.076   2.943 -0.2108 -0.6774 -0.8887
  501SOL     OW 1457   2.406   1.011   1.902  0.0267  0.4464 -0.0142
  501SOL    HW1 1458   2.322   1.055   1.933 -0.5048 -0.9491  0.5979
  501SOL    HW2 1459   2.447   1.065   1.827 -0.8781  1.6459  0.3341
  502SOL     OW 1460   1.163   3.537   2.635  0.4197  0.2416  0.2191
  502SOL    HW1 1461   1.214   3.609   2.588  2.2207 -0.1667  1.4262
  502SOL    HW2 1462   1.105   3.489   2.569  0.2390  1.8744 -0.8743
  503SOL     OW 1463   0.903   3.326   3.315  0.1509 -0.2572 -0.1272
  503SOL    HW1 1464   0.984   3.319   3.258  0.7085 -0.1573  0.6375
  503SOL    HW2 1465   0.863   3.235   3.328  1.0491 -0.5336  0.7768
  504SOL     OW 1466   0.857   1.093   1.832  0.1170 -0.0238  0.2158
  504SOL    HW1 1467   0.776   1.038   1.811  0.2359 -0.4191  0.7603
  504SOL    HW2 1468   0.914   1.043   1.898  0.1342  0.8463  0.8680
  505SOL     OW 1469   0.344   0.227   1.485 -0.1701  0.2298  0.0565
  505SOL    HW1 1470   0.264   0.280   1.513 -2.1988 -1.1039 -2.6626
  505SOL    HW2 1471   0.323   0.130   1.491  1.6589 -0.1898  0.2318
  506SOL     OW 1472   0.173   1.174   2.868 -0.6337  0.3417  0.0585
  506SOL    HW1 1473   0.130   1.221   2.945 -1.5506  1.5933 -1.1526
  506SOL    HW2 1474   0.117   1.188   2.786  0.2883 -0.9845 -0.8345
  507SOL     OW 1475   2.051   3.480   0.467 -0.3389 -0.3250  0.3367
  507SOL    HW1 1476   2.135   3.501   0.417 -0.4970  0.2382  0.2972
  507SOL    HW2 1477   2.020   3.561   0.516 -0.1119 -0.9058  1.4703
  508SOL     OW 1478   3.266   3.147   0.136  0.1591  0.3965 -0.4596
  508SOL    HW1 1479   3.242   3.161   0.232 -0.2762  1.3128 -0.6856
  508SOL    HW2 1480   3.199   3.086   0.094  0.5138 -0.2336 -0.1139
  509SOL     OW 1481   0.122   2.866   0.662  0.2965  0.4996 -0.0625
  509SOL    HW1 1482   0.097   2.808   0.739  0.3362  0.2809 -0.2147
  509SOL    HW2 1483   0.147   2.957   0.696  2.1033 -0.1092  0.3614
  510SOL     OW 1484   2.931   0.276   1.565 -0.1566  0.0461  0.3237
  510SOL    HW1 1485   2.927   0.371   1.535 -0.2865  0.1359  0.6221
  510SOL    HW2 1486   3.017   0.235   1.534 -0.2763  0.1409 -0.1502
  511SOL     OW 1487   0.551   2.366   0.382  0.5355 -0.5026  0.2171
  511SOL    HW1 1488   0.460   2.399   0.405  0.5327 -0.7232  0.5221
  511SOL    HW2 1489   0.619   2.411   0.440  0.5655 -0.7567  0.3821
  512SOL     OW 1490   3.543   0.536   0.156  0.3925  0.1264  1.0158
  512SOL    HW1 1491   3.597   0.532   0.240  0.9305 -0.6957  0.6425
  512SOL    HW2 1492   3.604   0.536   0.077 -0.1201  0.5531  0.6136
  513SOL     OW 1493   2.485   2.013   3.314 -0.2694 -0.0786 -0.3376
  513SOL    HW1 1494   2.493   1.925   3.266 -1.9154 -1.3157  1.5363
  513SOL    HW2 1495   2.416   2.069   3.269  1.3916  0.6940 -2.0650
  514SOL     OW 1496   1.275   1.853   1.940  1.3205 -0.1073 -0.6197
  514SOL    HW1 1497   1.289   1.814   1.849 -2.7560  1.1856 -2.0208
  514SOL    HW2 1498   1.262   1.952   1.933  1.3107  0.0840  1.4101
  515SOL     OW 1499   2.899   3.430   0.088 -0.2213  0.4236 -0.0271
  515SOL    HW1 1500   2.812   3.441   0.039 -1.5414 -0.5430  1.9742
  515SOL    HW2 1501   2.891   3.468   0.180  1.0710 -0.7752  0.6202
  516SOL     OW 1502   1.319   1.493   2.318  0.7493  0.3557 -0.2460
  516SOL    HW1 1503   1.348   1.573   2.265  2.0759 -0.0159 -0.1081
  516SOL    HW2 1504   1.396   1.430   2.330  0.0135 -0.4275  0.5880
  517SOL     OW 1505   0.749   0.709   1.321  0.0724 -0.1008 -0.5097
  517SOL    HW1 1506   0.839   0.702   1.278  0.3447 -2.4195  0.2960
  517SOL    HW2 1507   0.757   0.763   1.405  0.3643  1.0420 -1.2600
  518SOL     OW 1508   2.734   3.393   1.660  0.0155  0.0967  0.2586
  518SOL    HW1 1509   2.801   3.377   1.732  1.3690  0.3413 -0.9077
  518SOL    HW2 1510   2.698   3.486   1.668  2.1852  1.1307 -0.9059
  519SOL     OW 1511   2.450   3.190   3.226 -0.0432 -0.1284  0.1760
  519SOL    HW1 1512   2.436   3.216   3.321  1.1793 -0.0499  0.3444
  519SOL    HW2 1513   2.379   3.233   3.169 -0.9632 -0.4274  1.0742
  520SOL     OW 1514   1.276   0.007   3.603 -0.6783 -0.3565  0.2968
  520SOL    HW1 1515   1.346   0.030   3.671  0.1971 -1.7005 -0.1318
  520SOL    HW2 1516   1.187   0.003   3.648 -0.1286 -1.1334  1.3591
  521SOL     OW 1517   3.378   2.715   0.290 -0.6339  0.3644  0.0146
  521SOL    HW1 1518   3.325   2.634   0.266 -0.3379 -0.5390  2.1176
  521SOL    HW2 1519   3.331   2.766   0.363 -0.1284  1.3113 -0.2955
  522SOL     OW 1520   0.107   1.611   0.452 -0.1050 -0.0224  0.7597
  522SOL    HW1 1521   0.180   1.585   0.516  0.0551  0.4044  0.7570
  522SOL    HW2 1522   0.100   1.542   0.380  0.8406  0.3230  0.3135
  523SOL     OW 1523   1.974   2.727   0.770  0.0418 -0.5124 -0.0374
  523SOL    HW1 1524   2.049   2.721   0.703  0.2881  2.5710 -0.1744
  523SOL    HW2 1525   1.889   2.750   0.722 -0.3407 -0.8759  0.4563
  524SOL     OW 1526   3.649   0.111   1.199 -0.0348 -0.1285  0.6298
  524SOL    HW1 1527   3.579   0.047   1.231 -0.9139  0.6410  0.2902
  524SOL    HW2 1528   3.737   0.065   1.197 -0.3357 -0.8346  2.0633
  525SOL     OW 1529   2.706   1.130   1.092  0.6110  0.1284  0.1001
  525SOL    HW1 1530   2.657   1.049   1.125  0.5607 -1.6634 -3.7667
  525SOL    HW2 1531   2.644   1.209   1.095  0.4898  0.0511  3.4665
  526SOL     OW 1532   1.635   3.532   3.473  0.4221  0.1808  0.0818
  526SOL    HW1 1533   1.625   3.562   3.378 -1.5833 -0.9358 -0.1023
  526SOL    HW2 1534   1.683   3.603   3.524  0.9520  1.1067 -1.5984
  527SOL     OW 1535   1.290   1.186   0.989  0.2699  0.1659 -0.0457
  527SOL    HW1 1536   1.287   1.175   1.088 -1.3852 -0.9491 -0.1803
  527SOL    HW2 1537   1.266   1.280   0.965 -0.8155  0.0660  0.5734
  528SOL     OW 1538   0.059   0.787   1.471  0.7494 -0.7070 -0.3974
  528SOL    HW1 1539   0.137   0.727   1.453 -0.6966 -1.5891 -4.7680
  528SOL    HW2 1540   0.091   0.882   1.472  2.0096 -1.0842 -1.4012
  529SOL     OW 1541   2.034   3.248   3.266  0.3350 -0.2820 -0.1131
  529SOL    HW1 1542   2.024   3.183   3.191  2.3549 -0.3369 -0.3749
  529SOL    HW2 1543   2.051   3.198   3.351 -0.9898 -0.1782  0.2374
  530SOL     OW 1544   2.426   2.369   2.591 -0.4150  0.1592 -0.4240
  530SOL    HW1 1545   2.440   2.282   2.639  1.9255  0.7662  0.0981
  530SOL    HW2 1546   2.490   2.376   2.514 -1.4657  0.8940 -1.2675
  531SOL     OW 1547   0.979   1.781   0.494  0.5107  0.2959 -0.0920
  531SOL    HW1 1548   0.909   1.709   0.488 -0.6708  1.4579 -0.7215
  531SOL    HW2 1549   1.032   1.783   0.409 -0.6432  1.3097 -0.8179
  532SOL     OW 1550   2.693   3.558   0.681  0.0144  0.1374  0.1587
  532SOL    HW1 1551   2.672   3.636   0.741  0.9642  0.2453  0.3684
  532SOL    HW2 1552   2.779   3.516   0.710  0.0180 -0.3737 -0.5718
  533SOL     OW 1553   3.357   2.137   3.579 -0.3382 -0.7255 -0.2780
  533SOL    HW1 1554   3.262   2.106   3.590 -0.2153 -1.1270 -0.3604
  533SOL    HW2 1555   3.362   2.201   3.502 -0.5756 -0.5567 -0.1572
  534SOL     OW 1556   3.208   1.044   1.666  0.2989  0.3175 -0.6028
  534SOL    HW1 1557   3.274   1.092   1.608  0.2465  0.8521 -0.2374
  534SOL    HW2 1558   3.186   1.102   1.745  0.9283 -0.6918  0.3365
  535SOL     OW 1559   1.023   0.139   2.596  0.1344 -0.3405 -0.4118
  535SOL    HW1 1560   0.977   0.223   2.566  2.2361  1.4845  1.1200
  535SOL    HW2 1561   1.083   0.107   2.524 -0.8217 -0.6713 -1.0800
  536SOL     OW 1562   1.750   0.470   2.859 -0.1503 -0.2808  0.1345
  536SOL    HW1 1563   1.729   0.472   2.957 -0.7924  2.0940  0.0216
  536SOL    HW2 1564   1.668   0.441   2.808 -0.3695  0.1976  0.2102
  537SOL     OW 1565   0.795   2.686   2.440  0.0548 -0.3164  0.0133
  537SOL    HW1 1566   0.848   2.602   2.454 -0.9252 -0.9955 -0.1916
  537SOL    HW2 1567   0.857   2.764   2.432  0.9489 -0.8910  1.0661
  538SOL     OW 1568   1.707   0.067   1.233  0.9890  0.1964 -0.2158
  538SOL    HW1 1569   1.792   0.029   1.269  1.3165 -0.9756 -2.0909
  538SOL    HW2 1570   1.629   0.021   1.276  1.3362 -0.3004 -0.1084
  539SOL     OW 1571   3.269   2.984   3.259  0.5236  0.4202 -0.1583
  539SOL    HW1 1572   3.271   3.084   3.263 -2.2826  0.5958 -0.9812
  539SOL    HW2 1573   3.361   2.950   3.242  1.6302  2.8166  0.5206
  540SOL     OW 1574   0.471   3.624   0.998  0.7582  0.5544  0.4920
  540SOL    HW1 1575   0.510   3.716   0.991  1.1623  0.3784  0.4166
  540SOL    HW2 1576   0.544   3.556   0.986  0.8255  0.2201  2.5210
  541SOL     OW 1577   0.374   0.611   2.606 -0.1299 -0.2475 -0.1883
  541SOL    HW1 1578   0.435   0.687   2.631 -1.6435  1.2159 -0.8015
  541SOL    HW2 1579   0.281   0.631   2.638 -0.7431 -1.4133 -1.1882
  542SOL     OW 1580   2.245   2.097   3.206 -0.0916  0.4752 -0.0547
  542SOL    HW1 1581   2.208   2.006   3.222  0.7792  0.0437 -0.4342
  542SOL    HW2 1582   2.179   2.166   3.236 -2.1302 -0.2060 -2.6316
  543SOL     OW 1583   2.934   0.871   1.873 -0.3422  0.3795 -0.3587
  543SOL    HW1 1584   2.939   0.815   1.955 -0.8638  2.0623  0.8623
  543SOL    HW2 1585   2.941   0.812   1.792 -2.3506 -1.5995  0.8179
  544SOL     OW 1586   0.949   1.357   1.471  0.4546 -0.3565 -0.0287
  544SOL    HW1 1587   0.989   1.359   1.379 -1.2490 -0.7895 -0.8203
  544SOL    HW2 1588   0.883   1.432   1.479 -2.3528 -2.5952 -0.6213
  545SOL     OW 1589   1.728   1.918   0.956 -0.0599  0.2797 -0.1202
  545SOL    HW1 1590   1.696   1.844   1.015 -1.4470  0.3401 -0.7684
  545SOL    HW2 1591   1.703   2.006   0.995 -2.3264  0.2981 -1.4666
  546SOL     OW 1592   0.606   2.696   1.017  0.2939 -0.3696  0.0192
  546SOL    HW1 1593   0.686   2.637   1.007 -0.1825 -0.8455 -1.0708
  546SOL    HW2 1594   0.524   2.640   1.027 -0.0573  0.1086 -0.1478
  547SOL     OW 1595   0.243   0.317   0.951  0.5245 -0.0303  0.0237
  547SOL    HW1 1596   0.261   0.387   0.882 -0.5720 -0.6508 -0.9193
  547SOL    HW2 1597   0.279   0.229   0.920  0.0909 -0.2975  0.2682
  548SOL     OW 1598   3.695   2.691   0.303 -0.1891  0.8564  0.1752
  548SOL    HW1 1599   3.766   2.635   0.259 -1.8202 -2.8972  1.8820
  548SOL    HW2 1600   3.606   2.670   0.263 -0.9052  2.1231  1.0343
  549SOL     OW 1601   0.081   3.413   2.553  0.0799 -0.4505 -0.1470
  549SOL    HW1 1602  -0.004   3.445   2.596  0.7739  0.1810  0.7914
  549SOL    HW2 1603   0.068   3.408   2.454 -1.2449 -0.9681  0.0245
  550SOL     OW 1604   2.779   2.347   0.789 -0.0363  0.1863 -0.0150
  550SOL    HW1 1605   2.769   2.341   0.690  0.5212 -0.1359 -0.0556
  550SOL    HW2 1606   2.876   2.352   0.813 -0.1648  0.2425  0.5153
  551SOL     OW 1607   0.140   2.878   1.926  0.0133  0.1741 -0.4568
  551SOL    HW1 1608   0.077   2.872   2.003  0.4225  0.5760 -0.0803
  551SOL    HW2 1609   0.109   2.818   1.852 -1.4254  1.1790 -0.7270
  552SOL     OW 1610   0.725   2.605   2.967  0.5354 -0.0291  0.0365
  552SOL    HW1 1611   0.692   2.619   3.061 -0.3712  1.2959 -0.4463
  552SOL    HW2 1612   0.744   2.694   2.925  0.2658 -0.5641 -1.2705
  553SOL     OW 1613   1.764   2.634   3.021 -0.1834  0.0067  0.1178
  553SOL    HW1 1614   1.779   2.631   2.922  0.2495  0.9728  0.1462
  553SOL    HW2 1615   1.681   2.685   3.041  0.5587  1.1730  0.3125
  554SOL     OW 1616   2.563   1.521   3.445 -0.3952 -0.3926  0.5211
  554SOL    HW1 1617   2.622   1.575   3.504  0.8707  0.7382 -1.6253
  554SOL    HW2 1618   2.467   1.536   3.469 -0.0433  2.2681  0.4624
  555SOL     OW 1619   0.246   2.070   0.505 -0.0098 -0.7654  0.3662
  555SOL    HW1 1620   0.311   2.076   0.429 -1.4832  3.1018 -0.8300
  555SOL    HW2 1621   0.155   2.050   0.469 -0.4515 -0.5351  1.3329
  556SOL     OW 1622   1.494   0.436   1.674 -0.6065 -0.2748 -0.1286
  556SOL    HW1 1623   1.551   0.360   1.642  0.2157  0.7207 -1.1143
  556SOL    HW2 1624   1.417   0.400   1.726  0.5273 -1.6944  0.6246
  557SOL     OW 1625   0.507   2.305   2.853 -0.5815  0.1651  0.3111
  557SOL    HW1 1626   0.448   2.372   2.897 -1.2230 -0.5159  0.4955
  557SOL    HW2 1627   0.580   2.278   2.916 -0.8886 -0.0330  0.5791
  558SOL     OW 1628   1.064   3.629   2.874  0.1397 -0.0373 -0.6578
  558SOL    HW1 1629   1.078   3.600   2.779 -1.7766 -0.1791 -0.9288
  558SOL    HW2 1630   1.086   3.553   2.935  0.1760 -0.3522 -1.0536
  559SOL     OW 1631   0.086   1.888   0.792 -0.1033  0.0477  0.4718
  559SOL    HW1 1632   0.035   1.839   0.722 -1.5789  0.6971  1.0510
  559SOL    HW2 1633   0.184   1.878   0.776 -0.3935 -1.5953 -0.4306
  560SOL     OW 1634   2.784   3.217   2.120 -0.2600  0.3292 -0.3327
  560SOL    HW1 1635   2.752   3.265   2.201  0.2548  0.4156 -0.1751
  560SOL    HW2 1636   2.736   3.129   2.111 -2.5126  1.5927 -1.5989
  561SOL     OW 1637   1.699   0.937   0.763 -0.6949 -0.4704 -0.0042
  561SOL    HW1 1638   1.764   0.977   0.698 -1.1565  1.1138  0.4647
  561SOL    HW2 1639   1.627   1.003   0.783 -0.6938 -0.9953  1.9394
  562SOL     OW 1640   0.158   2.551   2.825  0.3474  0.2863  0.3033
  562SOL    HW1 1641   0.096   2.617   2.867 -0.6514  0.4795 -1.4021
  562SOL    HW2 1642   0.246   2.594   2.807 -0.5645  1.4608 -1.5829
  563SOL     OW 1643   2.723   2.604   2.550 -0.0707  0.3106 -0.6872
  563SOL    HW1 1644   2.719   2.510   2.586  0.2623  1.1346  1.6377
  563SOL    HW2 1645   2.803   2.612   2.489  0.8017 -0.5340  0.3085
  564SOL     OW 1646   3.371   0.019   0.697  0.2799 -0.1178  0.0408
  564SOL    HW1 1647   3.368   0.114   0.666 -1.7571  0.7560  2.6348
  564SOL    HW2 1648   3.463  -0.001   0.733  1.2212  0.2767 -1.9693
  565SOL     OW 1649   1.220   3.507   2.223 -0.0338 -0.1156  0.5052
  565SOL    HW1 1650   1.299   3.537   2.276  0.8068  0.5583 -1.0534
  565SOL    HW2 1651   1.191   3.581   2.163 -2.2029 -0.1746  1.3924
  566SOL     OW 1652   0.790   0.173   1.880 -0.5678  0.5036 -0.0723
  566SOL    HW1 1653   0.869   0.162   1.820 -2.4783  0.2130 -2.7218
  566SOL    HW2 1654   0.706   0.152   1.829 -2.4084  1.0393  2.5231
  567SOL     OW 1655   0.694   2.797   1.438 -0.2541  0.2700  0.0052
  567SOL    HW1 1656   0.715   2.889   1.473 -0.0859 -0.6948  2.5981
  567SOL    HW2 1657   0.648   2.806   1.350  1.0593  2.7863 -0.5465
  568SOL     OW 1658   0.271   3.386   0.811  0.2038  0.1475  0.1164
  568SOL    HW1 1659   0.361   3.341   0.810  0.1135 -0.0261 -0.9359
  568SOL    HW2 1660   0.273   3.466   0.751 -0.0442  0.7808  0.9195
  569SOL     OW 1661   1.713   2.803   1.502  0.3919  0.0480 -0.3179
  569SOL    HW1 1662   1.623   2.802   1.460  0.6981 -0.1876 -0.9780
  569SOL    HW2 1663   1.778   2.850   1.442  0.3483  1.8573  0.9463
  570SOL     OW 1664   2.551   1.168   2.928 -0.3024  0.6846  0.0257
  570SOL    HW1 1665   2.611   1.145   3.004  0.1427  0.3923 -0.4076
  570SOL    HW2 1666   2.463   1.198   2.963 -0.6400 -0.9140  0.6529
  571SOL     OW 1667   2.018   1.512   2.090  0.2035  0.2533 -0.5302
  571SOL    HW1 1668   1.992   1.536   2.183 -1.1057 -1.0288 -0.5355
  571SOL    HW2 1669   2.093   1.446   2.091 -0.0576 -0.0400 -0.3744
  572SOL     OW 1670   1.324   2.375   0.503 -0.2186  0.3902  0.0643
  572SOL    HW1 1671   1.276   2.315   0.567 -0.4603  0.5624  0.0439
  572SOL    HW2 1672   1.357   2.456   0.552 -2.4807  1.6991 -0.4769
  573SOL     OW 1673   0.220   0.542   2.951 -0.4240  0.4642 -0.6046
  573SOL    HW1 1674   0.177   0.466   3.000 -0.2649  0.0437 -1.1112
  573SOL    HW2 1675   0.319   0.531   2.953 -0.4591 -0.3846 -2.3077
  574SOL     OW 1676   2.942   1.822   2.253  0.0063 -0.0108  0.0563
  574SOL    HW1 1677   2.965   1.726   2.268  1.6458  0.0721 -1.5745
  574SOL    HW2 1678   2.860   1.828   2.196  0.1221 -0.4631 -0.1632
  575SOL     OW 1679   2.363   2.162   2.969 -1.0447 -0.4699 -0.1210
  575SOL    HW1 1680   2.337   2.114   3.053 -0.9882 -0.8015 -0.2940
  575SOL    HW2 1681   2.434   2.110   2.922 -0.8515 -0.1246 -0.2147
  576SOL     OW 1682   2.420   2.832   3.482  0.2715 -0.2165 -0.0134
  576SOL    HW1 1683   2.452   2.770   3.411  0.9130 -0.5502  0.5578
  576SOL    HW2 1684   2.326   2.808   3.508 -0.2175  0.3273 -1.1986
  577SOL     OW 1685   0.267   0.923   2.809 -0.5232  0.5996  0.0382
  577SOL    HW1 1686   0.245   1.018   2.828  0.8246  1.0701 -0.6323
  577SOL    HW2 1687   0.352   0.918   2.756 -0.7382 -0.9589 -0.2126
  578SOL     OW 1688   0.254   2.866   0.213 -1.0333  0.4361  0.2839
  578SOL    HW1 1689   0.312   2.920   0.153  1.3682  0.1507  2.1712
  578SOL    HW2 1690   0.200   2.801   0.158  1.5571 -0.3288 -1.5658
  579SOL     OW 1691   3.035   3.615   1.637 -0.2801  0.2417 -0.3865
  579SOL    HW1 1692   2.978   3.637   1.716  1.9205  0.2149  1.2746
  579SOL    HW2 1693   3.055   3.698   1.586  0.3047  0.6656  0.5146
  580SOL     OW 1694   0.372   0.834   3.049 -0.2759 -0.5118  0.2418
  580SOL    HW1 1695   0.420   0.747   3.035  1.0767  0.1517  0.6260
  580SOL    HW2 1696   0.337   0.866   2.961  1.1083 -0.3975 -0.3039
  581SOL     OW 1697   2.835   1.076   3.682 -0.1012 -0.5026  0.3004
  581SOL    HW1 1698   2.856   1.010   3.753 -1.0566 -1.6743 -0.4640
  581SOL    HW2 1699   2.805   1.028   3.599  0.2870  0.8472 -0.6619
  582SOL     OW 1700   1.967   3.186   2.036 -0.0776  1.0233 -0.0157
  582SOL    HW1 1701   1.885   3.128   2.031  0.5484 -0.1632  2.1051
  582SOL    HW2 1702   2.032   3.158   1.965 -0.5475  0.3725 -0.2005
  583SOL     OW 1703   2.417   3.310   0.227  0.1247 -0.1466 -0.1510
  583SOL    HW1 1704   2.352   3.240   0.258  2.6013 -2.7633 -0.3866
  583SOL    HW2 1705   2.461   3.352   0.307  0.9243 -1.2632  0.0263
  584SOL     OW 1706   0.563   0.103   0.029  0.1006  0.2384  0.2671
  584SOL    HW1 1707   0.522   0.038  -0.035  1.2206 -0.5895  0.3550
  584SOL    HW2 1708   0.491   0.148   0.082 -0.6898 -2.3345  1.5694
  585SOL     OW 1709   1.118   1.671   0.715 -0.4999  0.5022 -0.5278
  585SOL    HW1 1710   1.108   1.579   0.679  0.6030 -0.2171  0.9016
  585SOL    HW2 1711   1.094   1.738   0.644 -0.4775 -0.8579 -1.8645
  586SOL     OW 1712   3.537   0.958   1.888  0.2645 -0.1747  0.0470
  586SOL    HW1 1713   3.463   0.992   1.946  0.5717  0.3788  0.1259
  586SOL    HW2 1714   3.506   0.877   1.838  0.1952 -1.0343  1.4304
  587SOL     OW 1715   3.426   2.900   1.426 -0.2363  0.4820 -0.5549
  587SOL    HW1 1716   3.505   2.868   1.478  0.8307  0.9970 -1.7954
  587SOL    HW2 1717   3.412   2.998   1.444 -0.7558  0.3417 -0.1592
  588SOL     OW 1718   0.994   2.414   3.559  0.5248  0.8580  0.4484
  588SOL    HW1 1719   0.945   2.403   3.646 -0.5940  3.0906  0.1672
  588SOL    HW2 1720   0.983   2.331   3.504 -0.1482  0.0491  1.7420
  589SOL     OW 1721   0.255   2.552   0.596 -0.1830  0.2450 -0.7972
  589SOL    HW1 1722   0.293   2.544   0.504 -1.2464  0.7905 -1.3076
  589SOL    HW2 1723   0.303   2.624   0.645 -0.7716  1.1980 -1.5707
  590SOL     OW 1724   1.901   3.175   1.428 -0.4286 -0.1493 -0.5386
  590SOL    HW1 1725   1.812   3.209   1.459 -1.0994 -1.1723 -1.2517
  590SOL    HW2 1726   1.937   3.111   1.495 -0.2922  0.1660 -0.3103
  591SOL     OW 1727   2.413   3.406   3.671 -0.0435 -0.3701  0.2172
  591SOL    HW1 1728   2.326   3.443   3.638 -0.2898 -1.5820 -0.5660
  591SOL    HW2 1729   2.405   3.387   3.769 -0.2213  0.7122  0.4288
  592SOL     OW 1730   3.214   0.944   0.772 -0.1758 -1.0412  0.2414
  592SOL    HW1 1731   3.271   0.902   0.701  1.0799 -0.1644  0.7099
  592SOL    HW2 1732   3.225   0.894   0.858  0.6030 -0.3269  0.5632
  593SOL     OW 1733   2.056   0.466   0.030  0.1290  0.5702  0.0698
  593SOL    HW1 1734   2.117   0.502  -0.041 -0.6377  1.0916 -0.3421
  593SOL    HW2 1735   2.106   0.455   0.115  1.1390 -0.3126 -0.6127
  594SOL     OW 1736   3.206   2.773   1.324 -0.0695  0.2278 -0.2782
  594SOL    HW1 1737   3.283   2.819   1.367  0.3137 -0.6818  0.0281
  594SOL    HW2 1738   3.121   2.797   1.372  0.2987 -0.4618  0.7439
  595SOL     OW 1739   2.821   1.820   1.580  0.3937 -1.0034  0.3482
  595SOL    HW1 1740   2.740   1.783   1.625 -0.5552 -0.9510 -1.2475
  595SOL    HW2 1741   2.832   1.779   1.490  0.2419  1.3175 -0.8145
  596SOL     OW 1742   3.489   3.542   0.093 -0.4190  0.0052  0.5033
  596SOL    HW1 1743   3.455   3.458   0.049 -0.8043  0.9552 -1.0941
  596SOL    HW2 1744   3.490   3.616   0.026 -0.5039  1.4031  1.9937
  597SOL     OW 1745   3.031   1.162   1.482 -0.0022 -0.0561 -0.2721
  597SOL    HW1 1746   2.947   1.118   1.511 -0.8620  1.2382 -0.6898
  597SOL    HW2 1747   3.110   1.114   1.521 -0.9652 -0.6187  1.0473
  598SOL     OW 1748   3.617  -0.002   0.504 -0.2121  0.5574  0.1357
  598SOL    HW1 1749   3.551   0.065   0.469 -1.4931 -0.6525  0.1489
  598SOL    HW2 1750   3.634   0.015   0.601 -0.9810  0.4977  0.2812
  599SOL     OW 1751   3.123   2.235   1.408 -0.3317  0.3932 -0.2474
  599SOL    HW1 1752   3.200   2.280   1.454  1.7746 -1.3941 -1.7728
  599SOL    HW2 1753   3.113   2.142   1.443 -0.3181 -0.1469 -1.6034
  600SOL     OW 1754   0.481   0.873   2.122  0.1399 -0.0849  0.3341
  600SOL    HW1 1755   0.474   0.972   2.132 -1.7924 -0.0640 -0.7405
  600SOL    HW2 1756   0.565   0.850   2.072 -0.5798  1.2306 -1.6038
  601SOL     OW 1757   2.224   2.548   1.696  0.5279  0.3849 -0.0029
  601SOL    HW1 1758   2.254   2.463   1.740 -0.6498 -0.3949 -0.6457
  601SOL    HW2 1759   2.198   2.614   1.765 -0.5191 -0.5343  0.5095
  602SOL     OW 1760   1.371   2.196   1.464  0.2375  0.0764  0.0533
  602SOL    HW1 1761   1.439   2.199   1.391  0.5585  0.0205  0.3473
  602SOL    HW2 1762   1.316   2.280   1.462 -0.7568 -0.5756 -1.1984
  603SOL     OW 1763   1.906   2.536   1.872  0.2568 -0.3090  0.2996
  603SOL    HW1 1764   1.993   2.585   1.877  0.9820 -1.4248 -0.8333
  603SOL    HW2 1765   1.917   2.454   1.815 -2.5203  1.6916 -3.5621
  604SOL     OW 1766   2.091   2.894   2.820 -0.3125 -0.2754  0.0517
  604SOL    HW1 1767   2.101   2.816   2.757 -2.0841 -0.4024 -0.1249
  604SOL    HW2 1768   2.101   2.979   2.769 -1.4570 -0.3806 -0.3579
  605SOL     OW 1769   3.188   1.480   2.090  0.0599 -0.4212 -0.5065
  605SOL    HW1 1770   3.285   1.480   2.114  0.1598  0.1167 -0.9046
  605SOL    HW2 1771   3.176   1.515   1.997 -0.4803 -0.8710 -0.6183
  606SOL     OW 1772   0.632   2.040   3.216  0.1562  0.7828 -0.3113
  606SOL    HW1 1773   0.622   1.996   3.305  0.1421  1.5510  0.0809
  606SOL    HW2 1774   0.684   2.125   3.227 -0.5369  1.2941 -0.8962
  607SOL     OW 1775   1.559   0.699   1.923 -0.2007 -0.1332  0.6755
  607SOL    HW1 1776   1.593   0.778   1.974  0.3135 -0.4764  0.8769
  607SOL    HW2 1777   1.586   0.707   1.827 -2.0083  0.9997  0.2198
  608SOL     OW 1778   2.610   1.831   0.983  0.0656  0.1064  0.1221
  608SOL    HW1 1779   2.656   1.891   1.048  1.4392 -0.8057  0.0383
  608SOL    HW2 1780   2.528   1.876   0.948 -0.0367  1.1010  1.5523
  609SOL     OW 1781   3.002   3.686   2.886 -0.2337 -0.0640 -0.1520
  609SOL    HW1 1782   3.069   3.616   2.912  0.3159  0.3574 -0.4245
  609SOL    HW2 1783   2.963   3.727   2.968 -0.5226 -0.6531  0.0101
  610SOL     OW 1784   0.531   0.360   3.563 -0.8035 -0.4894 -0.1499
  610SOL    HW1 1785   0.600   0.295   3.531  0.2681  0.7358 -0.4128
  610SOL    HW2 1786   0.461   0.372   3.492  1.2314  1.7551 -1.9647
  611SOL     OW 1787   2.520   1.180   1.689 -0.0863 -0.3179  0.4246
  611SOL    HW1 1788   2.562   1.193   1.599 -1.3862  0.0368 -0.1582
  611SOL    HW2 1789   2.590   1.158   1.756  0.7108 -2.4774 -1.0302
  612SOL     OW 1790   2.616   3.125   0.111 -0.1702 -0.6124  0.6749
  612SOL    HW1 1791   2.563   3.209   0.108 -0.5155 -0.8414 -0.6181
  612SOL    HW2 1792   2.710   3.144   0.082  0.3519 -0.3011  2.4678
  613SOL     OW 1793   3.588   2.015   3.529 -0.1431  0.0454  0.5076
  613SOL    HW1 1794   3.499   2.024   3.574  1.4197  1.6202  3.6413
  613SOL    HW2 1795   3.606   2.096   3.473 -0.0050  0.5751  1.2976
  614SOL     OW 1796   2.038   0.998   2.335 -0.0502 -0.5646 -0.6671
  614SOL    HW1 1797   1.938   0.995   2.340 -0.1458 -1.7888 -2.3512
  614SOL    HW2 1798   2.077   0.935   2.402 -0.3446  0.4552  0.5043
  615SOL     OW 1799   1.952   2.347   2.644 -0.0529  0.4219  0.4161
  615SOL    HW1 1800   2.048   2.323   2.637  0.0115  0.7801  0.0189
  615SOL    HW2 1801   1.917   2.322   2.734  0.6081  1.0062  0.8422
  616SOL     OW 1802   2.682   0.821   0.221 -0.4732  0.3535  0.1062
  616SOL    HW1 1803   2.688   0.757   0.298 -0.3690 -0.0902 -0.2653
  616SOL    HW2 1804   2.773   0.834   0.182 -0.6269  0.0549 -0.3610
  617SOL     OW 1805   0.692   2.505   2.665 -0.6824  0.2590 -0.2477
  617SOL    HW1 1806   0.603   2.533   2.701 -0.4099  0.3585  0.3770
  617SOL    HW2 1807   0.764   2.531   2.731 -0.0172  1.6337 -1.4532
  618SOL     OW 1808   0.378   0.136   2.829  0.1707 -0.0168  0.0910
  618SOL    HW1 1809   0.404   0.229   2.853 -0.8368  0.5142 -0.7840
  618SOL    HW2 1810   0.454   0.091   2.783  1.2758 -0.2435  2.0439
  619SOL     OW 1811   2.747   1.017   2.519  0.5134 -0.5693 -0.2981
  619SOL    HW1 1812   2.723   0.992   2.426  0.8308 -0.3899 -0.4315
  619SOL    HW2 1813   2.666   1.012   2.578  0.0686  0.3924 -0.8135
  620SOL     OW 1814   1.433   2.740   1.375  0.4988  0.0230 -0.0667
  620SOL    HW1 1815   1.399   2.776   1.288  0.4669 -0.0423 -0.0810
  620SOL    HW2 1816   1.471   2.648   1.361 -0.0765 -0.2424  0.1098
  621SOL     OW 1817   0.020   2.949   0.412  0.3810 -0.4900  0.0819
  621SOL    HW1 1818   0.017   2.922   0.508  0.5986 -0.8237 -0.0080
  621SOL    HW2 1819   0.030   2.869   0.354  0.3986 -0.2769 -0.2145
  622SOL     OW 1820   3.611   2.301   1.108  0.5612  0.3128  0.0441
  622SOL    HW1 1821   3.579   2.365   1.038  0.0860 -0.4158 -0.4159
  622SOL    HW2 1822   3.701   2.265   1.082  0.7229  0.6097  0.1867
  623SOL     OW 1823   2.070   3.548   0.881  0.0431 -0.1162 -0.6055
  623SOL    HW1 1824   2.137   3.566   0.954 -0.5781 -0.3498  0.0398
  623SOL    HW2 1825   2.116   3.507   0.803  0.4206 -1.8111  0.4472
  624SOL     OW 1826   2.166   2.144   1.779 -0.4382  0.2961  0.4865
  624SOL    HW1 1827   2.245   2.205   1.785 -0.4309  0.2745  0.6021
  624SOL    HW2 1828   2.083   2.198   1.767 -0.2004  0.2745 -1.7511
  625SOL     OW 1829   1.702   2.028   0.101  0.3132 -0.4336  0.0085
  625SOL    HW1 1830   1.698   2.048   0.003 -1.1538 -1.2715 -0.1364
  625SOL    HW2 1831   1.609   2.021   0.137  0.7590 -2.4563  0.9377
  626SOL     OW 1832   3.012   0.550   0.423  0.4688  0.2774  0.3314
  626SOL    HW1 1833   3.014   0.650   0.423 -0.1132  0.2903  0.0581
  626SOL    HW2 1834   2.995   0.518   0.516 -0.0153  0.4448  0.2993
  627SOL     OW 1835   1.957   2.613   2.340  0.0281 -0.2817  0.0244
  627SOL    HW1 1836   2.052   2.641   2.340 -0.3119  1.0200 -1.8295
  627SOL    HW2 1837   1.935   2.569   2.253 -1.4303  0.8296 -0.2029
  628SOL     OW 1838   1.871   0.687   0.593  0.7980 -0.3123  0.1313
  628SOL    HW1 1839   1.955   0.737   0.576  0.2275  0.6977  0.2052
  628SOL    HW2 1840   1.792   0.748   0.579  0.0933 -1.1207  0.4691
  629SOL     OW 1841   2.803   3.221   0.957 -0.7598  0.0577 -0.4527
  629SOL    HW1 1842   2.867   3.150   0.986 -1.4999 -0.1044  0.9123
  629SOL    HW2 1843   2.712   3.200   0.994 -1.5582  0.4153 -2.1165
  630SOL     OW 1844   0.721   3.689   0.691 -0.1830  0.4345 -0.1666
  630SOL    HW1 1845   0.679   3.736   0.769  0.1160 -0.3903  0.5080
  630SOL    HW2 1846   0.653   3.631   0.647 -0.7477  2.0012 -1.4433
  631SOL     OW 1847   3.245   2.277   2.916  0.4205 -0.1976  0.3357
  631SOL    HW1 1848   3.343   2.290   2.898  0.3149  0.1172 -0.0225
  631SOL    HW2 1849   3.231   2.190   2.963  0.8851 -0.1906  0.4949
  632SOL     OW 1850   0.868   0.684   2.470 -0.3552 -0.2451  0.4668
  632SOL    HW1 1851   0.896   0.769   2.514 -0.9969  0.0948  0.2397
  632SOL    HW2 1852   0.806   0.705   2.394 -1.9053 -0.9796  1.4645
  633SOL     OW 1853   0.302   1.301   1.704 -0.5955 -0.4097  0.1303
  633SOL    HW1 1854   0.269   1.239   1.774 -0.5137 -1.0568 -0.3955
  633SOL    HW2 1855   0.380   1.261   1.657 -0.1829  0.3340  0.1551
  634SOL     OW 1856   0.588   1.666   2.470  0.6035 -0.2452  0.3834
  634SOL    HW1 1857   0.582   1.617   2.384  0.3598  0.9300 -0.2957
  634SOL    HW2 1858   0.683   1.682   2.494  0.6727 -0.6595  0.3924
  635SOL     OW 1859   1.952   3.655   1.358 -0.0451 -0.1811 -0.2768
  635SOL    HW1 1860   1.977   3.564   1.327 -1.7516 -0.1077 -2.0939
  635SOL    HW2 1861   2.019   3.722   1.324  0.7657 -0.6417  0.3795
  636SOL     OW 1862   0.485   1.787   0.481  0.0265 -0.3093  0.0434
  636SOL    HW1 1863   0.506   1.838   0.398 -0.4378  0.5078  0.4091
  636SOL    HW2 1864   0.558   1.803   0.549 -0.0353 -0.2645  0.0996
  637SOL     OW 1865   0.537   0.582   1.222 -0.2037 -0.1418  0.0897
  637SOL    HW1 1866   0.451   0.632   1.211  0.7958  1.5743 -0.3432
  637SOL    HW2 1867   0.611   0.647   1.241  0.7413 -1.7098  2.1317
  638SOL     OW 1868   1.430   1.681   0.198 -0.2094 -0.1731  0.4850
  638SOL    HW1 1869   1.472   1.616   0.135  1.1159  0.7516  0.3887
  638SOL    HW2 1870   1.452   1.655   0.293  2.6064  1.5351  0.4067
  639SOL     OW 1871   1.832   3.167   3.619  0.1715  0.0037 -0.5180
  639SOL    HW1 1872   1.839   3.158   3.519  1.7583  0.2212 -0.4487
  639SOL    HW2 1873   1.749   3.121   3.650 -0.2342 -0.2719 -1.9099
  640SOL     OW 1874   1.049   2.581   3.284 -0.0725 -0.0786 -0.6336
  640SOL    HW1 1875   1.004   2.544   3.202 -0.0333 -0.6550 -0.4030
  640SOL    HW2 1876   1.083   2.505   3.340  0.2403  0.3222 -0.2721
  641SOL     OW 1877   0.725   0.353   0.726 -0.0971 -0.1606  0.3212
  641SOL    HW1 1878   0.650   0.419   0.726  0.7016  0.7622  0.2575
  641SOL    HW2 1879   0.715   0.291   0.647 -1.4797 -0.8759  1.0248
  642SOL     OW 1880   0.576   1.252   0.811 -0.4612 -0.5866  0.1660
  642SOL    HW1 1881   0.597   1.167   0.763  0.6113 -0.1300 -0.2106
  642SOL    HW2 1882   0.478   1.269   0.807 -0.4447 -0.7385 -1.5692
  643SOL     OW 1883   1.853   2.857   2.342  0.4446 -0.3022 -0.6753
  643SOL    HW1 1884   1.784   2.864   2.269  0.8190 -0.1731 -1.0199
  643SOL    HW2 1885   1.892   2.765   2.341  0.5888 -0.2402 -0.7653
  644SOL     OW 1886   0.426   0.462   2.376  0.0969 -0.1421  0.0537
  644SOL    HW1 1887   0.396   0.527   2.306 -0.8706  0.6780  1.1958
  644SOL    HW2 1888   0.405   0.498   2.466 -2.2684 -2.8854  0.7321
  645SOL     OW 1889   1.165   2.588   0.693 -0.9868 -0.2619  0.3861
  645SOL    HW1 1890   1.181   2.650   0.770  0.2507  0.4817 -0.4362
  645SOL    HW2 1891   1.141   2.497   0.728  1.3506 -0.4394  1.7254
  646SOL     OW 1892   0.496   1.702   3.468 -0.2908  0.4325  0.5823
  646SOL    HW1 1893   0.447   1.615   3.479 -0.5393 -0.1033 -3.4171
  646SOL    HW2 1894   0.594   1.684   3.466 -0.2612  0.4907  1.1714
  647SOL     OW 1895   1.234   0.049   2.435 -0.1082 -0.4159  0.3286
  647SOL    HW1 1896   1.295  -0.015   2.388  2.0138  0.9787  1.0340
  647SOL    HW2 1897   1.288   0.119   2.481 -2.1404 -0.5961  3.2562
  648SOL     OW 1898   3.450   1.983   0.190  0.2659 -0.1377  0.2790
  648SOL    HW1 1899   3.484   2.069   0.154 -1.0078  0.3126  0.1063
  648SOL    HW2 1900   3.475   1.908   0.129  0.6997  0.2159  0.0227
  649SOL     OW 1901   1.775   0.221   1.955  0.1528  0.5290 -0.2138
  649SOL    HW1 1902   1.801   0.186   1.865 -2.5057 -0.2139 -0.7833
  649SOL    HW2 1903   1.769   0.321   1.952  0.3330  0.5248 -0.7893
  650SOL     OW 1904   2.063   1.625   3.598  0.8719  0.3274  0.3169
  650SOL    HW1 1905   2.024   1.713   3.572 -0.0323 -0.2401 -0.3381
  650SOL    HW2 1906   2.051   1.610   3.696 -4.1303 -1.4032 -0.2903
  651SOL     OW 1907  -0.014   2.132   0.833  0.1446  0.2544  0.2147
  651SOL    HW1 1908   0.050   2.202   0.803  0.5405  0.5806  1.7384
  651SOL    HW2 1909   0.023   2.041   0.811  0.0838  0.4754 -0.8755
  652SOL     OW 1910   0.162   1.756   0.196  0.0990  0.4330  0.2462
  652SOL    HW1 1911   0.138   1.710   0.281  1.9498  0.4108  0.7898
  652SOL    HW2 1912   0.139   1.698   0.119  2.7072 -1.6830  0.9115
  653SOL     OW 1913   2.536   2.555   2.907 -0.6772  0.3978  0.3132
  653SOL    HW1 1914   2.563   2.512   2.993 -1.0229 -1.2124 -0.3492
  653SOL    HW2 1915   2.603   2.626   2.883  0.0188  0.1185  1.3453
  654SOL     OW 1916   1.107   3.579   1.827  0.4114  0.1414  0.7534
  654SOL    HW1 1917   1.116   3.485   1.795  0.7859  0.6095 -0.5752
  654SOL    HW2 1918   1.054   3.632   1.761  1.3901  1.1982  0.7782
  655SOL     OW 1919   0.646   2.394   2.436  0.4031 -0.1617 -0.4399
  655SOL    HW1 1920   0.656   2.454   2.515  1.9974 -0.7504 -0.1572
  655SOL    HW2 1921   0.554   2.356   2.434  0.4652 -0.4561  1.3621
  656SOL     OW 1922   1.401   0.450   3.108  0.5201 -0.0104  0.6237
  656SOL    HW1 1923   1.336   0.499   3.165  0.9330 -0.0647  1.1480
  656SOL    HW2 1924   1.374   0.353   3.102 -0.3221  0.2666 -0.4529
  657SOL     OW 1925   2.860   1.761   2.951  0.0233  0.1530  0.1562
  657SOL    HW1 1926   2.853   1.856   2.982  1.7742  0.1304  0.7478
  657SOL    HW2 1927   2.953   1.728   2.967 -0.6837 -1.8240  0.3799
  658SOL     OW 1928   0.305   3.163   3.414  0.3904  0.1623 -0.1769
  658SOL    HW1 1929   0.254   3.136   3.332 -0.3590 -0.9456  0.6220
  658SOL    HW2 1930   0.399   3.128   3.408  0.2431 -0.2045 -0.4246
  659SOL     OW 1931   2.711   1.656   3.629  0.1357  0.3859 -0.5068
  659SOL    HW1 1932   2.679   1.720   3.699 -1.0475 -0.9979  0.2985
  659SOL    HW2 1933   2.796   1.613   3.660 -0.2208  0.0050 -0.0322
  660SOL     OW 1934   3.572   0.573   1.628 -0.0427  0.2473 -0.3844
  660SOL    HW1 1935   3.595   0.490   1.577  2.2120 -0.1606  1.1486
  660SOL    HW2 1936   3.631   0.648   1.598  1.5226 -0.0700  1.6891
  661SOL     OW 1937   2.639   3.002   2.661  0.0611  0.2514 -0.0463
  661SOL    HW1 1938   2.549   3.038   2.687 -0.3351  0.1084 -1.1726
  661SOL    HW2 1939   2.706   3.076   2.661 -0.2619  0.5457 -0.1296
  662SOL     OW 1940   1.559   2.955   0.716 -0.0204 -0.2953 -0.3670
  662SOL    HW1 1941   1.521   3.042   0.745  0.0837 -0.5773  0.6419
  662SOL    HW2 1942   1.490   2.903   0.665 -0.6414 -0.3507  0.5175
  663SOL     OW 1943   0.345   1.412   0.839 -0.1254  0.1142 -0.5418
  663SOL    HW1 1944   0.269   1.445   0.783  0.4271  0.7405 -0.9347
  663SOL    HW2 1945   0.314   1.404   0.934  0.3165  4.2829  0.1312
  664SOL     OW 1946   2.822   0.148   0.133 -0.1310  0.2592  0.4311
  664SOL    HW1 1947   2.768   0.070   0.102 -0.6585  0.6318  0.4022
  664SOL    HW2 1948   2.900   0.116   0.186 -0.7979 -0.2614  1.1218
  665SOL     OW 1949   2.146   2.712   0.979 -0.9054  0.1847  0.3145
  665SOL    HW1 1950   2.240   2.725   0.948 -0.8296 -0.2147  0.3764
  665SOL    HW2 1951   2.085   2.711   0.900 -0.6188 -1.6969  0.0723
  666SOL     OW 1952   2.212   2.364   3.049  0.0668  0.4679 -0.5540
  666SOL    HW1 1953   2.268   2.288   3.016  0.1941  1.5344 -3.0258
  666SOL    HW2 1954   2.196   2.428   2.974 -3.5968  0.7830  0.3100
  667SOL     OW 1955   2.609   0.893   3.267 -0.1452  0.2567 -0.0666
  667SOL    HW1 1956   2.510   0.900   3.263 -0.2503 -1.1019 -0.6293
  667SOL    HW2 1957   2.650   0.977   3.231 -1.0941  0.4964 -0.6251
  668SOL     OW 1958   0.732   3.518   1.156 -0.4172 -0.2463 -0.2984
  668SOL    HW1 1959   0.763   3.513   1.061  0.8219  1.5045 -0.0456
  668SOL    HW2 1960   0.801   3.478   1.216  0.2830  1.4252  0.0721
  669SOL     OW 1961   2.710   2.567   0.914  0.3705  0.6564  0.4866
  669SOL    HW1 1962   2.743   2.480   0.876  0.6304 -0.8665  3.8699
  669SOL    HW2 1963   2.618   2.555   0.951  1.2893  1.0762  3.0846
  670SOL     OW 1964   3.002   0.048   0.313  0.6560 -0.2391 -0.5386
  670SOL    HW1 1965   3.003   0.115   0.388 -1.4855  1.9003 -2.2491
  670SOL    HW2 1966   3.087   0.057   0.261  1.2784 -0.3141  0.4278
  671SOL     OW 1967   2.651   1.443   0.498  0.0716 -0.0919  0.4180
  671SOL    HW1 1968   2.680   1.480   0.587 -0.9273  0.6701  0.4607
  671SOL    HW2 1969   2.640   1.519   0.433 -0.0531 -0.5438 -0.0937
  672SOL     OW 1970   1.573   0.155   0.587  0.4631  0.1858 -0.0105
  672SOL    HW1 1971   1.657   0.103   0.571  0.6550 -0.3542  2.2920
  672SOL    HW2 1972   1.593   0.253   0.587  0.6159  0.1861 -1.7022
  673SOL     OW 1973   3.001   1.813   3.650 -0.0673 -0.2346 -0.7209
  673SOL    HW1 1974   2.986   1.715   3.637 -1.8308  0.0775 -1.3252
  673SOL    HW2 1975   3.004   1.833   3.748  1.5720 -1.0287 -0.5722
  674SOL     OW 1976   3.653   2.794   2.133 -0.0345 -0.2016 -0.1362
  674SOL    HW1 1977   3.678   2.817   2.227 -1.5452 -0.7751  0.4333
  674SOL    HW2 1978   3.635   2.696   2.127  2.0121 -0.5700 -1.5212
  675SOL     OW 1979   2.139   1.438   1.584  0.2074 -0.0619 -0.3937
  675SOL    HW1 1980   2.201   1.365   1.612  0.0768 -0.2344 -0.5564
  675SOL    HW2 1981   2.168   1.475   1.495 -0.2589 -0.5357 -0.7490
  676SOL     OW 1982   0.507   2.665   1.789  0.7124 -0.7461 -0.1577
  676SOL    HW1 1983   0.604   2.645   1.778  0.6939 -0.5400 -0.7183
  676SOL    HW2 1984   0.494   2.736   1.859  0.9915 -0.4561 -0.4028
  677SOL     OW 1985   1.725   0.919   2.942 -0.1387  0.5366  0.7965
  677SOL    HW1 1986   1.702   0.903   3.038 -1.6904 -2.3053  0.0400
  677SOL    HW2 1987   1.809   0.872   2.919  0.9415  2.2745  1.0017
  678SOL     OW 1988   3.380   2.294   1.539  0.1585 -0.2606  0.5907
  678SOL    HW1 1989   3.365   2.392   1.554  1.4537 -0.0044  0.2822
  678SOL    HW2 1990   3.432   2.280   1.455  2.4153 -1.0171  2.0192
  679SOL     OW 1991   3.065   2.394   2.527 -0.3409  0.6539 -0.6793
  679SOL    HW1 1992   3.000   2.389   2.603 -1.6073  3.3781 -1.4611
  679SOL    HW2 1993   3.144   2.336   2.547 -1.9312 -0.9571  1.3589
  680SOL     OW 1994   2.541   2.585   3.686  0.4612  0.0204 -0.0290
  680SOL    HW1 1995   2.539   2.683   3.665 -0.2347  0.1864  0.7349
  680SOL    HW2 1996   2.634   2.557   3.706  0.6897  0.4969 -0.4018
  681SOL     OW 1997   0.254   3.124   1.811 -0.2571  0.2568  0.3995
  681SOL    HW1 1998   0.345   3.093   1.784 -0.0905 -0.0458  1.2545
  681SOL    HW2 1999   0.200   3.045   1.840 -0.3243  0.5808  1.1927
  682SOL     OW 2000   3.382   1.911   0.442 -0.0462  0.3631  0.3717
  682SOL    HW1 2001   3.358   1.973   0.517  0.8030  0.1615  0.8186
  682SOL    HW2 2002   3.398   1.964   0.358 -0.2987  0.6553  0.5096
  683SOL     OW 2003   3.515   1.936   2.167  0.0531 -0.3913 -0.5819
  683SOL    HW1 2004   3.538   2.015   2.110  1.8808  0.2561  0.9500
  683SOL    HW2 2005   3.597   1.904   2.214 -1.3960 -0.6589  1.9417
  684SOL     OW 2006   1.625   2.653   0.125 -0.3183  0.1635 -0.0898
  684SOL    HW1 2007   1.539   2.636   0.076  0.0007 -0.5609 -0.4171
  684SOL    HW2 2008   1.611   2.642   0.223 -0.5158 -0.3418 -0.1723
  685SOL     OW 2009   2.198   0.311   1.414 -0.2899 -0.0348 -0.3617
  685SOL    HW1 2010   2.261   0.279   1.485 -0.7687 -0.1921  0.0021
  685SOL    HW2 2011   2.129   0.371   1.455 -0.2762  0.2716 -0.7828
  686SOL     OW 2012   1.610   1.264   0.011 -0.5129  0.1659  0.1737
  686SOL    HW1 2013   1.534   1.204   0.035 -1.6542  1.6346  0.4049
  686SOL    HW2 2014   1.691   1.209  -0.010 -2.0977 -1.5560 -1.8620
  687SOL     OW 2015   3.663   2.568   3.444  0.3334 -0.2295  0.5735
  687SOL    HW1 2016   3.586   2.584   3.383  0.4827 -1.1215  0.1506
  687SOL    HW2 2017   3.631   2.571   3.539 -0.1948 -0.4906  0.4049
  688SOL     OW 2018   2.280   3.609   1.107  0.0233 -0.4345 -0.3255
  688SOL    HW1 2019   2.332   3.573   1.185 -0.1108  1.2243  0.5909
  688SOL    HW2 2020   2.344   3.635   1.034  0.6530  2.0072  0.9629
  689SOL     OW 2021   1.054   2.192   0.050 -0.3283  0.0523 -0.1371
  689SOL    HW1 2022   0.989   2.132   0.002 -0.5749 -0.1059  0.3948
  689SOL    HW2 2023   1.071   2.157   0.142  0.3093  0.2416 -0.1763
  690SOL     OW 2024   1.272   0.357   2.720 -0.2370 -0.2369 -0.2166
  690SOL    HW1 2025   1.188   0.385   2.672 -1.4719 -1.1965  1.2920
  690SOL    HW2 2026   1.250   0.285   2.785  2.0648 -1.5832 -0.8437
  691SOL     OW 2027   1.285   3.120   0.292  0.0671 -0.0855  0.2737
  691SOL    HW1 2028   1.271   3.093   0.197  2.1711 -1.1663  0.2163
  691SOL    HW2 2029   1.252   3.214   0.305 -0.1192  0.1422 -1.5434
  692SOL     OW 2030   0.434   3.070   1.098  0.3520  0.3192  0.3131
  692SOL    HW1 2031   0.416   3.135   1.172 -1.0007 -1.1208  1.3354
  692SOL    HW2 2032   0.474   3.118   1.020  0.6588  2.1093  1.5078
  693SOL     OW 2033   0.866   0.343   2.870  0.0854 -0.0846  0.5007
  693SOL    HW1 2034   0.844   0.422   2.812 -0.2874 -0.8492 -0.4238
  693SOL    HW2 2035   0.957   0.356   2.910 -0.0078  0.8549  0.4414
  694SOL     OW 2036   1.071   1.359   1.242  0.6862 -0.3073  0.2903
  694SOL    HW1 2037   1.151   1.299   1.256  0.2446 -1.1221 -0.5476
  694SOL    HW2 2038   1.009   1.316   1.176  0.7961  1.5186 -1.0684
  695SOL     OW 2039   3.371   1.680   1.310 -0.1113 -0.2713  0.1484
  695SOL    HW1 2040   3.301   1.751   1.306 -1.5841 -1.7161 -0.6401
  695SOL    HW2 2041   3.406   1.663   1.218  1.4989  0.5914  0.5567
  696SOL     OW 2042   2.894   0.799   0.654 -0.2962  0.2264 -0.0886
  696SOL    HW1 2043   2.831   0.858   0.705 -0.6074  0.2433 -0.4895
  696SOL    HW2 2044   2.844   0.749   0.584  0.2991  0.9962 -1.0838
  697SOL     OW 2045   1.040   2.034   0.549 -0.3352 -0.1822  0.7301
  697SOL    HW1 2046   0.964   2.097   0.561 -0.0167  0.1522  1.0492
  697SOL    HW2 2047   1.005   1.941   0.534 -0.8031 -0.0413  0.9270
  698SOL     OW 2048   2.504   2.257   1.580 -0.1143 -0.2398 -0.2487
  698SOL    HW1 2049   2.564   2.177   1.572 -0.7181 -0.6074 -1.2347
  698SOL    HW2 2050   2.527   2.323   1.509 -0.5286 -0.1402 -0.2918
  699SOL     OW 2051   2.300   3.279   1.279 -0.3081 -0.1548  0.6449
  699SOL    HW1 2052   2.382   3.331   1.253 -0.7276  0.5583  0.7400
  699SOL    HW2 2053   2.260   3.239   1.196 -0.3003  0.1372  0.4975
  700SOL     OW 2054   3.544   0.601   3.594 -0.9118  0.3118 -0.1983
  700SOL    HW1 2055   3.462   0.659   3.588 -2.3503 -1.6641 -0.7478
  700SOL    HW2 2056   3.625   0.656   3.576 -1.8094  2.9140  2.8149
  701SOL     OW 2057   1.706   1.076   2.610 -0.0844  0.5972  0.2474
  701SOL    HW1 2058   1.715   1.031   2.521  0.5639  0.0866  0.5581
  701SOL    HW2 2059   1.610   1.088   2.633 -0.2692 -0.3183 -0.0089
  702SOL     OW 2060   1.898   3.318   1.095  0.4517 -0.6747 -0.2327
  702SOL    HW1 2061   1.847   3.398   1.062  0.0952 -1.4403 -1.6271
  702SOL    HW2 2062   1.934   3.337   1.186  2.2844  1.9262 -1.3801
  703SOL     OW 2063   0.345   0.200   0.695  0.2517 -0.2383 -0.4878
  703SOL    HW1 2064   0.392   0.162   0.615  0.8252  0.2253 -0.3688
  703SOL    HW2 2065   0.334   0.299   0.684 -0.6031 -0.3162 -0.4620
  704SOL     OW 2066   2.903   0.177   0.524  0.3614 -0.4857  0.2322
  704SOL    HW1 2067   2.932   0.129   0.607 -0.3875  1.5414  1.7410
  704SOL    HW2 2068   2.829   0.126   0.480 -0.5003 -0.6923  1.8523
  705SOL     OW 2069   0.480   3.218   0.826 -0.7009  0.0133  0.1709
  705SOL    HW1 2070   0.454   3.144   0.763 -1.7207 -0.4211  1.0591
  705SOL    HW2 2071   0.574   3.246   0.808 -0.3191 -1.4491 -0.2516
  706SOL     OW 2072   0.735   3.669   0.402  0.2182 -0.1728  0.0409
  706SOL    HW1 2073   0.674   3.591   0.387  0.4999 -0.0984 -1.6562
  706SOL    HW2 2074   0.713   3.711   0.490  0.0873 -2.1697  1.0342
  707SOL     OW 2075   1.041   1.546   2.322  0.1004  0.5823 -0.0412
  707SOL    HW1 2076   1.038   1.624   2.259 -0.5779  0.1842 -0.5108
  707SOL    HW2 2077   1.134   1.509   2.323  0.1358  0.6260 -0.7732
  708SOL     OW 2078   0.490   2.638   1.509 -0.1376  0.2974 -1.0765
  708SOL    HW1 2079   0.484   2.631   1.609 -1.6373 -0.9124 -1.2110
  708SOL    HW2 2080   0.551   2.713   1.484 -0.0277  0.8579  0.7429
  709SOL     OW 2081   1.273   1.170   1.280 -0.2870  0.1585  0.4565
  709SOL    HW1 2082   1.288   1.072   1.287  0.6576  0.1463 -1.2258
  709SOL    HW2 2083   1.275   1.211   1.371 -3.7739 -1.7256  1.5547
  710SOL     OW 2084   2.008   0.424   1.560 -0.1163 -0.4907  0.3114
  710SOL    HW1 2085   1.970   0.467   1.478  1.1803 -0.1130 -0.1235
  710SOL    HW2 2086   2.041   0.494   1.623  4.6931 -0.6027 -1.6603
  711SOL     OW 2087   0.812   1.216   3.062  0.3077  0.2242  0.5493
  711SOL    HW1 2088   0.893   1.231   3.005  0.3911 -0.0401  0.5915
  711SOL    HW2 2089   0.768   1.130   3.035 -1.0659  1.3026 -0.7498
  712SOL     OW 2090   1.438   1.123   2.704 -0.0814 -0.3246 -0.0214
  712SOL    HW1 2091   1.365   1.154   2.643 -0.1481 -1.0538 -0.3309
  712SOL    HW2 2092   1.407   1.042   2.754  0.4037 -0.4450  0.0869
  713SOL     OW 2093   0.901   0.793   3.030  0.6765 -0.2137 -0.1876
  713SOL    HW1 2094   0.880   0.713   3.085  1.7427 -0.7856 -0.5790
  713SOL    HW2 2095   0.999   0.796   3.012  0.4209  0.1813 -1.6909
  714SOL     OW 2096   3.625   0.457   2.290  0.2160 -0.8692 -0.6256
  714SOL    HW1 2097   3.542   0.454   2.345  0.6351  1.3413  0.2167
  714SOL    HW2 2098   3.701   0.419   2.342  0.3242 -0.1078 -0.2213
  715SOL     OW 2099   0.352   0.650   2.212 -0.4400  0.4738 -0.2063
  715SOL    HW1 2100   0.267   0.693   2.245 -0.9654  1.0335 -2.1546
  715SOL    HW2 2101   0.411   0.720   2.173  0.1917 -0.1550 -0.3916
  716SOL     OW 2102   0.833   1.449   3.730  0.0175  0.2488  0.1913
  716SOL    HW1 2103   0.932   1.446   3.745 -0.0301  0.3717  0.5556
  716SOL    HW2 2104   0.810   1.405   3.643  0.2827 -0.9057  0.6770
  717SOL     OW 2105   2.768   2.363   2.639 -0.6549 -0.0252 -0.6293
  717SOL    HW1 2106   2.839   2.346   2.708  1.5393  0.9631 -2.4945
  717SOL    HW2 2107   2.759   2.283   2.580 -2.1871 -0.6879  0.4399
  718SOL     OW 2108   1.142   3.280   3.205 -0.2306  0.5359  0.7358
  718SOL    HW1 2109   1.135   3.195   3.257 -0.0004 -0.0196 -0.1224
  718SOL    HW2 2110   1.219   3.334   3.239  1.0422 -0.6369 -0.1558
  719SOL     OW 2111   2.649   0.102   0.391 -0.1280 -0.2679  0.1426
  719SOL    HW1 2112   2.671   0.129   0.298 -0.2967  0.3999  0.2912
  719SOL    HW2 2113   2.594   0.018   0.389  0.1602 -0.4459 -0.3403
  720SOL     OW 2114   0.576   0.977   0.309 -0.1613 -0.2937 -0.0599
  720SOL    HW1 2115   0.543   0.989   0.215 -1.6297 -2.2405  0.1416
  720SOL    HW2 2116   0.643   1.049   0.330 -0.2479  0.5594 -2.3599
  721SOL     OW 2117   3.181   0.266   3.150 -0.5199  0.1733 -0.2558
  721SOL    HW1 2118   3.214   0.298   3.061  2.3893  1.5009  1.1541
  721SOL    HW2 2119   3.130   0.340   3.195 -1.3172 -0.2262 -0.4955
  722SOL     OW 2120   3.017   2.765   0.239  0.1124  0.2073 -0.1529
  722SOL    HW1 2121   3.030   2.832   0.166 -1.4550  0.9909  0.2360
  722SOL    HW2 2122   3.083   2.783   0.313  0.7038  0.3515 -0.7048
  723SOL     OW 2123   0.185   0.712   0.312  0.2678 -0.2025  0.2711
  723SOL    HW1 2124   0.106   0.665   0.350 -0.3134 -0.5886 -1.3264
  723SOL    HW2 2125   0.154   0.782   0.248  1.2045  0.3790  0.4292
  724SOL     OW 2126   3.472   1.054   3.168  0.5017 -0.3697  0.4257
  724SOL    HW1 2127   3.400   1.102   3.218 -0.0459 -0.9669  0.2244
  724SOL    HW2 2128   3.542   1.119   3.140 -1.5763  0.8769 -2.3185
  725SOL     OW 2129   0.395   0.053   3.404  1.1618  0.0082  0.4881
  725SOL    HW1 2130   0.445  -0.015   3.459 -2.2115 -2.0762  1.2426
  725SOL    HW2 2131   0.329   0.006   3.345 -0.5200  2.5858  0.1842
  726SOL     OW 2132   0.742   2.198   2.696  0.1918 -0.1131 -0.3135
  726SOL    HW1 2133   0.722   2.296   2.693  0.9096  0.1208  1.3984
  726SOL    HW2 2134   0.697   2.157   2.775  0.0033 -1.1535 -0.9426
  727SOL     OW 2135   2.871   1.740   0.925  0.1987  0.1499 -0.0993
  727SOL    HW1 2136   2.779   1.742   0.964  0.5231  0.3684  0.6651
  727SOL    HW2 2137   2.924   1.819   0.957  0.9837 -0.5196  0.3039
  728SOL     OW 2138   2.489   3.406   1.131 -0.2711 -0.3327 -0.4939
  728SOL    HW1 2139   2.530   3.317   1.111  0.6288  0.2685 -1.4292
  728SOL    HW2 2140   2.446   3.442   1.048  1.1220  0.9830 -0.6891
  729SOL     OW 2141   0.990   0.631   1.266  0.1295 -0.0595 -0.0030
  729SOL    HW1 2142   1.047   0.663   1.190 -0.7929  0.5477 -0.4617
  729SOL    HW2 2143   0.932   0.556   1.235 -0.1516  0.0960  0.1443
  730SOL     OW 2144   0.758   2.081   1.683  0.7435 -0.1313 -0.0589
  730SOL    HW1 2145   0.672   2.131   1.693  1.7984  1.6419  0.6202
  730SOL    HW2 2146   0.749   1.990   1.721 -0.8353  0.0302 -0.0059
  731SOL     OW 2147   1.710   1.310   0.443 -0.4265  0.1449 -0.6799
  731SOL    HW1 2148   1.653   1.331   0.364 -0.0599 -0.1871 -1.0353
  731SOL    HW2 2149   1.743   1.395   0.484 -1.4903  0.3506 -0.2355
  732SOL     OW 2150   3.588   0.398   0.750 -0.1634 -0.5681  0.0668
  732SOL    HW1 2151   3.626   0.348   0.828 -1.1851 -0.5723  0.5829
  732SOL    HW2 2152   3.597   0.496   0.765  1.0652 -0.5568 -0.5560
  733SOL     OW 2153   0.364   0.240   0.141  0.0460 -0.5883  0.1708
  733SOL    HW1 2154   0.318   0.240   0.053 -1.4988 -0.2301  0.9379
  733SOL    HW2 2155   0.382   0.335   0.169  0.3194 -0.6919  0.3540
  734SOL     OW 2156   1.045   0.440   2.569 -0.3717  0.5313  0.5203
  734SOL    HW1 2157   1.076   0.535   2.561  1.1978 -0.0907 -2.1238
  734SOL    HW2 2158   0.974   0.423   2.500  0.2515 -0.5155  0.1166
  735SOL     OW 2159   1.406   2.288   2.631  0.0210  0.0093 -0.2246
  735SOL    HW1 2160   1.412   2.191   2.611 -1.3750 -0.2947  0.7037
  735SOL    HW2 2161   1.319   2.308   2.676  0.8498  1.4687  0.8349
  736SOL     OW 2162   2.496   1.802   3.135 -0.2260 -0.0769  0.2264
  736SOL    HW1 2163   2.511   1.828   3.040 -0.2710  1.9087  0.7197
  736SOL    HW2 2164   2.574   1.749   3.168  0.3306  0.2205 -0.5795
  737SOL     OW 2165   2.582   0.202   2.099 -0.3983  0.7050 -0.8082
  737SOL    HW1 2166   2.670   0.163   2.074 -0.4027  0.1969 -0.0774
  737SOL    HW2 2167   2.595   0.293   2.138 -0.3744  1.4137 -2.3925
  738SOL     OW 2168   2.886   1.421   1.447  0.3036  0.2360 -0.2659
  738SOL    HW1 2169   2.934   1.334   1.451  0.6334  0.4179 -0.2232
  738SOL    HW2 2170   2.834   1.427   1.361 -0.3547 -0.3247  0.0801
  739SOL     OW 2171   3.232   3.498   3.516  0.1382  0.0781 -0.1205
  739SOL    HW1 2172   3.283   3.448   3.586 -1.7152 -0.2904  1.0586
  739SOL    HW2 2173   3.292   3.520   3.439  2.1371  0.1101  1.3770
  740SOL     OW 2174   3.432   2.284   0.245 -0.1556  0.4763 -0.3295
  740SOL    HW1 2175   3.454   2.318   0.336 -0.8552  2.3055 -0.7913
  740SOL    HW2 2176   3.517   2.267   0.194  0.2541 -1.1256  0.8103
  741SOL     OW 2177   1.655   3.602   2.185 -0.1778 -0.1775  0.5183
  741SOL    HW1 2178   1.651   3.505   2.162  2.5664 -0.1176 -0.5707
  741SOL    HW2 2179   1.632   3.656   2.104 -1.2674  0.1099  1.0047
  742SOL     OW 2180   0.067   1.408   0.278  0.2448  0.1357  0.2706
  742SOL    HW1 2181   0.076   1.328   0.337  1.4226 -0.3027 -0.4538
  742SOL    HW2 2182   0.047   1.378   0.184  0.4135  0.6925  0.0502
  743SOL     OW 2183   2.194   0.959   1.554 -0.3283 -0.0137  0.4722
  743SOL    HW1 2184   2.184   1.055   1.582 -2.0647 -0.3602  1.1296
  743SOL    HW2 2185   2.236   0.907   1.628 -0.8104 -0.0512  0.7248
  744SOL     OW 2186   1.374   0.468   2.405  0.6567  0.2065 -0.3287
  744SOL    HW1 2187   1.399   0.383   2.451 -2.4077  0.0961  1.4134
  744SOL    HW2 2188   1.394   0.461   2.308  2.5397 -1.5793  0.1158
  745SOL     OW 2189   2.807   2.354   0.491 -0.6103  0.2151 -0.2754
  745SOL    HW1 2190   2.883   2.291   0.472 -1.4166 -0.6230 -0.8364
  745SOL    HW2 2191   2.841   2.448   0.491  0.6416 -0.2067  0.6537
  746SOL     OW 2192   1.658   1.495   1.664  0.2216  0.0402  0.1525
  746SOL    HW1 2193   1.638   1.530   1.756 -1.2296  2.2828 -0.9391
  746SOL    HW2 2194   1.755   1.468   1.659  1.8378  4.7274  0.9942
  747SOL     OW 2195   1.350   2.038   1.685 -0.0122  0.0002  0.8061
  747SOL    HW1 2196   1.385   1.947   1.663 -0.7982 -0.4910  1.5267
  747SOL    HW2 2197   1.348   2.094   1.602 -0.3737 -0.9328  0.1674
  748SOL     OW 2198   0.447   2.480   1.042 -0.5386 -0.0230 -0.4987
  748SOL    HW1 2199   0.371   2.455   0.982  0.4849 -2.7293 -0.8426
  748SOL    HW2 2200   0.523   2.417   1.027  0.9053  1.1168  1.5017
  749SOL     OW 2201   1.158   3.390   0.017  0.3013  0.1269  0.1665
  749SOL    HW1 2202   1.142   3.292   0.011 -0.4502  0.0827  2.1890
  749SOL    HW2 2203   1.257   3.408   0.014  0.4062 -0.4687 -2.1769
  750SOL     OW 2204   2.774   1.655   0.669 -0.6498  0.2103  0.6965
  750SOL    HW1 2205   2.683   1.646   0.710 -0.6957  0.1343  0.5775
  750SOL    HW2 2206   2.841   1.673   0.741 -0.9315  1.4947  0.6615
  751SOL     OW 2207   1.297   2.942   0.521  0.0216  0.4460  0.1780
  751SOL    HW1 2208   1.355   2.863   0.501  0.2817  0.8440 -0.6592
  751SOL    HW2 2209   1.294   3.003   0.442 -0.4707  1.0991  0.6852
  752SOL     OW 2210   0.290   2.446   1.314  0.2456 -0.0278  0.2397
  752SOL    HW1 2211   0.350   2.490   1.380  0.3490  0.9729 -0.5004
  752SOL    HW2 2212   0.332   2.449   1.223  0.1191 -1.4061  0.1084
  753SOL     OW 2213   3.686   1.524   1.448  0.1320  0.6977 -0.1481
  753SOL    HW1 2214   3.663   1.579   1.528  0.9363  1.2239 -0.2623
  753SOL    HW2 2215   3.717   1.433   1.478  0.6388  0.9661  0.1593
  754SOL     OW 2216   1.036   3.353   1.495  0.8415  0.1785 -0.5778
  754SOL    HW1 2217   0.943   3.343   1.459  0.7076  0.6988 -0.3861
  754SOL    HW2 2218   1.090   3.411   1.435  1.5357 -1.4068 -1.5411
  755SOL     OW 2219   2.816   2.010   3.551  0.5287 -0.3192  0.4301
  755SOL    HW1 2220   2.763   2.043   3.629 -0.1830 -0.5329  0.0460
  755SOL    HW2 2221   2.876   1.935   3.580  0.4906 -0.1937  0.8289
  756SOL     OW 2222   2.251   3.275   3.044 -0.3129  0.2525  0.0381
  756SOL    HW1 2223   2.190   3.348   3.015 -0.3023  0.3565  0.2776
  756SOL    HW2 2224   2.197   3.196   3.074 -0.3267  0.2916  0.1148
  757SOL     OW 2225   1.361   2.325   0.901 -0.0593 -0.0177 -0.1587
  757SOL    HW1 2226   1.311   2.270   0.834 -1.0112 -0.7489  1.1024
  757SOL    HW2 2227   1.302   2.345   0.979  1.0989  0.5663  0.6022
  758SOL     OW 2228   0.086   0.133   1.940  0.3263 -0.1562  0.1445
  758SOL    HW1 2229   0.169   0.145   1.886 -0.1289 -2.6639 -1.2337
  758SOL    HW2 2230   0.081   0.206   2.009  1.3604  2.6894 -2.5476
  759SOL     OW 2231   1.204   0.470   3.354  0.3169  0.1188  0.2038
  759SOL    HW1 2232   1.219   0.568   3.339  1.9000 -0.3394 -1.7183
  759SOL    HW2 2233   1.219   0.449   3.450  3.7860  1.2506  0.0913
  760SOL     OW 2234   1.147   0.948   2.984 -0.0524 -0.4330  0.1902
  760SOL    HW1 2235   1.228   0.965   3.040  0.5368 -1.3418 -0.3626
  760SOL    HW2 2236   1.103   1.035   2.961  0.3116  0.0096  1.1572
  761SOL     OW 2237   3.554   0.823   2.249  0.0114  0.1126  0.3603
  761SOL    HW1 2238   3.546   0.788   2.342  1.1041 -1.1206  0.0181
  761SOL    HW2 2239   3.551   0.747   2.184  0.6932  0.8085 -0.5185
  762SOL     OW 2240   3.111   2.073   3.663 -0.0382 -0.4593  0.1881
  762SOL    HW1 2241   3.027   2.097   3.614 -0.1292  0.5576  0.8102
  762SOL    HW2 2242   3.111   1.975   3.683 -0.6676 -0.6274 -0.5703
  763SOL     OW 2243   2.566   1.852   0.089  0.2013  0.0670 -0.0128
  763SOL    HW1 2244   2.621   1.935   0.097 -0.1563  0.5896 -2.2880
  763SOL    HW2 2245   2.508   1.857   0.007  1.1077 -2.9504 -0.9885
  764SOL     OW 2246   1.561   2.816   3.043 -0.1609 -0.0323 -0.0351
  764SOL    HW1 2247   1.494   2.794   2.973 -0.1249  0.0400 -0.0930
  764SOL    HW2 2248   1.560   2.915   3.060 -1.0182 -0.1962  0.9252
  765SOL     OW 2249   3.669   3.231   3.725  0.0293  0.0441 -0.4671
  765SOL    HW1 2250   3.755   3.254   3.679  0.3037  0.0899  0.0580
  765SOL    HW2 2251   3.594   3.280   3.681 -0.0813 -1.7645 -2.4287
  766SOL     OW 2252   3.666   2.840   0.898  0.2258  0.6691  0.1265
  766SOL    HW1 2253   3.615   2.847   0.984  0.0868  2.5630 -0.0627
  766SOL    HW2 2254   3.609   2.875   0.823  0.6236 -0.2459 -0.6141
  767SOL     OW 2255   0.112   1.826   2.844  0.0818 -0.3427  0.4111
  767SOL    HW1 2256   0.133   1.883   2.924  0.5736 -0.4843  0.3898
  767SOL    HW2 2257   0.194   1.775   2.818  0.1606  0.2780 -0.6534
  768SOL     OW 2258   0.622   0.342   2.510  0.7091 -0.2464  0.5788
  768SOL    HW1 2259   0.540   0.381   2.470  2.0449  1.1888 -0.8957
  768SOL    HW2 2260   0.635   0.249   2.475 -0.6275 -0.7833  1.4072
  769SOL     OW 2261   2.297   3.478   0.683  0.1974 -0.1997  0.1059
  769SOL    HW1 2262   2.315   3.498   0.587 -0.4239  0.9122  0.1981
  769SOL    HW2 2263   2.227   3.407   0.690 -2.2095  1.9602 -0.3598
  770SOL     OW 2264   3.591   0.986   2.671 -0.2756 -0.6293 -0.2005
  770SOL    HW1 2265   3.667   1.050   2.671  1.2161 -2.3022 -1.2156
  770SOL    HW2 2266   3.588   0.937   2.759 -0.3230 -0.4059 -0.0771
  771SOL     OW 2267   2.465   2.015   3.578  0.1692 -0.3032  0.8234
  771SOL    HW1 2268   2.476   2.001   3.479 -0.7252 -0.2057  0.6987
  771SOL    HW2 2269   2.459   2.113   3.597 -0.7312 -0.3555  0.8407
  772SOL     OW 2270   3.403   0.192   1.420  0.2115 -0.2124  0.2845
  772SOL    HW1 2271   3.464   0.241   1.357 -0.2913  1.0999  0.7828
  772SOL    HW2 2272   3.455   0.120   1.467  1.2968  0.6345  0.4253
  773SOL     OW 2273   1.698   3.573   2.924  0.1922 -0.0155  0.4202
  773SOL    HW1 2274   1.621   3.518   2.957 -1.3561  1.1412 -1.0860
  773SOL    HW2 2275   1.759   3.516   2.869  1.4941 -1.3792  3.0733
  774SOL     OW 2276   0.182   1.923   3.133  0.0899 -0.1553 -0.4855
  774SOL    HW1 2277   0.234   1.911   3.218 -0.1453 -1.0882 -0.4573
  774SOL    HW2 2278   0.246   1.925   3.055  0.3571  1.3710 -0.2496
  775SOL     OW 2279   1.797   1.577   0.225 -0.0408 -0.2605  0.1687
  775SOL    HW1 2280   1.776   1.672   0.249 -0.7448 -1.4269  5.2631
  775SOL    HW2 2281   1.724   1.517   0.259  0.6659 -2.7928 -2.3428
  776SOL     OW 2282   0.348   1.885   0.713  0.2797 -0.4003  0.1217
  776SOL    HW1 2283   0.320   1.939   0.633  0.2786  0.1146  0.4625
  776SOL    HW2 2284   0.382   1.796   0.683 -0.2718 -0.4372 -0.4087
  777SOL     OW 2285   0.424   1.290   3.230 -0.4722 -0.6651  1.0346
  777SOL    HW1 2286   0.432   1.195   3.200  0.3193 -0.1463 -0.4701
  777SOL    HW2 2287   0.418   1.292   3.330  2.5935 -2.1494  1.3669
  778SOL     OW 2288   2.242   2.413   3.469  0.1558 -0.6628  0.4592
  778SOL    HW1 2289   2.299   2.380   3.545  1.0132  1.7675  0.9658
  778SOL    HW2 2290   2.297   2.417   3.386  0.2397  0.0255  0.5430
  779SOL     OW 2291   2.464   2.646   2.453  0.3501 -0.3350  0.5456
  779SOL    HW1 2292   2.415   2.725   2.490 -0.8664 -0.0331 -1.5819
  779SOL    HW2 2293   2.555   2.641   2.496  0.9405  2.8952 -0.0463
  780SOL     OW 2294   0.988   2.253   1.600 -0.2459 -0.5511 -0.3128
  780SOL    HW1 2295   0.999   2.288   1.693 -0.2520 -0.8387 -0.2025
  780SOL    HW2 2296   0.898   2.211   1.591 -1.0182  1.1559 -1.0036
  781SOL     OW 2297   1.049   2.078   1.348 -0.2100  0.0190 -0.1160
  781SOL    HW1 2298   1.142   2.061   1.380  0.1480  2.2640  0.2166
  781SOL    HW2 2299   0.984   2.036   1.412  0.5491 -1.2344 -0.1402
  782SOL     OW 2300   2.454   0.301   1.598  0.2082  0.6807  0.0624
  782SOL    HW1 2301   2.473   0.275   1.504  0.1031 -0.2312  0.2890
  782SOL    HW2 2302   2.529   0.270   1.657  0.6367  1.8905  0.1919
  783SOL     OW 2303   2.970   2.570   1.674  0.1287 -0.5205  0.2938
  783SOL    HW1 2304   2.919   2.485   1.665  1.4437 -1.3484  0.5322
  783SOL    HW2 2305   3.008   2.577   1.766  0.2040  0.2326  0.2147
  784SOL     OW 2306   2.965   2.743   1.459 -0.6701 -0.3373 -0.0668
  784SOL    HW1 2307   2.975   2.669   1.525 -0.7476 -0.3007 -0.0147
  784SOL    HW2 2308   2.881   2.794   1.477 -0.0287  0.4970  0.6386
  785SOL     OW 2309   3.188   1.401   3.626  0.0793  0.1169  0.0670
  785SOL    HW1 2310   3.246   1.475   3.593  1.5824 -1.4013 -0.8424
  785SOL    HW2 2311   3.139   1.360   3.549 -1.0119  0.3811  0.6101
  786SOL     OW 2312   0.687   1.497   0.722  0.7008  0.4731  0.0456
  786SOL    HW1 2313   0.717   1.569   0.785 -0.7057 -0.1914  1.5434
  786SOL    HW2 2314   0.657   1.417   0.774  2.9288 -1.5701 -1.5579
  787SOL     OW 2315   0.224   0.149   3.627  0.1928  0.5903 -0.0939
  787SOL    HW1 2316   0.203   0.054   3.652  0.6275  0.7396  0.8887
  787SOL    HW2 2317   0.285   0.150   3.547  0.7981  0.0157  0.3521
  788SOL     OW 2318   0.674   1.546   0.222  0.0100 -0.5012 -0.4466
  788SOL    HW1 2319   0.732   1.521   0.144  0.7380 -1.4544  0.3812
  788SOL    HW2 2320   0.730   1.555   0.304 -0.5534  1.7553 -0.2421
  789SOL     OW 2321   0.739   0.898   2.337 -0.2476  0.9063 -0.3555
  789SOL    HW1 2322   0.833   0.931   2.330  0.3630 -0.4493  0.8256
  789SOL    HW2 2323   0.723   0.829   2.267 -0.7341  1.9103 -1.2543
  790SOL     OW 2324   2.913   1.424   0.287 -0.8052  0.7652  0.1504
  790SOL    HW1 2325   2.979   1.374   0.231 -1.1235  0.8077 -0.2714
  790SOL    HW2 2326   2.890   1.370   0.368 -1.0516  0.2816 -0.2366
  791SOL     OW 2327   0.419   2.070   0.292 -0.4022 -0.6486  0.4170
  791SOL    HW1 2328   0.478   2.000   0.251  0.8601  0.7123 -0.1843
  791SOL    HW2 2329   0.466   2.158   0.291 -2.5084  0.5329 -0.2016
  792SOL     OW 2330   1.618   3.029   0.040 -0.0634 -0.1793 -0.3905
  792SOL    HW1 2331   1.574   3.029   0.130 -0.5026 -1.9170 -0.5761
  792SOL    HW2 2332   1.680   2.951   0.033  0.3713  0.2495 -1.4072
  793SOL     OW 2333   2.436   1.093   2.376  0.6049 -0.1690  0.6492
  793SOL    HW1 2334   2.397   1.016   2.326 -0.9053  0.9633 -0.0099
  793SOL    HW2 2335   2.386   1.106   2.462 -0.9598  1.6325 -0.4576
  794SOL     OW 2336   3.675   2.385   1.896  0.1144 -0.4103  0.4016
  794SOL    HW1 2337   3.730   2.401   1.814 -0.8548  1.4117  0.0382
  794SOL    HW2 2338   3.602   2.319   1.875  1.0301 -1.4262  0.3683
  795SOL     OW 2339   3.233   1.251   1.893  0.1746 -0.0376  0.0505
  795SOL    HW1 2340   3.146   1.289   1.860  1.3882  1.8496 -1.1611
  795SOL    HW2 2341   3.261   1.301   1.975  0.5782 -0.0010 -0.1099
  796SOL     OW 2342   0.914   3.021   1.977 -0.9945 -0.0213 -0.0699
  796SOL    HW1 2343   0.930   3.116   2.004  0.4008 -0.2332 -0.0805
  796SOL    HW2 2344   0.909   3.015   1.878 -2.6433  0.2425 -0.0364
  797SOL     OW 2345   2.917   0.570   0.012  0.1644 -0.3476 -0.1368
  797SOL    HW1 2346   2.936   0.507   0.087 -1.2304  1.6564  2.0346
  797SOL    HW2 2347   2.819   0.590   0.009  0.2106 -0.1941 -2.4058
  798SOL     OW 2348   2.711   2.093   1.598  0.2438 -0.0881  0.6556
  798SOL    HW1 2349   2.706   2.074   1.696 -0.6377 -0.1129  0.6143
  798SOL    HW2 2350   2.722   2.007   1.548 -1.0331 -0.2569  0.6362
  799SOL     OW 2351   1.057   2.928   1.245  0.2559 -0.6997 -0.2472
  799SOL    HW1 2352   1.154   2.953   1.251  1.2373 -3.9992 -0.6472
  799SOL    HW2 2353   1.040   2.846   1.299 -3.2451  1.7842  2.9688
  800SOL     OW 2354   3.522   0.670   0.761 -0.1742 -0.3316 -0.1197
  800SOL    HW1 2355   3.444   0.650   0.819  0.1768  0.8084  0.7771
  800SOL    HW2 2356   3.558   0.761   0.783 -0.1647  0.2478 -2.2775
  801SOL     OW 2357   3.607   2.231   3.363  0.3728 -0.0442  0.0446
  801SOL    HW1 2358   3.625   2.193   3.273  0.4065  0.9955 -0.4043
  801SOL    HW2 2359   3.672   2.305   3.381  0.3421 -0.2165  0.9116
  802SOL     OW 2360   1.765   2.993   2.587 -0.2338  0.3934  0.3561
  802SOL    HW1 2361   1.831   2.996   2.512 -0.3476  1.4492  0.2811
  802SOL    HW2 2362   1.771   2.905   2.634  1.7570  0.7497  0.8471
  803SOL     OW 2363   1.583   2.178   0.929 -0.0632 -0.2331  0.3410
  803SOL    HW1 2364   1.501   2.235   0.928 -0.5736 -0.8492 -2.9406
  803SOL    HW2 2365   1.663   2.232   0.901 -0.6165 -1.0086 -3.1846
  804SOL     OW 2366   2.702   1.049   1.865  0.2970 -0.3948  0.1386
  804SOL    HW1 2367   2.739   1.072   1.955  2.4270 -0.2103 -0.7323
  804SOL    HW2 2368   2.764   0.987   1.818 -0.8219 -0.5678 -1.1887
  805SOL     OW 2369   3.407   0.533   3.165  0.5260 -0.0091  0.2183
  805SOL    HW1 2370   3.476   0.475   3.210 -0.7877 -0.9570  1.0853
  805SOL    HW2 2371   3.447   0.573   3.083  1.8653 -1.1989  0.2327
  806SOL     OW 2372   1.710   2.132   0.547 -0.1344 -0.4794 -0.1223
  806SOL    HW1 2373   1.744   2.075   0.471 -2.0141  0.2114 -1.5630
  806SOL    HW2 2374   1.678   2.219   0.511 -0.9331 -0.0683  1.5171
  807SOL     OW 2375   3.350   1.463   1.483 -0.8404  0.4834 -0.3755
  807SOL    HW1 2376   3.387   1.538   1.427 -0.5097  1.5166  1.1743
  807SOL    HW2 2377   3.256   1.485   1.509 -0.8765  0.1614 -0.2351
  808SOL     OW 2378   3.206   0.834   2.665  0.5471 -0.0145 -0.0408
  808SOL    HW1 2379   3.116   0.813   2.628  1.0506 -0.9335 -0.7640
  808SOL    HW2 2380   3.197   0.904   2.737 -0.9070 -1.1223  0.9104
  809SOL     OW 2381   2.607   1.959   0.625 -0.1327 -0.2756 -0.1803
  809SOL    HW1 2382   2.637   1.911   0.542 -0.1088  0.4790 -0.6113
  809SOL    HW2 2383   2.521   2.007   0.606 -1.7393 -2.4543  1.0464
  810SOL     OW 2384   2.420   0.676   0.939  0.0031  0.1768 -0.1820
  810SOL    HW1 2385   2.481   0.668   1.018 -1.1947  0.4322  0.8057
  810SOL    HW2 2386   2.470   0.715   0.862  1.7444 -1.9785 -0.2072
  811SOL     OW 2387   1.221   0.435   3.631  0.5700  0.2909  0.5751
  811SOL    HW1 2388   1.226   0.354   3.689  1.4525  0.7055  1.1075
  811SOL    HW2 2389   1.299   0.494   3.650  1.8352 -0.3206 -2.2082
  812SOL     OW 2390   3.622   0.428   1.857 -0.2377 -0.4181 -0.2040
  812SOL    HW1 2391   3.566   0.347   1.842  1.1896 -1.1523 -1.8559
  812SOL    HW2 2392   3.609   0.493   1.781  1.1714 -0.6426 -0.6626
  813SOL     OW 2393   2.187   3.143   1.878  0.5029 -0.6380 -0.1801
  813SOL    HW1 2394   2.249   3.116   1.804  0.0447 -1.8060 -0.1656
  813SOL    HW2 2395   2.240   3.157   1.962  0.8838 -0.4753 -0.4438
  814SOL     OW 2396   1.506   3.037   2.499  0.1287 -0.1148  0.1196
  814SOL    HW1 2397   1.493   2.980   2.418  0.1917  0.5491 -0.3602
  814SOL    HW2 2398   1.604   3.040   2.523  0.1619  0.0323 -0.0332
  815SOL     OW 2399   0.701   2.692   3.256 -0.5899  0.3968 -0.4870
  815SOL    HW1 2400   0.617   2.745   3.262  0.3576  2.0273 -0.9870
  815SOL    HW2 2401   0.728   2.661   3.347 -1.4708  0.2654 -0.2654
  816SOL     OW 2402   1.905   0.197   1.703 -0.1729 -0.2434 -0.4284
  816SOL    HW1 2403   1.960   0.256   1.644  2.2574 -1.3253  0.6192
  816SOL    HW2 2404   1.853   0.133   1.647  0.3489  0.2111 -1.4616
  817SOL     OW 2405   1.673   0.818   0.428  0.1881  0.2162 -0.4646
  817SOL    HW1 2406   1.582   0.781   0.445  0.6806 -1.1178 -0.5458
  817SOL    HW2 2407   1.683   0.906   0.473 -0.6129 -0.3627  0.9063
  818SOL     OW 2408   1.135   1.391   3.453 -0.0207  0.3543  0.6171
  818SOL    HW1 2409   1.120   1.447   3.371 -1.0472 -2.2125 -1.0700
  818SOL    HW2 2410   1.233   1.385   3.472  0.2197  1.1599 -0.2815
  819SOL     OW 2411   3.028   2.065   0.786  0.4518  0.1119  0.2769
  819SOL    HW1 2412   2.962   2.039   0.715  0.9771  2.2316 -1.0948
  819SOL    HW2 2413   3.110   2.008   0.777 -0.6859 -1.7671  1.2725
  820SOL     OW 2414   0.201   0.023   2.458 -0.0905 -0.1090 -1.2335
  820SOL    HW1 2415   0.288  -0.026   2.446 -0.3653 -0.4276 -1.9621
  820SOL    HW2 2416   0.174   0.019   2.554  0.0977 -1.0409 -1.2113
  821SOL     OW 2417   3.451   1.467   2.984  0.0312  0.4689  0.2401
  821SOL    HW1 2418   3.517   1.541   2.986  0.8360 -0.2306  0.1769
  821SOL    HW2 2419   3.407   1.463   2.894 -0.4104  1.1902  0.4153
  822SOL     OW 2420   3.090   3.003   3.454  0.3256  0.0336  0.2783
  822SOL    HW1 2421   3.162   2.984   3.388 -1.5830  0.0589 -1.9642
  822SOL    HW2 2422   3.050   3.093   3.435 -0.3318  0.0099  1.4239
  823SOL     OW 2423   2.280   2.635   1.410  0.3377  0.0704 -0.2258
  823SOL    HW1 2424   2.278   2.622   1.509 -2.5168 -1.8805 -0.4480
  823SOL    HW2 2425   2.190   2.665   1.378  1.1486  0.4755 -2.2843
  824SOL     OW 2426   2.662   2.699   0.460  0.5772  0.0913  0.2262
  824SOL    HW1 2427   2.657   2.740   0.551 -0.3268  0.9387 -0.1827
  824SOL    HW2 2428   2.754   2.663   0.444  0.5679 -0.6561  1.7055
  825SOL     OW 2429   2.046   0.123   2.921 -0.2225  0.2054 -0.4913
  825SOL    HW1 2430   2.140   0.122   2.956 -0.0491  0.6786 -0.9365
  825SOL    HW2 2431   2.028   0.209   2.874 -0.5783 -0.2585 -1.2285
  826SOL     OW 2432   0.713   3.317   0.746  0.2013 -0.3328 -0.3944
  826SOL    HW1 2433   0.765   3.254   0.689  3.2513  2.2508 -0.7710
  826SOL    HW2 2434   0.669   3.387   0.689  0.6553  0.4633  0.2005
  827SOL     OW 2435   2.698   1.920   1.275 -0.2984 -0.6422  0.1437
  827SOL    HW1 2436   2.608   1.893   1.310 -0.2722  0.3383  1.0079
  827SOL    HW2 2437   2.766   1.852   1.303 -0.6384 -1.0070  0.1043
  828SOL     OW 2438   1.300   2.744   1.117 -0.4207  0.3510  0.0296
  828SOL    HW1 2439   1.383   2.716   1.068 -0.7136  1.8634 -1.4504
  828SOL    HW2 2440   1.284   2.841   1.101 -2.0611  0.2619  0.9387
  829SOL     OW 2441   1.472   3.441   0.574 -0.2112  0.1788  0.2761
  829SOL    HW1 2442   1.440   3.522   0.525 -0.8346 -0.7820 -0.9777
  829SOL    HW2 2443   1.398   3.405   0.632 -0.4116 -0.2864 -0.2581
  830SOL     OW 2444   1.276   0.855   1.683 -0.2189  0.1206  0.1166
  830SOL    HW1 2445   1.358   0.801   1.665  1.1519  2.4491 -1.0309
  830SOL    HW2 2446   1.199   0.814   1.634  0.5510 -1.2480 -0.0259
  831SOL     OW 2447   2.867   0.755   2.132 -0.5467 -0.0631 -0.4893
  831SOL    HW1 2448   2.863   0.661   2.099 -0.7833 -0.1145 -0.3119
  831SOL    HW2 2449   2.940   0.763   2.200  0.0129  0.0664 -1.0930
  832SOL     OW 2450   3.039   0.853   0.407 -0.0933 -0.5638 -0.4756
  832SOL    HW1 2451   2.984   0.851   0.490  1.1696 -1.2012  0.3792
  832SOL    HW2 2452   3.118   0.913   0.420  0.7094 -1.5236 -0.8107
  833SOL     OW 2453   1.139   1.086   0.766  0.1405 -0.0150  0.2004
  833SOL    HW1 2454   1.169   1.132   0.849  0.1092  1.2145 -0.4432
  833SOL    HW2 2455   1.219   1.060   0.712  0.1348  1.2531 -0.4540
  834SOL     OW 2456   1.398   1.891   3.004  0.5097 -0.3271 -0.1332
  834SOL    HW1 2457   1.362   1.895   3.097 -3.9821 -0.4981 -1.6257
  834SOL    HW2 2458   1.422   1.983   2.973 -0.4478  0.1142  0.3963
  835SOL     OW 2459   3.182   3.240   2.896  0.2159  0.3098  0.6553
  835SOL    HW1 2460   3.278   3.219   2.917 -0.3526 -1.6838  1.4710
  835SOL    HW2 2461   3.178   3.294   2.812  2.0118 -0.0639  0.2845
  836SOL     OW 2462   2.751   1.905   2.072 -0.5500  0.0745 -0.1464
  836SOL    HW1 2463   2.722   1.989   2.117 -0.5111 -0.1368  0.2778
  836SOL    HW2 2464   2.680   1.835   2.083 -0.6461  0.0884 -0.6194
  837SOL     OW 2465   2.290   0.636   2.788  0.1739  0.0004 -0.1160
  837SOL    HW1 2466   2.292   0.700   2.866  0.1349 -0.2663  0.1056
  837SOL    HW2 2467   2.282   0.543   2.822  1.9649 -0.2825 -0.3530
  838SOL     OW 2468   2.321   3.190   0.817 -0.0037 -0.0154 -0.4976
  838SOL    HW1 2469   2.374   3.142   0.747 -1.6377  0.6929 -2.2976
  838SOL    HW2 2470   2.261   3.256   0.774 -1.5510  0.0109  1.5490
  839SOL     OW 2471   1.342   0.685   2.166 -0.2197 -0.1647 -0.0267
  839SOL    HW1 2472   1.269   0.668   2.232  0.4759 -1.2642  0.4895
  839SOL    HW2 2473   1.387   0.599   2.142  1.1608  0.5239 -0.0290
  840SOL     OW 2474   2.216   2.507   0.421  0.2373 -0.1539  0.4595
  840SOL    HW1 2475   2.314   2.514   0.405  0.0816  0.0552 -0.4465
  840SOL    HW2 2476   2.196   2.420   0.467  0.7040 -0.8483 -0.6226
  841SOL     OW 2477   2.102   3.490   2.928  0.3438  0.4833 -0.2879
  841SOL    HW1 2478   2.156   3.542   2.862  2.2708  0.5546  1.2819
  841SOL    HW2 2479   2.014   3.466   2.886  1.4712  0.5100 -2.8790
  842SOL     OW 2480   2.403   2.449   3.249  0.3392  0.4890  0.4664
  842SOL    HW1 2481   2.492   2.480   3.217 -0.7345  2.3816 -0.8844
  842SOL    HW2 2482   2.372   2.372   3.193  0.4970  0.7686 -0.0070
  843SOL     OW 2483   2.114   3.045   3.466 -0.3110  0.1494  0.1800
  843SOL    HW1 2484   2.077   3.022   3.555 -0.3343 -0.1029  0.1074
  843SOL    HW2 2485   2.101   2.968   3.403 -0.5638  0.4379 -0.1260
  844SOL     OW 2486   1.264   2.971   2.167 -0.2753  0.3815 -0.2753
  844SOL    HW1 2487   1.262   3.059   2.214 -0.1928  0.0257  0.3999
  844SOL    HW2 2488   1.174   2.929   2.171 -0.3987  0.5799 -0.8853
  845SOL     OW 2489   3.081   2.009   2.388  0.3083 -0.2233  0.4566
  845SOL    HW1 2490   3.040   1.930   2.342 -0.9693  1.1912 -0.9563
  845SOL    HW2 2491   3.180   2.006   2.377  0.1045 -0.3354 -1.7972
  846SOL     OW 2492   0.813   2.257   3.226  0.1530 -0.0178  0.1509
  846SOL    HW1 2493   0.765   2.316   3.291  0.2139 -2.0473  2.1831
  846SOL    HW2 2494   0.903   2.233   3.263  0.5716 -0.5067 -1.1298
  847SOL     OW 2495   1.475   2.509   0.747  0.4213  0.7792  0.1775
  847SOL    HW1 2496   1.575   2.502   0.747  0.5370  2.0945  1.0077
  847SOL    HW2 2497   1.436   2.434   0.801  0.9860  0.5337  0.2491
  848SOL     OW 2498   1.385   0.574   2.846 -0.2874 -0.0786  0.2089
  848SOL    HW1 2499   1.343   0.500   2.795 -0.9684  0.5066 -0.1023
  848SOL    HW2 2500   1.418   0.540   2.934  2.2929 -1.4704 -1.1748
  849SOL     OW 2501   3.301   3.721   1.707 -0.1078 -0.2409  0.2967
  849SOL    HW1 2502   3.363   3.653   1.669 -0.2340 -0.8755  1.2020
  849SOL    HW2 2503   3.241   3.755   1.635 -0.4119 -1.4978 -0.0719
  850SOL     OW 2504   2.050   1.592   2.368 -0.2982  0.0135 -0.2268
  850SOL    HW1 2505   2.081   1.684   2.392  3.6044 -1.4324  1.1451
  850SOL    HW2 2506   2.001   1.552   2.445 -3.1724  1.2481 -1.2868
  851SOL     OW 2507   0.656   1.121   3.583 -0.0094 -0.5543 -0.4055
  851SOL    HW1 2508   0.659   1.034   3.532 -0.4346 -0.2807 -0.9083
  851SOL    HW2 2509   0.735   1.176   3.559 -0.4006 -0.2691 -1.0664
  852SOL     OW 2510   2.326   1.508   0.198 -0.4184  0.9683 -0.3552
  852SOL    HW1 2511   2.343   1.475   0.105  0.2089 -0.7732  0.3227
  852SOL    HW2 2512   2.227   1.521   0.211 -0.6376 -0.0350 -0.8918
  853SOL     OW 2513   0.868   0.423   1.132  0.2299  0.4444  0.1695
  853SOL    HW1 2514   0.915   0.351   1.081 -0.8487 -0.9121  0.9755
  853SOL    HW2 2515   0.769   0.406   1.129  0.0627  0.9809  1.6972
  854SOL     OW 2516   1.348   1.827   1.247 -0.0619  0.7201 -0.0098
  854SOL    HW1 2517   1.332   1.900   1.180  0.2493  0.1310 -0.7474
  854SOL    HW2 2518   1.440   1.789   1.234 -0.3096  0.0278  0.1908
  855SOL     OW 2519   2.462   2.465   0.979  0.7517  0.4858  0.2531
  855SOL    HW1 2520   2.502   2.376   0.956 -2.9810 -0.6244 -3.0754
  855SOL    HW2 2521   2.442   2.467   1.077  0.3903 -2.6406  0.3640
  856SOL     OW 2522   1.148   2.422   0.298 -0.7340  0.4480 -0.0039
  856SOL    HW1 2523   1.175   2.516   0.279 -0.2311  0.4504  0.6912
  856SOL    HW2 2524   1.226   2.372   0.337 -1.0204 -0.2323 -0.2861
  857SOL     OW 2525   3.586   0.754   1.291 -0.3435  0.0769  0.1119
  857SOL    HW1 2526   3.656   0.780   1.358  1.7415  1.1492 -2.3574
  857SOL    HW2 2527   3.532   0.835   1.267  0.0456  0.0930 -0.7332
  858SOL     OW 2528   3.301   1.789   1.785  0.3000  0.0317 -0.2590
  858SOL    HW1 2529   3.209   1.752   1.775 -0.9961  2.3798  2.0227
  858SOL    HW2 2530   3.310   1.872   1.729  0.6385  0.4216  0.3633
  859SOL     OW 2531   1.408   2.013   2.611  0.3710 -0.6091 -0.6741
  859SOL    HW1 2532   1.432   1.975   2.522 -0.4606 -2.2875 -0.2210
  859SOL    HW2 2533   1.391   1.939   2.676  0.4576  0.5655  0.7666
  860SOL     OW 2534   1.657   1.541   2.440 -0.8286 -0.1186  0.1638
  860SOL    HW1 2535   1.686   1.469   2.504 -0.9550 -0.4430 -0.1433
  860SOL    HW2 2536   1.614   1.615   2.492 -0.2782 -0.0454  0.5313
  861SOL     OW 2537   1.809   3.026   3.319  0.7993 -0.1096 -0.5615
  861SOL    HW1 2538   1.863   2.952   3.281  1.2982  0.6114 -1.2752
  861SOL    HW2 2539   1.837   3.113   3.278 -1.8731  0.1438 -2.1078
  862SOL     OW 2540   2.125   3.011   3.076  0.1680  0.3942 -0.1956
  862SOL    HW1 2541   2.063   2.979   3.005 -0.1923  1.2882 -0.3002
  862SOL    HW2 2542   2.122   2.948   3.154  0.5030 -0.5459 -0.9229
  863SOL     OW 2543   1.453   3.544   2.389  0.0616 -0.1688 -0.0932
  863SOL    HW1 2544   1.538   3.563   2.338  0.8920 -0.3034  1.1924
  863SOL    HW2 2545   1.476   3.506   2.478 -1.2623  2.2388  1.3788
  864SOL     OW 2546   3.295   0.155   3.493  0.1570  0.4274  0.4683
  864SOL    HW1 2547   3.198   0.145   3.518 -0.2087 -0.9675 -1.2908
  864SOL    HW2 2548   3.314   0.251   3.474 -1.7177  0.4176 -2.0033
  865SOL     OW 2549   1.147   0.266   0.245  0.1938 -0.5505 -0.1395
  865SOL    HW1 2550   1.133   0.297   0.339  1.0263 -3.7745  1.2008
  865SOL    HW2 2551   1.241   0.287   0.216 -0.3395  1.2527 -0.6406
  866SOL     OW 2552   1.391   1.705   2.155  0.0335 -0.2765 -0.0168
  866SOL    HW1 2553   1.376   1.739   2.062 -0.2484 -1.8337 -0.5580
  866SOL    HW2 2554   1.483   1.665   2.162 -0.6023 -1.8025 -0.1557
  867SOL     OW 2555   2.003   3.502   3.181  0.2261 -0.7144  0.5365
  867SOL    HW1 2556   2.013   3.412   3.223  2.8318 -0.2685  1.0170
  867SOL    HW2 2557   2.045   3.502   3.091 -1.2470 -0.3918 -0.1801
  868SOL     OW 2558   1.065   1.745   2.096  0.1811 -0.1590 -0.0180
  868SOL    HW1 2559   1.002   1.819   2.072  0.1515 -0.0504  0.3852
  868SOL    HW2 2560   1.149   1.753   2.042 -0.6185 -1.0041 -1.4530
  869SOL     OW 2561   1.970   1.037   2.670  0.1430 -0.4092 -0.6209
  869SOL    HW1 2562   1.879   1.062   2.638  0.5202  1.3898 -0.4411
  869SOL    HW2 2563   1.962   0.965   2.739 -1.3109  0.6393  0.4053
  870SOL     OW 2564   3.471   0.256   3.258 -0.2909  0.4774  0.2780
  870SOL    HW1 2565   3.374   0.272   3.237 -2.1252 -3.6877  3.9054
  870SOL    HW2 2566   3.498   0.313   3.335  0.6210  2.4281 -1.4073
  871SOL     OW 2567   3.516   3.672   1.493  0.5334 -0.0581  0.0321
  871SOL    HW1 2568   3.606   3.675   1.536 -0.2808  0.8856  1.8329
  871SOL    HW2 2569   3.522   3.630   1.403  3.1362  1.8963 -0.8271
  872SOL     OW 2570   0.984   0.916   2.011 -0.1126  0.4877  0.1114
  872SOL    HW1 2571   0.957   0.899   2.105  0.0168  0.4702  0.1454
  872SOL    HW2 2572   1.058   0.854   1.985 -0.8160 -0.1953 -0.3229
  873SOL     OW 2573   3.366   2.005   2.386  0.0914  0.0657 -0.0740
  873SOL    HW1 2574   3.404   2.097   2.390 -0.3260  0.2473 -0.1894
  873SOL    HW2 2575   3.399   1.958   2.304  1.4371 -0.4064  0.7002
  874SOL     OW 2576   3.475   1.243   2.365  0.0112 -0.5794  0.3731
  874SOL    HW1 2577   3.453   1.205   2.455 -1.5080  0.9969  0.7444
  874SOL    HW2 2578   3.459   1.174   2.295 -1.4215 -1.0467  1.1086
  875SOL     OW 2579   2.984   0.764   0.971 -0.3729 -0.3373  0.6177
  875SOL    HW1 2580   2.922   0.826   0.923 -1.2238 -1.7860 -0.2435
  875SOL    HW2 2581   2.937   0.678   0.990  0.9186 -0.9177  1.3131
  876SOL     OW 2582   0.694   0.719   2.832 -0.6595 -0.3351  0.2103
  876SOL    HW1 2583   0.769   0.756   2.887 -0.3449 -0.1692 -0.3211
  876SOL    HW2 2584   0.725   0.637   2.783 -0.9305 -0.4726  0.2647
  877SOL     OW 2585   0.080   2.468   1.676 -0.2698  0.4786  0.0497
  877SOL    HW1 2586   0.175   2.498   1.677 -0.4457  1.3330 -2.0680
  877SOL    HW2 2587   0.073   2.379   1.629 -0.5201  0.4578  0.1220
  878SOL     OW 2588   0.795   2.644   3.508 -0.1846 -0.3084  0.1286
  878SOL    HW1 2589   0.803   2.721   3.571  0.3296  0.4299 -0.8166
  878SOL    HW2 2590   0.882   2.594   3.505 -0.1262 -0.1888 -0.1861
  879SOL     OW 2591   2.853   1.638   1.921  0.3965 -0.3961 -0.1317
  879SOL    HW1 2592   2.882   1.713   1.862  1.5828 -1.1605 -0.5423
  879SOL    HW2 2593   2.763   1.660   1.960  1.1948  1.7301  0.6546
  880SOL     OW 2594   1.601   1.656   1.919 -0.2069  0.4932  0.8060
  880SOL    HW1 2595   1.537   1.579   1.922  1.3619 -0.9367 -0.8016
  880SOL    HW2 2596   1.607   1.697   2.011 -1.0606 -1.3014  1.7202
  881SOL     OW 2597   2.698   0.540   1.748 -0.0483  0.1987 -0.8726
  881SOL    HW1 2598   2.681   0.451   1.791  1.1705  0.0943 -0.5907
  881SOL    HW2 2599   2.664   0.613   1.808 -2.3135 -0.0775 -1.7023
  882SOL     OW 2600   0.686   2.023   2.945  0.3313  0.6599  0.0798
  882SOL    HW1 2601   0.684   2.019   3.045  0.2365 -0.8121  0.0441
  882SOL    HW2 2602   0.710   1.932   2.909 -0.2842  1.0033 -1.2483
  883SOL     OW 2603   1.664   0.608   2.472  0.1721  0.3200 -0.1019
  883SOL    HW1 2604   1.572   0.591   2.507  0.1220 -0.6741 -0.6756
  883SOL    HW2 2605   1.694   0.529   2.419  1.9876 -0.0610  1.3830
  884SOL     OW 2606   0.101   0.403   2.714 -0.4806  0.0992 -0.5092
  884SOL    HW1 2607   0.027   0.469   2.698  1.1916  1.5322 -3.1542
  884SOL    HW2 2608   0.165   0.440   2.782 -2.4976 -1.5561  2.5088
  885SOL     OW 2609   2.733   0.959   2.247 -0.3096  0.9627  0.2828
  885SOL    HW1 2610   2.640   0.952   2.210 -0.5241  2.0544  0.5829
  885SOL    HW2 2611   2.790   0.887   2.207 -2.2234 -2.4994  3.1445
  886SOL     OW 2612   3.042   2.745   3.307  0.3856 -0.3865  0.0361
  886SOL    HW1 2613   3.044   2.808   3.385  2.2939  1.4925 -1.4268
  886SOL    HW2 2614   2.966   2.769   3.247  0.4334 -0.2292  0.0396
  887SOL     OW 2615   3.395   3.569   0.341  0.4015  0.0172  0.0569
  887SOL    HW1 2616   3.433   3.559   0.250  1.6696 -0.2670  0.6014
  887SOL    HW2 2617   3.421   3.658   0.379 -0.3146  0.2319  0.0578
  888SOL     OW 2618   0.640   3.112   2.623 -0.0484 -0.0373  0.3506
  888SOL    HW1 2619   0.702   3.155   2.689  0.4434 -0.9300  0.4768
  888SOL    HW2 2620   0.669   3.137   2.531 -0.0466  0.2860  0.4365
  889SOL     OW 2621   1.225   1.156   2.519  0.0643 -0.4891  0.1207
  889SOL    HW1 2622   1.170   1.185   2.441 -1.0771 -1.0911  0.6624
  889SOL    HW2 2623   1.230   1.056   2.522 -2.6491 -0.6987  2.5149
  890SOL     OW 2624   0.510   0.610   2.994  0.1926 -0.1201  0.5388
  890SOL    HW1 2625   0.577   0.652   2.933 -0.0678  0.4455  0.6390
  890SOL    HW2 2626   0.542   0.519   3.022 -0.2672 -0.9539 -1.4691
  891SOL     OW 2627   0.906   0.238   0.869 -0.2855 -0.2467 -0.3586
  891SOL    HW1 2628   0.994   0.239   0.822 -0.2343 -0.5303 -0.2742
  891SOL    HW2 2629   0.839   0.289   0.816 -0.7392 -2.1944 -1.7553
  892SOL     OW 2630   3.086   1.364   3.080 -0.2612 -0.3853 -0.0919
  892SOL    HW1 2631   3.111   1.340   2.986 -0.5107  1.3815 -0.6459
  892SOL    HW2 2632   3.169   1.388   3.131 -0.3074  0.8118 -0.5379
  893SOL     OW 2633   1.083   0.700   0.988  0.0190  0.3148  0.0054
  893SOL    HW1 2634   1.132   0.787   0.989 -1.1626  1.0015  0.0591
  893SOL    HW2 2635   0.991   0.714   0.949 -0.2969 -0.8476  0.2973
  894SOL     OW 2636   1.890   1.072   0.068 -0.8080  0.3827 -0.2849
  894SOL    HW1 2637   1.923   1.096   0.159 -0.8458  1.7688 -0.6191
  894SOL    HW2 2638   1.873   0.974   0.064  0.3743  0.1056  0.8137
  895SOL     OW 2639   0.800   3.182   0.164  0.1114 -0.6795  0.1334
  895SOL    HW1 2640   0.869   3.242   0.203 -0.5646  0.4829 -0.3927
  895SOL    HW2 2641   0.751   3.230   0.091 -0.9666 -1.6057  0.2059
  896SOL     OW 2642   3.538   2.161   2.042 -0.3775 -0.3298 -0.2926
  896SOL    HW1 2643   3.546   2.152   1.942 -0.7986 -2.6015 -0.1791
  896SOL    HW2 2644   3.443   2.183   2.065  0.1956  2.8496 -0.4397
  897SOL     OW 2645   0.538   1.315   0.491 -0.2000  0.0302 -0.3405
  897SOL    HW1 2646   0.576   1.372   0.564 -1.0476 -0.6000  0.6169
  897SOL    HW2 2647   0.612   1.278   0.435  0.4747  0.3162  0.3478
  898SOL     OW 2648   0.364   1.487   3.645  1.1268  0.3443 -0.0717
  898SOL    HW1 2649   0.277   1.532   3.626  0.1158 -1.8745 -1.0472
  898SOL    HW2 2650   0.381   1.489   3.744 -1.6725 -1.8547  0.5769
  899SOL     OW 2651   3.055   1.287   0.128 -0.2794 -0.0734 -0.3447
  899SOL    HW1 2652   3.096   1.199   0.152 -0.0496 -0.4950 -2.2010
  899SOL    HW2 2653   3.106   1.329   0.053 -0.5089  1.5648  0.3594
  900SOL     OW 2654   2.592   1.631   1.191  0.0194  0.4528 -0.0651
  900SOL    HW1 2655   2.501   1.615   1.230 -0.1843 -0.1948 -0.7618
  900SOL    HW2 2656   2.585   1.694   1.114  0.4453  1.8743  1.0324
  901SOL     OW 2657   1.843   2.262   0.253 -0.1320  0.0578 -0.1860
  901SOL    HW1 2658   1.907   2.292   0.183 -0.6986  0.6590 -0.4522
  901SOL    HW2 2659   1.781   2.193   0.215 -0.8337  0.8244 -0.4677
  902SOL     OW 2660   1.987   2.285   1.320  0.4854  0.3595  0.1865
  902SOL    HW1 2661   2.082   2.254   1.327  0.2210 -0.6285 -0.3546
  902SOL    HW2 2662   1.974   2.368   1.375  1.1418 -0.7295  2.0831
  903SOL     OW 2663   1.308   2.276   2.980 -0.8800 -0.0756  0.3317
  903SOL    HW1 2664   1.257   2.284   2.894 -1.1781 -0.3912  0.4798
  903SOL    HW2 2665   1.386   2.214   2.966 -1.2468 -0.5641  0.4357
  904SOL     OW 2666   2.095   1.492   1.322  0.5933 -0.7142 -0.1835
  904SOL    HW1 2667   2.061   1.587   1.325  2.2257 -0.1294  0.8441
  904SOL    HW2 2668   2.020   1.430   1.344 -0.2742  0.4069  0.1407
  905SOL     OW 2669   2.535   1.593   0.823  0.1346  0.0196 -0.2892
  905SOL    HW1 2670   2.578   1.508   0.855 -0.1660  0.8666  2.6549
  905SOL    HW2 2671   2.534   1.660   0.898 -2.3667  1.5705 -1.5821
  906SOL     OW 2672   1.923   3.193   0.867 -0.1248 -0.8440  0.4495
  906SOL    HW1 2673   1.877   3.104   0.871  0.8654 -1.4332 -0.7101
  906SOL    HW2 2674   1.901   3.245   0.949 -0.5022 -2.2796  1.2971
  907SOL     OW 2675   2.323   1.523   0.654 -0.4305 -0.5874 -0.0377
  907SOL    HW1 2676   2.409   1.521   0.704 -0.5432  0.9861  0.2570
  907SOL    HW2 2677   2.317   1.442   0.595  1.4067 -0.5436 -0.3302
  908SOL     OW 2678   0.807   3.630   3.575  0.1073  0.2402  0.0308
  908SOL    HW1 2679   0.806   3.644   3.674  0.8465  0.2550  0.0420
  908SOL    HW2 2680   0.894   3.589   3.548 -0.8330 -1.6063 -0.3809
  909SOL     OW 2681   1.723   2.514   2.560 -0.4270  0.6003 -0.2941
  909SOL    HW1 2682   1.737   2.448   2.634 -0.7072  0.7910 -0.0724
  909SOL    HW2 2683   1.812   2.536   2.519 -0.1101  1.4813  0.8346
  910SOL     OW 2684   0.375   1.094   0.465  0.1733  0.6425  0.3868
  910SOL    HW1 2685   0.421   1.179   0.489  1.8675 -0.1019 -0.0656
  910SOL    HW2 2686   0.428   1.047   0.394 -3.2327  1.5378 -3.0519
  911SOL     OW 2687   3.330   1.406   1.117  0.2660 -0.1039 -0.1002
  911SOL    HW1 2688   3.417   1.377   1.156  1.3436  0.2985 -2.0804
  911SOL    HW2 2689   3.272   1.445   1.189  2.7648  2.1581  0.8450
  912SOL     OW 2690   3.215   3.547   0.553  0.1451 -0.1264 -0.0649
  912SOL    HW1 2691   3.266   3.548   0.466 -1.0371  2.4552 -0.8377
  912SOL    HW2 2692   3.260   3.608   0.618 -2.0502  2.6842 -0.9587
  913SOL     OW 2693   3.107   0.193   1.923  0.4843  0.1649 -0.3589
  913SOL    HW1 2694   3.145   0.247   1.849  3.7576  0.4314  1.3132
  913SOL    HW2 2695   3.178   0.133   1.961 -1.4661 -1.1336  1.5389
  914SOL     OW 2696   2.007   2.327   0.047  0.4404  0.7699 -0.1585
  914SOL    HW1 2697   1.971   2.417   0.024  0.4770  0.3664 -1.9454
  914SOL    HW2 2698   2.034   2.280  -0.037 -0.1968 -1.1724  0.6726
  915SOL     OW 2699   1.842   0.619   2.662  0.1492  0.2717 -0.2127
  915SOL    HW1 2700   1.791   0.582   2.739  0.6484  0.7827  0.3677
  915SOL    HW2 2701   1.780   0.634   2.585 -0.3962  0.0057  0.1720
  916SOL     OW 2702   0.240   2.838   1.259  0.7021  0.0448 -0.1042
  916SOL    HW1 2703   0.336   2.844   1.287  0.9323  0.0470 -0.8734
  916SOL    HW2 2704   0.208   2.928   1.231  0.3247  0.1392  0.5996
  917SOL     OW 2705   3.731   1.298   3.684  0.1873  0.3561  0.4864
  917SOL    HW1 2706   3.729   1.371   3.616 -1.1132  2.3262  2.5074
  917SOL    HW2 2707   3.640   1.257   3.691  0.6146 -0.6758  0.2366
  918SOL     OW 2708   2.564   3.145   1.075  0.1003 -0.8034  0.3940
  918SOL    HW1 2709   2.481   3.096   1.048 -1.1132  1.3399 -0.0450
  918SOL    HW2 2710   2.599   3.109   1.161 -1.5813 -1.4467  0.8299
  919SOL     OW 2711   0.090   0.682   1.023  0.3383  0.2080 -0.2111
  919SOL    HW1 2712   0.015   0.694   1.089  1.0244  0.6240  0.5043
  919SOL    HW2 2713   0.051   0.661   0.933 -0.5857 -1.4487  0.5274
  920SOL     OW 2714   2.268   1.111   1.062  0.0218 -0.1571 -0.1913
  920SOL    HW1 2715   2.216   1.027   1.047 -0.2394  0.2918 -2.0411
  920SOL    HW2 2716   2.204   1.186   1.082  0.2430 -0.3399  1.2975
  921SOL     OW 2717   3.548   3.141   0.298  0.1971 -0.2409 -0.1401
  921SOL    HW1 2718   3.615   3.089   0.351  0.5305  0.9989  0.6884
  921SOL    HW2 2719   3.583   3.156   0.205  1.5285  1.1752  0.5392
  922SOL     OW 2720   1.084   2.862   1.672  0.2846 -0.0588 -0.1886
  922SOL    HW1 2721   1.031   2.787   1.633  0.6161  0.1800 -1.1425
  922SOL    HW2 2722   1.181   2.836   1.674  0.3573  0.2098 -0.2077
  923SOL     OW 2723   1.504   3.404   3.024  0.1261  0.3994 -0.0712
  923SOL    HW1 2724   1.459   3.448   3.102  0.9444  2.3144 -0.6216
  923SOL    HW2 2725   1.435   3.368   2.962 -0.5458 -0.7353  1.2724
  924SOL     OW 2726   2.753   0.539   0.790 -0.1648 -0.5508  0.7017
  924SOL    HW1 2727   2.718   0.620   0.743 -1.0100 -1.0080  0.5198
  924SOL    HW2 2728   2.837   0.509   0.746 -0.1587 -0.1132  0.4066
  925SOL     OW 2729   0.878   1.453   2.941  0.2219  0.0635  0.4335
  925SOL    HW1 2730   0.891   1.532   3.001  2.4024 -1.1134  1.6323
  925SOL    HW2 2731   0.846   1.375   2.995 -0.2029 -0.3542 -0.3991
  926SOL     OW 2732   0.171   0.419   1.865  0.3354  0.0539  0.3627
  926SOL    HW1 2733   0.191   0.444   1.770  1.7168 -2.0281  0.0490
  926SOL    HW2 2734   0.072   0.412   1.877  0.1261  0.6886 -0.8129
  927SOL     OW 2735   3.177   0.192   2.781 -0.2620 -0.2378 -0.1644
  927SOL    HW1 2736   3.154   0.263   2.714 -0.7683  0.7999  1.0542
  927SOL    HW2 2737   3.100   0.129   2.792 -1.3572  1.2710  1.4647
  928SOL     OW 2738   2.682   1.189   0.402  0.3293 -0.2534 -0.1664
  928SOL    HW1 2739   2.646   1.277   0.433 -2.4388 -1.7009  1.1487
  928SOL    HW2 2740   2.776   1.178   0.434  0.6722  2.1209 -0.2043
  929SOL     OW 2741   1.594   1.768   1.170 -0.1713 -0.4630 -0.3719
  929SOL    HW1 2742   1.631   1.807   1.254 -1.0494  1.1066 -0.6950
  929SOL    HW2 2743   1.635   1.677   1.156  2.8514  0.7560 -0.2178
  930SOL     OW 2744   0.700   1.679   2.132 -0.2817  0.0866  0.1626
  930SOL    HW1 2745   0.632   1.609   2.157 -0.1506 -0.5873 -1.2818
  930SOL    HW2 2746   0.767   1.639   2.070 -0.7977  1.7518 -1.5403
  931SOL     OW 2747   2.206   2.005   1.555  0.3465 -0.3979 -0.1862
  931SOL    HW1 2748   2.186   2.054   1.640 -0.5266  0.6696 -0.9794
  931SOL    HW2 2749   2.151   1.922   1.550  1.2755 -1.0987  0.8187
  932SOL     OW 2750   1.867   0.637   0.287 -0.1027 -0.1386 -0.1182
  932SOL    HW1 2751   1.800   0.635   0.362 -2.2157  0.3870 -1.8787
  932SOL    HW2 2752   1.940   0.701   0.309 -0.3556 -0.4083  1.7008
  933SOL     OW 2753   1.383   0.899   1.227 -0.2592 -0.2864 -0.1358
  933SOL    HW1 2754   1.399   0.802   1.241 -0.1023 -0.2841 -0.3026
  933SOL    HW2 2755   1.469   0.945   1.209 -0.3591 -0.1490 -0.2639
  934SOL     OW 2756   0.352   3.723   1.838  0.4149  0.1703 -0.2493
  934SOL    HW1 2757   0.338   3.651   1.906 -0.7271  0.8624  0.2840
  934SOL    HW2 2758   0.334   3.686   1.747  0.0080 -0.2660  0.0022
  935SOL     OW 2759   1.925   2.986   0.457  0.0338  0.2557  0.1202
  935SOL    HW1 2760   1.906   3.038   0.374  1.4196  1.7073  0.6559
  935SOL    HW2 2761   2.022   2.961   0.460  0.6844  2.5108  2.4121
  936SOL     OW 2762   0.421   3.403   3.020 -0.1341  0.1195 -0.3448
  936SOL    HW1 2763   0.409   3.501   3.031 -0.8143 -0.0019  0.0477
  936SOL    HW2 2764   0.477   3.368   3.096  0.1625  0.2135 -0.5204
  937SOL     OW 2765   1.289   2.035   1.026 -0.4960  0.5100  0.3380
  937SOL    HW1 2766   1.203   2.085   1.026 -1.6178 -1.3173  1.4183
  937SOL    HW2 2767   1.356   2.085   1.081 -1.0228  1.6644 -0.0325
  938SOL     OW 2768   2.060   2.435   1.041 -0.3522  0.0614 -0.1736
  938SOL    HW1 2769   2.124   2.358   1.029 -0.3226 -0.0274  0.5102
  938SOL    HW2 2770   2.112   2.519   1.055 -0.3604  0.5020 -2.4881
  939SOL     OW 2771   2.142   1.845   0.168  0.5553 -0.4300  0.0466
  939SOL    HW1 2772   2.146   1.746   0.184 -0.9024 -0.5608 -0.2282
  939SOL    HW2 2773   2.054   1.880   0.200  0.7209  0.6363 -0.6096
  940SOL     OW 2774   3.580   1.145   1.650 -0.0555  0.0378  0.4380
  940SOL    HW1 2775   3.577   1.237   1.689 -1.2305  0.9458 -1.6575
  940SOL    HW2 2776   3.531   1.082   1.711 -2.3722  1.5188  0.2119
  941SOL     OW 2777   0.728   3.244   2.407  0.0652 -0.2814  0.6260
  941SOL    HW1 2778   0.808   3.185   2.420  0.1762 -0.1864  0.3861
  941SOL    HW2 2779   0.708   3.251   2.310 -0.0482 -0.0549  0.6658
  942SOL     OW 2780   0.735   2.761   1.968  0.1063  0.3254  0.5074
  942SOL    HW1 2781   0.715   2.715   2.055  0.1272 -2.1140 -0.6775
  942SOL    HW2 2782   0.742   2.859   1.983  1.2029 -0.0988  3.4436
  943SOL     OW 2783   2.884   0.429   2.080 -0.1769  0.5085 -0.0922
  943SOL    HW1 2784   2.941   0.470   2.008  0.5106  0.0649  0.1864
  943SOL    HW2 2785   2.925   0.342   2.109 -1.5091 -0.3128 -0.5642
  944SOL     OW 2786   1.185   2.387   1.457  0.2768 -0.3470  0.3695
  944SOL    HW1 2787   1.145   2.426   1.374  1.8952 -0.2579 -0.4039
  944SOL    HW2 2788   1.119   2.325   1.500 -0.7868  0.0312 -0.6757
  945SOL     OW 2789   2.722   0.646   0.447 -0.2436  0.8749 -0.4859
  945SOL    HW1 2790   2.755   0.559   0.411  0.1446  1.0904 -0.6590
  945SOL    HW2 2791   2.623   0.643   0.457  0.0069 -1.1780  3.5756
  946SOL     OW 2792   0.151   2.299   0.654 -0.2932  0.2985 -0.0086
  946SOL    HW1 2793   0.205   2.234   0.600 -0.5935  0.0461 -0.0076
  946SOL    HW2 2794   0.179   2.393   0.631 -1.8056  0.3078 -2.1414
  947SOL     OW 2795   3.179   0.345   2.178 -0.0727  0.7606 -0.3011
  947SOL    HW1 2796   3.140   0.408   2.111 -2.0172  0.4320  0.4382
  947SOL    HW2 2797   3.185   0.253   2.138 -0.5964  0.7046 -0.2645
  948SOL     OW 2798   0.307   0.721   1.165 -0.5213 -0.1255 -0.5771
  948SOL    HW1 2799   0.335   0.812   1.132 -1.3660  0.1062 -0.6717
  948SOL    HW2 2800   0.229   0.688   1.111 -0.7718 -0.5295  0.0224
  949SOL     OW 2801   1.303   1.460   3.170  0.9010  0.3160 -0.0232
  949SOL    HW1 2802   1.384   1.406   3.193  1.1556 -0.1735 -1.9021
  949SOL    HW2 2803   1.296   1.468   3.071 -1.6208 -0.0659  0.0562
  950SOL     OW 2804   1.942   2.335   3.148  0.6484  0.2273  0.1785
  950SOL    HW1 2805   2.031   2.347   3.104  0.2108  0.1953 -0.7285
  950SOL    HW2 2806   1.903   2.425   3.169  1.3803  0.2499  1.6320
  951SOL     OW 2807   1.139   2.229   1.130  0.5146 -0.0756  0.7687
  951SOL    HW1 2808   1.085   2.188   1.203  2.4164 -1.4623  1.4725
  951SOL    HW2 2809   1.192   2.306   1.166  0.0006  0.4639  0.3864
  952SOL     OW 2810   1.402   0.668   2.574 -0.4491  0.3129  0.3551
  952SOL    HW1 2811   1.413   0.634   2.667  2.5440  0.5157  0.1752
  952SOL    HW2 2812   1.364   0.595   2.516  1.9858 -1.4546  0.8375
  953SOL     OW 2813   2.410   0.134   0.938 -0.3146 -0.5451  0.4085
  953SOL    HW1 2814   2.346   0.107   0.866 -1.2826  0.0687  1.0086
  953SOL    HW2 2815   2.465   0.211   0.908  1.0887 -1.8947 -0.5951
  954SOL     OW 2816  -0.005   0.034   1.656 -0.3274 -0.1819 -0.2291
  954SOL    HW1 2817   0.033  -0.041   1.711 -2.0673 -1.0060 -0.0919
  954SOL    HW2 2818  -0.023   0.112   1.716  1.2194  0.2639 -0.3190
  955SOL     OW 2819   2.721   0.577   2.480  0.1742  0.4347  0.1167
  955SOL    HW1 2820   2.655   0.626   2.536  0.9367  0.1003  1.3558
  955SOL    HW2 2821   2.812   0.618   2.493  0.9623 -1.6057  1.6971
  956SOL     OW 2822   3.203   1.046   0.121 -0.4965  0.1513 -0.1272
  956SOL    HW1 2823   3.277   1.100   0.082  0.7586 -1.1627  0.3281
  956SOL    HW2 2824   3.174   0.977   0.055 -1.5905  0.8812 -0.4372
  957SOL     OW 2825   2.393   2.471   1.221 -0.2657  0.3705  0.1123
  957SOL    HW1 2826   2.474   2.433   1.266 -0.4589  0.0846  0.2230
  957SOL    HW2 2827   2.332   2.511   1.289 -1.6707 -2.1059  0.4354
  958SOL     OW 2828   0.849   0.281   0.226 -0.0292 -0.1708  0.1684
  958SOL    HW1 2829   0.941   0.317   0.241 -0.6959  1.0414  1.6777
  958SOL    HW2 2830   0.835   0.265   0.128  1.7032 -0.2035 -0.1073
  959SOL     OW 2831   0.238   2.874   3.167 -0.0221 -0.2334  0.3234
  959SOL    HW1 2832   0.321   2.875   3.111 -0.1921  0.1310  0.0801
  959SOL    HW2 2833   0.196   2.964   3.167 -1.0143 -0.6743 -0.4442
  960SOL     OW 2834   1.431   2.920   1.926 -0.8225 -0.0047 -0.4850
  960SOL    HW1 2835   1.368   2.859   1.975 -0.5452  0.5777  0.6226
  960SOL    HW2 2836   1.419   2.907   1.828 -1.1687 -1.4322 -0.2793
  961SOL     OW 2837   1.264   2.572   3.043  0.4665 -0.2613  0.0117
  961SOL    HW1 2838   1.265   2.472   3.043  1.2058 -0.2599 -0.5775
  961SOL    HW2 2839   1.320   2.605   3.118 -0.3914 -0.2771  0.6799
  962SOL     OW 2840   2.904   1.000   2.902  0.2050 -0.0490 -0.3534
  962SOL    HW1 2841   2.974   1.029   2.967  0.2694 -1.1194  0.0739
  962SOL    HW2 2842   2.905   1.061   2.822  1.6629 -0.0946 -0.3910
  963SOL     OW 2843   0.123   1.635   3.662 -0.2121 -0.5597  0.4695
  963SOL    HW1 2844   0.107   1.583   3.578 -1.9630 -0.5899  0.7806
  963SOL    HW2 2845   0.128   1.732   3.641 -1.3036 -0.5065  0.3682
  964SOL     OW 2846   3.387   3.182   1.479  0.0260 -0.0094 -0.1183
  964SOL    HW1 2847   3.473   3.212   1.439  0.1485 -0.5457 -0.2597
  964SOL    HW2 2848   3.369   3.234   1.563  1.9869 -1.9331  1.5971
  965SOL     OW 2849   0.076   3.555   2.801 -0.0864  0.0397  0.1164
  965SOL    HW1 2850   0.119   3.486   2.743 -0.2105 -0.5763  0.7428
  965SOL    HW2 2851   0.116   3.644   2.782  1.3223 -0.4817  0.5272
  966SOL     OW 2852   2.936   1.982   1.028 -0.0981  0.0529  0.1535
  966SOL    HW1 2853   2.961   2.055   1.091 -1.6579  0.0134  0.8391
  966SOL    HW2 2854   2.962   2.008   0.935 -1.0917  1.7250  0.3076
  967SOL     OW 2855   0.853   3.686   1.444  0.0983 -0.1521 -0.2373
  967SOL    HW1 2856   0.790   3.644   1.508 -0.5268 -1.0528 -1.4049
  967SOL    HW2 2857   0.804   3.715   1.362  1.1846 -1.0605 -1.2633
  968SOL     OW 2858   3.353   1.175   1.501 -0.1787 -0.5195  0.3331
  968SOL    HW1 2859   3.331   1.270   1.481 -1.9441 -0.4324  2.3102
  968SOL    HW2 2860   3.451   1.166   1.519  0.0646  0.8247 -0.2048
  969SOL     OW 2861   0.869   2.497   1.266 -0.2497  0.4623 -0.3477
  969SOL    HW1 2862   0.926   2.548   1.330 -0.2192  0.5234 -0.4231
  969SOL    HW2 2863   0.884   2.532   1.173  0.1291 -0.0038 -0.4656
  970SOL     OW 2864   0.191   1.108   2.386 -0.3350  0.6855  0.1508
  970SOL    HW1 2865   0.202   1.033   2.321 -1.8015  0.8968 -0.3725
  970SOL    HW2 2866   0.133   1.179   2.346 -1.0717  0.9351  1.5861
  971SOL     OW 2867   3.626   1.004   3.466 -0.0901  0.0064  0.0074
  971SOL    HW1 2868   3.597   0.936   3.399  0.1759  1.4575 -1.6568
  971SOL    HW2 2869   3.681   1.074   3.420 -1.3507  1.9934  1.3831
  972SOL     OW 2870   2.339   0.447   0.499  0.0755  0.1399 -0.5879
  972SOL    HW1 2871   2.393   0.363   0.506  2.3164  1.5798  0.6753
  972SOL    HW2 2872   2.288   0.461   0.583  1.5438  1.1423  0.1893
  973SOL     OW 2873   2.463   0.256   3.309 -0.6902 -0.3192 -0.3448
  973SOL    HW1 2874   2.366   0.238   3.292 -1.1477  1.7087 -0.1787
  973SOL    HW2 2875   2.515   0.240   3.225 -1.4017 -0.0343 -0.8470
  974SOL     OW 2876   1.249   0.893   2.500 -0.2329 -0.0898  0.4836
  974SOL    HW1 2877   1.173   0.884   2.564  0.7820  0.4955  1.7970
  974SOL    HW2 2878   1.313   0.817   2.513  0.6171  0.7067  1.0607
  975SOL     OW 2879   1.495   0.050   0.036  0.2566 -0.1523  0.1956
  975SOL    HW1 2880   1.571   0.031  -0.027 -0.0698 -0.4731 -0.1059
  975SOL    HW2 2881   1.519   0.017   0.128  0.7248  0.3002  0.2396
  976SOL     OW 2882   2.959   1.227   2.762 -0.1596  0.5935  0.1044
  976SOL    HW1 2883   3.016   1.304   2.790 -0.3522  0.6893  0.2433
  976SOL    HW2 2884   2.876   1.261   2.717 -1.7758  0.6741  2.8667
  977SOL     OW 2885   0.581   0.831   0.872  0.3368 -0.0768 -0.7969
  977SOL    HW1 2886   0.615   0.906   0.815  0.6595  0.0424 -0.4545
  977SOL    HW2 2887   0.524   0.868   0.946 -0.3096 -0.2528 -1.1999
  978SOL     OW 2888   2.294   3.617   2.761 -0.0180  0.1012  0.0951
  978SOL    HW1 2889   2.381   3.574   2.786 -0.0121  1.1632  2.1011
  978SOL    HW2 2890   2.289   3.627   2.662  0.7088 -2.8939 -0.3388
  979SOL     OW 2891   3.136   3.398   1.535 -0.2244  0.3764  0.4552
  979SOL    HW1 2892   3.205   3.372   1.602  0.8733 -0.1267 -0.8426
  979SOL    HW2 2893   3.092   3.483   1.564 -0.0871 -0.0561  2.0234
  980SOL     OW 2894   0.862   2.886   3.130  0.3233 -0.1102  0.1761
  980SOL    HW1 2895   0.806   2.815   3.173 -0.3552  0.9260  1.0557
  980SOL    HW2 2896   0.846   2.886   3.032 -1.0145 -0.0100  0.3815
  981SOL     OW 2897   1.771   3.658   1.820  0.3799  0.0296 -0.1044
  981SOL    HW1 2898   1.765   3.701   1.729  0.8236  3.4418  1.3132
  981SOL    HW2 2899   1.857   3.607   1.827  1.2191  1.2419 -1.0505
  982SOL     OW 2900   0.458   2.729   2.118  0.0872 -0.4836 -0.2187
  982SOL    HW1 2901   0.399   2.736   2.199  0.1909  0.6659 -0.2346
  982SOL    HW2 2902   0.467   2.632   2.092  0.0379 -0.8763  1.1326
  983SOL     OW 2903   0.224   2.371   2.025  0.8134 -0.4101  0.0028
  983SOL    HW1 2904   0.135   2.382   1.981  0.7827  1.3437  0.4245
  983SOL    HW2 2905   0.234   2.277   2.059 -0.7247 -0.7158 -0.3444
  984SOL     OW 2906   0.266   1.582   1.767 -0.0757  0.3038 -0.1973
  984SOL    HW1 2907   0.269   1.487   1.736 -2.8587 -0.3529  1.2114
  984SOL    HW2 2908   0.201   1.590   1.843  0.0783  3.3531 -0.2776
  985SOL     OW 2909   3.691   0.263   0.943 -0.2839 -0.1829 -0.1480
  985SOL    HW1 2910   3.656   0.235   1.033 -1.4839 -0.4240 -0.6751
  985SOL    HW2 2911   3.784   0.300   0.954 -0.7132  0.5418  1.3120
  986SOL     OW 2912   2.887   1.280   3.234 -0.1916 -0.8453 -0.2556
  986SOL    HW1 2913   2.961   1.312   3.174 -0.9588  0.3086 -0.6152
  986SOL    HW2 2914   2.905   1.309   3.328 -0.3612 -0.2436 -0.4050
  987SOL     OW 2915   1.789   1.554   0.567 -0.8886  0.2220 -0.5212
  987SOL    HW1 2916   1.797   1.617   0.644 -0.4010 -0.5041  0.0458
  987SOL    HW2 2917   1.880   1.540   0.526 -0.7585 -1.0915  0.1770
  988SOL     OW 2918   3.502   0.632   2.933 -0.1075  0.3400  0.5303
  988SOL    HW1 2919   3.563   0.596   2.862 -1.0880  0.4288 -0.3865
  988SOL    HW2 2920   3.532   0.724   2.959  0.4838  0.1583  0.5228
  989SOL     OW 2921   1.882   3.380   0.241 -0.8393 -0.1937  0.7256
  989SOL    HW1 2922   1.932   3.414   0.321 -0.4563  0.6117  0.1579
  989SOL    HW2 2923   1.784   3.396   0.254 -0.7913 -0.1927  1.0946
  990SOL     OW 2924   0.008   2.175   3.120 -0.2897 -0.2543 -0.1315
  990SOL    HW1 2925   0.083   2.113   3.144  0.1394  0.4939  0.5245
  990SOL    HW2 2926   0.036   2.231   3.043 -0.1188  0.1083  0.1897
  991SOL     OW 2927   1.272   2.481   1.155  0.2089 -0.2179 -0.4283
  991SOL    HW1 2928   1.356   2.466   1.207  1.2768 -0.4563 -2.1459
  991SOL    HW2 2929   1.265   2.577   1.129 -0.9030  0.1399  1.0483
  992SOL     OW 2930   0.657   3.368   3.711 -0.0613 -0.2276 -0.2244
  992SOL    HW1 2931   0.564   3.400   3.690  0.9315  1.2477 -2.8719
  992SOL    HW2 2932   0.719   3.446   3.719  1.4021 -1.2456 -1.0933
  993SOL     OW 2933   2.862   3.501   1.239 -0.3958 -0.0382 -0.1064
  993SOL    HW1 2934   2.875   3.416   1.290  1.9684  0.5938  0.4734
  993SOL    HW2 2935   2.810   3.483   1.156 -1.4874 -1.7017  0.8882
  994SOL     OW 2936   2.626   2.733   2.023  0.6001  0.7914  0.0126
  994SOL    HW1 2937   2.669   2.721   1.933  0.8066  0.9088  0.0963
  994SOL    HW2 2938   2.629   2.647   2.073 -0.8958  0.2980 -0.6963
  995SOL     OW 2939   2.464   2.589   0.319 -0.2422 -0.2168  0.2869
  995SOL    HW1 2940   2.516   2.506   0.298 -0.5876 -0.5979  0.9088
  995SOL    HW2 2941   2.525   2.655   0.364  0.4978  0.6024 -1.7788
  996SOL     OW 2942   0.698   3.681   3.124  0.1010 -0.1167 -0.0851
  996SOL    HW1 2943   0.699   3.605   3.190 -0.9816  0.2467  0.3662
  996SOL    HW2 2944   0.791   3.696   3.090  0.1384 -2.7586 -1.4858
  997SOL     OW 2945   1.016   2.350   0.896  0.3654  0.3885  0.2191
  997SOL    HW1 2946   1.058   2.319   0.981 -1.9635  0.7442  1.5991
  997SOL    HW2 2947   1.004   2.272   0.835 -1.1420 -0.6213  1.7157
  998SOL     OW 2948   1.873   1.498   2.991  0.6034 -0.1435 -0.0748
  998SOL    HW1 2949   1.926   1.579   2.967  0.8969  0.3434  2.0543
  998SOL    HW2 2950   1.931   1.432   3.039 -0.5118  0.1182  1.7171
  999SOL     OW 2951   0.547   2.495   0.712 -0.1298 -0.2604 -0.8595
  999SOL    HW1 2952   0.493   2.578   0.725 -0.3999 -0.7137  1.2035
  999SOL    HW2 2953   0.510   2.422   0.769  1.1013 -1.3321 -1.3894
 1000SOL     OW 2954   0.260   1.618   2.474  0.6207 -0.3456 -0.4435
 1000SOL    HW1 2955   0.296   1.711   2.480 -0.3485 -0.0045  0.1532
 1000SOL    HW2 2956   0.325   1.554   2.516  1.4535  0.0024 -1.1741
 1001SOL     OW 2957   0.444   2.927   2.980 -0.2499 -0.1027  0.0743
 1001SOL    HW1 2958   0.407   2.926   2.887  1.8578 -0.5432 -0.8097
 1001SOL    HW2 2959   0.504   3.006   2.992  0.1989 -0.5369  0.7671
 1002SOL     OW 2960   1.434   2.729   3.500  0.2607 -0.6117  0.2994
 1002SOL    HW1 2961   1.531   2.754   3.501  0.2590 -0.5552 -0.5887
 1002SOL    HW2 2962   1.412   2.682   3.586  1.9724 -4.0205 -0.9543
 1003SOL     OW 2963   1.814   3.462   0.881  0.6202 -0.3446 -0.1305
 1003SOL    HW1 2964   1.910   3.489   0.872  0.4474  0.2414 -0.2249
 1003SOL    HW2 2965   1.774   3.453   0.790  0.1805  0.8779 -0.0688
 1004SOL     OW 2966   0.260   3.682   1.177 -0.5714 -0.6527  0.5102
 1004SOL    HW1 2967   0.306   3.765   1.209 -1.9568  0.4072 -0.1474
 1004SOL    HW2 2968   0.318   3.635   1.110  0.2657 -0.2740  0.9571
 1005SOL     OW 2969   3.067   1.545   0.953 -0.5215  0.2992 -0.5351
 1005SOL    HW1 2970   3.023   1.464   0.991 -0.5044  0.8641  0.7434
 1005SOL    HW2 2971   2.997   1.612   0.929 -0.6438 -0.5766 -2.8916
 1006SOL     OW 2972   2.010   3.496   2.586 -1.1055  0.1715  0.0755
 1006SOL    HW1 2973   2.085   3.449   2.539 -0.9825 -1.3448  1.6999
 1006SOL    HW2 2974   2.011   3.593   2.560  0.7300 -0.0230 -0.7670
 1007SOL     OW 2975   2.307   0.445   2.478  0.0937 -0.0043 -0.5585
 1007SOL    HW1 2976   2.313   0.536   2.438 -1.7585 -0.8935 -3.1003
 1007SOL    HW2 2977   2.324   0.376   2.408  2.5654 -1.6923  1.5412
 1008SOL     OW 2978   0.769   0.519   2.665 -0.3382  0.1072  0.4349
 1008SOL    HW1 2979   0.819   0.563   2.590  3.3852 -3.8394  0.1565
 1008SOL    HW2 2980   0.707   0.450   2.628  1.1426 -1.5050  0.7891
 1009SOL     OW 2981   0.680   3.599   1.656  0.1448 -0.2017  0.1480
 1009SOL    HW1 2982   0.694   3.552   1.743 -2.0434 -0.9503  0.1645
 1009SOL    HW2 2983   0.643   3.691   1.673  0.2834 -0.1203  0.0139
 1010SOL     OW 2984   2.614   3.590   1.779 -0.1615  0.2116  0.1315
 1010SOL    HW1 2985   2.560   3.515   1.817 -0.1889  0.9801  1.6636
 1010SOL    HW2 2986   2.576   3.677   1.809  0.7640  0.8104 -0.3919
 1011SOL     OW 2987   1.914   0.556   1.318 -0.1791 -0.7070  0.2177
 1011SOL    HW1 2988   1.940   0.629   1.256 -1.7841  0.0881  0.4262
 1011SOL    HW2 2989   1.883   0.476   1.265 -2.3338  0.2581 -0.0897
 1012SOL     OW 2990   1.726   1.460   3.239  0.6457  0.1957 -0.0515
 1012SOL    HW1 2991   1.784   1.466   3.159  0.5201 -0.7295 -0.2266
 1012SOL    HW2 2992   1.641   1.412   3.216  0.6844 -0.2427  0.6596
 1013SOL     OW 2993   1.278   1.017   0.498 -0.2167  0.5229 -0.3649
 1013SOL    HW1 2994   1.326   0.940   0.541 -1.7117 -0.9811 -1.2718
 1013SOL    HW2 2995   1.204   0.982   0.441 -1.7291  2.6874  0.1432
 1014SOL     OW 2996   2.185   0.142   0.395 -0.6263  0.5460  0.0140
 1014SOL    HW1 2997   2.239   0.127   0.312 -0.6486  2.1315 -0.3319
 1014SOL    HW2 2998   2.133   0.227   0.385 -1.3515  0.2737  1.2947
 1015SOL     OW 2999   3.397   1.622   2.519 -0.1449  0.0390  0.6647
 1015SOL    HW1 3000   3.304   1.646   2.491 -0.0131  0.5626  0.6615
 1015SOL    HW2 3001   3.461   1.644   2.446  0.1687  1.1768  1.2515
 1016SOL     OW 3002   2.374   1.382   0.431 -0.0459  0.2181  0.5213
 1016SOL    HW1 3003   2.369   1.444   0.352  0.1007 -1.8045 -1.1644
 1016SOL    HW2 3004   2.469   1.368   0.456 -0.0702  0.5457  0.7981
 1017SOL     OW 3005   0.641   0.893   3.439  0.1674 -0.8374  0.1873
 1017SOL    HW1 3006   0.574   0.842   3.492 -2.9196 -0.5146 -3.0707
 1017SOL    HW2 3007   0.713   0.832   3.407 -0.7944 -2.1041  0.3873
 1018SOL     OW 3008   1.528   1.513   3.701  0.4096 -0.1531  0.5258
 1018SOL    HW1 3009   1.600   1.567   3.657  0.0953  0.1033  0.3238
 1018SOL    HW2 3010   1.566   1.425   3.731  0.9406  0.2133  0.9342
 1019SOL     OW 3011   2.555   1.374   3.224  0.1227 -0.2093  0.7838
 1019SOL    HW1 3012   2.531   1.415   3.312 -0.5232  2.2243 -0.4412
 1019SOL    HW2 3013   2.654   1.372   3.214  0.1846  0.0422  1.3197
 1020SOL     OW 3014   2.202   2.694   3.575 -0.3452 -0.3730  0.3179
 1020SOL    HW1 3015   2.213   2.685   3.674 -1.3659  0.2773  0.5079
 1020SOL    HW2 3016   2.214   2.604   3.532 -3.4008 -1.4625  1.4289
 1021SOL     OW 3017   0.819   3.197   2.831 -0.6829 -0.7074  0.0143
 1021SOL    HW1 3018   0.802   3.295   2.816 -1.4496 -0.8573 -0.1439
 1021SOL    HW2 3019   0.911   3.184   2.867 -1.0270  0.1888  1.2809
 1022SOL     OW 3020   1.855   1.311   1.302  0.4060  0.3096  0.0432
 1022SOL    HW1 3021   1.920   1.246   1.265 -1.8675 -0.1649 -3.5950
 1022SOL    HW2 3022   1.783   1.262   1.352  1.5110  0.6445  2.0835
 1023SOL     OW 3023   2.511   1.303   0.101 -0.2560 -0.1533  0.2773
 1023SOL    HW1 3024   2.609   1.300   0.083  0.0965  0.8854  1.8244
 1023SOL    HW2 3025   2.480   1.214   0.134 -0.1210 -0.8639 -1.4037
 1024SOL     OW 3026   2.688   1.362   0.863 -0.6704  0.0006  0.0604
 1024SOL    HW1 3027   2.634   1.349   0.946 -0.0596 -1.7293  0.2233
 1024SOL    HW2 3028   2.648   1.308   0.789  1.0842 -1.7463  0.3194
 1025SOL     OW 3029   3.573   2.394   1.352  0.6901 -0.0090  0.0348
 1025SOL    HW1 3030   3.571   2.357   1.259  1.7019  0.3433 -0.1453
 1025SOL    HW2 3031   3.640   2.469   1.356  1.0588 -0.3850  1.1688
 1026SOL     OW 3032   3.291   2.288   2.591 -0.3591  0.5175 -0.0653
 1026SOL    HW1 3033   3.321   2.298   2.496  0.5485 -2.5513 -0.2228
 1026SOL    HW2 3034   3.370   2.270   2.650 -1.1703 -1.0117  0.6372
 1027SOL     OW 3035   2.188   2.088   2.700  0.0249 -0.0868 -0.7337
 1027SOL    HW1 3036   2.112   2.029   2.674  1.7347 -2.8491  0.2126
 1027SOL    HW2 3037   2.183   2.108   2.798 -0.1682  0.8288 -0.9205
 1028SOL     OW 3038   1.004   2.770   0.994  0.7314 -0.1062 -0.8532
 1028SOL    HW1 3039   1.024   2.812   1.082  1.1832 -0.4403 -0.7913
 1028SOL    HW2 3040   1.072   2.798   0.927  0.9132 -0.5618 -0.8652
 1029SOL     OW 3041   1.026   0.089   3.113  0.7653 -0.2347  0.0927
 1029SOL    HW1 3042   1.061   0.041   3.194 -0.0115  1.0189  1.2163
 1029SOL    HW2 3043   1.062   0.046   3.031  0.3340 -2.5300  1.0350
 1030SOL     OW 3044   3.032   1.110   1.218  0.0709  0.1183  0.1627
 1030SOL    HW1 3045   2.934   1.107   1.201 -0.2438 -1.9345  1.9174
 1030SOL    HW2 3046   3.049   1.132   1.314  1.3527  0.6324 -0.1510
 1031SOL     OW 3047   3.470   2.582   1.085 -0.2617  0.2901 -0.2159
 1031SOL    HW1 3048   3.486   2.547   0.992  1.6867 -2.1532  0.9178
 1031SOL    HW2 3049   3.406   2.522   1.132  0.4410  0.2557  0.7051
 1032SOL     OW 3050   0.993   2.935   3.562 -0.6285 -0.5014  0.3067
 1032SOL    HW1 3051   1.067   2.879   3.524  0.1052  0.8721 -0.3504
 1032SOL    HW2 3052   0.947   2.884   3.635  1.0512 -1.3494  0.8367
 1033SOL     OW 3053   2.243   3.342   2.497  0.7635  0.1084  0.3352
 1033SOL    HW1 3054   2.332   3.305   2.524  1.2647  0.8838 -0.2259
 1033SOL    HW2 3055   2.201   3.282   2.429 -0.1788 -1.4738  2.2162
 1034SOL     OW 3056   2.810   1.958   3.284  0.7327 -0.0584  0.5873
 1034SOL    HW1 3057   2.800   1.979   3.381 -1.0460  0.7585  0.2800
 1034SOL    HW2 3058   2.804   1.859   3.271  0.9933 -0.1761  1.2997
 1035SOL     OW 3059   0.518   2.068   1.929  0.4903  0.3740 -0.0130
 1035SOL    HW1 3060   0.577   2.082   2.009  0.2415 -2.4155  0.7481
 1035SOL    HW2 3061   0.514   1.971   1.907 -1.0281  0.8732 -2.2492
 1036SOL     OW 3062   0.337   0.954   0.685  0.4473  0.2108  0.8478
 1036SOL    HW1 3063   0.413   0.892   0.706  0.0379 -0.6377 -0.1308
 1036SOL    HW2 3064   0.355   1.002   0.599  0.3596  0.8040  1.1557
 1037SOL     OW 3065   2.101   0.673   3.107 -0.1933 -0.0127 -0.2139
 1037SOL    HW1 3066   2.072   0.589   3.153 -0.8988  0.7271  0.7564
 1037SOL    HW2 3067   2.201   0.676   3.104 -0.1196 -0.2163  1.0935
 1038SOL     OW 3068   0.309   2.909   0.474 -0.0410 -0.0605 -0.1219
 1038SOL    HW1 3069   0.235   2.877   0.533  0.0374 -1.0494 -0.5365
 1038SOL    HW2 3070   0.278   2.910   0.379 -0.5460  2.6345  0.0032
 1039SOL     OW 3071   3.531   3.501   2.579  0.0693 -0.5784  0.5772
 1039SOL    HW1 3072   3.498   3.498   2.674  1.5999  0.3527  1.1741
 1039SOL    HW2 3073   3.530   3.596   2.547  2.9104 -0.3550  0.9358
 1040SOL     OW 3074   1.217   0.913   1.021 -0.1885  0.5663 -0.5618
 1040SOL    HW1 3075   1.242   0.891   1.115 -1.2524 -2.1824 -0.8083
 1040SOL    HW2 3076   1.236   1.009   1.003  2.0679  0.6717  1.7604
 1041SOL     OW 3077   2.060   2.911   1.118  0.2837 -0.3757  0.0814
 1041SOL    HW1 3078   2.131   2.980   1.103 -0.2179  0.0463 -0.3961
 1041SOL    HW2 3079   2.086   2.827   1.071  0.9916 -0.5919  0.8256
 1042SOL     OW 3080   1.808   2.944   2.904  0.0143 -0.6046  0.3221
 1042SOL    HW1 3081   1.723   2.928   2.955 -0.0710  0.4448  0.5351
 1042SOL    HW2 3082   1.830   2.863   2.850 -0.8380 -1.0894  0.6806
 1043SOL     OW 3083   0.584   3.417   1.460 -0.4335  0.4022 -0.1820
 1043SOL    HW1 3084   0.616   3.466   1.542  0.5986  2.1672 -1.5680
 1043SOL    HW2 3085   0.520   3.475   1.409 -0.5905 -0.4257 -0.9549
 1044SOL     OW 3086   1.180   2.799   3.423  0.1749  0.5179 -0.2369
 1044SOL    HW1 3087   1.264   2.762   3.461  0.9311  2.0610 -0.3439
 1044SOL    HW2 3088   1.133   2.728   3.371  1.1477 -0.5011  0.2381
 1045SOL     OW 3089   2.412   3.110   2.766 -0.0875  0.2943 -0.4134
 1045SOL    HW1 3090   2.316   3.131   2.784  0.3417  1.4192  0.7853
 1045SOL    HW2 3091   2.453   3.071   2.848  0.4327 -0.3861 -0.9864
 1046SOL     OW 3092   0.709   0.602   2.241  0.1562 -0.2378 -0.4168
 1046SOL    HW1 3093   0.788   0.541   2.252 -0.8412 -1.7485 -1.3150
 1046SOL    HW2 3094   0.632   0.566   2.293 -0.4804  0.1963 -1.0459
 1047SOL     OW 3095   0.379   1.349   2.854 -0.2565  0.1324 -0.2124
 1047SOL    HW1 3096   0.303   1.285   2.867 -0.0906 -0.0087  0.0554
 1047SOL    HW2 3097   0.343   1.443   2.854 -0.4740  0.0515 -0.4207
 1048SOL     OW 3098   1.809   2.001   2.857  0.0051  0.1794 -0.4786
 1048SOL    HW1 3099   1.835   2.097   2.849  0.7962 -0.1072 -1.5349
 1048SOL    HW2 3100   1.876   1.944   2.809 -0.1701 -0.9470  0.5573
 1049SOL     OW 3101   1.895   0.050   3.149  0.0196  0.1729  0.0301
 1049SOL    HW1 3102   1.947  -0.032   3.175 -0.3533 -0.5805 -1.4934
 1049SOL    HW2 3103   1.933   0.088   3.065  0.6905  2.0688  1.1359
 1050SOL     OW 3104   3.265   1.703   0.296  0.4899  0.1181  0.3042
 1050SOL    HW1 3105   3.308   1.759   0.366  0.7896  1.3417 -0.8161
 1050SOL    HW2 3106   3.166   1.698   0.314  0.4897  0.8333  0.5353
 1051SOL     OW 3107   1.991   0.122   0.816 -0.6399  1.0056 -0.1555
 1051SOL    HW1 3108   2.015   0.093   0.723  1.0807  1.5349  0.0927
 1051SOL    HW2 3109   2.017   0.051   0.881 -2.0584  0.5347 -0.0705
 1052SOL     OW 3110   1.695   1.990   2.479 -0.4916 -0.1179 -0.5343
 1052SOL    HW1 3111   1.726   1.959   2.389 -0.1962 -0.6589 -0.2508
 1052SOL    HW2 3112   1.723   2.085   2.493 -0.7959  0.0622 -1.1291
 1053SOL     OW 3113   1.596   1.736   1.596 -0.1985  0.3684  0.0546
 1053SOL    HW1 3114   1.509   1.751   1.642  0.2146  1.4569  0.5074
 1053SOL    HW2 3115   1.614   1.637   1.589 -1.1374  0.1542  0.5459
 1054SOL     OW 3116   0.354   1.724   2.776  0.0335 -0.5282 -0.2635
 1054SOL    HW1 3117   0.392   1.779   2.701  0.3896 -2.3928 -1.5105
 1054SOL    HW2 3118   0.426   1.670   2.818 -0.7461 -2.1976 -0.9822
 1055SOL     OW 3119   3.023   2.276   2.271 -0.1902 -0.4917 -0.3215
 1055SOL    HW1 3120   3.020   2.334   2.353 -0.8007 -0.2756 -0.4906
 1055SOL    HW2 3121   3.005   2.181   2.297  0.6352 -0.5847 -0.0676
 1056SOL     OW 3122   2.389   2.938   0.958  0.1511 -0.4114 -0.2806
 1056SOL    HW1 3123   2.321   2.976   0.895  0.9235  1.6178  0.0358
 1056SOL    HW2 3124   2.473   2.919   0.907  0.2120 -0.4373 -0.1690
 1057SOL     OW 3125   3.599   1.688   2.917 -0.2965 -0.2456 -0.0911
 1057SOL    HW1 3126   3.535   1.762   2.935 -0.3973 -0.7345  1.7973
 1057SOL    HW2 3127   3.691   1.725   2.905 -0.3169  0.1923  0.9965
 1058SOL     OW 3128   2.023   2.482   1.511  0.0945  0.3042 -0.4194
 1058SOL    HW1 3129   1.936   2.514   1.551  0.1154  0.7826 -0.7523
 1058SOL    HW2 3130   2.093   2.483   1.582  0.3675  2.0872 -0.6548
 1059SOL     OW 3131   0.516   0.503   1.673  0.2959 -0.3099  0.0021
 1059SOL    HW1 3132   0.573   0.534   1.596 -0.1160  1.0235  0.2005
 1059SOL    HW2 3133   0.495   0.406   1.662  2.7080 -0.9049  0.0005
 1060SOL     OW 3134   2.886   3.423   0.795 -0.2038  0.1701  0.3452
 1060SOL    HW1 3135   2.950   3.461   0.862 -0.7676  1.0662  0.3866
 1060SOL    HW2 3136   2.849   3.337   0.830 -0.6774  0.7487  1.3143
 1061SOL     OW 3137   2.573   3.529   0.434 -1.0199 -0.6423 -0.0424
 1061SOL    HW1 3138   2.654   3.525   0.375 -1.2922  0.3486 -0.5127
 1061SOL    HW2 3139   2.599   3.563   0.524 -0.7558 -1.2537  0.1153
 1062SOL     OW 3140   3.295   1.186   0.931 -0.2845 -0.1037  0.2887
 1062SOL    HW1 3141   3.296   1.256   1.002 -2.2169  0.0566  0.2251
 1062SOL    HW2 3142   3.265   1.099   0.970 -1.4639  0.0119 -0.3222
 1063SOL     OW 3143   1.600   0.694   1.663 -0.3302  0.3745  0.4977
 1063SOL    HW1 3144   1.571   0.598   1.669  1.4668 -0.2520 -0.1453
 1063SOL    HW2 3145   1.636   0.712   1.572 -2.1283  2.1656  0.0557
 1064SOL     OW 3146   2.242   1.690   3.241 -0.0035 -0.0853  0.1149
 1064SOL    HW1 3147   2.190   1.768   3.276  0.6818  0.2195  0.4664
 1064SOL    HW2 3148   2.336   1.718   3.221  0.5722 -1.0811  1.3270
 1065SOL     OW 3149   2.388   2.822   0.667  0.4362 -0.2068 -0.6142
 1065SOL    HW1 3150   2.404   2.910   0.622 -0.4003 -0.8133 -2.1803
 1065SOL    HW2 3151   2.475   2.785   0.700  0.8420  1.0354 -0.2361
 1066SOL     OW 3152   0.669   2.389   3.427 -0.1273 -0.1410 -0.2592
 1066SOL    HW1 3153   0.713   2.319   3.483  0.5169 -0.7945 -1.5459
 1066SOL    HW2 3154   0.680   2.479   3.470  0.1663 -0.6512  0.7506
 1067SOL     OW 3155   3.570   1.340   1.248  0.9614  0.3643 -0.2421
 1067SOL    HW1 3156   3.625   1.276   1.194  1.3047  0.3264  0.1469
 1067SOL    HW2 3157   3.625   1.376   1.323  0.0426 -0.7337  1.0008
 1068SOL     OW 3158   0.137   3.350   3.536  0.1230 -0.1423  0.1071
 1068SOL    HW1 3159   0.093   3.377   3.450  1.3379  1.6525 -0.0107
 1068SOL    HW2 3160   0.212   3.287   3.517 -0.0645 -0.3201 -0.0561
 1069SOL     OW 3161   3.188   2.819   0.428 -0.6443 -0.1851  0.5785
 1069SOL    HW1 3162   3.175   2.918   0.413  1.9060  0.3931  1.7679
 1069SOL    HW2 3163   3.158   2.795   0.520  1.5826  0.1603  1.4514
 1070SOL     OW 3164   2.836   0.758   2.829  0.0633  0.5246  0.1698
 1070SOL    HW1 3165   2.851   0.852   2.859  0.5832  0.3030  0.6199
 1070SOL    HW2 3166   2.865   0.748   2.734  0.0030  0.8194  0.1199
 1071SOL     OW 3167   1.526   1.280   3.202  0.0676  0.8659 -0.7114
 1071SOL    HW1 3168   1.515   1.210   3.273  0.1323  2.0345  0.4937
 1071SOL    HW2 3169   1.535   1.236   3.113 -2.6145 -0.5820 -0.3692
 1072SOL     OW 3170   0.033   1.740   1.939  0.3535 -0.0354 -0.0217
 1072SOL    HW1 3171  -0.052   1.719   1.988 -0.2035  0.5616 -0.7257
 1072SOL    HW2 3172   0.110   1.698   1.988 -0.3899 -1.0255  0.3385
 1073SOL     OW 3173   1.419   3.557   1.773 -0.3958 -0.4840  0.1043
 1073SOL    HW1 3174   1.323   3.585   1.781 -0.7597 -0.9216 -1.9787
 1073SOL    HW2 3175   1.427   3.459   1.790 -0.2522 -0.3686  0.6934
 1074SOL     OW 3176   2.321   1.412   2.470  0.1071  0.5862  0.1070
 1074SOL    HW1 3177   2.248   1.347   2.447 -0.2289  0.8954  0.2717
 1074SOL    HW2 3178   2.337   1.411   2.568  0.7565  0.0793  0.0033
 1075SOL     OW 3179   1.479   0.177   2.419  0.7008 -0.3643 -0.0450
 1075SOL    HW1 3180   1.549   0.157   2.487  1.1216 -0.9568 -0.6450
 1075SOL    HW2 3181   1.520   0.185   2.328  0.3856  2.0172 -0.0533
 1076SOL     OW 3182   0.834   3.055   3.331 -0.5772  0.1843  0.3262
 1076SOL    HW1 3183   0.904   3.026   3.396  0.4001  1.5824 -0.0692
 1076SOL    HW2 3184   0.839   2.999   3.249  0.5228  0.6911  0.0368
 1077SOL     OW 3185   1.385   1.068   2.234 -0.2630 -0.1705 -0.6257
 1077SOL    HW1 3186   1.341   1.004   2.298  0.9441  0.7133  1.1413
 1077SOL    HW2 3187   1.339   1.062   2.145  0.6000 -4.5017 -1.0228
 1078SOL     OW 3188   1.356   2.782   1.633 -0.3180  0.9575 -0.1232
 1078SOL    HW1 3189   1.387   2.765   1.540 -0.6102  2.7932 -0.5941
 1078SOL    HW2 3190   1.350   2.696   1.683 -1.3497 -0.2178 -2.1674
 1079SOL     OW 3191   2.056   3.034   2.445 -0.2569 -0.3381 -0.0424
 1079SOL    HW1 3192   2.003   2.964   2.397 -0.8732  1.1313 -1.6353
 1079SOL    HW2 3193   2.054   3.119   2.392  0.0666  1.0431  2.0425
 1080SOL     OW 3194   3.422   3.171   0.532  0.0460 -0.9994 -0.4137
 1080SOL    HW1 3195   3.457   3.140   0.444  1.3340 -3.7567  0.9415
 1080SOL    HW2 3196   3.450   3.266   0.548  3.1481 -1.6772 -1.3198
 1081SOL     OW 3197   3.491   0.206   2.219 -0.1826  0.8745 -0.1113
 1081SOL    HW1 3198   3.571   0.146   2.226 -1.3904 -0.7919  0.0178
 1081SOL    HW2 3199   3.520   0.301   2.228  1.4578  0.2344  3.3440
 1082SOL     OW 3200   0.115   3.127   3.219 -0.6942 -0.1683  0.6255
 1082SOL    HW1 3201   0.053   3.087   3.287 -0.2157  0.2900  1.3384
 1082SOL    HW2 3202   0.065   3.193   3.164 -0.9481 -0.1260  0.9031
 1083SOL     OW 3203   2.166   0.459   1.145 -0.1913  0.1563  0.3155
 1083SOL    HW1 3204   2.106   0.443   1.066  1.1458 -0.1323 -0.6694
 1083SOL    HW2 3205   2.171   0.376   1.200 -2.2712  0.7729  1.5747
 1084SOL     OW 3206   1.312   2.233   3.253 -0.3230 -0.0387 -0.1987
 1084SOL    HW1 3207   1.351   2.242   3.161  0.0794 -1.5004 -0.1873
 1084SOL    HW2 3208   1.365   2.289   3.317 -1.2810  1.8796 -1.0160
 1085SOL     OW 3209   2.636   3.017   0.391  0.1540 -0.4848 -0.0924
 1085SOL    HW1 3210   2.664   2.922   0.408 -0.6892 -0.8735 -0.7893
 1085SOL    HW2 3211   2.611   3.027   0.295 -0.9913  0.1240  0.2593
 1086SOL     OW 3212   1.801   1.374   3.483  0.0328  0.4383  0.7270
 1086SOL    HW1 3213   1.782   1.408   3.391 -1.3774  0.3892  0.9721
 1086SOL    HW2 3214   1.774   1.278   3.489 -1.0880  0.7734  1.5125
 1087SOL     OW 3215   2.835   0.530   1.043  0.0012 -0.2631 -0.3210
 1087SOL    HW1 3216   2.824   0.529   0.943 -0.2051 -2.7718 -0.3345
 1087SOL    HW2 3217   2.872   0.442   1.073  1.3499  0.9443  1.7125
 1088SOL     OW 3218   2.402   1.791   1.465 -0.4443  0.1967  0.1052
 1088SOL    HW1 3219   2.357   1.869   1.508 -0.8057 -0.7058  1.4242
 1088SOL    HW2 3220   2.478   1.761   1.522  0.8363  0.6809 -1.2910
 1089SOL     OW 3221   3.497   0.257   2.666 -0.0932 -0.5926  0.0343
 1089SOL    HW1 3222   3.402   0.283   2.686  0.5134  1.2486  0.7642
 1089SOL    HW2 3223   3.548   0.338   2.636  1.5754 -1.2405  0.9940
 1090SOL     OW 3224   1.141   3.327   1.746 -0.1668  0.3761  0.1482
 1090SOL    HW1 3225   1.228   3.278   1.739 -0.4836 -0.1492 -0.1326
 1090SOL    HW2 3226   1.100   3.336   1.656 -0.6073  0.2582  0.3356
 1091SOL     OW 3227   3.375   2.323   3.408 -0.0464  0.3386  0.2726
 1091SOL    HW1 3228   3.469   2.291   3.398 -0.3611 -0.2699 -0.9870
 1091SOL    HW2 3229   3.370   2.421   3.389  0.3774  0.4311  0.6322
 1092SOL     OW 3230   0.133   3.206   0.664  1.2825 -0.0769  0.0031
 1092SOL    HW1 3231   0.175   3.277   0.720  0.6324 -0.5161  1.0966
 1092SOL    HW2 3232   0.078   3.147   0.723 -0.1479 -0.0336 -1.2369
 1093SOL     OW 3233   2.711   1.390   2.747 -0.0830  0.3427  0.0807
 1093SOL    HW1 3234   2.668   1.458   2.688 -1.0743  1.3336  1.8823
 1093SOL    HW2 3235   2.640   1.335   2.791  0.5657  0.5361  1.4026
 1094SOL     OW 3236   1.528   0.202   3.348  0.2589 -0.1871  0.1315
 1094SOL    HW1 3237   1.463   0.192   3.272 -0.2051 -0.5234  0.5671
 1094SOL    HW2 3238   1.484   0.175   3.433  0.6672  0.5191  0.5791
 1095SOL     OW 3239   1.897   1.382   1.672  0.2346  0.4338  0.2094
 1095SOL    HW1 3240   1.987   1.397   1.632  1.2432 -0.1109  2.1336
 1095SOL    HW2 3241   1.876   1.284   1.670 -0.2308  0.5378 -0.0663
 1096SOL     OW 3242   0.249   1.804   1.605 -0.5172  0.7145  0.2552
 1096SOL    HW1 3243   0.209   1.720   1.640 -0.8575  0.3833 -0.9114
 1096SOL    HW2 3244   0.267   1.795   1.507  0.7089  1.5134  0.3750
 1097SOL     OW 3245   2.098   1.628   0.501  0.0082  0.1244 -0.3192
 1097SOL    HW1 3246   2.178   1.581   0.536  0.6229 -0.5553 -2.4760
 1097SOL    HW2 3247   2.103   1.725   0.526  0.2578 -0.3486  1.5888
 1098SOL     OW 3248   0.443   2.624   2.739  0.0114 -0.6245 -0.6039
 1098SOL    HW1 3249   0.470   2.646   2.833 -0.4318 -0.6726 -0.4605
 1098SOL    HW2 3250   0.479   2.693   2.676  0.3803 -0.6382 -0.4072
 1099SOL     OW 3251   3.150   0.433   3.583 -1.0834 -0.0493 -0.2977
 1099SOL    HW1 3252   3.102   0.359   3.630 -0.2531  0.9300  2.2673
 1099SOL    HW2 3253   3.101   0.519   3.597 -0.0497  0.5079  0.0093
 1100SOL     OW 3254   2.552   1.005   2.692  0.1932 -0.2064 -0.1085
 1100SOL    HW1 3255   2.481   1.063   2.653 -0.3143 -0.4831  0.3989
 1100SOL    HW2 3256   2.558   1.022   2.791 -0.4157 -1.4847  0.1661
 1101SOL     OW 3257   0.925   1.036   0.490 -0.4794  0.1538  0.3411
 1101SOL    HW1 3258   0.977   1.051   0.574 -0.7639 -1.1442  0.7728
 1101SOL    HW2 3259   0.969   0.964   0.436 -1.2155 -0.1874  0.1872
 1102SOL     OW 3260   2.503   2.758   1.185  0.1317 -0.1319 -0.5364
 1102SOL    HW1 3261   2.460   2.837   1.140 -0.2240 -0.6743 -1.1806
 1102SOL    HW2 3262   2.439   2.681   1.182 -0.4435  0.1518  2.0733
 1103SOL     OW 3263   2.395   2.343   3.677 -0.0104 -0.2798  0.3871
 1103SOL    HW1 3264   2.432   2.285   3.750 -1.5974 -1.9778 -0.0814
 1103SOL    HW2 3265   2.419   2.439   3.695  0.4437 -0.7527  2.6160
 1104SOL     OW 3266   0.248   1.173   0.071 -0.2044 -0.4816  0.3773
 1104SOL    HW1 3267   0.298   1.256   0.094 -0.7697 -0.9630  3.9564
 1104SOL    HW2 3268   0.164   1.197   0.022 -0.3664  1.0944  1.3449
 1105SOL     OW 3269   0.817   2.458   0.653 -0.4289  0.2780  0.5371
 1105SOL    HW1 3270   0.866   2.472   0.739 -1.2092 -2.8609  1.6395
 1105SOL    HW2 3271   0.718   2.468   0.668 -0.5597 -0.0666 -0.0391
 1106SOL     OW 3272   0.482   3.635   2.462 -0.3324  0.5970 -0.1298
 1106SOL    HW1 3273   0.536   3.675   2.537 -0.7082 -0.2951  0.6376
 1106SOL    HW2 3274   0.521   3.662   2.375  2.1241 -0.9913  0.3887
 1107SOL     OW 3275   2.772   1.339   3.496  0.0884 -0.5357 -0.4814
 1107SOL    HW1 3276   2.776   1.323   3.594 -1.9522  0.2191 -0.2381
 1107SOL    HW2 3277   2.689   1.389   3.473  1.5759  1.3115 -2.3351
 1108SOL     OW 3278   2.049   0.423   3.259  0.4660 -0.3729  0.0744
 1108SOL    HW1 3279   1.953   0.397   3.258  0.2347  0.4265  0.5119
 1108SOL    HW2 3280   2.106   0.342   3.250 -0.2534 -0.7455 -1.6082
 1109SOL     OW 3281   1.178   2.843   0.787  0.1304  0.1069 -0.6132
 1109SOL    HW1 3282   1.237   2.839   0.706 -0.0287 -0.2262 -0.7123
 1109SOL    HW2 3283   1.178   2.936   0.823  0.3473  0.2154 -0.8884
 1110SOL     OW 3284   3.276   2.034   1.631 -0.0001 -0.0147 -0.1471
 1110SOL    HW1 3285   3.227   2.096   1.692  1.2386  0.9653 -0.1094
 1110SOL    HW2 3286   3.325   2.087   1.561 -0.6473 -1.0705 -1.4565
 1111SOL     OW 3287   0.242   2.143   3.469 -0.0019  0.0824 -0.1996
 1111SOL    HW1 3288   0.276   2.133   3.376  0.2256  1.5555 -0.2991
 1111SOL    HW2 3289   0.173   2.215   3.471 -0.3144 -0.2269  0.7088
 1112SOL     OW 3290   2.394   3.018   1.742  0.2056 -0.3102  0.1081
 1112SOL    HW1 3291   2.473   3.052   1.793 -0.6167  0.8679  0.6617
 1112SOL    HW2 3292   2.409   3.029   1.644 -0.4489  2.8593  0.2564
 1113SOL     OW 3293   2.866   3.068   1.771  0.1309  0.4233  0.2028
 1113SOL    HW1 3294   2.949   3.012   1.766  0.5790  0.7668  2.5497
 1113SOL    HW2 3295   2.891   3.163   1.788 -0.7290  0.7616 -0.3608
 1114SOL     OW 3296   3.459   2.544   1.836 -0.1161  0.4383  0.2456
 1114SOL    HW1 3297   3.387   2.480   1.864  1.3265 -3.2162 -3.4360
 1114SOL    HW2 3298   3.543   2.524   1.888  0.0942 -0.1158 -0.2958
 1115SOL     OW 3299   0.284   3.682   1.515 -0.6288 -0.2202 -0.5073
 1115SOL    HW1 3300   0.345   3.611   1.550  0.4823  0.6348 -0.6310
 1115SOL    HW2 3301   0.190   3.648   1.512 -0.1036 -1.7200 -0.6895
 1116SOL     OW 3302   2.624   3.706   0.080  0.4369  0.1516  0.8383
 1116SOL    HW1 3303   2.598   3.745  -0.008 -1.0188  0.9442  1.5737
 1116SOL    HW2 3304   2.653   3.611   0.067  2.6037  0.9682 -0.7819
 1117SOL     OW 3305   0.880   0.625   1.674  0.3661  0.2659 -0.3823
 1117SOL    HW1 3306   0.820   0.573   1.612 -0.1354  1.7235 -1.1619
 1117SOL    HW2 3307   0.965   0.648   1.627  1.0054 -0.6504  0.2859
 1118SOL     OW 3308   3.291   2.705   3.609  0.0423  0.2190 -0.4816
 1118SOL    HW1 3309   3.205   2.698   3.661  0.2571  0.3846 -0.1028
 1118SOL    HW2 3310   3.359   2.754   3.663  0.1988  0.6055 -1.0128
 1119SOL     OW 3311   1.827   0.763   3.157  0.1149 -0.4085  0.4658
 1119SOL    HW1 3312   1.921   0.746   3.126 -0.2795  0.6290 -1.4498
 1119SOL    HW2 3313   1.770   0.683   3.138  0.3952 -0.6915  0.7958
 1120SOL     OW 3314   0.748   2.206   3.621  0.6976 -0.2205  0.0582
 1120SOL    HW1 3315   0.653   2.191   3.595  0.4065 -0.5900  1.2792
 1120SOL    HW2 3316   0.752   2.247   3.712  1.7289 -1.5718  0.6463
 1121SOL     OW 3317   1.134   3.138   3.641  0.1615  0.4065  0.5808
 1121SOL    HW1 3318   1.068   3.070   3.609 -0.7474  2.1863 -1.6457
 1121SOL    HW2 3319   1.219   3.130   3.590  1.1918 -0.8956  2.3889
 1122SOL     OW 3320   1.091   1.375   3.714 -0.1070 -0.3719  0.3608
 1122SOL    HW1 3321   1.165   1.407   3.772 -0.4043 -0.0769  0.5811
 1122SOL    HW2 3322   1.113   1.392   3.618  0.2967 -0.6758  0.3968
 1123SOL     OW 3323   0.567   1.573   2.871  0.7181  0.2018  0.1348
 1123SOL    HW1 3324   0.559   1.476   2.845 -0.2926 -0.1717  1.7260
 1123SOL    HW2 3325   0.599   1.580   2.965  1.4081  1.4544 -0.1700
 1124SOL     OW 3326   2.819   1.169   2.097 -0.2790  0.2387 -0.0801
 1124SOL    HW1 3327   2.902   1.217   2.122  0.8890 -0.2605 -2.6290
 1124SOL    HW2 3328   2.800   1.097   2.163  1.6679 -0.0288  0.2273
 1125SOL     OW 3329   2.177   0.832   1.011  0.4431  0.0695 -0.4598
 1125SOL    HW1 3330   2.176   0.801   1.106 -0.4382 -1.5311 -0.9575
 1125SOL    HW2 3331   2.234   0.770   0.956 -1.5192 -0.8809 -1.5155
 1126SOL     OW 3332   0.804   1.035   1.208  0.1355 -0.0903 -0.1857
 1126SOL    HW1 3333   0.849   1.113   1.164  1.0049 -0.8156 -0.6209
 1126SOL    HW2 3334   0.815   0.954   1.150  0.3575 -0.8181  0.8537
 1127SOL     OW 3335   0.159   2.024   0.191  0.4207  0.2400  0.0308
 1127SOL    HW1 3336   0.248   2.063   0.216 -1.2503  2.9921  2.2714
 1127SOL    HW2 3337   0.160   1.925   0.208  2.1323  0.6664  2.9874
 1128SOL     OW 3338   2.795   3.538   3.427 -0.2292  0.4130  0.2825
 1128SOL    HW1 3339   2.887   3.569   3.400 -0.0379  0.4314  0.9303
 1128SOL    HW2 3340   2.731   3.555   3.352  0.6647 -1.4778 -1.0024
 1129SOL     OW 3341   0.700   0.983   3.006 -0.1100  0.4722  0.7482
 1129SOL    HW1 3342   0.762   0.908   3.028 -0.2164  0.4398  0.9416
 1129SOL    HW2 3343   0.632   0.992   3.079  0.6334  1.5392  1.3343
 1130SOL     OW 3344   1.408   1.616   0.740 -0.0380 -0.4864  0.3059
 1130SOL    HW1 3345   1.310   1.593   0.737 -0.2703  0.5632 -0.7852
 1130SOL    HW2 3346   1.424   1.682   0.813 -0.1208 -0.7008  0.5225
 1131SOL     OW 3347   2.609   0.569   1.467  0.1534  0.0093  0.6692
 1131SOL    HW1 3348   2.607   0.570   1.567  1.4291 -0.9326  0.7278
 1131SOL    HW2 3349   2.601   0.475   1.434 -0.9281  0.3699 -0.1543
 1132SOL     OW 3350   0.467   1.374   1.261  0.2926  0.1198 -0.3593
 1132SOL    HW1 3351   0.553   1.422   1.278 -0.2404  0.8761  0.2697
 1132SOL    HW2 3352   0.390   1.432   1.288 -0.3778 -1.0580  0.3436
 1133SOL     OW 3353   3.587   3.141   2.476 -0.0716  0.2130  0.4661
 1133SOL    HW1 3354   3.633   3.212   2.531 -0.1979  0.1777  0.6180
 1133SOL    HW2 3355   3.498   3.121   2.516  0.5903 -1.1478  1.3397
 1134SOL     OW 3356   0.533   2.724   2.487  0.4495  0.2225 -0.2060
 1134SOL    HW1 3357   0.474   2.692   2.412 -0.5051 -1.0189  1.0224
 1134SOL    HW2 3358   0.625   2.686   2.475  0.6544  1.0483 -1.3971
 1135SOL     OW 3359   0.561   3.450   2.791 -0.4409  0.3721  0.0250
 1135SOL    HW1 3360   0.551   3.368   2.735  0.0689  0.2486  0.1136
 1135SOL    HW2 3361   0.499   3.443   2.870  0.5948 -0.5915  0.7970
 1136SOL     OW 3362   1.848   2.273   2.891  0.0155 -0.2839 -0.0572
 1136SOL    HW1 3363   1.869   2.297   2.985  0.6560 -0.6511 -0.0991
 1136SOL    HW2 3364   1.765   2.320   2.862  0.3568  0.5914  0.3684
 1137SOL     OW 3365   3.373   1.057   3.555  0.3780 -0.0847  0.5092
 1137SOL    HW1 3366   3.380   1.130   3.623 -0.6578  0.7187 -0.2090
 1137SOL    HW2 3367   3.457   1.055   3.500  0.2103  0.9169  0.2012
 1138SOL     OW 3368   1.311   1.235   1.573  0.0827  0.1831  0.0259
 1138SOL    HW1 3369   1.308   1.179   1.655 -0.3523 -0.7152 -0.5987
 1138SOL    HW2 3370   1.403   1.273   1.563  1.3243 -2.8273 -1.1163
 1139SOL     OW 3371   3.047   2.358   0.847 -0.2743 -0.1816  0.2851
 1139SOL    HW1 3372   3.077   2.263   0.849 -1.4113 -0.5472  2.4486
 1139SOL    HW2 3373   3.088   2.408   0.923 -0.6306  0.7800 -0.1301
 1140SOL     OW 3374   0.012   1.882   1.066 -0.0547  0.5177 -0.3764
 1140SOL    HW1 3375   0.010   1.869   0.967 -0.7809 -0.7485 -0.2195
 1140SOL    HW2 3376   0.074   1.957   1.089 -0.4714  1.3381 -1.8326
 1141SOL     OW 3377   0.812   1.021   2.776  0.0018 -0.0985  0.1074
 1141SOL    HW1 3378   0.759   0.993   2.855  1.2977  0.8435  1.3506
 1141SOL    HW2 3379   0.750   1.053   2.704 -1.1795 -0.7703  0.7938
 1142SOL     OW 3380   1.916   0.832   3.443  1.0121  0.3368 -0.2875
 1142SOL    HW1 3381   1.915   0.789   3.353  0.6466  0.5933 -0.4080
 1142SOL    HW2 3382   1.866   0.774   3.508  0.5079  0.5828 -0.4530
 1143SOL     OW 3383   1.444   3.377   1.168  0.0468  0.0459  0.0667
 1143SOL    HW1 3384   1.361   3.371   1.113 -1.5195 -0.0851  2.2735
 1143SOL    HW2 3385   1.507   3.443   1.126 -0.4620 -0.9767 -2.4751
 1144SOL     OW 3386   0.151   0.699   2.753  0.2763 -0.4694  0.4868
 1144SOL    HW1 3387   0.193   0.790   2.761  1.1334 -0.7993 -0.0985
 1144SOL    HW2 3388   0.161   0.649   2.838  0.5130 -0.3107  0.5514
 1145SOL     OW 3389   1.012   3.423   2.437  0.5201  0.2798  0.1497
 1145SOL    HW1 3390   0.913   3.437   2.444 -0.0582 -1.8606 -2.1564
 1145SOL    HW2 3391   1.042   3.441   2.343  2.5040  1.5643  0.9577
 1146SOL     OW 3392   3.472   3.614   1.221  0.3485 -0.3169  0.0984
 1146SOL    HW1 3393   3.500   3.590   1.128  0.6279 -2.0547  0.5875
 1146SOL    HW2 3394   3.377   3.586   1.236  1.1164 -2.6863  1.1322
 1147SOL     OW 3395   0.902   1.536   1.974 -0.0791  0.0511 -0.4080
 1147SOL    HW1 3396   0.970   1.602   2.006  0.0306 -1.0242  1.6936
 1147SOL    HW2 3397   0.941   1.482   1.899  1.6084 -0.8537  1.0438
 1148SOL     OW 3398   0.642   1.071   2.532 -0.2963 -0.4826  0.2641
 1148SOL    HW1 3399   0.674   0.991   2.482 -1.1857 -0.6449 -0.0586
 1148SOL    HW2 3400   0.572   1.118   2.479 -1.1533 -0.5776  1.2845
 1149SOL     OW 3401   2.887   2.294   1.594 -0.2477  0.7547 -0.4709
 1149SOL    HW1 3402   2.812   2.228   1.588 -1.0674  1.7526 -1.5811
 1149SOL    HW2 3403   2.929   2.304   1.504 -0.2247  1.8460 -0.3466
 1150SOL     OW 3404   3.696   1.395   0.672 -0.1566 -0.4077  0.1656
 1150SOL    HW1 3405   3.722   1.343   0.590 -0.4703  0.6672 -0.6405
 1150SOL    HW2 3406   3.641   1.474   0.645 -0.7223 -0.3324  1.4788
 1151SOL     OW 3407   2.311   3.355   1.650  0.5403  0.6684  0.4434
 1151SOL    HW1 3408   2.221   3.394   1.633  0.6357  0.7259  0.0650
 1151SOL    HW2 3409   2.323   3.272   1.596 -0.3786 -0.9877  2.6294
 1152SOL     OW 3410   0.726   2.348   1.964 -0.1721  0.2462  0.2577
 1152SOL    HW1 3411   0.646   2.407   1.969  0.2400  0.8483 -0.1417
 1152SOL    HW2 3412   0.757   2.325   2.056 -2.3640 -2.1803  0.5236
 1153SOL     OW 3413   3.571   3.550   0.961  0.0421  0.0359 -0.4056
 1153SOL    HW1 3414   3.653   3.498   0.983 -0.1394  0.2682  0.8770
 1153SOL    HW2 3415   3.513   3.495   0.899  1.4512  0.1603 -1.8989
 1154SOL     OW 3416   2.426   0.392   1.145 -0.2238  0.4687 -0.1503
 1154SOL    HW1 3417   2.341   0.445   1.139  0.4872  1.5709 -1.0120
 1154SOL    HW2 3418   2.432   0.329   1.067  0.8104  2.1058 -1.4725
 1155SOL     OW 3419   0.273   1.021   3.383 -0.2026 -0.0964  0.0483
 1155SOL    HW1 3420   0.314   1.104   3.422  0.9542 -0.4144 -0.4600
 1155SOL    HW2 3421   0.239   0.963   3.457  0.3164  0.1485  0.4877
 1156SOL     OW 3422   0.649   2.308   0.961  0.1203 -0.7234  0.6790
 1156SOL    HW1 3423   0.727   2.280   0.904  0.0217 -2.5283  1.3749
 1156SOL    HW2 3424   0.679   2.315   1.056 -0.4708 -0.9877  0.8841
 1157SOL     OW 3425   3.336   1.895   2.647 -0.2548 -0.2028 -0.0334
 1157SOL    HW1 3426   3.316   1.949   2.566 -0.7107 -0.2606  0.0386
 1157SOL    HW2 3427   3.304   1.801   2.634  0.9080 -0.5739 -0.3202
 1158SOL     OW 3428   0.781   2.879   0.504  0.0344 -0.2200 -0.3302
 1158SOL    HW1 3429   0.790   2.878   0.604  1.0156 -1.4833 -0.4164
 1158SOL    HW2 3430   0.753   2.789   0.472  3.0581 -0.8687 -1.4402
 1159SOL     OW 3431   0.230   2.027   1.159  0.3661 -0.1411  0.2960
 1159SOL    HW1 3432   0.316   2.065   1.125 -0.0453  0.0035 -0.6085
 1159SOL    HW2 3433   0.193   2.088   1.230  0.5356  0.2855  0.0222
 1160SOL     OW 3434   1.988   0.123   2.129  0.2709  0.0662 -0.1636
 1160SOL    HW1 3435   1.916   0.166   2.074  1.4015  0.5306 -1.3314
 1160SOL    HW2 3436   1.953   0.039   2.170 -1.4195  1.1177  0.6431
 1161SOL     OW 3437   2.489   0.903   2.129 -0.6517 -0.3261  0.2910
 1161SOL    HW1 3438   2.466   0.806   2.121 -1.2647 -0.2259  0.7421
 1161SOL    HW2 3439   2.470   0.948   2.041 -0.9820 -0.4946  0.2725
 1162SOL     OW 3440   0.026   2.712   3.214 -0.8276 -0.3145  0.3336
 1162SOL    HW1 3441   0.045   2.667   3.301 -3.5896  0.8419  1.6558
 1162SOL    HW2 3442   0.086   2.792   3.204 -0.7313 -0.2503  1.3610
 1163SOL     OW 3443   3.316   0.608   0.902  0.0380 -0.3785  0.0173
 1163SOL    HW1 3444   3.231   0.595   0.850  0.5706 -3.2507 -0.2903
 1163SOL    HW2 3445   3.305   0.566   0.993  0.9835 -0.4200  0.1149
 1164SOL     OW 3446   3.517   0.046   2.483 -0.5264 -0.1273 -0.0674
 1164SOL    HW1 3447   3.511   0.137   2.525 -0.6343 -0.9524  1.7941
 1164SOL    HW2 3448   3.588   0.047   2.413  1.6801  0.6479  2.0437
 1165SOL     OW 3449   1.879   2.008   0.741 -0.3378 -0.3181 -0.3035
 1165SOL    HW1 3450   1.819   2.000   0.820 -0.0257  1.6065  0.1546
 1165SOL    HW2 3451   1.836   2.064   0.671 -0.1040 -1.0098 -1.0232
 1166SOL     OW 3452   1.778   3.731   0.489  0.2770  0.2417 -1.2097
 1166SOL    HW1 3453   1.754   3.640   0.522 -2.0194  0.9470 -0.7763
 1166SOL    HW2 3454   1.768   3.735   0.390  2.5923 -0.5514 -1.5374
 1167SOL     OW 3455   0.464   1.320   1.956  0.4715  0.1909 -0.0850
 1167SOL    HW1 3456   0.398   1.254   1.919 -0.3142  0.9038  0.0020
 1167SOL    HW2 3457   0.517   1.359   1.881 -1.3381  1.8714 -0.5757
 1168SOL     OW 3458   2.231   2.277   0.615 -0.2843  0.0920  0.9881
 1168SOL    HW1 3459   2.184   2.251   0.700 -0.5850  1.1168  1.1486
 1168SOL    HW2 3460   2.289   2.357   0.633 -1.4446  1.2154 -0.0745
 1169SOL     OW 3461   0.740   1.201   0.362  0.2568 -0.4145 -0.2543
 1169SOL    HW1 3462   0.815   1.155   0.410  0.6156  1.3998  1.0395
 1169SOL    HW2 3463   0.770   1.229   0.271  0.6885 -0.9141 -0.2691
 1170SOL     OW 3464   3.507   3.013   0.722  0.0282  0.6854 -0.4929
 1170SOL    HW1 3465   3.478   3.071   0.645 -2.0342  0.0792 -0.2524
 1170SOL    HW2 3466   3.431   2.952   0.747  1.4914 -0.8165  0.4729
 1171SOL     OW 3467   1.350   1.802   2.745  0.3177  0.0229 -0.2764
 1171SOL    HW1 3468   1.363   1.804   2.844 -3.9694  1.6629  0.4615
 1171SOL    HW2 3469   1.309   1.715   2.719 -2.2431  1.0169  0.1494
 1172SOL     OW 3470   0.559   0.230   2.066  0.2048 -0.1391  0.1954
 1172SOL    HW1 3471   0.627   0.207   1.997  0.0617 -1.0150  0.3368
 1172SOL    HW2 3472   0.526   0.324   2.051  1.2549  0.2080 -0.0187
 1173SOL     OW 3473   3.246   3.412   1.242  0.5244 -0.1381  0.2326
 1173SOL    HW1 3474   3.234   3.446   1.335  0.6979 -0.1975  0.2788
 1173SOL    HW2 3475   3.235   3.312   1.241  0.4088 -0.1243  0.1698
 1174SOL     OW 3476   1.107   2.685   1.368 -0.2309  0.8057  0.0516
 1174SOL    HW1 3477   1.203   2.680   1.395 -0.8200 -1.2521  2.0507
 1174SOL    HW2 3478   1.049   2.667   1.447 -2.2515  0.4368 -1.4281
 1175SOL     OW 3479   2.131   2.876   0.267 -0.8604  0.0279  0.6676
 1175SOL    HW1 3480   2.101   2.792   0.311 -1.1674 -0.1334  0.1558
 1175SOL    HW2 3481   2.212   2.858   0.211 -0.0302  0.3812  1.7310
 1176SOL     OW 3482   3.400   2.548   1.562  0.3506 -0.1212 -0.5624
 1176SOL    HW1 3483   3.474   2.590   1.509  0.0689 -0.7279 -1.4665
 1176SOL    HW2 3484   3.424   2.550   1.659  0.4500  1.8497 -0.6007
 1177SOL     OW 3485   3.658   0.214   0.239 -0.3512 -0.2156 -0.2834
 1177SOL    HW1 3486   3.737   0.251   0.288  0.4228  0.8993 -2.2462
 1177SOL    HW2 3487   3.577   0.220   0.297  0.5797  0.6903  0.9802
 1178SOL     OW 3488   0.297   2.666   2.331  0.1039 -0.3852 -0.1985
 1178SOL    HW1 3489   0.247   2.585   2.302 -0.2625 -0.0556 -0.5148
 1178SOL    HW2 3490   0.246   2.713   2.403 -0.3833  0.3121 -0.9852
 1179SOL     OW 3491   0.856  -0.012   2.072  0.0294  0.1501  0.3353
 1179SOL    HW1 3492   0.954   0.008   2.067  0.4751 -2.0411 -1.9227
 1179SOL    HW2 3493   0.806   0.059   2.022  0.7593 -0.0636 -0.7450
 1180SOL     OW 3494   2.261   0.368   2.752 -0.1447 -0.0409  0.2953
 1180SOL    HW1 3495   2.286   0.396   2.660 -2.2175  1.2620  0.0697
 1180SOL    HW2 3496   2.167   0.333   2.752 -0.7520  1.4353  2.1559
 1181SOL     OW 3497   1.049   1.562   3.240 -0.6625 -0.3457 -0.3433
 1181SOL    HW1 3498   1.006   1.619   3.169  0.0831  1.0673  0.3007
 1181SOL    HW2 3499   1.138   1.530   3.207 -0.3294  0.2862 -0.0810
 1182SOL     OW 3500   2.923   3.036   1.308 -0.1065  0.1127 -0.4376
 1182SOL    HW1 3501   2.908   3.130   1.338  0.1489  0.7063 -2.0872
 1182SOL    HW2 3502   3.009   3.002   1.345 -0.3074  0.4283  0.3488
 1183SOL     OW 3503   3.446   0.166   1.878  0.0220  0.6210  0.5928
 1183SOL    HW1 3504   3.435   0.136   1.972  0.1152  1.2142  0.7927
 1183SOL    HW2 3505   3.404   0.099   1.817  0.5486 -0.1017  1.0114
 1184SOL     OW 3506   3.664   0.362   1.488  0.7178  0.4066  0.3572
 1184SOL    HW1 3507   3.608   0.408   1.420  1.7026 -0.4521 -1.0893
 1184SOL    HW2 3508   3.640   0.265   1.492  0.0052  0.6174  1.9670
 1185SOL     OW 3509   1.113   0.614   2.303  0.0611 -0.3342  0.2889
 1185SOL    HW1 3510   1.037   0.665   2.344  2.0804  1.3296  2.3115
 1185SOL    HW2 3511   1.105   0.517   2.327 -1.7578 -0.3232 -0.1582
 1186SOL     OW 3512   2.654   0.953   0.518  0.1080 -0.2352 -0.0770
 1186SOL    HW1 3513   2.680   0.878   0.458 -0.8717 -1.4749  1.0137
 1186SOL    HW2 3514   2.648   1.038   0.465  2.7466 -0.5698 -1.0523
 1187SOL     OW 3515   3.497   2.812   3.182 -0.3573  0.5934 -0.2155
 1187SOL    HW1 3516   3.437   2.745   3.137 -1.7209  3.0227 -2.2543
 1187SOL    HW2 3517   3.590   2.775   3.186 -0.6773 -0.7767 -2.9100
 1188SOL     OW 3518   2.244   2.197   1.349  0.0434  0.0075 -0.1074
 1188SOL    HW1 3519   2.218   2.123   1.411  2.3575 -0.5082  0.3356
 1188SOL    HW2 3520   2.268   2.278   1.403 -0.7404  0.5095 -0.5023
 1189SOL     OW 3521   0.132   1.023   1.649 -0.1327 -0.0739 -0.2208
 1189SOL    HW1 3522   0.146   0.951   1.717 -1.1922 -0.8613 -0.7981
 1189SOL    HW2 3523   0.048   1.073   1.671  0.2718  0.5870 -0.1713
 1190SOL     OW 3524   0.402   2.504   3.295 -0.3816 -0.1050  0.7885
 1190SOL    HW1 3525   0.480   2.446   3.316  0.1570  1.0720  2.1176
 1190SOL    HW2 3526   0.410   2.592   3.342 -1.9922  0.4481  0.1323
 1191SOL     OW 3527   0.894   2.496   0.141 -0.1295 -0.1536  0.4267
 1191SOL    HW1 3528   0.982   2.468   0.179 -0.5168  0.3229  1.7173
 1191SOL    HW2 3529   0.828   2.421   0.149 -0.4092  0.1835  1.3790
 1192SOL     OW 3530   3.292   2.843   0.797 -0.2568 -0.5621  0.3427
 1192SOL    HW1 3531   3.292   2.747   0.770 -0.2118 -0.9292  1.5977
 1192SOL    HW2 3532   3.235   2.855   0.878  0.3026  0.3448  0.6202
 1193SOL     OW 3533   1.999   0.033   2.498  0.0618 -0.7617 -0.0068
 1193SOL    HW1 3534   1.958   0.113   2.455  1.2992 -1.0422 -1.8208
 1193SOL    HW2 3535   2.098   0.038   2.491  0.2697 -1.4046  1.8703
 1194SOL     OW 3536   2.454   2.194   0.165 -0.0868 -0.1183 -0.0847
 1194SOL    HW1 3537   2.506   2.248   0.231 -0.7126  0.5192 -0.1064
 1194SOL    HW2 3538   2.480   2.097   0.173  0.3567  0.0546  0.5991
 1195SOL     OW 3539   0.850   3.337   0.436  0.1497 -0.4891  0.7175
 1195SOL    HW1 3540   0.934   3.301   0.477  0.6531  0.7505  0.8196
 1195SOL    HW2 3541   0.871   3.376   0.347 -0.3797 -0.4415  0.6118
 1196SOL     OW 3542   1.837   2.459   2.151  0.1683 -0.3831  0.1399
 1196SOL    HW1 3543   1.790   2.371   2.150  0.4453 -0.5536  1.2472
 1196SOL    HW2 3544   1.864   2.483   2.058 -0.4946 -1.1423 -0.2655
 1197SOL     OW 3545   0.464   2.173   1.414  0.5537  0.1217  0.1676
 1197SOL    HW1 3546   0.369   2.203   1.417  0.7550  0.7443  1.6896
 1197SOL    HW2 3547   0.497   2.160   1.508  1.8562 -0.4577 -0.3469
 1198SOL     OW 3548   0.264   1.787   1.296 -0.3281 -0.1187  0.7093
 1198SOL    HW1 3549   0.336   1.816   1.233 -0.0552  0.5108  1.3009
 1198SOL    HW2 3550   0.180   1.837   1.277 -0.9012 -1.4935 -0.5718
 1199SOL     OW 3551   1.150   1.336   2.703  0.1810  0.4292 -0.0836
 1199SOL    HW1 3552   1.060   1.364   2.671 -1.6816 -2.1768  2.4048
 1199SOL    HW2 3553   1.187   1.267   2.641 -1.1297 -0.9415  0.5984
 1200SOL     OW 3554   0.836   0.098   2.782  0.3311  0.4191 -0.0655
 1200SOL    HW1 3555   0.925   0.070   2.746  0.1708  0.3781 -0.4397
 1200SOL    HW2 3556   0.841   0.193   2.814  0.3352  0.6449 -0.7181
 1201SOL     OW 3557   0.158   2.398   3.467  0.0178  0.2372 -0.3982
 1201SOL    HW1 3558   0.239   2.438   3.424 -0.8245  1.6437 -0.7450
 1201SOL    HW2 3559   0.086   2.467   3.474 -0.9285 -0.7964  0.5207
 1202SOL     OW 3560   3.424   1.025   2.154 -0.2061 -0.5765 -0.2819
 1202SOL    HW1 3561   3.337   1.008   2.201  0.1981 -0.2791  0.6114
 1202SOL    HW2 3562   3.490   0.956   2.183  0.3929  0.3055  0.5388
 1203SOL     OW 3563   3.597   1.786   1.447 -0.1493 -0.3464 -0.5543
 1203SOL    HW1 3564   3.642   1.696   1.444 -1.5521 -1.3578  3.1763
 1203SOL    HW2 3565   3.513   1.782   1.394  0.0884 -1.0760 -0.8919
 1204SOL     OW 3566   3.179   1.023   2.298  0.4456 -0.5427 -0.0576
 1204SOL    HW1 3567   3.134   1.090   2.240  2.0002  0.2493 -0.4112
 1204SOL    HW2 3568   3.189   1.060   2.391  0.1621 -0.8075  0.0800
 1205SOL     OW 3569   1.481   2.017   0.658  0.4037 -0.0435  0.5861
 1205SOL    HW1 3570   1.566   2.064   0.633 -0.6123  1.2798 -0.5693
 1205SOL    HW2 3571   1.501   1.947   0.726  2.3648  0.4449  0.5915
 1206SOL     OW 3572   3.166   2.144   0.253 -0.2447  0.1933 -0.3981
 1206SOL    HW1 3573   3.183   2.243   0.256  0.2069  0.1257 -0.5742
 1206SOL    HW2 3574   3.243   2.099   0.208  0.1136 -0.3665  0.7314
 1207SOL     OW 3575   0.406   2.989   2.688 -0.4043  0.0283  0.7425
 1207SOL    HW1 3576   0.344   3.066   2.674 -1.6567 -1.3512 -2.1943
 1207SOL    HW2 3577   0.499   3.017   2.663 -0.6249  0.9042  0.8749
 1208SOL     OW 3578   2.326   2.754   0.150  0.3947  0.1520  0.4342
 1208SOL    HW1 3579   2.359   2.672   0.196  0.4100 -2.0516 -3.1059
 1208SOL    HW2 3580   2.404   2.805   0.112  0.2421 -0.7755 -1.2354
 1209SOL     OW 3581   2.181   1.945   3.627 -0.1535 -0.4266  0.4040
 1209SOL    HW1 3582   2.162   1.915   3.720  0.0484 -1.1790  0.2073
 1209SOL    HW2 3583   2.279   1.933   3.607 -0.5834 -2.4760 -0.6769
 1210SOL     OW 3584   3.167   2.853   1.071  0.4765 -0.0872 -0.2564
 1210SOL    HW1 3585   3.069   2.837   1.066  0.5774 -0.4117 -1.4722
 1210SOL    HW2 3586   3.201   2.824   1.161 -0.5399  0.1333  0.2173
 1211SOL     OW 3587   1.746   3.690   3.647 -0.0555 -0.2697  0.0441
 1211SOL    HW1 3588   1.800   3.606   3.644 -1.2817 -1.1418  1.1685
 1211SOL    HW2 3589   1.795   3.760   3.698 -0.3717 -1.3857  1.9689
 1212SOL     OW 3590   1.527   1.625   0.482  0.0572 -0.1013 -0.1874
 1212SOL    HW1 3591   1.611   1.585   0.517 -0.5246  0.3482  1.8612
 1212SOL    HW2 3592   1.458   1.626   0.554 -2.0399 -1.3012 -2.0567
 1213SOL     OW 3593   2.664   2.441   3.125 -0.1967 -0.1002 -0.1326
 1213SOL    HW1 3594   2.688   2.363   3.182  1.3763 -0.0642 -0.6829
 1213SOL    HW2 3595   2.745   2.498   3.111 -1.0821  1.0881 -0.5626
 1214SOL     OW 3596   3.502   2.289   2.746  0.3669  0.7192  0.7573
 1214SOL    HW1 3597   3.535   2.202   2.782  0.7300  0.6411  0.2461
 1214SOL    HW2 3598   3.580   2.344   2.717  0.1595  1.3353  1.3366
 1215SOL     OW 3599   2.474   3.382   1.872 -0.7238 -0.3753 -0.1059
 1215SOL    HW1 3600   2.413   3.370   1.793  0.3215 -0.0150 -0.9992
 1215SOL    HW2 3601   2.534   3.303   1.880  1.1032  0.7985 -1.4504
 1216SOL     OW 3602   0.371   1.956   2.939  0.2121  0.7982 -0.0399
 1216SOL    HW1 3603   0.368   1.883   2.871 -0.8663 -0.1510  0.9761
 1216SOL    HW2 3604   0.454   2.010   2.927 -0.1225  0.8886 -2.3172
 1217SOL     OW 3605   2.385   1.246   2.135 -0.2180 -0.0281 -0.2277
 1217SOL    HW1 3606   2.482   1.269   2.137  0.1180 -1.3153 -0.7017
 1217SOL    HW2 3607   2.368   1.165   2.191 -0.9337 -0.1210 -0.5606
 1218SOL     OW 3608   1.260   1.921   0.008  0.8025 -0.1969 -0.4599
 1218SOL    HW1 3609   1.281   1.827  -0.019  1.2106 -0.9273  2.1390
 1218SOL    HW2 3610   1.331   1.955   0.070 -1.4322  0.2022  2.0848
 1219SOL     OW 3611   2.224   2.656   2.265  0.2956  0.0312  0.7492
 1219SOL    HW1 3612   2.289   2.660   2.340 -0.6233  2.4090  1.5272
 1219SOL    HW2 3613   2.208   2.749   2.230 -1.3025 -0.7006 -0.6036
 1220SOL     OW 3614   0.640   2.648   0.241 -0.3523  0.1270 -0.3103
 1220SOL    HW1 3615   0.711   2.606   0.298 -0.6054  0.7946  0.5105
 1220SOL    HW2 3616   0.659   2.745   0.229 -2.3151  0.8600  1.8557
 1221SOL     OW 3617   1.892   2.070   3.187 -0.2895 -0.3721  0.1434
 1221SOL    HW1 3618   1.929   2.158   3.155 -1.2257 -0.6273 -1.7831
 1221SOL    HW2 3619   1.809   2.087   3.240  0.4331 -0.0220  1.1902
 1222SOL     OW 3620   1.931   0.939   1.937  0.3028 -0.6648 -0.5388
 1222SOL    HW1 3621   1.973   0.918   1.849  0.3368  0.0120 -0.6917
 1222SOL    HW2 3622   1.949   1.035   1.960 -0.3077 -0.6448 -0.1274
 1223SOL     OW 3623   0.276   1.971   2.249  0.1535 -0.8245 -0.5339
 1223SOL    HW1 3624   0.247   2.014   2.163 -0.3805 -3.0276 -1.5291
 1223SOL    HW2 3625   0.197   1.937   2.298  0.5143 -0.1268  0.5560
 1224SOL     OW 3626   0.438   0.770   0.434 -0.0420  0.4481  0.0154
 1224SOL    HW1 3627   0.494   0.845   0.400  1.7294 -0.9821 -0.3307
 1224SOL    HW2 3628   0.358   0.759   0.375  0.5226  1.0164 -0.8707
 1225SOL     OW 3629   1.804   0.952   1.013  0.4483 -0.3671 -0.4301
 1225SOL    HW1 3630   1.856   0.872   1.040 -0.8294 -0.6404  1.3963
 1225SOL    HW2 3631   1.767   0.939   0.921  2.2365 -0.8156 -1.1177
 1226SOL     OW 3632   0.127   3.444   1.267 -0.7643 -0.2321  0.2329
 1226SOL    HW1 3633   0.109   3.400   1.179  1.1298 -2.7740  1.0005
 1226SOL    HW2 3634   0.194   3.517   1.254 -1.7680  0.5663 -0.6373
 1227SOL     OW 3635   1.915   3.632   2.271 -0.0846  0.2209 -0.9880
 1227SOL    HW1 3636   1.815   3.625   2.263 -0.0590  0.1790 -1.2630
 1227SOL    HW2 3637   1.938   3.674   2.359 -0.3788  1.2289 -1.3803
 1228SOL     OW 3638   2.489   0.600   2.102  0.3267  0.0899 -0.9739
 1228SOL    HW1 3639   2.408   0.550   2.072 -0.0855 -0.1872  0.5416
 1228SOL    HW2 3640   2.549   0.539   2.153  0.4985  0.7935 -0.3188
 1229SOL     OW 3641   0.492   3.359   2.492  0.4346 -0.4280  0.5831
 1229SOL    HW1 3642   0.585   3.329   2.468  0.7601 -0.6643  2.0362
 1229SOL    HW2 3643   0.482   3.456   2.472  0.9804 -0.4107  0.3677
 1230SOL     OW 3644   2.810   2.321   0.054  0.0638  0.2839 -0.5159
 1230SOL    HW1 3645   2.900   2.364   0.059  0.0144  0.5363 -1.5226
 1230SOL    HW2 3646   2.779   2.319  -0.041 -1.1242  0.4483 -0.1530
 1231SOL     OW 3647   1.499   3.416   2.627  0.0061 -0.1960  0.3108
 1231SOL    HW1 3648   1.569   3.352   2.658  0.5880  0.7398  0.9890
 1231SOL    HW2 3649   1.437   3.436   2.702 -0.1595  0.0393  0.1114
 1232SOL     OW 3650   1.464   3.191   0.775  0.0685 -0.3577 -0.2172
 1232SOL    HW1 3651   1.408   3.272   0.755  1.1383  0.4547  0.0300
 1232SOL    HW2 3652   1.485   3.188   0.872 -1.1186 -1.7085  0.0263
 1233SOL     OW 3653   0.397   3.435   1.668 -0.2307 -0.6316 -0.2082
 1233SOL    HW1 3654   0.392   3.405   1.763  3.6263 -0.6234  0.1531
 1233SOL    HW2 3655   0.364   3.362   1.608  0.6223 -2.1168  1.0480
 1234SOL     OW 3656   3.174   3.648   0.892 -0.1585 -0.4522  0.7673
 1234SOL    HW1 3657   3.170   3.567   0.952  1.6592  0.4663  2.2592
 1234SOL    HW2 3658   3.268   3.661   0.860 -0.7500  0.1546 -0.8181
 1235SOL     OW 3659   0.235   3.008   3.646  0.1841 -0.0956  0.7292
 1235SOL    HW1 3660   0.137   2.993   3.656  0.1618 -0.3588  0.1239
 1235SOL    HW2 3661   0.252   3.070   3.569  0.5671 -1.2178 -0.1023
 1236SOL     OW 3662   1.993   1.270   0.458  0.4495 -0.4088 -0.0309
 1236SOL    HW1 3663   2.024   1.342   0.396  0.0426 -0.6252 -0.4938
 1236SOL    HW2 3664   1.893   1.263   0.453  0.2494  0.5842  1.7636
 1237SOL     OW 3665   0.276   1.134   1.904  0.3563  0.5064  0.5249
 1237SOL    HW1 3666   0.192   1.165   1.950  1.1637  0.9032  1.7830
 1237SOL    HW2 3667   0.277   1.034   1.902 -0.6990  0.4878 -0.5912
 1238SOL     OW 3668   0.920   0.086   1.095 -0.1996  0.6158  0.3807
 1238SOL    HW1 3669   0.898   0.110   1.001  0.8281  2.2632  0.5205
 1238SOL    HW2 3670   0.836   0.089   1.150 -0.7813 -0.2278 -0.4320
 1239SOL     OW 3671   0.693   1.823   1.249  0.7338  0.2730  0.4529
 1239SOL    HW1 3672   0.621   1.837   1.316  0.4249  0.9118 -0.0067
 1239SOL    HW2 3673   0.654   1.823   1.157  1.4214  1.4636  0.1402
 1240SOL     OW 3674   1.166   0.220   1.594  0.4415  0.0412 -0.3008
 1240SOL    HW1 3675   1.172   0.236   1.496  0.1324  0.6262 -0.2282
 1240SOL    HW2 3676   1.195   0.303   1.643 -1.9705  0.7464  0.0888
 1241SOL     OW 3677   1.054   1.501   0.302  0.5057 -0.1665 -0.0450
 1241SOL    HW1 3678   1.094   1.589   0.275  1.1228 -0.7549 -1.1275
 1241SOL    HW2 3679   0.954   1.508   0.303  0.5505  1.0881  1.8547
 1242SOL     OW 3680   2.328   2.710   3.244 -0.2904 -0.1789 -0.2663
 1242SOL    HW1 3681   2.340   2.749   3.153 -0.2157 -0.5331 -0.4065
 1242SOL    HW2 3682   2.343   2.612   3.241 -0.4945 -0.2227  0.0891
 1243SOL     OW 3683   2.005   3.282   1.718 -0.3102  0.6063 -0.3668
 1243SOL    HW1 3684   1.915   3.311   1.751 -0.2391  0.0497  0.3237
 1243SOL    HW2 3685   2.057   3.243   1.793  0.2870  0.3718 -0.8958
 1244SOL     OW 3686   0.616   1.299   2.723  0.8986  0.2086  0.1635
 1244SOL    HW1 3687   0.534   1.285   2.778 -0.0860  0.6611 -1.1240
 1244SOL    HW2 3688   0.632   1.219   2.666  2.4339 -0.6333  1.7000
 1245SOL     OW 3689   1.491   2.851   2.307 -0.2721  0.4147  0.2901
 1245SOL    HW1 3690   1.421   2.895   2.250  1.0118  0.8411 -1.0294
 1245SOL    HW2 3691   1.538   2.781   2.254 -0.1379 -0.3478  1.3821
 1246SOL     OW 3692   2.278   1.057   0.360  0.2512  0.3872  0.1873
 1246SOL    HW1 3693   2.291   1.147   0.402 -1.6912  0.8130 -0.0256
 1246SOL    HW2 3694   2.361   1.030   0.313  2.1827  0.3839  3.2922
 1247SOL     OW 3695   3.430   2.856   0.072  0.4867 -0.0157 -0.1290
 1247SOL    HW1 3696   3.405   2.953   0.078  1.7866  0.2615  1.9788
 1247SOL    HW2 3697   3.404   2.809   0.156  2.4324 -0.8102  0.0812
 1248SOL     OW 3698   2.060   3.043   1.602  0.1416 -0.8482  0.0623
 1248SOL    HW1 3699   2.052   3.134   1.644  0.6609  0.0025 -1.6041
 1248SOL    HW2 3700   2.023   2.974   1.665 -1.4439  0.6386  0.8446
 1249SOL     OW 3701   0.532   3.181   2.168  0.0190  0.0132  0.1598
 1249SOL    HW1 3702   0.549   3.135   2.256 -3.3414  0.4388  1.1537
 1249SOL    HW2 3703   0.487   3.118   2.106 -0.0834  0.5264 -0.2871
 1250SOL     OW 3704   3.041   0.499   3.258 -0.1535  0.2530 -0.2824
 1250SOL    HW1 3705   3.012   0.549   3.176 -0.8608  2.1632  1.0818
 1250SOL    HW2 3706   3.124   0.541   3.295  0.6522 -1.1234 -0.4309
 1251SOL     OW 3707   3.337   1.649   0.863  0.5177  0.1953 -0.2291
 1251SOL    HW1 3708   3.395   1.613   0.936  0.7999 -3.4918 -2.0076
 1251SOL    HW2 3709   3.241   1.625   0.883  0.4820  0.0515 -0.5618
 1252SOL     OW 3710   2.614   2.363   0.302 -0.3707 -0.0453  0.1886
 1252SOL    HW1 3711   2.673   2.385   0.380 -0.7219 -1.4344  0.8696
 1252SOL    HW2 3712   2.666   2.372   0.217  0.4807 -0.0887  0.6940
 1253SOL     OW 3713   0.447   3.570   3.624 -0.2215  0.5664 -0.4032
 1253SOL    HW1 3714   0.358   3.593   3.663 -0.4007  0.6132 -0.8385
 1253SOL    HW2 3715   0.435   3.500   3.554  0.1448  0.2169 -0.1212
 1254SOL     OW 3716   3.655   0.917   0.818 -0.1261  0.1513 -0.7592
 1254SOL    HW1 3717   3.606   0.997   0.782 -1.4886  0.6024  1.8925
 1254SOL    HW2 3718   3.688   0.937   0.910  1.0500 -1.7689 -0.7209
 1255SOL     OW 3719   0.040   2.422   2.593 -0.2226 -0.4592 -0.1631
 1255SOL    HW1 3720   0.088   2.471   2.667 -0.8202 -0.7184  0.4102
 1255SOL    HW2 3721   0.065   2.326   2.595 -1.4828 -0.7973  0.7722
 1256SOL     OW 3722   3.528   1.728   3.522 -0.0185 -0.2200  0.5215
 1256SOL    HW1 3723   3.559   1.818   3.493  0.8676 -0.3149  1.1096
 1256SOL    HW2 3724   3.478   1.736   3.609 -0.1274 -0.2689  0.4634
 1257SOL     OW 3725   2.720   2.185   1.228 -0.5679 -0.3012 -0.2663
 1257SOL    HW1 3726   2.817   2.198   1.208 -0.7619 -0.7518 -1.5817
 1257SOL    HW2 3727   2.705   2.092   1.261 -0.5107 -0.1259  0.2622
 1258SOL     OW 3728   0.108   0.759   3.108 -0.0689 -0.1893 -0.3718
 1258SOL    HW1 3729   0.110   0.665   3.074 -0.2869 -0.5818  0.6424
 1258SOL    HW2 3730   0.200   0.797   3.106  0.2398 -0.8675  0.3533
 1259SOL     OW 3731   3.475   3.224   3.417 -0.6889  0.2819 -0.4994
 1259SOL    HW1 3732   3.428   3.242   3.331  0.5946  1.5088 -0.9695
 1259SOL    HW2 3733   3.549   3.158   3.402 -0.5058  0.4466 -0.3238
 1260SOL     OW 3734   2.291   0.433   2.027  0.1119 -0.2296 -0.0989
 1260SOL    HW1 3735   2.271   0.337   2.010 -0.0898 -0.0632 -0.8321
 1260SOL    HW2 3736   2.236   0.465   2.105  0.6333 -0.8587  0.5417
 1261SOL     OW 3737   2.122   2.707   1.894 -0.5220 -0.3888  0.1156
 1261SOL    HW1 3738   2.210   2.752   1.903  0.2857 -1.9034  0.0508
 1261SOL    HW2 3739   2.052   2.761   1.942  0.6471  0.1913  1.2292
 1262SOL     OW 3740   2.898   3.334   1.885  0.0303  0.0561 -0.2039
 1262SOL    HW1 3741   2.996   3.329   1.900  0.1424  0.4233 -0.7892
 1262SOL    HW2 3742   2.850   3.322   1.972  0.6510  2.3371  0.5088
 1263SOL     OW 3743   2.308   2.519   2.783 -0.0966  0.2288 -0.4192
 1263SOL    HW1 3744   2.377   2.530   2.855 -0.7144 -2.6505  0.7637
 1263SOL    HW2 3745   2.349   2.474   2.704  0.0352  1.2920 -0.9780
 1264SOL     OW 3746   0.919   0.469   3.656 -0.1763 -0.3071 -0.5137
 1264SOL    HW1 3747   0.896   0.373   3.637  1.5161 -0.8099 -0.2036
 1264SOL    HW2 3748   1.018   0.479   3.662 -0.3750  0.9298  2.2139
 1265SOL     OW 3749   1.249   2.359   3.676 -0.3247  0.6539 -0.0380
 1265SOL    HW1 3750   1.178   2.401   3.620  0.2976  2.1996  0.2890
 1265SOL    HW2 3751   1.210   2.285   3.730 -1.3908  0.6148 -0.8363
 1266SOL     OW 3752   3.298   1.576   3.439 -0.2040 -0.4581  0.0574
 1266SOL    HW1 3753   3.381   1.631   3.440 -1.4908  1.5760  0.0690
 1266SOL    HW2 3754   3.291   1.528   3.351  0.0444  0.8802 -0.7238
 1267SOL     OW 3755   2.057   0.603   1.746 -0.3610  0.5009  0.2816
 1267SOL    HW1 3756   2.151   0.568   1.751 -1.0417 -1.9685 -1.8809
 1267SOL    HW2 3757   2.016   0.601   1.836  0.4875 -2.0888  0.6918
 1268SOL     OW 3758   2.388   2.144   2.310 -0.2897  0.1484  0.0889
 1268SOL    HW1 3759   2.370   2.093   2.394 -1.9151  0.5918  0.0264
 1268SOL    HW2 3760   2.303   2.159   2.260  0.6078  0.1147 -1.5289
 1269SOL     OW 3761   2.660   2.785   0.740 -0.1380  0.0618  0.3754
 1269SOL    HW1 3762   2.678   2.713   0.807  1.6161 -0.3742 -0.5337
 1269SOL    HW2 3763   2.739   2.846   0.733 -1.0302  1.2301  0.0601
 1270SOL     OW 3764   0.263   1.575   2.050 -0.3079  0.2442 -0.4492
 1270SOL    HW1 3765   0.321   1.649   2.084 -0.8800  0.0097  1.0861
 1270SOL    HW2 3766   0.314   1.522   1.982  0.6967  1.0232 -0.3293
 1271SOL     OW 3767   1.547   2.318   0.127  0.3440 -0.6088 -0.1543
 1271SOL    HW1 3768   1.450   2.300   0.143  0.2615 -0.0439  0.0153
 1271SOL    HW2 3769   1.596   2.315   0.215  0.2585  0.3714 -0.0666
 1272SOL     OW 3770   0.140   3.434   2.156 -0.2746  0.1537  0.6243
 1272SOL    HW1 3771   0.137   3.397   2.063  0.1167 -1.0972  1.0870
 1272SOL    HW2 3772   0.055   3.412   2.203 -0.4272  0.6897  0.6037
 1273SOL     OW 3773   0.153   1.664   3.275  0.3212  0.1515 -0.2648
 1273SOL    HW1 3774   0.140   1.762   3.259  0.3748 -0.2806 -3.5003
 1273SOL    HW2 3775   0.247   1.639   3.251 -0.1587 -0.9476 -1.0541
 1274SOL     OW 3776   1.933   1.090   0.687 -0.4567  0.2534  0.2477
 1274SOL    HW1 3777   1.938   1.138   0.775 -0.6796  1.3145 -0.2940
 1274SOL    HW2 3778   1.982   1.143   0.618 -0.4356 -0.4811 -0.3066
 1275SOL     OW 3779   1.726   1.866   1.401 -0.1663  0.2450  0.0860
 1275SOL    HW1 3780   1.728   1.966   1.404 -0.9437  0.2498  1.2718
 1275SOL    HW2 3781   1.676   1.832   1.481 -0.5298 -1.0708 -0.6826
 1276SOL     OW 3782   0.097   0.855   3.619 -0.1934  0.4373 -0.3618
 1276SOL    HW1 3783   0.008   0.893   3.593 -0.5056  0.6913  0.9836
 1276SOL    HW2 3784   0.112   0.870   3.717  0.7603 -0.7399 -0.2996
 1277SOL     OW 3785   2.360   0.929   3.231  0.0714 -0.4813  0.3884
 1277SOL    HW1 3786   2.361   1.015   3.180 -0.0829 -1.4371 -1.2756
 1277SOL    HW2 3787   2.298   0.938   3.309  1.0607  1.3229  1.0241
 1278SOL     OW 3788   0.057   0.804   1.982  0.4161  0.2486  0.0819
 1278SOL    HW1 3789  -0.004   0.883   1.975  0.5735  0.2871 -0.9532
 1278SOL    HW2 3790   0.002   0.720   1.987  0.2484  0.4029  1.1747
 1279SOL     OW 3791   0.677   1.947   3.517 -0.2335 -0.1523 -0.1007
 1279SOL    HW1 3792   0.709   2.028   3.566  1.1405 -0.0870 -1.0446
 1279SOL    HW2 3793   0.724   1.866   3.554 -1.4034 -0.5145  0.6606
 1280SOL     OW 3794   0.720   1.854   1.812  0.0899  0.4837  0.5028
 1280SOL    HW1 3795   0.771   1.779   1.769  1.7143  1.7772  0.0895
 1280SOL    HW2 3796   0.622   1.839   1.798  0.4515 -0.5903 -1.1963
 1281SOL     OW 3797   1.443   3.185   2.024  0.6445 -0.2469 -0.5979
 1281SOL    HW1 3798   1.366   3.195   2.088  3.1149  0.1570  2.5331
 1281SOL    HW2 3799   1.454   3.089   2.000 -0.6575 -0.3443 -0.8892
 1282SOL     OW 3800   0.964   3.443   0.185  1.2371 -0.0925 -0.3930
 1282SOL    HW1 3801   0.909   3.518   0.147  0.0855 -2.0902 -3.0058
 1282SOL    HW2 3802   1.046   3.431   0.128  1.1867 -1.0618 -0.2714
 1283SOL     OW 3803   2.960   0.112   0.792 -0.3488  0.2446  0.1178
 1283SOL    HW1 3804   2.999   0.028   0.831  0.3171  0.4325 -0.1159
 1283SOL    HW2 3805   3.026   0.187   0.803 -1.0324  0.7936  0.5304
 1284SOL     OW 3806   0.179   2.612   0.107  0.0863  0.1372  0.2206
 1284SOL    HW1 3807   0.138   2.526   0.076  0.6362 -0.9995  2.5040
 1284SOL    HW2 3808   0.229   2.654   0.031 -0.7904 -1.1627 -1.1357
 1285SOL     OW 3809   2.306   2.941   2.502  0.0923  0.1654 -0.3741
 1285SOL    HW1 3810   2.213   2.972   2.484  0.9539  3.1720 -0.0677
 1285SOL    HW2 3811   2.306   2.883   2.584 -1.3282  1.1883  0.3914
 1286SOL     OW 3812   1.454   3.326   1.426 -0.0306 -0.1803 -0.7084
 1286SOL    HW1 3813   1.387   3.254   1.436  0.1606 -0.5505 -1.8913
 1286SOL    HW2 3814   1.460   3.353   1.330  0.5214  0.8030 -0.4154
 1287SOL     OW 3815   2.576   1.240   1.420  0.1724  0.2354 -0.3245
 1287SOL    HW1 3816   2.491   1.218   1.373 -0.6343 -1.0636  1.6011
 1287SOL    HW2 3817   2.573   1.334   1.453 -0.8422 -0.0163  0.3330
 1288SOL     OW 3818   0.525   3.467   0.321 -0.2309 -0.0095 -0.2644
 1288SOL    HW1 3819   0.483   3.532   0.258  1.3175 -2.0750 -3.7109
 1288SOL    HW2 3820   0.495   3.375   0.299  3.6191 -1.2889 -1.0036
 1289SOL     OW 3821   2.962   0.799   2.550 -0.1164  0.5682  0.0759
 1289SOL    HW1 3822   2.983   0.792   2.453  0.0649  0.4144  0.1261
 1289SOL    HW2 3823   2.910   0.882   2.567 -0.4449  0.4216 -0.2057
 1290SOL     OW 3824   2.938   0.902   0.170 -0.3736  0.3757  0.1948
 1290SOL    HW1 3825   2.990   0.906   0.256 -0.7747  3.2043  0.3920
 1290SOL    HW2 3826   3.002   0.897   0.093  0.0239 -0.5731  0.5621
 1291SOL     OW 3827   1.205   1.411   0.891  0.3450  0.3175 -0.5236
 1291SOL    HW1 3828   1.249   1.491   0.932 -1.7431  0.7194  1.1037
 1291SOL    HW2 3829   1.152   1.440   0.811  2.7069 -0.1411 -2.3789
 1292SOL     OW 3830   1.302   0.729   3.310 -0.2219  0.1454 -0.2353
 1292SOL    HW1 3831   1.387   0.741   3.362 -1.0473  0.7927  1.0012
 1292SOL    HW2 3832   1.305   0.786   3.228  1.2173 -1.1073 -1.1058
 1293SOL     OW 3833   2.589   3.171   1.544  0.1943 -0.3550 -0.7735
 1293SOL    HW1 3834   2.490   3.183   1.537  0.2992  1.1755 -0.0466
 1293SOL    HW2 3835   2.628   3.245   1.598  1.5400 -1.9223  0.5207
 1294SOL     OW 3836   1.183   1.778   0.269  0.0672  0.9749  0.2908
 1294SOL    HW1 3837   1.270   1.745   0.233 -0.1745  0.5919  0.0560
 1294SOL    HW2 3838   1.162   1.868   0.229 -0.1631  0.5856 -0.4699
 1295SOL     OW 3839   2.719   1.076   3.130  0.0644 -1.1074  0.4248
 1295SOL    HW1 3840   2.776   1.143   3.179 -1.1391 -0.6906  1.3047
 1295SOL    HW2 3841   2.777   1.022   3.069  0.8420  2.0848 -1.9516
 1296SOL     OW 3842   0.101   3.440   1.546 -0.2057 -0.1234  0.0538
 1296SOL    HW1 3843   0.078   3.451   1.450 -0.7037 -2.7628 -0.2133
 1296SOL    HW2 3844   0.057   3.358   1.582  0.9869  0.0826  2.2100
 1297SOL     OW 3845   0.763   2.550   1.770  0.2121  0.0796 -0.1399
 1297SOL    HW1 3846   0.777   2.621   1.840 -2.3510  0.0461  0.4859
 1297SOL    HW2 3847   0.775   2.460   1.812  3.4049  0.0161 -0.9207
 1298SOL     OW 3848   3.671   0.182  -0.014  0.3667 -0.0887  0.0502
 1298SOL    HW1 3849   3.771   0.180  -0.025  0.4437  0.2541  0.6295
 1298SOL    HW2 3850   3.649   0.170   0.083 -0.2067 -1.4767 -0.2302
 1299SOL     OW 3851   2.593   2.333   2.370 -0.0056  0.1771 -0.0175
 1299SOL    HW1 3852   2.650   2.256   2.399  1.3302  0.9150 -0.6001
 1299SOL    HW2 3853   2.504   2.299   2.341 -0.0935 -0.9455  1.4541
 1300SOL     OW 3854   2.628   2.344   3.521  0.3369  0.1394  0.0234
 1300SOL    HW1 3855   2.537   2.348   3.563  1.5308  1.2756  2.7323
 1300SOL    HW2 3856   2.654   2.436   3.491  0.5775 -0.2059 -0.8618
 1301SOL     OW 3857   3.285  -0.021   3.010 -0.2468 -0.3208 -0.1907
 1301SOL    HW1 3858   3.335   0.012   3.090 -0.4835 -1.1013  0.2897
 1301SOL    HW2 3859   3.330   0.013   2.927 -0.3299  0.9541  0.2683
 1302SOL     OW 3860   3.182   0.961   1.960  0.0542  0.1208  0.0520
 1302SOL    HW1 3861   3.233   1.047   1.961 -0.2069  0.2907 -0.8155
 1302SOL    HW2 3862   3.087   0.978   1.937 -0.3047 -0.2567  1.1884
 1303SOL     OW 3863   1.792   2.244   3.411  0.4296 -0.2555 -0.2341
 1303SOL    HW1 3864   1.733   2.289   3.479  1.9715  0.1446  0.8814
 1303SOL    HW2 3865   1.884   2.235   3.448  1.5351  0.6702 -2.5832
 1304SOL     OW 3866   2.150   2.768   0.558 -0.2372  0.0765  0.5000
 1304SOL    HW1 3867   2.169   2.683   0.509  1.4549  1.8358 -2.1818
 1304SOL    HW2 3868   2.231   2.796   0.609 -0.4586  0.5197  0.6147
 1305SOL     OW 3869   2.099   1.692   2.720 -0.8453 -0.2995 -0.0769
 1305SOL    HW1 3870   2.045   1.767   2.682  1.2831  0.9374 -0.8268
 1305SOL    HW2 3871   2.104   1.701   2.819  0.2463  1.2217 -0.2384
 1306SOL     OW 3872   0.039   1.190   2.626 -0.1487  0.3026 -0.3353
 1306SOL    HW1 3873   0.114   1.166   2.564  0.8054  2.0147  0.0729
 1306SOL    HW2 3874   0.000   1.278   2.598 -0.6212  0.4316  0.6799
 1307SOL     OW 3875   1.225   3.177   1.404 -0.3871 -0.1050  0.5405
 1307SOL    HW1 3876   1.142   3.227   1.427 -0.6655 -0.1456 -0.3184
 1307SOL    HW2 3877   1.205   3.079   1.400  0.0259 -0.2437  1.6720
 1308SOL     OW 3878   3.662   2.946   3.660  0.5359 -0.0290 -0.3289
 1308SOL    HW1 3879   3.668   3.040   3.694  1.7828  0.2613 -1.3089
 1308SOL    HW2 3880   3.594   2.896   3.714 -0.3410  1.4916  0.0374
 1309SOL     OW 3881   0.806   0.210   3.657 -0.2703 -0.1560 -0.2845
 1309SOL    HW1 3882   0.816   0.154   3.574 -2.0609 -1.0055  0.0289
 1309SOL    HW2 3883   0.710   0.212   3.685  0.2618  0.2123  1.7062
 1310SOL     OW 3884   1.444   3.421   3.712  0.4151  0.1308  0.5078
 1310SOL    HW1 3885   1.415   3.504   3.663  0.3393 -0.6435 -0.7889
 1310SOL    HW2 3886   1.527   3.385   3.670  1.2709  0.3089  1.9544
 1311SOL     OW 3887   1.103   0.886   0.060 -0.1910 -0.2575  0.1993
 1311SOL    HW1 3888   1.087   0.911  -0.036 -1.6436  2.2707  1.0248
 1311SOL    HW2 3889   1.018   0.893   0.111  0.5880 -1.4693  1.7308
 1312SOL     OW 3890   3.372   3.317   1.729  0.0643  0.1503  0.0849
 1312SOL    HW1 3891   3.416   3.379   1.793  0.4514 -1.3874  1.3841
 1312SOL    HW2 3892   3.383   3.223   1.761 -1.3467 -0.5297 -1.2797
 1313SOL     OW 3893   2.312   3.567   0.419 -0.2304  0.0193  0.2077
 1313SOL    HW1 3894   2.300   3.661   0.385 -1.7399  0.1925  1.1356
 1313SOL    HW2 3895   2.397   3.529   0.381 -1.8444  0.0416 -3.9973
 1314SOL     OW 3896   2.496   0.742   2.580  0.4520 -0.1932 -0.1395
 1314SOL    HW1 3897   2.434   0.706   2.650  0.7253 -0.3143  0.0390
 1314SOL    HW2 3898   2.540   0.825   2.614 -0.8530  0.8419 -0.8788
 1315SOL     OW 3899   3.696   3.341   3.070 -0.1672  0.0241  0.6340
 1315SOL    HW1 3900   3.768   3.324   3.003 -1.0021 -1.7974  0.1500
 1315SOL    HW2 3901   3.610   3.301   3.039 -0.0312 -3.3392  3.9087
 1316SOL     OW 3902   2.081   2.192   0.820  0.3330  0.2414  0.0210
 1316SOL    HW1 3903   2.122   2.165   0.907 -0.6632  0.5673  0.6016
 1316SOL    HW2 3904   2.005   2.131   0.799  2.5652 -2.0132 -2.3242
 1317SOL     OW 3905   2.861   0.142   2.010 -0.0940  0.1408  0.2432
 1317SOL    HW1 3906   2.950   0.178   1.982 -0.8782  2.0283 -0.0189
 1317SOL    HW2 3907   2.849   0.049   1.975  1.5337  0.0752 -0.1824
 1318SOL     OW 3908   2.034   3.545   1.825 -0.0414  0.4725 -0.2854
 1318SOL    HW1 3909   2.078   3.613   1.767 -0.6096  0.7019 -0.4551
 1318SOL    HW2 3910   2.020   3.460   1.774 -0.2234  0.5574 -0.3766
 1319SOL     OW 3911   3.646   3.157   2.817  0.3724 -0.6686 -0.2243
 1319SOL    HW1 3912   3.723   3.222   2.819  0.9676 -1.2603 -1.8176
 1319SOL    HW2 3913   3.681   3.064   2.804 -0.5395 -1.1811  0.8326
 1320SOL     OW 3914   1.942   0.138   3.504 -0.1793  0.6123 -0.4873
 1320SOL    HW1 3915   2.007   0.074   3.464 -0.1694 -1.8876  3.0377
 1320SOL    HW2 3916   1.884   0.177   3.432  0.3311 -2.7794 -2.9769
 1321SOL     OW 3917   0.822   3.470   2.884 -0.4589 -0.6045  0.9066
 1321SOL    HW1 3918   0.728   3.504   2.882 -0.4730 -0.6702 -0.1735
 1321SOL    HW2 3919   0.883   3.541   2.849 -0.1567 -0.7316  1.1688
 1322SOL     OW 3920   1.498   1.091   3.401  0.1907  0.5904 -0.5180
 1322SOL    HW1 3921   1.416   1.097   3.458  0.4268  4.5437 -0.3045
 1322SOL    HW2 3922   1.578   1.081   3.460  0.1307  0.3862 -0.4699
 1323SOL     OW 3923   2.820   1.275   2.495  0.2017 -0.0884  0.2604
 1323SOL    HW1 3924   2.802   1.177   2.497 -0.4760 -0.0035 -0.6279
 1323SOL    HW2 3925   2.735   1.324   2.474  0.6756  0.6331 -0.0287
 1324SOL     OW 3926   3.376   1.894   2.923 -0.4262 -0.0456  0.0022
 1324SOL    HW1 3927   3.294   1.947   2.946 -0.9455 -0.4550 -0.8575
 1324SOL    HW2 3928   3.375   1.871   2.826  0.6387 -0.1977  0.0149
 1325SOL     OW 3929   1.490   2.455   1.314 -0.2328  0.4327  0.0835
 1325SOL    HW1 3930   1.530   2.408   1.392  0.0182  0.7470  0.1458
 1325SOL    HW2 3931   1.559   2.465   1.242 -1.0051 -1.7405 -1.0523
 1326SOL     OW 3932   1.606   3.562   1.034 -0.3288 -0.0937 -0.1475
 1326SOL    HW1 3933   1.633   3.625   1.107 -1.2712  1.2503 -0.9016
 1326SOL    HW2 3934   1.684   3.544   0.975 -0.2037  0.9390 -0.3095
 1327SOL     OW 3935   0.042   3.481   3.282 -0.0649 -0.4894 -0.0846
 1327SOL    HW1 3936  -0.043   3.516   3.322  0.3424  0.2687  0.1455
 1327SOL    HW2 3937   0.024   3.447   3.190 -0.3726  1.0429 -0.6322
 1328SOL     OW 3938   1.905   2.671   3.256 -0.0921 -0.2386  0.2556
 1328SOL    HW1 3939   1.856   2.665   3.170  0.4135  1.1364 -0.1527
 1328SOL    HW2 3940   1.845   2.641   3.331 -0.7300 -0.8679 -0.4951
 1329SOL     OW 3941   1.504   0.562   0.712 -0.5188 -0.3557  0.0191
 1329SOL    HW1 3942   1.497   0.573   0.811  1.7985  0.6213  0.1343
 1329SOL    HW2 3943   1.412   0.551   0.674 -1.3962 -2.4333  2.4101
 1330SOL     OW 3944   3.385   1.239   0.016 -0.3956  0.0054 -0.4207
 1330SOL    HW1 3945   3.315   1.307  -0.008 -1.7386 -0.2824  2.3904
 1330SOL    HW2 3946   3.439   1.272   0.093 -0.4189 -1.6733  0.3602
 1331SOL     OW 3947   2.148   0.532   2.232  0.7398  0.3957 -0.4903
 1331SOL    HW1 3948   2.202   0.594   2.290  0.0920  0.5591 -0.0468
 1331SOL    HW2 3949   2.159   0.438   2.265  1.1472  0.3623 -0.7139
 1332SOL     OW 3950   0.080   0.248   3.343  0.2183  0.0272 -0.1350
 1332SOL    HW1 3951   0.003   0.264   3.404  1.2795  0.9525  0.9888
 1332SOL    HW2 3952   0.073   0.155   3.305 -2.4349  0.7092 -1.5559
 1333SOL     OW 3953   3.617   0.051   3.196 -0.1823 -0.1921  0.0691
 1333SOL    HW1 3954   3.639   0.072   3.101  0.7192 -0.5300  0.1956
 1333SOL    HW2 3955   3.559   0.124   3.234  0.1052  0.3389 -0.5028
 1334SOL     OW 3956   1.491   1.862   3.457 -0.1193  0.2544 -0.0979
 1334SOL    HW1 3957   1.557   1.808   3.404  0.5609  0.3792  0.5890
 1334SOL    HW2 3958   1.540   1.932   3.509 -0.7546  0.1097  0.7192
 1335SOL     OW 3959   2.277   0.062   0.721 -0.0667 -0.0639 -0.0958
 1335SOL    HW1 3960   2.221  -0.008   0.676  0.8176 -0.6367 -0.3231
 1335SOL    HW2 3961   2.330   0.112   0.652 -0.2772  0.4670  0.1203
 1336SOL     OW 3962   3.670   1.356   0.958  0.2462  0.1964  0.1282
 1336SOL    HW1 3963   3.666   1.363   0.858 -0.1491 -0.0054  0.1270
 1336SOL    HW2 3964   3.652   1.261   0.985 -2.8305  0.8015  0.5337
 1337SOL     OW 3965   2.977   1.690   0.320 -0.2270 -0.7107  0.1006
 1337SOL    HW1 3966   2.889   1.719   0.357  0.9119  1.6192  1.2624
 1337SOL    HW2 3967   2.974   1.593   0.297 -2.4860 -1.1503  1.8799
 1338SOL     OW 3968   0.654   1.375   1.031  0.4957 -0.0583  0.5126
 1338SOL    HW1 3969   0.628   1.337   0.943 -0.0147 -0.0618  0.6629
 1338SOL    HW2 3970   0.577   1.370   1.094  0.8131  0.0722  0.9174
 1339SOL     OW 3971   2.944   1.186   0.465  0.1175 -0.1400  0.0674
 1339SOL    HW1 3972   3.037   1.195   0.430 -0.0704  0.3037 -0.3396
 1339SOL    HW2 3973   2.947   1.179   0.565  0.4953  2.0004  0.2634
 1340SOL     OW 3974   0.509   2.398   0.019 -0.7211  0.0370 -0.6329
 1340SOL    HW1 3975   0.565   2.391   0.102 -0.2481  0.9787 -0.8666
 1340SOL    HW2 3976   0.487   2.306  -0.014  0.3518 -0.3497 -0.3033
 1341SOL     OW 3977   2.361   0.088   0.188 -0.2888  0.3728  0.4470
 1341SOL    HW1 3978   2.311   0.095   0.102  0.0150 -1.1914  0.1071
 1341SOL    HW2 3979   2.456   0.063   0.169 -0.9995 -3.6714  1.2516
 1342SOL     OW 3980   3.227   0.094   0.178 -0.2478  0.4043  0.4499
 1342SOL    HW1 3981   3.213   0.183   0.134  0.0120  0.0896 -0.2878
 1342SOL    HW2 3982   3.205   0.021   0.113  1.2108 -0.0754  0.4561
 1343SOL     OW 3983   2.354   0.296   3.687  0.1841  0.2773  0.6144
 1343SOL    HW1 3984   2.410   0.264   3.611  0.4387 -0.8784  1.2734
 1343SOL    HW2 3985   2.402   0.368   3.736 -0.3985  1.7707 -0.8894
 1344SOL     OW 3986   1.610   2.359   1.546  0.4050 -0.0066  0.3566
 1344SOL    HW1 3987   1.673   2.434   1.565 -1.0306  1.1398  0.7610
 1344SOL    HW2 3988   1.562   2.334   1.630 -0.6925  0.1060 -0.2241
 1345SOL     OW 3989   2.876   2.991   1.063 -0.1701 -0.1990 -0.5156
 1345SOL    HW1 3990   2.906   3.015   1.155 -0.0093 -0.9440 -0.3660
 1345SOL    HW2 3991   2.862   2.892   1.057 -1.1582 -0.0443 -1.0067
 1346SOL     OW 3992   1.353   0.536   1.477 -0.2612  0.2359  0.1190
 1346SOL    HW1 3993   1.400   0.510   1.562  0.1563 -0.7200 -0.3924
 1346SOL    HW2 3994   1.314   0.454   1.434  0.3613  0.5617 -1.1062
 1347SOL     OW 3995   3.062   1.243   2.196  0.1468 -0.2099 -0.3833
 1347SOL    HW1 3996   3.109   1.313   2.142  0.0328  0.3449  0.2352
 1347SOL    HW2 3997   3.079   1.258   2.293 -4.0905  2.2645  0.2604
 1348SOL     OW 3998   2.390   2.025   2.554 -0.1010  0.0149  0.0701
 1348SOL    HW1 3999   2.307   2.055   2.601 -0.9198  0.0466 -1.3469
 1348SOL    HW2 4000   2.405   1.927   2.571  0.6636  0.4046  1.8780
 1349SOL     OW 4001   2.655   0.648   3.624 -0.0758  0.6224 -0.5225
 1349SOL    HW1 4002   2.578   0.609   3.676 -0.4409  0.7283 -0.9724
 1349SOL    HW2 4003   2.670   0.593   3.542 -0.1949  1.0742 -0.8491
 1350SOL     OW 4004   2.766   2.567   3.483  0.4678  0.1935 -0.1285
 1350SOL    HW1 4005   2.855   2.532   3.451  0.2451 -0.2712 -0.2454
 1350SOL    HW2 4006   2.745   2.652   3.436 -0.3426 -1.0061 -2.0593
 1351SOL     OW 4007   3.675   2.542   0.658 -0.3429  0.0364  0.4276
 1351SOL    HW1 4008   3.766   2.560   0.620  0.3557  0.2971  2.1236
 1351SOL    HW2 4009   3.606   2.549   0.585  0.9311  0.2599 -0.8046
 1352SOL     OW 4010   0.900   0.568   0.648  0.2193  0.6804 -0.2471
 1352SOL    HW1 4011   0.868   0.570   0.553 -3.0597  0.5670  0.7116
 1352SOL    HW2 4012   0.862   0.488   0.695  1.1116  1.1502  1.3639
 1353SOL     OW 4013   3.256   2.686   3.145 -0.3144 -0.0975  0.6574
 1353SOL    HW1 4014   3.204   2.608   3.110  0.1857 -0.3092  0.3765
 1353SOL    HW2 4015   3.203   2.731   3.217 -1.5285  0.5729 -0.5927
 1354SOL     OW 4016   1.395   0.760   0.466  0.3813  0.7470  0.6106
 1354SOL    HW1 4017   1.376   0.731   0.372  1.1999  0.5293  0.5037
 1354SOL    HW2 4018   1.348   0.698   0.530  1.7528 -0.6062  0.3736
 1355SOL     OW 4019   2.181   0.717   1.259 -0.0253  0.0761 -0.0300
 1355SOL    HW1 4020   2.252   0.723   1.328 -3.1033  1.5228  3.3540
 1355SOL    HW2 4021   2.171   0.621   1.230  1.5395 -0.5525  1.3259
 1356SOL     OW 4022   1.357   3.444   3.294 -0.2299  0.4327  0.4638
 1356SOL    HW1 4023   1.382   3.409   3.384 -0.4816  0.9394  0.7328
 1356SOL    HW2 4024   1.322   3.537   3.303 -0.1302  0.5342 -0.1739
 1357SOL     OW 4025   0.411   2.744   0.730 -0.7149  0.5661  0.3089
 1357SOL    HW1 4026   0.422   2.832   0.685  0.6138  1.1103  1.6059
 1357SOL    HW2 4027   0.372   2.758   0.822  2.6694  0.2576  1.9247
 1358SOL     OW 4028   1.972   2.007   2.061 -0.0496  0.4882  0.6821
 1358SOL    HW1 4029   2.011   2.089   2.101 -0.7221  0.9476  0.4137
 1358SOL    HW2 4030   1.909   2.032   1.987  1.3765 -0.3284 -0.8996
 1359SOL     OW 4031   2.158   1.391   1.082 -0.5729  0.0244 -0.1180
 1359SOL    HW1 4032   2.169   1.478   1.034 -1.5693  0.4120  0.3323
 1359SOL    HW2 4033   2.139   1.409   1.179  2.8155 -0.7386  0.8303
 1360SOL     OW 4034   3.509   2.770   2.513  0.5229  0.6219  0.0157
 1360SOL    HW1 4035   3.582   2.808   2.457 -0.0534 -1.1650 -2.0893
 1360SOL    HW2 4036   3.440   2.841   2.531  1.4658  1.6249 -0.2320
 1361SOL     OW 4037   0.035   3.452   0.210  0.3258 -0.3132  0.2228
 1361SOL    HW1 4038  -0.049   3.475   0.160  0.1121 -1.4511  0.0331
 1361SOL    HW2 4039   0.037   3.354   0.229  0.3578  0.0776  2.5634
 1362SOL     OW 4040   3.272   3.231   0.861 -0.3702 -0.1368 -0.3977
 1362SOL    HW1 4041   3.331   3.204   0.937  1.9000  0.0428 -1.9939
 1362SOL    HW2 4042   3.258   3.153   0.800  1.8171  0.8040 -2.2370
 1363SOL     OW 4043   3.330   3.251   3.200 -0.1559 -0.3670 -0.0158
 1363SOL    HW1 4044   3.387   3.268   3.120  1.0892 -0.3413  0.8465
 1363SOL    HW2 4045   3.241   3.294   3.187 -0.1354 -0.7149 -1.5491
 1364SOL     OW 4046   2.078   3.493   2.121  0.0629 -0.1417  0.3992
 1364SOL    HW1 4047   2.035   3.538   2.199 -0.9171 -0.4610  0.0641
 1364SOL    HW2 4048   2.035   3.524   2.036  0.6660 -0.2869  0.0329
 1365SOL     OW 4049   2.520   1.315   1.080 -0.5527 -0.5077  0.0445
 1365SOL    HW1 4050   2.486   1.385   1.143  1.1475 -0.6385  1.1743
 1365SOL    HW2 4051   2.447   1.251   1.060 -0.7189 -1.6583  3.5732
 1366SOL     OW 4052   1.689   3.238   1.571 -0.7172  0.0182 -0.9137
 1366SOL    HW1 4053   1.607   3.280   1.532 -2.0040 -1.1395  0.3921
 1366SOL    HW2 4054   1.717   3.289   1.652 -0.6268 -0.0546 -0.8987
 1367SOL     OW 4055   1.877   1.231   3.128  0.2156 -0.3388 -0.5524
 1367SOL    HW1 4056   1.817   1.161   3.165 -0.7502  0.3261 -0.8214
 1367SOL    HW2 4057   1.926   1.195   3.049  0.4098 -0.9782 -0.1473
 1368SOL     OW 4058   3.119   1.660   3.045  0.0991  0.2142  0.4832
 1368SOL    HW1 4059   3.126   1.571   3.090  0.2233  0.0961  0.2334
 1368SOL    HW2 4060   3.200   1.715   3.066  0.4952 -0.1073 -0.1616
 1369SOL     OW 4061   0.296   3.366   1.931 -0.1239 -0.5375  0.0636
 1369SOL    HW1 4062   0.382   3.370   1.983 -0.0890  1.1110 -0.0567
 1369SOL    HW2 4063   0.279   3.272   1.902  1.0977 -1.0752  0.9852
 1370SOL     OW 4064   1.491   1.293   2.343 -1.2106  0.2130  0.0975
 1370SOL    HW1 4065   1.489   1.300   2.442 -0.0541 -1.7994  0.3187
 1370SOL    HW2 4066   1.466   1.200   2.315 -1.2005  0.6489 -1.4803
 1371SOL     OW 4067   3.149   1.056   3.053 -0.1878 -0.0312 -0.1887
 1371SOL    HW1 4068   3.129   0.978   3.113  1.8100  0.2210  0.8848
 1371SOL    HW2 4069   3.218   1.114   3.096 -2.8718  3.4111 -0.0931
 1372SOL     OW 4070   2.966   0.414   0.651  0.1507 -0.1274  0.0592
 1372SOL    HW1 4071   3.022   0.363   0.716 -1.7044  0.3430  2.1911
 1372SOL    HW2 4072   2.924   0.351   0.586  2.6186 -0.5341 -1.2555
 1373SOL     OW 4073   2.849   2.718   1.090  0.2570  0.2654 -0.0013
 1373SOL    HW1 4074   2.796   2.672   1.020 -0.6950 -2.4203  2.3004
 1373SOL    HW2 4075   2.832   2.675   1.179  2.8080  2.2822  1.6201
 1374SOL     OW 4076   0.441   1.424   0.220 -0.3179 -0.0527 -0.4063
 1374SOL    HW1 4077   0.533   1.464   0.216 -1.2595  2.2673 -0.3513
 1374SOL    HW2 4078   0.430   1.377   0.308  0.5722  0.3115 -0.0813
 1375SOL     OW 4079   1.933   0.723   1.070  0.4096  0.4148 -0.0967
 1375SOL    HW1 4080   2.025   0.744   1.039  1.3323 -2.3210  0.5368
 1375SOL    HW2 4081   1.889   0.661   1.005  0.1281 -0.5693  0.9948
 1376SOL     OW 4082   0.790   2.926   0.226 -0.1266  0.2623 -0.1330
 1376SOL    HW1 4083   0.786   2.926   0.326 -1.9790  0.6698 -0.1625
 1376SOL    HW2 4084   0.816   3.017   0.194 -0.6447  0.4569 -0.0203
 1377SOL     OW 4085   2.374   2.852   3.005 -0.4368 -0.8878 -0.0356
 1377SOL    HW1 4086   2.303   2.919   3.027  0.3792 -0.0615  0.1465
 1377SOL    HW2 4087   2.372   2.831   2.907 -1.0175 -0.9875 -0.0068
 1378SOL     OW 4088   0.834   2.623   0.433  0.3235  0.5112 -0.3790
 1378SOL    HW1 4089   0.835   2.566   0.516 -0.8346 -0.4207 -0.9727
 1378SOL    HW2 4090   0.927   2.638   0.402  0.6848 -0.7364  0.0372
 1379SOL     OW 4091   0.918   2.769   0.048  0.6140 -0.7913  0.5316
 1379SOL    HW1 4092   0.887   2.674   0.049  0.1068 -0.6779 -1.4010
 1379SOL    HW2 4093   0.866   2.822   0.115  0.7721 -1.8125  1.4903
 1380SOL     OW 4094   0.553   3.059   3.376  0.3076 -0.2478 -0.7597
 1380SOL    HW1 4095   0.546   2.962   3.353 -1.2519 -0.3752  0.1938
 1380SOL    HW2 4096   0.646   3.079   3.408  0.1011 -1.8557  0.9453
 1381SOL     OW 4097   1.680   3.240   3.159 -0.1699 -0.0924 -0.0664
 1381SOL    HW1 4098   1.772   3.243   3.118 -0.0655  0.8458  0.2124
 1381SOL    HW2 4099   1.622   3.309   3.115 -0.2258  0.5203  0.9368
 1382SOL     OW 4100   1.677   0.412   0.542 -0.3130 -0.1345 -0.6275
 1382SOL    HW1 4101   1.767   0.455   0.543  0.2192 -1.2036  0.1001
 1382SOL    HW2 4102   1.614   0.465   0.598  0.3089 -0.2533  0.2079
 1383SOL     OW 4103   1.698   2.828   3.493 -0.3636 -0.2796  0.2122
 1383SOL    HW1 4104   1.775   2.778   3.531 -0.5876 -0.9466 -0.1863
 1383SOL    HW2 4105   1.728   2.918   3.463 -0.0718  0.0662  1.4625
 1384SOL     OW 4106   1.425   2.651   2.839 -0.0416  0.2014 -0.4056
 1384SOL    HW1 4107   1.374   2.705   2.773 -0.3525  1.6446  0.9655
 1384SOL    HW2 4108   1.362   2.608   2.903  0.3253 -0.2591 -0.3451
 1385SOL     OW 4109   1.753   1.024   2.336  0.1826 -0.1667  0.1364
 1385SOL    HW1 4110   1.687   0.949   2.328  1.2043 -0.9685 -1.2414
 1385SOL    HW2 4111   1.716   1.105   2.292  0.3105 -0.7729 -1.1424
 1386SOL     OW 4112   3.049   3.688   1.283 -0.1430 -0.1060  0.6787
 1386SOL    HW1 4113   2.975   3.621   1.279 -0.8834  0.6608  1.2980
 1386SOL    HW2 4114   3.097   3.690   1.194 -2.1594  0.8284 -0.4487
 1387SOL     OW 4115   1.921   3.420   3.677  0.3132 -0.1862  0.0009
 1387SOL    HW1 4116   1.907   3.328   3.638 -0.8845  0.0407 -0.1383
 1387SOL    HW2 4117   1.931   3.412   3.776  2.2750 -0.6573 -0.2039
 1388SOL     OW 4118   1.040   0.511   1.905 -0.3599 -0.0730 -0.1639
 1388SOL    HW1 4119   0.970   0.531   1.836  0.3414 -0.7263 -1.0926
 1388SOL    HW2 4120   1.091   0.595   1.925 -3.4855  1.3258  3.0505
 1389SOL     OW 4121   0.991   2.057   2.670  0.0007 -0.4344 -0.0384
 1389SOL    HW1 4122   0.999   1.984   2.738 -0.3032 -1.2622 -0.8625
 1389SOL    HW2 4123   0.910   2.112   2.690  1.5224  1.2312  1.9981
 1390SOL     OW 4124   2.892   2.019   3.040  0.9717 -0.1063  0.4827
 1390SOL    HW1 4125   2.860   1.998   3.132  0.4683  1.0210  0.5889
 1390SOL    HW2 4126   2.844   2.101   3.006  0.7821 -0.7746 -0.9673
 1391SOL     OW 4127   1.490   0.656   1.258  0.2388  0.0137 -0.8968
 1391SOL    HW1 4128   1.446   0.589   1.318  2.2839 -2.2527 -1.7762
 1391SOL    HW2 4129   1.570   0.694   1.304  0.2514  0.3360 -1.1823
 1392SOL     OW 4130   2.559   0.286   1.348  0.0464 -0.3131  0.1358
 1392SOL    HW1 4131   2.503   0.335   1.282  0.7062  1.5909  0.9119
 1392SOL    HW2 4132   2.629   0.233   1.300  1.6539  2.4238 -0.7416
 1393SOL     OW 4133   2.233   3.112   0.360  0.5857 -0.2014 -0.7347
 1393SOL    HW1 4134   2.162   3.154   0.417  2.0646  1.0583  0.2575
 1393SOL    HW2 4135   2.194   3.034   0.310 -1.5745  0.7057 -0.5656
 1394SOL     OW 4136   1.818   0.806   0.074  0.3768  0.3261 -0.4007
 1394SOL    HW1 4137   1.795   0.779   0.168 -0.0784  1.0326 -0.3001
 1394SOL    HW2 4138   1.896   0.752   0.043  0.6699  0.2211  0.4636
 1395SOL     OW 4139   0.585   3.716   2.699 -0.2333 -0.4631 -0.3794
 1395SOL    HW1 4140   0.677   3.735   2.733 -0.4578  0.3972 -0.2298
 1395SOL    HW2 4141   0.557   3.625   2.728 -1.0164  0.7369  3.1974
 1396SOL     OW 4142   3.232   0.681   3.348 -0.5224 -0.3002  0.1289
 1396SOL    HW1 4143   3.288   0.681   3.431 -0.5698  0.1685  0.1658
 1396SOL    HW2 4144   3.278   0.628   3.277 -0.1470 -0.1278  0.2383
 1397SOL     OW 4145   3.081   0.429   0.168 -0.2464  0.1216 -0.1215
 1397SOL    HW1 4146   3.178   0.414   0.148  0.5577  1.0164  2.6605
 1397SOL    HW2 4147   3.070   0.450   0.265 -3.3439 -0.6527 -0.1990
 1398SOL     OW 4148   1.059   0.373   3.145 -0.1593 -0.1548 -0.2771
 1398SOL    HW1 4149   1.038   0.276   3.132  0.7852 -0.3969 -0.0987
 1398SOL    HW2 4150   1.120   0.384   3.223  0.1878  0.5281 -0.6304
 1399SOL     OW 4151   3.545   1.299   3.375 -0.0755  0.1083 -0.4115
 1399SOL    HW1 4152   3.587   1.243   3.303 -0.1323  1.6206 -1.6830
 1399SOL    HW2 4153   3.608   1.372   3.401  0.6174 -1.3336  2.3136
 1400SOL     OW 4154   1.414   0.292   0.134 -0.0012  0.4866  0.1595
 1400SOL    HW1 4155   1.435   0.216   0.073 -2.6947  0.3852 -0.7871
 1400SOL    HW2 4156   1.498   0.336   0.164  1.5080  0.2939 -3.3271
 1401SOL     OW 4157   0.368   2.431   1.776  0.4411 -0.5360  0.2050
 1401SOL    HW1 4158   0.317   2.434   1.862  0.5223 -0.4872  0.2509
 1401SOL    HW2 4159   0.431   2.508   1.771 -0.6144  0.3207 -0.5489
 1402SOL     OW 4160   0.544   3.490   0.598 -0.5070  0.4575 -0.1049
 1402SOL    HW1 4161   0.549   3.486   0.498 -0.9876  2.0938 -0.2369
 1402SOL    HW2 4162   0.452   3.518   0.625 -0.4533 -0.2253  0.8184
 1403SOL     OW 4163   2.279   3.651   2.475  0.6523 -0.4196 -0.8898
 1403SOL    HW1 4164   2.264   3.555   2.452  3.1446 -1.0818 -0.0968
 1403SOL    HW2 4165   2.349   3.689   2.414  0.0189  0.7905 -0.8998
 1404SOL     OW 4166   2.840   3.534   0.330 -0.1973 -0.0386 -0.4090
 1404SOL    HW1 4167   2.897   3.613   0.304 -1.1983  0.6571 -0.5550
 1404SOL    HW2 4168   2.878   3.491   0.412  0.8364  0.0764 -0.8094
 1405SOL     OW 4169   3.036   3.249   2.177  0.7890 -0.5789  0.1332
 1405SOL    HW1 4170   2.939   3.241   2.156 -0.0802  1.3036  2.8722
 1405SOL    HW2 4171   3.083   3.293   2.101 -1.2892  1.9632  0.1596
 1406SOL     OW 4172   0.350   1.034   1.486 -0.4644  0.7008  0.0557
 1406SOL    HW1 4173   0.387   0.943   1.506  1.4281  1.5459  0.6657
 1406SOL    HW2 4174   0.281   1.057   1.555  0.9270  0.7261  1.5146
 1407SOL     OW 4175   2.428   3.086   0.556  0.5071 -0.1151 -0.4249
 1407SOL    HW1 4176   2.347   3.107   0.501  1.4131  0.6409 -1.5042
 1407SOL    HW2 4177   2.508   3.079   0.497  1.3875 -0.0040  0.7181
 1408SOL     OW 4178   2.744   2.047   0.094  0.4718  0.3086  0.3139
 1408SOL    HW1 4179   2.834   2.009   0.118 -0.0466 -0.6206  0.8393
 1408SOL    HW2 4180   2.750   2.147   0.091  1.5102  0.2597  0.3824
 1409SOL     OW 4181   2.056   1.893   3.299  0.2027  0.1216  0.3623
 1409SOL    HW1 4182   2.009   1.859   3.380  0.4692 -1.6841 -0.1881
 1409SOL    HW2 4183   1.993   1.947   3.244 -0.7323 -0.7685  0.5243
 1410SOL     OW 4184   2.536   0.446   0.126  0.2941 -0.6195 -0.5757
 1410SOL    HW1 4185   2.617   0.456   0.183 -0.0069  0.1301 -0.2623
 1410SOL    HW2 4186   2.477   0.526   0.137 -0.1069 -0.7832 -1.4055
 1411SOL     OW 4187   2.424   0.050   1.906  0.2817  0.0565  0.1231
 1411SOL    HW1 4188   2.333   0.083   1.880  0.7460  1.4861  0.2470
 1411SOL    HW2 4189   2.455   0.098   1.988  1.9534  1.0469 -1.0223
 1412SOL     OW 4190   3.382   3.473   2.009 -0.4848  0.7748  0.0820
 1412SOL    HW1 4191   3.459   3.537   2.001  0.0378  0.2285  0.6737
 1412SOL    HW2 4192   3.408   3.397   2.068 -1.3031  0.3077 -0.1500
 1413SOL     OW 4193   0.953   3.222   2.211  0.2369 -0.3595  0.1532
 1413SOL    HW1 4194   0.934   3.270   2.125 -2.4579 -0.7232  0.4522
 1413SOL    HW2 4195   1.046   3.186   2.209  0.6440  0.6282 -2.1145
 1414SOL     OW 4196   0.459   2.159   3.633 -0.1648 -0.3731  0.3483
 1414SOL    HW1 4197   0.465   2.066   3.670 -2.8146 -0.8864 -0.3074
 1414SOL    HW2 4198   0.393   2.160   3.557 -0.7022  2.1756  0.7729
 1415SOL     OW 4199   3.132   1.692   2.484  0.2747 -0.0819 -0.3251
 1415SOL    HW1 4200   3.074   1.767   2.452 -0.1561 -0.6374 -0.8629
 1415SOL    HW2 4201   3.075   1.621   2.526  0.5794 -0.5303 -0.6590
 1416SOL     OW 4202   2.038   0.676   2.011  0.1484  0.3261 -0.0327
 1416SOL    HW1 4203   2.004   0.766   2.041  1.5164  0.7746  0.2281
 1416SOL    HW2 4204   2.076   0.627   2.090 -0.4638 -0.4465 -0.2000
 1417SOL     OW 4205   3.042   3.241   3.308 -0.1375  0.1198 -0.4362
 1417SOL    HW1 4206   3.022   3.164   3.247  0.5432 -0.3272 -0.1097
 1417SOL    HW2 4207   2.958   3.270   3.353 -0.3030 -0.8170 -0.1236
 1418SOL     OW 4208   2.903   1.544   2.531 -0.0621  0.2405  0.4631
 1418SOL    HW1 4209   2.840   1.483   2.581 -0.5233 -0.0700 -0.4769
 1418SOL    HW2 4210   2.900   1.522   2.434 -0.3976  1.9229  0.0715
 1419SOL     OW 4211   2.255   1.206   1.684 -0.4112  0.3351 -0.0988
 1419SOL    HW1 4212   2.355   1.201   1.687 -0.3914  0.3600 -0.6809
 1419SOL    HW2 4213   2.220   1.220   1.777  0.0288 -1.2209  0.3270
 1420SOL     OW 4214   0.506   2.199   1.685 -0.3393 -0.4049 -0.0267
 1420SOL    HW1 4215   0.499   2.147   1.771  2.1715  1.4795  1.4789
 1420SOL    HW2 4216   0.460   2.287   1.696 -0.0788 -0.1885 -0.6443
 1421SOL     OW 4217   1.526   2.134   1.186 -0.8486  0.5024  0.3115
 1421SOL    HW1 4218   1.552   2.152   1.092 -1.1043 -1.1543 -0.1076
 1421SOL    HW2 4219   1.603   2.155   1.247 -0.4759  0.9970 -0.3257
 1422SOL     OW 4220   2.211   0.392   0.240 -0.0712 -0.2143 -0.0505
 1422SOL    HW1 4221   2.265   0.335   0.179  0.4681  0.1994  0.0306
 1422SOL    HW2 4222   2.264   0.413   0.322 -0.3786  0.1423  0.0600
 1423SOL     OW 4223   0.484   2.416   2.126 -0.0987 -0.7201  0.5226
 1423SOL    HW1 4224   0.496   2.336   2.185 -0.9501 -0.9303  0.4155
 1423SOL    HW2 4225   0.390   2.420   2.093  0.0673  0.0460  0.1144
 1424SOL     OW 4226   0.399   1.246   3.507  0.3664  0.1058  0.1448
 1424SOL    HW1 4227   0.383   1.330   3.558 -0.4494 -0.5400  0.9830
 1424SOL    HW2 4228   0.491   1.212   3.526  0.6023  0.6604  0.0032
 1425SOL     OW 4229   0.602   0.402   1.017 -0.3533 -0.1018 -0.1431
 1425SOL    HW1 4230   0.611   0.473   0.947  0.8225  0.1180  0.2108
 1425SOL    HW2 4231   0.567   0.442   1.101 -0.8275 -0.1793 -0.2996
 1426SOL     OW 4232   1.443   2.339   3.476 -0.3306  0.0202  0.0496
 1426SOL    HW1 4233   1.389   2.331   3.559 -0.8910  0.6965 -0.2408
 1426SOL    HW2 4234   1.530   2.384   3.496 -0.1865 -0.3955  0.3773
 1427SOL     OW 4235   1.227   1.112   2.020 -0.2523 -0.0583 -0.3940
 1427SOL    HW1 4236   1.298   1.117   1.949 -0.1178  0.7028 -0.2201
 1427SOL    HW2 4237   1.149   1.059   1.986 -0.7878  1.4560 -1.6702
 1428SOL     OW 4238   0.523   2.916   3.680 -0.4192 -0.1634  0.0251
 1428SOL    HW1 4239   0.519   2.953   3.773  0.1931 -0.1178  0.0350
 1428SOL    HW2 4240   0.484   2.982   3.616 -0.8705 -0.2064  0.2473
 1429SOL     OW 4241   1.579   2.351   0.419 -0.3019 -0.6764 -0.2861
 1429SOL    HW1 4242   1.481   2.343   0.439 -1.1813  1.6507 -3.0492
 1429SOL    HW2 4243   1.605   2.447   0.416  1.8291 -1.2179 -0.7255
 1430SOL     OW 4244   0.403   2.661   3.679 -0.5281  0.6083  0.2520
 1430SOL    HW1 4245   0.484   2.713   3.708 -0.1320  1.4444 -2.1280
 1430SOL    HW2 4246   0.418   2.564   3.696  0.4455  0.8661  0.9772
 1431SOL     OW 4247   1.094   0.848   0.368 -0.8398 -0.0691 -0.1679
 1431SOL    HW1 4248   1.101   0.768   0.427  1.3619 -0.6437 -1.0946
 1431SOL    HW2 4249   1.052   0.822   0.281  0.7194 -0.5072 -0.8316
 1432SOL     OW 4250   1.672   3.330   2.051  0.7219 -0.2287 -0.1577
 1432SOL    HW1 4251   1.589   3.279   2.030  1.5513 -1.3226 -0.8829
 1432SOL    HW2 4252   1.743   3.267   2.084  0.8550  0.8614  1.7756
 1433SOL     OW 4253   2.863   2.621   3.054  0.6013 -0.1518 -0.3695
 1433SOL    HW1 4254   2.952   2.602   3.015  1.3776  0.7509  0.8840
 1433SOL    HW2 4255   2.848   2.720   3.056  0.6320 -0.1445  1.6156
 1434SOL     OW 4256   0.397   3.240   0.267 -0.2626 -0.3606 -0.0771
 1434SOL    HW1 4257   0.415   3.146   0.240 -1.8907 -0.4015 -1.2438
 1434SOL    HW2 4258   0.306   3.246   0.308  1.0204  0.2292  2.8931
 1435SOL     OW 4259   1.171   2.285   2.746 -0.1039  0.1788  0.2490
 1435SOL    HW1 4260   1.127   2.370   2.717  0.8200  1.1448  1.5086
 1435SOL    HW2 4261   1.114   2.207   2.722 -0.8743  1.1347 -1.1366
 1436SOL     OW 4262   1.333   0.177   3.158 -0.0420 -0.4175  0.3743
 1436SOL    HW1 4263   1.326   0.150   3.062  2.0233 -0.4726  0.1930
 1436SOL    HW2 4264   1.264   0.129   3.212 -1.3529 -0.2421 -1.0984
 1437SOL     OW 4265   1.517   2.094   2.866  0.1209  0.2021 -0.2734
 1437SOL    HW1 4266   1.513   2.145   2.780  0.8706  1.6961  0.5424
 1437SOL    HW2 4267   1.609   2.057   2.878 -0.0646 -0.2535 -0.2453
 1438SOL     OW 4268   1.161   3.352   0.410 -0.2605 -0.1949 -0.0187
 1438SOL    HW1 4269   1.127   3.444   0.392  2.6447  0.8184 -0.7317
 1438SOL    HW2 4270   1.189   3.345   0.506  0.5516  0.0468 -0.2316
 1439SOL     OW 4271   2.694   1.499   1.632 -0.0054  0.2607 -0.5139
 1439SOL    HW1 4272   2.780   1.458   1.603  0.2700  0.7121 -0.3411
 1439SOL    HW2 4273   2.666   1.459   1.719  0.3863  0.6005 -0.2255
 1440SOL     OW 4274   1.002   1.242   2.308  0.1215 -0.2689 -0.4181
 1440SOL    HW1 4275   0.969   1.248   2.214  2.2645 -1.5703 -1.3380
 1440SOL    HW2 4276   0.978   1.326   2.358 -0.7719  0.5906 -2.2038
 1441SOL     OW 4277   2.722   1.663   3.258  0.6723 -0.2860  0.4375
 1441SOL    HW1 4278   2.758   1.596   3.194 -2.3274 -0.8312 -0.8667
 1441SOL    HW2 4279   2.664   1.616   3.325 -0.9169  0.8617 -0.0799
 1442SOL     OW 4280   0.591   3.149   2.997 -0.1034  0.2893  0.3845
 1442SOL    HW1 4281   0.667   3.181   2.941 -0.4413  1.5950  0.6431
 1442SOL    HW2 4282   0.560   3.223   3.057  1.0645 -1.4104  3.2582
 1443SOL     OW 4283   1.752   1.606   3.624 -0.1154 -0.0450 -0.4789
 1443SOL    HW1 4284   1.769   1.523   3.570  0.5802 -0.5225  0.4439
 1443SOL    HW2 4285   1.786   1.592   3.717  0.4469  1.4671 -0.4444
 1444SOL     OW 4286   2.133   1.602   0.862  0.6023 -0.6424 -0.2433
 1444SOL    HW1 4287   2.202   1.576   0.794  1.8631 -1.2836  1.2264
 1444SOL    HW2 4288   2.159   1.689   0.904 -0.6565  0.2236 -1.1762
 1445SOL     OW 4289   0.124   0.320   2.405  0.0437 -0.9212 -0.3299
 1445SOL    HW1 4290   0.145   0.223   2.417 -0.0988 -0.7362  1.7820
 1445SOL    HW2 4291   0.200   0.375   2.440  0.1693 -0.2378 -1.6039
 1446SOL     OW 4292   0.413   1.846   2.546  0.1354  0.3721 -0.1054
 1446SOL    HW1 4293   0.490   1.789   2.518  0.2972  0.3472  0.3961
 1446SOL    HW2 4294   0.413   1.930   2.492  0.1697  0.1096 -0.5178
 1447SOL     OW 4295   1.863   3.107   0.237 -0.5054  0.1065  0.4401
 1447SOL    HW1 4296   1.773   3.107   0.195 -0.6706  2.2899  0.6593
 1447SOL    HW2 4297   1.897   3.201   0.245  1.5696 -0.6037  0.8566
 1448SOL     OW 4298   1.581   0.187   1.572 -0.4782  0.2690 -0.1237
 1448SOL    HW1 4299   1.655   0.137   1.526 -0.8182  0.4222 -0.8547
 1448SOL    HW2 4300   1.507   0.123   1.595 -0.0711  0.0884  0.7404
 1449SOL     OW 4301   0.781   1.676   0.888 -0.8587 -0.5838  0.4304
 1449SOL    HW1 4302   0.716   1.722   0.947 -0.9490 -0.4569  0.2332
 1449SOL    HW2 4303   0.875   1.697   0.917 -0.8901 -2.0039  1.6857
 1450SOL     OW 4304   3.161   3.349   1.945 -0.7405 -0.0370  0.6014
 1450SOL    HW1 4305   3.184   3.315   1.854 -2.4225 -0.8489  0.4609
 1450SOL    HW2 4306   3.235   3.409   1.977  1.3416 -2.1558  0.0143
 1451SOL     OW 4307   3.107   0.544   1.979  0.0799  0.1571 -0.0270
 1451SOL    HW1 4308   3.132   0.527   1.884 -0.4563 -1.4674  0.0974
 1451SOL    HW2 4309   3.154   0.626   2.012 -1.2240  1.9422 -2.2809
 1452SOL     OW 4310   3.389   1.140   2.598  0.1778  0.3807  0.2852
 1452SOL    HW1 4311   3.303   1.124   2.647  0.3647 -1.0081  0.1957
 1452SOL    HW2 4312   3.460   1.083   2.637  1.4872  2.6167  1.3647
 1453SOL     OW 4313   1.676   1.741   3.277  0.6827 -0.3985 -0.2041
 1453SOL    HW1 4314   1.655   1.761   3.182  1.2342 -0.7871 -0.4154
 1453SOL    HW2 4315   1.704   1.645   3.286  1.7001 -0.0864  0.1609
 1454SOL     OW 4316   2.562   1.736   1.676  0.5347  0.5732  0.1513
 1454SOL    HW1 4317   2.601   1.646   1.658 -0.4534  0.4655 -1.6997
 1454SOL    HW2 4318   2.485   1.727   1.738 -0.1893 -0.0284 -0.8067
 1455SOL     OW 4319   1.822   2.714   2.722  0.3458 -0.1240 -0.5672
 1455SOL    HW1 4320   1.768   2.647   2.671 -0.3259  0.1650 -0.2418
 1455SOL    HW2 4321   1.919   2.695   2.709  0.2073 -2.2394  0.8640
 1456SOL     OW 4322   2.320   0.494   1.752  0.3901 -0.0634 -0.2277
 1456SOL    HW1 4323   2.327   0.454   1.844  2.4440 -0.8542 -0.6799
 1456SOL    HW2 4324   2.354   0.428   1.685 -0.9089  0.5743 -1.5640
 1457SOL     OW 4325   0.950   0.048   1.678  0.3473  0.1823  0.7764
 1457SOL    HW1 4326   0.922   0.011   1.590  0.6389 -2.8535  1.8553
 1457SOL    HW2 4327   1.001   0.133   1.663 -0.4677  0.3116 -1.8591
 1458SOL     OW 4328   3.592   0.808   3.265 -0.2470 -0.1356 -0.0320
 1458SOL    HW1 4329   3.532   0.869   3.213 -1.0679 -0.7478  0.1755
 1458SOL    HW2 4330   3.669   0.780   3.207 -0.5863  0.0211 -0.5685
 1459SOL     OW 4331   0.628   2.060   0.742  0.5296  0.1784  0.1829
 1459SOL    HW1 4332   0.556   2.130   0.744  1.6878  1.4318 -0.5330
 1459SOL    HW2 4333   0.586   1.969   0.740 -1.0253  0.7845  1.8413
 1460SOL     OW 4334   2.345   1.161   2.614  0.2544  0.0846 -0.3711
 1460SOL    HW1 4335   2.363   1.235   2.678 -0.7226 -0.7585  0.9331
 1460SOL    HW2 4336   2.254   1.173   2.574 -0.0842 -0.6144  0.1656
 1461SOL     OW 4337   2.127   3.147   2.718  0.4588 -0.3178 -0.1431
 1461SOL    HW1 4338   2.119   3.241   2.750  0.0546 -0.7905  1.2134
 1461SOL    HW2 4339   2.112   3.144   2.619 -0.1566  0.9513 -0.1111
 1462SOL     OW 4340   3.631   0.143   2.928 -0.1812 -0.9617 -0.4072
 1462SOL    HW1 4341   3.556   0.184   2.876  1.1840  0.1934 -1.5522
 1462SOL    HW2 4342   3.692   0.093   2.865  1.5579  0.5425  0.0037
 1463SOL     OW 4343   1.546   3.108   2.971 -0.4230  0.4186  0.1524
 1463SOL    HW1 4344   1.607   3.142   3.042 -0.0806 -0.0752  0.0974
 1463SOL    HW2 4345   1.457   3.086   3.011  0.2011 -1.2329  0.7423
 1464SOL     OW 4346   3.450   0.980   1.202  0.7828  0.2541 -0.1367
 1464SOL    HW1 4347   3.364   0.970   1.152  1.5074  0.3590 -1.4690
 1464SOL    HW2 4348   3.433   1.027   1.289 -0.7575 -1.3688  0.4925
 1465SOL     OW 4349   3.266   1.912   0.797  0.2041  0.2252 -0.5354
 1465SOL    HW1 4350   3.305   1.832   0.842  1.1073  1.0481  0.1878
 1465SOL    HW2 4351   3.336   1.982   0.786 -0.3731  0.6221 -1.8918
 1466SOL     OW 4352   1.966   0.858   1.676  0.0039  0.0197 -0.2244
 1466SOL    HW1 4353   2.011   0.776   1.712 -0.6787  0.2154  1.1185
 1466SOL    HW2 4354   2.035   0.919   1.637  0.6000 -0.8565 -0.5776
 1467SOL     OW 4355   0.513   0.573   3.728 -0.3215  0.0094 -0.4079
 1467SOL    HW1 4356   0.510   0.487   3.678 -0.2633 -0.6923  0.7686
 1467SOL    HW2 4357   0.487   0.648   3.667  1.0911 -0.6316 -1.8433
 1468SOL     OW 4358   0.164   3.603   3.690  0.2242  0.2971 -0.3116
 1468SOL    HW1 4359   0.136   3.570   3.780  0.9192 -2.4840 -1.0038
 1468SOL    HW2 4360   0.140   3.535   3.620  1.8550  1.2467 -1.8980
 1469SOL     OW 4361   0.411   2.979   2.032  0.4444 -0.0883 -0.2758
 1469SOL    HW1 4362   0.447   2.903   2.086  0.7597 -0.1659 -0.5838
 1469SOL    HW2 4363   0.317   2.960   2.005  0.5029 -0.3408 -0.2991
 1470SOL     OW 4364   3.529   1.389   1.728  0.1792  0.2192 -0.3133
 1470SOL    HW1 4365   3.585   1.472   1.731 -0.5833  0.7189  0.7876
 1470SOL    HW2 4366   3.472   1.390   1.646 -1.1388  1.7100  0.5523
 1471SOL     OW 4367   3.119   1.547   1.571  0.6171 -0.0821  0.6634
 1471SOL    HW1 4368   3.035   1.494   1.559  0.4958  0.2031  0.2302
 1471SOL    HW2 4369   3.097   1.644   1.570  0.7899 -0.0178  1.8417
 1472SOL     OW 4370   2.269   1.505   3.453 -0.2308 -0.1364  0.1065
 1472SOL    HW1 4371   2.182   1.526   3.500 -0.8145 -0.7321 -0.6833
 1472SOL    HW2 4372   2.257   1.517   3.355  1.4539  2.7388  0.1503
 1473SOL     OW 4373   2.093   1.883   0.602 -0.1255  0.1299  0.1674
 1473SOL    HW1 4374   2.035   1.902   0.681 -1.0624 -0.2943 -0.4116
 1473SOL    HW2 4375   2.065   1.939   0.525  0.5390  0.2539  0.0044
 1474SOL     OW 4376   2.035   2.026   1.218 -0.1394 -0.4144 -0.4806
 1474SOL    HW1 4377   2.058   2.078   1.135 -0.7847  0.4463 -0.1362
 1474SOL    HW2 4378   1.960   2.071   1.266 -1.3016 -2.1373 -0.5995
 1475SOL     OW 4379   1.907   3.199   2.993  0.0142  0.6582 -0.2712
 1475SOL    HW1 4380   1.883   3.276   2.935 -0.6594  0.9398  0.3650
 1475SOL    HW2 4381   1.907   3.115   2.939 -1.3077  0.8111 -0.5399
 1476SOL     OW 4382   3.479   2.047   0.690  0.0017  0.1365  0.2119
 1476SOL    HW1 4383   3.554   2.079   0.749 -0.0968  3.4001 -1.2354
 1476SOL    HW2 4384   3.515   1.981   0.624  1.4192  0.9617  0.1207
 1477SOL     OW 4385   2.220   2.920   2.123 -0.2947  0.4093  0.9666
 1477SOL    HW1 4386   2.229   3.018   2.137  0.2169  0.4125  0.6271
 1477SOL    HW2 4387   2.293   2.887   2.063 -1.3101  0.0767 -0.1447
 1478SOL     OW 4388   0.852   1.969   1.475 -0.6204 -0.0632  0.0166
 1478SOL    HW1 4389   0.821   2.014   1.559 -0.9126  0.9516 -0.6158
 1478SOL    HW2 4390   0.799   2.003   1.397 -0.7823 -1.4436 -0.5141
 1479SOL     OW 4391   3.477   0.627   0.502 -0.1727  0.1472 -0.3306
 1479SOL    HW1 4392   3.505   0.632   0.598  1.0180  0.7893 -0.6925
 1479SOL    HW2 4393   3.434   0.713   0.475 -0.9701 -0.2141 -0.2542
 1480SOL     OW 4394   0.023   1.265   2.249  0.2490  0.4846  0.1894
 1480SOL    HW1 4395  -0.059   1.265   2.306 -0.9287  1.2047 -1.4218
 1480SOL    HW2 4396   0.060   1.358   2.245 -0.6793  0.8112 -1.5367
 1481SOL     OW 4397   1.421   2.694   0.507 -0.4131 -0.4639  0.6863
 1481SOL    HW1 4398   1.420   2.641   0.592  0.4358 -1.4942  0.0834
 1481SOL    HW2 4399   1.491   2.657   0.446 -0.1735  1.0250  0.0147
 1482SOL     OW 4400   1.959   1.495   2.607 -0.1014 -0.4809  0.1042
 1482SOL    HW1 4401   1.863   1.480   2.631 -0.8313  1.9608 -1.0304
 1482SOL    HW2 4402   1.992   1.579   2.650  0.8396 -0.1052 -1.2881
 1483SOL     OW 4403   3.339   0.799   3.588  0.0018 -0.2612  0.0955
 1483SOL    HW1 4404   3.241   0.783   3.597  0.1805 -2.0880 -0.6939
 1483SOL    HW2 4405   3.357   0.897   3.585 -1.5381  0.1927  2.7592
 1484SOL     OW 4406   1.567   3.565   1.534 -0.1729 -0.0590  0.0457
 1484SOL    HW1 4407   1.542   3.478   1.492 -1.6203  0.9327 -1.2462
 1484SOL    HW2 4408   1.506   3.583   1.611  0.4297 -0.3750  0.6128
 1485SOL     OW 4409   3.097   3.609   0.003 -0.8377 -0.1248 -0.3175
 1485SOL    HW1 4410   3.163   3.557  -0.052  0.0937  0.2801  0.3749
 1485SOL    HW2 4411   3.046   3.546   0.062  1.2601 -0.2310  1.5489
 1486SOL     OW 4412   1.584   1.070   0.540  0.6061  0.3786  0.5270
 1486SOL    HW1 4413   1.629   1.153   0.509 -2.6076  1.5778 -1.4497
 1486SOL    HW2 4414   1.521   1.091   0.615  0.7415 -0.5277  0.9118
 1487SOL     OW 4415   1.373   1.137   0.053 -0.2481  0.2919  0.4208
 1487SOL    HW1 4416   1.371   1.044   0.092 -1.8529 -0.4050 -1.1341
 1487SOL    HW2 4417   1.300   1.145  -0.015  0.6653  2.3285 -0.3873
 1488SOL     OW 4418   1.774   1.864   2.233 -0.0289  0.6547  0.3011
 1488SOL    HW1 4419   1.761   1.765   2.234 -2.2366  0.8863  2.4260
 1488SOL    HW2 4420   1.864   1.885   2.196  0.6920 -2.1598  0.2386
 1489SOL     OW 4421   2.954   2.075   2.616 -0.3748  0.0733 -0.0096
 1489SOL    HW1 4422   2.952   1.979   2.644  2.1244  0.0629  0.3047
 1489SOL    HW2 4423   3.013   2.085   2.536 -1.3750  1.2527 -0.6415
 1490SOL     OW 4424   2.101   1.326   3.221  0.1528  0.2382 -0.2809
 1490SOL    HW1 4425   2.011   1.297   3.189  0.9449 -2.3011 -0.4051
 1490SOL    HW2 4426   2.103   1.325   3.321  0.4683 -1.2996 -0.2770
 1491SOL     OW 4427   0.164   2.361   0.028  0.6196 -0.1466 -0.0817
 1491SOL    HW1 4428   0.247   2.339   0.080  0.2679 -2.1416 -0.3122
 1491SOL    HW2 4429   0.183   2.354  -0.070  0.5532  0.8871 -0.1809
 1492SOL     OW 4430   3.655   1.645   1.691 -0.2299 -0.0648 -0.4187
 1492SOL    HW1 4431   3.688   1.680   1.779  0.4341 -0.9606 -0.2926
 1492SOL    HW2 4432   3.593   1.711   1.650 -1.2978 -0.0468  1.1545
 1493SOL     OW 4433   2.124   0.124   1.246 -0.0550  0.1836  0.5281
 1493SOL    HW1 4434   2.168   0.189   1.308  2.8601  0.7904 -1.9347
 1493SOL    HW2 4435   2.194   0.076   1.194 -2.3068 -1.1456 -1.4478
 1494SOL     OW 4436   2.539   2.860   1.479  0.2442  0.5012 -0.2961
 1494SOL    HW1 4437   2.464   2.811   1.434  0.1467  0.6278 -0.2700
 1494SOL    HW2 4438   2.567   2.937   1.422  0.9613 -0.0737 -0.7501
 1495SOL     OW 4439   2.607   2.233   0.974  0.1114  0.1699 -0.0499
 1495SOL    HW1 4440   2.644   2.235   1.067 -0.6195  0.4532  0.2473
 1495SOL    HW2 4441   2.681   2.246   0.908  0.3409  2.3620  0.5730
 1496SOL     OW 4442   1.756   1.089   3.522 -0.7107 -0.2119 -0.1563
 1496SOL    HW1 4443   1.818   1.053   3.454 -0.6824 -2.1814  0.8488
 1496SOL    HW2 4444   1.800   1.089   3.612 -1.0410  1.5201  0.0456
 1497SOL     OW 4445   1.042   2.360   2.261 -0.2309  0.4087 -0.0727
 1497SOL    HW1 4446   1.117   2.304   2.225 -0.8921 -0.3799 -0.2719
 1497SOL    HW2 4447   1.070   2.403   2.346  0.9582  1.3456 -0.9081
 1498SOL     OW 4448   1.994   1.164   2.121 -0.2306 -0.0225 -0.3187
 1498SOL    HW1 4449   2.025   1.102   2.193  0.7200  1.8878  1.0030
 1498SOL    HW2 4450   1.904   1.200   2.145  0.5303  1.4125  0.4922
 1499SOL     OW 4451   0.140   1.887   3.559 -0.4520 -0.4262 -0.3075
 1499SOL    HW1 4452   0.074   1.958   3.584 -0.0128 -0.8122  2.2654
 1499SOL    HW2 4453   0.194   1.917   3.480 -1.1492  1.5205 -0.0913
 1500SOL     OW 4454   1.723   2.972   1.968 -0.1464 -0.0719  0.0925
 1500SOL    HW1 4455   1.628   2.950   1.949  0.5915 -2.4985 -1.1140
 1500SOL    HW2 4456   1.771   2.890   2.000  1.5120  1.1329  0.8404
 1501SOL     OW 4457   1.890   0.380   0.300  0.1197 -0.3071 -0.1673
 1501SOL    HW1 4458   1.981   0.358   0.265  0.0955 -0.8640  0.1056
 1501SOL    HW2 4459   1.872   0.477   0.286  0.2977 -0.4207 -1.2538
 1502SOL     OW 4460   2.152   3.570   3.617 -0.2221 -0.3735  0.1455
 1502SOL    HW1 4461   2.140   3.648   3.677  1.1108 -2.1583  2.9513
 1502SOL    HW2 4462   2.072   3.510   3.623 -0.4669 -0.1391 -0.6063
 1503SOL     OW 4463   2.027   3.391   1.317  0.2853  0.6140  0.0570
 1503SOL    HW1 4464   2.122   3.365   1.303  0.6104  1.9149 -0.2709
 1503SOL    HW2 4465   1.982   3.323   1.374  1.5610  0.2642  0.6747
 1504SOL     OW 4466   2.328   1.600   1.227 -0.4592 -0.1456  0.4321
 1504SOL    HW1 4467   2.283   1.689   1.225 -1.2825 -0.4448 -3.4671
 1504SOL    HW2 4468   2.263   1.529   1.253  0.0068  0.2305  2.8050
 1505SOL     OW 4469   2.649   3.060   1.310 -0.1672 -0.0667 -0.7037
 1505SOL    HW1 4470   2.623   3.090   1.402  0.3294 -2.2769  0.2367
 1505SOL    HW2 4471   2.748   3.044   1.307 -0.1390  0.2295 -1.7101
 1506SOL     OW 4472   1.342   3.673   0.463  0.1940  0.1804  1.0615
 1506SOL    HW1 4473   1.327   3.714   0.553 -1.4328 -0.4895  1.1205
 1506SOL    HW2 4474   1.254   3.655   0.420  0.8782 -2.2873  0.5876
 1507SOL     OW 4475   1.214   0.283   2.217 -0.2929  0.8749  0.2990
 1507SOL    HW1 4476   1.212   0.236   2.305 -0.7513 -0.0375 -0.1807
 1507SOL    HW2 4477   1.126   0.270   2.171  0.7018 -0.6537 -1.2940
 1508SOL     OW 4478   1.796   2.490   0.664 -0.9596 -0.0661  0.3646
 1508SOL    HW1 4479   1.843   2.459   0.581 -0.4890 -0.4304  0.7586
 1508SOL    HW2 4480   1.809   2.589   0.675 -0.2063 -0.1755  0.5108
 1509SOL     OW 4481   0.606   2.050   2.485  0.2899  0.3688 -0.3263
 1509SOL    HW1 4482   0.660   1.985   2.432 -0.1834  0.6764 -1.1903
 1509SOL    HW2 4483   0.664   2.092   2.555  0.3350 -1.8646  1.0739
 1510SOL     OW 4484   2.229   1.912   2.137 -0.0176 -0.0672 -0.4985
 1510SOL    HW1 4485   2.298   1.979   2.106  0.4451  0.3956  1.4215
 1510SOL    HW2 4486   2.144   1.927   2.086  0.4899  1.1085 -1.0514
 1511SOL     OW 4487   3.662   2.188   0.112 -0.9793  0.1224 -0.2549
 1511SOL    HW1 4488   3.713   2.103   0.123  0.2290  0.5758 -1.8727
 1511SOL    HW2 4489   3.727   2.264   0.101 -2.0129  0.8312 -1.6904
 1512SOL     OW 4490   1.608   3.390   0.307  0.8214 -0.3090  0.4579
 1512SOL    HW1 4491   1.603   3.476   0.255  2.4954  0.5474  1.6231
 1512SOL    HW2 4492   1.558   3.400   0.392  0.0072 -0.9326  0.0683
 1513SOL     OW 4493   3.381   0.290   1.013 -0.8442 -0.5122 -0.6495
 1513SOL    HW1 4494   3.379   0.375   1.066 -0.2986 -0.4054 -0.7904
 1513SOL    HW2 4495   3.470   0.281   0.968  0.0397 -2.2946  1.2484
 1514SOL     OW 4496   2.845   0.675   1.371 -0.0955 -0.0416  0.6194
 1514SOL    HW1 4497   2.822   0.738   1.297 -1.0818 -3.1870 -1.9846
 1514SOL    HW2 4498   2.761   0.638   1.412  0.4274  1.5544  3.4125
 1515SOL     OW 4499   0.484   1.028   0.060 -0.1609 -0.6452 -0.0206
 1515SOL    HW1 4500   0.539   1.075  -0.008  0.1096  1.1481  1.3767
 1515SOL    HW2 4501   0.394   1.071   0.067 -1.2513 -2.5751 -1.1825
 1516SOL     OW 4502   3.363   1.794   3.210 -0.1688  0.3974  0.1487
 1516SOL    HW1 4503   3.425   1.799   3.288  1.8080 -1.2045 -1.2343
 1516SOL    HW2 4504   3.351   1.886   3.171  1.2776  0.7540  0.5008
 1517SOL     OW 4505   1.758   0.634   3.530  0.1842 -0.2250 -0.2766
 1517SOL    HW1 4506   1.729   0.623   3.625  0.1237  1.3569 -0.0923
 1517SOL    HW2 4507   1.776   0.544   3.490 -1.8637 -1.0561  0.5718
 1518SOL     OW 4508   1.458   1.377   1.147  0.2155  0.2438  0.7466
 1518SOL    HW1 4509   1.407   1.460   1.126 -1.6107 -1.5202 -2.4934
 1518SOL    HW2 4510   1.395   1.305   1.175  1.3059 -1.0496 -0.0013
 1519SOL     OW 4511   3.028   1.796   1.758 -0.1228 -0.1950  0.0915
 1519SOL    HW1 4512   2.956   1.830   1.698  0.1551  1.4188  0.6295
 1519SOL    HW2 4513   3.044   1.861   1.832  0.6882 -1.3555  0.9865
 1520SOL     OW 4514   2.345   2.033   0.635  0.0840  0.4752  0.0679
 1520SOL    HW1 4515   2.312   2.123   0.608 -0.3281  0.8902  1.8047
 1520SOL    HW2 4516   2.273   1.965   0.620  0.8722  0.1113 -2.5927
 1521SOL     OW 4517   3.502   0.784   2.518 -0.0568  0.7889 -0.9313
 1521SOL    HW1 4518   3.549   0.864   2.556  0.6101 -0.3060  0.6731
 1521SOL    HW2 4519   3.407   0.784   2.548 -0.3407  1.5159 -1.8076
 1522SOL     OW 4520   3.036   2.506   3.436  0.3377  0.3157 -0.4519
 1522SOL    HW1 4521   3.043   2.584   3.374  1.0854  0.3547 -0.3209
 1522SOL    HW2 4522   3.033   2.421   3.383  1.7096  0.2994 -0.5369
 1523SOL     OW 4523   1.216   0.354   1.351 -0.5101 -0.2444  0.6571
 1523SOL    HW1 4524   1.133   0.378   1.301  0.1163  0.7348  0.0375
 1523SOL    HW2 4525   1.263   0.280   1.303  0.2339  0.8792 -0.4230
 1524SOL     OW 4526   2.364   1.970   1.892  0.1575 -0.0107 -0.5338
 1524SOL    HW1 4527   2.357   1.878   1.854 -2.6277  0.2566 -0.9121
 1524SOL    HW2 4528   2.318   2.034   1.832 -0.8039  1.0883  1.2680
 1525SOL     OW 4529   0.246   2.094   1.986 -0.3510  0.1097 -0.0141
 1525SOL    HW1 4530   0.341   2.092   1.957 -0.6481  0.4007 -1.0507
 1525SOL    HW2 4531   0.187   2.063   1.911 -0.9273 -2.3262  1.3551
 1526SOL     OW 4532   3.278   2.515   1.264 -0.2796  0.0509  0.1187
 1526SOL    HW1 4533   3.334   2.471   1.334  1.6187  0.5365 -1.0327
 1526SOL    HW2 4534   3.257   2.609   1.291 -0.6257 -0.1617  0.5942
 1527SOL     OW 4535   2.749   0.101   1.262 -0.4779 -0.1487  0.0267
 1527SOL    HW1 4536   2.807   0.067   1.335  0.5817 -0.7778 -1.0809
 1527SOL    HW2 4537   2.705   0.024   1.215 -1.0223  0.2333 -0.0980
 1528SOL     OW 4538   1.270   0.121   2.900 -0.2755 -0.2445  0.2264
 1528SOL    HW1 4539   1.352   0.118   2.842  0.2637  1.6487  0.8477
 1528SOL    HW2 4540   1.193   0.082   2.849  0.3913  0.4876 -1.4297
 1529SOL     OW 4541   1.795   3.722   1.561  0.7203 -0.0300 -0.0206
 1529SOL    HW1 4542   1.720   3.658   1.544  0.3722  0.2545  0.4391
 1529SOL    HW2 4543   1.864   3.712   1.488  0.3119 -0.3923 -0.3650
 1530SOL     OW 4544   1.718   0.084   0.833  0.0249 -0.1589 -0.6009
 1530SOL    HW1 4545   1.703   0.013   0.764 -0.7373  0.2689 -0.8916
 1530SOL    HW2 4546   1.814   0.112   0.831  0.7293 -2.2510  0.5843
 1531SOL     OW 4547   0.450   1.183   2.411  0.2272  0.0854  0.6900
 1531SOL    HW1 4548   0.481   1.160   2.319 -0.7870  0.2378  0.2965
 1531SOL    HW2 4549   0.360   1.142   2.427 -0.3752  1.4626  0.9821
 1532SOL     OW 4550   3.592   0.605   2.060 -0.1847 -0.3916 -0.1048
 1532SOL    HW1 4551   3.600   0.542   1.983  1.1901  0.2594 -0.5241
 1532SOL    HW2 4552   3.602   0.555   2.146 -1.2192 -1.0431 -0.3448
 1533SOL     OW 4553   0.512   0.837   2.666  0.0131  0.0498 -0.1981
 1533SOL    HW1 4554   0.578   0.802   2.733 -0.1166  1.1136  0.5077
 1533SOL    HW2 4555   0.555   0.908   2.612  0.2196 -1.0313 -1.5037
 1534SOL     OW 4556   0.360   0.507   0.239 -0.1728  0.0530 -0.2367
 1534SOL    HW1 4557   0.417   0.535   0.162 -0.3711  2.0213  0.2868
 1534SOL    HW2 4558   0.283   0.569   0.248 -1.5490 -1.6157  0.0700
 1535SOL     OW 4559   0.081   3.353   1.030  0.7033  0.8514 -0.3033
 1535SOL    HW1 4560   0.033   3.274   0.991  1.2365  0.5830 -0.4243
 1535SOL    HW2 4561   0.166   3.368   0.980  0.6311  1.4793 -0.2512
 1536SOL     OW 4562   3.036   2.211   0.483 -0.3581  0.4644 -0.2250
 1536SOL    HW1 4563   3.063   2.165   0.399 -2.9630 -0.2044 -0.7786
 1536SOL    HW2 4564   3.025   2.143   0.556 -0.8565  0.6640 -0.1120
 1537SOL     OW 4565   0.642   0.140   2.299  0.3379  1.0761  0.4830
 1537SOL    HW1 4566   0.714   0.072   2.283 -0.7477 -0.2475  1.0281
 1537SOL    HW2 4567   0.602   0.168   2.212 -1.2780 -1.3435  0.3597
 1538SOL     OW 4568   1.849   2.961   1.300  0.2319  0.6027 -0.3092
 1538SOL    HW1 4569   1.873   3.052   1.333  1.1020  0.4089 -0.3853
 1538SOL    HW2 4570   1.906   2.938   1.221 -0.2665  0.1565 -0.5458
 1539SOL     OW 4571   2.303   0.717   2.382  0.4879 -0.0618  0.1488
 1539SOL    HW1 4572   2.382   0.739   2.440  0.7451 -1.9666  0.5935
 1539SOL    HW2 4573   2.218   0.736   2.431  0.6468  1.5209 -0.1441
 1540SOL     OW 4574   0.321   2.413   3.061  0.1072  0.7457  0.2528
 1540SOL    HW1 4575   0.229   2.428   3.026  0.3370  1.1653 -0.1772
 1540SOL    HW2 4576   0.327   2.445   3.155 -0.0450  1.2005  0.1064
 1541SOL     OW 4577   2.342   3.192   2.118  0.2525 -0.2584  0.2575
 1541SOL    HW1 4578   2.391   3.150   2.194  0.9382 -1.0335 -0.5913
 1541SOL    HW2 4579   2.367   3.289   2.112  2.9591 -0.9478 -1.0854
 1542SOL     OW 4580   2.264   0.858   3.695  0.3141  0.2357 -0.1765
 1542SOL    HW1 4581   2.215   0.944   3.682 -0.7889 -0.2693  0.5135
 1542SOL    HW2 4582   2.270   0.810   3.607 -1.0303  0.0049 -0.1676
 1543SOL     OW 4583   1.245   2.677   1.949 -0.2048 -0.1645  1.1126
 1543SOL    HW1 4584   1.231   2.603   1.884 -0.6712 -0.8416  1.9633
 1543SOL    HW2 4585   1.169   2.679   2.014 -0.3464  1.2500  0.9303
 1544SOL     OW 4586   1.004   0.960   2.304  0.2685 -0.9577 -0.2131
 1544SOL    HW1 4587   1.006   1.060   2.303 -0.4181 -0.9398 -1.2699
 1544SOL    HW2 4588   1.089   0.925   2.343 -0.4177  0.0511  2.3489
 1545SOL     OW 4589   3.689   0.511   0.372  0.0775 -0.6477  0.4443
 1545SOL    HW1 4590   3.721   0.434   0.428 -1.6798 -0.5091  1.7135
 1545SOL    HW2 4591   3.616   0.560   0.420 -0.9360 -0.0003 -1.6162
 1546SOL     OW 4592   2.225   1.828   0.986 -0.2338  0.2994 -0.0813
 1546SOL    HW1 4593   2.254   1.900   0.922 -0.1702 -0.9348 -1.4902
 1546SOL    HW2 4594   2.248   1.856   1.079  0.2339  1.8838 -0.6301
 1547SOL     OW 4595   0.208   2.435   0.908 -0.2779  0.3182 -0.1842
 1547SOL    HW1 4596   0.177   2.518   0.955  0.2023  0.2429  0.2642
 1547SOL    HW2 4597   0.142   2.411   0.837 -0.9684  0.4725  0.3984
 1548SOL     OW 4598   2.676   3.468   3.654 -0.0497  0.1094 -0.6850
 1548SOL    HW1 4599   2.580   3.439   3.651  0.4529 -1.7462 -0.0947
 1548SOL    HW2 4600   2.709   3.484   3.561 -0.4259 -1.1057 -1.0536
 1549SOL     OW 4601   1.618   0.179   2.176 -0.3982 -0.4200  0.0875
 1549SOL    HW1 4602   1.648   0.086   2.198 -0.1193 -0.6280 -1.0918
 1549SOL    HW2 4603   1.661   0.208   2.090 -1.2739  0.4099 -0.0813
 1550SOL     OW 4604   1.746   2.154   1.379 -0.2978 -0.5913 -0.2452
 1550SOL    HW1 4605   1.681   2.213   1.426 -0.1952 -2.4139  2.4502
 1550SOL    HW2 4606   1.838   2.193   1.386 -0.1050 -1.3210  2.2096
 1551SOL     OW 4607   3.415   0.135   0.388  0.0465  0.0856  0.8463
 1551SOL    HW1 4608   3.386   0.223   0.424  2.9057  1.0927  0.9032
 1551SOL    HW2 4609   3.360   0.112   0.308 -1.1818  1.5816  1.2241
 1552SOL     OW 4610   1.213   3.078   0.942  0.2014  0.0419  0.4638
 1552SOL    HW1 4611   1.123   3.118   0.960  1.3569  1.7610  3.1935
 1552SOL    HW2 4612   1.256   3.125   0.865 -0.4510  0.6772  0.4788
 1553SOL     OW 4613   1.535   2.388   1.818 -0.6434  0.1682 -0.1143
 1553SOL    HW1 4614   1.549   2.465   1.880  2.4878 -0.1292 -0.2880
 1553SOL    HW2 4615   1.500   2.310   1.869 -1.0336  0.8201  0.6416
 1554SOL     OW 4616   1.467   0.500   0.987  0.2526 -0.0716  0.2502
 1554SOL    HW1 4617   1.507   0.409   0.989  0.3102 -0.0521  0.0461
 1554SOL    HW2 4618   1.478   0.544   1.076  1.5386  0.2921 -0.0602
 1555SOL     OW 4619   2.746   1.779   0.443 -0.5198  0.4556 -0.0577
 1555SOL    HW1 4620   2.771   1.725   0.524 -1.5469  0.4822  0.2992
 1555SOL    HW2 4621   2.675   1.730   0.392 -0.8009  1.0395 -0.2310
 1556SOL     OW 4622   1.322   3.237   2.481  0.4574  0.0132 -0.1281
 1556SOL    HW1 4623   1.390   3.164   2.484  0.3777 -0.0465  1.9151
 1556SOL    HW2 4624   1.361   3.321   2.519 -0.4998  0.0410  0.8607
 1557SOL     OW 4625   1.513   1.370   1.479  0.0166  0.6158 -0.4740
 1557SOL    HW1 4626   1.568   1.414   1.550 -2.2810  2.7660  0.1088
 1557SOL    HW2 4627   1.526   1.418   1.392 -0.4026  0.6888 -0.4995
 1558SOL     OW 4628   2.858   3.631   1.871  0.1736  0.5404  0.1644
 1558SOL    HW1 4629   2.896   3.545   1.905  0.6776  1.0837  0.9972
 1558SOL    HW2 4630   2.765   3.615   1.837  0.3432 -0.3713  0.1076
 1559SOL     OW 4631   2.460   1.476   2.969 -0.2811 -0.2614 -0.3067
 1559SOL    HW1 4632   2.497   1.433   3.051  0.4134 -0.6210 -0.7957
 1559SOL    HW2 4633   2.491   1.571   2.965  0.8881 -0.6438 -0.8668
 1560SOL     OW 4634   2.094   3.675   3.378 -0.2078 -0.2533  0.0183
 1560SOL    HW1 4635   2.061   3.599   3.322 -1.8030  0.3534  0.0773
 1560SOL    HW2 4636   2.125   3.640   3.466  2.5036 -1.2461 -1.2117
 1561SOL     OW 4637   3.297   0.072   2.102  0.1125 -0.3456  0.0107
 1561SOL    HW1 4638   3.354   0.115   2.172 -0.3187 -0.2762  0.3252
 1561SOL    HW2 4639   3.312  -0.027   2.102  0.3097 -0.3153  0.0191
 1562SOL     OW 4640   1.204   3.369   1.043 -0.5658 -0.1586  0.2626
 1562SOL    HW1 4641   1.178   3.422   0.963  0.4284  0.4163  0.3061
 1562SOL    HW2 4642   1.136   3.298   1.060 -1.4379  0.5246 -0.3357
 1563SOL     OW 4643   1.501   0.980   0.250 -0.0628 -0.7102 -0.0465
 1563SOL    HW1 4644   1.427   0.993   0.315  0.3410 -0.0523  0.3008
 1563SOL    HW2 4645   1.587   0.966   0.299  0.4887  1.1577 -0.3815
 1564SOL     OW 4646   3.713   1.886   2.341 -0.2202  0.1889 -0.0547
 1564SOL    HW1 4647   3.671   1.796   2.349  0.8803 -0.2364  1.3503
 1564SOL    HW2 4648   3.726   1.925   2.432 -0.3537  1.6196 -0.6248
 1565SOL     OW 4649   0.499   3.054   1.742  0.3728  0.1874  0.3095
 1565SOL    HW1 4650   0.525   3.108   1.822  0.4674 -2.4004  2.1145
 1565SOL    HW2 4651   0.576   3.050   1.678  0.6835  1.3221  0.5882
 1566SOL     OW 4652   1.696   2.595   0.395  0.2021 -0.1327  0.4109
 1566SOL    HW1 4653   1.783   2.546   0.398  0.0741 -0.3179  1.7257
 1566SOL    HW2 4654   1.702   2.677   0.452 -0.8044 -0.7177  1.3961
 1567SOL     OW 4655   2.382   2.819   1.938  0.2138  0.1944  0.0169
 1567SOL    HW1 4656   2.472   2.779   1.956  0.8166 -0.2956 -3.2704
 1567SOL    HW2 4657   2.389   2.884   1.862 -2.5999 -2.6111 -3.0245
 1568SOL     OW 4658   1.928   2.458   0.423  0.3771  0.1335 -0.3982
 1568SOL    HW1 4659   1.887   2.384   0.370  0.9216 -0.2007 -0.3638
 1568SOL    HW2 4660   2.028   2.458   0.410  0.4788  0.2922  0.3015
 1569SOL     OW 4661   1.297   1.562   2.594  0.1371  0.0843 -0.1746
 1569SOL    HW1 4662   1.213   1.513   2.616 -0.0728 -0.0154 -1.1525
 1569SOL    HW2 4663   1.320   1.547   2.498  1.0196  0.4901 -0.0331
 1570SOL     OW 4664   2.071   2.209   3.525 -0.1441 -0.7176 -0.4293
 1570SOL    HW1 4665   2.134   2.282   3.496 -0.4525  0.0846  0.8484
 1570SOL    HW2 4666   2.124   2.131   3.558  0.2109 -0.0130  0.7219
 1571SOL     OW 4667   1.844   0.554   0.836 -0.5368  0.0186  0.2794
 1571SOL    HW1 4668   1.745   0.538   0.835 -0.4392 -0.6410  0.2739
 1571SOL    HW2 4669   1.869   0.612   0.758 -0.8900 -0.0029  0.1442
 1572SOL     OW 4670   2.833   2.908   3.098 -0.0374 -0.3503 -0.3294
 1572SOL    HW1 4671   2.750   2.946   3.057 -0.6175 -0.2024  0.9152
 1572SOL    HW2 4672   2.908   2.974   3.089 -0.1171 -0.3785 -1.2398
 1573SOL     OW 4673   0.880   0.874   0.194 -0.1960  0.0135  0.3307
 1573SOL    HW1 4674   0.809   0.805   0.181 -1.0416  0.8155  0.6167
 1573SOL    HW2 4675   0.839   0.958   0.229  1.1656 -0.1741  2.5899
 1574SOL     OW 4676   2.875   1.723   1.331  0.5825  0.2049  0.3973
 1574SOL    HW1 4677   2.972   1.724   1.305  0.7248 -1.7753  0.6570
 1574SOL    HW2 4678   2.835   1.636   1.303 -1.1011  0.9335  0.4515
 1575SOL     OW 4679   2.089   2.844   3.290  0.9422  0.1752 -0.1889
 1575SOL    HW1 4680   2.176   2.795   3.293  0.5672 -0.4621  1.0418
 1575SOL    HW2 4681   2.014   2.777   3.286  0.3971  0.5802  1.8919
 1576SOL     OW 4682   2.764   1.310   0.056  0.2764  0.3887 -0.0504
 1576SOL    HW1 4683   2.806   1.222   0.032  2.6603  1.6097 -0.6203
 1576SOL    HW2 4684   2.798   1.338   0.146 -1.7337  0.0186  0.8681
 1577SOL     OW 4685   2.019   0.420   2.532  0.1283  0.2687  0.0466
 1577SOL    HW1 4686   2.115   0.443   2.519  0.0139  0.3909 -0.6022
 1577SOL    HW2 4687   1.967   0.503   2.551 -0.1449  0.4658 -1.4501
 1578SOL     OW 4688   3.488   2.063   1.261 -0.7270  0.0949  0.3312
 1578SOL    HW1 4689   3.493   2.149   1.210 -0.5233  0.8854  1.6160
 1578SOL    HW2 4690   3.491   1.986   1.198 -0.7181  1.0261 -0.8419
 1579SOL     OW 4691   1.493   1.138   0.808 -0.2264 -0.8818  0.0834
 1579SOL    HW1 4692   1.414   1.164   0.864  1.1929  0.4114  1.6096
 1579SOL    HW2 4693   1.544   1.221   0.782  0.0714 -1.6003 -1.7537
 1580SOL     OW 4694   1.749   2.196   2.112  0.1624  0.4461  0.0714
 1580SOL    HW1 4695   1.674   2.168   2.171  1.5398 -1.9767  0.8304
 1580SOL    HW2 4696   1.733   2.164   2.019  0.6949 -1.0344  0.4634
 1581SOL     OW 4697   1.571   0.824   2.291 -0.2413 -0.1259  0.9542
 1581SOL    HW1 4698   1.486   0.813   2.240  0.8662 -1.3417 -0.7262
 1581SOL    HW2 4699   1.599   0.736   2.329  0.5666  0.1502  1.0145
 1582SOL     OW 4700   2.201   0.228   2.284  0.3464  0.1843 -0.0186
 1582SOL    HW1 4701   2.277   0.163   2.280  0.2426 -0.0099  0.8312
 1582SOL    HW2 4702   2.119   0.186   2.246  0.4899  0.1254 -0.2604
 1583SOL     OW 4703   1.674   1.823   3.036  0.4926  0.1450 -0.0402
 1583SOL    HW1 4704   1.584   1.856   3.005  1.2593 -0.5670 -3.4110
 1583SOL    HW2 4705   1.744   1.891   3.013  1.0521 -0.1651  0.7432
 1584SOL     OW 4706   3.150   0.298   0.819 -0.1969  0.1858 -0.4794
 1584SOL    HW1 4707   3.229   0.271   0.764 -1.0934 -0.1210 -1.6678
 1584SOL    HW2 4708   3.179   0.314   0.913  0.7780 -2.9293 -0.1517
 1585SOL     OW 4709   2.516   1.223   0.710  0.1051 -0.5667  0.2984
 1585SOL    HW1 4710   2.549   1.140   0.664 -1.8544 -0.6892 -1.0163
 1585SOL    HW2 4711   2.418   1.215   0.725  0.0445  1.1696  0.9733
 1586SOL     OW 4712   0.121   2.171   2.643  0.1689  0.5763  0.0142
 1586SOL    HW1 4713   0.221   2.168   2.639  0.1564 -0.1453  0.0015
 1586SOL    HW2 4714   0.084   2.084   2.609 -0.4653  0.8765 -0.0759
 1587SOL     OW 4715   1.699   0.170   2.565 -0.1255  0.2714 -0.3580
 1587SOL    HW1 4716   1.761   0.202   2.493 -0.7347  1.0653 -0.5441
 1587SOL    HW2 4717   1.751   0.154   2.649  0.5215 -0.2425 -0.8465
 1588SOL     OW 4718   1.190   0.394   0.474  0.0485 -0.3781  0.1633
 1588SOL    HW1 4719   1.165   0.388   0.571  1.5927 -0.0677  0.6179
 1588SOL    HW2 4720   1.239   0.480   0.459  3.1976 -2.0718 -0.0279
 1589SOL     OW 4721   2.945   1.521   2.265 -0.0105  0.3103  0.0601
 1589SOL    HW1 4722   2.860   1.490   2.222  1.3065 -0.6800 -1.9747
 1589SOL    HW2 4723   3.019   1.516   2.199  2.1623 -1.2476  2.4353
 1590SOL     OW 4724   2.208   0.549   3.521 -0.2655  0.1718  0.4589
 1590SOL    HW1 4725   2.139   0.530   3.451 -1.0004  0.0867  1.2051
 1590SOL    HW2 4726   2.299   0.537   3.481 -0.6723  0.3486 -0.5485
 1591SOL     OW 4727   1.152   2.827   2.962  0.1242 -0.5126 -0.3298
 1591SOL    HW1 4728   1.161   2.748   3.023  0.0222  0.4137  0.9202
 1591SOL    HW2 4729   1.116   2.797   2.874  0.8499 -1.9755 -0.1620
 1592SOL     OW 4730   2.208   2.193   1.075 -0.4728  0.5472  0.0418
 1592SOL    HW1 4731   2.283   2.149   1.025 -1.0585  1.1823 -1.4709
 1592SOL    HW2 4732   2.225   2.188   1.173  0.4012 -1.3561 -0.1684
 1593SOL     OW 4733   2.511   3.288   2.562  0.4713  0.2833 -0.4944
 1593SOL    HW1 4734   2.534   3.371   2.613  1.7325 -0.3175 -0.0451
 1593SOL    HW2 4735   2.477   3.218   2.625  0.4503  0.0948 -0.7126
 1594SOL     OW 4736   3.610   1.569   0.092  0.2855  0.0990 -0.5539
 1594SOL    HW1 4737   3.693   1.568   0.037  0.7331 -0.8677  0.1018
 1594SOL    HW2 4738   3.634   1.554   0.188 -0.5528  0.9438 -0.1940
 1595SOL     OW 4739   2.465   3.087   2.346 -0.1348 -0.2658 -0.2826
 1595SOL    HW1 4740   2.419   3.031   2.414 -1.2720  0.8848 -0.0624
 1595SOL    HW2 4741   2.495   3.173   2.388 -1.7786  0.9163 -1.4023
 1596SOL     OW 4742   1.002   0.031   0.624 -0.2397 -0.2495  0.1728
 1596SOL    HW1 4743   0.902   0.034   0.635 -0.1960  0.3390  0.4979
 1596SOL    HW2 4744   1.041   0.113   0.666  0.4003 -0.5955  0.2566
 1597SOL     OW 4745   0.562   1.861   0.204  0.0322  0.5470  0.5743
 1597SOL    HW1 4746   0.563   1.768   0.241 -1.1337  0.1998 -0.2029
 1597SOL    HW2 4747   0.520   1.860   0.114 -0.5578  1.9224  0.8089
 1598SOL     OW 4748   0.970   2.875   2.423 -0.6246 -0.5923 -0.1394
 1598SOL    HW1 4749   0.972   2.964   2.468  2.9775  0.6656 -2.3820
 1598SOL    HW2 4750   0.947   2.887   2.326 -1.9247 -2.3935 -0.0982
 1599SOL     OW 4751   0.678   3.071   1.537  0.4177  0.0333 -0.3443
 1599SOL    HW1 4752   0.643   3.135   1.469 -0.0186  1.5194  1.2001
 1599SOL    HW2 4753   0.742   3.119   1.598  1.6305 -1.5178 -0.3557
 1600SOL     OW 4754   1.437   2.514   2.500  0.1112  0.7969  0.1832
 1600SOL    HW1 4755   1.533   2.541   2.513 -0.2065  1.4669  1.3021
 1600SOL    HW2 4756   1.422   2.425   2.543  0.7511 -0.4610 -2.0237
 1601SOL     OW 4757   3.050   2.737   0.679 -0.6005 -0.3947  0.2663
 1601SOL    HW1 4758   2.993   2.807   0.722  1.4238  1.6226 -0.1226
 1601SOL    HW2 4759   3.121   2.708   0.743 -0.0436 -0.3751 -0.3292
 1602SOL     OW 4760   1.502   2.659   0.977 -0.2610 -0.0623 -0.5039
 1602SOL    HW1 4761   1.463   2.617   0.895 -0.9604  0.5996 -0.5289
 1602SOL    HW2 4762   1.599   2.677   0.962 -0.3850  0.0702 -1.2011
 1603SOL     OW 4763   0.068   2.582   1.309 -0.5698 -0.3700  0.1533
 1603SOL    HW1 4764   0.142   2.520   1.332  0.0497 -0.1298 -1.1491
 1603SOL    HW2 4765   0.080   2.617   1.216 -0.6697  2.0156  0.9628
 1604SOL     OW 4766   0.623   1.425   1.786 -0.4414 -0.6811 -0.6236
 1604SOL    HW1 4767   0.703   1.483   1.772  1.8844 -3.3346  0.6412
 1604SOL    HW2 4768   0.602   1.376   1.702 -1.1906  0.5168 -1.1477
 1605SOL     OW 4769   1.148   0.253   0.765  0.5188 -0.4247  0.3190
 1605SOL    HW1 4770   1.231   0.199   0.774  1.2398  0.6472  0.2975
 1605SOL    HW2 4771   1.163   0.345   0.802 -0.6496 -0.2018  0.3015
 1606SOL     OW 4772   0.555   3.451   2.077  0.5710  0.4684 -0.1782
 1606SOL    HW1 4773   0.539   3.360   2.115  0.9979  0.3960 -0.1660
 1606SOL    HW2 4774   0.495   3.517   2.123 -0.2243  0.0883 -0.6582
 1607SOL     OW 4775   2.185   1.000   3.446 -0.6164 -0.0615 -0.0162
 1607SOL    HW1 4776   2.171   1.097   3.462  0.4505  0.2214 -0.7229
 1607SOL    HW2 4777   2.096   0.954   3.442 -1.1213  0.8309  0.5747
 1608SOL     OW 4778   3.115   1.289   2.469 -0.1269 -0.0319 -0.0435
 1608SOL    HW1 4779   3.019   1.315   2.478 -0.9831 -2.6835 -0.6240
 1608SOL    HW2 4780   3.173   1.361   2.507 -2.2767  1.9707 -0.3289
 1609SOL     OW 4781   3.008   0.631   3.010 -0.2351  0.1121  0.0311
 1609SOL    HW1 4782   2.936   0.662   2.949  0.3041  3.5404  0.9428
 1609SOL    HW2 4783   3.088   0.605   2.956 -0.1539  2.0079 -0.8309
 1610SOL     OW 4784   3.493   0.004   3.593  0.0791 -0.2843 -0.2219
 1610SOL    HW1 4785   3.414   0.056   3.558  0.9705  0.7632 -0.7307
 1610SOL    HW2 4786   3.561   0.068   3.628  0.6865 -1.1898  0.2663
 1611SOL     OW 4787   2.792   2.244   2.943  0.4886  0.5289 -0.6237
 1611SOL    HW1 4788   2.757   2.316   3.002 -0.9506  0.3135 -1.1745
 1611SOL    HW2 4789   2.869   2.279   2.889  2.0559  0.6412  1.5232
 1612SOL     OW 4790   1.672   3.222   2.746  0.0778 -0.1198  0.2566
 1612SOL    HW1 4791   1.627   3.196   2.831 -0.6437  0.1353 -0.0326
 1612SOL    HW2 4792   1.709   3.141   2.701  0.4029 -0.2646  0.7712
 1613SOL     OW 4793   0.145   3.613   0.384 -0.2593 -0.4978 -0.2416
 1613SOL    HW1 4794   0.124   3.548   0.310 -0.9091  0.8896 -1.3319
 1613SOL    HW2 4795   0.061   3.652   0.419 -0.0124 -1.7478  1.8665
 1614SOL     OW 4796   2.811   0.519   3.432 -0.1031 -0.4727 -0.0471
 1614SOL    HW1 4797   2.879   0.500   3.361 -0.5893  0.1665 -0.7065
 1614SOL    HW2 4798   2.857   0.545   3.516  0.4731 -0.0079 -0.4963
 1615SOL     OW 4799   2.575   2.046   2.810 -0.2700 -0.1884 -0.2654
 1615SOL    HW1 4800   2.633   2.125   2.830  0.3482 -0.5507 -0.6178
 1615SOL    HW2 4801   2.548   2.048   2.714  1.8483 -1.7464 -0.9528
 1616SOL     OW 4802  -0.004   2.220   2.243  0.0322  0.6938 -0.5055
 1616SOL    HW1 4803   0.073   2.283   2.235  0.7947 -0.2808 -1.1625
 1616SOL    HW2 4804  -0.056   2.220   2.158  0.3995  0.0013 -0.7382
 1617SOL     OW 4805   1.238   3.054   3.315  0.1094  0.0878 -0.0749
 1617SOL    HW1 4806   1.203   2.968   3.353 -1.2863  1.0343  0.8488
 1617SOL    HW2 4807   1.309   3.090   3.376  0.9421 -0.5490 -0.6383
 1618SOL     OW 4808   0.747   3.529   1.903 -0.0104 -0.1066 -0.0087
 1618SOL    HW1 4809   0.668   3.491   1.952 -1.6615  1.4992 -1.2692
 1618SOL    HW2 4810   0.802   3.585   1.965  2.1219 -3.7677  1.7332
 1619SOL     OW 4811   0.639   3.167   0.487  0.4730  0.0935  0.6165
 1619SOL    HW1 4812   0.717   3.228   0.476 -0.7642  1.7680  0.6273
 1619SOL    HW2 4813   0.567   3.193   0.422 -0.4702 -0.7032  1.3046
 1620SOL     OW 4814   1.548   0.372   2.698 -0.0411 -0.5722 -0.1462
 1620SOL    HW1 4815   1.593   0.299   2.646  0.3742  0.0223 -0.6278
 1620SOL    HW2 4816   1.449   0.357   2.697  0.0553 -1.2702 -0.0202
 1621SOL     OW 4817   1.971   1.112   1.161 -0.3160 -0.4843 -0.5993
 1621SOL    HW1 4818   1.934   1.076   1.075 -0.2176 -0.7437 -0.5358
 1621SOL    HW2 4819   1.996   1.035   1.221 -0.7107 -0.3006 -0.2004
 1622SOL     OW 4820   3.226   3.118   1.186  0.0409  0.0905 -0.0978
 1622SOL    HW1 4821   3.208   3.027   1.149 -4.4758  1.0379 -0.8705
 1622SOL    HW2 4822   3.214   3.116   1.286  1.1232 -0.3497  0.0311
 1623SOL     OW 4823   0.658   1.628   3.117 -0.0267 -0.0714 -0.1729
 1623SOL    HW1 4824   0.732   1.693   3.133 -0.6485  0.4837  0.5609
 1623SOL    HW2 4825   0.655   1.561   3.190  0.0965 -0.4283 -0.4931
 1624SOL     OW 4826   0.446   0.812   1.542  0.0475  0.9292 -0.2518
 1624SOL    HW1 4827   0.540   0.822   1.508 -0.6676  3.0891 -1.7790
 1624SOL    HW2 4828   0.447   0.755   1.625  2.5070 -0.2628 -0.9770
 1625SOL     OW 4829   0.554   0.552   0.792 -0.0154  0.4502  0.3863
 1625SOL    HW1 4830   0.590   0.644   0.779  0.3181  0.1803 -0.7908
 1625SOL    HW2 4831   0.455   0.552   0.780 -0.0047  0.6488  0.3035
 1626SOL     OW 4832   0.118   1.522   2.265 -0.4409 -0.7538  0.0126
 1626SOL    HW1 4833   0.181   1.546   2.339 -0.8274  1.4351 -0.3069
 1626SOL    HW2 4834   0.164   1.536   2.177 -0.7499 -1.0139 -0.1910
 1627SOL     OW 4835   0.114   3.526   1.801 -0.5778  0.0893 -1.0704
 1627SOL    HW1 4836   0.176   3.483   1.867  0.2746  2.7176 -0.0314
 1627SOL    HW2 4837   0.139   3.498   1.708  0.6673 -0.6952 -0.5193
 1628SOL     OW 4838   2.616   0.625   2.941 -0.4557  0.3907  0.2381
 1628SOL    HW1 4839   2.660   0.693   2.882  0.1484 -1.5803 -1.7057
 1628SOL    HW2 4840   2.656   0.630   3.033  1.4800  0.8872 -0.5875
 1629SOL     OW 4841   1.295   1.445   2.909  0.5688 -0.7436  0.3055
 1629SOL    HW1 4842   1.385   1.475   2.876  0.9707 -1.7926  0.4181
 1629SOL    HW2 4843   1.247   1.398   2.835  0.1775 -0.3288  0.2960
 1630SOL     OW 4844   1.474   1.969   0.231 -0.1189  0.3978  0.5543
 1630SOL    HW1 4845   1.492   1.871   0.235  1.3830  0.6666  0.7159
 1630SOL    HW2 4846   1.407   1.993   0.302 -1.5025 -0.6914 -0.3355
 1631SOL     OW 4847   0.184   0.439   1.595  0.2988 -0.2539  0.4352
 1631SOL    HW1 4848   0.215   0.509   1.530 -0.0837 -1.0969 -0.7027
 1631SOL    HW2 4849   0.089   0.415   1.573 -0.2724  0.3448  2.1337
 1632SOL     OW 4850   3.688   2.918   2.371 -0.3312  0.0709  0.4608
 1632SOL    HW1 4851   3.785   2.914   2.398 -0.2578  1.7138  0.5815
 1632SOL    HW2 4852   3.645   2.997   2.415 -1.8903 -0.9287  0.8215
 1633SOL     OW 4853   0.433   0.282   3.210  0.1027 -0.0978 -0.1257
 1633SOL    HW1 4854   0.371   0.341   3.262  0.3859  1.1713 -1.1487
 1633SOL    HW2 4855   0.467   0.209   3.268 -1.1705  0.0755  0.8745
 1634SOL     OW 4856   0.015   0.289   0.548  0.1604 -0.1702  0.4067
 1634SOL    HW1 4857  -0.051   0.330   0.611  1.8248 -0.0646  2.1570
 1634SOL    HW2 4858   0.083   0.237   0.599  1.9365  0.3837 -1.2578
 1635SOL     OW 4859   0.290   3.244   2.651 -0.2560 -0.2919 -0.2518
 1635SOL    HW1 4860   0.372   3.290   2.617  0.5883 -0.9905  0.7650
 1635SOL    HW2 4861   0.209   3.288   2.614  0.5116  1.9467  0.5825
 1636SOL     OW 4862   0.560   1.829   0.959  0.2535 -0.1607  0.2942
 1636SOL    HW1 4863   0.474   1.778   0.959  0.7177 -1.0370 -1.5465
 1636SOL    HW2 4864   0.542   1.924   0.984 -1.2538 -0.3300 -0.0267
 1637SOL     OW 4865   2.288   1.350   3.679 -0.1463 -0.2689  0.2439
 1637SOL    HW1 4866   2.278   1.385   3.586 -0.1939 -0.5096  0.1568
 1637SOL    HW2 4867   2.384   1.336   3.700 -0.1448 -0.3480  0.1821
 1638SOL     OW 4868   0.735   3.523   3.329 -0.4699  0.0046 -0.3364
 1638SOL    HW1 4869   0.733   3.571   3.416 -1.7366 -0.4176 -0.1050
 1638SOL    HW2 4870   0.797   3.445   3.335 -1.1094 -0.4589  0.4362
 1639SOL     OW 4871   3.046   0.150   3.638  0.5721  0.2517 -0.4440
 1639SOL    HW1 4872   3.063   0.054   3.660 -1.0437  0.1629  0.6166
 1639SOL    HW2 4873   2.949   0.170   3.651  0.8133  1.9447 -1.0180
 1640SOL     OW 4874   2.794   1.468   1.207 -0.0114  0.0590  0.0338
 1640SOL    HW1 4875   2.809   1.414   1.124 -1.4467 -1.3940  0.6446
 1640SOL    HW2 4876   2.716   1.529   1.193  1.5149  1.9464 -0.6006
 1641SOL     OW 4877   0.799   1.121   1.473 -0.9681  0.5241 -0.2360
 1641SOL    HW1 4878   0.789   1.091   1.378 -2.1829  0.7718 -0.2118
 1641SOL    HW2 4879   0.877   1.183   1.480  0.2731 -0.9261 -0.6965
 1642SOL     OW 4880   1.667   0.504   3.136 -0.2572 -0.0057  0.1774
 1642SOL    HW1 4881   1.572   0.477   3.121  0.3922 -1.7533 -1.2168
 1642SOL    HW2 4882   1.712   0.436   3.194  0.8528 -0.8602 -1.5883
 1643SOL     OW 4883   1.018   1.154   2.883 -0.3771  0.2414  0.3630
 1643SOL    HW1 4884   0.946   1.101   2.837  0.0617  0.5656 -0.7200
 1643SOL    HW2 4885   1.058   1.219   2.819  2.9511 -1.9322 -0.0032
 1644SOL     OW 4886   1.571   0.258   1.010 -0.0548  0.0221 -0.5737
 1644SOL    HW1 4887   1.611   0.208   0.933  2.5510  2.3533 -0.9014
 1644SOL    HW2 4888   1.616   0.229   1.095 -1.0223 -0.6400 -0.2790
 1645SOL     OW 4889   0.017   3.201   1.673 -0.7470 -0.1548 -0.8924
 1645SOL    HW1 4890  -0.047   3.127   1.698  0.6516 -0.9900  0.4040
 1645SOL    HW2 4891   0.108   3.178   1.706 -0.2522  2.1713 -0.4773
 1646SOL     OW 4892   1.319   1.689   3.584 -0.3380 -0.3259  0.1330
 1646SOL    HW1 4893   1.384   1.737   3.526 -0.5820 -0.3437 -0.1561
 1646SOL    HW2 4894   1.363   1.610   3.627 -0.1513 -0.2943 -0.0026
 1647SOL     OW 4895   3.510   1.611   0.653 -0.0668 -0.1535  0.2578
 1647SOL    HW1 4896   3.543   1.703   0.628  1.0573 -0.0606  1.9234
 1647SOL    HW2 4897   3.450   1.618   0.732  2.0907 -1.0312  2.0770
 1648SOL     OW 4898   1.426   3.293   1.769  0.6144 -0.0329  0.3059
 1648SOL    HW1 4899   1.430   3.213   1.710 -1.3374  0.5842 -0.7382
 1648SOL    HW2 4900   1.423   3.264   1.865  2.3537 -1.0816  0.0940
 1649SOL     OW 4901   3.003   0.477   2.463 -0.4375 -0.1284  0.4817
 1649SOL    HW1 4902   3.052   0.515   2.385 -0.4932  2.1601  1.4830
 1649SOL    HW2 4903   2.924   0.425   2.431 -0.1109  0.2425 -0.9894
 1650SOL     OW 4904   1.789   2.234   2.472  0.0676 -1.0361 -0.1247
 1650SOL    HW1 4905   1.852   2.273   2.539  0.9967 -2.6836  0.0074
 1650SOL    HW2 4906   1.793   2.287   2.387  2.3384 -1.6165 -0.4406
 1651SOL     OW 4907   1.546   3.702   1.967 -0.4794 -0.1158  0.2299
 1651SOL    HW1 4908   1.490   3.651   1.902  0.2449  0.9968 -1.3068
 1651SOL    HW2 4909   1.641   3.703   1.937 -0.1819  0.6932  1.1404
 1652SOL     OW 4910   3.524   2.853   1.162 -0.3914 -0.4112  0.2996
 1652SOL    HW1 4911   3.501   2.759   1.136  0.8093 -0.9064  0.9684
 1652SOL    HW2 4912   3.477   2.877   1.247  0.3688 -0.9059  0.8723
 1653SOL     OW 4913   1.313   3.707   1.517  0.2149  0.1396  0.6528
 1653SOL    HW1 4914   1.244   3.776   1.541  0.9671  0.6656  1.3547
 1653SOL    HW2 4915   1.269   3.632   1.466 -0.8451  0.5204  0.9802
 1654SOL     OW 4916   0.389   3.461   3.382 -0.4974  0.4037 -0.2284
 1654SOL    HW1 4917   0.331   3.503   3.312  1.3034  0.9453 -1.4451
 1654SOL    HW2 4918   0.417   3.370   3.352 -0.7514  0.1187  0.3805
 1655SOL     OW 4919   0.514   2.108   1.071  0.0297 -0.0491 -0.3132
 1655SOL    HW1 4920   0.566   2.135   1.153 -0.2752 -0.4681  0.0256
 1655SOL    HW2 4921   0.523   2.178   1.001 -0.0776  0.5371  0.2478
 1656SOL     OW 4922   3.710   1.920   2.613 -0.6696 -0.4267  0.5143
 1656SOL    HW1 4923   3.613   1.912   2.636 -0.6497 -1.0893  0.3751
 1656SOL    HW2 4924   3.766   1.893   2.691 -0.5561  2.0170  1.3670
 1657SOL     OW 4925   2.077   2.115   0.445  0.2840  0.6813  0.3686
 1657SOL    HW1 4926   2.110   2.152   0.358  0.2575  1.5825  0.7376
 1657SOL    HW2 4927   2.101   2.176   0.520  0.1043  0.0279  0.9788
 1658SOL     OW 4928   1.882   2.571   0.012 -0.8031  0.4562 -0.1389
 1658SOL    HW1 4929   1.920   2.661  -0.007 -0.5328  0.3699 -0.0191
 1658SOL    HW2 4930   1.793   2.581   0.056  0.4947  0.7395  2.6312
 1659SOL     OW 4931   0.192   3.275   2.901 -0.4395  0.1921  0.1404
 1659SOL    HW1 4932   0.229   3.243   2.814 -1.4793  1.2303 -0.7005
 1659SOL    HW2 4933   0.267   3.294   2.964  0.3122 -3.5917  0.6592
 1660SOL     OW 4934   1.779   0.533   1.986 -0.9644  0.6099  0.0742
 1660SOL    HW1 4935   1.721   0.600   1.940 -0.5581  0.2466 -0.9935
 1660SOL    HW2 4936   1.871   0.572   1.999 -0.9446  0.5376  0.1536
 1661SOL     OW 4937   2.366   0.744   3.030 -0.1946 -0.2928 -0.1689
 1661SOL    HW1 4938   2.373   0.813   3.103 -0.5394 -0.6230  0.1849
 1661SOL    HW2 4939   2.451   0.691   3.026  0.1700  0.3109 -0.6109
 1662SOL     OW 4940   3.124   1.430   2.808  0.0367 -0.2493 -0.3264
 1662SOL    HW1 4941   3.119   1.511   2.866 -0.6646 -0.7249  0.2916
 1662SOL    HW2 4942   3.202   1.439   2.745 -0.4187  1.1992 -0.7332
 1663SOL     OW 4943   1.554  -0.027   0.296  0.0195 -0.4515  0.1484
 1663SOL    HW1 4944   1.600   0.062   0.303 -0.9089  0.5927 -4.0657
 1663SOL    HW2 4945   1.467  -0.024   0.345  0.4738  0.5800  0.9248
 1664SOL     OW 4946   2.292   1.388   2.770 -0.1879  0.0876  0.4162
 1664SOL    HW1 4947   2.354   1.440   2.828 -0.5831  1.1612 -0.0897
 1664SOL    HW2 4948   2.213   1.359   2.825 -1.3130  2.4061  0.1353
 1665SOL     OW 4949   1.475   0.031   2.744  0.1057  0.3957 -0.4323
 1665SOL    HW1 4950   1.521  -0.055   2.768 -0.3816  0.5014  0.9933
 1665SOL    HW2 4951   1.528   0.079   2.675  1.9180  0.2939  0.8294
 1666SOL     OW 4952   2.736   2.801   3.333 -0.4732  0.3291 -0.4715
 1666SOL    HW1 4953   2.711   2.883   3.384 -1.2186  0.4056 -0.9479
 1666SOL    HW2 4954   2.764   2.826   3.240 -0.5307  0.0687 -0.5615
 1667SOL     OW 4955   3.378   1.420   2.674 -0.4845  0.0162 -0.2200
 1667SOL    HW1 4956   3.408   1.326   2.657 -1.7387 -0.6572  1.0672
 1667SOL    HW2 4957   3.413   1.479   2.602 -1.0392 -1.7144 -1.9947
 1668SOL     OW 4958   0.218   3.671   3.237 -0.3124  0.5740 -0.2172
 1668SOL    HW1 4959   0.137   3.613   3.226  1.2410 -1.9480  0.6534
 1668SOL    HW2 4960   0.263   3.682   3.148 -1.4886  1.8977 -0.6843
 1669SOL     OW 4961   2.373   1.694   1.882 -0.6050  0.0212  0.4919
 1669SOL    HW1 4962   2.280   1.670   1.854 -1.3917  1.5518  1.6815
 1669SOL    HW2 4963   2.384   1.677   1.980  0.6942 -1.0014  0.2099
 1670SOL     OW 4964   0.197   1.433   1.062 -0.6824 -0.4770 -0.1589
 1670SOL    HW1 4965   0.203   1.404   1.158 -1.2585  0.5020  0.1997
 1670SOL    HW2 4966   0.115   1.394   1.021 -1.1018  0.0715  0.1294
 1671SOL     OW 4967   0.706   2.295   0.178 -0.3010 -0.5683 -0.0124
 1671SOL    HW1 4968   0.651   2.333   0.252  0.4827 -0.8779  0.7509
 1671SOL    HW2 4969   0.772   2.230   0.216 -1.1566 -2.2149 -1.1965
 1672SOL     OW 4970   1.839   2.885   1.712  0.5732 -0.2024 -0.3746
 1672SOL    HW1 4971   1.765   2.898   1.777 -0.7636 -1.7101 -1.5039
 1672SOL    HW2 4972   1.802   2.855   1.624  2.5415 -1.6246 -0.8067
 1673SOL     OW 4973   1.899   2.581   1.241 -0.3462 -0.0611 -0.2010
 1673SOL    HW1 4974   1.958   2.507   1.207  0.5442  0.4279  0.2462
 1673SOL    HW2 4975   1.954   2.646   1.294 -1.3677  0.1967  0.5715
 1674SOL     OW 4976   0.438   1.779   2.129 -0.4965  0.1587 -0.1822
 1674SOL    HW1 4977   0.538   1.772   2.129 -0.3344  1.5524 -2.4398
 1674SOL    HW2 4978   0.411   1.857   2.186 -0.3029 -0.1831  0.3837
 1675SOL     OW 4979   3.239   0.600   2.830 -0.1413  0.2128 -0.2011
 1675SOL    HW1 4980   3.241   0.663   2.752 -1.4754  0.1052 -0.3467
 1675SOL    HW2 4981   3.325   0.606   2.880  0.8125  0.1594 -1.7765
 1676SOL     OW 4982   1.666   3.670   3.235 -0.1349 -0.0444  0.2152
 1676SOL    HW1 4983   1.737   3.696   3.169  0.1422 -0.9459  0.1476
 1676SOL    HW2 4984   1.620   3.752   3.268  0.4919  0.5045 -0.2448
 1677SOL     OW 4985   3.649   3.162   0.901 -0.2031  0.5075  0.0220
 1677SOL    HW1 4986   3.597   3.189   0.981 -0.0847  0.2992  0.1704
 1677SOL    HW2 4987   3.597   3.095   0.848 -0.6972  1.3526 -0.5934
 1678SOL     OW 4988   0.581   3.321   3.224 -0.3728  0.5398 -0.0439
 1678SOL    HW1 4989   0.611   3.230   3.252  1.3961  1.0998  0.0376
 1678SOL    HW2 4990   0.650   3.388   3.253 -1.5410  1.8755 -0.2799
 1679SOL     OW 4991   3.157   2.058   3.024  0.0947  0.4468  0.4586
 1679SOL    HW1 4992   3.176   2.095   3.114  0.2674  0.8862  0.2431
 1679SOL    HW2 4993   3.062   2.028   3.019  0.1735  0.1144  0.8898
 1680SOL     OW 4994   3.584   1.005   0.131  0.5791 -0.1920  0.6215
 1680SOL    HW1 4995   3.558   1.102   0.132  0.5614 -0.1977  0.7140
 1680SOL    HW2 4996   3.503   0.948   0.139  0.6585 -0.2023  1.4439
 1681SOL     OW 4997   2.186   1.248   1.947  0.1148 -0.0801  0.3295
 1681SOL    HW1 4998   2.256   1.254   2.017 -0.7498  0.7001  1.1535
 1681SOL    HW2 4999   2.098   1.223   1.989 -0.3556  0.0996 -0.5101
 1682SOL     OW 5000   0.369   0.511   0.506  0.2047 -0.3886 -0.0542
 1682SOL    HW1 5001   0.380   0.605   0.473  1.1977  0.0930  1.5545
 1682SOL    HW2 5002   0.358   0.450   0.428 -0.1229  1.0124 -1.1452
 1683SOL     OW 5003   3.611   0.572   2.663 -0.4714 -0.6333 -0.1057
 1683SOL    HW1 5004   3.682   0.639   2.680  1.2517 -2.3344 -0.2095
 1683SOL    HW2 5005   3.544   0.609   2.599 -0.4849  1.5166  1.0863
 1684SOL     OW 5006   3.392   0.867   0.412 -0.3972  0.0516  0.8411
 1684SOL    HW1 5007   3.333   0.948   0.406 -1.3151 -0.6133  0.8414
 1684SOL    HW2 5008   3.412   0.834   0.321 -3.6164 -2.2768  0.8273
 1685SOL     OW 5009   1.173   0.669   0.591 -0.0065 -0.7318 -0.0014
 1685SOL    HW1 5010   1.208   0.719   0.669 -0.6648  0.0133 -0.1677
 1685SOL    HW2 5011   1.103   0.604   0.621  0.8574 -1.5844  0.2157
 1686SOL     OW 5012   1.884   1.694   0.822  0.1610  0.0978  0.0122
 1686SOL    HW1 5013   1.983   1.679   0.823  0.1789 -0.0525  2.3172
 1686SOL    HW2 5014   1.865   1.790   0.839 -0.1156  0.4297 -1.9519
 1687SOL     OW 5015   2.777   3.229   3.416  0.3109 -0.2064 -0.1297
 1687SOL    HW1 5016   2.723   3.151   3.383 -0.8914  1.3203 -1.9635
 1687SOL    HW2 5017   2.734   3.314   3.386  1.8793  1.1891  1.3674
 1688SOL     OW 5018   2.160   2.402   2.433  0.3420  0.2399 -0.3318
 1688SOL    HW1 5019   2.150   2.455   2.349 -0.6638 -0.4344 -0.6582
 1688SOL    HW2 5020   2.251   2.417   2.472  0.5707  1.0938 -1.1637
 1689SOL     OW 5021   2.316   0.783   1.723  0.2877  0.4339  0.1670
 1689SOL    HW1 5022   2.388   0.826   1.777  1.0329  1.0279 -1.2267
 1689SOL    HW2 5023   2.315   0.684   1.741  1.4029  0.4276  0.2777
 1690SOL     OW 5024   1.751   3.389   1.806 -0.7957 -0.8462 -0.3461
 1690SOL    HW1 5025   1.734   3.344   1.894 -2.1654  1.0796  0.4344
 1690SOL    HW2 5026   1.731   3.486   1.814  3.5122  0.3560 -1.5272
 1691SOL     OW 5027   2.100   0.685   2.573 -0.4892 -0.4747  0.3427
 1691SOL    HW1 5028   2.141   0.676   2.664 -1.0351  2.7317  1.0314
 1691SOL    HW2 5029   2.001   0.696   2.582 -0.3630  1.8971 -0.3489
 1692SOL     OW 5030   2.589   3.016   3.377  0.2752  0.2480 -0.3986
 1692SOL    HW1 5031   2.538   3.065   3.306 -2.0661  0.4115  1.2727
 1692SOL    HW2 5032   2.525   2.965   3.434  2.2875 -1.6106  0.3385
 1693SOL     OW 5033   2.297   3.116   1.498  0.0782  0.0987  0.5590
 1693SOL    HW1 5034   2.293   3.175   1.418 -0.3450 -1.2011 -0.3996
 1693SOL    HW2 5035   2.206   3.083   1.520  0.2546  0.0920  1.3293
 1694SOL     OW 5036   0.375   2.184   3.239  0.2577 -0.7409  0.3923
 1694SOL    HW1 5037   0.468   2.148   3.231  1.2238  1.6339  0.1073
 1694SOL    HW2 5038   0.365   2.263   3.178 -1.5025 -0.0819  1.4697
 1695SOL     OW 5039   0.222   1.101   1.230  0.4255  0.0349 -0.0329
 1695SOL    HW1 5040   0.287   1.089   1.155  0.8110 -0.8752  0.4284
 1695SOL    HW2 5041   0.261   1.064   1.314 -0.3305  0.2996  0.4427
 1696SOL     OW 5042   1.033   1.644   1.213  0.5418  0.0757  0.0307
 1696SOL    HW1 5043   1.068   1.550   1.219 -2.1056 -1.2284 -2.3896
 1696SOL    HW2 5044   1.005   1.662   1.119 -1.3908  2.4074  0.9758
 1697SOL     OW 5045   1.160   3.124   0.657 -0.8317  0.2631 -0.5977
 1697SOL    HW1 5046   1.213   3.054   0.609 -0.4464 -0.6026  1.0094
 1697SOL    HW2 5047   1.063   3.109   0.641 -0.7417 -0.5029 -0.4552
 1698SOL     OW 5048   2.455   0.673   0.464  0.1762 -0.4579  0.2766
 1698SOL    HW1 5049   2.411   0.587   0.491 -1.3361  0.3121  0.4240
 1698SOL    HW2 5050   2.404   0.714   0.389  1.9063 -0.5159 -0.9797
 1699SOL     OW 5051   0.903   2.674   1.563 -0.3941  0.1491  0.4414
 1699SOL    HW1 5052   0.820   2.711   1.523  0.0305  1.0231  0.3557
 1699SOL    HW2 5053   0.880   2.605   1.632 -1.1503 -0.9285 -0.8444
 1700SOL     OW 5054   3.123   2.603   1.930  0.0670 -0.3747 -0.4652
 1700SOL    HW1 5055   3.077   2.604   2.019 -1.5025 -1.1359 -1.2125
 1700SOL    HW2 5056   3.177   2.520   1.921 -0.6484 -0.8311 -0.6209
 1701SOL     OW 5057   2.077   1.561   0.240 -0.2759  0.1847 -0.1061
 1701SOL    HW1 5058   1.984   1.526   0.227  0.5401 -3.4604  2.0811
 1701SOL    HW2 5059   2.079   1.622   0.320 -0.6792 -0.5161  0.4526
 1702SOL     OW 5060   3.486   3.218   1.103 -0.0376 -0.3796 -0.0113
 1702SOL    HW1 5061   3.526   3.240   1.192  1.7163  0.6749 -1.0090
 1702SOL    HW2 5062   3.400   3.168   1.117 -0.5505  0.9789  2.2632
 1703SOL     OW 5063   0.348   3.617   2.159  0.6610 -1.0758  0.1925
 1703SOL    HW1 5064   0.274   3.552   2.170  0.4634 -1.0763 -0.9741
 1703SOL    HW2 5065   0.311   3.710   2.157  0.9113 -0.9319  1.5665
 1704SOL     OW 5066   1.749   1.263   2.185  0.3836  0.6226 -0.0476
 1704SOL    HW1 5067   1.687   1.312   2.247 -0.6461 -1.1019  0.3590
 1704SOL    HW2 5068   1.728   1.287   2.090 -2.2286 -1.2449 -0.0484
 1705SOL     OW 5069   0.731   2.594   2.196 -0.2107  0.7177 -0.3563
 1705SOL    HW1 5070   0.640   2.556   2.215  1.3071 -3.3863 -0.0872
 1705SOL    HW2 5071   0.766   2.640   2.278 -2.3939  3.4924 -0.8522
 1706SOL     OW 5072   3.050   3.065   3.092  0.2599  0.1328  0.2381
 1706SOL    HW1 5073   3.126   3.025   3.145  0.4918 -0.1524 -0.3009
 1706SOL    HW2 5074   3.085   3.141   3.037 -0.2719  1.4111  1.6160
 1707SOL     OW 5075   1.311   0.834   0.762  0.0994 -0.5192 -0.4721
 1707SOL    HW1 5076   1.280   0.888   0.840  0.9833 -0.8863  0.1487
 1707SOL    HW2 5077   1.410   0.821   0.767 -0.1042 -2.3113 -0.5111
 1708SOL     OW 5078   3.609   2.961   1.673 -0.2256 -0.5545 -0.4990
 1708SOL    HW1 5079   3.658   2.965   1.586  1.5118 -0.3631  0.4395
 1708SOL    HW2 5080   3.621   2.871   1.715  0.9771  0.0832  0.6169
 1709SOL     OW 5081   0.897   3.080   0.659  0.1775 -0.5174 -0.2819
 1709SOL    HW1 5082   0.874   3.023   0.739  1.0937 -0.2782  0.1681
 1709SOL    HW2 5083   0.851   3.044   0.578  0.1273 -1.4497  0.1433
 1710SOL     OW 5084   3.335   0.384   0.091 -0.6918  0.3782 -0.0846
 1710SOL    HW1 5085   3.415   0.440   0.111 -0.7017 -0.0731  1.3045
 1710SOL    HW2 5086   3.329   0.369  -0.008  1.0584  0.2563 -0.2045
 1711SOL     OW 5087   0.685   2.042   2.140  0.0221  0.3383 -0.0391
 1711SOL    HW1 5088   0.710   1.988   2.220  0.1594 -0.9431 -0.9211
 1711SOL    HW2 5089   0.703   2.139   2.159 -0.1436  0.0938  1.5350
 1712SOL     OW 5090   2.544   1.677   0.306  0.3940 -0.0168 -0.0042
 1712SOL    HW1 5091   2.539   1.709   0.211  1.0928 -1.5340 -0.5762
 1712SOL    HW2 5092   2.462   1.624   0.327  0.1525  0.4768  0.3082
 1713SOL     OW 5093   0.390   0.787   3.622  0.0392 -0.2096 -0.2262
 1713SOL    HW1 5094   0.291   0.787   3.610  0.1368 -0.2786 -1.0959
 1713SOL    HW2 5095   0.415   0.858   3.688 -0.7037 -1.1667  1.1345
 1714SOL     OW 5096   3.244   2.562   0.797  0.3237 -0.1450 -0.1513
 1714SOL    HW1 5097   3.333   2.519   0.809 -0.3128 -1.6424 -0.5618
 1714SOL    HW2 5098   3.175   2.492   0.782 -0.8669  1.0116 -0.2763
 1715SOL     OW 5099   2.027   1.800   1.569 -0.0109  0.3031 -0.2044
 1715SOL    HW1 5100   1.936   1.821   1.603 -0.1555  1.6687 -1.3238
 1715SOL    HW2 5101   2.075   1.742   1.635 -0.1850  2.9274  2.4618
 1716SOL     OW 5102   2.619   1.946   2.311  0.5469  0.0460  0.3312
 1716SOL    HW1 5103   2.580   1.861   2.347 -0.6075  0.0583 -0.8332
 1716SOL    HW2 5104   2.546   2.012   2.295  0.9897  0.0963 -1.8583
 1717SOL     OW 5105   0.191   2.405   2.358 -0.0521 -0.3126  0.4083
 1717SOL    HW1 5106   0.131   2.416   2.437 -0.2857 -1.4505  0.4111
 1717SOL    HW2 5107   0.267   2.344   2.383 -0.6605 -1.4817 -0.5010
   3.71158   3.71158   3.71158
