4QHU_QSPVLIYDDT_UNCAPPED in water
  103
   43ACE    CH3    1   2.398   3.547   3.237  0.3317  0.3505 -0.6691
   43ACE   HH31    2   2.371   3.463   3.302 -1.4576 -0.0594 -1.8430
   43ACE   HH32    3   2.393   3.633   3.304 -0.4500  0.3843 -0.7539
   43ACE   HH33    4   2.319   3.549   3.161 -0.2834  0.3193 -0.0473
   43ACE      C    5   2.530   3.538   3.167 -0.3776  0.7931 -0.0360
   43ACE      O    6   2.626   3.590   3.222 -0.2846  0.5854  0.0334
   44VAL      N    7   2.536   3.496   3.041  0.4354 -0.6949 -0.1446
   44VAL      H    8   2.452   3.447   3.011  0.6602 -1.4808  0.4586
   44VAL     CA    9   2.659   3.486   2.954  0.8014 -0.1022 -0.2318
   44VAL     HA   10   2.746   3.535   2.997  2.6303 -2.3201 -1.1913
   44VAL     CB   11   2.703   3.340   2.942  0.1511  0.5532 -0.4524
   44VAL     HB   12   2.616   3.279   2.916 -0.7106  1.8664 -0.7716
   44VAL    CG1   13   2.816   3.317   2.836  0.2889  0.2940  0.8741
   44VAL   HG11   14   2.900   3.381   2.863  0.4245  0.8547 -0.7568
   44VAL   HG12   15   2.845   3.212   2.837  1.1409  0.4891  3.3671
   44VAL   HG13   16   2.783   3.352   2.738  1.6171  0.6663  0.5390
   44VAL    CG2   17   2.760   3.304   3.084 -0.4481 -0.0812  1.0325
   44VAL   HG21   18   2.836   3.375   3.117 -2.0868  2.4399 -0.3041
   44VAL   HG22   19   2.680   3.304   3.158 -1.5480  4.1283  0.0869
   44VAL   HG23   20   2.790   3.199   3.088 -0.4960 -0.0825  1.4088
   44VAL      C   21   2.628   3.542   2.820 -1.4031  0.2770  0.0038
   44VAL      O   22   2.539   3.501   2.750 -0.4343 -0.3186 -0.2997
   45LEU      N   23   2.714   3.631   2.772  0.3513 -0.6542  0.0584
   45LEU      H   24   2.793   3.652   2.832  0.3421 -0.4888  0.0149
   45LEU     CA   25   2.716   3.692   2.639 -0.0567 -0.8687 -0.5881
   45LEU     HA   26   2.621   3.701   2.587  0.6938  0.5224 -1.7978
   45LEU     CB   27   2.773   3.835   2.645  0.8631  0.6851 -0.4803
   45LEU    HB1   28   2.794   3.869   2.544  4.3302 -1.1814 -0.5488
   45LEU    HB2   29   2.861   3.835   2.710 -0.2080  1.2564  1.0465
   45LEU     CG   30   2.687   3.944   2.711 -0.3178  0.5814  0.1013
   45LEU     HG   31   2.661   3.905   2.809 -0.9098  0.1391 -0.2265
   45LEU    CD1   32   2.782   4.065   2.721  0.0485  1.0222  0.1577
   45LEU   HD11   33   2.867   4.042   2.785  0.7673 -0.9665 -1.4286
   45LEU   HD12   34   2.811   4.091   2.619 -1.1551  0.0284 -0.4504
   45LEU   HD13   35   2.737   4.147   2.777 -1.2569  0.3391  0.1190
   45LEU    CD2   36   2.561   3.980   2.631  0.0186  0.1982  0.1812
   45LEU   HD21   37   2.505   4.055   2.686  1.5449  0.6753  1.1620
   45LEU   HD22   38   2.585   4.039   2.542  0.4677  1.2691  0.9831
   45LEU   HD23   39   2.501   3.893   2.605  0.4079  0.3186 -1.2292
   45LEU      C   40   2.807   3.614   2.544 -0.3314  0.8589 -0.0526
   45LEU      O   41   2.760   3.559   2.447 -0.2934 -0.4519 -0.4119
   46VAL      N   42   2.934   3.583   2.582  0.3516  0.3763 -0.2270
   46VAL      H   43   2.966   3.597   2.677  0.3445  0.0437 -0.1734
   46VAL     CA   44   3.027   3.512   2.490  0.1353  0.1260  0.2685
   46VAL     HA   45   2.975   3.487   2.398 -1.1002 -1.4511  1.3503
   46VAL     CB   46   3.143   3.604   2.451  0.3287  0.3306 -0.0506
   46VAL     HB   47   3.203   3.628   2.539 -0.3729 -0.4902  0.6795
   46VAL    CG1   48   3.247   3.535   2.356 -0.1066  0.0487 -0.4450
   46VAL   HG11   49   3.194   3.483   2.276 -0.1431  1.2578 -1.2298
   46VAL   HG12   50   3.328   3.602   2.325  1.0226  0.6321  3.2702
   46VAL   HG13   51   3.307   3.465   2.414  3.5387  0.7712 -2.9515
   46VAL    CG2   52   3.096   3.730   2.371  0.0078 -0.4586 -0.5930
   46VAL   HG21   53   3.040   3.715   2.279 -1.4408 -0.7869  0.2941
   46VAL   HG22   54   3.037   3.796   2.436 -1.7304 -0.6864 -1.8749
   46VAL   HG23   55   3.185   3.782   2.335  0.8721 -0.9032  0.8304
   46VAL      C   56   3.086   3.387   2.559 -0.0218  0.4319  0.2890
   46VAL      O   57   3.145   3.401   2.670 -0.1090  0.2898 -0.3197
   47ILE      N   58   3.078   3.272   2.491 -0.3316 -0.2236 -0.6489
   47ILE      H   59   3.022   3.264   2.408  0.0092 -1.6018 -0.7800
   47ILE     CA   60   3.135   3.147   2.545 -0.7686  0.1220 -0.4121
   47ILE     HA   61   3.169   3.163   2.647  1.9431 -2.3234 -0.8036
   47ILE     CB   62   3.023   3.040   2.579  0.5774 -0.2928  0.4024
   47ILE     HB   63   2.960   3.082   2.658  0.2077 -0.1870  0.0547
   47ILE    CG2   64   2.940   3.021   2.449 -0.7147 -0.6506 -0.8770
   47ILE   HG21   65   2.891   3.114   2.420  1.1055  0.9287  0.8159
   47ILE   HG22   66   3.008   2.986   2.372  0.6673  0.2898 -0.1292
   47ILE   HG23   67   2.858   2.951   2.466 -2.3897  1.1915 -1.0186
   47ILE    CG1   68   3.075   2.910   2.635  0.5002 -0.5932 -0.1223
   47ILE   HG11   69   3.150   2.937   2.709  1.2336 -0.8117 -0.7797
   47ILE   HG12   70   3.121   2.851   2.556  0.9065 -2.0787  1.1613
   47ILE     CD   71   2.969   2.826   2.701 -0.0511  0.7998 -0.4545
   47ILE    HD1   72   2.910   2.781   2.621  0.9988  0.0263 -0.8228
   47ILE    HD2   73   3.005   2.732   2.743 -0.7332 -0.7395 -3.1130
   47ILE    HD3   74   2.908   2.881   2.772 -1.4288 -2.9563  1.5555
   47ILE      C   75   3.249   3.084   2.463 -0.1014 -1.0376  0.2329
   47ILE      O   76   3.342   3.030   2.522 -0.4723  0.1424  0.2974
   48TYR      N   77   3.251   3.111   2.329  0.0901 -0.0046  0.4773
   48TYR      H   78   3.178   3.163   2.283  0.0847  0.0883  0.5925
   48TYR     CA   79   3.345   3.046   2.235  0.6193  0.3907  0.5900
   48TYR     HA   80   3.399   2.978   2.300  1.9624 -0.6713 -1.5409
   48TYR     CB   81   3.275   2.961   2.131 -0.0643 -0.2593 -0.1817
   48TYR    HB1   82   3.349   2.914   2.068  0.6502  1.8988 -1.0605
   48TYR    HB2   83   3.218   3.023   2.061 -0.1675  1.0989  1.0457
   48TYR     CG   84   3.180   2.851   2.179  0.3491  0.0130 -0.6755
   48TYR    CD1   85   3.233   2.754   2.263  0.2131  0.5916 -0.0416
   48TYR    HD1   86   3.341   2.746   2.269  0.3856  0.0602 -2.7780
   48TYR    CE1   87   3.149   2.655   2.315  0.2940 -0.1689  0.3958
   48TYR    HE1   88   3.188   2.578   2.380 -2.2226 -2.4737 -0.6423
   48TYR     CZ   89   3.015   2.653   2.287 -0.2264 -0.7295 -0.6091
   48TYR     OH   90   2.927   2.576   2.359 -0.1132 -0.0760 -0.0284
   48TYR     HH   91   2.972   2.529   2.430 -1.7416 -1.3247  0.2394
   48TYR    CE2   92   2.959   2.755   2.201 -0.0453  0.2639  0.4935
   48TYR    HE2   93   2.853   2.746   2.186  0.0191 -1.4789  0.8884
   48TYR    CD2   94   3.043   2.854   2.147  0.3863 -0.1306  0.0307
   48TYR    HD2   95   3.002   2.927   2.079 -0.0508 -1.1843 -0.8567
   48TYR      C   96   3.454   3.137   2.183 -0.6500  0.3563  0.2343
   48TYR      O   97   3.435   3.259   2.172 -0.4676  0.0086 -0.6450
   49NME      N   98   3.569   3.082   2.145  0.0047 -0.6011  0.5077
   49NME      H   99   3.571   2.982   2.160 -0.7009 -0.5677  0.8564
   49NME    CH3  100   3.680   3.152   2.089 -0.9861  0.3807  0.2852
   49NME   HH31  101   3.757   3.157   2.167 -0.1252 -0.7227 -0.4509
   49NME   HH32  102   3.718   3.095   2.004 -1.8017 -1.6911  1.2387
   49NME   HH33  103   3.642   3.252   2.071 -0.0787  0.6032 -0.4564
   3.71158   3.71158   3.71158
