Generic title
12227
    1ILE      N    1   1.352   1.285   3.566 -0.8492 -0.0654  0.3063
    1ILE     H1    2   1.380   1.232   3.647  2.4426  2.0156  0.7725
    1ILE     H2    3   1.392   1.244   3.483 -1.8404  0.2142 -0.3285
    1ILE     H3    4   1.252   1.288   3.578 -0.5930  1.5490  2.6681
    1ILE     CA    5   1.413   1.424   3.578 -0.0420  0.2770  0.0166
    1ILE     HA    6   1.375   1.486   3.497 -0.3749 -1.4275 -1.1903
    1ILE     CB    7   1.368   1.500   3.708  0.0986  0.0620  0.5847
    1ILE     HB    8   1.260   1.503   3.703  0.0800 -1.5030 -2.8381
    1ILE    CG2    9   1.418   1.443   3.841  0.2877  0.1761  0.1427
    1ILE   HG21   10   1.527   1.451   3.844  0.2483  2.5153 -1.6205
    1ILE   HG22   11   1.379   1.512   3.916 -0.0399  2.1734 -1.7745
    1ILE   HG23   12   1.377   1.344   3.862  0.9766 -0.6868 -2.3050
    1ILE    CG1   13   1.432   1.649   3.707  0.3822  0.0774  0.2381
    1ILE   HG12   14   1.419   1.687   3.606  2.0063 -1.3607 -0.5738
    1ILE   HG13   15   1.540   1.642   3.715  0.5808  1.4793 -0.7634
    1ILE    CD1   16   1.374   1.746   3.817  0.1255  0.6125  0.1427
    1ILE   HD11   17   1.404   1.718   3.919  0.4921  2.7015  0.6532
    1ILE   HD12   18   1.396   1.848   3.788 -0.3986  0.3077 -1.3942
    1ILE   HD13   19   1.266   1.743   3.808 -0.0817  0.8446  2.0787
    1ILE      C   20   1.566   1.402   3.567 -0.1930  0.2724  0.0193
    1ILE      O   21   1.622   1.298   3.604  0.4918  0.1788 -0.6817
    2LEU      N   22   1.634   1.503   3.516  0.3625  0.0522  0.5450
    2LEU      H   23   1.577   1.577   3.477 -0.5203 -0.7513  0.2632
    2LEU     CA   24   1.775   1.516   3.514 -0.0108 -0.6026 -0.0167
    2LEU     HA   25   1.820   1.460   3.596 -0.5688  0.4446  1.0326
    2LEU     CB   26   1.838   1.448   3.386  0.0481 -0.1536  0.5436
    2LEU    HB2   27   1.809   1.343   3.386  0.4209 -0.2709  1.8513
    2LEU    HB3   28   1.811   1.500   3.294  2.9879 -0.5259 -0.6131
    2LEU     CG   29   1.991   1.439   3.378 -0.3952 -0.1176 -0.7228
    2LEU     HG   30   2.043   1.533   3.396  0.2309 -0.7284  0.8552
    2LEU    CD1   31   2.038   1.361   3.502  0.2852  0.2324 -0.3005
    2LEU   HD11   32   1.960   1.287   3.519 -0.2642  0.8375 -0.2025
    2LEU   HD12   33   2.133   1.307   3.493  0.9384  1.2215  0.4844
    2LEU   HD13   34   2.044   1.433   3.583  3.6431 -0.8442  0.6104
    2LEU    CD2   35   2.037   1.370   3.256 -0.4309  0.1447 -0.4594
    2LEU   HD21   36   1.980   1.396   3.166  0.9708  2.9181 -0.6595
    2LEU   HD22   37   2.142   1.394   3.238  0.3058 -2.4415 -0.0244
    2LEU   HD23   38   2.027   1.264   3.278 -0.9996  0.6905  2.1955
    2LEU      C   39   1.825   1.664   3.516  0.0542 -0.1255 -0.1766
    2LEU      O   40   1.781   1.749   3.441  0.4293 -0.0604  0.1611
    3ARG      N   41   1.939   1.687   3.588 -0.2617 -0.6126  0.8856
    3ARG      H   42   1.984   1.618   3.646 -1.4674 -1.8385  0.4001
    3ARG     CA   43   2.019   1.807   3.583 -0.0992 -0.0391 -0.1380
    3ARG     HA   44   2.002   1.853   3.485  1.9714  0.2749 -0.3860
    3ARG     CB   45   1.974   1.901   3.691  0.2233 -0.4071 -0.2254
    3ARG    HB2   46   1.868   1.923   3.677 -0.5237 -1.9141  2.4579
    3ARG    HB3   47   1.991   1.848   3.784 -0.8058  1.8150  1.3165
    3ARG     CG   48   2.050   2.037   3.701  0.3645  0.0327  1.3936
    3ARG    HG2   49   2.157   2.016   3.710  0.3248 -0.7344  0.2575
    3ARG    HG3   50   2.033   2.095   3.610  1.1050 -1.4382  0.2755
    3ARG     CD   51   2.011   2.123   3.823  0.3547  0.5632  0.1170
    3ARG    HD2   52   1.904   2.142   3.828 -0.6604 -3.6532 -1.8739
    3ARG    HD3   53   2.035   2.066   3.913  1.1767  0.0453 -0.4161
    3ARG     NE   54   2.092   2.257   3.827  0.2411  0.3083  0.1210
    3ARG     HE   55   2.170   2.264   3.764  0.5003 -3.0526 -0.0778
    3ARG     CZ   56   2.063   2.357   3.902 -0.4552 -0.6900  0.7717
    3ARG    NH1   57   1.966   2.346   3.980  0.1681  0.1257 -0.0620
    3ARG   HH11   58   1.918   2.257   3.980 -0.1218  0.2013  2.5272
    3ARG   HH12   59   1.956   2.425   4.043 -1.7005 -0.0920 -0.0202
    3ARG    NH2   60   2.127   2.472   3.901 -0.3151  0.6168 -0.3644
    3ARG   HH21   61   2.200   2.482   3.832  0.0389 -2.9761 -0.7233
    3ARG   HH22   62   2.095   2.552   3.952  0.4503 -0.5861  2.1558
    3ARG      C   63   2.171   1.786   3.592  0.5988 -0.0140  0.0023
    3ARG      O   64   2.210   1.705   3.678 -0.2311 -0.1721  0.4333
    4TRP      N   65   2.252   1.851   3.508 -0.6317  0.2415 -0.7750
    4TRP      H   66   2.201   1.912   3.446  0.1862  0.6966 -1.0050
    4TRP     CA   67   2.395   1.870   3.539 -1.0431 -0.2123  0.5279
    4TRP     HA   68   2.413   1.835   3.640  1.3923 -1.8826 -0.3815
    4TRP     CB   69   2.468   1.762   3.447  0.1804  0.2832  0.0378
    4TRP    HB2   70   2.403   1.675   3.436 -0.3358  0.9573 -3.5188
    4TRP    HB3   71   2.478   1.798   3.345  1.1004 -2.2895 -0.8661
    4TRP     CG   72   2.601   1.706   3.479  0.4350  0.0896 -0.1946
    4TRP    CD1   73   2.679   1.631   3.394  0.4245 -0.4285  0.2063
    4TRP    HD1   74   2.651   1.602   3.293 -1.5129 -1.6580  1.0337
    4TRP    NE1   75   2.809   1.628   3.433  0.7661  0.4170  0.3701
    4TRP    HE1   76   2.872   1.579   3.370 -0.2677  1.6982 -1.7879
    4TRP    CE2   77   2.827   1.687   3.556  0.2179 -0.1185  0.6600
    4TRP    CZ2   78   2.940   1.722   3.636 -0.3452  0.5254 -0.1799
    4TRP    HZ2   79   3.044   1.709   3.611 -0.1094  0.3547  0.8365
    4TRP    CH2   80   2.919   1.791   3.752 -0.0260  0.5656 -0.5169
    4TRP    HH2   81   3.007   1.826   3.805  0.7914  0.4135 -1.7537
    4TRP    CZ3   82   2.789   1.819   3.796 -0.9774 -0.4551  0.7576
    4TRP    HZ3   83   2.775   1.874   3.888 -0.9138 -0.9379  1.0577
    4TRP    CE3   84   2.680   1.786   3.720  0.0364 -0.3854  0.9528
    4TRP    HE3   85   2.578   1.815   3.742  0.1244  1.5390 -0.8396
    4TRP    CD2   86   2.696   1.721   3.596  0.0719 -0.5436  0.3692
    4TRP      C   87   2.437   2.020   3.537  0.0021 -0.4348  0.1942
    4TRP      O   88   2.348   2.102   3.573 -0.6931  1.2434 -0.1281
    5PRO      N   89   2.554   2.078   3.495 -0.6962 -0.1706 -0.7598
    5PRO     CD   90   2.667   2.024   3.415 -0.4800 -0.3076 -0.2168
    5PRO    HD2   91   2.655   2.035   3.307 -0.6493 -3.0195 -0.5557
    5PRO    HD3   92   2.687   1.918   3.429 -1.0889 -0.3266  0.5254
    5PRO     CG   93   2.790   2.096   3.471  0.3919 -0.5700 -0.3312
    5PRO    HG2   94   2.843   2.141   3.387 -0.0925  0.8124  0.0616
    5PRO    HG3   95   2.855   2.031   3.528 -1.6613 -1.4723  1.0768
    5PRO     CB   96   2.745   2.217   3.557 -0.1841  0.3241  0.1691
    5PRO    HB2   97   2.798   2.305   3.521 -1.1820  0.4826 -0.9656
    5PRO    HB3   98   2.758   2.184   3.660  0.4359 -1.2586 -0.3775
    5PRO     CA   99   2.597   2.219   3.523  0.3335 -0.4634  0.1895
    5PRO     HA  100   2.550   2.260   3.612  3.4542  1.1706  1.2198
    5PRO      C  101   2.559   2.311   3.404 -0.3116 -0.2984 -0.0117
    5PRO      O  102   2.522   2.265   3.299  0.1325 -0.0506  0.2888
    6TRP      N  103   2.579   2.442   3.424 -0.0552  0.0432 -0.0875
    6TRP      H  104   2.607   2.480   3.514 -0.5085  0.2960 -0.0524
    6TRP     CA  105   2.583   2.540   3.316 -0.2152  0.2767 -0.3608
    6TRP     HA  106   2.637   2.486   3.238  0.5847 -1.6861  1.4834
    6TRP     CB  107   2.438   2.571   3.277  0.5316  0.0084  0.1623
    6TRP    HB2  108   2.371   2.485   3.277 -0.4915  0.7397 -1.8343
    6TRP    HB3  109   2.395   2.635   3.355  1.4203 -0.4067  1.0126
    6TRP     CG  110   2.410   2.635   3.142  0.0202 -0.2880  0.5668
    6TRP    CD1  111   2.297   2.709   3.123 -1.1578  0.2061 -0.5456
    6TRP    HD1  112   2.238   2.744   3.207  2.8441  0.6522  2.3758
    6TRP    NE1  113   2.298   2.762   2.997  0.0495 -0.2015 -0.8843
    6TRP    HE1  114   2.239   2.836   2.961  0.3432 -0.5479 -2.0877
    6TRP    CE2  115   2.416   2.732   2.929 -0.1694  0.6107  0.3579
    6TRP    CZ2  116   2.467   2.774   2.802 -0.2271 -0.2747  0.0574
    6TRP    HZ2  117   2.420   2.855   2.748 -0.9293 -0.4127  0.4509
    6TRP    CH2  118   2.592   2.717   2.767  0.4685  0.1885  0.0605
    6TRP    HH2  119   2.630   2.739   2.668 -2.7028  1.2915 -1.0370
    6TRP    CZ3  120   2.660   2.624   2.848 -0.3468 -0.7359  0.1205
    6TRP    HZ3  121   2.741   2.564   2.809 -1.5488 -2.7801  0.6211
    6TRP    CE3  122   2.595   2.569   2.956  0.4106 -0.4841 -0.3672
    6TRP    HE3  123   2.639   2.496   3.022 -1.7193  1.2213  3.2443
    6TRP    CD2  124   2.485   2.637   3.010 -0.2266  0.0699 -0.0422
    6TRP      C  125   2.670   2.666   3.334 -0.1243 -0.0392 -0.0547
    6TRP      O  126   2.703   2.707   3.441 -0.4699  0.6947 -0.2651
    7TRP      N  127   2.720   2.733   3.223  0.1258  0.6124 -0.7998
    7TRP      H  128   2.678   2.708   3.134  1.1923  0.0924 -1.1788
    7TRP     CA  129   2.779   2.864   3.225  0.0238 -0.7915 -0.3171
    7TRP     HA  130   2.722   2.923   3.296 -2.4518  0.0372 -2.8002
    7TRP     CB  131   2.927   2.847   3.263 -0.5340  0.5943 -0.4197
    7TRP    HB2  132   2.922   2.788   3.355 -3.9488  1.7673  0.3071
    7TRP    HB3  133   2.969   2.780   3.188 -2.6398  0.5289 -1.6122
    7TRP     CG  134   3.010   2.968   3.301 -0.2412 -0.1558  0.0619
    7TRP    CD1  135   3.141   2.965   3.290 -0.9701  0.5452  0.0883
    7TRP    HD1  136   3.195   2.878   3.255 -2.4274 -0.6634  0.7037
    7TRP    NE1  137   3.183   3.100   3.289  0.1700  0.9682  0.4531
    7TRP    HE1  138   3.275   3.130   3.260  0.4509 -0.4354 -0.1805
    7TRP    CE2  139   3.080   3.187   3.309 -0.2675  0.2981  0.1675
    7TRP    CZ2  140   3.079   3.327   3.306 -0.2796 -0.4761  0.6225
    7TRP    HZ2  141   3.174   3.378   3.299  0.2088 -1.1429  2.0833
    7TRP    CH2  142   2.953   3.388   3.325 -0.4818  0.4184  0.4529
    7TRP    HH2  143   2.945   3.495   3.319  0.8933  0.4454 -1.9072
    7TRP    CZ3  144   2.838   3.311   3.340 -0.1400  0.1676 -1.3280
    7TRP    HZ3  145   2.745   3.360   3.364  0.2440  0.4926 -0.4565
    7TRP    CE3  146   2.843   3.171   3.345  0.2641  0.0618 -0.0376
    7TRP    HE3  147   2.755   3.113   3.368 -0.3258  1.5011  1.5690
    7TRP    CD2  148   2.968   3.105   3.327  0.9452 -0.1238  0.2188
    7TRP      C  149   2.741   2.939   3.084  0.8416  0.2645  0.1565
    7TRP      O  150   2.616   2.942   3.057  0.3824 -0.5544 -0.2763
    8PRO      N  151   2.819   2.995   2.991 -0.1668 -1.1806  0.0185
    8PRO     CD  152   2.960   3.052   2.991  0.0209 -0.2116  0.2187
    8PRO    HD2  153   3.021   3.011   2.910 -1.2284  0.2663 -1.0115
    8PRO    HD3  154   3.011   3.037   3.086  0.5132  1.1173  0.1728
    8PRO     CG  155   2.946   3.207   2.967 -0.0931  0.4203  0.1039
    8PRO    HG2  156   3.026   3.251   2.907  0.5204  1.1750  1.4256
    8PRO    HG3  157   2.941   3.262   3.061 -1.8901 -0.5378  0.6114
    8PRO     CB  158   2.815   3.215   2.892 -0.2480 -0.1931  0.0045
    8PRO    HB2  159   2.832   3.260   2.794 -0.9097 -2.3843 -1.1752
    8PRO    HB3  160   2.740   3.275   2.944 -1.0782 -2.0949  1.1367
    8PRO     CA  161   2.768   3.068   2.876  0.4827 -0.1058  0.4473
    8PRO     HA  162   2.659   3.068   2.872  0.3807  1.6979  1.8449
    8PRO      C  163   2.812   3.008   2.739  0.5227  0.3832  0.2574
    8PRO      O  164   2.904   2.925   2.730 -0.3204  0.1225 -0.4506
    9TRP      N  165   2.757   3.063   2.630 -0.5630 -0.7060  0.6724
    9TRP      H  166   2.680   3.128   2.635 -0.8885 -1.1073  0.9489
    9TRP     CA  167   2.805   3.029   2.491 -0.0951  0.1379 -0.5320
    9TRP     HA  168   2.914   3.030   2.489 -0.1148  0.6909 -1.5540
    9TRP     CB  169   2.745   2.894   2.455  0.3496  0.2359  0.0068
    9TRP    HB2  170   2.758   2.826   2.539 -0.2223  1.6603  1.3147
    9TRP    HB3  171   2.636   2.901   2.457  0.3894  0.9007  0.4067
    9TRP     CG  172   2.793   2.840   2.328  0.2868  0.0732  0.1292
    9TRP    CD1  173   2.708   2.770   2.248  0.2696  0.2408 -0.1306
    9TRP    HD1  174   2.607   2.745   2.276  0.8141 -1.1875  0.6908
    9TRP    NE1  175   2.771   2.736   2.132  0.0151  0.1602 -0.3071
    9TRP    HE1  176   2.729   2.674   2.065  1.2119 -1.2279  0.1788
    9TRP    CE2  177   2.905   2.782   2.133  0.6757  0.1615  0.6531
    9TRP    CZ2  178   3.001   2.775   2.033  0.1992 -0.1151 -0.2031
    9TRP    HZ2  179   2.981   2.738   1.934  2.5522  2.2091 -1.6525
    9TRP    CH2  180   3.123   2.825   2.066 -0.4774  0.1277 -0.0325
    9TRP    HH2  181   3.204   2.833   1.995  0.2718 -0.2215  0.7611
    9TRP    CZ3  182   3.154   2.881   2.196  0.6927 -0.0648  0.3456
    9TRP    HZ3  183   3.250   2.928   2.213 -0.4133  1.8306  1.6906
    9TRP    CE3  184   3.048   2.892   2.294  0.0210 -0.0554 -0.6664
    9TRP    HE3  185   3.064   2.922   2.397 -2.9125  1.2655 -0.5008
    9TRP    CD2  186   2.920   2.853   2.257 -0.5249  0.0117 -0.4014
    9TRP      C  187   2.755   3.134   2.397  0.0769 -0.0476  0.7417
    9TRP      O  188   2.648   3.192   2.416 -0.2757 -0.1871  0.2888
   10ARG      N  189   2.839   3.161   2.295 -0.4703 -0.2014 -0.0780
   10ARG      H  190   2.929   3.116   2.300 -0.5092 -0.1997  0.9318
   10ARG     CA  191   2.812   3.252   2.185 -0.6770 -0.2811 -0.1711
   10ARG     HA  192   2.706   3.277   2.184 -0.5172  0.4452  0.1944
   10ARG     CB  193   2.904   3.371   2.212 -0.8585 -0.5084  0.3793
   10ARG    HB2  194   2.875   3.418   2.306 -2.4832 -2.4706  0.9223
   10ARG    HB3  195   3.008   3.341   2.220 -0.4956 -0.9629 -3.6909
   10ARG     CG  196   2.895   3.464   2.097  0.6628  0.0766 -0.1228
   10ARG    HG2  197   2.944   3.415   2.013 -1.7106 -2.5407 -0.1145
   10ARG    HG3  198   2.789   3.480   2.079  0.5720  0.2750  0.5478
   10ARG     CD  199   2.967   3.599   2.122  0.5935  0.2519  0.1165
   10ARG    HD2  200   2.939   3.652   2.213  0.2112  4.5349 -2.2240
   10ARG    HD3  201   3.073   3.574   2.127  0.0511 -2.1998  1.0730
   10ARG     NE  202   2.952   3.693   2.012 -0.3198 -0.0890  0.3737
   10ARG     HE  203   2.883   3.667   1.942  1.8026  0.3920 -2.0459
   10ARG     CZ  204   3.013   3.815   2.000  0.0475 -0.0806  0.5390
   10ARG    NH1  205   3.096   3.864   2.085 -0.0672  0.1223 -0.8845
   10ARG   HH11  206   3.134   3.806   2.158 -0.9427  2.6326  1.7781
   10ARG   HH12  207   3.151   3.943   2.053  0.3056  0.0433 -0.4455
   10ARG    NH2  208   2.980   3.889   1.897 -0.2383  0.2705 -0.0399
   10ARG   HH21  209   2.912   3.851   1.832  0.4376  0.0672 -0.6339
   10ARG   HH22  210   3.033   3.971   1.871 -0.6132  0.5519  0.0733
   10ARG      C  211   2.842   3.174   2.060 -0.2064  0.3164  0.5908
   10ARG      O  212   2.941   3.097   2.056 -0.1776 -0.1558 -0.0705
   11ARG      N  213   2.767   3.205   1.955 -0.0074  0.4116  0.0751
   11ARG      H  214   2.700   3.280   1.957 -0.4870 -0.0168  0.1418
   11ARG     CA  215   2.815   3.150   1.822  0.0759 -0.1537 -0.0626
   11ARG     HA  216   2.916   3.108   1.828 -0.9891 -2.7829  1.4949
   11ARG     CB  217   2.734   3.025   1.784 -0.1344  0.4050  0.3287
   11ARG    HB2  218   2.736   2.955   1.867  0.2101  1.9160  1.6312
   11ARG    HB3  219   2.631   3.059   1.774 -0.6621 -1.0747  0.4118
   11ARG     CG  220   2.790   2.960   1.658  0.2469  0.4460  0.7529
   11ARG    HG2  221   2.762   3.021   1.573  0.6590  1.0059  1.0147
   11ARG    HG3  222   2.898   2.944   1.653  0.1505  0.1227 -2.1659
   11ARG     CD  223   2.729   2.820   1.633 -0.4486 -0.2703 -0.5393
   11ARG    HD2  224   2.775   2.747   1.700  2.5610 -0.5665 -2.7193
   11ARG    HD3  225   2.621   2.815   1.648 -0.5032 -0.5268 -0.9867
   11ARG     NE  226   2.769   2.773   1.500  0.1022  0.5329 -0.0368
   11ARG     HE  227   2.838   2.834   1.460 -1.1908  0.9937 -1.6705
   11ARG     CZ  228   2.717   2.678   1.424  0.5648 -0.1462  0.1224
   11ARG    NH1  229   2.634   2.597   1.475 -0.0068 -0.0881  0.2862
   11ARG   HH11  230   2.586   2.613   1.563 -2.4256  0.2509 -1.0020
   11ARG   HH12  231   2.604   2.516   1.422  0.9697  0.2508 -0.8000
   11ARG    NH2  232   2.766   2.669   1.308  0.2279  0.5026 -0.9238
   11ARG   HH21  233   2.817   2.749   1.275  0.0755  1.4347  1.0274
   11ARG   HH22  234   2.728   2.598   1.246 -0.4014  0.1969 -0.2114
   11ARG      C  235   2.812   3.252   1.709 -0.4757  0.3536 -0.2266
   11ARG      O  236   2.739   3.347   1.718  0.3588 -0.7226 -0.1578
   12LYS      N  237   2.895   3.235   1.607  0.0604 -0.2124  0.9465
   12LYS      H  238   2.974   3.172   1.617  1.7304  1.0590 -2.5880
   12LYS     CA  239   2.891   3.318   1.483  0.0545 -0.2608  0.0149
   12LYS     HA  240   2.789   3.353   1.463  0.0456  0.4266  1.1819
   12LYS     CB  241   2.981   3.443   1.499 -0.5333  0.0170 -0.3166
   12LYS    HB2  242   2.962   3.483   1.598  0.9959 -4.9130  2.2940
   12LYS    HB3  243   3.080   3.399   1.503 -0.8066 -1.0739 -3.1266
   12LYS     CG  244   2.985   3.554   1.388 -0.1408  0.3097  0.0860
   12LYS    HG2  245   3.053   3.517   1.311 -0.1897 -2.5252  1.2852
   12LYS    HG3  246   2.882   3.563   1.353 -0.0197  1.0418 -0.0989
   12LYS     CD  247   3.040   3.691   1.429 -0.6520  0.3236 -0.0366
   12LYS    HD2  248   2.989   3.730   1.518  0.4534  2.1044 -0.1439
   12LYS    HD3  249   3.145   3.672   1.451 -0.6424 -1.7952 -1.6069
   12LYS     CE  250   3.029   3.783   1.306  0.0281  0.2444 -1.1375
   12LYS    HE2  251   3.080   3.728   1.227  3.4121  0.5362  0.6852
   12LYS    HE3  252   2.924   3.805   1.284 -0.1213  0.0131 -0.6801
   12LYS     NZ  253   3.100   3.905   1.329 -0.0765 -0.8414 -0.4010
   12LYS    HZ1  254   3.195   3.889   1.360  0.9278  4.3077  0.1262
   12LYS    HZ2  255   3.112   3.959   1.245 -1.6439 -1.1700 -0.8652
   12LYS    HZ3  256   3.054   3.964   1.396 -1.0676 -3.3236  1.2430
   12LYS      C  257   2.935   3.237   1.363  1.0747 -0.4886  0.5050
   12LYS      O  258   3.012   3.148   1.381  0.4424  0.3347  0.1855
   13NHE      N  259   2.890   3.266   1.240 -0.0594 -0.4237  0.3255
   13NHE    HN1  260   2.834   3.347   1.219  0.2744 -0.3559 -0.3277
   13NHE    HN2  261   2.932   3.218   1.163 -0.1769  2.3625 -1.6282
   14Cl-    Cl-  262   1.895   3.661   2.844  0.1772 -0.3749 -0.0452
   15Cl-    Cl-  263   3.843   0.776   1.697 -0.0128 -0.0145  0.5093
   16Cl-    Cl-  264   3.159   0.489   2.762  0.1030 -0.0282  0.1205
   17Cl-    Cl-  265   1.697   4.911   4.198  0.1046  0.0573  0.0501
   18Cl-    Cl-  266   2.453   1.635   5.186  0.0669  0.1284  0.2651
   19WAT      O  267   3.100   4.765   2.862  0.3174  0.3572 -0.0508
   19WAT     H1  268   3.143   4.817   2.929 -0.6960 -0.4815  1.3017
   19WAT     H2  269   3.022   4.815   2.838 -2.2446 -1.5819  3.2907
   20WAT      O  270   2.255   1.662   4.072  0.4337  0.0379  0.5584
   20WAT     H1  271   2.213   1.581   4.043 -0.6797  1.0691 -0.8437
   20WAT     H2  272   2.293   1.640   4.157 -1.0458 -1.5669  0.8560
   21WAT      O  273   2.991   4.443   2.872 -0.1413  0.1462 -0.4739
   21WAT     H1  274   3.007   4.503   2.945  1.5678 -1.3866  0.4899
   21WAT     H2  275   2.920   4.387   2.903  1.3313 -1.2416  0.5820
   22WAT      O  276   1.376   3.051   2.154  0.4804  0.6652  0.1842
   22WAT     H1  277   1.457   3.000   2.165 -0.3234 -0.6076  0.4491
   22WAT     H2  278   1.374   3.072   2.061 -0.9057 -2.9783 -0.7952
   23WAT      O  279   0.250   4.556   3.192 -0.3034 -0.0810  0.3296
   23WAT     H1  280   0.165   4.573   3.234  0.6562 -0.0007  2.3463
   23WAT     H2  281   0.282   4.642   3.166 -0.4475 -0.0268  0.3293
   24WAT      O  282   3.807   2.841   2.494 -0.1357  0.0433 -0.2904
   24WAT     H1  283   3.735   2.834   2.558 -0.4838 -0.8009 -0.7556
   24WAT     H2  284   3.806   2.933   2.467 -0.6173  0.1882  0.1967
   25WAT      O  285   1.867   1.265   2.929  0.4369  0.4871  0.3297
   25WAT     H1  286   1.811   1.312   2.866  1.7739  3.5304  1.2053
   25WAT     H2  287   1.955   1.295   2.908  1.0821  0.2765  2.5815
   26WAT      O  288   3.882   3.952   1.987  0.0501  0.2001 -0.0205
   26WAT     H1  289   3.972   3.930   2.008 -0.1138  0.6429  1.2547
   26WAT     H2  290   3.870   4.040   2.023 -0.8919  0.1505 -0.1791
   27WAT      O  291   1.609   4.004   0.629  0.2502 -0.2109  0.7077
   27WAT     H1  292   1.590   4.086   0.584  0.2829 -0.1298  0.8404
   27WAT     H2  293   1.524   3.962   0.638  0.2662 -0.3081  0.4170
   28WAT      O  294   0.324   0.131   2.123  0.0362  0.1482  0.0538
   28WAT     H1  295   0.403   0.150   2.173 -0.7109  3.8936  0.1545
   28WAT     H2  296   0.253   0.134   2.187 -0.4134 -1.2839 -0.3289
   29WAT      O  297   2.822   3.641   4.297  0.1078  0.4424 -0.3143
   29WAT     H1  298   2.734   3.626   4.263 -0.0519  0.1267  0.2254
   29WAT     H2  299   2.851   3.722   4.254  0.7391 -0.9946 -2.7794
   30WAT      O  300   0.215   0.983   0.211 -0.1999  0.0010  0.1301
   30WAT     H1  301   0.256   1.062   0.246  0.0016  0.0930 -0.3103
   30WAT     H2  302   0.271   0.911   0.241 -0.2747  0.0376  0.3652
   31WAT      O  303   3.233   1.854   0.049  0.7041 -0.2389 -0.0222
   31WAT     H1  304   3.230   1.824   0.140 -0.9949  0.6342  0.2426
   31WAT     H2  305   3.298   1.924   0.049 -1.3320  1.7729  1.2138
   32WAT      O  306   0.245   2.411   1.412 -0.4936  0.1172  0.1602
   32WAT     H1  307   0.214   2.364   1.335 -1.1273 -0.1397  0.5604
   32WAT     H2  308   0.168   2.460   1.443 -1.8021 -3.4084  3.3644
   33WAT      O  309   2.823   4.937   2.210  0.0790  0.2026  0.2238
   33WAT     H1  310   2.781   5.015   2.246 -2.6101 -0.7925 -0.5661
   33WAT     H2  311   2.808   4.869   2.276 -0.7558 -0.4841 -0.6509
   34WAT      O  312   4.510   0.821   1.533 -0.1205  0.1767 -0.3321
   34WAT     H1  313   4.418   0.844   1.545  0.3774  1.7536  0.8072
   34WAT     H2  314   4.542   0.806   1.621  1.1537  1.5545 -0.5199
   35WAT      O  315   4.510   1.140   4.018 -0.1485  0.0495 -0.2750
   35WAT     H1  316   4.445   1.073   3.995 -0.2292 -0.7896  2.1480
   35WAT     H2  317   4.458   1.221   4.027 -0.5894 -0.2471 -0.0900
   36WAT      O  318   0.965   3.550   0.578  0.6230 -0.0639 -0.4943
   36WAT     H1  319   1.011   3.466   0.566  0.2473 -0.0675 -2.0800
   36WAT     H2  320   0.912   3.537   0.656 -0.4404 -1.7891 -1.4415
   37WAT      O  321   4.535   0.855   1.818 -0.0139  0.0664  0.2451
   37WAT     H1  322   4.531   0.950   1.827  0.0120  0.1475 -0.4913
   37WAT     H2  323   4.446   0.826   1.841 -0.8527  0.5389 -2.0944
   38WAT      O  324   0.720   3.690   4.834  0.5647 -0.0836  0.1651
   38WAT     H1  325   0.657   3.667   4.765  2.1020  0.3509 -1.4442
   38WAT     H2  326   0.689   3.774   4.867 -0.6093 -0.6459  0.5477
   39WAT      O  327   1.629   1.260   4.534 -0.0220 -0.7001 -0.1574
   39WAT     H1  328   1.593   1.216   4.458  1.1249 -0.9538 -0.5725
   39WAT     H2  329   1.684   1.194   4.577  0.0877 -0.2852  0.3606
   40WAT      O  330   0.318   4.394   5.147  0.3560  0.2378  0.0876
   40WAT     H1  331   0.314   4.424   5.056 -0.1382 -1.5555 -0.5259
   40WAT     H2  332   0.335   4.300   5.140 -3.4199 -0.7267  1.7116
   41WAT      O  333   2.872   4.141   3.642  0.9185 -0.0729  0.2949
   41WAT     H1  334   2.898   4.148   3.551 -3.8288  2.4151 -1.2522
   41WAT     H2  335   2.817   4.063   3.646 -1.1502  1.2637  0.0989
   42WAT      O  336   3.537   0.038   3.806  0.0075  0.4156  0.2860
   42WAT     H1  337   3.508   0.081   3.886 -1.6492 -0.3430  0.1394
   42WAT     H2  338   3.561  -0.050   3.833 -1.5329 -0.1755 -0.1620
   43WAT      O  339   4.271   0.819   1.900  0.1885 -0.4621  0.2257
   43WAT     H1  340   4.202   0.885   1.894  0.4478 -0.1982 -5.3461
   43WAT     H2  341   4.225   0.735   1.891  0.2716 -0.8111  2.4502
   44WAT      O  342   1.064   1.677   0.792 -0.4430  0.2594 -0.1521
   44WAT     H1  343   1.136   1.628   0.831  0.6252  3.2222  1.9728
   44WAT     H2  344   0.995   1.676   0.858 -0.4750  1.3553 -0.1368
   45WAT      O  345   3.620   0.500   4.274  0.1080  0.3883 -0.1631
   45WAT     H1  346   3.590   0.589   4.256  0.0831  0.0461 -1.9655
   45WAT     H2  347   3.591   0.449   4.199 -0.3828 -1.2880  1.1072
   46WAT      O  348   3.527   2.314   4.703 -0.2218  0.0659 -0.2558
   46WAT     H1  349   3.569   2.289   4.785  0.0439 -0.4045 -0.5276
   46WAT     H2  350   3.558   2.403   4.687 -1.1638  0.5952  0.7152
   47WAT      O  351   2.016   3.254   2.421 -0.1863 -0.4961  0.5249
   47WAT     H1  352   2.004   3.338   2.467  0.0911  1.4148 -2.5758
   47WAT     H2  353   2.108   3.232   2.435 -0.5227 -0.9492  2.2872
   48WAT      O  354   4.149   0.782   2.800 -0.5289  0.0602 -0.3114
   48WAT     H1  355   4.195   0.708   2.761  1.2715  0.9831 -0.0416
   48WAT     H2  356   4.057   0.765   2.780  0.1169 -0.1944 -3.8755
   49WAT      O  357   4.049   1.511   1.664 -0.1797 -0.3716 -0.3386
   49WAT     H1  358   4.135   1.475   1.686  0.7452  0.1295 -2.8261
   49WAT     H2  359   4.056   1.604   1.687  0.1441 -0.2294 -0.9793
   50WAT      O  360   3.847   2.066   1.258  0.2257 -0.0457  0.1152
   50WAT     H1  361   3.910   1.995   1.252  0.6663  0.3394  0.0757
   50WAT     H2  362   3.769   2.033   1.213  0.3748 -0.5478  0.2179
   51WAT      O  363   2.980   4.081   1.529 -0.4574  0.1989  0.3264
   51WAT     H1  364   2.946   4.170   1.539  0.4768  0.3807  2.2844
   51WAT     H2  365   2.940   4.032   1.602  1.4240 -0.2003  1.1410
   52WAT      O  366   0.012   3.658   4.310 -0.4499 -0.0406  0.0038
   52WAT     H1  367   0.038   3.567   4.323 -2.1967 -0.7392 -1.0719
   52WAT     H2  368   0.075   3.709   4.362  0.2947 -1.8703  0.9662
   53WAT      O  369   1.368   3.143   1.900  0.7930  0.5043 -0.0374
   53WAT     H1  370   1.354   3.229   1.940 -2.0972 -0.3316  1.0075
   53WAT     H2  371   1.391   3.163   1.809 -0.1330  2.4118  0.0786
   54WAT      O  372   0.201   1.461   2.063  0.3526  0.0462  0.6890
   54WAT     H1  373   0.245   1.538   2.025 -0.8915  0.6074  0.3451
   54WAT     H2  374   0.233   1.458   2.153  2.0182 -0.2913  0.1357
   55WAT      O  375   3.701   4.315   3.317 -0.1568  0.0235 -0.1440
   55WAT     H1  376   3.753   4.303   3.238 -1.2098 -0.8718 -0.7259
   55WAT     H2  377   3.716   4.235   3.368 -2.0626 -0.9522 -1.0021
   56WAT      O  378   2.047   2.377   5.011 -0.2320 -0.0273 -0.0698
   56WAT     H1  379   2.089   2.402   5.093  0.9861  0.0946 -0.7193
   56WAT     H2  380   1.981   2.446   4.997  0.4683  0.6943  0.1261
   57WAT      O  381   4.226   3.738   1.768  0.2229  0.4212  0.0194
   57WAT     H1  382   4.167   3.701   1.703  0.9233 -1.0265  0.1620
   57WAT     H2  383   4.242   3.667   1.830  1.1618  1.1423  0.6461
   58WAT      O  384   3.426   4.108   3.320 -0.1176  0.3427  0.0389
   58WAT     H1  385   3.517   4.080   3.334  0.0364  0.7993 -0.0229
   58WAT     H2  386   3.408   4.168   3.392 -0.2845  0.4515 -0.0933
   59WAT      O  387   3.917   5.063   5.086 -0.7310  0.0470  0.2345
   59WAT     H1  388   3.975   4.986   5.085  0.5336  0.9615 -0.5011
   59WAT     H2  389   3.829   5.027   5.082 -0.1858 -1.3821  0.4438
   60WAT      O  390   1.191   2.033   3.452 -0.1564 -0.2722  0.5865
   60WAT     H1  391   1.140   2.051   3.532 -0.5449 -1.4494  0.6170
   60WAT     H2  392   1.259   2.101   3.452 -0.1639 -0.2368  1.9051
   61WAT      O  393   3.569   3.738   4.046  0.3001 -0.2335  0.4172
   61WAT     H1  394   3.576   3.831   4.068  0.2219  0.2651 -1.5300
   61WAT     H2  395   3.656   3.703   4.066  1.0209  0.7469 -0.8713
   62WAT      O  396   2.563   1.333   2.911  0.0454 -0.2313  0.1122
   62WAT     H1  397   2.544   1.239   2.914 -1.2287  0.0399  1.4335
   62WAT     H2  398   2.644   1.343   2.961  0.0864 -0.5999  0.1195
   63WAT      O  399   0.660   3.439   2.482  0.3060 -0.7598 -0.0332
   63WAT     H1  400   0.610   3.488   2.417  0.1412 -0.1215  0.5642
   63WAT     H2  401   0.669   3.352   2.444  1.5511 -0.0068 -1.6279
   64WAT      O  402   3.878   2.583   3.327  0.3501  0.2398  0.4510
   64WAT     H1  403   3.868   2.678   3.336  0.4511  0.2816  0.1052
   64WAT     H2  404   3.870   2.567   3.233 -2.4856 -0.3962  0.7112
   65WAT      O  405   0.832   3.238   1.907 -0.2090 -0.0045 -0.6492
   65WAT     H1  406   0.752   3.185   1.907  0.0196 -0.3474 -0.3545
   65WAT     H2  407   0.888   3.198   1.842  0.0322 -0.2301 -0.3053
   66WAT      O  408   1.844   3.628   4.348  0.1926 -0.4443 -0.1651
   66WAT     H1  409   1.870   3.615   4.257  1.0567 -0.7276  0.1188
   66WAT     H2  410   1.925   3.621   4.398 -0.4145 -1.3308  0.7398
   67WAT      O  411   2.600   1.244   0.239 -0.8585  1.0556 -0.0881
   67WAT     H1  412   2.595   1.296   0.158 -1.3020 -2.1303 -2.2928
   67WAT     H2  413   2.509   1.219   0.256 -0.7229  1.4241  1.2540
   68WAT      O  414   2.563   3.243   3.577 -0.0661  0.6389 -0.1693
   68WAT     H1  415   2.608   3.212   3.499  1.2677 -0.1198  0.8552
   68WAT     H2  416   2.474   3.262   3.548  0.2844 -0.0399 -1.7619
   69WAT      O  417   0.897   1.591   1.014 -0.3204 -0.4866 -0.5812
   69WAT     H1  418   0.956   1.545   1.074 -1.0365 -1.4985 -0.6252
   69WAT     H2  419   0.846   1.522   0.972  0.9202  0.0839 -3.2339
   70WAT      O  420   2.952   4.416   4.392  0.3528 -0.0596 -0.1660
   70WAT     H1  421   2.901   4.339   4.418 -0.9322  0.8024 -0.0174
   70WAT     H2  422   2.959   4.408   4.297  0.7676 -0.6731 -0.0912
   71WAT      O  423   2.952   4.711   1.739 -0.0337  0.0168  0.3656
   71WAT     H1  424   2.949   4.619   1.714  0.0733  0.2760 -0.6546
   71WAT     H2  425   2.902   4.716   1.820 -0.1960 -0.9058  0.3285
   72WAT      O  426   0.304   2.415   4.409 -0.3185 -0.4389 -0.2049
   72WAT     H1  427   0.343   2.357   4.343 -2.5903 -2.0526 -0.2590
   72WAT     H2  428   0.337   2.382   4.492  0.4556 -0.1083 -0.3730
   73WAT      O  429   2.680   1.157   0.701 -0.5604 -0.2211 -0.0632
   73WAT     H1  430   2.772   1.152   0.673 -0.6077  1.3984 -0.5850
   73WAT     H2  431   2.676   1.236   0.755 -1.7438 -0.0430 -0.3928
   74WAT      O  432   2.431   3.457   2.836 -0.1588  0.4177  0.6206
   74WAT     H1  433   2.359   3.435   2.895  0.6786 -1.5530  0.9841
   74WAT     H2  434   2.470   3.536   2.874  0.5341 -0.9401  2.9594
   75WAT      O  435   3.239   4.310   4.060 -0.2079  0.4641  0.7369
   75WAT     H1  436   3.217   4.230   4.012  0.6276  1.2910 -1.1071
   75WAT     H2  437   3.158   4.361   4.059  0.1459  1.0447 -1.0134
   76WAT      O  438   1.972   1.678   4.888  0.2990 -0.3523  0.0891
   76WAT     H1  439   2.058   1.639   4.874  0.3378 -0.5175  0.7256
   76WAT     H2  440   1.990   1.768   4.915  0.5091 -1.2636  3.5851
   77WAT      O  441   4.042   1.611   2.031 -0.5009 -0.2645  0.3702
   77WAT     H1  442   4.118   1.665   2.010 -0.1213 -0.3938  1.3151
   77WAT     H2  443   4.078   1.522   2.035 -1.0095 -0.5204 -0.6503
   78WAT      O  444   0.246   0.754   2.301 -0.6273  0.5868 -0.4895
   78WAT     H1  445   0.306   0.683   2.324 -0.6411 -0.0299 -2.2106
   78WAT     H2  446   0.187   0.761   2.376  0.6712  0.2180  0.6058
   79WAT      O  447   2.635   3.629   0.545  0.3582 -0.3551  0.3294
   79WAT     H1  448   2.633   3.567   0.472 -2.3674  0.2516 -0.2263
   79WAT     H2  449   2.575   3.699   0.519  1.7050  1.4598  1.8509
   80WAT      O  450   4.139   1.729   3.139 -0.0070 -0.3289 -0.0694
   80WAT     H1  451   4.135   1.638   3.169 -0.8689  0.0349  1.0025
   80WAT     H2  452   4.146   1.780   3.220 -0.6344  0.6044 -0.5915
   81WAT      O  453   4.240   0.183   2.875 -0.4053  0.1025 -0.6310
   81WAT     H1  454   4.150   0.214   2.857 -1.1116 -0.5752  1.4816
   81WAT     H2  455   4.260   0.125   2.802 -2.1914 -0.7102 -0.5248
   82WAT      O  456   0.581   0.539   0.186 -0.1853 -0.1100 -0.4565
   82WAT     H1  457   0.582   0.480   0.111 -0.1519  0.0853 -0.6106
   82WAT     H2  458   0.513   0.504   0.243 -0.3357 -0.1575 -0.6610
   83WAT      O  459   0.495   0.586   3.933 -0.3995 -0.1142  0.3527
   83WAT     H1  460   0.468   0.538   4.011 -0.3799 -0.0879  0.3758
   83WAT     H2  461   0.559   0.529   3.890 -2.2822 -1.3230 -1.0190
   84WAT      O  462   1.724   0.300   4.468  0.2110  0.5526 -0.1181
   84WAT     H1  463   1.726   0.219   4.519 -1.5386 -0.0319 -0.8873
   84WAT     H2  464   1.760   0.366   4.526  1.1658 -0.6649  0.7348
   85WAT      O  465   4.003   1.714   4.642 -0.4703  0.0928  0.3161
   85WAT     H1  466   3.960   1.758   4.715  0.3296  2.3396 -0.5005
   85WAT     H2  467   3.930   1.673   4.593 -1.1049 -0.5477  1.7430
   86WAT      O  468   4.117   1.414   4.320 -0.2880  0.0243  0.4461
   86WAT     H1  469   4.189   1.412   4.258 -0.1601 -0.1799  0.6022
   86WAT     H2  470   4.158   1.435   4.404 -0.1540 -1.8426  0.8889
   87WAT      O  471   1.000   3.136   1.728  0.5345 -0.1766 -0.6045
   87WAT     H1  472   1.066   3.204   1.720  0.3593  0.1382  0.5285
   87WAT     H2  473   0.982   3.109   1.637  0.3054  1.5508 -1.0945
   88WAT      O  474   3.412   2.606   1.061  0.0768  0.1780 -0.5096
   88WAT     H1  475   3.451   2.675   1.007 -0.7750 -0.4774 -2.0340
   88WAT     H2  476   3.318   2.616   1.047 -0.1619 -0.0685  0.8146
   89WAT      O  477   1.024   5.077   2.268  0.4856  0.3384  0.2387
   89WAT     H1  478   0.959   5.113   2.208 -0.3083  0.7941  1.3473
   89WAT     H2  479   0.987   4.992   2.294 -1.5023  2.0413  3.5795
   90WAT      O  480   1.741   3.644   3.915 -0.1282  0.4960 -0.2545
   90WAT     H1  481   1.753   3.658   3.821  1.1151 -0.8340 -0.3268
   90WAT     H2  482   1.652   3.608   3.922 -1.0082  2.4632 -0.6694
   91WAT      O  483   2.787   4.297   0.568  0.0591  0.5592  0.2817
   91WAT     H1  484   2.857   4.248   0.524 -0.1975  0.5063 -0.0764
   91WAT     H2  485   2.737   4.336   0.496 -0.6763  0.0480  0.5046
   92WAT      O  486   3.549   0.116   1.217  0.6012 -0.2409 -0.2067
   92WAT     H1  487   3.593   0.044   1.262  1.6031 -0.8273 -1.9940
   92WAT     H2  488   3.613   0.188   1.220 -0.8044  1.0222  2.4973
   93WAT      O  489   4.523   2.857   3.129 -0.5547 -0.7381 -0.1541
   93WAT     H1  490   4.574   2.920   3.180 -0.9000 -1.5677  1.2659
   93WAT     H2  491   4.435   2.895   3.124 -0.5554 -0.7196 -0.0086
   94WAT      O  492   0.733   1.784   4.239  0.2264  0.0055 -0.1046
   94WAT     H1  493   0.638   1.784   4.225  0.0828  0.0785  0.7923
   94WAT     H2  494   0.765   1.715   4.182 -0.0228  1.7643 -2.4970
   95WAT      O  495   4.216   0.518   0.168 -0.0480 -0.5583  0.3850
   95WAT     H1  496   4.209   0.561   0.083  1.3526  0.9988  0.9906
   95WAT     H2  497   4.130   0.530   0.208 -0.3059 -0.1011 -0.2845
   96WAT      O  498   1.180   2.333   4.070  0.2624  0.1532 -0.0655
   96WAT     H1  499   1.143   2.283   3.997 -0.6760 -0.9679  1.1209
   96WAT     H2  500   1.105   2.353   4.125  1.1051 -0.1293  1.2296
   97WAT      O  501   0.579   3.433   4.900  0.0703 -0.6387 -0.1260
   97WAT     H1  502   0.558   3.526   4.912 -2.0630 -1.0394 -0.3237
   97WAT     H2  503   0.507   3.399   4.846  2.4356 -1.7701 -2.7877
   98WAT      O  504   4.171   3.594   1.015 -0.6174  0.0660 -0.1717
   98WAT     H1  505   4.209   3.533   1.078 -1.0011 -1.4885 -1.3675
   98WAT     H2  506   4.209   3.568   0.931  0.4837  2.5792 -0.5443
   99WAT      O  507   4.181   1.896   2.921  0.3942 -0.7872 -0.0058
   99WAT     H1  508   4.158   1.837   2.993  2.3412 -1.2962  0.2518
   99WAT     H2  509   4.159   1.847   2.842  1.5888 -1.7141  0.2141
  100WAT      O  510   2.764   0.732   1.512  0.2301 -0.0312 -0.1080
  100WAT     H1  511   2.847   0.777   1.499  1.1225 -1.6585 -0.1784
  100WAT     H2  512   2.728   0.722   1.424  0.2174  0.1540 -0.1257
  101WAT      O  513   0.493   0.899   1.597 -0.7384 -0.5489 -0.0737
  101WAT     H1  514   0.530   0.843   1.665 -0.4958  0.1677  0.3901
  101WAT     H2  515   0.434   0.841   1.548 -2.3235 -0.6744  1.8336
  102WAT      O  516   1.835   3.153   4.520  0.0797 -0.1200 -0.0661
  102WAT     H1  517   1.890   3.123   4.593  0.7829 -1.2320 -1.0148
  102WAT     H2  518   1.874   3.111   4.443 -1.7716 -0.4981 -0.8414
  103WAT      O  519   3.812   3.133   4.901  0.2463 -0.3776  0.6144
  103WAT     H1  520   3.738   3.106   4.846  0.6919  0.4585 -0.4356
  103WAT     H2  521   3.860   3.195   4.846  0.8948  0.2290  1.8440
  104WAT      O  522   2.314   4.472   0.316  0.3343 -0.0904  0.1385
  104WAT     H1  523   2.250   4.543   0.322 -1.3544 -1.4811 -0.5075
  104WAT     H2  524   2.311   4.430   0.402  0.0765 -0.4077 -0.0256
  105WAT      O  525   1.114   3.781   0.524  0.2602  0.9813  0.4302
  105WAT     H1  526   1.085   3.822   0.443 -0.3871  1.3040  0.8109
  105WAT     H2  527   1.048   3.714   0.541  2.2505 -1.5303 -1.1308
  106WAT      O  528   2.899   0.938   4.291 -0.1830 -0.0267  0.2242
  106WAT     H1  529   2.906   1.027   4.256  0.0510 -0.1992 -0.1747
  106WAT     H2  530   2.866   0.887   4.217  0.1950 -0.3739  0.2971
  107WAT      O  531   3.222   4.292   2.761  0.5406  0.2624  0.0014
  107WAT     H1  532   3.224   4.324   2.671  0.3567  0.0901 -0.0632
  107WAT     H2  533   3.146   4.334   2.800  1.0911  0.9851  0.3188
  108WAT      O  534   3.587   1.827   1.292 -0.0074  0.0682 -0.1344
  108WAT     H1  535   3.528   1.761   1.256 -0.7916 -0.3408  1.8304
  108WAT     H2  536   3.535   1.874   1.357  1.8627 -0.4926  1.8669
  109WAT      O  537   1.504   3.556   0.288  0.5168  0.2976 -0.7154
  109WAT     H1  538   1.416   3.523   0.306  0.7932 -0.8396 -1.3440
  109WAT     H2  539   1.491   3.626   0.224  0.2000 -1.4531 -2.6877
  110WAT      O  540   0.295   0.592   4.901 -0.0148 -0.2003  0.1187
  110WAT     H1  541   0.341   0.647   4.965 -1.4906  1.4951 -0.1962
  110WAT     H2  542   0.272   0.652   4.830  1.3070 -1.9661 -1.9405
  111WAT      O  543   2.003   3.813   1.433 -0.5255 -0.1223  0.3773
  111WAT     H1  544   1.952   3.854   1.363  0.3429 -0.6953 -0.6237
  111WAT     H2  545   2.016   3.882   1.497 -3.6202 -0.2546  1.3238
  112WAT      O  546   2.247   4.899   0.552  0.2424 -0.4331  0.0920
  112WAT     H1  547   2.218   4.965   0.614 -0.5767 -0.3367 -0.3899
  112WAT     H2  548   2.254   4.819   0.605  1.1939  0.0049  0.6657
  113WAT      O  549   0.381   4.240   4.654 -0.1685  0.1764 -0.3956
  113WAT     H1  550   0.435   4.306   4.699 -0.5132 -0.3163  0.7953
  113WAT     H2  551   0.336   4.194   4.725 -0.5728 -0.7944 -1.2516
  114WAT      O  552   2.281   4.149   1.153 -0.0098  0.0300 -0.0343
  114WAT     H1  553   2.205   4.197   1.185 -0.5445 -0.9099  0.1323
  114WAT     H2  554   2.245   4.079   1.098  0.5643 -1.7971  1.7806
  115WAT      O  555   3.420   4.316   1.203  0.1055 -0.9088  0.3264
  115WAT     H1  556   3.450   4.299   1.114 -1.5597 -0.6411 -0.3233
  115WAT     H2  557   3.327   4.338   1.193  0.1794  0.3642  1.9971
  116WAT      O  558   0.531   3.262   0.562 -0.5426  0.5436  0.4803
  116WAT     H1  559   0.513   3.351   0.532 -2.3104  0.1453  0.2905
  116WAT     H2  560   0.447   3.228   0.590 -0.0725 -1.3771 -0.2441
  117WAT      O  561   0.345   2.554   0.810  0.3396 -0.2883 -0.1888
  117WAT     H1  562   0.303   2.471   0.788 -0.5775  0.2750 -0.6633
  117WAT     H2  563   0.291   2.591   0.879  0.8661 -0.1835  0.1689
  118WAT      O  564   3.730   4.189   1.439 -0.4934 -0.0513 -0.0928
  118WAT     H1  565   3.695   4.153   1.358  0.7632 -0.6674 -0.3899
  118WAT     H2  566   3.653   4.217   1.488 -1.2427  1.4749 -1.9916
  119WAT      O  567   0.040   0.755   0.543  0.1633 -0.5345  0.1033
  119WAT     H1  568   0.006   0.814   0.610 -0.7881 -0.5665 -0.3344
  119WAT     H2  569  -0.035   0.700   0.518  0.1593  0.2615 -1.8306
  120WAT      O  570   1.039   4.550   4.778  0.0458 -0.1591  1.0997
  120WAT     H1  571   1.041   4.644   4.763  2.7007 -0.3365 -0.3524
  120WAT     H2  572   1.106   4.536   4.846  0.1814 -1.0557  0.7882
  121WAT      O  573   4.511   0.839   3.650 -0.1394  0.4547 -0.3756
  121WAT     H1  574   4.556   0.774   3.595  0.0071  0.9462 -0.8420
  121WAT     H2  575   4.426   0.798   3.668  1.1221 -1.3325  2.1078
  122WAT      O  576   2.677   4.577   4.554  0.1781 -0.3396  0.0267
  122WAT     H1  577   2.607   4.636   4.528  2.0110  1.1508 -1.8407
  122WAT     H2  578   2.742   4.632   4.598  1.5397 -1.0485 -0.9852
  123WAT      O  579   0.636   2.763   1.752  0.0510  0.3305 -0.0027
  123WAT     H1  580   0.621   2.848   1.711  0.1360  1.6741  2.5113
  123WAT     H2  581   0.731   2.757   1.760  0.0060  0.6782  1.0222
  124WAT      O  582   0.699   0.953   3.923 -0.5566 -0.4580 -0.1582
  124WAT     H1  583   0.625   0.937   3.866 -1.2402  2.7945 -0.3486
  124WAT     H2  584   0.665   1.011   3.991  1.8217  1.4993 -0.4897
  125WAT      O  585   2.058   0.950   0.317  0.1506  0.0905 -0.2926
  125WAT     H1  586   1.974   0.992   0.337  0.2933  0.6922 -0.9206
  125WAT     H2  587   2.053   0.865   0.361 -1.6997 -0.8431 -2.1057
  126WAT      O  588   1.594   1.039   4.373  0.1620 -0.1519 -0.1948
  126WAT     H1  589   1.617   0.978   4.303  0.9197  0.3563 -0.4011
  126WAT     H2  590   1.665   1.032   4.436 -0.5715 -0.6837  0.5882
  127WAT      O  591   1.930   3.352   4.104  0.2627  0.2934 -0.1746
  127WAT     H1  592   1.940   3.447   4.115  0.6750  0.5714 -2.4716
  127WAT     H2  593   1.859   3.342   4.041  1.5235 -0.8233 -1.4731
  128WAT      O  594   3.541   3.568   2.229 -0.1988 -0.2823 -0.6197
  128WAT     H1  595   3.514   3.509   2.299  0.4114  0.7580  0.5361
  128WAT     H2  596   3.579   3.644   2.275 -1.3971  1.2305 -2.0214
  129WAT      O  597   3.493   4.556   2.474  0.7498 -0.0004 -0.5850
  129WAT     H1  598   3.402   4.574   2.495  0.6143 -0.5114 -0.7319
  129WAT     H2  599   3.539   4.567   2.558  0.6371  0.7714 -0.6187
  130WAT      O  600   3.615   2.160   4.939 -0.0483  0.1409  0.2575
  130WAT     H1  601   3.579   2.073   4.921  0.7006  0.0088 -0.6594
  130WAT     H2  602   3.693   2.167   4.884  0.7842  0.8090  1.4472
  131WAT      O  603   3.304   1.678   5.106  0.5367  0.5279  0.1014
  131WAT     H1  604   3.289   1.744   5.173 -0.0579  1.0638 -0.5512
  131WAT     H2  605   3.217   1.652   5.077  0.7525  1.9377 -2.0237
  132WAT      O  606   2.701   1.043   2.768 -0.7189 -0.1522  0.0524
  132WAT     H1  607   2.774   0.982   2.761  0.3281  1.1733 -1.0170
  132WAT     H2  608   2.692   1.060   2.862  1.1177  0.5621  0.1243
  133WAT      O  609   1.680   4.418   3.396  0.1481 -0.1619 -0.3642
  133WAT     H1  610   1.727   4.459   3.469 -0.4015  1.6901 -0.9840
  133WAT     H2  611   1.599   4.386   3.435  0.5882 -0.6958  0.1352
  134WAT      O  612   1.531   1.787   2.582 -0.2896  0.5153 -0.8112
  134WAT     H1  613   1.591   1.721   2.546  0.1653 -0.1703  1.0852
  134WAT     H2  614   1.588   1.860   2.606 -0.3833  0.3675 -0.1397
  135WAT      O  615   2.259   3.950   2.195  0.1345 -0.3391  0.3670
  135WAT     H1  616   2.204   3.950   2.274 -1.1212 -1.4028 -0.4622
  135WAT     H2  617   2.281   3.858   2.182  4.1781  0.2107  1.9752
  136WAT      O  618   4.390   1.177   5.160  0.0891  0.2707  0.1159
  136WAT     H1  619   4.464   1.181   5.220  0.9173  0.5181 -0.9006
  136WAT     H2  620   4.426   1.204   5.075 -0.4320 -2.5158 -1.0915
  137WAT      O  621   0.769   3.325   0.178  0.7171 -0.6622  0.5592
  137WAT     H1  622   0.790   3.301   0.088 -0.8683 -1.4791  0.3829
  137WAT     H2  623   0.688   3.279   0.198  1.0558 -0.5501  2.4420
  138WAT      O  624   3.279   0.260   3.483 -0.0948 -0.7422 -0.3130
  138WAT     H1  625   3.339   0.188   3.507 -0.5263 -1.2659 -0.7844
  138WAT     H2  626   3.309   0.334   3.535  1.2499 -0.8710 -0.8698
  139WAT      O  627   2.409   3.528   1.417  0.3754  0.0565 -0.1915
  139WAT     H1  628   2.344   3.462   1.396 -0.9666  1.0324  0.7192
  139WAT     H2  629   2.363   3.611   1.407  1.5023  0.7902  0.4439
  140WAT      O  630   2.758   1.653   2.266  0.1184 -0.3852 -0.4885
  140WAT     H1  631   2.846   1.671   2.298  0.4186  0.1652 -1.5866
  140WAT     H2  632   2.770   1.593   2.192 -0.3514  0.3953 -1.2105
  141WAT      O  633   2.588   2.129   4.386  0.2507  0.6153 -0.2448
  141WAT     H1  634   2.639   2.152   4.464  0.4998  0.9200 -0.4939
  141WAT     H2  635   2.558   2.040   4.403  0.7762  0.4680 -0.0404
  142WAT      O  636   0.780   0.212   1.296  0.7653  0.7828 -0.0123
  142WAT     H1  637   0.760   0.156   1.220 -0.4279  1.0911  0.0614
  142WAT     H2  638   0.700   0.261   1.311  2.0536  3.2584 -0.6747
  143WAT      O  639   1.014   4.528   2.510 -0.2341  0.0078  0.7473
  143WAT     H1  640   1.107   4.503   2.509 -0.7544 -2.0871  1.1754
  143WAT     H2  641   0.988   4.528   2.418  0.0225 -0.0563  0.6741
  144WAT      O  642   2.508   1.143   1.579  0.0674 -1.0737  0.1209
  144WAT     H1  643   2.429   1.117   1.531 -0.0638  0.0940 -0.3203
  144WAT     H2  644   2.543   1.061   1.613 -1.5583 -1.5859  0.6623
  145WAT      O  645   4.488   3.552   3.491  0.1690 -0.4217  0.2904
  145WAT     H1  646   4.537   3.624   3.453 -1.6374  1.1872  0.8361
  145WAT     H2  647   4.463   3.582   3.578  1.3770 -2.6930  1.5217
  146WAT      O  648   0.358   0.068   4.424 -0.4060  0.0057  0.8306
  146WAT     H1  649   0.401   0.150   4.398 -1.1725 -0.4209 -2.2442
  146WAT     H2  650   0.269   0.094   4.447 -0.1018  0.2450  1.7581
  147WAT      O  651   0.960   3.194   3.344  0.0463 -0.0904 -0.1064
  147WAT     H1  652   1.030   3.154   3.293  0.7189 -1.3760  1.7071
  147WAT     H2  653   1.005   3.255   3.403 -0.2535 -1.2477  1.3761
  148WAT      O  654   2.802   1.677   4.680  0.4751  0.2732  0.2262
  148WAT     H1  655   2.843   1.762   4.697  0.1128  0.5316 -0.2034
  148WAT     H2  656   2.779   1.645   4.768  1.4473  0.1947  0.4626
  149WAT      O  657   3.718   5.062   1.322 -0.0680 -0.0230 -0.0753
  149WAT     H1  658   3.803   5.089   1.286  0.8349 -1.0669  1.1988
  149WAT     H2  659   3.739   4.990   1.381 -2.0295 -1.3717 -0.9296
  150WAT      O  660   0.613   4.888   4.186  0.2916 -0.0762 -0.2083
  150WAT     H1  661   0.625   4.793   4.180 -0.6660 -0.2107 -0.2089
  150WAT     H2  662   0.557   4.910   4.112  2.1070  0.8120 -1.3755
  151WAT      O  663   4.164   2.953   2.884  0.1537  0.4125  0.3533
  151WAT     H1  664   4.238   2.990   2.934  0.5897 -0.2423  0.2136
  151WAT     H2  665   4.142   2.872   2.931 -1.2331  1.1653  1.0536
  152WAT      O  666   3.793   1.669   0.576 -0.2456  0.0716  0.2172
  152WAT     H1  667   3.779   1.594   0.517  0.5611  0.8938 -1.0758
  152WAT     H2  668   3.774   1.745   0.521  1.6546  0.9195  0.6747
  153WAT      O  669   0.626   3.755   3.632 -0.4297  0.5360 -0.6442
  153WAT     H1  670   0.602   3.783   3.544  1.0255  2.7412 -0.4083
  153WAT     H2  671   0.722   3.747   3.630 -0.4776 -0.7732  0.3859
  154WAT      O  672   3.777   4.989   2.673  0.0587 -0.0119 -0.0876
  154WAT     H1  673   3.735   5.062   2.629 -0.2921 -0.1157  0.0751
  154WAT     H2  674   3.729   4.979   2.755  0.3744 -0.1550  0.0804
  155WAT      O  675   1.357   4.591   4.096  0.2225 -0.0223 -0.3715
  155WAT     H1  676   1.337   4.620   4.007 -0.2966 -1.9037 -0.9123
  155WAT     H2  677   1.407   4.510   4.085 -0.3466 -0.6036  1.0312
  156WAT      O  678   1.804   0.614   1.627 -0.0091 -0.4962 -0.1401
  156WAT     H1  679   1.826   0.704   1.651  1.1561 -0.6103 -0.6742
  156WAT     H2  680   1.715   0.601   1.658 -0.0692  0.7347  0.2370
  157WAT      O  681   2.595   4.004   1.053 -0.0641  0.1460  0.6274
  157WAT     H1  682   2.683   4.028   1.082  0.0994 -0.9464  1.0750
  157WAT     H2  683   2.554   3.965   1.130 -0.8249  0.3106  0.3217
  158WAT      O  684   3.974   4.615   2.465 -0.0905  0.4922  0.2772
  158WAT     H1  685   4.011   4.529   2.487  1.8494  1.2531  0.1647
  158WAT     H2  686   3.934   4.644   2.547  0.8939  0.2666  0.8614
  159WAT      O  687   3.809   2.987   1.344 -0.5779  0.7282  0.2024
  159WAT     H1  688   3.774   3.068   1.380 -0.3826  0.6361  0.6056
  159WAT     H2  689   3.889   2.970   1.395  0.2119  1.0743 -0.8713
  160WAT      O  690   1.509   3.646   2.055 -0.2915  0.0800 -0.9076
  160WAT     H1  691   1.555   3.636   1.972  1.4292  1.2217 -0.1532
  160WAT     H2  692   1.533   3.569   2.106 -1.5881 -0.7729 -1.5316
  161WAT      O  693   1.787   2.320   4.288  0.3589 -0.1520 -0.4711
  161WAT     H1  694   1.716   2.274   4.244 -0.8409 -0.0620  1.2831
  161WAT     H2  695   1.850   2.250   4.310  0.9225 -0.2090 -2.1435
  162WAT      O  696   1.100   1.884   4.734 -0.1134  0.0417 -0.2032
  162WAT     H1  697   1.092   1.789   4.727  1.1440 -0.0827 -0.3106
  162WAT     H2  698   1.106   1.901   4.828 -1.2204  0.1181 -0.1337
  163WAT      O  699   0.207   1.722   2.526  0.2382 -0.3116 -0.1972
  163WAT     H1  700   0.230   1.762   2.610 -0.6700 -0.6067  0.2087
  163WAT     H2  701   0.113   1.707   2.532  0.0826  0.0300 -1.4364
  164WAT      O  702   1.576   2.275   1.291  0.0483 -0.4678  0.6456
  164WAT     H1  703   1.536   2.234   1.214 -2.0098 -1.8349  2.3508
  164WAT     H2  704   1.543   2.365   1.289 -0.1615 -0.5533  0.0486
  165WAT      O  705   1.741   1.061   0.872 -0.1207 -0.1698  0.7229
  165WAT     H1  706   1.751   1.068   0.777  0.2382  0.0099  0.7688
  165WAT     H2  707   1.654   1.025   0.885 -0.9112  1.4910  0.3666
  166WAT      O  708   0.075   1.853   5.014  0.6190  0.2997  0.1564
  166WAT     H1  709   0.082   1.828   5.106  0.3925  0.9181  0.3471
  166WAT     H2  710  -0.018   1.873   5.002  0.7906  1.0258  0.0106
  167WAT      O  711   4.065   1.317   3.728  0.3546 -0.0609 -0.0196
  167WAT     H1  712   4.097   1.385   3.787 -0.8672 -0.8223  1.5801
  167WAT     H2  713   4.092   1.235   3.769 -1.3762 -0.6354  0.0479
  168WAT      O  714   2.983   0.658   3.913 -0.0719 -0.0401 -0.3254
  168WAT     H1  715   2.955   0.731   3.858 -1.4625 -0.4576 -0.1943
  168WAT     H2  716   2.907   0.637   3.967  0.5187 -1.1439  0.1213
  169WAT      O  717   2.911   0.831   0.910 -0.1106  0.2343 -0.0446
  169WAT     H1  718   2.919   0.761   0.975 -1.3960  0.8503  0.8104
  169WAT     H2  719   2.824   0.819   0.872  0.4216  0.2000 -1.3265
  170WAT      O  720   3.415   2.904   1.580  0.2323  0.6229 -0.0258
  170WAT     H1  721   3.474   2.948   1.641 -0.4101  1.3181  0.1044
  170WAT     H2  722   3.467   2.831   1.546  0.5361  0.0979  1.4905
  171WAT      O  723   4.323   4.534   1.036 -0.7491 -0.2619  0.0092
  171WAT     H1  724   4.413   4.562   1.051 -1.0696  0.5596  0.4839
  171WAT     H2  725   4.329   4.440   1.023  0.4080  0.0363 -1.9395
  172WAT      O  726   4.270   3.004   4.535 -0.0802  0.0370  0.2694
  172WAT     H1  727   4.324   2.968   4.464 -1.1920 -1.4030  0.1235
  172WAT     H2  728   4.332   3.017   4.607  0.7094 -0.3015 -0.3305
  173WAT      O  729   2.313   0.297   5.067 -0.2981  0.0459  0.5607
  173WAT     H1  730   2.334   0.254   5.149 -1.6667  1.6578  1.8418
  173WAT     H2  731   2.393   0.292   5.015  0.8649 -0.2984  2.3237
  174WAT      O  732   0.133   1.166   4.910  0.1869 -0.5715  0.7777
  174WAT     H1  733   0.203   1.221   4.946  1.4659 -0.7214 -1.3344
  174WAT     H2  734   0.067   1.228   4.879  0.9752 -0.2456 -0.3041
  175WAT      O  735   0.837   2.883   1.441 -0.1408  0.3287  0.1345
  175WAT     H1  736   0.799   2.799   1.413 -0.2106  1.1740 -2.6260
  175WAT     H2  737   0.761   2.941   1.453 -0.0650  0.1633  1.6190
  176WAT      O  738   2.884   2.914   4.991  0.6133 -0.7029  0.1707
  176WAT     H1  739   2.912   2.990   4.941 -1.9024  0.6199  0.6057
  176WAT     H2  740   2.843   2.857   4.925  2.2732 -1.6206 -0.1137
  177WAT      O  741  -0.031   3.900   2.122  0.4803  0.3585 -0.1678
  177WAT     H1  742   0.059   3.912   2.154  0.8519  1.3215 -1.5020
  177WAT     H2  743  -0.020   3.861   2.035 -0.4802 -1.2998  0.3984
  178WAT      O  744   1.021   1.368   5.140 -0.0737  0.8096  0.0915
  178WAT     H1  745   1.065   1.401   5.218  0.3999  0.6226 -0.0917
  178WAT     H2  746   1.092   1.345   5.080 -0.4351  1.2818 -0.5337
  179WAT      O  747   0.865   3.447   4.688 -0.1482  0.0832  0.4076
  179WAT     H1  748   0.824   3.504   4.752 -1.3438 -1.3353  0.9739
  179WAT     H2  749   0.905   3.377   4.741  0.2391 -0.2430 -0.3067
  180WAT      O  750   0.242   2.580   2.161  0.0494  0.2294 -0.4840
  180WAT     H1  751   0.279   2.501   2.122 -0.0254 -0.6300  1.0788
  180WAT     H2  752   0.151   2.581   2.133  0.6953  1.2887 -2.7412
  181WAT      O  753   2.183   2.225   0.383  0.0462  0.1179 -0.2632
  181WAT     H1  754   2.267   2.179   0.376  0.0330 -0.2141  1.2921
  181WAT     H2  755   2.141   2.212   0.298  0.9528 -0.9352 -0.5746
  182WAT      O  756   0.046   4.883   1.150 -0.0688 -0.3843 -1.0572
  182WAT     H1  757   0.126   4.933   1.141 -0.4674  0.1072 -2.0413
  182WAT     H2  758   0.027   4.883   1.244 -1.3529  3.4354 -1.1582
  183WAT      O  759   3.773   3.469   2.104  0.4616 -0.4615 -0.4033
  183WAT     H1  760   3.679   3.486   2.114  0.4788 -0.6607  0.1108
  183WAT     H2  761   3.779   3.374   2.091  0.6745 -0.6085  0.6919
  184WAT      O  762   0.204   1.596   2.954  0.6047  0.3898 -0.3480
  184WAT     H1  763   0.189   1.670   3.012 -1.3448 -0.1298 -0.1090
  184WAT     H2  764   0.208   1.635   2.866 -0.4018  0.8022 -0.2269
  185WAT      O  765   1.354   4.026   4.650  0.0073  0.0581 -0.3778
  185WAT     H1  766   1.412   3.952   4.633 -0.4215 -0.9910  2.3276
  185WAT     H2  767   1.274   4.005   4.602  0.7841  0.0879 -1.7361
  186WAT      O  768   2.663   3.995   0.757 -0.7814  0.1654  0.1468
  186WAT     H1  769   2.615   4.077   0.746 -0.1569  0.8086  1.9224
  186WAT     H2  770   2.650   3.972   0.849 -1.8948 -2.3652 -0.5593
  187WAT      O  771   4.338   4.153   4.640 -0.6309 -0.1607 -0.2281
  187WAT     H1  772   4.431   4.159   4.621 -0.8071  2.5973 -0.7030
  187WAT     H2  773   4.327   4.204   4.721 -1.9003  0.9454 -1.0609
  188WAT      O  774   3.921   2.229   1.571  0.1264 -0.7259 -0.3419
  188WAT     H1  775   3.926   2.244   1.665  0.9221 -2.2609 -0.0987
  188WAT     H2  776   3.829   2.243   1.549 -0.3060 -1.4890  0.8993
  189WAT      O  777   3.567   1.159   1.020 -0.7436 -0.0098 -0.0745
  189WAT     H1  778   3.515   1.191   0.946 -1.3306  1.5804  0.9799
  189WAT     H2  779   3.507   1.158   1.094 -0.3595 -2.3105  0.2712
  190WAT      O  780   1.053   1.019   4.534  0.2759  0.1042 -0.3135
  190WAT     H1  781   1.042   0.966   4.455  2.2184 -0.2046 -0.4349
  190WAT     H2  782   1.094   0.959   4.597  0.2663  0.7940  0.3658
  191WAT      O  783   3.596   3.032   1.767  0.0181 -0.6275  0.2824
  191WAT     H1  784   3.595   3.116   1.721 -0.1775 -1.1496 -0.7133
  191WAT     H2  785   3.556   3.050   1.852 -3.2784 -0.3807 -1.1686
  192WAT      O  786   4.276   2.322   2.436  0.1029 -0.4840  0.5069
  192WAT     H1  787   4.223   2.302   2.512  0.7636 -0.6430  0.9351
  192WAT     H2  788   4.243   2.263   2.367 -1.1631  0.3697  0.3654
  193WAT      O  789   0.522   4.182   1.892 -0.2787  0.3193 -0.0044
  193WAT     H1  790   0.521   4.094   1.929  1.8684  0.5242  0.7109
  193WAT     H2  791   0.613   4.212   1.904 -0.7736  2.3556 -0.8600
  194WAT      O  792   0.707   3.760   4.485 -0.1561 -0.0309  0.0817
  194WAT     H1  793   0.692   3.713   4.402  0.0111  0.5214 -0.2650
  194WAT     H2  794   0.792   3.729   4.514  0.5789  1.0572 -0.8429
  195WAT      O  795   0.108   0.100   3.222  0.2076  0.2882 -0.7356
  195WAT     H1  796   0.066   0.135   3.143  0.9364 -1.6216 -2.0436
  195WAT     H2  797   0.201   0.119   3.210  0.1931  1.0697  0.2779
  196WAT      O  798   1.638   1.003   3.359 -0.8244 -0.7365  0.1005
  196WAT     H1  799   1.636   0.909   3.341 -3.4496 -0.6112 -0.6100
  196WAT     H2  800   1.729   1.020   3.383 -0.0379 -3.2648 -0.7256
  197WAT      O  801   3.150   2.746   1.634  0.5660 -0.1798 -0.1742
  197WAT     H1  802   3.224   2.806   1.630 -0.4077  1.1457  0.5789
  197WAT     H2  803   3.101   2.764   1.554  0.0141  0.4177  0.2840
  198WAT      O  804   4.322   3.087   1.451  0.1653 -0.1083 -0.5951
  198WAT     H1  805   4.260   3.060   1.518  0.6063 -2.0206 -0.9146
  198WAT     H2  806   4.290   3.172   1.421 -1.3516 -0.3108  0.3835
  199WAT      O  807   1.561   0.797   2.686 -0.3041  0.1987 -0.4590
  199WAT     H1  808   1.539   0.877   2.734 -1.5835 -0.2007 -0.3463
  199WAT     H2  809   1.633   0.823   2.629 -0.6051  1.3972 -0.3246
  200WAT      O  810   3.814   2.992   2.891  0.1029  0.1244  0.3405
  200WAT     H1  811   3.871   2.963   2.962  0.7988 -1.1895 -0.7180
  200WAT     H2  812   3.873   3.030   2.827 -0.6234  2.3625  0.8996
  201WAT      O  813   3.176   2.729   3.539  0.1824  0.0772  0.1225
  201WAT     H1  814   3.235   2.701   3.469  1.5875  0.8460  0.9419
  201WAT     H2  815   3.201   2.820   3.556 -1.1060  0.3537  0.6602
  202WAT      O  816   2.652   1.543   2.517  0.0818  0.4536 -0.1572
  202WAT     H1  817   2.652   1.575   2.427 -1.1916  1.5310  0.2002
  202WAT     H2  818   2.742   1.513   2.531  0.0512 -0.7127 -2.0947
  203WAT      O  819   0.468   0.831   0.795 -0.1901 -0.3583  0.6614
  203WAT     H1  820   0.456   0.915   0.751 -0.4236 -0.6240  0.2098
  203WAT     H2  821   0.548   0.795   0.757 -0.4697 -0.6533  0.3420
  204WAT      O  822   3.909   3.560   2.363  0.4647 -0.3216 -0.0850
  204WAT     H1  823   3.982   3.501   2.378  0.2440 -0.6819 -0.4209
  204WAT     H2  824   3.904   3.568   2.267 -2.3558 -3.3879 -0.3604
  205WAT      O  825   0.934   3.370   2.900  0.6702 -0.6095  0.0287
  205WAT     H1  826   1.024   3.371   2.931  0.5757 -0.3940  0.3033
  205WAT     H2  827   0.941   3.355   2.805  1.1818  2.6058 -0.5693
  206WAT      O  828   1.028   2.840   3.142  0.0124 -0.0258 -0.0784
  206WAT     H1  829   1.103   2.899   3.142  0.3736 -0.4519  1.2893
  206WAT     H2  830   0.976   2.866   3.218  1.1401 -2.5889  1.7236
  207WAT      O  831   3.899   0.572   4.923  0.2843  0.1495  0.2517
  207WAT     H1  832   3.877   0.574   5.016 -1.5784  0.8360 -0.1468
  207WAT     H2  833   3.908   0.664   4.898 -0.2984  0.0317 -0.4452
  208WAT      O  834   2.447   4.166   0.875 -0.1191 -0.1403  0.0617
  208WAT     H1  835   2.489   4.252   0.869  0.4450 -0.5094 -1.8684
  208WAT     H2  836   2.468   4.135   0.963  2.0766  0.5001 -0.1843
  209WAT      O  837   2.034   0.485   1.417  0.2358  0.1138 -0.4561
  209WAT     H1  838   1.967   0.444   1.471  0.4388 -0.3077 -0.5208
  209WAT     H2  839   2.020   0.579   1.428  1.2540  0.0821  1.5857
  210WAT      O  840   4.313   2.947   3.445  0.1838 -0.1350  0.5495
  210WAT     H1  841   4.258   2.949   3.523 -1.3760  0.1164 -0.4937
  210WAT     H2  842   4.355   2.861   3.448  1.2638  0.3987  2.3404
  211WAT      O  843   4.393   0.545   0.373 -0.0606  0.7489 -0.1914
  211WAT     H1  844   4.345   0.535   0.291  1.0492  0.0004 -0.7780
  211WAT     H2  845   4.342   0.609   0.423 -0.7252  1.2764 -1.4914
  212WAT      O  846   0.014   1.696   3.456  0.0646 -0.0919  0.0849
  212WAT     H1  847   0.032   1.624   3.517 -0.8344 -0.6696 -0.3104
  212WAT     H2  848   0.081   1.687   3.388 -0.3853 -0.9234 -0.2644
  213WAT      O  849   3.803   4.249   3.045 -0.2525  0.3231  0.2143
  213WAT     H1  850   3.868   4.221   2.982 -1.4002 -0.1832 -0.7768
  213WAT     H2  851   3.743   4.175   3.053 -2.1525  1.6514 -0.8589
  214WAT      O  852   2.892   4.631   2.664 -0.4285 -0.0695  0.4376
  214WAT     H1  853   2.924   4.544   2.639 -0.8740 -0.2671  0.5517
  214WAT     H2  854   2.936   4.650   2.746 -1.8942 -1.0864  1.5005
  215WAT      O  855   0.794   2.862   4.511 -0.1839  0.2452 -0.4285
  215WAT     H1  856   0.761   2.836   4.425  0.5165  0.3799 -0.7519
  215WAT     H2  857   0.888   2.842   4.507 -0.3129 -0.5914  0.6398
  216WAT      O  858   1.440   3.820   2.918  0.2246 -0.3398  0.0310
  216WAT     H1  859   1.381   3.779   2.855  0.9741  0.4339 -1.2155
  216WAT     H2  860   1.386   3.835   2.995 -1.0404 -0.2081 -0.8558
  217WAT      O  861   2.108   0.368   4.063  0.2316 -0.2816 -0.0037
  217WAT     H1  862   2.174   0.435   4.075 -0.3566  0.2654  0.1932
  217WAT     H2  863   2.155   0.285   4.074  0.5269  0.1171  1.9237
  218WAT      O  864   2.381   1.857   1.075 -0.3177  0.3158 -0.3964
  218WAT     H1  865   2.474   1.875   1.087 -0.2206 -0.2561 -0.2411
  218WAT     H2  866   2.372   1.764   1.096 -0.9982  0.4610 -0.0162
  219WAT      O  867   3.581   3.654   0.211 -0.1748 -0.2760  0.2441
  219WAT     H1  868   3.530   3.724   0.253  0.9781  1.0405 -0.4563
  219WAT     H2  869   3.567   3.667   0.117  0.3284 -0.7767  0.0949
  220WAT      O  870   2.056   4.740   1.946  0.2142  0.4530  0.2957
  220WAT     H1  871   2.002   4.793   1.886  1.3877  1.2238 -0.1293
  220WAT     H2  872   2.054   4.652   1.908 -0.6026  0.5104  0.1939
  221WAT      O  873   3.751   0.511   2.496  1.2890  0.1825 -0.4878
  221WAT     H1  874   3.674   0.564   2.515  0.7071 -0.5261 -0.8097
  221WAT     H2  875   3.731   0.469   2.412  2.2260  0.3563 -0.8086
  222WAT      O  876   4.085   0.344   5.022  0.1709  0.3146 -0.8983
  222WAT     H1  877   4.179   0.330   5.007  0.3012  1.2878 -1.0756
  222WAT     H2  878   4.052   0.376   4.938  0.2338  2.5388 -0.1519
  223WAT      O  879   2.573   4.289   0.157  1.1851  0.3836  0.3237
  223WAT     H1  880   2.530   4.372   0.136 -1.3632 -0.9224 -0.0409
  223WAT     H2  881   2.547   4.230   0.085  2.5224 -0.8698  0.8211
  224WAT      O  882   0.789   1.480   0.581  0.3993  0.6419  0.3670
  224WAT     H1  883   0.834   1.502   0.663 -0.8537 -0.5804  1.4228
  224WAT     H2  884   0.860   1.453   0.522  1.1993 -0.0877  1.6020
  225WAT      O  885   3.413   0.575   5.155 -0.1984 -0.0684 -0.0119
  225WAT     H1  886   3.492   0.575   5.209  0.1045  0.0239 -0.4471
  225WAT     H2  887   3.376   0.488   5.165 -0.9746  0.4103  1.5383
  226WAT      O  888   2.084   1.632   2.756  0.4985 -0.4897  0.2584
  226WAT     H1  889   2.094   1.565   2.824  0.8279  0.4020  1.1075
  226WAT     H2  890   1.995   1.665   2.768  0.5164 -0.4116  0.1791
  227WAT      O  891   0.849   3.305   4.443 -0.1394 -0.3797  0.6696
  227WAT     H1  892   0.848   3.363   4.518  0.0979 -0.3976  0.6892
  227WAT     H2  893   0.937   3.268   4.443  0.2929  0.5902 -0.3563
  228WAT      O  894   2.989   0.477   4.446 -0.4888  0.7514  0.3321
  228WAT     H1  895   2.998   0.564   4.408  0.4240  0.7956  0.6164
  228WAT     H2  896   2.902   0.448   4.421 -0.1623  1.0501 -1.2092
  229WAT      O  897   4.090   2.434   2.816  0.2264  0.5532  0.5309
  229WAT     H1  898   4.144   2.355   2.816 -1.0461 -0.3761  1.3945
  229WAT     H2  899   4.117   2.482   2.738  1.7830 -0.2089  0.5684
  230WAT      O  900   3.481   4.047   1.574 -0.0600  0.5930  0.0162
  230WAT     H1  901   3.481   3.988   1.649 -1.7730 -0.1483 -0.5206
  230WAT     H2  902   3.543   4.008   1.512  0.0772  0.2759  0.3511
  231WAT      O  903   0.684   0.278   3.331  0.1908 -0.4002 -0.0256
  231WAT     H1  904   0.619   0.235   3.275 -0.5559  0.8272 -0.1237
  231WAT     H2  905   0.632   0.331   3.392  1.1096  1.6674 -0.9817
  232WAT      O  906   3.141   0.676   3.537  0.2276 -0.2819 -0.2928
  232WAT     H1  907   3.087   0.634   3.470  1.1720  2.2050 -2.7977
  232WAT     H2  908   3.220   0.622   3.541 -0.1961 -0.9414 -0.4987
  233WAT      O  909   2.074   0.476   1.152  0.1750  0.0981 -0.0146
  233WAT     H1  910   2.119   0.553   1.117  2.5125 -0.7525  0.9330
  233WAT     H2  911   2.086   0.482   1.247  0.6404 -1.5486  0.0578
  234WAT      O  912   3.915   3.742   0.728  0.3650  0.0090  0.2862
  234WAT     H1  913   3.868   3.658   0.729 -1.2968  0.8832  0.0278
  234WAT     H2  914   4.001   3.721   0.692 -0.2451 -1.4791 -0.3964
  235WAT      O  915   1.397   0.466   3.404  0.0484  0.0937 -0.4676
  235WAT     H1  916   1.387   0.432   3.493 -0.1877  0.9826 -0.1445
  235WAT     H2  917   1.402   0.388   3.349  1.9451 -0.5300  0.4879
  236WAT      O  918   0.704   1.113   0.495  0.0487  0.1807  0.1767
  236WAT     H1  919   0.770   1.109   0.565 -0.7834  0.0788  0.9803
  236WAT     H2  920   0.654   1.192   0.515 -1.4014 -0.8660  0.8182
  237WAT      O  921   1.902   2.515   1.620  0.2536 -0.5666 -0.3430
  237WAT     H1  922   1.873   2.502   1.530 -0.4124 -2.3776  0.0980
  237WAT     H2  923   1.830   2.484   1.674  0.1724  1.5617  0.8677
  238WAT      O  924   0.994   1.927   2.596 -0.4436 -0.2610  0.1631
  238WAT     H1  925   1.070   1.871   2.611 -0.4110 -0.0984  0.6170
  238WAT     H2  926   0.941   1.879   2.532 -0.3420 -0.7418  0.4363
  239WAT      O  927   1.571   1.431   2.176 -0.1100  0.1970  0.1674
  239WAT     H1  928   1.569   1.491   2.250 -0.5273  0.2241  0.1372
  239WAT     H2  929   1.503   1.366   2.196  0.9626 -0.8010  0.6494
  240WAT      O  930   1.338   4.412   2.348 -0.3053 -0.3457  0.3372
  240WAT     H1  931   1.430   4.438   2.345 -0.6136  0.9149  1.0152
  240WAT     H2  932   1.294   4.472   2.288 -1.0844  1.0553  2.1979
  241WAT      O  933   2.031   4.170   2.832 -0.2693  0.2251 -0.2542
  241WAT     H1  934   2.108   4.114   2.838 -0.8750 -0.4283  3.8026
  241WAT     H2  935   1.962   4.113   2.799  0.2873  0.0460 -1.1440
  242WAT      O  936   2.316   2.388   3.674 -0.3018 -0.3883  0.6719
  242WAT     H1  937   2.393   2.444   3.663 -0.9530  0.8272  1.9041
  242WAT     H2  938   2.259   2.411   3.601 -0.8653  1.1386  1.5467
  243WAT      O  939   3.288   4.563   2.109  0.2681  0.2954  0.0745
  243WAT     H1  940   3.382   4.547   2.120  0.3975 -1.4131 -2.5143
  243WAT     H2  941   3.251   4.552   2.197  2.3070 -0.4306  0.9003
  244WAT      O  942   2.871   3.722   5.146 -0.4975  0.3827  0.0744
  244WAT     H1  943   2.819   3.798   5.172  0.0694  0.4587  1.0359
  244WAT     H2  944   2.931   3.709   5.219 -0.2296 -0.6661 -0.3269
  245WAT      O  945   3.131   4.350   5.194 -0.1235  0.3290  0.3859
  245WAT     H1  946   3.152   4.441   5.174 -2.6779  0.9106 -0.0472
  245WAT     H2  947   3.193   4.325   5.263  1.2630  2.0490 -0.1628
  246WAT      O  948   0.581   4.085   3.884  0.0817  0.1522  0.0893
  246WAT     H1  949   0.521   4.111   3.954  1.1338  1.3797  0.5723
  246WAT     H2  950   0.665   4.075   3.927  0.7162  0.7735 -0.9636
  247WAT      O  951   0.415   4.289   3.776 -0.4390  0.2526  0.3004
  247WAT     H1  952   0.406   4.221   3.843 -1.1237 -0.0115 -0.0603
  247WAT     H2  953   0.380   4.250   3.697 -0.7570  1.0002  0.0680
  248WAT      O  954   1.519   2.857   0.707  0.2712  0.5994 -0.1836
  248WAT     H1  955   1.462   2.904   0.767 -0.9548 -1.9739  0.8374
  248WAT     H2  956   1.589   2.822   0.762 -1.5766 -2.9176  0.2099
  249WAT      O  957   2.764   4.545   2.218  0.4311  0.0599  0.0515
  249WAT     H1  958   2.724   4.601   2.286  0.3378 -0.5319  0.4910
  249WAT     H2  959   2.692   4.489   2.188  0.7325 -0.4321  0.2426
  250WAT      O  960   0.026   0.355   2.328 -0.4257 -0.2726 -0.0396
  250WAT     H1  961   0.012   0.311   2.245  1.0797 -0.5304 -0.1894
  250WAT     H2  962   0.096   0.304   2.370  0.2959  1.0856  0.4435
  251WAT      O  963   2.462   3.887   1.250  0.2308 -0.0969 -0.3913
  251WAT     H1  964   2.461   3.804   1.299 -0.2090  1.5422  2.6085
  251WAT     H2  965   2.374   3.922   1.262  0.7710  1.3727 -0.5852
  252WAT      O  966   1.339   3.134   4.433  0.9804  0.1184  0.3810
  252WAT     H1  967   1.371   3.045   4.439  1.6741  0.4501  2.0200
  252WAT     H2  968   1.417   3.189   4.440  0.3866  0.8749  1.4189
  253WAT      O  969   3.398   0.786   0.980  0.1356  0.3956  0.1703
  253WAT     H1  970   3.452   0.847   0.929  0.4807  0.3357  0.4530
  253WAT     H2  971   3.426   0.699   0.950 -0.1490  0.3724 -0.0266
  254WAT      O  972   1.442   1.986   4.190 -0.8018 -0.6885  0.2202
  254WAT     H1  973   1.438   2.075   4.223 -1.6399 -1.2961  1.8648
  254WAT     H2  974   1.491   1.993   4.108  3.2346  0.6981  2.4270
  255WAT      O  975   2.477   1.205   4.157  0.3571 -0.5583 -0.3415
  255WAT     H1  976   2.511   1.294   4.171 -1.2592 -0.1050  1.1198
  255WAT     H2  977   2.489   1.189   4.064 -2.1474  2.5081 -1.3719
  256WAT      O  978   4.224   2.619   3.791 -0.0701  0.2752 -0.0210
  256WAT     H1  979   4.143   2.657   3.758  0.2201  0.0010 -1.1248
  256WAT     H2  980   4.291   2.649   3.728  0.6996  0.5958  0.9282
  257WAT      O  981   3.738   2.372   5.172  0.1392  0.6360 -0.2664
  257WAT     H1  982   3.646   2.369   5.197  0.7518 -1.2962  2.2108
  257WAT     H2  983   3.765   2.280   5.173  2.6320  1.3071  1.4195
  258WAT      O  984   0.625   3.187   3.020 -0.0239 -0.1877  0.1598
  258WAT     H1  985   0.697   3.242   3.051  0.0893 -1.0798  1.5612
  258WAT     H2  986   0.575   3.244   2.961  0.6749  1.0704  0.7414
  259WAT      O  987   3.017   5.019   0.228  0.1990  0.7660  0.1250
  259WAT     H1  988   2.966   4.983   0.300 -1.0548 -0.2463 -1.2102
  259WAT     H2  989   3.076   5.082   0.269 -0.1205 -0.1423  2.0792
  260WAT      O  990   2.925   0.410   4.887  0.2975  0.2401 -0.1071
  260WAT     H1  991   2.924   0.430   4.981 -0.1693 -0.4938  0.0514
  260WAT     H2  992   3.018   0.410   4.864  0.4614 -0.2375  0.5110
  261WAT      O  993   3.317   0.156   2.527  0.0269  0.3169  0.4376
  261WAT     H1  994   3.226   0.185   2.529 -0.0660 -0.0079  1.3458
  261WAT     H2  995   3.331   0.126   2.437 -1.0691 -0.5894  0.5540
  262WAT      O  996   2.182   4.270   0.110 -0.4637  0.0881 -0.1979
  262WAT     H1  997   2.133   4.326   0.050 -1.0945 -0.5562 -0.2918
  262WAT     H2  998   2.227   4.331   0.168  1.0719  0.7969 -2.0003
  263WAT      O  999   3.612   1.142   3.083  0.0862  0.1343 -0.0378
  263WAT     H1 1000   3.584   1.215   3.138 -0.5962  0.2356 -0.4976
  263WAT     H2 1001   3.663   1.086   3.141 -1.0042  0.0024  0.8362
  264WAT      O 1002   1.381   0.140   2.598 -0.1419  0.0548 -0.1865
  264WAT     H1 1003   1.321   0.091   2.542 -1.1806  1.4954 -0.4034
  264WAT     H2 1004   1.420   0.074   2.655  0.1849 -1.3173 -1.8921
  265WAT      O 1005   2.310   4.865   1.956  0.1738  0.1502 -0.4681
  265WAT     H1 1006   2.224   4.823   1.950  0.4611 -0.4209 -0.6213
  265WAT     H2 1007   2.360   4.830   1.883  1.0111 -0.6382  0.4523
  266WAT      O 1008   0.331   0.535   3.118 -0.0541 -0.1443 -0.2213
  266WAT     H1 1009   0.410   0.586   3.102 -0.9007  1.6970  1.1199
  266WAT     H2 1010   0.262   0.582   3.072 -0.9205  0.1546  1.3323
  267WAT      O 1011   0.588   0.641   2.990 -0.1127 -0.2679 -0.4634
  267WAT     H1 1012   0.652   0.650   3.061  0.3116  0.7450 -0.9576
  267WAT     H2 1013   0.641   0.630   2.911 -0.5700 -0.6917 -0.7144
  268WAT      O 1014   3.958   1.141   3.376 -0.1451 -0.7832  0.0480
  268WAT     H1 1015   4.051   1.139   3.402 -0.2497 -0.9201  0.4305
  268WAT     H2 1016   3.937   1.234   3.370  0.3486 -0.7465 -1.2862
  269WAT      O 1017   3.163   2.292   4.162  0.1983  0.6167  0.0953
  269WAT     H1 1018   3.133   2.363   4.106 -0.5854  0.7292  0.6416
  269WAT     H2 1019   3.147   2.323   4.251 -0.2184 -0.2682  0.3451
  270WAT      O 1020   0.961   1.618   2.450  0.1005 -0.2323  0.1717
  270WAT     H1 1021   1.056   1.629   2.449  0.0563  0.1967  0.3928
  270WAT     H2 1022   0.947   1.525   2.470  0.4716 -0.2234  0.4830
  271WAT      O 1023   3.441   3.170   4.055 -0.2011 -0.1818  0.6932
  271WAT     H1 1024   3.365   3.223   4.032  0.6668  1.3284  1.1544
  271WAT     H2 1025   3.424   3.140   4.144 -1.7669 -2.7589 -0.3369
  272WAT      O 1026   2.898   4.612   0.611  0.6555 -0.0118  0.3710
  272WAT     H1 1027   2.908   4.637   0.519  2.0156 -0.1031  0.4650
  272WAT     H2 1028   2.844   4.533   0.609 -1.0960  1.1464 -0.1672
  273WAT      O 1029   0.325   2.195   0.164 -0.1581 -0.1612 -0.5383
  273WAT     H1 1030   0.318   2.219   0.256  1.5818  0.0588 -0.4231
  273WAT     H2 1031   0.360   2.273   0.121 -1.1099 -0.2054 -1.4321
  274WAT      O 1032   1.247   4.491   0.465 -0.2908 -0.4584  0.1484
  274WAT     H1 1033   1.287   4.553   0.405  0.8884  0.6162  1.9396
  274WAT     H2 1034   1.200   4.429   0.409 -0.0547  1.0316 -1.7867
  275WAT      O 1035   2.500   2.981   3.321 -0.3475 -0.6947 -0.1931
  275WAT     H1 1036   2.514   2.938   3.237  0.7980 -0.6307 -0.0520
  275WAT     H2 1037   2.405   2.980   3.333 -0.5133 -0.8642 -1.3960
  276WAT      O 1038   4.166   3.463   1.836  0.1797 -0.2953  0.0510
  276WAT     H1 1039   4.133   3.399   1.772 -1.2696  0.8882 -0.4441
  276WAT     H2 1040   4.261   3.452   1.833  0.0642 -1.2780 -1.2495
  277WAT      O 1041   3.155   4.133   2.298 -0.1312 -0.5567  0.1657
  277WAT     H1 1042   3.209   4.124   2.219 -1.5752 -0.2555 -0.8929
  277WAT     H2 1043   3.088   4.197   2.273  0.7079  1.3358  2.3852
  278WAT      O 1044   1.896   4.188   4.487 -0.1842 -0.9031 -0.2069
  278WAT     H1 1045   1.974   4.224   4.443 -1.3711 -0.4233 -2.0323
  278WAT     H2 1046   1.925   4.103   4.520  0.8174 -1.2870 -1.9454
  279WAT      O 1047   2.068   4.442   5.208 -0.7244  0.3395 -0.7916
  279WAT     H1 1048   2.051   4.536   5.216  0.5198  0.5243 -0.1169
  279WAT     H2 1049   2.038   4.420   5.120  0.5111  1.7195 -1.5973
  280WAT      O 1050   3.562   1.440   2.333  0.2532 -0.0166  0.1797
  280WAT     H1 1051   3.654   1.429   2.308  0.3404  2.5612 -0.9719
  280WAT     H2 1052   3.516   1.449   2.250 -0.9829 -0.7136  0.7635
  281WAT      O 1053   0.734   0.499   4.442  0.1080 -0.0906 -0.2532
  281WAT     H1 1054   0.776   0.583   4.422 -0.4228  0.3700  0.4898
  281WAT     H2 1055   0.806   0.440   4.463  0.4846  0.1839 -0.7573
  282WAT      O 1056   4.068   4.136   1.083  0.0303 -0.3306  0.3675
  282WAT     H1 1057   4.031   4.173   1.164 -1.8655 -1.3366  0.0213
  282WAT     H2 1058   4.066   4.042   1.097 -2.3265 -0.6659 -1.5831
  283WAT      O 1059   2.003   1.524   0.972 -0.6573  0.0561  0.0336
  283WAT     H1 1060   2.001   1.608   0.926  0.7797  1.1199  1.7528
  283WAT     H2 1061   2.091   1.490   0.956  0.5414  1.2859  3.2000
  284WAT      O 1062   1.651   2.485   1.685 -0.2018  0.3883  0.5469
  284WAT     H1 1063   1.630   2.527   1.769 -0.8801  0.9597  0.0984
  284WAT     H2 1064   1.603   2.402   1.687 -0.6461  0.6417  0.5009
  285WAT      O 1065   3.868   2.418   2.600 -0.3649 -0.3130 -0.3983
  285WAT     H1 1066   3.858   2.509   2.574 -0.6065  0.1374  1.1478
  285WAT     H2 1067   3.799   2.405   2.666 -0.2853 -1.5911 -0.5442
  286WAT      O 1068   1.252   4.907   4.443 -0.5741  0.6273  0.6140
  286WAT     H1 1069   1.302   4.873   4.369  0.4045 -0.5946  1.7792
  286WAT     H2 1070   1.292   4.992   4.462 -0.6630  0.8302 -0.0768
  287WAT      O 1071   2.810   1.719   1.586  0.3384 -0.3815 -0.4486
  287WAT     H1 1072   2.725   1.705   1.627 -0.6401  2.6531 -1.1473
  287WAT     H2 1073   2.832   1.634   1.546 -2.5444 -1.1811 -0.5740
  288WAT      O 1074   1.975   0.581   1.866 -0.2100  0.1472 -0.3854
  288WAT     H1 1075   1.917   0.581   1.790  0.0466 -0.8512 -0.5952
  288WAT     H2 1076   1.925   0.626   1.934 -1.2340 -0.6801 -0.5662
  289WAT      O 1077   2.630   1.222   1.906 -0.4664 -0.1174 -0.2397
  289WAT     H1 1078   2.545   1.180   1.907 -1.0026  0.9430  0.4060
  289WAT     H2 1079   2.672   1.196   1.988 -0.6760  0.3315  0.0170
  290WAT      O 1080   0.166   0.335   1.402 -0.2729  0.5430 -0.3677
  290WAT     H1 1081   0.203   0.284   1.475  2.1998  0.2691 -1.6928
  290WAT     H2 1082   0.144   0.420   1.441 -0.9218 -0.2570  1.0859
  291WAT      O 1083   1.525   3.532   3.462 -0.0900 -0.6756  0.1240
  291WAT     H1 1084   1.535   3.580   3.380 -1.1665  0.6051  0.6930
  291WAT     H2 1085   1.431   3.514   3.468 -0.0135 -0.8606  1.0092
  292WAT      O 1086   4.196   2.506   5.239 -0.2575 -0.5155  0.1682
  292WAT     H1 1087   4.231   2.438   5.182 -1.5389 -0.8012 -0.3133
  292WAT     H2 1088   4.238   2.491   5.324  0.7082 -0.8741 -0.3592
  293WAT      O 1089   4.229   0.088   3.342  0.2439 -0.0368 -0.1698
  293WAT     H1 1090   4.145   0.132   3.348  0.3597  0.7581 -3.0702
  293WAT     H2 1091   4.208  -0.000   3.311  0.3787 -0.5655  1.1532
  294WAT      O 1092   1.982   3.772   3.546 -0.3011 -0.4666 -0.1441
  294WAT     H1 1093   1.971   3.833   3.619 -0.8471 -0.8817  0.1287
  294WAT     H2 1094   2.051   3.713   3.575 -0.6050 -0.7077  0.0906
  295WAT      O 1095   3.744   0.736   0.186 -0.3079  0.2509  0.0722
  295WAT     H1 1096   3.658   0.697   0.201 -0.5750  0.3051 -1.1728
  295WAT     H2 1097   3.726   0.815   0.134  0.4962  0.2009 -0.3024
  296WAT      O 1098   1.232   0.706   0.488 -0.1197 -0.3374 -0.3198
  296WAT     H1 1099   1.212   0.646   0.416 -0.1844 -1.2104  0.4089
  296WAT     H2 1100   1.311   0.671   0.528 -0.0803  0.1477  0.0432
  297WAT      O 1101   0.859   4.792   0.143 -0.4005 -0.4640  0.4098
  297WAT     H1 1102   0.942   4.817   0.101  0.7228 -0.5285  2.4635
  297WAT     H2 1103   0.815   4.738   0.078  1.1900 -0.4550 -0.7419
  298WAT      O 1104   1.223   2.879   1.276  0.0437 -0.6245 -0.1630
  298WAT     H1 1105   1.316   2.858   1.289 -0.0753 -0.9352  0.2111
  298WAT     H2 1106   1.213   2.886   1.182  0.4997 -0.3641 -0.1923
  299WAT      O 1107   3.017   0.621   1.110 -0.4716 -0.3806 -0.0233
  299WAT     H1 1108   3.073   0.652   1.181 -0.8419  1.1288 -0.3542
  299WAT     H2 1109   2.998   0.530   1.133  0.8983 -0.4807  0.8490
  300WAT      O 1110   3.499   2.392   2.560  0.0854  0.2288 -0.1623
  300WAT     H1 1111   3.408   2.377   2.584 -0.3900  1.3677 -1.1555
  300WAT     H2 1112   3.522   2.473   2.606  0.9320 -0.5844  0.8951
  301WAT      O 1113   1.598   4.651   2.629  0.1331  0.1246 -0.4933
  301WAT     H1 1114   1.614   4.744   2.643  4.1985 -0.4221 -0.3012
  301WAT     H2 1115   1.618   4.637   2.537  0.5801 -0.6625 -0.2871
  302WAT      O 1116   4.317   2.414   0.171  0.0064  0.7172  0.0927
  302WAT     H1 1117   4.362   2.348   0.119 -3.3907 -1.6286 -0.1554
  302WAT     H2 1118   4.284   2.367   0.247 -4.1129  1.5032 -0.9652
  303WAT      O 1119   3.847   3.770   3.345 -0.4674  0.3253 -0.3907
  303WAT     H1 1120   3.808   3.813   3.269 -0.2018 -1.7794 -1.8163
  303WAT     H2 1121   3.935   3.745   3.317 -0.7038 -1.3639  0.2116
  304WAT      O 1122   2.936   3.011   1.038 -0.3520 -0.0717 -0.1374
  304WAT     H1 1123   3.031   3.006   1.033 -0.2524 -0.9030  1.9377
  304WAT     H2 1124   2.906   2.927   1.004 -0.3456  0.0286 -0.3978
  305WAT      O 1125   4.069   1.047   1.412  0.7807  0.5384 -0.2845
  305WAT     H1 1126   4.008   0.986   1.370  1.3533  0.0906 -0.4783
  305WAT     H2 1127   4.143   1.053   1.351  0.5706  1.7267 -0.4526
  306WAT      O 1128   3.121   3.373   5.185  0.4983  0.1759  0.1198
  306WAT     H1 1129   3.057   3.350   5.118  0.0352  0.7977  0.3444
  306WAT     H2 1130   3.098   3.320   5.261  0.5323  0.0604  0.0492
  307WAT      O 1131   3.447   3.632   1.584 -0.4128 -0.0334  0.1893
  307WAT     H1 1132   3.439   3.696   1.655  1.4851 -2.6076  2.9731
  307WAT     H2 1133   3.371   3.576   1.593 -0.0538 -0.4992  0.3869
  308WAT      O 1134   2.942   2.195   5.108 -0.2044 -0.0654  0.1506
  308WAT     H1 1135   2.862   2.168   5.153  0.0694 -0.9772  0.0997
  308WAT     H2 1136   2.988   2.114   5.090  1.2246  0.5086  1.0818
  309WAT      O 1137   2.318   3.803   2.623 -0.5610  0.3019  0.3686
  309WAT     H1 1138   2.321   3.719   2.576 -0.3976  0.1750  0.6039
  309WAT     H2 1139   2.295   3.779   2.713  2.0569  0.2110  1.1067
  310WAT      O 1140   4.332   1.081   2.697  0.5904 -0.1696  0.0619
  310WAT     H1 1141   4.338   1.006   2.756 -0.5484 -1.3874 -1.3100
  310WAT     H2 1142   4.241   1.109   2.703  0.1842 -0.9366 -1.7915
  311WAT      O 1143   1.356   4.059   1.790 -0.0907 -0.7352 -0.2486
  311WAT     H1 1144   1.376   4.026   1.878 -2.0388 -1.7866 -0.1500
  311WAT     H2 1145   1.354   4.154   1.801 -1.4768 -0.8726  1.1786
  312WAT      O 1146   2.096   0.957   3.351 -0.5045 -0.4270 -0.1328
  312WAT     H1 1147   2.176   0.992   3.389 -1.3010 -0.1906  1.4224
  312WAT     H2 1148   2.125   0.900   3.280  0.9813  0.4053 -0.2194
  313WAT      O 1149   0.316   1.671   1.344  0.3202  0.5305 -0.3568
  313WAT     H1 1150   0.375   1.739   1.313  0.2452  1.1262  0.7682
  313WAT     H2 1151   0.362   1.630   1.417  0.2228 -0.4214 -0.8030
  314WAT      O 1152   1.575   3.115   3.485 -0.2702  0.0839 -0.1420
  314WAT     H1 1153   1.544   3.177   3.551  0.2288  2.2372 -1.8181
  314WAT     H2 1154   1.634   3.166   3.430 -0.4017 -1.7001 -2.0651
  315WAT      O 1155   0.849   0.433   2.969 -0.0346  0.4637 -0.0212
  315WAT     H1 1156   0.804   0.400   2.891  1.0606 -1.9145  0.2536
  315WAT     H2 1157   0.935   0.460   2.937  1.5395 -3.2177  0.6176
  316WAT      O 1158   3.064   4.145   3.118 -0.0858 -0.1442 -0.4557
  316WAT     H1 1159   2.995   4.197   3.076 -1.0033 -0.5436  0.5137
  316WAT     H2 1160   3.128   4.130   3.049 -1.7704 -1.1885 -1.8497
  317WAT      O 1161   2.923   4.964   1.630  0.3059 -0.3806  0.5013
  317WAT     H1 1162   3.011   4.982   1.596 -0.0524  1.3829  0.4143
  317WAT     H2 1163   2.927   4.873   1.659  2.1416 -0.3675  0.4233
  318WAT      O 1164   0.522   1.186   4.817  0.0080  0.1637  0.0879
  318WAT     H1 1165   0.609   1.218   4.844  0.1321  0.6997 -0.8970
  318WAT     H2 1166   0.461   1.238   4.869  0.2719 -0.3000  0.8783
  319WAT      O 1167   3.043   0.973   2.831 -0.0528 -0.6199 -0.1287
  319WAT     H1 1168   3.072   1.037   2.767  3.1503  1.5193  3.0710
  319WAT     H2 1169   3.114   0.908   2.833 -0.8778 -1.5439  0.1879
  320WAT      O 1170   3.080   1.671   0.543 -0.4048 -0.8578 -0.4735
  320WAT     H1 1171   2.991   1.654   0.574 -0.1404 -0.7185  0.3942
  320WAT     H2 1172   3.126   1.707   0.619  0.0793  0.1831 -1.2274
  321WAT      O 1173   3.980   1.420   0.869  0.0251 -0.5127 -0.0132
  321WAT     H1 1174   4.068   1.413   0.909 -0.0677 -0.1931  0.2526
  321WAT     H2 1175   3.920   1.397   0.940 -0.3059  2.6428  0.8912
  322WAT      O 1176   0.554   1.539   1.120  0.0980  0.3373  0.7007
  322WAT     H1 1177   0.494   1.607   1.148 -1.0608 -0.7659  1.0087
  322WAT     H2 1178   0.556   1.477   1.193 -0.0977 -0.7438 -0.1831
  323WAT      O 1179   3.151   0.919   3.761 -0.1763  0.5756 -0.4125
  323WAT     H1 1180   3.070   0.946   3.804  0.2482 -0.3075  1.0048
  323WAT     H2 1181   3.137   0.827   3.741  1.2345 -0.2091  1.8427
  324WAT      O 1182   2.369   0.761   3.250  0.1736  0.1891 -0.0064
  324WAT     H1 1183   2.320   0.702   3.308  0.4137  2.1895  2.4015
  324WAT     H2 1184   2.453   0.717   3.237  0.4997  0.0963  2.0705
  325WAT      O 1185   3.727   2.324   2.816  0.3520  0.1070  0.2882
  325WAT     H1 1186   3.760   2.243   2.853 -0.8775 -1.0019 -0.9060
  325WAT     H2 1187   3.642   2.300   2.777  0.1269  1.8734 -0.4340
  326WAT      O 1188   0.344   2.854   4.412  0.0773 -0.4357 -0.0500
  326WAT     H1 1189   0.387   2.874   4.329  1.3541  0.4873  0.7966
  326WAT     H2 1190   0.324   2.940   4.450 -0.3529 -0.8446  0.6812
  327WAT      O 1191   3.054   0.094   2.395 -0.6808  0.1373  0.2195
  327WAT     H1 1192   2.978   0.039   2.410 -1.3141  0.1560 -2.5250
  327WAT     H2 1193   3.042   0.129   2.307  1.0234  2.5576  0.8424
  328WAT      O 1194   1.482   0.629   0.569  0.1987 -0.2029  0.3304
  328WAT     H1 1195   1.442   0.594   0.648  1.3352  1.5304  1.7577
  328WAT     H2 1196   1.558   0.573   0.554  0.6065  0.1183  1.1420
  329WAT      O 1197   3.119   1.633   2.757 -0.0551 -0.0624  0.0641
  329WAT     H1 1198   3.169   1.715   2.761  1.3252 -0.8908  2.5673
  329WAT     H2 1199   3.151   1.590   2.678  1.6213  0.4272  0.4241
  330WAT      O 1200   0.171   4.651   1.923  0.2434  0.2464 -0.1589
  330WAT     H1 1201   0.239   4.584   1.920 -0.2287 -0.5246  3.2543
  330WAT     H2 1202   0.116   4.632   1.847  3.2156  0.3717 -2.5613
  331WAT      O 1203   0.142   5.077   0.251 -0.0053  0.1732 -0.7769
  331WAT     H1 1204   0.201   5.147   0.279 -0.6888  0.0839  1.0226
  331WAT     H2 1205   0.054   5.115   0.262 -0.4351 -1.2095  1.1615
  332WAT      O 1206   1.732   1.159   4.867 -0.2107 -0.4426 -0.5376
  332WAT     H1 1207   1.791   1.211   4.811  0.5719 -0.7912 -0.0479
  332WAT     H2 1208   1.661   1.220   4.888  1.7725  1.2479  1.8623
  333WAT      O 1209   0.821   3.514   0.815  0.1129 -0.0198 -0.1423
  333WAT     H1 1210   0.743   3.517   0.871  0.5956 -0.2872  0.5621
  333WAT     H2 1211   0.873   3.441   0.850  2.3956  2.2950  1.7493
  334WAT      O 1212   3.256   0.024   5.294 -0.0921  0.2053  0.2660
  334WAT     H1 1213   3.317  -0.037   5.253  1.7484  2.3672 -0.4304
  334WAT     H2 1214   3.195   0.047   5.224 -1.2688 -1.3216  0.7354
  335WAT      O 1215   3.231   2.117   0.664 -0.3481 -0.3620 -0.1254
  335WAT     H1 1216   3.227   2.209   0.689  0.0462 -0.0330 -1.1928
  335WAT     H2 1217   3.178   2.112   0.584  1.0972 -0.6638 -1.1140
  336WAT      O 1218   0.782   2.428   0.382  0.1085 -0.1355 -0.8780
  336WAT     H1 1219   0.738   2.409   0.299  1.3698  1.6410 -2.0147
  336WAT     H2 1220   0.829   2.510   0.366  1.0411 -0.1760  1.3488
  337WAT      O 1221  -0.008   2.356   1.816  0.2715 -0.4907  0.4154
  337WAT     H1 1222   0.040   2.436   1.839  1.2845 -1.2665  1.1090
  337WAT     H2 1223   0.048   2.312   1.752 -1.4303  0.4956 -1.9057
  338WAT      O 1224   4.368   0.367   4.967 -0.1248  0.7494 -0.3280
  338WAT     H1 1225   4.400   0.457   4.972  0.8232  0.4678 -0.9933
  338WAT     H2 1226   4.384   0.341   4.876  0.9645 -0.5744  0.2100
  339WAT      O 1227   0.959   3.279   4.172 -0.0819  0.3979 -0.0826
  339WAT     H1 1228   0.903   3.339   4.223 -0.1257  1.4048 -1.2581
  339WAT     H2 1229   0.897   3.223   4.125 -0.0643  0.2855  0.0277
  340WAT      O 1230   3.210   0.962   1.160 -0.2971 -0.7970 -0.3500
  340WAT     H1 1231   3.281   0.934   1.102  1.1179 -1.7989  1.7541
  340WAT     H2 1232   3.137   0.906   1.136 -0.1870 -0.3056 -2.0072
  341WAT      O 1233   0.710   0.414   3.880 -0.2673 -0.0575  0.1314
  341WAT     H1 1234   0.746   0.414   3.969 -0.2571 -2.4736  0.2069
  341WAT     H2 1235   0.725   0.325   3.848 -1.3417  0.4092 -1.8587
  342WAT      O 1236   2.733   4.338   3.772 -0.1255  0.2728  0.5103
  342WAT     H1 1237   2.640   4.349   3.789 -0.5433 -0.0259 -1.3698
  342WAT     H2 1238   2.738   4.263   3.713  1.1168  1.3984 -0.8988
  343WAT      O 1239   4.457   0.793   2.399 -0.4838 -0.0185 -0.0479
  343WAT     H1 1240   4.395   0.749   2.341 -1.6127 -0.9875  1.8012
  343WAT     H2 1241   4.446   0.886   2.380 -1.1661 -0.2818 -1.0237
  344WAT      O 1242   1.506   3.287   3.710  0.0101 -0.1330  0.2505
  344WAT     H1 1243   1.508   3.380   3.687 -0.0266 -0.8634 -3.2002
  344WAT     H2 1244   1.412   3.265   3.708  0.1061 -0.5061 -0.2490
  345WAT      O 1245   4.224   3.894   3.697  0.1600  0.2770 -0.2368
  345WAT     H1 1246   4.241   3.934   3.782  1.6144  0.3002 -0.5227
  345WAT     H2 1247   4.130   3.875   3.699 -0.4790  3.0341  0.1886
  346WAT      O 1248   3.835   5.128   4.057 -0.1664 -0.1466 -0.0987
  346WAT     H1 1249   3.870   5.201   4.107  2.5856 -1.2069 -0.2756
  346WAT     H2 1250   3.819   5.059   4.122 -1.6253  0.1615 -0.0851
  347WAT      O 1251   1.571   3.355   1.488  0.0970  0.0885 -0.0211
  347WAT     H1 1252   1.486   3.375   1.448  0.1263 -0.3125 -0.2874
  347WAT     H2 1253   1.588   3.264   1.465  0.8813  0.3398 -0.4828
  348WAT      O 1254   0.607   3.067   5.157  0.2035  0.4381  0.4115
  348WAT     H1 1255   0.661   3.142   5.134 -1.0362  1.3784  0.4303
  348WAT     H2 1256   0.551   3.053   5.081  0.1072 -0.1895  0.5889
  349WAT      O 1257   3.820   2.280   4.132  0.7788 -0.2688  0.1039
  349WAT     H1 1258   3.748   2.263   4.071  1.1484  1.3244 -0.8290
  349WAT     H2 1259   3.893   2.230   4.097  0.5909 -0.5391  0.0918
  350WAT      O 1260   0.977   0.351   0.465 -0.1669  0.1130  0.0750
  350WAT     H1 1261   1.027   0.272   0.482  0.2387 -0.2526 -2.3651
  350WAT     H2 1262   0.887   0.320   0.452 -0.6202  0.4741  2.1104
  351WAT      O 1263   4.435   4.792   1.702  0.4512  0.0652  0.3851
  351WAT     H1 1264   4.341   4.775   1.692  0.1592  1.4215  0.5744
  351WAT     H2 1265   4.473   4.707   1.722 -1.0375 -0.2211  2.3385
  352WAT      O 1266   2.025   2.109   0.785  0.0416  0.0685  0.0363
  352WAT     H1 1267   2.099   2.092   0.843  0.4613 -0.2902 -0.5946
  352WAT     H2 1268   1.948   2.092   0.840  0.4273 -2.0157  0.0213
  353WAT      O 1269   2.447   0.387   4.020  0.2548 -0.2366 -0.1179
  353WAT     H1 1270   2.371   0.399   3.964 -0.9464 -1.1739  1.2404
  353WAT     H2 1271   2.513   0.349   3.963 -0.4607  0.1097 -1.2051
  354WAT      O 1272   2.369   1.266   1.101  0.0128 -0.3759 -0.1719
  354WAT     H1 1273   2.456   1.306   1.110  0.0607 -0.2147 -1.2027
  354WAT     H2 1274   2.334   1.304   1.020 -1.1898 -0.1231  0.4369
  355WAT      O 1275   4.010   3.548   0.504 -0.3136 -0.3523 -0.7243
  355WAT     H1 1276   3.941   3.532   0.568 -1.1671 -1.8766 -1.9736
  355WAT     H2 1277   4.036   3.461   0.474  1.1368  0.2597 -1.3670
  356WAT      O 1278   1.971   0.459   2.938 -0.1493  0.8508  0.0181
  356WAT     H1 1279   2.005   0.521   2.873 -0.4789  0.0458 -0.9626
  356WAT     H2 1280   2.015   0.376   2.916 -1.0232  0.3319  0.1744
  357WAT      O 1281   3.782   3.637   3.001  0.0392 -0.1486 -0.3577
  357WAT     H1 1282   3.707   3.638   3.060  0.5446  0.9380  0.3097
  357WAT     H2 1283   3.775   3.719   2.952  0.8481  0.0264 -0.1943
  358WAT      O 1284   0.627   2.488   5.088 -0.5202  0.8436  0.0391
  358WAT     H1 1285   0.638   2.462   4.997 -2.1370  0.5689 -0.1132
  358WAT     H2 1286   0.640   2.583   5.088  0.5311  0.7091 -0.2744
  359WAT      O 1287   0.395   1.611   1.735  0.3406 -0.0386 -0.1221
  359WAT     H1 1288   0.433   1.647   1.655 -1.0044  2.5506  0.3126
  359WAT     H2 1289   0.328   1.550   1.705  0.7731 -0.1376 -0.9194
  360WAT      O 1290   2.720   4.705   2.978  0.4927 -0.6700  0.1394
  360WAT     H1 1291   2.725   4.701   2.882  0.9754  1.7284  0.0054
  360WAT     H2 1292   2.636   4.747   2.996  0.6755 -0.5592  0.7527
  361WAT      O 1293   1.332   4.920   2.759 -0.5720  0.0476  0.0154
  361WAT     H1 1294   1.351   4.915   2.665 -0.3452 -0.4673  0.0851
  361WAT     H2 1295   1.243   4.885   2.768 -0.3658 -0.4740  0.0613
  362WAT      O 1296   2.447   4.972   1.070  0.0001 -0.3166 -0.2690
  362WAT     H1 1297   2.450   5.067   1.079 -0.3377 -0.2442 -0.8391
  362WAT     H2 1298   2.355   4.952   1.052  0.2036 -0.6612 -1.0047
  363WAT      O 1299   0.188   3.978   1.966  0.6889 -0.5134 -0.2541
  363WAT     H1 1300   0.226   3.961   2.052  2.7503  1.2834 -0.6987
  363WAT     H2 1301   0.181   4.074   1.962 -0.5293 -0.6305 -1.6221
  364WAT      O 1302   0.332   4.019   2.446 -0.0152 -0.6185  0.3020
  364WAT     H1 1303   0.394   4.015   2.518 -1.0006  0.4800  1.2622
  364WAT     H2 1304   0.246   4.030   2.488 -0.6564 -0.2948 -1.0127
  365WAT      O 1305   0.838   4.545   1.476  0.3575 -0.1752  0.0832
  365WAT     H1 1306   0.905   4.480   1.453  0.4065  0.2281 -0.9265
  365WAT     H2 1307   0.760   4.516   1.430  0.2618  0.2491 -0.0187
  366WAT      O 1308   0.048   4.663   0.989 -0.5775  0.2040  0.0560
  366WAT     H1 1309   0.055   4.737   1.049  0.0186  1.3376 -1.3361
  366WAT     H2 1310   0.137   4.647   0.960 -0.9726  0.4126 -1.3457
  367WAT      O 1311   3.892   2.555   0.090 -0.2612  0.0937  0.2934
  367WAT     H1 1312   3.821   2.521   0.035 -1.8658  0.9469  1.7643
  367WAT     H2 1313   3.971   2.539   0.038 -1.5700 -0.2721 -1.7091
  368WAT      O 1314   3.414   4.476   4.804 -0.2331 -0.3918  0.3089
  368WAT     H1 1315   3.436   4.547   4.744  1.3231  0.0422  1.3356
  368WAT     H2 1316   3.482   4.479   4.871 -0.3959 -2.5613  0.6553
  369WAT      O 1317   1.139   1.582   2.842  0.9647 -0.6754  0.3618
  369WAT     H1 1318   1.181   1.645   2.784 -3.1290  0.7003 -1.4643
  369WAT     H2 1319   1.144   1.498   2.795 -0.4695  0.0044 -1.0856
  370WAT      O 1320   4.246   0.206   0.435 -0.5405 -0.2876  0.2449
  370WAT     H1 1321   4.171   0.226   0.379 -3.1941 -1.2347  3.2055
  370WAT     H2 1322   4.265   0.288   0.480 -0.4259 -0.3180  0.2544
  371WAT      O 1323   4.306   2.013   5.314 -0.0133  0.2728  0.0535
  371WAT     H1 1324   4.217   2.042   5.293 -0.6626 -1.4919  0.2073
  371WAT     H2 1325   4.323   1.943   5.252  0.8018 -0.2337  0.8316
  372WAT      O 1326   2.413   2.912   1.017 -1.1141  0.4628  0.2804
  372WAT     H1 1327   2.475   2.944   1.083  1.0352 -1.3859 -0.7502
  372WAT     H2 1328   2.460   2.917   0.934 -2.0394 -1.6886 -0.4486
  373WAT      O 1329   2.127   0.480   2.314  0.1414 -0.1297  0.4811
  373WAT     H1 1330   2.054   0.450   2.260  2.9759 -1.4853 -3.0306
  373WAT     H2 1331   2.189   0.517   2.251  2.3186  1.3928  3.3109
  374WAT      O 1332   0.603   3.431   1.354  0.5011  0.1349 -0.3605
  374WAT     H1 1333   0.570   3.519   1.336  0.5309  0.0946 -0.6268
  374WAT     H2 1334   0.697   3.437   1.335  0.8871  0.5495  1.4968
  375WAT      O 1335   2.103   0.651   2.770 -1.1865  0.1506  0.5879
  375WAT     H1 1336   2.161   0.662   2.846 -0.1046  0.2216 -0.2118
  375WAT     H2 1337   2.126   0.724   2.712 -0.5039 -1.0425 -0.7095
  376WAT      O 1338   2.938   4.488   3.863  0.2868  0.2139 -0.3821
  376WAT     H1 1339   2.882   4.425   3.818 -1.7062  0.0466  2.1429
  376WAT     H2 1340   2.934   4.566   3.808 -0.6499 -0.5139 -1.3953
  377WAT      O 1341   3.122   4.605   5.107 -0.5052 -0.6288 -0.4103
  377WAT     H1 1342   3.173   4.678   5.142 -1.1856 -0.5043  0.3334
  377WAT     H2 1343   3.034   4.617   5.143 -0.6948 -1.6575 -0.4957
  378WAT      O 1344   2.960   0.968   2.317  0.2593  0.6727  0.1948
  378WAT     H1 1345   2.954   1.045   2.373  0.3311  0.6247  0.2702
  378WAT     H2 1346   3.044   0.929   2.340  0.0288  0.3274  0.4785
  379WAT      O 1347   4.207   4.107   1.680 -0.2352  0.1823  0.0153
  379WAT     H1 1348   4.283   4.134   1.627  0.7313 -3.5047 -0.7302
  379WAT     H2 1349   4.242   4.097   1.768 -0.2322 -0.0462 -0.0121
  380WAT      O 1350   2.893   1.161   1.334 -0.3430  0.1988 -0.3630
  380WAT     H1 1351   2.858   1.078   1.301 -0.9858 -0.1534  1.1548
  380WAT     H2 1352   2.982   1.140   1.363 -0.7507 -0.1269  0.6639
  381WAT      O 1353   3.375   2.005   2.929  0.4813 -0.6727 -0.3657
  381WAT     H1 1354   3.395   1.931   2.986 -2.0940  0.3482  2.1233
  381WAT     H2 1355   3.282   2.021   2.943  0.7943  2.6392 -1.2753
  382WAT      O 1356   2.222   2.595   2.687 -0.3908  0.0048 -0.1554
  382WAT     H1 1357   2.140   2.592   2.637 -0.6734  0.4113  0.2763
  382WAT     H2 1358   2.258   2.683   2.669  0.3102 -0.4219 -0.9031
  383WAT      O 1359   1.388   3.830   0.429  0.2576  0.5904 -0.2457
  383WAT     H1 1360   1.376   3.749   0.480  0.4793  1.6643  1.5852
  383WAT     H2 1361   1.308   3.880   0.444 -1.1749 -0.3435 -3.6274
  384WAT      O 1362   1.362   0.074   1.088 -0.0750 -0.3693  0.0207
  384WAT     H1 1363   1.333   0.026   1.011  0.8110  1.0696 -1.2527
  384WAT     H2 1364   1.331   0.022   1.162 -0.0776 -2.3048 -1.2901
  385WAT      O 1365   4.375   2.191   3.668 -0.0226 -0.4987 -0.2172
  385WAT     H1 1366   4.294   2.169   3.716 -0.6599  0.7646 -0.6921
  385WAT     H2 1367   4.375   2.130   3.594 -0.4825 -0.5951 -0.1465
  386WAT      O 1368   0.823   2.076   3.105  0.0743 -0.3916  0.2529
  386WAT     H1 1369   0.839   1.983   3.120  1.0683 -0.3146 -0.2479
  386WAT     H2 1370   0.902   2.120   3.136 -1.1445  0.4962  2.3102
  387WAT      O 1371   2.015   4.331   2.588 -0.1223  0.2537  0.0141
  387WAT     H1 1372   2.060   4.304   2.668 -2.3075 -0.5578  1.0471
  387WAT     H2 1373   1.966   4.410   2.613  0.0777  0.6700 -0.8588
  388WAT      O 1374   2.219   3.340   1.329  0.1884 -0.0874 -0.4385
  388WAT     H1 1375   2.217   3.397   1.251  2.1142  0.4430 -0.1369
  388WAT     H2 1376   2.172   3.261   1.301 -1.3691  1.0623 -1.3030
  389WAT      O 1377   0.527   0.111   2.786 -0.1488  0.7358  0.4703
  389WAT     H1 1378   0.433   0.102   2.795 -0.2886  1.7725  0.1994
  389WAT     H2 1379   0.539   0.162   2.705  0.7330 -1.4426 -0.8693
  390WAT      O 1380   1.890   4.556   2.709 -0.3568 -0.2297 -0.0156
  390WAT     H1 1381   1.803   4.554   2.669 -0.0009  0.8018 -0.9073
  390WAT     H2 1382   1.877   4.598   2.794 -0.9349 -1.3537  0.4731
  391WAT      O 1383   1.938   3.323   1.031  0.6535  0.5353 -0.2064
  391WAT     H1 1384   2.021   3.351   0.992  0.9210  0.3082  0.1974
  391WAT     H2 1385   1.929   3.378   1.109  0.1356  0.9649 -0.5592
  392WAT      O 1386   1.981   1.318   0.128 -0.2247 -0.4492 -0.4047
  392WAT     H1 1387   2.056   1.321   0.070 -0.7493 -1.2279 -1.1488
  392WAT     H2 1388   1.952   1.409   0.134 -0.2847 -0.3792 -1.5366
  393WAT      O 1389   1.235   0.996   0.963 -0.5683  0.4487 -0.0765
  393WAT     H1 1390   1.256   1.020   1.053 -1.1560  0.5057  0.0504
  393WAT     H2 1391   1.182   0.917   0.970 -2.2702  1.5215 -0.2403
  394WAT      O 1392   1.336   4.183   4.884  0.9368  0.2729 -0.2617
  394WAT     H1 1393   1.380   4.264   4.855 -0.5529  1.1424 -0.1635
  394WAT     H2 1394   1.334   4.128   4.806 -0.0061  1.2346 -0.9383
  395WAT      O 1395   2.380   1.424   1.763 -0.3701 -0.0040 -0.2209
  395WAT     H1 1396   2.462   1.465   1.734  0.0383 -1.6077 -1.4517
  395WAT     H2 1397   2.407   1.341   1.801 -1.4633 -0.8795 -1.2980
  396WAT      O 1398   1.160   4.087   0.099  0.6029  0.0817  0.3717
  396WAT     H1 1399   1.101   4.053   0.031  0.6484 -2.2911  1.4342
  396WAT     H2 1400   1.241   4.106   0.052  0.4410 -0.9537 -0.3624
  397WAT      O 1401   0.925   4.841   2.364  0.1791  0.4560  0.3863
  397WAT     H1 1402   0.869   4.820   2.439  1.4574 -1.9940  0.7252
  397WAT     H2 1403   0.913   4.768   2.303  1.3562  0.9725 -0.5053
  398WAT      O 1404   4.026   3.240   0.704 -0.1566 -0.3051  0.1165
  398WAT     H1 1405   4.012   3.334   0.702  1.3496 -0.0755 -0.3007
  398WAT     H2 1406   3.944   3.205   0.740 -1.1728  1.0504 -0.7725
  399WAT      O 1407   0.940   3.751   3.623 -0.1306  0.5550  0.2805
  399WAT     H1 1408   0.926   3.700   3.703  0.8590 -0.0427  0.0900
  399WAT     H2 1409   1.021   3.716   3.586 -1.5627 -0.5847 -2.0383
  400WAT      O 1410   2.034   5.125   0.341  0.1705 -0.6560 -0.3236
  400WAT     H1 1411   2.123   5.157   0.354  0.7980 -1.9180 -1.2869
  400WAT     H2 1412   2.041   5.063   0.268 -1.8528  0.7619 -1.8611
  401WAT      O 1413   3.840   2.865   0.279  0.5474 -0.1444  0.1352
  401WAT     H1 1414   3.855   2.770   0.271  2.0051 -0.2537  2.9128
  401WAT     H2 1415   3.770   2.872   0.344  1.9143  0.6294  1.5992
  402WAT      O 1416   4.234   0.924   4.632 -0.0635 -0.2631 -0.3534
  402WAT     H1 1417   4.305   0.860   4.625  0.2759 -0.5489  3.6256
  402WAT     H2 1418   4.159   0.874   4.662  0.2381  1.0399  2.9369
  403WAT      O 1419   2.342   1.603   1.168 -0.2037 -0.4321  0.3732
  403WAT     H1 1420   2.251   1.577   1.181 -0.1617 -0.8109 -0.0752
  403WAT     H2 1421   2.389   1.521   1.155 -0.2248 -0.1425 -2.0274
  404WAT      O 1422   0.261   1.882   1.823  0.2678  0.8538  0.0717
  404WAT     H1 1423   0.316   1.804   1.831 -0.3408  0.3611 -0.3994
  404WAT     H2 1424   0.308   1.938   1.762  1.8492  1.8952  2.1433
  405WAT      O 1425   3.798   2.195   4.761 -0.1983 -0.1593 -0.3406
  405WAT     H1 1426   3.801   2.183   4.666  1.3531  0.3187 -0.3902
  405WAT     H2 1427   3.846   2.277   4.776 -1.6172  0.5207  0.7656
  406WAT      O 1428   0.681   0.994   3.060  0.2425  0.5131 -0.2830
  406WAT     H1 1429   0.644   0.932   3.123  1.5149  1.9638  2.0592
  406WAT     H2 1430   0.605   1.031   3.015 -0.7006 -0.7468  0.2205
  407WAT      O 1431   1.397   2.249   0.568  1.0132 -0.0458  0.2270
  407WAT     H1 1432   1.457   2.187   0.609  0.4102 -0.2996  0.7270
  407WAT     H2 1433   1.346   2.197   0.506 -0.5724 -0.4018  1.7443
  408WAT      O 1434   0.081   2.523   0.210 -0.1141 -0.3158 -0.2008
  408WAT     H1 1435  -0.013   2.516   0.194  0.0557 -0.5314 -1.1653
  408WAT     H2 1436   0.105   2.610   0.175  0.2212 -0.6900 -0.9290
  409WAT      O 1437   2.695   2.071   4.675 -0.1185  0.0134 -0.4622
  409WAT     H1 1438   2.689   2.111   4.762  1.0246 -1.5052  0.3767
  409WAT     H2 1439   2.761   2.123   4.630  0.0620  0.1696 -0.0297
  410WAT      O 1440   0.543   4.602   2.109  0.7367 -0.0760 -0.5913
  410WAT     H1 1441   0.578   4.677   2.158  0.0815  0.4093 -0.8604
  410WAT     H2 1442   0.618   4.542   2.102  1.6261  1.0728 -1.4224
  411WAT      O 1443   2.651   0.008   2.313  0.0863  0.6482  0.0157
  411WAT     H1 1444   2.629   0.101   2.311 -1.5030  0.2848 -0.9396
  411WAT     H2 1445   2.568  -0.036   2.330  0.3542 -0.7096 -1.8355
  412WAT      O 1446   2.663   3.042   5.230 -0.4443 -0.1291  0.0006
  412WAT     H1 1447   2.702   3.032   5.144 -0.9891  2.7879 -0.7049
  412WAT     H2 1448   2.701   3.124   5.264 -0.6220 -0.9236  2.3331
  413WAT      O 1449   2.326   0.304   2.186 -0.2183  0.6551  0.3918
  413WAT     H1 1450   2.304   0.368   2.118 -0.6179  0.1176  0.0188
  413WAT     H2 1451   2.269   0.230   2.170 -1.9883  1.3765  2.6753
  414WAT      O 1452   3.040   4.917   2.544  0.3180  0.5907 -0.4543
  414WAT     H1 1453   3.016   4.874   2.626  0.3955  0.3117 -0.5758
  414WAT     H2 1454   3.003   5.005   2.551  0.9405  0.8125  0.1920
  415WAT      O 1455   1.936   5.047   5.115  0.3680 -0.0510  0.1439
  415WAT     H1 1456   2.031   5.050   5.122  0.5344 -1.6213 -0.9671
  415WAT     H2 1457   1.918   5.072   5.024 -0.3188  0.5422  0.4305
  416WAT      O 1458   2.150   0.920   4.618 -0.7207  0.0917  0.2329
  416WAT     H1 1459   2.230   0.920   4.671 -0.1390  0.0108 -0.6257
  416WAT     H2 1460   2.133   1.012   4.600 -0.0521  0.0412 -0.7041
  417WAT      O 1461   0.643   0.282   0.471 -0.0360  0.3677  0.4377
  417WAT     H1 1462   0.549   0.298   0.469 -0.1384 -0.3028 -0.5207
  417WAT     H2 1463   0.664   0.247   0.385  0.5002 -2.6446  1.6521
  418WAT      O 1464   0.487   2.756   1.095 -0.1477 -0.1524 -0.6371
  418WAT     H1 1465   0.517   2.721   1.179 -1.9636  0.3940  0.3001
  418WAT     H2 1466   0.433   2.686   1.058 -0.3950  0.0886 -0.7390
  419WAT      O 1467   0.050   1.446   4.933 -0.2259 -0.3638  0.0616
  419WAT     H1 1468   0.090   1.515   4.880  0.3702 -0.4991  0.3317
  419WAT     H2 1469  -0.022   1.490   4.979  0.3536  0.1505  0.4813
  420WAT      O 1470   1.399   4.181   0.313 -0.2760  0.4399 -0.2502
  420WAT     H1 1471   1.430   4.096   0.282 -1.0757  0.4170 -1.0374
  420WAT     H2 1472   1.352   4.162   0.393 -1.4402 -0.0402 -1.0237
  421WAT      O 1473   0.550   1.345   1.338 -0.2158 -0.3974 -0.4276
  421WAT     H1 1474   0.479   1.281   1.327  0.2971 -0.9885 -0.3483
  421WAT     H2 1475   0.612   1.302   1.397 -0.2618  0.5147  0.3256
  422WAT      O 1476   0.151   3.884   4.040 -0.2633 -0.7619 -0.0378
  422WAT     H1 1477   0.240   3.850   4.052 -0.4939 -0.9794  1.1667
  422WAT     H2 1478   0.160   3.951   3.972  1.1918  0.5177  1.3264
  423WAT      O 1479   4.106   2.972   5.081 -0.3553  0.3055  0.5284
  423WAT     H1 1480   4.115   2.931   5.167  0.1727  0.9549  0.7931
  423WAT     H2 1481   4.046   3.045   5.096  0.7514  1.2285  0.6616
  424WAT      O 1482   4.418   4.637   3.251 -0.2849  0.5723 -0.0406
  424WAT     H1 1483   4.338   4.589   3.229  0.0647 -0.0388  0.0087
  424WAT     H2 1484   4.392   4.694   3.324 -0.9033  1.0573 -0.6230
  425WAT      O 1485   1.825   1.326   1.613 -0.2345  0.1762 -0.0969
  425WAT     H1 1486   1.735   1.344   1.587 -0.0630  1.0466 -0.1273
  425WAT     H2 1487   1.859   1.411   1.641  1.5087  0.5433 -2.9614
  426WAT      O 1488   3.484   1.200   5.284  0.1805 -0.7500  0.1236
  426WAT     H1 1489   3.401   1.246   5.298  0.8826  0.9186 -0.8439
  426WAT     H2 1490   3.459   1.115   5.248 -1.1485 -0.9306  1.3851
  427WAT      O 1491   2.216   4.207   3.182 -0.1428 -0.2853  0.4050
  427WAT     H1 1492   2.207   4.303   3.187  1.0406 -0.0406 -1.2323
  427WAT     H2 1493   2.129   4.174   3.202 -0.2691  1.0389  2.4231
  428WAT      O 1494   4.155   3.257   3.524  0.2957 -0.1057  0.6743
  428WAT     H1 1495   4.125   3.348   3.516 -0.2787 -0.2436  1.1409
  428WAT     H2 1496   4.226   3.249   3.461 -0.9267  0.1159 -0.7874
  429WAT      O 1497   0.053   3.899   4.937 -0.1029  0.6112  0.3686
  429WAT     H1 1498   0.114   3.842   4.985  0.3215  0.9273  0.2118
  429WAT     H2 1499  -0.006   3.839   4.893  0.7487  0.2592 -0.3354
  430WAT      O 1500   2.491   4.441   1.663 -0.1941  0.5284  0.1938
  430WAT     H1 1501   2.450   4.515   1.708  0.0952  1.2266 -0.6738
  430WAT     H2 1502   2.533   4.479   1.586  0.8134 -0.3940  0.2618
  431WAT      O 1503   1.671   1.981   2.692 -0.4112 -0.2130  0.0685
  431WAT     H1 1504   1.738   2.043   2.720  3.4055 -1.3809 -5.0706
  431WAT     H2 1505   1.641   1.940   2.773  4.0337  1.4404  2.9099
  432WAT      O 1506   4.133   4.778   0.967  0.1172 -0.6455 -0.4175
  432WAT     H1 1507   4.197   4.848   0.982  0.3179 -1.1205  1.0011
  432WAT     H2 1508   4.049   4.823   0.968  0.2675 -0.3694  0.1274
  433WAT      O 1509   4.034   0.757   4.668  0.0655 -0.4588  0.0584
  433WAT     H1 1510   3.956   0.772   4.615 -0.1606 -1.3586  0.1162
  433WAT     H2 1511   4.048   0.663   4.664  0.0146 -0.5675  1.6411
  434WAT      O 1512   3.402   2.476   1.289 -0.1984  0.3833 -0.4194
  434WAT     H1 1513   3.400   2.381   1.279 -0.3781  0.2533  0.7788
  434WAT     H2 1514   3.399   2.509   1.199 -1.7412 -0.7082 -0.8122
  435WAT      O 1515   2.144   0.065   2.505  0.0601 -0.1148  0.2449
  435WAT     H1 1516   2.228   0.064   2.460 -0.6821  0.7284 -1.2430
  435WAT     H2 1517   2.094  -0.005   2.463 -0.1347 -0.3224  0.8149
  436WAT      O 1518   1.089   2.630   2.393  0.0227 -0.0805 -0.5870
  436WAT     H1 1519   1.110   2.713   2.435 -0.8775 -0.7154  1.2044
  436WAT     H2 1520   1.163   2.573   2.414 -1.6191 -1.2619  2.7662
  437WAT      O 1521   1.828   3.892   0.992  0.4569 -0.4559  0.4375
  437WAT     H1 1522   1.795   3.832   1.059 -0.2301 -0.1188  0.4106
  437WAT     H2 1523   1.783   3.975   1.010  2.9506  0.7211  1.8138
  438WAT      O 1524   1.865   0.136   3.762  0.0011 -0.5638 -0.3389
  438WAT     H1 1525   1.776   0.137   3.726  0.0092 -2.6082 -0.5493
  438WAT     H2 1526   1.862   0.068   3.829  1.0004  0.5155  0.8499
  439WAT      O 1527   2.926   4.298   2.287 -0.0316 -0.0263  0.3936
  439WAT     H1 1528   2.893   4.372   2.235  0.9419 -0.1144 -0.3875
  439WAT     H2 1529   2.848   4.248   2.310 -0.7782  1.4730  1.3455
  440WAT      O 1530   0.727   4.846   1.738 -0.3827  0.4811  0.4216
  440WAT     H1 1531   0.739   4.760   1.779  2.1138  0.6484  0.2233
  440WAT     H2 1532   0.665   4.830   1.666  0.5411 -1.3321 -0.0354
  441WAT      O 1533   3.365   3.356   4.600 -0.2032  0.9106 -1.0319
  441WAT     H1 1534   3.307   3.399   4.536  0.8184 -0.0469 -2.6611
  441WAT     H2 1535   3.327   3.269   4.612 -0.4277  1.1082 -0.2550
  442WAT      O 1536   2.518   3.541   4.954  0.1064  0.1784  0.1754
  442WAT     H1 1537   2.469   3.614   4.918  0.7780  1.2117  1.2924
  442WAT     H2 1538   2.456   3.499   5.015 -0.0389  0.2510  0.0792
  443WAT      O 1539   3.158   2.810   1.172 -0.2994 -0.4093 -0.4829
  443WAT     H1 1540   3.231   2.867   1.198 -0.7560 -0.2474  0.5050
  443WAT     H2 1541   3.162   2.808   1.076 -0.4583  1.5688 -0.5830
  444WAT      O 1542   2.236   4.876   2.685 -0.5148 -0.4957 -0.2152
  444WAT     H1 1543   2.262   4.852   2.774  0.0197 -0.4203 -0.3480
  444WAT     H2 1544   2.140   4.872   2.686 -0.5170 -0.3811  0.3953
  445WAT      O 1545   3.785   1.763   1.469  0.1174  0.6384 -0.4112
  445WAT     H1 1546   3.868   1.812   1.467  1.3407 -1.3113 -2.2568
  445WAT     H2 1547   3.726   1.814   1.415  0.0471  2.1059  0.9959
  446WAT      O 1548   1.094   0.495   3.210 -0.1129 -0.1748 -0.3835
  446WAT     H1 1549   1.024   0.440   3.244  0.1336 -0.1452  0.1971
  446WAT     H2 1550   1.120   0.454   3.128  0.3419 -1.1774  0.2418
  447WAT      O 1551   1.180   0.633   3.426  0.1578 -0.1344  0.4953
  447WAT     H1 1552   1.251   0.568   3.421  1.1125  1.0047 -2.7326
  447WAT     H2 1553   1.120   0.608   3.356 -0.7337  1.0767  0.8043
  448WAT      O 1554   3.987   2.715   3.734  0.2899 -0.3240 -0.1533
  448WAT     H1 1555   3.927   2.710   3.659  0.2715  2.8313 -0.4564
  448WAT     H2 1556   3.953   2.787   3.787  2.7311  0.2936  0.6768
  449WAT      O 1557   0.917   3.597   2.091  0.7383  0.1115 -0.1861
  449WAT     H1 1558   0.917   3.678   2.141  0.6160  0.4191 -0.6795
  449WAT     H2 1559   0.827   3.585   2.063  0.1680 -1.6202  2.1317
  450WAT      O 1560   4.251   1.962   1.101 -0.2170 -0.2534 -0.6702
  450WAT     H1 1561   4.244   1.935   1.010 -2.8758 -0.6508 -0.4200
  450WAT     H2 1562   4.338   1.932   1.129  0.0276 -1.4867 -2.6211
  451WAT      O 1563   2.722   3.195   4.276  0.3880  0.4569 -0.0147
  451WAT     H1 1564   2.735   3.108   4.238 -1.0789  0.1195  0.2011
  451WAT     H2 1565   2.669   3.242   4.212 -1.3530  0.1810  1.1429
  452WAT      O 1566   0.224   0.251   1.140 -0.3691  0.5506  0.8470
  452WAT     H1 1567   0.207   0.316   1.209 -1.0238  1.0953  0.1931
  452WAT     H2 1568   0.309   0.276   1.105  0.2331 -0.0723  1.8187
  453WAT      O 1569   2.883   2.464   2.538  0.0261  0.4573 -0.0516
  453WAT     H1 1570   2.791   2.487   2.545 -0.3155 -0.8967  0.3904
  453WAT     H2 1571   2.896   2.399   2.608  1.2638  0.4980 -0.2216
  454WAT      O 1572   2.864   1.322   0.273  0.8640 -0.4532  0.2021
  454WAT     H1 1573   2.777   1.283   0.283  1.2157 -1.7942 -1.5020
  454WAT     H2 1574   2.924   1.248   0.274  1.8984  0.3608  0.3328
  455WAT      O 1575   3.282   2.394   1.965 -0.3587 -0.4920 -0.3139
  455WAT     H1 1576   3.357   2.429   1.917 -0.8451 -0.3533 -0.9796
  455WAT     H2 1577   3.211   2.389   1.901 -1.0515 -0.2160  0.4061
  456WAT      O 1578   2.776   0.557   4.043  0.1716  0.1924  0.2310
  456WAT     H1 1579   2.687   0.564   4.078  0.5073 -1.0954  1.4249
  456WAT     H2 1580   2.802   0.467   4.062  1.9338  0.7001  0.3633
  457WAT      O 1581   2.748   3.102   4.514  0.0380  0.1140 -0.0205
  457WAT     H1 1582   2.661   3.127   4.544  0.8443  0.9008  1.8430
  457WAT     H2 1583   2.754   3.136   4.424 -1.1442  1.0817  0.2519
  458WAT      O 1584   1.242   2.452   3.364  0.4273  0.0128 -0.3822
  458WAT     H1 1585   1.280   2.383   3.418 -1.1378 -1.5904 -1.2053
  458WAT     H2 1586   1.256   2.532   3.414 -2.2914 -1.4923  3.2696
  459WAT      O 1587   2.841   4.621   5.059 -0.5712  0.3974 -0.1485
  459WAT     H1 1588   2.764   4.584   5.016  0.6482 -0.6458 -1.5532
  459WAT     H2 1589   2.821   4.617   5.153 -1.4957 -1.6191 -0.3822
  460WAT      O 1590   2.799   0.800   2.627 -0.0677  0.4878  0.2860
  460WAT     H1 1591   2.770   0.719   2.668 -0.8148  0.5487 -0.1194
  460WAT     H2 1592   2.887   0.780   2.593 -0.9230 -0.7024 -1.3445
  461WAT      O 1593   0.731   3.563   2.851 -0.1210  0.1112  0.7020
  461WAT     H1 1594   0.822   3.538   2.859  0.3898  1.1529 -1.1789
  461WAT     H2 1595   0.686   3.483   2.823  0.9808  0.4650 -2.4102
  462WAT      O 1596   0.135   4.689   2.205  0.3555 -0.5311 -0.1300
  462WAT     H1 1597   0.042   4.688   2.229  0.8567  1.6263  2.3629
  462WAT     H2 1598   0.138   4.735   2.122 -0.7551  0.0035  0.1078
  463WAT      O 1599   1.835   3.148   4.886 -0.3089  0.1054 -0.5269
  463WAT     H1 1600   1.773   3.097   4.834 -0.2240  0.6307 -1.1485
  463WAT     H2 1601   1.853   3.092   4.962 -2.4669  0.4148  0.3056
  464WAT      O 1602   2.166   2.131   2.513  0.1897  0.3021  0.1166
  464WAT     H1 1603   2.099   2.191   2.545 -0.2276 -0.2568  0.3012
  464WAT     H2 1604   2.118   2.066   2.461  0.8653  1.3630 -1.9537
  465WAT      O 1605   2.959   4.046   0.620 -0.7927  0.2632 -0.7133
  465WAT     H1 1606   2.867   4.050   0.646 -1.1859 -1.3999 -1.6846
  465WAT     H2 1607   2.960   4.082   0.531 -0.4941  0.3155 -0.6894
  466WAT      O 1608   2.341   2.915   4.053  0.4905 -0.1118  0.3311
  466WAT     H1 1609   2.312   2.989   4.107  0.5237  0.8412 -0.9215
  466WAT     H2 1610   2.436   2.923   4.051  0.4739  0.0269 -0.0799
  467WAT      O 1611   3.584   1.316   5.060 -0.5766 -0.0472  0.0950
  467WAT     H1 1612   3.558   1.286   5.147 -0.7000  1.4294  0.5877
  467WAT     H2 1613   3.502   1.324   5.012 -0.8045  1.7627  0.7238
  468WAT      O 1614   3.369   0.987   0.603 -0.3260  0.5442  0.2787
  468WAT     H1 1615   3.282   0.966   0.635  0.7331  0.0035  3.0219
  468WAT     H2 1616   3.392   1.069   0.646  0.6905  0.4833 -0.1123
  469WAT      O 1617   1.229   2.303   3.128 -0.0656  0.1576  0.3111
  469WAT     H1 1618   1.230   2.353   3.209  2.3664  0.4026  0.2065
  469WAT     H2 1619   1.203   2.214   3.154  1.9763 -0.1212  1.6599
  470WAT      O 1620   4.172   3.837   2.018 -0.7314 -0.2161 -0.2886
  470WAT     H1 1621   4.244   3.891   2.051 -0.5487 -0.4246 -0.3441
  470WAT     H2 1622   4.182   3.840   1.923  0.0555 -1.3940 -0.2593
  471WAT      O 1623   4.167   2.391   4.677  0.7848  0.6820 -1.2683
  471WAT     H1 1624   4.159   2.462   4.742 -1.4879 -0.3495 -0.2890
  471WAT     H2 1625   4.087   2.399   4.625  0.2878 -1.3481 -0.8890
  472WAT      O 1626   4.139   0.022   4.158 -0.7598  0.0843 -0.8913
  472WAT     H1 1627   4.085   0.100   4.171  0.5031  1.1601 -1.8663
  472WAT     H2 1628   4.129  -0.028   4.239 -1.8968  1.0597 -0.4022
  473WAT      O 1629   1.251   2.796   0.516  0.1357  0.0828 -0.1110
  473WAT     H1 1630   1.312   2.812   0.588 -0.9615 -0.5102  0.9894
  473WAT     H2 1631   1.261   2.703   0.497  1.4740  0.5164 -1.7615
  474WAT      O 1632   3.771   4.439   1.853 -0.7288 -0.0276  0.1315
  474WAT     H1 1633   3.761   4.409   1.762  1.2697 -1.2244  0.2547
  474WAT     H2 1634   3.746   4.532   1.850 -1.9325 -0.3498 -1.3565
  475WAT      O 1635   1.200   0.830   2.747 -0.2151 -0.0295  0.2804
  475WAT     H1 1636   1.240   0.861   2.828 -0.6613  0.5906  0.2650
  475WAT     H2 1637   1.247   0.748   2.728  0.8406  0.5232  0.4154
  476WAT      O 1638   2.013   2.797   3.854 -0.5388 -0.2983 -0.2432
  476WAT     H1 1639   1.918   2.800   3.845 -0.5507  0.8742  0.1507
  476WAT     H2 1640   2.033   2.865   3.918  0.5618 -0.5814 -0.2761
  477WAT      O 1641   4.495   2.291   2.855  0.5110 -0.5812  0.1693
  477WAT     H1 1642   4.435   2.242   2.799  2.1300 -0.1836 -2.0284
  477WAT     H2 1643   4.502   2.377   2.815  3.9392 -1.1762 -0.8521
  478WAT      O 1644   3.852   0.179   5.071 -0.4348  0.1913 -0.0901
  478WAT     H1 1645   3.929   0.233   5.056 -0.4968 -0.1600 -1.8627
  478WAT     H2 1646   3.886   0.089   5.070 -0.6863  0.0884  0.4107
  479WAT      O 1647   1.594   1.833   5.271 -0.0845  0.0549  0.5164
  479WAT     H1 1648   1.605   1.928   5.273 -0.3400  0.1793 -1.5866
  479WAT     H2 1649   1.683   1.799   5.281  0.0772  0.5149  0.6863
  480WAT      O 1650   2.249   0.668   3.988  0.1465  0.2464  0.3735
  480WAT     H1 1651   2.184   0.738   3.983  0.4003  0.4197 -0.7015
  480WAT     H2 1652   2.333   0.713   3.976  0.3842 -0.1155  0.6580
  481WAT      O 1653   2.112   3.966   1.625 -0.2188 -0.0895  0.1720
  481WAT     H1 1654   2.186   4.024   1.638  0.2009 -0.5264 -0.2364
  481WAT     H2 1655   2.087   3.938   1.713 -1.4740  1.9579  0.5512
  482WAT      O 1656   2.332   1.820   0.210  0.8337  0.8067  0.4230
  482WAT     H1 1657   2.339   1.899   0.156 -0.3381  0.8229  0.2745
  482WAT     H2 1658   2.405   1.827   0.272  0.5482  2.1783  0.6349
  483WAT      O 1659   0.954   1.657   3.423  0.3498  0.7519 -0.3294
  483WAT     H1 1660   0.879   1.663   3.363  1.3284 -1.3577 -1.8835
  483WAT     H2 1661   1.013   1.726   3.395 -0.0504  1.0040 -0.5573
  484WAT      O 1662   0.879   4.382   3.118  0.2534 -0.0324  0.3059
  484WAT     H1 1663   0.955   4.430   3.085  1.0074 -0.5375  1.2405
  484WAT     H2 1664   0.823   4.450   3.155 -0.5235  0.5211 -1.7752
  485WAT      O 1665   3.465   2.636   1.502  0.6110  0.6099  0.2110
  485WAT     H1 1666   3.560   2.630   1.491  0.7179  3.1228 -1.0455
  485WAT     H2 1667   3.429   2.575   1.438  1.3289 -0.8161  1.1150
  486WAT      O 1668   2.449   2.179   0.461 -0.1275  0.2567 -0.3216
  486WAT     H1 1669   2.493   2.143   0.384 -0.6626  2.3729 -1.7233
  486WAT     H2 1670   2.517   2.228   0.507  0.3035 -1.4040  0.8622
  487WAT      O 1671   3.290   4.200   0.663 -1.1233  0.7046 -0.6505
  487WAT     H1 1672   3.222   4.246   0.612 -0.8933  1.6521 -0.1329
  487WAT     H2 1673   3.372   4.235   0.629 -0.9732  1.8205  0.7508
  488WAT      O 1674   2.628   4.641   0.363 -0.0778  0.1918  0.0383
  488WAT     H1 1675   2.665   4.554   0.350 -0.0890  0.2527 -0.4146
  488WAT     H2 1676   2.554   4.627   0.423 -1.3749 -0.4327 -1.6453
  489WAT      O 1677   0.952   2.099   0.232  0.1492  0.0476 -0.3504
  489WAT     H1 1678   1.021   2.060   0.179  1.4707  1.2710  0.3927
  489WAT     H2 1679   0.985   2.186   0.255 -1.6912  0.7267 -0.0502
  490WAT      O 1680   2.780   4.962   0.422 -0.3935  0.5375  0.3932
  490WAT     H1 1681   2.822   4.977   0.506 -0.6275  1.5946  0.3392
  490WAT     H2 1682   2.785   4.868   0.408  0.8696  0.5162  0.9412
  491WAT      O 1683   0.480   0.960   2.639  0.5430 -0.7651 -0.3270
  491WAT     H1 1684   0.548   0.952   2.573  2.2617  1.5593  1.0168
  491WAT     H2 1685   0.477   0.875   2.682  3.8291 -0.5130  0.6348
  492WAT      O 1686   2.980   4.733   3.752 -0.0898 -0.0174 -0.2183
  492WAT     H1 1687   2.928   4.811   3.775 -1.2174 -0.5408 -0.9042
  492WAT     H2 1688   3.069   4.766   3.743 -0.0297  0.7066  2.1382
  493WAT      O 1689   4.308   3.085   2.391 -0.2047 -0.0226 -0.0428
  493WAT     H1 1690   4.343   3.174   2.392  1.3098 -0.5834  0.5831
  493WAT     H2 1691   4.256   3.081   2.311  1.4654  0.7919 -1.2271
  494WAT      O 1692   3.199   1.270   5.081 -0.2149  0.0693 -0.3073
  494WAT     H1 1693   3.247   1.286   5.000  0.8936 -0.4570  0.2292
  494WAT     H2 1694   3.107   1.281   5.056  0.0109 -1.2463 -1.9247
  495WAT      O 1695   3.459   1.571   2.873 -0.4815  0.1036  0.1280
  495WAT     H1 1696   3.414   1.495   2.837  0.1403 -0.4878  0.5844
  495WAT     H2 1697   3.470   1.551   2.966 -2.2682  1.7055  0.7379
  496WAT      O 1698   2.630   2.560   1.936  0.2998 -0.0186 -0.5061
  496WAT     H1 1699   2.572   2.588   1.866 -2.7791 -0.4664  1.6467
  496WAT     H2 1700   2.625   2.464   1.935  2.0574 -0.1417 -1.0220
  497WAT      O 1701   0.985   4.983   3.070 -0.2950 -0.5691  0.0424
  497WAT     H1 1702   0.958   4.938   2.990 -1.9826 -0.2605  0.4054
  497WAT     H2 1703   1.023   5.065   3.039 -1.5049 -0.1688 -0.4495
  498WAT      O 1704   3.621   3.291   4.504 -0.1653 -0.0157 -0.1649
  498WAT     H1 1705   3.544   3.234   4.513  0.2820 -0.4409  1.3636
  498WAT     H2 1706   3.599   3.367   4.559  1.1170 -0.8710  1.6303
  499WAT      O 1707   3.832   3.856   1.700  0.2488  0.2167  0.4060
  499WAT     H1 1708   3.894   3.901   1.757  0.8947 -1.6613  1.2702
  499WAT     H2 1709   3.762   3.827   1.759  0.0609 -0.2712 -0.0519
  500WAT      O 1710   3.839   1.417   3.357 -0.0499  0.2659  0.2006
  500WAT     H1 1711   3.887   1.496   3.332  2.1969 -0.9386  0.4283
  500WAT     H2 1712   3.824   1.427   3.451  1.8213 -0.3158  0.5974
  501WAT      O 1713   0.455   1.525   2.644 -0.4034 -0.0526 -0.2453
  501WAT     H1 1714   0.429   1.488   2.560  1.2605 -1.1608 -0.3195
  501WAT     H2 1715   0.421   1.614   2.642  0.4696  0.3126 -2.5631
  502WAT      O 1716   4.544   2.843   1.615 -0.3891  0.3913 -0.1919
  502WAT     H1 1717   4.467   2.830   1.669 -0.5257 -3.1278 -1.0261
  502WAT     H2 1718   4.511   2.841   1.525  0.5532 -0.4984 -0.5410
  503WAT      O 1719   3.560   1.696   3.786  0.4132  0.5126 -0.1306
  503WAT     H1 1720   3.492   1.751   3.747  0.4533 -0.0059 -0.9592
  503WAT     H2 1721   3.585   1.636   3.716  0.4330 -0.5031  0.7223
  504WAT      O 1722   3.028   2.405   3.357 -0.5055  0.3270 -0.0385
  504WAT     H1 1723   3.030   2.467   3.430  2.8578 -0.1198  0.4360
  504WAT     H2 1724   3.036   2.460   3.279  1.4934  0.6508  0.3297
  505WAT      O 1725   2.241   4.773   0.112  0.1204  0.5068  0.1922
  505WAT     H1 1726   2.162   4.775   0.058  0.5402  1.2410 -0.4144
  505WAT     H2 1727   2.216   4.722   0.189 -0.7990  0.3250 -0.2124
  506WAT      O 1728   1.671   3.784   2.237 -0.2696 -0.7327 -0.0197
  506WAT     H1 1729   1.709   3.712   2.288 -1.6094 -0.9860  0.6866
  506WAT     H2 1730   1.628   3.741   2.163 -1.2461 -0.7050  0.5115
  507WAT      O 1731   0.225   2.014   2.708 -0.6281  0.0658  0.2604
  507WAT     H1 1732   0.168   2.039   2.636 -1.6678 -0.9553  0.6999
  507WAT     H2 1733   0.219   2.087   2.770  0.4295  1.0372 -0.7499
  508WAT      O 1734   1.175   4.966   1.769  0.0523  0.4412 -0.3429
  508WAT     H1 1735   1.173   5.013   1.686 -0.8478  1.4730  0.2344
  508WAT     H2 1736   1.178   4.874   1.744  2.6100  0.7546 -1.5058
  509WAT      O 1737   4.011   1.121   4.623  0.3599 -0.1018 -0.2044
  509WAT     H1 1738   4.073   1.053   4.596 -1.2687 -1.5118 -0.5721
  509WAT     H2 1739   3.973   1.153   4.542  1.8730  2.1074 -0.1267
  510WAT      O 1740   0.123   1.781   4.568 -0.2884 -0.2112 -0.3544
  510WAT     H1 1741   0.106   1.697   4.525  1.0422 -0.6923  0.0042
  510WAT     H2 1742   0.036   1.817   4.586 -0.8750 -0.9193 -1.6364
  511WAT      O 1743   0.462   4.374   3.059 -0.1671  0.1114  0.2681
  511WAT     H1 1744   0.374   4.411   3.072  0.3618  1.5165 -0.0176
  511WAT     H2 1745   0.493   4.413   2.978  0.5613 -0.7252  0.1286
  512WAT      O 1746   2.579   4.965   3.729 -0.2125  1.0441 -0.0444
  512WAT     H1 1747   2.605   4.995   3.816  2.7129  0.9481 -0.7748
  512WAT     H2 1748   2.533   5.040   3.691  1.3978  2.3537  0.4475
  513WAT      O 1749   0.609   1.497   4.873  0.0189 -0.0070  0.0137
  513WAT     H1 1750   0.686   1.440   4.871 -0.0992 -0.2951  1.8414
  513WAT     H2 1751   0.571   1.483   4.960 -1.3660  1.1019 -0.3723
  514WAT      O 1752   3.408   2.240   0.208  0.1203 -0.0878  0.6343
  514WAT     H1 1753   3.441   2.240   0.298  1.2535  0.9032  0.2560
  514WAT     H2 1754   3.428   2.328   0.175 -0.0877 -0.4952 -0.6523
  515WAT      O 1755   1.571   2.504   3.061 -0.1453 -0.0595 -0.4642
  515WAT     H1 1756   1.571   2.575   3.125 -3.1345 -0.4674  0.1305
  515WAT     H2 1757   1.479   2.485   3.045  0.4932 -3.3648 -1.0948
  516WAT      O 1758   0.301   0.686   0.570  0.6446  0.0263 -0.4158
  516WAT     H1 1759   0.211   0.716   0.557 -0.2524 -2.0575  0.4152
  516WAT     H2 1760   0.328   0.726   0.653  0.0176 -0.2665 -0.0557
  517WAT      O 1761   4.381   4.709   2.742 -0.0843 -0.7516 -0.2317
  517WAT     H1 1762   4.370   4.651   2.818 -1.7702 -0.1962  0.0009
  517WAT     H2 1763   4.295   4.706   2.698  0.2193  0.5481 -0.9479
  518WAT      O 1764   1.696   1.120   0.596 -0.3704  0.0894  0.4308
  518WAT     H1 1765   1.777   1.143   0.551 -0.6344 -2.3959 -1.5492
  518WAT     H2 1766   1.639   1.197   0.582  1.0069  1.1167  0.2725
  519WAT      O 1767   2.935   4.435   0.146  0.1560  0.5886  0.2947
  519WAT     H1 1768   2.873   4.437   0.074  0.0469 -0.4157  0.3444
  519WAT     H2 1769   3.012   4.390   0.111 -0.4024 -1.1201  1.1584
  520WAT      O 1770   0.941   1.737   1.806 -0.5462 -0.1616  0.5239
  520WAT     H1 1771   0.863   1.777   1.768 -0.6895  0.3281  1.3048
  520WAT     H2 1772   0.983   1.692   1.733 -1.6639 -0.6026  0.1301
  521WAT      O 1773   3.979   1.732   3.536 -0.1922  0.1373 -0.3547
  521WAT     H1 1774   3.986   1.806   3.475  1.4205 -1.0011 -1.6374
  521WAT     H2 1775   4.063   1.688   3.530 -0.3968 -0.6821  1.9048
  522WAT      O 1776   2.337   1.787   0.600  0.2991  0.1848 -0.0620
  522WAT     H1 1777   2.251   1.759   0.568 -0.0524  1.2524 -0.0809
  522WAT     H2 1778   2.391   1.708   0.596 -0.6309 -0.4570 -0.2207
  523WAT      O 1779   3.438   3.414   1.968  0.0878  0.0845  0.0553
  523WAT     H1 1780   3.476   3.346   1.913  0.0360  0.9857 -1.1533
  523WAT     H2 1781   3.486   3.409   2.050  3.6134  1.7496 -1.6775
  524WAT      O 1782   2.542   4.171   3.536 -0.2554  0.0469 -0.3182
  524WAT     H1 1783   2.523   4.189   3.628 -1.4297 -0.3765 -0.4633
  524WAT     H2 1784   2.532   4.256   3.493  1.0999  0.4150  0.0523
  525WAT      O 1785   4.426   3.478   0.575  0.4301  0.2342  0.0660
  525WAT     H1 1786   4.419   3.563   0.618 -2.7185  1.0080 -1.6564
  525WAT     H2 1787   4.399   3.415   0.641 -2.1672  1.1716  0.0023
  526WAT      O 1788   1.674   2.986   4.083  0.3632  0.2904 -0.2805
  526WAT     H1 1789   1.645   3.058   4.139 -0.3276  1.3289 -1.8737
  526WAT     H2 1790   1.638   2.908   4.124 -1.3316  1.1577 -0.0082
  527WAT      O 1791   0.059   1.284   2.658  0.5664  0.3292  0.0509
  527WAT     H1 1792  -0.025   1.239   2.645  1.3806 -0.7413 -2.2075
  527WAT     H2 1793   0.120   1.214   2.681  1.0652  0.9255  0.5832
  528WAT      O 1794   3.781   1.774   0.881  0.2193  0.1404  0.3937
  528WAT     H1 1795   3.819   1.750   0.797  0.4444  0.1354  0.4986
  528WAT     H2 1796   3.816   1.710   0.943 -2.3089 -1.8198 -0.0237
  529WAT      O 1797  -0.010   1.269   1.361  0.2606 -0.1331 -0.2113
  529WAT     H1 1798  -0.014   1.212   1.284  2.1057 -1.2457  0.4538
  529WAT     H2 1799   0.051   1.339   1.335 -1.2804  1.0909 -0.6959
  530WAT      O 1800   2.427   0.076   2.942 -0.3151 -0.0555 -0.3000
  530WAT     H1 1801   2.436   0.152   2.885  0.9925 -0.3696 -0.5304
  530WAT     H2 1802   2.385   0.010   2.887 -2.5588  0.8322  0.2408
  531WAT      O 1803   1.400   0.144   1.436 -0.8532 -0.0015  0.0926
  531WAT     H1 1804   1.485   0.177   1.466 -0.4793 -1.0457  0.2326
  531WAT     H2 1805   1.357   0.220   1.398  1.3056 -0.0021 -2.6316
  532WAT      O 1806   0.952   1.551   1.437 -0.5488  0.2979  0.4178
  532WAT     H1 1807   1.043   1.580   1.445 -0.6703  0.6713  0.4668
  532WAT     H2 1808   0.940   1.490   1.510 -0.2391 -0.0128  0.2103
  533WAT      O 1809   0.333   1.249   3.531  0.2879  0.0872 -1.2024
  533WAT     H1 1810   0.324   1.342   3.549  0.2535  0.0161 -0.8263
  533WAT     H2 1811   0.247   1.212   3.552  0.5373 -0.1454 -0.5509
  534WAT      O 1812   3.162   4.390   1.187  0.2730  0.5054  0.0718
  534WAT     H1 1813   3.133   4.458   1.126  2.1373  2.4895  1.2382
  534WAT     H2 1814   3.145   4.428   1.274  0.6663 -0.8538  0.7657
  535WAT      O 1815   1.469   5.054   0.402  0.2410  0.1049 -0.0094
  535WAT     H1 1816   1.551   5.013   0.429  0.0613 -0.8625 -0.8517
  535WAT     H2 1817   1.493   5.104   0.323 -0.2573 -1.5548 -1.2792
  536WAT      O 1818   3.875   3.421   3.899 -0.1955  0.2938 -0.1616
  536WAT     H1 1819   3.869   3.335   3.856  1.7830  0.2538 -0.4287
  536WAT     H2 1820   3.962   3.422   3.938 -0.5856  1.7929  0.7301
  537WAT      O 1821   3.217   0.609   4.175 -0.2618  0.4765 -1.0000
  537WAT     H1 1822   3.175   0.694   4.164 -0.0215  0.5416 -1.4656
  537WAT     H2 1823   3.267   0.617   4.256 -1.2036  0.3655 -0.3965
  538WAT      O 1824   1.017   4.564   2.199  0.6614  0.0470 -0.2241
  538WAT     H1 1825   1.108   4.586   2.222  0.7392  0.0802 -0.5518
  538WAT     H2 1826   1.014   4.575   2.104  0.2180  0.3880 -0.1702
  539WAT      O 1827   0.520   4.622   4.534 -0.5602 -0.0305  0.3145
  539WAT     H1 1828   0.474   4.647   4.614 -0.1883 -2.7834  1.5163
  539WAT     H2 1829   0.609   4.656   4.546 -0.4382 -0.6329  1.2231
  540WAT      O 1830   3.582   3.289   3.849  0.1565  0.4421  0.4803
  540WAT     H1 1831   3.606   3.265   3.938  1.4515 -0.2555 -0.0173
  540WAT     H2 1832   3.493   3.257   3.838  0.8806 -1.8553  0.7174
  541WAT      O 1833   1.008   0.476   0.063  0.1595 -0.4003 -0.6021
  541WAT     H1 1834   0.952   0.533   0.009  0.1744 -0.5719 -0.8009
  541WAT     H2 1835   0.953   0.402   0.086 -0.6837  0.8839  1.8119
  542WAT      O 1836   4.311   3.074   1.039  0.4955 -0.5127 -0.7287
  542WAT     H1 1837   4.396   3.118   1.038 -1.4030  3.7158 -0.5918
  542WAT     H2 1838   4.265   3.109   0.962 -2.3961  0.6049  1.3050
  543WAT      O 1839   3.583   0.140   0.910  0.0152 -0.0508 -0.6732
  543WAT     H1 1840   3.593   0.180   0.824 -1.9277 -1.3112 -1.5427
  543WAT     H2 1841   3.494   0.162   0.937  0.7650  0.8420  1.3463
  544WAT      O 1842   1.685   0.164   3.431  0.3101  0.2884 -0.3397
  544WAT     H1 1843   1.685   0.226   3.503 -0.8803  0.9387 -0.8628
  544WAT     H2 1844   1.603   0.116   3.440  1.4382 -1.6300  0.3643
  545WAT      O 1845   2.722   3.646   3.326  0.5180 -0.0717 -0.2151
  545WAT     H1 1846   2.679   3.717   3.278  0.5579 -0.2186 -0.4742
  545WAT     H2 1847   2.650   3.591   3.357  0.5311 -0.9073 -1.5662
  546WAT      O 1848   3.585   4.901   3.846  0.3743 -0.0294  0.6788
  546WAT     H1 1849   3.552   4.888   3.757  1.5965  1.4862 -0.0408
  546WAT     H2 1850   3.664   4.847   3.850  0.1788 -0.2976  0.9395
  547WAT      O 1851   1.699   0.659   1.356  0.0897 -0.5049 -0.2808
  547WAT     H1 1852   1.748   0.633   1.434 -0.2605  0.2494  0.1984
  547WAT     H2 1853   1.765   0.697   1.297  0.0392  0.8953  0.5334
  548WAT      O 1854  -0.007   4.837   0.292 -0.1393 -0.5736  0.3086
  548WAT     H1 1855   0.055   4.910   0.289  0.3479 -1.0203 -1.4672
  548WAT     H2 1856   0.048   4.760   0.308 -0.6145 -0.6312  1.8493
  549WAT      O 1857   1.901   2.779   1.308  0.3323 -0.0321  0.0403
  549WAT     H1 1858   1.844   2.703   1.314 -0.2930  0.5188  1.3675
  549WAT     H2 1859   1.858   2.836   1.244  0.8668 -0.8141 -1.0521
  550WAT      O 1860   3.334   1.510   3.502 -0.1294 -0.3011  0.0563
  550WAT     H1 1861   3.361   1.573   3.435 -1.2853 -0.7680 -0.8827
  550WAT     H2 1862   3.251   1.475   3.470 -1.2631  0.2055  2.2310
  551WAT      O 1863   1.732   3.045   3.228 -0.1828  0.6090  0.1564
  551WAT     H1 1864   1.822   3.029   3.201 -1.1888 -0.9009 -2.5950
  551WAT     H2 1865   1.715   3.135   3.201  0.3215  0.7297  0.2259
  552WAT      O 1866   0.631   1.284   0.190  0.2014 -0.4821  0.2713
  552WAT     H1 1867   0.726   1.289   0.179  0.1732  0.3899  0.3766
  552WAT     H2 1868   0.607   1.199   0.152  0.8214 -0.0146 -1.1996
  553WAT      O 1869   0.567   2.789   1.392  0.0282 -0.0152  0.1561
  553WAT     H1 1870   0.562   2.693   1.392  0.0494 -0.0203 -0.6770
  553WAT     H2 1871   0.501   2.816   1.455  1.1706 -0.6252  1.6880
  554WAT      O 1872   1.894   4.222   0.389 -0.0729  0.2606  0.7537
  554WAT     H1 1873   1.846   4.240   0.308 -1.7679  1.0952  1.8892
  554WAT     H2 1874   1.937   4.305   0.410  1.7716 -0.4207 -0.1374
  555WAT      O 1875   0.340   3.652   4.948  0.2049  0.3060 -0.3451
  555WAT     H1 1876   0.268   3.679   5.005  0.2202  0.4283 -0.3846
  555WAT     H2 1877   0.302   3.648   4.861  0.4105  1.0435 -0.4777
  556WAT      O 1878   4.480   0.100   4.113  0.0919  0.2238  0.1323
  556WAT     H1 1879   4.527   0.027   4.154 -0.4870  0.9934  2.2643
  556WAT     H2 1880   4.412   0.057   4.060  2.5262 -0.8784 -2.3668
  557WAT      O 1881   2.422   0.257   3.362 -0.3567 -0.6033  0.4594
  557WAT     H1 1882   2.517   0.247   3.371 -0.2301 -0.2448 -0.3738
  557WAT     H2 1883   2.387   0.234   3.448  0.4444 -1.2502  0.6185
  558WAT      O 1884   4.013   0.644   0.952 -0.0238 -0.3450 -0.1491
  558WAT     H1 1885   4.022   0.692   1.034  0.3738  0.2770 -0.5504
  558WAT     H2 1886   3.951   0.694   0.901 -1.8315 -1.7856  0.5148
  559WAT      O 1887   4.446   4.400   2.772  0.1708  0.3255  0.2530
  559WAT     H1 1888   4.369   4.380   2.824 -2.3533  2.8804 -2.1532
  559WAT     H2 1889   4.515   4.418   2.836 -1.3370 -1.4133  2.4896
  560WAT      O 1890   2.822   5.090   2.512  0.2989  0.0720 -0.5520
  560WAT     H1 1891   2.775   5.116   2.432  0.9577 -1.1615 -1.3775
  560WAT     H2 1892   2.753   5.078   2.577 -0.1991  1.6750 -0.7484
  561WAT      O 1893   3.689   4.244   2.798  0.0663  0.3402  0.1940
  561WAT     H1 1894   3.757   4.204   2.851 -0.8985 -0.5304  0.8204
  561WAT     H2 1895   3.633   4.290   2.861  0.3351  1.4720 -0.3598
  562WAT      O 1896   4.433   2.660   3.586 -0.3687  0.2815 -0.0276
  562WAT     H1 1897   4.503   2.674   3.523 -1.0154  0.4014 -0.7262
  562WAT     H2 1898   4.372   2.600   3.542 -0.7041  0.1730  0.5702
  563WAT      O 1899   1.692   4.750   3.186  0.6199 -0.0719  0.2578
  563WAT     H1 1900   1.701   4.843   3.207  0.7171 -0.2922  1.2157
  563WAT     H2 1901   1.612   4.745   3.133 -0.4323  0.3173  1.7527
  564WAT      O 1902   1.705   4.157   1.038  0.6471 -0.3741  0.1308
  564WAT     H1 1903   1.712   4.235   1.094  0.0886 -1.0420  1.1673
  564WAT     H2 1904   1.704   4.192   0.949  1.9643  0.7001  0.4879
  565WAT      O 1905   3.854   0.715   3.977  0.1003 -0.0602  0.3554
  565WAT     H1 1906   3.938   0.672   3.988  0.0389 -0.6578 -1.3209
  565WAT     H2 1907   3.839   0.760   4.061  1.9201 -0.1944  0.7879
  566WAT      O 1908   1.664   4.445   2.327  0.8945  0.1567 -0.1614
  566WAT     H1 1909   1.721   4.449   2.250 -0.3890 -1.5227 -1.2463
  566WAT     H2 1910   1.709   4.384   2.386  1.1538  0.3170 -0.1895
  567WAT      O 1911   2.359   1.955   2.656 -0.4642  0.4094  0.1878
  567WAT     H1 1912   2.300   2.027   2.635  0.1662  1.0345  0.5119
  567WAT     H2 1913   2.314   1.877   2.624  0.2457  1.2159 -3.1288
  568WAT      O 1914   3.777   4.555   2.915 -0.4303  0.0217  0.0535
  568WAT     H1 1915   3.836   4.610   2.968  2.2152 -0.9646 -1.6379
  568WAT     H2 1916   3.766   4.475   2.966  0.3326 -0.0720  0.0848
  569WAT      O 1917   0.262   4.229   1.721 -0.1635  0.3617 -0.7071
  569WAT     H1 1918   0.308   4.204   1.801 -1.9794 -1.1351 -0.0636
  569WAT     H2 1919   0.322   4.289   1.677  0.9999  1.0485  1.6444
  570WAT      O 1920   1.269   0.661   1.220 -0.0657 -0.1939 -0.0196
  570WAT     H1 1921   1.214   0.713   1.162  1.5212  0.2551 -1.1830
  570WAT     H2 1922   1.227   0.574   1.222 -0.9630  0.2129 -0.5997
  571WAT      O 1923   1.272   3.570   4.935 -0.2225  0.3502 -0.1939
  571WAT     H1 1924   1.180   3.591   4.919 -0.0069  2.1118  0.5312
  571WAT     H2 1925   1.293   3.620   5.014  1.2631 -0.3230 -0.1426
  572WAT      O 1926   0.270   1.339   4.431 -0.4908  0.0142  0.4604
  572WAT     H1 1927   0.237   1.318   4.344 -0.7312 -0.9024  0.7607
  572WAT     H2 1928   0.365   1.339   4.422 -0.5010  1.8523 -0.2204
  573WAT      O 1929   2.559   3.089   0.224 -0.0458 -0.3856  0.6697
  573WAT     H1 1930   2.595   3.077   0.136  1.4341  2.7936  0.6941
  573WAT     H2 1931   2.469   3.056   0.218 -0.7743  1.7546 -2.7202
  574WAT      O 1932   1.248   3.587   4.385  0.1569 -0.5177  0.2405
  574WAT     H1 1933   1.228   3.527   4.457 -0.5705  1.0893  1.4329
  574WAT     H2 1934   1.324   3.637   4.415 -0.8999  1.0148  0.4599
  575WAT      O 1935   1.601   3.571   5.141 -0.0689  0.6127 -0.3171
  575WAT     H1 1936   1.599   3.629   5.217  1.5730 -1.0666  1.0916
  575WAT     H2 1937   1.685   3.589   5.099  0.8228 -1.1781  0.5774
  576WAT      O 1938   3.592   4.597   2.716 -0.1466  0.7624 -0.1373
  576WAT     H1 1939   3.534   4.656   2.763 -0.6565  0.5108 -0.4409
  576WAT     H2 1940   3.665   4.580   2.776 -1.2915 -0.3867  0.9795
  577WAT      O 1941   0.993   5.005   1.332 -0.1944  0.0347 -0.1877
  577WAT     H1 1942   0.947   5.011   1.416  0.6147 -2.5491  0.5235
  577WAT     H2 1943   0.977   4.916   1.301  3.3229 -0.6778 -0.4313
  578WAT      O 1944   4.092   2.969   0.553  0.1956  0.7722  0.1163
  578WAT     H1 1945   4.097   2.987   0.459 -2.7944  1.5399 -0.0033
  578WAT     H2 1946   4.045   3.044   0.589  1.1296  0.4006  2.2190
  579WAT      O 1947   1.509   4.746   0.461 -0.4018 -0.5200 -0.1890
  579WAT     H1 1948   1.421   4.753   0.424 -0.1670  0.6277 -0.5770
  579WAT     H2 1949   1.567   4.766   0.387  0.0682  2.9048  0.9011
  580WAT      O 1950   2.484   2.393   4.947  0.1747  0.4940  0.3998
  580WAT     H1 1951   2.394   2.394   4.915  0.6946  0.0253 -1.1694
  580WAT     H2 1952   2.510   2.485   4.947  0.6105  0.4192 -1.9715
  581WAT      O 1953   0.433   4.168   4.084  0.4622 -0.1414 -0.0856
  581WAT     H1 1954   0.345   4.201   4.066  0.4087 -0.7118 -0.9374
  581WAT     H2 1955   0.434   4.152   4.178 -0.6393 -0.9468 -0.1909
  582WAT      O 1956   3.530   0.948   0.392 -0.5820  0.1866  0.0530
  582WAT     H1 1957   3.481   0.958   0.310  0.2080  2.1107 -0.2386
  582WAT     H2 1958   3.463   0.952   0.461 -0.9632  2.3205 -0.3535
  583WAT      O 1959   1.283   2.881   2.397 -0.0177  0.2277  0.2281
  583WAT     H1 1960   1.354   2.817   2.401  0.2746  0.5395  0.1606
  583WAT     H2 1961   1.312   2.944   2.330 -0.6465  0.0173 -0.2497
  584WAT      O 1962   1.551   4.994   5.165 -0.0848 -0.1692 -0.7652
  584WAT     H1 1963   1.599   4.967   5.086  0.8871  0.5220 -0.4285
  584WAT     H2 1964   1.513   5.079   5.142  0.1185 -0.0122 -0.5258
  585WAT      O 1965   1.890   1.102   5.116 -0.3209 -0.3847  0.1761
  585WAT     H1 1966   1.890   1.197   5.106 -0.2420 -0.3684  0.3167
  585WAT     H2 1967   1.807   1.073   5.079  0.7267 -0.5287 -2.2709
  586WAT      O 1968   0.578   1.664   0.551 -0.3920  0.0007  0.1607
  586WAT     H1 1969   0.589   1.680   0.458 -0.2244  2.5699  0.5375
  586WAT     H2 1970   0.656   1.615   0.577 -0.3076 -0.4979 -0.9819
  587WAT      O 1971   1.136   0.520   0.328  0.1101 -0.4584  0.2807
  587WAT     H1 1972   1.088   0.458   0.384  1.4438 -1.1158  0.7260
  587WAT     H2 1973   1.095   0.510   0.242 -0.3945 -1.1803  0.5895
  588WAT      O 1974   1.163   1.243   1.606  0.0190  0.2238 -0.2579
  588WAT     H1 1975   1.231   1.306   1.630  0.6335  0.2430 -1.8930
  588WAT     H2 1976   1.178   1.225   1.513 -1.0994 -1.1674 -0.2207
  589WAT      O 1977   4.236   4.993   3.932  0.3759 -0.4341  0.1736
  589WAT     H1 1978   4.196   4.924   3.984 -0.2945 -0.2118 -0.0271
  589WAT     H2 1979   4.219   5.073   3.981 -0.1204 -0.2424 -0.2923
  590WAT      O 1980   2.879   1.459   1.442  0.3738  0.1876 -0.3179
  590WAT     H1 1981   2.820   1.392   1.477  1.0365 -0.0384  0.3981
  590WAT     H2 1982   2.963   1.414   1.433  0.1117  0.0518 -2.8442
  591WAT      O 1983   3.322   4.733   0.954  0.3422  0.1514  0.2757
  591WAT     H1 1984   3.418   4.731   0.960  0.3892 -0.0178 -0.3716
  591WAT     H2 1985   3.297   4.641   0.945 -0.1567 -0.1587  3.7073
  592WAT      O 1986   1.591   4.260   3.967 -0.0018  0.4773  0.4644
  592WAT     H1 1987   1.517   4.305   3.926  0.5113 -1.1220 -2.5330
  592WAT     H2 1988   1.556   4.174   3.991  0.8908 -0.5712 -1.6337
  593WAT      O 1989   0.950   2.961   1.194 -0.0169  0.1223  0.2545
  593WAT     H1 1990   0.860   2.944   1.168  0.1753 -0.5974  0.0157
  593WAT     H2 1991   0.948   2.968   1.289  0.1560 -3.4393  0.6643
  594WAT      O 1992   0.753   1.422   2.337  0.6195  0.2177  0.2270
  594WAT     H1 1993   0.783   1.493   2.280  1.4076  1.0555  1.6276
  594WAT     H2 1994   0.779   1.342   2.291  1.3035  0.8648 -0.5423
  595WAT      O 1995   2.226   2.139   5.158 -0.6367 -0.0307 -0.0935
  595WAT     H1 1996   2.160   2.074   5.135 -0.8293  0.3665 -0.6916
  595WAT     H2 1997   2.213   2.209   5.094  1.9398 -1.0102 -1.8689
  596WAT      O 1998   2.159   4.126   3.879 -0.1768  0.3212  0.0654
  596WAT     H1 1999   2.100   4.189   3.921  1.1399  0.8458  1.1983
  596WAT     H2 2000   2.213   4.180   3.821  0.1618  0.0580  0.1393
  597WAT      O 2001   1.962   2.041   1.792 -0.0778 -0.1626 -0.1220
  597WAT     H1 2002   2.003   2.079   1.871  0.1146  1.2401 -0.8549
  597WAT     H2 2003   1.892   1.986   1.826 -0.5140  1.0349  1.0297
  598WAT      O 2004   3.482   3.043   4.448  0.0529  0.7189  0.2914
  598WAT     H1 2005   3.418   3.072   4.382 -0.1382  1.6151  0.8494
  598WAT     H2 2006   3.430   3.031   4.527  0.2879 -0.3421  0.2858
  599WAT      O 2007   2.085   2.140   0.146 -0.1358  0.5271 -0.0478
  599WAT     H1 2008   2.175   2.110   0.132 -0.1526  0.7750 -0.7495
  599WAT     H2 2009   2.074   2.210   0.081 -0.8272  0.5113  0.0513
  600WAT      O 2010   0.295   4.777   1.312  0.8606 -0.3332  0.2441
  600WAT     H1 2011   0.347   4.738   1.382  0.2887 -1.0535  0.2842
  600WAT     H2 2012   0.214   4.806   1.355  0.3882 -1.0255 -0.1526
  601WAT      O 2013   4.310   2.536   4.202  0.2899  0.6705  0.1802
  601WAT     H1 2014   4.247   2.560   4.134  0.7917 -1.8070 -1.3140
  601WAT     H2 2015   4.379   2.601   4.195 -1.7320  3.1351  1.5000
  602WAT      O 2016   3.793   1.159   1.276 -0.3303  0.6277  0.2784
  602WAT     H1 2017   3.842   1.242   1.278  0.6735  0.0533  0.5740
  602WAT     H2 2018   3.821   1.117   1.195 -0.7684  0.5407  0.1733
  603WAT      O 2019   1.220   1.571   1.555 -0.2655  0.1986  0.3159
  603WAT     H1 2020   1.251   1.556   1.644 -0.5946 -0.7383  0.2843
  603WAT     H2 2021   1.299   1.566   1.501 -0.2158 -0.3413  0.4349
  604WAT      O 2022   2.991   3.214   0.082  0.2800 -0.0334  0.2714
  604WAT     H1 2023   2.896   3.216   0.091  0.1888  0.0973 -0.6581
  604WAT     H2 2024   3.010   3.125   0.050  0.3482  0.3131 -0.6924
  605WAT      O 2025   3.462   3.938   0.630  0.3459 -0.5097  0.4201
  605WAT     H1 2026   3.541   3.911   0.584  0.1433  1.6512 -1.3769
  605WAT     H2 2027   3.472   4.033   0.641 -0.1849 -0.7274  3.8860
  606WAT      O 2028   1.158   1.474   0.048 -0.9476  0.4170 -0.4338
  606WAT     H1 2029   1.252   1.496   0.050 -1.0346  1.4122 -3.0162
  606WAT     H2 2030   1.119   1.532   0.114  0.2362 -0.1159  0.7858
  607WAT      O 2031   1.077   3.902   0.260  0.1626  0.0075 -0.1625
  607WAT     H1 2032   0.992   3.895   0.215  0.5820 -1.0844 -0.8332
  607WAT     H2 2033   1.126   3.965   0.208  0.1212 -0.1360 -0.3788
  608WAT      O 2034   2.532   3.316   1.129  0.2070 -0.6402  0.5497
  608WAT     H1 2035   2.524   3.228   1.166 -0.8745 -0.2666  1.2594
  608WAT     H2 2036   2.451   3.360   1.156 -0.3620 -0.1511 -1.7709
  609WAT      O 2037   2.682   0.862   0.562 -0.1347 -0.5495 -0.4155
  609WAT     H1 2038   2.715   0.778   0.592 -0.7756 -0.2360  1.2294
  609WAT     H2 2039   2.726   0.876   0.478  1.0938 -1.8302 -0.0172
  610WAT      O 2040   0.492   3.805   0.493 -0.8070 -0.0798  0.1580
  610WAT     H1 2041   0.406   3.838   0.517 -0.1571  0.6186  1.6533
  610WAT     H2 2042   0.553   3.867   0.533  0.3990 -0.7909 -0.5323
  611WAT      O 2043   2.600   1.043   4.717  0.3130 -0.3921 -0.3381
  611WAT     H1 2044   2.602   1.121   4.662 -1.0168  0.2890  0.5066
  611WAT     H2 2045   2.662   0.983   4.676  0.7320  0.7771 -1.5012
  612WAT      O 2046   4.106   1.612   2.836  0.3634  0.2038 -0.4159
  612WAT     H1 2047   4.143   1.601   2.924 -0.9073  1.4031  0.3090
  612WAT     H2 2048   4.024   1.564   2.839  0.6229 -0.3043 -1.1838
  613WAT      O 2049   0.804   1.067   5.108 -0.4438  0.2706  0.7087
  613WAT     H1 2050   0.783   0.991   5.054 -0.3102 -0.4225  1.6142
  613WAT     H2 2051   0.770   1.142   5.058  0.3648 -0.2590 -0.7023
  614WAT      O 2052   4.259   2.985   2.079 -0.0452  0.0945  0.2728
  614WAT     H1 2053   4.265   3.080   2.080  3.1105  0.0156  0.0982
  614WAT     H2 2054   4.176   2.965   2.121 -1.0366  2.9170 -0.1894
  615WAT      O 2055   2.912   1.471   1.837 -0.4924 -0.4385 -0.0866
  615WAT     H1 2056   2.892   1.445   1.747 -2.3152  0.9593 -0.1472
  615WAT     H2 2057   2.960   1.396   1.873 -1.3033 -1.7956 -1.6585
  616WAT      O 2058   1.560   3.268   4.443 -0.3755 -0.4597 -0.2300
  616WAT     H1 2059   1.548   3.341   4.503 -1.0975 -0.9001  0.1767
  616WAT     H2 2060   1.627   3.213   4.483 -1.6538 -1.3479  0.7851
  617WAT      O 2061   2.517   4.137   1.765 -0.3095  0.4202 -0.7730
  617WAT     H1 2062   2.490   4.195   1.693 -3.0366  0.0511 -0.1741
  617WAT     H2 2063   2.440   4.133   1.822  0.7032 -1.7365  0.5756
  618WAT      O 2064   2.041   4.286   2.064  0.3487 -0.1867  0.1642
  618WAT     H1 2065   2.054   4.258   2.155  2.1214 -0.7577 -0.2264
  618WAT     H2 2066   1.972   4.229   2.031 -0.4620  0.1598  1.1784
  619WAT      O 2067   2.580   1.861   4.544  0.2329 -0.2492 -0.0137
  619WAT     H1 2068   2.612   1.938   4.592  0.4057 -0.5692  0.3930
  619WAT     H2 2069   2.605   1.787   4.599  1.2595 -0.6920 -1.0422
  620WAT      O 2070   0.709   4.070   5.164  0.2535  0.4533 -0.4753
  620WAT     H1 2071   0.700   4.157   5.125  0.1233  1.0260  0.7679
  620WAT     H2 2072   0.697   4.010   5.091 -1.5775  1.4356 -1.0651
  621WAT      O 2073   2.577   3.187   1.420 -0.3824  0.0302 -0.3151
  621WAT     H1 2074   2.510   3.163   1.356 -0.3060  3.0756 -1.7490
  621WAT     H2 2075   2.529   3.235   1.488  0.0269  0.0379 -0.0276
  622WAT      O 2076   0.489   5.049   0.586  0.1742 -0.2711  0.6248
  622WAT     H1 2077   0.427   4.989   0.544  0.3157 -1.4428  2.0316
  622WAT     H2 2078   0.437   5.093   0.653  0.1207  1.0846 -0.2727
  623WAT      O 2079   4.363   1.367   4.038  0.0888  0.0257 -0.0178
  623WAT     H1 2080   4.450   1.404   4.022  0.5220 -0.6745  0.6364
  623WAT     H2 2081   4.303   1.429   3.997  0.8185  1.2427  0.6617
  624WAT      O 2082   1.106   1.345   2.682  0.2587  0.3731 -0.0555
  624WAT     H1 2083   1.129   1.253   2.670  1.3821  0.8526 -2.0536
  624WAT     H2 2084   1.012   1.349   2.668 -0.1223 -0.6968  1.8592
  625WAT      O 2085   2.287   4.931   2.303 -0.7005  0.2320 -0.3264
  625WAT     H1 2086   2.325   5.016   2.323 -1.6387  0.4087  0.8614
  625WAT     H2 2087   2.193   4.948   2.294 -0.8130 -0.5685 -0.7144
  626WAT      O 2088   2.124   4.468   1.712  0.0682  0.2919 -0.1058
  626WAT     H1 2089   2.050   4.409   1.698  0.6788 -0.2940 -0.9209
  626WAT     H2 2090   2.194   4.411   1.746 -0.1586  1.0106  1.7062
  627WAT      O 2091   1.746   3.951   4.254  0.3882  0.0396 -0.3139
  627WAT     H1 2092   1.715   3.999   4.330  2.3181  2.1949 -0.7855
  627WAT     H2 2093   1.673   3.954   4.192 -0.2468  0.5702  0.4487
  628WAT      O 2094   1.030   1.184   0.969 -0.3256 -0.4086 -0.1168
  628WAT     H1 2095   1.118   1.149   0.984 -0.9644 -2.1364 -0.1579
  628WAT     H2 2096   1.027   1.265   1.020  1.5445  0.1072 -0.7532
  629WAT      O 2097   3.322   2.579   3.312 -0.1710 -0.5815  0.2590
  629WAT     H1 2098   3.372   2.509   3.271 -0.5055 -1.0130  0.5845
  629WAT     H2 2099   3.386   2.649   3.326  0.3042 -1.0573  0.5071
  630WAT      O 2100   0.977   1.711   4.353 -0.0078 -0.1283 -0.1131
  630WAT     H1 2101   0.882   1.718   4.356  0.0828  1.5172  0.3706
  630WAT     H2 2102   0.996   1.618   4.364 -1.5495 -0.4467 -0.0444
  631WAT      O 2103   1.472   0.413   1.690 -0.2318  0.2215  0.4453
  631WAT     H1 2104   1.402   0.350   1.710 -0.4992  0.6673  0.9260
  631WAT     H2 2105   1.508   0.436   1.775  1.0419 -0.5954  0.1647
  632WAT      O 2106   0.546   0.170   2.511  0.1568 -0.2234 -0.1102
  632WAT     H1 2107   0.576   0.260   2.498 -0.6923  0.2309  0.9740
  632WAT     H2 2108   0.596   0.119   2.447  0.7515  0.9902 -0.6444
  633WAT      O 2109   4.389   2.339   4.522  0.2723  0.2628 -0.1762
  633WAT     H1 2110   4.306   2.346   4.570  0.1751  0.0044 -0.3016
  633WAT     H2 2111   4.457   2.347   4.589  0.1434  0.3515 -0.0556
  634WAT      O 2112   2.703   3.928   4.585  0.3810 -0.3344 -0.0526
  634WAT     H1 2113   2.711   3.899   4.675 -0.5977  0.2021  0.2264
  634WAT     H2 2114   2.793   3.941   4.555  0.6968  0.5945  1.2243
  635WAT      O 2115   1.696   0.159   4.040 -0.1562 -0.1533 -0.1050
  635WAT     H1 2116   1.766   0.095   4.030  1.5456  1.7480 -1.2800
  635WAT     H2 2117   1.741   0.240   4.065 -1.7713  1.4179 -1.9203
  636WAT      O 2118   3.823   2.967   4.129  0.5170  0.8028 -0.3676
  636WAT     H1 2119   3.774   2.886   4.117  1.3856  0.2580 -0.3741
  636WAT     H2 2120   3.758   3.037   4.122 -0.5044  0.0485  1.1079
  637WAT      O 2121   4.417   1.763   0.835 -0.0705  0.3780 -0.0259
  637WAT     H1 2122   4.473   1.804   0.769 -0.3195 -0.5787 -0.8458
  637WAT     H2 2123   4.478   1.739   0.906  0.4273  0.0935 -0.5435
  638WAT      O 2124   2.609   2.295   0.640 -0.2613  0.2224  1.0048
  638WAT     H1 2125   2.619   2.364   0.705  0.6529  1.5138 -0.4221
  638WAT     H2 2126   2.672   2.228   0.665  1.3136  1.4678  0.5674
  639WAT      O 2127   4.225   3.693   4.052 -0.0344  0.1448  0.5465
  639WAT     H1 2128   4.297   3.752   4.073  0.6741  0.0054 -1.3466
  639WAT     H2 2129   4.164   3.747   4.002  0.6958 -0.7304 -1.3459
  640WAT      O 2130   2.791   0.277   4.134 -0.1455  0.0655 -0.5819
  640WAT     H1 2131   2.703   0.241   4.134  0.0279 -0.3874 -1.4389
  640WAT     H2 2132   2.795   0.333   4.212 -0.4856 -1.6296  0.7146
  641WAT      O 2133   1.764   1.447   1.063 -0.1065 -0.3845 -0.1621
  641WAT     H1 2134   1.853   1.473   1.039 -0.4654 -0.0654 -1.1941
  641WAT     H2 2135   1.774   1.358   1.098  0.5131 -0.7227 -1.1409
  642WAT      O 2136   2.854   0.216   1.897  0.3421  0.2865 -0.0855
  642WAT     H1 2137   2.895   0.188   1.815  1.4658  0.6664  0.3170
  642WAT     H2 2138   2.778   0.160   1.907  0.2203  0.2058 -1.3687
  643WAT      O 2139   0.350   1.372   4.921  0.3483 -0.7808  0.9363
  643WAT     H1 2140   0.356   1.437   4.851  1.9218 -1.5968  0.2687
  643WAT     H2 2141   0.277   1.402   4.975  0.1078  0.7314 -0.1611
  644WAT      O 2142   2.693   1.105   4.972 -0.0284  0.2508  0.2055
  644WAT     H1 2143   2.680   1.066   4.886 -1.1258 -0.9087  0.8611
  644WAT     H2 2144   2.606   1.134   4.999  0.3995  1.1457  0.6870
  645WAT      O 2145   2.827   2.032   3.099 -0.3494  0.3733 -0.0128
  645WAT     H1 2146   2.780   1.949   3.094 -0.3377  0.4149 -1.0046
  645WAT     H2 2147   2.765   2.096   3.064 -0.0443  0.6388 -0.0664
  646WAT      O 2148   2.057   0.025   2.760  0.0505  0.4487  0.2876
  646WAT     H1 2149   2.068   0.047   2.667  1.7076 -1.6230 -0.1120
  646WAT     H2 2150   1.983  -0.036   2.761 -0.7765  1.4312  0.5437
  647WAT      O 2151   2.517   1.949   5.131  0.2949  0.7812  0.3186
  647WAT     H1 2152   2.542   1.863   5.163 -0.8852 -0.6014 -2.2400
  647WAT     H2 2153   2.423   1.943   5.115  0.4148  2.1227 -1.0924
  648WAT      O 2154   4.068   5.029   2.562 -0.0286 -0.3123  0.0519
  648WAT     H1 2155   4.093   5.120   2.578  1.0381 -0.4350 -0.7700
  648WAT     H2 2156   3.978   5.023   2.593 -0.2126  1.0917 -0.1351
  649WAT      O 2157   0.841   1.855   0.656  0.6011  0.5863 -0.1914
  649WAT     H1 2158   0.779   1.907   0.605 -0.2468 -0.8174 -0.6612
  649WAT     H2 2159   0.899   1.815   0.591 -1.3244 -2.3159 -0.3544
  650WAT      O 2160   3.356   2.158   1.689  0.6417  0.0025 -0.5690
  650WAT     H1 2161   3.304   2.219   1.636  0.1168  1.5553  1.6145
  650WAT     H2 2162   3.299   2.082   1.700 -0.3861  0.8502  0.1075
  651WAT      O 2163   3.026   2.711   2.897 -0.0592 -0.7264  0.2355
  651WAT     H1 2164   2.947   2.761   2.878  0.3981  0.4212  1.2090
  651WAT     H2 2165   3.015   2.629   2.849 -1.1941 -0.0210 -0.7693
  652WAT      O 2166   4.248   0.628   1.318  0.0683 -0.0152 -0.0535
  652WAT     H1 2167   4.210   0.674   1.393  0.0168  1.4348 -0.9156
  652WAT     H2 2168   4.194   0.657   1.244  0.3666 -1.1018 -0.7183
  653WAT      O 2169   4.058   3.038   0.275  0.4052  0.2304 -0.2319
  653WAT     H1 2170   4.132   2.979   0.259  0.2387  0.1896 -0.8600
  653WAT     H2 2171   3.981   2.987   0.252 -0.1256 -0.8426  3.3421
  654WAT      O 2172   0.267   3.188   4.694  0.2510  0.5188  0.2218
  654WAT     H1 2173   0.310   3.107   4.722  1.0401  0.8860  0.1165
  654WAT     H2 2174   0.198   3.159   4.634  0.3660 -0.0920  0.3751
  655WAT      O 2175   0.625   4.908   4.959 -0.2479 -0.1171 -0.2152
  655WAT     H1 2176   0.608   4.883   5.049  0.2337  0.1441 -0.0455
  655WAT     H2 2177   0.640   5.003   4.963 -0.7017 -0.0235 -0.6413
  656WAT      O 2178   1.634   4.896   3.414  0.0124  0.0217  0.2441
  656WAT     H1 2179   1.683   4.914   3.494  0.9876 -1.2041 -0.0462
  656WAT     H2 2180   1.554   4.853   3.444 -0.3351  0.9028  0.6340
  657WAT      O 2181   1.739   3.122   0.983  0.5256 -0.1795  1.0856
  657WAT     H1 2182   1.802   3.193   0.992  0.4253  0.1007 -0.1887
  657WAT     H2 2183   1.743   3.098   0.890 -1.8297  0.4402  0.7508
  658WAT      O 2184   1.649   4.862   3.742  0.5108  0.4608 -0.2500
  658WAT     H1 2185   1.648   4.929   3.810 -0.1600  0.8376 -0.6274
  658WAT     H2 2186   1.729   4.881   3.692 -1.2399  3.0170 -2.3266
  659WAT      O 2187   4.077   4.142   2.311 -0.4922  0.1523 -0.3245
  659WAT     H1 2188   4.050   4.212   2.371 -0.1979 -0.9408  1.1571
  659WAT     H2 2189   4.100   4.187   2.230 -1.1843  1.6668  0.2821
  660WAT      O 2190   2.172   0.949   0.989 -0.9711  0.4041 -0.4208
  660WAT     H1 2191   2.191   0.978   0.900 -2.1953  0.4999 -0.6786
  660WAT     H2 2192   2.247   0.977   1.040 -0.8910  1.6367 -1.1615
  661WAT      O 2193   2.652   2.182   4.915 -0.3612  1.3096 -1.1150
  661WAT     H1 2194   2.586   2.250   4.930 -1.2192  0.2552  0.1872
  661WAT     H2 2195   2.642   2.123   4.990 -1.0224 -1.3196 -3.1394
  662WAT      O 2196   2.888   3.987   3.892  0.3041  0.1975  0.6684
  662WAT     H1 2197   2.924   4.032   3.816 -2.9592 -1.3054 -2.0362
  662WAT     H2 2198   2.851   4.058   3.945  0.4468  1.1385 -0.4366
  663WAT      O 2199   1.337   2.094   2.865  0.0578  0.1815  0.8361
  663WAT     H1 2200   1.252   2.133   2.887 -0.2367  0.9775 -1.4022
  663WAT     H2 2201   1.340   2.098   2.769  1.7728 -1.6778  0.7550
  664WAT      O 2202   3.271   1.315   0.740  0.0046 -0.3354 -0.0360
  664WAT     H1 2203   3.250   1.263   0.818  0.4921  0.9870  1.0161
  664WAT     H2 2204   3.366   1.317   0.737  0.0002 -0.7789 -0.9749
  665WAT      O 2205   2.539   1.845   0.412  0.0850 -0.0369 -0.1946
  665WAT     H1 2206   2.587   1.766   0.385 -0.4267  0.1465 -1.7827
  665WAT     H2 2207   2.501   1.823   0.497  0.4332 -1.2888 -0.3463
  666WAT      O 2208   0.717   4.208   4.417 -0.4687  0.9975 -0.0072
  666WAT     H1 2209   0.692   4.124   4.379  1.7962  0.3786 -0.2714
  666WAT     H2 2210   0.705   4.197   4.511  0.3968  0.1242  0.0165
  667WAT      O 2211   2.617   2.496   2.512 -0.5523  0.3563 -0.4782
  667WAT     H1 2212   2.569   2.500   2.429 -0.8703 -0.8210 -0.3622
  667WAT     H2 2213   2.550   2.494   2.579 -0.3056  2.7587 -0.0544
  668WAT      O 2214   2.728   1.992   4.089  0.1659 -0.3215 -0.0809
  668WAT     H1 2215   2.821   1.977   4.069  0.2852  0.5212 -0.1794
  668WAT     H2 2216   2.711   1.933   4.163  1.2834  0.8402  1.1673
  669WAT      O 2217   1.916   2.730   1.889  0.1959  0.1334 -0.5878
  669WAT     H1 2218   1.995   2.744   1.837  0.4141  0.6784 -0.1248
  669WAT     H2 2219   1.892   2.639   1.872  1.3038 -0.2495 -0.2435
  670WAT      O 2220   0.695   2.803   5.006 -0.0837  0.1651  0.0994
  670WAT     H1 2221   0.692   2.858   4.928  0.0312  1.5411  1.0198
  670WAT     H2 2222   0.771   2.746   4.993  0.3581  0.8740 -0.4796
  671WAT      O 2223   0.889   0.476   2.102  0.2794  0.3591 -0.1893
  671WAT     H1 2224   0.907   0.476   2.009  2.0913  0.4295  0.1315
  671WAT     H2 2225   0.916   0.390   2.133 -0.7270  0.1703  0.2079
  672WAT      O 2226   4.115   1.321   5.153  0.6571  0.6175 -0.4255
  672WAT     H1 2227   4.167   1.265   5.212 -0.3638  0.8657  0.7366
  672WAT     H2 2228   4.086   1.393   5.208 -0.0065  1.0670 -1.3462
  673WAT      O 2229   2.503   3.306   0.036  0.2184 -0.1020  0.5960
  673WAT     H1 2230   2.423   3.312   0.089 -0.0838  0.6006  0.0773
  673WAT     H2 2231   2.549   3.389   0.052 -0.0012  0.2336 -0.4170
  674WAT      O 2232   0.671   1.124   3.676  0.0121  0.0932  0.2008
  674WAT     H1 2233   0.660   1.121   3.771  1.6094 -0.8421  0.4070
  674WAT     H2 2234   0.698   1.214   3.658 -0.0477  0.2077  0.6783
  675WAT      O 2235   4.143   0.129   2.262 -0.4276 -0.5713 -0.8714
  675WAT     H1 2236   4.107   0.043   2.241 -0.8212 -1.1609  1.9559
  675WAT     H2 2237   4.226   0.111   2.304 -0.6715  0.3959  0.0704
  676WAT      O 2238   4.434   3.317   3.785  0.0446 -0.1110 -0.4825
  676WAT     H1 2239   4.418   3.270   3.703 -0.2326 -0.3595 -0.2873
  676WAT     H2 2240   4.379   3.395   3.779  0.8911  0.4531 -1.0295
  677WAT      O 2241   3.950   3.412   1.572 -0.3859 -0.2366 -0.1945
  677WAT     H1 2242   3.930   3.450   1.657  4.5812  1.4230  0.5659
  677WAT     H2 2243   3.946   3.485   1.511  0.5951 -0.3708 -0.4421
  678WAT      O 2244   1.622   4.580   0.639  0.2389 -0.3149  0.4192
  678WAT     H1 2245   1.712   4.613   0.648  0.1181  0.4389 -0.8131
  678WAT     H2 2246   1.583   4.637   0.572 -1.1758 -0.6021  0.9680
  679WAT      O 2247   2.366   2.259   2.374 -0.2501 -0.4443 -0.1833
  679WAT     H1 2248   2.281   2.236   2.411  0.0893  0.1646  1.0185
  679WAT     H2 2249   2.429   2.233   2.441  0.3835  0.7424 -0.3007
  680WAT      O 2250   0.953   4.741   1.327  0.2999  0.4760 -0.1564
  680WAT     H1 2251   0.914   4.672   1.380  0.9433 -0.1559 -0.4937
  680WAT     H2 2252   0.933   4.715   1.237  1.2984  0.2658 -0.3203
  681WAT      O 2253   2.179   5.031   1.056 -0.9429  0.0059 -0.2414
  681WAT     H1 2254   2.199   5.116   1.017  0.7152 -0.9276 -1.5455
  681WAT     H2 2255   2.127   4.985   0.989 -0.6594 -0.4912 -0.1314
  682WAT      O 2256   2.061   0.743   0.533  0.0382  0.8162  1.7660
  682WAT     H1 2257   2.117   0.677   0.491 -0.3004  0.2657  2.1553
  682WAT     H2 2258   2.024   0.697   0.609 -1.0183  1.1373  1.4552
  683WAT      O 2259   1.473   2.724   2.759  0.4595  0.3091  0.0118
  683WAT     H1 2260   1.513   2.765   2.682  2.2543  0.1413  0.8181
  683WAT     H2 2261   1.408   2.663   2.723 -0.4348  1.9407 -1.2769
  684WAT      O 2262   1.532   2.070   3.534  0.6140 -0.0900 -0.4492
  684WAT     H1 2263   1.539   1.982   3.496  0.9544 -0.5559  0.6290
  684WAT     H2 2264   1.618   2.109   3.520  0.0602  0.6140 -2.1312
  685WAT      O 2265   1.198  -0.015   1.548  0.0081 -0.3804 -0.4033
  685WAT     H1 2266   1.271   0.012   1.492  1.4140 -1.9363  0.5623
  685WAT     H2 2267   1.120   0.018   1.504  1.1647 -0.2236 -2.4670
  686WAT      O 2268   0.069   0.658   4.605 -0.0977  0.6475 -0.4740
  686WAT     H1 2269   0.155   0.691   4.633 -0.1944 -0.7499  1.7483
  686WAT     H2 2270   0.083   0.565   4.589 -1.6670 -0.3151  2.8607
  687WAT      O 2271   0.724   1.105   1.087  0.2298 -0.1514  0.6113
  687WAT     H1 2272   0.717   1.111   1.182  1.9410  0.0460  0.7669
  687WAT     H2 2273   0.746   1.013   1.071 -1.7250 -0.5863  0.2418
  688WAT      O 2274   2.092   1.732   1.870 -0.7549 -0.0416  0.5565
  688WAT     H1 2275   2.172   1.767   1.831 -0.6761 -0.1029  0.6620
  688WAT     H2 2276   2.123   1.672   1.938 -0.8876 -0.3735  0.3288
  689WAT      O 2277   4.039   4.780   4.930  0.1126  1.1261 -0.1044
  689WAT     H1 2278   4.056   4.803   5.022  0.7940 -0.6233  0.2497
  689WAT     H2 2279   4.126   4.762   4.894 -0.2550  0.5085 -0.7061
  690WAT      O 2280   1.043   2.509   1.000  0.0318  0.1014  0.3044
  690WAT     H1 2281   0.975   2.577   0.994  1.4469  1.6598  1.1185
  690WAT     H2 2282   1.051   2.491   1.094  0.8532  0.0535  0.2305
  691WAT      O 2283   1.804   4.266   4.748  0.3294  0.4964 -0.3331
  691WAT     H1 2284   1.711   4.275   4.730  0.0274 -0.0591  0.8285
  691WAT     H2 2285   1.843   4.246   4.663 -0.3644  2.2362 -1.1231
  692WAT      O 2286   0.622   2.213   4.001  0.3527 -0.2804 -0.3675
  692WAT     H1 2287   0.616   2.195   4.095 -1.8056 -2.4788 -0.8312
  692WAT     H2 2288   0.653   2.304   3.996 -0.5461  0.2725  2.4766
  693WAT      O 2289   3.510   1.761   1.691  0.2484 -0.0589  0.0346
  693WAT     H1 2290   3.429   1.805   1.665 -1.0263 -2.4618 -0.2906
  693WAT     H2 2291   3.569   1.833   1.716 -2.1435  1.7291  0.8750
  694WAT      O 2292   0.576   3.750   1.929  0.5458  0.2594 -0.4712
  694WAT     H1 2293   0.627   3.675   1.958  0.1682  0.0915 -0.2267
  694WAT     H2 2294   0.537   3.784   2.009 -0.2913 -0.0425 -0.7349
  695WAT      O 2295   0.439   4.026   2.705 -0.2058 -0.0815 -0.1121
  695WAT     H1 2296   0.388   4.090   2.754 -1.2330 -1.2298  0.3441
  695WAT     H2 2297   0.527   4.030   2.743 -0.7274 -0.2199  1.1294
  696WAT      O 2298   3.382   2.927   1.263 -0.4862 -0.2248 -0.3162
  696WAT     H1 2299   3.456   2.887   1.217 -1.3879  0.1562 -2.1877
  696WAT     H2 2300   3.408   2.925   1.355  1.4573 -0.9199 -0.8192
  697WAT      O 2301   4.054   3.296   0.377  0.1235 -0.3760  0.3194
  697WAT     H1 2302   4.043   3.215   0.327  0.1304 -1.0190  1.3282
  697WAT     H2 2303   4.138   3.287   0.421  0.2955  0.3441  0.1521
  698WAT      O 2304   3.075   4.104   0.850  0.6526  0.0560 -0.0208
  698WAT     H1 2305   3.039   4.075   0.766  1.1192  2.5212 -1.1714
  698WAT     H2 2306   3.169   4.111   0.835  0.8730 -0.3927  1.0419
  699WAT      O 2307   3.782   4.380   2.589 -0.0926  0.3016  0.3133
  699WAT     H1 2308   3.764   4.461   2.636  0.8466  0.6680  0.0706
  699WAT     H2 2309   3.739   4.312   2.641 -0.2430  0.8625  0.9383
  700WAT      O 2310   1.589   2.172   0.281 -0.2324  0.4917  0.2560
  700WAT     H1 2311   1.676   2.181   0.320 -0.4689  0.6792  0.7569
  700WAT     H2 2312   1.567   2.260   0.251  0.3302  0.1701 -1.1585
  701WAT      O 2313   2.654   1.126   2.165  0.4205  0.3080 -0.9781
  701WAT     H1 2314   2.636   1.032   2.169  0.8394  0.1697 -2.0008
  701WAT     H2 2315   2.669   1.152   2.256  0.5885 -0.6684 -0.7184
  702WAT      O 2316   2.149   3.997   0.227  0.1590 -0.3408  0.3711
  702WAT     H1 2317   2.118   3.986   0.317  1.5906 -0.0368  0.9137
  702WAT     H2 2318   2.117   4.084   0.201 -0.1886 -0.3971  0.5986
  703WAT      O 2319   3.534   2.555   4.994 -0.2100  0.3247 -0.0777
  703WAT     H1 2320   3.538   2.627   5.057  1.9639  1.5547 -1.4811
  703WAT     H2 2321   3.624   2.546   4.963 -0.8757 -1.4440 -1.6806
  704WAT      O 2322   3.763   2.842   4.504  0.1069 -0.2933  0.2283
  704WAT     H1 2323   3.790   2.806   4.588  1.3171 -1.2700 -0.5480
  704WAT     H2 2324   3.760   2.937   4.518  0.3168 -0.4420  1.3516
  705WAT      O 2325   1.398   2.139   1.491 -0.1030 -0.4117  0.2314
  705WAT     H1 2326   1.465   2.184   1.439  0.0437 -1.1942 -0.2718
  705WAT     H2 2327   1.321   2.139   1.435 -0.4552  0.2437  0.7023
  706WAT      O 2328   0.478   3.829   0.200  0.0730 -0.1301  0.0540
  706WAT     H1 2329   0.438   3.914   0.178  0.1639 -0.1446 -0.1697
  706WAT     H2 2330   0.516   3.843   0.287  0.4152  0.1741 -0.1405
  707WAT      O 2331   2.519   0.697   2.758 -0.0379  0.3735 -0.1880
  707WAT     H1 2332   2.497   0.615   2.804 -1.2220  1.5343  1.4344
  707WAT     H2 2333   2.460   0.698   2.683  1.4937 -1.2624 -1.4929
  708WAT      O 2334   3.893   1.134   0.199  0.0336 -0.0499 -0.3611
  708WAT     H1 2335   3.957   1.198   0.230  0.8911  0.1468 -2.3611
  708WAT     H2 2336   3.944   1.054   0.186 -0.4836 -0.3781 -0.3826
  709WAT      O 2337   2.559   1.643   0.213  0.0534  0.4262 -0.0499
  709WAT     H1 2338   2.554   1.671   0.121 -0.4194  3.3829  0.7745
  709WAT     H2 2339   2.484   1.584   0.223 -0.7305  1.1519 -1.2633
  710WAT      O 2340   1.207   2.080   5.122 -0.3389 -0.4668 -0.0790
  710WAT     H1 2341   1.279   2.081   5.059  0.0464 -2.1064  0.3029
  710WAT     H2 2342   1.137   2.129   5.079  0.7058  0.4409 -0.8032
  711WAT      O 2343   0.327   0.913   3.104  0.1576  0.2935 -0.3434
  711WAT     H1 2344   0.398   0.876   3.156  1.1670  1.6616 -0.7096
  711WAT     H2 2345   0.367   0.985   3.055 -1.4464  1.0282 -0.6441
  712WAT      O 2346   2.547   4.499   2.035 -0.1823  0.0617 -0.0778
  712WAT     H1 2347   2.490   4.487   1.959 -1.5804 -1.0757  1.0803
  712WAT     H2 2348   2.516   4.580   2.075 -1.2481 -0.6787  0.6879
  713WAT      O 2349   3.244   1.274   2.316  0.6048  0.4184  0.1047
  713WAT     H1 2350   3.320   1.249   2.369  0.3331 -0.2035  0.2055
  713WAT     H2 2351   3.248   1.218   2.239  1.2604  1.6372 -0.7889
  714WAT      O 2352   2.266   4.090   3.490  0.1486 -0.4161 -0.0228
  714WAT     H1 2353   2.286   4.143   3.413 -0.7413  1.1305  0.7561
  714WAT     H2 2354   2.349   4.049   3.513  0.4950 -0.6847 -1.6163
  715WAT      O 2355   2.774   0.514   1.886  0.1154  0.4951  0.0937
  715WAT     H1 2356   2.816   0.598   1.865  0.1208  0.7337  1.0188
  715WAT     H2 2357   2.819   0.451   1.830 -0.4689  1.2210 -1.2485
  716WAT      O 2358   3.155   4.192   3.765 -0.0288  0.2859  0.3287
  716WAT     H1 2359   3.198   4.128   3.709 -0.9395 -0.6195  0.6178
  716WAT     H2 2360   3.071   4.209   3.722 -0.0993  0.7271  0.6327
  717WAT      O 2361   2.185   2.856   3.624  0.0736 -0.1007 -0.1637
  717WAT     H1 2362   2.131   2.835   3.700  1.0467 -2.1664  0.0304
  717WAT     H2 2363   2.274   2.856   3.657  0.4700 -0.4546 -1.1895
  718WAT      O 2364   1.619   2.419   2.321 -0.0675 -0.0487  0.2200
  718WAT     H1 2365   1.679   2.344   2.326  0.6139  0.4362 -0.4524
  718WAT     H2 2366   1.541   2.390   2.368  1.1434 -0.2736  2.2403
  719WAT      O 2367   1.600   2.881   4.529 -0.4489 -0.1984  0.1972
  719WAT     H1 2368   1.524   2.847   4.483  0.5125 -2.5608  0.2060
  719WAT     H2 2369   1.666   2.894   4.461 -0.3259  0.2609  0.3983
  720WAT      O 2370   0.539   2.838   0.640  0.3108  0.0845  0.5669
  720WAT     H1 2371   0.444   2.826   0.646  0.3756 -1.2824 -0.5961
  720WAT     H2 2372   0.551   2.931   0.624 -0.8769  0.1806  0.1534
  721WAT      O 2373   1.052   2.806   1.571  0.1433 -0.2565 -0.0943
  721WAT     H1 2374   1.111   2.869   1.530 -0.3513  0.0669 -0.3172
  721WAT     H2 2375   0.966   2.824   1.532 -0.1633 -0.5258  0.4387
  722WAT      O 2376   2.361   1.172   1.922  0.3198 -0.6999 -0.1010
  722WAT     H1 2377   2.325   1.097   1.875 -1.3712  0.8609 -1.4470
  722WAT     H2 2378   2.306   1.181   2.000  1.5201 -1.7612  0.9009
  723WAT      O 2379   0.211   4.988   0.021  0.2222  0.2579  0.0323
  723WAT     H1 2380   0.207   5.009   0.114 -1.2768  0.0792  0.0343
  723WAT     H2 2381   0.155   5.053  -0.021  0.0812 -0.2775 -0.6263
  724WAT      O 2382   0.734   0.015   1.095  0.4974 -0.3926  0.0957
  724WAT     H1 2383   0.681   0.058   1.028  1.3226  1.1785  0.4160
  724WAT     H2 2384   0.772  -0.061   1.050 -0.5141 -0.4862 -0.6419
  725WAT      O 2385   1.958   4.732   4.859 -0.4943 -0.1210  0.3110
  725WAT     H1 2386   2.008   4.672   4.803 -0.4862  1.3086 -1.3159
  725WAT     H2 2387   1.993   4.718   4.947  0.3676 -1.5889 -0.2247
  726WAT      O 2388   4.262   3.474   4.252  0.4437  0.1791  0.2773
  726WAT     H1 2389   4.332   3.522   4.296 -0.1853  1.1080  0.2953
  726WAT     H2 2390   4.229   3.535   4.186 -1.0905  0.1972  1.0108
  727WAT      O 2391   0.563   2.728   3.210  0.1794  0.0525 -0.6876
  727WAT     H1 2392   0.600   2.789   3.146  2.3253 -1.1108 -0.6534
  727WAT     H2 2393   0.469   2.731   3.195  0.0622  3.8425 -0.2587
  728WAT      O 2394   2.305   3.453   5.107 -0.3151 -0.7267  0.0176
  728WAT     H1 2395   2.219   3.462   5.146 -0.8363  0.6878 -1.3313
  728WAT     H2 2396   2.316   3.359   5.093 -0.8072 -1.1156  1.8968
  729WAT      O 2397   3.340   3.819   1.405  0.9821  0.1878 -0.5078
  729WAT     H1 2398   3.411   3.884   1.402  2.2948 -1.1090  0.6698
  729WAT     H2 2399   3.384   3.737   1.429 -0.8559 -0.7926 -0.3251
  730WAT      O 2400   0.839   1.023   4.753 -0.2234  0.1491 -0.0180
  730WAT     H1 2401   0.890   0.942   4.747  0.6649  0.7748 -2.7488
  730WAT     H2 2402   0.764   1.007   4.695 -0.8142  0.7797  0.5638
  731WAT      O 2403   1.082   1.374   0.766 -0.1348 -0.3034  0.0185
  731WAT     H1 2404   1.151   1.425   0.808 -0.4622  0.7067 -0.6343
  731WAT     H2 2405   1.056   1.310   0.832  1.0321 -0.3359  0.4684
  732WAT      O 2406   1.405   3.373   5.214 -0.3216  0.4990 -0.0828
  732WAT     H1 2407   1.331   3.434   5.220  0.5299  1.4216  2.8989
  732WAT     H2 2408   1.475   3.425   5.176 -0.8737 -0.1298 -2.0987
  733WAT      O 2409   0.805   0.937   1.758 -0.8499 -0.3148  0.0425
  733WAT     H1 2410   0.847   0.865   1.804 -1.2428  0.9700  2.5921
  733WAT     H2 2411   0.874   1.003   1.750 -0.8480 -0.4384 -1.0779
  734WAT      O 2412   0.149   0.919   4.984  0.0078  0.0240 -0.2791
  734WAT     H1 2413   0.130   1.008   4.956 -2.4460 -0.9931 -2.3794
  734WAT     H2 2414   0.139   0.920   5.079  4.5690  2.8139  0.4529
  735WAT      O 2415   1.297   4.832   3.200  0.0227  0.5661 -0.2899
  735WAT     H1 2416   1.349   4.773   3.255  1.2589  0.3222 -1.6672
  735WAT     H2 2417   1.206   4.807   3.216  0.4205 -0.2907  0.7195
  736WAT      O 2418   1.155   4.056   4.245 -0.3648 -0.2737  0.4758
  736WAT     H1 2419   1.238   4.083   4.284  0.3872  0.7689 -1.7420
  736WAT     H2 2420   1.106   4.138   4.232 -1.8902 -0.8800  1.9389
  737WAT      O 2421   0.548   4.837   5.222  0.1803  0.0557 -0.0082
  737WAT     H1 2422   0.575   4.908   5.280  1.5520  0.4229 -1.0607
  737WAT     H2 2423   0.469   4.801   5.264  1.6075 -0.3303  2.5927
  738WAT      O 2424   0.082   3.883   0.869  0.5495 -0.2728 -0.3084
  738WAT     H1 2425   0.172   3.914   0.874  0.1474  0.7426  1.5884
  738WAT     H2 2426   0.063   3.850   0.957 -1.7013  1.8758  0.0985
  739WAT      O 2427   2.486   0.514   0.533  0.1823 -0.0776  0.8179
  739WAT     H1 2428   2.504   0.596   0.488 -0.6430 -0.2645  0.1326
  739WAT     H2 2429   2.399   0.526   0.571  0.1264 -0.5765  0.8550
  740WAT      O 2430   0.015   0.837   4.431  0.4644 -0.2909  0.2733
  740WAT     H1 2431   0.010   0.785   4.512 -1.0526 -1.3730 -0.4511
  740WAT     H2 2432   0.014   0.771   4.361  0.3704  0.6644 -0.6399
  741WAT      O 2433   2.945   2.594   3.523 -0.3887  0.2113  0.1756
  741WAT     H1 2434   2.872   2.648   3.494 -0.3535  0.2289  0.1192
  741WAT     H2 2435   3.012   2.656   3.552 -0.7273  0.1752  1.0435
  742WAT      O 2436   1.470   4.448   2.025  0.8106  0.2249 -0.4958
  742WAT     H1 2437   1.495   4.355   2.025  3.0263  0.7714 -0.0509
  742WAT     H2 2438   1.509   4.482   1.944 -1.2350  0.4964 -1.4114
  743WAT      O 2439   3.938   4.772   1.950  0.2626 -0.6334 -0.0679
  743WAT     H1 2440   3.843   4.770   1.936  0.0980  0.5189  0.7714
  743WAT     H2 2441   3.968   4.688   1.915 -0.4289  0.7174 -4.6341
  744WAT      O 2442   1.197   3.057   2.781 -0.2815  1.2318  0.2437
  744WAT     H1 2443   1.227   2.975   2.820 -0.6269  1.5485  1.2109
  744WAT     H2 2444   1.139   3.031   2.710 -0.0425  0.6374  0.2672
  745WAT      O 2445   1.820   1.414   4.224  0.1951 -0.5081 -0.2095
  745WAT     H1 2446   1.792   1.426   4.315  0.9170  0.1998 -0.0723
  745WAT     H2 2447   1.908   1.451   4.220 -0.6785  1.6135 -1.7084
  746WAT      O 2448   2.522   0.745   2.028 -0.4843 -0.0452  0.1978
  746WAT     H1 2449   2.515   0.707   1.941 -0.6823 -2.3845  1.1635
  746WAT     H2 2450   2.615   0.761   2.041 -0.4630  0.3690 -0.4467
  747WAT      O 2451   0.462   4.411   1.624  0.0649  0.1814 -0.5474
  747WAT     H1 2452   0.454   4.458   1.541  1.0841 -0.6533 -1.1423
  747WAT     H2 2453   0.555   4.415   1.646  0.0413 -0.8463 -0.1971
  748WAT      O 2454   0.601   1.866   0.959  0.1836  0.0745 -0.1866
  748WAT     H1 2455   0.660   1.854   1.033 -1.2680 -2.0145  0.7376
  748WAT     H2 2456   0.656   1.853   0.882  1.7155  2.2601  0.4465
  749WAT      O 2457   0.169   3.031   3.717  0.3613  0.2389  0.1935
  749WAT     H1 2458   0.244   2.972   3.706 -0.1226 -0.1668 -1.0990
  749WAT     H2 2459   0.096   2.973   3.740 -0.0471  0.3500 -0.7741
  750WAT      O 2460   4.248   1.030   1.208  0.2069  0.5609 -0.3351
  750WAT     H1 2461   4.341   1.027   1.229  0.2810  1.0017 -0.5836
  750WAT     H2 2462   4.239   1.105   1.149 -0.2091  0.1537 -0.7997
  751WAT      O 2463   1.584   0.114   3.718  0.2015  0.1344  0.2120
  751WAT     H1 2464   1.521   0.083   3.784  0.2958 -0.4314  0.0478
  751WAT     H2 2465   1.546   0.087   3.635  0.2981  0.4605  0.0613
  752WAT      O 2466   1.191   0.193   4.604  0.3380 -0.1422  0.2353
  752WAT     H1 2467   1.257   0.125   4.622 -1.0822 -1.7117 -0.2122
  752WAT     H2 2468   1.159   0.172   4.516 -0.2570  1.0202  0.1608
  753WAT      O 2469   3.384   4.333   3.731  0.0354 -0.6580  0.2298
  753WAT     H1 2470   3.292   4.318   3.754  0.0620 -0.6854  0.3203
  753WAT     H2 2471   3.431   4.259   3.770  0.1935 -0.2292  0.8800
  754WAT      O 2472   2.280   2.400   0.585  0.0204  0.4320 -0.3182
  754WAT     H1 2473   2.361   2.405   0.636 -1.4922  0.6551  2.2881
  754WAT     H2 2474   2.293   2.327   0.526  1.4520 -0.7884  1.3922
  755WAT      O 2475   2.507   0.756   1.032  0.5413  0.5893 -0.4788
  755WAT     H1 2476   2.475   0.837   1.071 -1.0031  0.0354 -0.4853
  755WAT     H2 2477   2.551   0.783   0.952  0.4738  1.4539 -0.2370
  756WAT      O 2478   0.559   4.359   2.724 -0.0600  0.4802 -0.0709
  756WAT     H1 2479   0.621   4.326   2.660  0.7258  1.4578  0.1726
  756WAT     H2 2480   0.544   4.450   2.699 -1.0850  0.3799  0.1193
  757WAT      O 2481   1.050   0.177   1.162  0.2041  0.2765 -0.3628
  757WAT     H1 2482   1.027   0.220   1.080 -3.4723 -0.5824  0.0385
  757WAT     H2 2483   1.040   0.083   1.144 -0.5726  0.0696  0.9478
  758WAT      O 2484   1.867   2.871   0.279 -0.8395 -0.6492  0.2503
  758WAT     H1 2485   1.906   2.919   0.352 -1.8685 -1.5275  1.4266
  758WAT     H2 2486   1.882   2.779   0.300 -0.6953 -0.9083 -0.9246
  759WAT      O 2487   0.272   4.307   2.753  0.5337  0.0578 -0.4394
  759WAT     H1 2488   0.283   4.281   2.662  0.3417 -2.3128  0.1361
  759WAT     H2 2489   0.356   4.345   2.779  0.3345  1.4931 -1.7741
  760WAT      O 2490   0.841   0.420   4.829 -0.6661  0.7111 -0.1707
  760WAT     H1 2491   0.855   0.397   4.737 -1.4473 -0.3270 -0.0493
  760WAT     H2 2492   0.929   0.429   4.865 -0.3279 -0.3358 -0.6823
  761WAT      O 2493   4.493   3.550   3.041 -0.7603  0.3573 -0.2457
  761WAT     H1 2494   4.528   3.497   3.112 -1.6028 -0.4375 -0.4043
  761WAT     H2 2495   4.456   3.627   3.084 -0.7816  0.1372  0.1291
  762WAT      O 2496   3.363   1.818   2.707 -0.3370 -0.1028 -0.1490
  762WAT     H1 2497   3.417   1.746   2.740  0.7586  0.7621  0.0011
  762WAT     H2 2498   3.391   1.894   2.757 -3.2215  0.0088  1.4752
  763WAT      O 2499   2.811   2.802   0.945 -0.5792  0.0734  0.2357
  763WAT     H1 2500   2.784   2.840   0.861 -0.8141 -1.3097 -0.3341
  763WAT     H2 2501   2.740   2.741   0.967  0.3143 -0.8777  0.5567
  764WAT      O 2502   2.742   2.980   1.294 -0.0005 -0.2856 -0.3415
  764WAT     H1 2503   2.711   3.018   1.212  2.4202 -0.6089 -1.5014
  764WAT     H2 2504   2.708   3.038   1.362 -2.3382 -0.1869 -1.5110
  765WAT      O 2505   2.686   2.920   4.697  0.0443 -0.3614 -0.0442
  765WAT     H1 2506   2.723   2.974   4.628 -2.0769 -0.3391 -1.2549
  765WAT     H2 2507   2.622   2.976   4.741 -0.3328 -1.0955  0.3792
  766WAT      O 2508   0.675   0.117   4.869 -0.1938  0.0974  0.5022
  766WAT     H1 2509   0.670   0.191   4.808 -1.2525 -1.3691 -1.3094
  766WAT     H2 2510   0.748   0.064   4.837 -1.8436 -1.6050 -0.7147
  767WAT      O 2511   1.329   3.294   2.295  0.3445  0.1789 -0.1178
  767WAT     H1 2512   1.329   3.262   2.385  2.0112 -0.4318 -0.2964
  767WAT     H2 2513   1.292   3.222   2.244  0.2017  0.1884 -0.0298
  768WAT      O 2514   1.243   4.012   1.090 -0.1440 -0.0674  0.1268
  768WAT     H1 2515   1.275   3.996   1.179  0.7032  0.8316 -0.0065
  768WAT     H2 2516   1.197   4.096   1.094 -0.6340 -0.3127 -0.1596
  769WAT      O 2517   2.812   4.151   1.799 -0.3484  0.4059  0.6562
  769WAT     H1 2518   2.740   4.167   1.738  0.0792  1.4833  0.4082
  769WAT     H2 2519   2.770   4.143   1.885 -0.8730 -0.2685  0.3451
  770WAT      O 2520   3.385   4.852   3.633  0.0143 -0.0785 -0.4799
  770WAT     H1 2521   3.392   4.795   3.556 -2.4763 -2.0532  0.6121
  770WAT     H2 2522   3.293   4.879   3.635  0.3221  1.0266  1.0918
  771WAT      O 2523   1.630   0.115   0.204 -0.0639 -0.1026 -0.2110
  771WAT     H1 2524   1.700   0.121   0.139  0.4930 -0.1465  0.3733
  771WAT     H2 2525   1.675   0.122   0.288 -0.8485  0.6901  0.1611
  772WAT      O 2526   1.078   0.759   3.113 -0.7661  0.7039 -0.4417
  772WAT     H1 2527   1.127   0.804   3.181 -2.4332  0.9994  0.6217
  772WAT     H2 2528   1.060   0.672   3.149 -0.7823  0.4923 -0.9412
  773WAT      O 2529   2.562   4.601   1.424  0.3308 -0.0875  0.2570
  773WAT     H1 2530   2.536   4.644   1.342 -0.3377  3.0059  1.9464
  773WAT     H2 2531   2.657   4.589   1.415  0.5810  1.9057 -0.3249
  774WAT      O 2532   0.094   0.228   0.452  0.2605 -1.1271 -0.1912
  774WAT     H1 2533   0.046   0.224   0.535 -1.1095  0.0088 -0.8793
  774WAT     H2 2534   0.040   0.180   0.390  0.1965 -0.2094 -0.8809
  775WAT      O 2535   3.550   0.272   0.129 -0.2124  0.5406  0.3356
  775WAT     H1 2536   3.513   0.320   0.055 -2.0782  1.0467  1.5205
  775WAT     H2 2537   3.622   0.221   0.092 -0.0571  2.0085 -1.4998
  776WAT      O 2538   4.433   1.497   0.845 -0.2991  0.5089  0.0917
  776WAT     H1 2539   4.522   1.493   0.812 -1.0634 -0.8734 -2.0012
  776WAT     H2 2540   4.403   1.586   0.824 -0.4838 -0.0736 -2.3602
  777WAT      O 2541   0.603   2.289   0.545  0.1107  0.1691 -0.3098
  777WAT     H1 2542   0.681   2.327   0.505  0.4545 -0.1562  0.0436
  777WAT     H2 2543   0.608   2.314   0.637  0.5909 -1.1077  0.0358
  778WAT      O 2544   2.637   4.238   2.687 -0.1572 -0.3495  0.3422
  778WAT     H1 2545   2.645   4.326   2.649  0.7221 -0.2660  0.7018
  778WAT     H2 2546   2.543   4.222   2.689 -0.2768 -0.5253 -2.2508
  779WAT      O 2547   3.467   3.894   2.105  0.0174 -0.5229 -0.0935
  779WAT     H1 2548   3.449   3.925   2.194  0.2951 -1.0593  0.1564
  779WAT     H2 2549   3.499   3.971   2.059 -1.6862  0.1697 -0.2086
  780WAT      O 2550   1.850   4.640   0.168 -0.4882  0.2574 -1.0238
  780WAT     H1 2551   1.937   4.680   0.171 -0.1474 -0.4151 -1.5694
  780WAT     H2 2552   1.802   4.693   0.104 -1.2794  2.1091  0.9906
  781WAT      O 2553   2.894   3.384   4.284  0.2467  0.3284  0.1087
  781WAT     H1 2554   2.837   3.461   4.289  1.4315  1.3422 -1.1798
  781WAT     H2 2555   2.834   3.310   4.290 -0.9836  1.3219  0.8969
  782WAT      O 2556   0.013   3.777   1.857 -0.0847  0.2207  0.3060
  782WAT     H1 2557   0.101   3.808   1.839  0.2866 -1.3003 -0.7086
  782WAT     H2 2558  -0.045   3.838   1.811  0.5098  0.5483 -0.0058
  783WAT      O 2559   1.147   4.855   2.536 -0.4041 -0.2650 -0.5876
  783WAT     H1 2560   1.155   4.767   2.572  1.1371 -0.9399 -2.4342
  783WAT     H2 2561   1.074   4.849   2.474  1.6713 -1.2197 -3.1219
  784WAT      O 2562   3.536   2.994   0.354 -0.3367  0.3331  0.3592
  784WAT     H1 2563   3.605   2.968   0.415  0.6335  1.8681 -0.0130
  784WAT     H2 2564   3.459   3.008   0.409 -0.7942 -2.5985  0.6438
  785WAT      O 2565   0.359   0.917   3.995  0.6658  0.3110  0.2145
  785WAT     H1 2566   0.375   0.992   3.939 -0.9455  1.0534  0.6588
  785WAT     H2 2567   0.265   0.899   3.984  0.4386  0.0859  2.1365
  786WAT      O 2568   3.545   4.556   2.201  0.0443 -0.5020 -0.0282
  786WAT     H1 2569   3.587   4.479   2.163  1.5190 -0.1718  0.8368
  786WAT     H2 2570   3.542   4.538   2.295 -1.4108 -0.3236 -0.0240
  787WAT      O 2571   3.495   2.260   0.461 -0.4824 -0.0558  0.2097
  787WAT     H1 2572   3.510   2.218   0.545  0.0490  0.0945  0.1963
  787WAT     H2 2573   3.581   2.262   0.420 -0.8525 -0.7297 -0.6227
  788WAT      O 2574   3.904   4.324   4.837 -0.5978 -0.2670 -0.4366
  788WAT     H1 2575   3.885   4.418   4.845 -0.3355 -0.1999 -0.5948
  788WAT     H2 2576   3.959   4.317   4.759  0.0555 -0.4528  0.0304
  789WAT      O 2577   1.187   3.939   4.974  0.0693 -0.0275  0.2308
  789WAT     H1 2578   1.123   3.887   4.925 -1.2709  1.6381  0.1072
  789WAT     H2 2579   1.219   4.004   4.910 -0.2413  0.9311  1.0223
  790WAT      O 2580   0.991   3.935   3.148 -0.3947  0.3544 -0.0761
  790WAT     H1 2581   1.003   4.030   3.147  1.3962  0.1695 -0.3877
  790WAT     H2 2582   0.926   3.919   3.216 -0.0773  1.7494  0.5830
  791WAT      O 2583   4.453   0.150   0.254 -0.6060 -0.1625 -0.0922
  791WAT     H1 2584   4.370   0.156   0.301 -1.0391 -1.6039 -0.6243
  791WAT     H2 2585   4.431   0.171   0.163 -0.2382  0.2166 -0.0967
  792WAT      O 2586   0.599   3.218   4.537 -0.2592  0.8439  0.0879
  792WAT     H1 2587   0.684   3.250   4.507  0.9308 -1.9362  0.1805
  792WAT     H2 2588   0.615   3.189   4.627 -2.3083  3.6186  1.5045
  793WAT      O 2589   0.959   0.298   5.105  0.3856 -0.9924  0.2830
  793WAT     H1 2590   0.891   0.290   5.172  1.1652 -0.4067  1.1601
  793WAT     H2 2591   0.949   0.387   5.072  0.1463 -1.2073 -0.2351
  794WAT      O 2592   1.243   1.941   2.392  1.0760 -0.0730  0.0256
  794WAT     H1 2593   1.321   1.921   2.342  0.2432  0.9382 -1.7859
  794WAT     H2 2594   1.171   1.929   2.330 -0.0424  0.8933  1.0800
  795WAT      O 2595   0.090   1.353   0.203 -0.1271  0.5192  0.2517
  795WAT     H1 2596   0.022   1.316   0.259 -2.4112  0.1502 -2.5465
  795WAT     H2 2597   0.124   1.428   0.253 -0.5048 -0.9835  2.9421
  796WAT      O 2598   4.063   3.680   2.995 -0.1982 -0.1034 -0.0756
  796WAT     H1 2599   3.989   3.632   3.032  0.4890 -1.3079 -0.2114
  796WAT     H2 2600   4.110   3.713   3.072 -1.5120  1.7676  0.0107
  797WAT      O 2601  -0.022   4.146   0.869 -0.8873  0.2405 -0.7003
  797WAT     H1 2602   0.034   4.183   0.801 -1.1978 -0.5346 -1.3920
  797WAT     H2 2603  -0.011   4.052   0.861  0.6240  0.1322  1.6527
  798WAT      O 2604   3.553   0.503   3.420 -0.0325  0.1447 -0.6290
  798WAT     H1 2605   3.466   0.488   3.456 -0.3526  0.0406 -1.4248
  798WAT     H2 2606   3.588   0.415   3.405  0.6071  0.1693  0.5883
  799WAT      O 2607   3.088   0.401   2.472 -0.8859 -0.7504  0.2704
  799WAT     H1 2608   3.042   0.479   2.443 -3.4493 -2.5716 -0.9334
  799WAT     H2 2609   3.107   0.418   2.565 -1.0349  1.3940 -0.0399
  800WAT      O 2610   2.828   3.959   0.267 -0.0616 -0.1066  0.5840
  800WAT     H1 2611   2.837   3.867   0.293 -0.1379 -0.8681 -1.8383
  800WAT     H2 2612   2.843   3.959   0.172 -1.7596  2.1103  0.2188
  801WAT      O 2613   1.276   2.093   2.602 -0.0330 -0.0422  0.1926
  801WAT     H1 2614   1.183   2.116   2.609 -0.4376 -1.2001 -0.9438
  801WAT     H2 2615   1.279   2.030   2.530  1.5484 -0.5247  0.6518
  802WAT      O 2616   4.281   3.983   2.462 -0.2466 -0.1225 -0.7507
  802WAT     H1 2617   4.209   4.014   2.408  0.7417  0.5781 -1.7262
  802WAT     H2 2618   4.347   4.053   2.456  1.0953 -1.3554 -1.0958
  803WAT      O 2619   3.380   5.138   3.586 -0.5085  0.4415 -0.0497
  803WAT     H1 2620   3.421   5.155   3.671 -0.5230  0.8486 -0.1209
  803WAT     H2 2621   3.380   5.042   3.578 -0.6945  0.3937  0.4961
  804WAT      O 2622   3.567   2.137   2.497  0.3927 -0.3654  0.3763
  804WAT     H1 2623   3.532   2.141   2.408  1.8943 -0.5092 -0.2488
  804WAT     H2 2624   3.548   2.224   2.533 -0.6074 -0.4467  0.0968
  805WAT      O 2625   2.240   2.051   2.929  0.1168 -0.0640  0.2881
  805WAT     H1 2626   2.238   2.101   3.011  1.8566 -0.9949  0.9397
  805WAT     H2 2627   2.318   2.082   2.884  0.4998 -1.2666  0.1029
  806WAT      O 2628   0.781   3.413   3.921 -0.3215  0.4930  0.5919
  806WAT     H1 2629   0.777   3.320   3.941  0.4933 -0.0261 -1.4280
  806WAT     H2 2630   0.690   3.442   3.922 -0.7145 -0.6727 -0.1988
  807WAT      O 2631   2.192   0.966   0.700  0.3126  0.0096  0.0103
  807WAT     H1 2632   2.159   0.881   0.672  1.5030 -0.2299 -0.7474
  807WAT     H2 2633   2.264   0.984   0.640  1.5006  0.5204  1.5302
  808WAT      O 2634   3.442   1.639   1.123 -0.7212  0.5792 -0.1074
  808WAT     H1 2635   3.394   1.611   1.045 -2.7133  1.1580  0.8425
  808WAT     H2 2636   3.504   1.568   1.139 -1.5064 -0.4061 -1.1944
  809WAT      O 2637   2.304   3.486   1.084  0.4233 -0.6565 -0.0609
  809WAT     H1 2638   2.269   3.475   0.995 -0.8587 -0.6553  0.4194
  809WAT     H2 2639   2.300   3.580   1.100 -1.0780 -0.8073  0.6371
  810WAT      O 2640   1.027   2.311   0.508 -0.1035  0.3461 -0.7984
  810WAT     H1 2641   1.080   2.390   0.498 -1.7195  1.5105 -0.6361
  810WAT     H2 2642   0.947   2.330   0.460 -0.7623 -0.9824 -0.2671
  811WAT      O 2643   2.567   4.984   0.810  0.4901 -0.4097 -0.2971
  811WAT     H1 2644   2.532   5.070   0.786  1.2540 -0.4715 -1.6668
  811WAT     H2 2645   2.573   4.988   0.906 -0.5043  0.6585 -0.2484
  812WAT      O 2646   0.873   2.949   2.068 -0.1763 -0.5669  0.6374
  812WAT     H1 2647   0.811   3.016   2.040  0.1346  0.2227  1.7659
  812WAT     H2 2648   0.892   2.899   1.988  0.1459  1.1516 -0.3988
  813WAT      O 2649   4.210   2.947   3.702 -0.2151 -0.3931 -0.4463
  813WAT     H1 2650   4.190   3.005   3.776  0.5879  0.2834 -0.7382
  813WAT     H2 2651   4.138   2.884   3.701 -0.6783  0.0972  0.3950
  814WAT      O 2652   3.798   4.433   0.436 -0.1822 -0.2536  0.4493
  814WAT     H1 2653   3.795   4.352   0.486 -0.6206 -1.3123 -1.1941
  814WAT     H2 2654   3.871   4.421   0.375 -1.5000 -0.3218 -1.1917
  815WAT      O 2655   3.097   3.021   3.613 -0.4393 -0.1103 -0.3756
  815WAT     H1 2656   3.062   3.053   3.696  0.1635 -1.6714  0.5217
  815WAT     H2 2657   3.025   2.971   3.574 -0.8211  0.8705 -0.9605
  816WAT      O 2658   0.572   1.528   4.139 -0.3970 -0.3666  0.0931
  816WAT     H1 2659   0.503   1.545   4.203  0.3100 -0.4727  0.9112
  816WAT     H2 2660   0.538   1.456   4.085 -0.7619 -0.7002  0.7504
  817WAT      O 2661   0.103   1.449   3.175  0.5491  0.5222  0.3108
  817WAT     H1 2662   0.138   1.518   3.119 -0.1920  1.4092  0.9105
  817WAT     H2 2663   0.018   1.427   3.137  1.3139 -0.9797 -0.6129
  818WAT      O 2664   0.158   1.892   1.353  0.2364 -0.0437 -0.7124
  818WAT     H1 2665   0.139   1.929   1.439 -1.3943  1.4728 -1.6539
  818WAT     H2 2666   0.194   1.805   1.372 -2.6215 -0.9092  1.4773
  819WAT      O 2667   3.935   4.421   3.449  0.1763 -0.1928 -0.6179
  819WAT     H1 2668   3.845   4.413   3.417 -1.1808 -0.1574  2.7896
  819WAT     H2 2669   3.954   4.336   3.488  1.8316 -0.3140 -1.6029
  820WAT      O 2670   1.115   4.474   3.035 -0.6640 -1.1617 -0.2595
  820WAT     H1 2671   1.175   4.504   3.103 -0.4754  0.8157 -1.2010
  820WAT     H2 2672   1.152   4.391   3.004  0.9458 -0.5672 -0.0152
  821WAT      O 2673   0.579   2.774   3.997 -0.4169  0.0479  0.1226
  821WAT     H1 2674   0.635   2.762   3.921 -1.7608  0.0137 -0.8898
  821WAT     H2 2675   0.566   2.869   4.003  2.5054  0.4502  2.4640
  822WAT      O 2676   2.763   3.300   5.257  0.0997  0.4577  0.5314
  822WAT     H1 2677   2.776   3.288   5.163  0.1701 -2.9667  0.8519
  822WAT     H2 2678   2.668   3.311   5.267 -0.0249 -0.1821  0.0992
  823WAT      O 2679   2.487   4.691   3.344 -0.2946 -0.5173 -0.5797
  823WAT     H1 2680   2.413   4.631   3.334  0.0866 -1.4393  1.6747
  823WAT     H2 2681   2.461   4.749   3.416 -0.0115  1.0797 -1.7065
  824WAT      O 2682   4.150   2.753   4.010 -0.2871 -0.7368 -0.0511
  824WAT     H1 2683   4.066   2.714   4.034 -2.0647  1.4236 -2.3852
  824WAT     H2 2684   4.179   2.703   3.934  1.3256 -2.3150  1.4766
  825WAT      O 2685   4.321   4.951   3.673 -0.0045 -0.4884 -0.0427
  825WAT     H1 2686   4.296   4.958   3.765 -0.5433  1.3037 -0.2803
  825WAT     H2 2687   4.397   5.009   3.664 -0.2765 -0.2358 -0.8258
  826WAT      O 2688   1.355   0.810   2.124 -0.3481  0.1014 -0.2478
  826WAT     H1 2689   1.265   0.785   2.146  0.0657 -1.6943 -0.3775
  826WAT     H2 2690   1.377   0.879   2.185 -2.3912  1.8576 -1.3695
  827WAT      O 2691   0.557   4.213   2.178  0.5040  0.4125 -0.2688
  827WAT     H1 2692   0.637   4.263   2.159  0.9653 -0.8246 -1.7491
  827WAT     H2 2693   0.488   4.278   2.183  1.7159  1.6832  2.2216
  828WAT      O 2694   2.269   2.201   4.503 -0.2937 -0.0935  0.2086
  828WAT     H1 2695   2.324   2.272   4.536 -0.8768 -0.0262  1.0453
  828WAT     H2 2696   2.247   2.149   4.580 -1.8644  0.1893 -0.0140
  829WAT      O 2697   1.517   3.867   3.834 -0.2116 -0.5845  0.1475
  829WAT     H1 2698   1.533   3.780   3.799  0.0870 -0.4939  0.0584
  829WAT     H2 2699   1.442   3.900   3.784 -1.3717 -1.4208  1.2877
  830WAT      O 2700   2.767   2.903   4.198  0.1415 -0.4520 -0.4761
  830WAT     H1 2701   2.849   2.855   4.204  0.1718 -0.3294  0.2308
  830WAT     H2 2702   2.699   2.837   4.212  0.2253 -0.0794  2.3103
  831WAT      O 2703   0.382   2.008   2.191  0.0166  0.4024  0.3885
  831WAT     H1 2704   0.441   1.946   2.233 -0.3246 -0.9245 -0.9950
  831WAT     H2 2705   0.307   2.014   2.251  0.2903 -0.1282  0.7940
  832WAT      O 2706   4.043   0.177   0.647 -0.2478  0.1349 -0.7436
  832WAT     H1 2707   4.112   0.192   0.583  0.0517  0.4694 -0.3452
  832WAT     H2 2708   4.028   0.262   0.687 -0.6459 -0.0094 -0.5832
  833WAT      O 2709   0.546   0.256   4.342 -0.2654  0.2355 -0.5381
  833WAT     H1 2710   0.640   0.243   4.329 -0.3971 -1.5630 -0.0435
  833WAT     H2 2711   0.536   0.349   4.361  1.2207  0.7437 -2.0874
  834WAT      O 2712   2.769   1.385   0.853 -0.2265 -0.3663 -0.2468
  834WAT     H1 2713   2.811   1.351   0.932  0.1177 -2.7122 -1.3541
  834WAT     H2 2714   2.831   1.450   0.820  0.7738 -1.0846  0.1483
  835WAT      O 2715   4.258   1.676   3.484 -0.0760 -0.1552  0.3523
  835WAT     H1 2716   4.247   1.600   3.428  2.0427 -0.5549  0.4049
  835WAT     H2 2717   4.350   1.701   3.474  0.1877  0.2393  3.0057
  836WAT      O 2718   2.060   4.615   4.176  0.2868 -0.1184  0.6050
  836WAT     H1 2719   1.986   4.646   4.125  0.6106  2.4836  1.5341
  836WAT     H2 2720   2.034   4.529   4.208 -1.5749 -0.0203 -0.5486
  837WAT      O 2721   1.082   0.060   4.011 -0.3602  0.4931  0.2310
  837WAT     H1 2722   1.002   0.016   3.982 -0.2077  1.5515 -2.0225
  837WAT     H2 2723   1.153   0.011   3.968 -0.0916  1.8772 -0.9642
  838WAT      O 2724   4.371   3.592   5.130 -0.2554  0.0631  0.0950
  838WAT     H1 2725   4.343   3.529   5.197  0.6709 -0.1593  0.2895
  838WAT     H2 2726   4.292   3.642   5.110 -1.0912 -1.3448 -0.2730
  839WAT      O 2727  -0.011   1.134   2.084  0.0619  0.4503  0.3832
  839WAT     H1 2728   0.036   1.148   2.167 -0.2646  3.2447  0.1675
  839WAT     H2 2729   0.052   1.158   2.017 -0.1200 -0.5339 -0.1562
  840WAT      O 2730   0.951   4.213   2.850 -0.3565  0.5893 -0.3699
  840WAT     H1 2731   0.872   4.251   2.888  0.1073  1.3919 -0.1785
  840WAT     H2 2732   0.929   4.198   2.758 -1.0417 -0.0884 -0.1002
  841WAT      O 2733   4.237   3.530   3.836  0.2525  0.4143  0.1394
  841WAT     H1 2734   4.163   3.568   3.789 -0.2741 -1.0895 -0.2888
  841WAT     H2 2735   4.235   3.573   3.922 -0.1897  1.4764 -0.3863
  842WAT      O 2736   0.040   2.408   0.587 -0.0980 -1.0087 -0.7319
  842WAT     H1 2737   0.037   2.345   0.514 -0.6826 -1.2108 -0.5428
  842WAT     H2 2738   0.001   2.487   0.551  2.1265 -0.1816 -1.4804
  843WAT      O 2739   3.436   2.216   1.308  0.3038 -0.5969  0.1266
  843WAT     H1 2740   3.410   2.183   1.222  0.4605 -2.1982  0.6570
  843WAT     H2 2741   3.429   2.140   1.366  0.7065  0.3193  1.4277
  844WAT      O 2742   0.911   1.997   2.175 -0.1061  0.3165 -0.3579
  844WAT     H1 2743   0.958   2.067   2.219 -1.1830 -0.2023  1.7419
  844WAT     H2 2744   0.820   2.027   2.171 -0.6677 -1.0744  0.9763
  845WAT      O 2745   3.697   3.954   0.478 -0.0199  0.1479  0.0260
  845WAT     H1 2746   3.739   4.031   0.440  0.3849  0.8037  1.6921
  845WAT     H2 2747   3.767   3.889   0.482  0.4170  0.6477  1.1485
  846WAT      O 2748   1.409   4.176   0.899 -0.3008  0.4150 -0.3546
  846WAT     H1 2749   1.318   4.155   0.879 -1.0210  2.3944  0.5710
  846WAT     H2 2750   1.439   4.103   0.954 -0.9263 -0.8314 -1.6282
  847WAT      O 2751   2.270   0.629   2.118  0.3510 -0.5603  0.2991
  847WAT     H1 2752   2.355   0.671   2.127 -0.4297  0.6273  2.9214
  847WAT     H2 2753   2.214   0.696   2.079 -0.2373 -0.0066  2.0095
  848WAT      O 2754   0.378   4.674   4.743  0.8679 -0.0076  0.3631
  848WAT     H1 2755   0.312   4.744   4.747  0.7918 -0.1310  1.8687
  848WAT     H2 2756   0.400   4.657   4.835  1.2590 -1.6219 -0.0042
  849WAT      O 2757   0.846   2.687   4.030  0.7328 -0.3423  0.1296
  849WAT     H1 2758   0.934   2.694   3.992  0.5069  0.6935 -0.2074
  849WAT     H2 2759   0.841   2.759   4.093  0.6236 -1.2503  1.1977
  850WAT      O 2760   0.941   2.293   0.779  0.4184  0.0865 -0.0402
  850WAT     H1 2761   0.982   2.377   0.797 -0.0637  0.6458 -1.3868
  850WAT     H2 2762   0.974   2.268   0.693 -1.1381 -0.0085 -0.6380
  851WAT      O 2763   3.883   5.096   1.691 -0.1756  0.5826 -0.5460
  851WAT     H1 2764   3.833   5.053   1.761 -0.7874  0.6230 -0.9430
  851WAT     H2 2765   3.868   5.189   1.705 -2.3463  0.5513 -2.1380
  852WAT      O 2766   3.144   3.776   0.923 -0.3106  0.6139 -0.2784
  852WAT     H1 2767   3.122   3.783   0.830  0.1691 -1.4790 -0.6113
  852WAT     H2 2768   3.240   3.778   0.925 -0.3029  0.0572  0.0957
  853WAT      O 2769   0.384   3.144   4.377 -0.0579 -0.7949 -0.2077
  853WAT     H1 2770   0.444   3.150   4.303  0.4090 -4.1664 -0.2790
  853WAT     H2 2771   0.437   3.165   4.454 -0.0014  0.6444 -0.6230
  854WAT      O 2772   0.661   4.472   4.349  0.1911 -0.1654 -0.3936
  854WAT     H1 2773   0.660   4.381   4.378  0.2369 -0.0465 -0.0223
  854WAT     H2 2774   0.591   4.514   4.398 -0.8892 -0.3484 -1.7069
  855WAT      O 2775   1.389   0.883   3.628 -0.5202  0.3287 -0.1607
  855WAT     H1 2776   1.344   0.920   3.553  1.1429  1.5539 -0.6126
  855WAT     H2 2777   1.398   0.790   3.608 -1.2865  0.3989 -0.8433
  856WAT      O 2778   2.167   4.330   3.586  0.4362  0.5606  0.5439
  856WAT     H1 2779   2.073   4.347   3.577  0.6260  1.3703 -0.0153
  856WAT     H2 2780   2.177   4.240   3.555 -0.2228  0.3005  1.0574
  857WAT      O 2781   2.676   2.905   0.394 -0.1749 -0.2672 -0.8413
  857WAT     H1 2782   2.661   2.979   0.336  1.1581  0.8401  0.1496
  857WAT     H2 2783   2.760   2.869   0.366  0.1028 -0.2024 -0.1187
  858WAT      O 2784   1.218   1.585   2.459  0.1218 -0.3364  0.3751
  858WAT     H1 2785   1.273   1.528   2.514  1.6565  1.0753  0.3759
  858WAT     H2 2786   1.250   1.570   2.370 -1.1222 -1.2539  0.0654
  859WAT      O 2787   1.088   4.252   1.054 -0.1842  0.4036  0.0056
  859WAT     H1 2788   1.009   4.212   1.017  0.4732 -1.0843  0.1821
  859WAT     H2 2789   1.121   4.308   0.983  0.5245 -1.6709 -1.3899
  860WAT      O 2790   3.943   4.159   2.847 -0.0948  0.0358  0.8554
  860WAT     H1 2791   3.948   4.064   2.843  0.3271  0.0198  1.5135
  860WAT     H2 2792   4.022   4.189   2.801  0.2824  0.0392  1.4919
  861WAT      O 2793   1.053   0.344   4.069 -0.7163  0.4874 -0.1182
  861WAT     H1 2794   1.062   0.254   4.038  1.2442  0.6787 -0.2563
  861WAT     H2 2795   1.021   0.392   3.992 -0.4210  0.1474 -0.4599
  862WAT      O 2796   1.258   1.587   2.188  0.9560 -0.8953 -0.2043
  862WAT     H1 2797   1.191   1.626   2.132  0.8701 -0.4554  0.2057
  862WAT     H2 2798   1.338   1.591   2.135  0.7861 -0.8761 -0.4606
  863WAT      O 2799   1.740   1.730   3.160  0.1551 -0.3176 -0.3560
  863WAT     H1 2800   1.833   1.744   3.140 -0.3317  1.8680 -1.4430
  863WAT     H2 2801   1.738   1.711   3.253  1.5082  2.6615  0.3916
  864WAT      O 2802   2.095   0.859   2.002  0.4914  0.2380 -0.1383
  864WAT     H1 2803   2.049   0.938   2.029 -1.4852 -0.3007 -1.6983
  864WAT     H2 2804   2.110   0.870   1.908  1.5583 -0.5884 -0.0837
  865WAT      O 2805   0.695   1.810   2.741  0.1370  0.3500  0.1399
  865WAT     H1 2806   0.741   1.732   2.773 -0.2905  0.1498  0.2868
  865WAT     H2 2807   0.736   1.883   2.788  1.0087  0.2956 -0.5138
  866WAT      O 2808   4.252   0.374   4.087  0.7124 -0.0895 -0.2347
  866WAT     H1 2809   4.301   0.455   4.074  0.9140 -0.1738 -0.0229
  866WAT     H2 2810   4.275   0.347   4.176 -0.5148  0.3942  0.2389
  867WAT      O 2811   1.602  -0.005   1.026 -0.2972  0.4412  0.2195
  867WAT     H1 2812   1.531   0.049   1.060 -0.4776 -0.1557  0.7977
  867WAT     H2 2813   1.666  -0.009   1.098  0.7173  1.6343 -0.5633
  868WAT      O 2814   0.601   5.079   0.021  0.2675  0.0597 -0.0936
  868WAT     H1 2815   0.573   5.157   0.069  2.0732  0.5508  0.2348
  868WAT     H2 2816   0.604   5.107  -0.071  0.1726  0.1478 -0.0701
  869WAT      O 2817   0.127   0.629   1.216 -0.5698 -0.1236 -0.4063
  869WAT     H1 2818   0.040   0.664   1.197 -0.6851 -0.6631 -0.8941
  869WAT     H2 2819   0.151   0.580   1.137 -0.4222 -1.1621  0.2676
  870WAT      O 2820   3.465   2.796   2.012 -0.0323 -0.0686 -0.4678
  870WAT     H1 2821   3.485   2.745   1.934  0.9076  0.2620 -0.4557
  870WAT     H2 2822   3.413   2.737   2.066 -1.9211  0.1730 -1.9355
  871WAT      O 2823   3.822   3.514   1.787 -0.0203  0.0939  0.4626
  871WAT     H1 2824   3.800   3.479   1.873  0.7973 -0.9322  0.2770
  871WAT     H2 2825   3.856   3.602   1.804 -0.2554  0.0536  1.1454
  872WAT      O 2826   1.416   0.115   5.164 -0.1322  0.0227  0.0896
  872WAT     H1 2827   1.341   0.074   5.120 -0.2579  0.6710 -0.3199
  872WAT     H2 2828   1.378   0.163   5.237  0.1647 -1.7848  1.5075
  873WAT      O 2829   0.449   1.454   0.682  0.1095 -0.0248 -0.0758
  873WAT     H1 2830   0.515   1.522   0.675 -0.6050  0.5357 -2.4159
  873WAT     H2 2831   0.422   1.438   0.591 -2.7278 -0.4427  0.7466
  874WAT      O 2832   3.881   1.914   1.807 -0.0030 -0.6192 -0.3730
  874WAT     H1 2833   3.870   1.842   1.870 -0.0236  0.5422  0.9945
  874WAT     H2 2834   3.947   1.970   1.847 -0.1326  0.2247 -1.3272
  875WAT      O 2835   1.407   0.353   4.797 -0.1141 -0.5831 -0.0020
  875WAT     H1 2836   1.400   0.438   4.753 -1.6381 -1.0005 -0.6234
  875WAT     H2 2837   1.373   0.290   4.734 -0.4231 -1.4618  1.0205
  876WAT      O 2838   1.084   2.996   0.514  0.1489 -0.4019 -0.0418
  876WAT     H1 2839   1.128   2.915   0.539  0.3609 -0.0525  0.7286
  876WAT     H2 2840   0.997   2.989   0.554 -0.1474 -0.6442 -0.7208
  877WAT      O 2841   0.936   2.110   3.932  0.1141  0.1988 -0.4350
  877WAT     H1 2842   0.960   2.017   3.927  0.1358  0.2090 -0.5215
  877WAT     H2 2843   0.847   2.109   3.965  0.2952  0.1681  0.0587
  878WAT      O 2844   4.100   0.366   3.836  0.0303 -0.6606 -0.1475
  878WAT     H1 2845   4.150   0.367   3.917  3.1031  1.7311 -1.8553
  878WAT     H2 2846   4.164   0.343   3.769 -2.2410 -1.8838 -2.0316
  879WAT      O 2847   2.387   2.544   5.253 -0.9046  0.2392 -0.3110
  879WAT     H1 2848   2.405   2.615   5.314  0.4399 -0.3735  0.0409
  879WAT     H2 2849   2.456   2.551   5.187 -0.2702 -1.1795  0.1547
  880WAT      O 2850   0.234   3.558   2.669  0.3365  0.0222 -0.1753
  880WAT     H1 2851   0.196   3.624   2.611  0.0479 -0.1014 -0.1265
  880WAT     H2 2852   0.292   3.508   2.612 -0.8790 -0.8932 -0.6558
  881WAT      O 2853   0.882   3.281   0.987 -0.4290 -0.4148 -0.3697
  881WAT     H1 2854   0.969   3.269   0.949 -0.0970 -0.1029  0.2755
  881WAT     H2 2855   0.895   3.274   1.082 -0.9741  0.3970 -0.2160
  882WAT      O 2856   3.433   3.097   2.406  0.6911  0.2173 -0.1498
  882WAT     H1 2857   3.478   3.135   2.481 -1.3580  1.5663  0.4836
  882WAT     H2 2858   3.492   3.028   2.375  2.3331  0.7129  1.6715
  883WAT      O 2859   1.666   2.954   4.766 -0.5596  0.3285  0.0060
  883WAT     H1 2860   1.677   2.872   4.815 -2.1090  0.0143 -0.1288
  883WAT     H2 2861   1.659   2.926   4.675  0.4801  0.7616 -0.2191
  884WAT      O 2862   1.679   1.747   3.957 -0.0440  0.2671  0.1429
  884WAT     H1 2863   1.630   1.713   4.033 -0.0166 -0.7872 -0.2994
  884WAT     H2 2864   1.704   1.669   3.908  0.5861  0.9037 -0.5643
  885WAT      O 2865   0.421   4.859   2.735  0.1007 -0.5115  0.2117
  885WAT     H1 2866   0.387   4.917   2.803 -1.8260 -1.8718  0.4871
  885WAT     H2 2867   0.411   4.909   2.654 -2.1889 -0.6214  0.3480
  886WAT      O 2868   0.090   2.850   0.858 -0.3078  0.0667  0.6229
  886WAT     H1 2869   0.118   2.770   0.902  0.4112  0.5801  1.1299
  886WAT     H2 2870   0.000   2.832   0.831  0.4865 -1.6701 -1.1040
  887WAT      O 2871   3.373   4.704   3.418 -0.0644 -0.4739 -0.3339
  887WAT     H1 2872   3.372   4.619   3.462 -0.6335 -0.9549 -1.2453
  887WAT     H2 2873   3.441   4.696   3.352 -1.0102 -0.6990 -1.3053
  888WAT      O 2874   1.380   3.168   2.536 -0.6888 -0.0583  0.0362
  888WAT     H1 2875   1.428   3.180   2.618  1.8382 -1.9879 -1.0209
  888WAT     H2 2876   1.342   3.080   2.543 -0.5487 -0.1932 -0.7680
  889WAT      O 2877   3.219   2.838   2.768 -0.0986  0.6321 -0.0735
  889WAT     H1 2878   3.182   2.781   2.701 -1.6771  0.4632  0.9005
  889WAT     H2 2879   3.164   2.824   2.845  1.9256  0.4785  1.4253
  890WAT      O 2880   4.411   0.215   1.432  0.0079 -0.1882 -0.1202
  890WAT     H1 2881   4.494   0.258   1.414 -0.4113 -0.3674 -2.8367
  890WAT     H2 2882   4.425   0.168   1.515  2.6843 -0.4665 -0.6671
  891WAT      O 2883   2.324   2.950   0.189 -0.3768  0.2553 -0.7133
  891WAT     H1 2884   2.356   2.861   0.173 -0.4884 -0.0083  0.4347
  891WAT     H2 2885   2.265   2.968   0.116  0.0423 -0.4105 -1.2272
  892WAT      O 2886   0.354   0.964   1.053  0.6125  0.3808 -0.3731
  892WAT     H1 2887   0.290   0.893   1.044 -0.4224  1.2380  0.0431
  892WAT     H2 2888   0.430   0.934   1.003 -0.7901  0.1298 -2.4482
  893WAT      O 2889   2.374   4.066   2.741  0.0309  0.2526 -0.0829
  893WAT     H1 2890   2.431   4.062   2.818 -0.4117 -1.9752  0.2079
  893WAT     H2 2891   2.400   3.990   2.688 -1.3482  0.3166 -0.9010
  894WAT      O 2892   3.224   0.757   3.133  0.1614  0.2790  0.1036
  894WAT     H1 2893   3.306   0.717   3.163  0.1402 -1.0214 -1.4699
  894WAT     H2 2894   3.249   0.845   3.105  0.7182  0.4313  1.0176
  895WAT      O 2895   2.186   3.653   0.434 -0.6812  0.0922 -0.5065
  895WAT     H1 2896   2.216   3.563   0.445  0.6437  0.6800  1.1876
  895WAT     H2 2897   2.104   3.646   0.386 -0.6796 -2.0225 -0.2701
  896WAT      O 2898   4.176   4.703   1.706  0.3145  0.0396  0.6604
  896WAT     H1 2899   4.168   4.630   1.768  1.1607 -0.0969  0.6200
  896WAT     H2 2900   4.150   4.780   1.756  2.0331  0.0926  1.5480
  897WAT      O 2901   0.618   3.082   1.296  0.4039  0.2563 -0.0459
  897WAT     H1 2902   0.620   2.987   1.311  1.7874  0.1157 -0.9742
  897WAT     H2 2903   0.554   3.114   1.360 -0.0843 -1.2928  0.2984
  898WAT      O 2904   2.971   2.317   0.726 -0.0782 -0.1078 -0.4404
  898WAT     H1 2905   2.924   2.386   0.679 -0.3042  0.4500  0.5730
  898WAT     H2 2906   2.909   2.245   0.730 -0.8020  0.5317  0.6576
  899WAT      O 2907   0.714   2.916   1.023 -0.2537 -0.1918  0.0002
  899WAT     H1 2908   0.629   2.884   1.053 -0.5158 -1.0960 -1.6209
  899WAT     H2 2909   0.694   2.984   0.959  0.2316 -0.3824 -0.3630
  900WAT      O 2910   3.687   2.238   1.438 -0.2305  0.0810 -0.3123
  900WAT     H1 2911   3.743   2.206   1.367  1.2254  3.1864 -0.7608
  900WAT     H2 2912   3.598   2.229   1.405  0.2293 -1.3107 -1.2569
  901WAT      O 2913   1.732   1.389   2.743  0.2197 -0.1394 -0.0703
  901WAT     H1 2914   1.816   1.387   2.696 -0.9677  2.2012 -2.5637
  901WAT     H2 2915   1.702   1.479   2.733 -1.8064 -0.4594  2.3251
  902WAT      O 2916   1.380   4.347   5.146 -0.1599  0.6354 -0.3076
  902WAT     H1 2917   1.372   4.425   5.092  2.4079  1.7745  0.7974
  902WAT     H2 2918   1.397   4.380   5.234  0.2014 -1.1523  0.3444
  903WAT      O 2919   3.000   1.563   4.392 -0.0467 -0.4012  0.7199
  903WAT     H1 2920   3.044   1.514   4.462 -0.5409 -0.7605  0.7788
  903WAT     H2 2921   3.055   1.641   4.380  0.1829 -0.4626  1.3299
  904WAT      O 2922   4.148   4.966   1.883 -0.4036  0.3660 -0.3634
  904WAT     H1 2923   4.126   5.054   1.915 -0.1978 -0.0918  1.1147
  904WAT     H2 2924   4.072   4.913   1.906  0.6298 -0.4336  1.3676
  905WAT      O 2925   0.842   4.832   2.038 -0.3794  0.4779  0.4370
  905WAT     H1 2926   0.935   4.815   2.051 -0.4733  0.5923  1.2962
  905WAT     H2 2927   0.835   4.857   1.946  0.1707 -1.2397 -0.0939
  906WAT      O 2928   0.334   1.205   1.173  0.3855  0.3444 -0.3774
  906WAT     H1 2929   0.326   1.262   1.097 -1.7744 -1.7019 -1.8425
  906WAT     H2 2930   0.348   1.118   1.136  0.8466 -0.4986  1.6433
  907WAT      O 2931   1.637   3.955   1.920  0.3257  0.6220 -0.2696
  907WAT     H1 2932   1.556   3.920   1.957  0.9499 -0.7766 -0.1558
  907WAT     H2 2933   1.617   3.968   1.827  0.3577 -1.0243 -0.5320
  908WAT      O 2934   2.963   1.264   3.792 -0.7333  0.2583 -0.0119
  908WAT     H1 2935   2.919   1.348   3.799  0.1428  0.9331 -1.9661
  908WAT     H2 2936   3.044   1.283   3.744  0.6076 -1.3202  1.4917
  909WAT      O 2937   0.119   3.876   0.021  0.2045  0.0014  0.3414
  909WAT     H1 2938   0.049   3.891   0.084 -0.1338  0.5361 -0.1593
  909WAT     H2 2939   0.193   3.927   0.055 -0.5621  1.8927 -0.6992
  910WAT      O 2940   2.608   4.371   0.809 -0.1143 -0.3617 -0.0507
  910WAT     H1 2941   2.671   4.429   0.852 -0.2036  0.3806 -0.9036
  910WAT     H2 2942   2.662   4.314   0.755  0.0965 -1.9922  1.7496
  911WAT      O 2943   1.450   4.824   2.349 -0.2878  0.0034  0.1845
  911WAT     H1 2944   1.508   4.900   2.349 -0.6545  0.2949 -0.4134
  911WAT     H2 2945   1.464   4.782   2.434  0.2848  0.4574  0.3174
  912WAT      O 2946   4.360   0.530   2.284 -0.1396 -0.2539 -0.8627
  912WAT     H1 2947   4.301   0.510   2.357 -0.1024 -0.3146 -0.8488
  912WAT     H2 2948   4.423   0.458   2.284  0.7882  0.5331  0.0125
  913WAT      O 2949   4.482   1.396   1.932 -0.1244  0.0116 -0.5520
  913WAT     H1 2950   4.431   1.398   2.013  0.7571 -2.6357  0.1970
  913WAT     H2 2951   4.568   1.429   1.957  0.7234 -2.4989  0.1891
  914WAT      O 2952   0.294   4.948   5.036 -0.0429  0.3662 -1.0050
  914WAT     H1 2953   0.310   4.972   5.127  0.8668  0.0848 -1.0769
  914WAT     H2 2954   0.351   5.006   4.985  0.6882 -0.5723 -1.2871
  915WAT      O 2955   2.820   1.466   5.096  0.3269  0.5431 -0.4871
  915WAT     H1 2956   2.748   1.503   5.046  0.0350  0.1683 -0.3486
  915WAT     H2 2957   2.893   1.461   5.034  0.5758  1.9581 -0.3364
  916WAT      O 2958   3.531   2.051   1.987 -0.6976 -0.3082  0.2605
  916WAT     H1 2959   3.545   2.034   1.894 -0.8142  1.7484 -0.1874
  916WAT     H2 2960   3.607   2.012   2.030  0.6679  0.8656 -0.9687
  917WAT      O 2961   3.179   2.424   0.878 -0.7862 -0.3543  0.3807
  917WAT     H1 2962   3.086   2.436   0.895 -0.9674  2.2372 -1.6808
  917WAT     H2 2963   3.182   2.384   0.791 -0.0809  1.3740 -0.4515
  918WAT      O 2964   3.308   4.194   1.423 -0.3680  0.4230  0.4336
  918WAT     H1 2965   3.359   4.224   1.348 -0.0859  1.0080  0.8571
  918WAT     H2 2966   3.370   4.147   1.478 -0.2823  1.1264  0.9446
  919WAT      O 2967  -0.010   0.573   3.879 -0.6468  0.3783  0.4157
  919WAT     H1 2968   0.073   0.602   3.841 -0.6990 -2.3027 -2.0563
  919WAT     H2 2969   0.009   0.486   3.914 -1.5229  1.3140  3.6076
  920WAT      O 2970   3.089   1.491   1.228 -0.3375  0.2466  0.4204
  920WAT     H1 2971   3.102   1.446   1.312 -0.2056 -0.2808  0.1243
  920WAT     H2 2972   3.174   1.529   1.208  0.0052 -0.7494 -0.1065
  921WAT      O 2973   4.217   4.982   3.166 -0.1046 -0.6071  0.5327
  921WAT     H1 2974   4.250   4.965   3.077 -0.2190  1.3640  0.0715
  921WAT     H2 2975   4.135   4.933   3.170  0.0944 -1.0399 -0.3071
  922WAT      O 2976   3.867   1.284   5.001  0.1338  0.1277  1.0159
  922WAT     H1 2977   3.795   1.293   5.064 -0.9837 -0.4242 -0.1190
  922WAT     H2 2978   3.928   1.225   5.043  0.9492  2.1323  2.8462
  923WAT      O 2979   3.333   0.322   4.925  0.0440 -0.2063 -0.4971
  923WAT     H1 2980   3.332   0.329   5.021  3.2810  0.2157 -0.3913
  923WAT     H2 2981   3.359   0.231   4.909 -1.4128 -0.5609 -1.0747
  924WAT      O 2982   2.257   3.880   0.550 -0.1190 -0.4123  0.6333
  924WAT     H1 2983   2.263   3.800   0.498  1.8995  1.3218 -2.1071
  924WAT     H2 2984   2.164   3.889   0.570 -0.6035 -2.5830 -0.3614
  925WAT      O 2985   4.492   0.678   3.003 -0.0192  0.4247 -0.5808
  925WAT     H1 2986   4.446   0.760   2.983 -0.1827  0.0410 -1.8440
  925WAT     H2 2987   4.476   0.622   2.927 -1.1282 -1.3294  0.8640
  926WAT      O 2988   4.465   2.867   3.785  0.3900  0.3381  0.3564
  926WAT     H1 2989   4.376   2.903   3.780  0.0200 -0.6056 -0.0856
  926WAT     H2 2990   4.466   2.797   3.720  1.0598 -0.4976  1.2372
  927WAT      O 2991   2.182   1.463   1.573  0.2708  0.4169 -0.3581
  927WAT     H1 2992   2.233   1.419   1.505 -0.2445 -0.0250 -0.4664
  927WAT     H2 2993   2.241   1.465   1.649 -0.3963 -2.4957  0.3776
  928WAT      O 2994   2.025   4.747   5.123 -0.4510  0.8346 -0.4450
  928WAT     H1 2995   1.937   4.761   5.159 -0.8888  0.9137 -1.5052
  928WAT     H2 2996   2.044   4.827   5.075 -0.3449  0.3149 -1.2922
  929WAT      O 2997   3.194   0.427   0.211 -0.0764 -0.5358  0.0945
  929WAT     H1 2998   3.280   0.406   0.247  0.9954 -0.3502 -2.2033
  929WAT     H2 2999   3.201   0.518   0.184 -1.0443 -0.4841 -0.0200
  930WAT      O 3000   3.378   0.087   4.584  0.2062 -0.7374 -0.0477
  930WAT     H1 3001   3.321   0.164   4.579  2.1535  0.8923  1.1537
  930WAT     H2 3002   3.375   0.061   4.676  0.3396 -1.4979 -0.2466
  931WAT      O 3003   0.130   4.528   5.302  0.1523 -0.8648  0.2277
  931WAT     H1 3004   0.098   4.459   5.243  1.7684 -1.0526 -0.4786
  931WAT     H2 3005   0.222   4.506   5.317  0.4846  0.6914  0.6590
  932WAT      O 3006   2.900   4.866   3.133  0.3561  0.3888  0.1911
  932WAT     H1 3007   2.892   4.959   3.155 -0.5621  0.4945 -0.5163
  932WAT     H2 3008   2.834   4.852   3.065  0.9470 -0.6304 -0.1932
  933WAT      O 3009   2.030   1.592   2.382 -0.1947  0.2957 -0.2469
  933WAT     H1 3010   1.984   1.554   2.307  0.5557 -0.3645 -0.3843
  933WAT     H2 3011   2.122   1.591   2.356  0.1005 -0.1718  0.7745
  934WAT      O 3012   1.856   2.563   4.668 -0.4689  0.2320  0.4686
  934WAT     H1 3013   1.774   2.555   4.620 -0.6193  0.8000  0.6250
  934WAT     H2 3014   1.833   2.544   4.759 -0.6232  1.3375  0.6705
  935WAT      O 3015   1.213   1.302   4.907  0.0601  0.1875  0.5387
  935WAT     H1 3016   1.212   1.207   4.915  2.0725 -0.0048 -0.7054
  935WAT     H2 3017   1.270   1.319   4.831  1.3991  2.4094  1.9156
  936WAT      O 3018   4.268   3.267   2.163  0.0266  0.2313  0.0455
  936WAT     H1 3019   4.250   3.315   2.244  0.8757 -0.9777  0.9790
  936WAT     H2 3020   4.350   3.305   2.131  0.1047  0.1726  0.1759
  937WAT      O 3021   1.263   1.051   3.410  0.0682  0.1547  0.1168
  937WAT     H1 3022   1.179   1.096   3.416 -0.0861 -0.1712  0.3753
  937WAT     H2 3023   1.322   1.117   3.373 -0.0775  0.6777  0.8054
  938WAT      O 3024   4.090   2.004   4.859  0.4993  0.2561 -0.3180
  938WAT     H1 3025   4.113   2.012   4.767  1.6102  1.0373  0.0145
  938WAT     H2 3026   4.021   1.937   4.860  0.2454  0.4541 -1.7342
  939WAT      O 3027   4.070   0.645   4.134  0.1598 -0.4107  0.4506
  939WAT     H1 3028   4.161   0.616   4.129  0.5598  0.9250 -0.9637
  939WAT     H2 3029   4.076   0.739   4.148 -1.0557 -0.5715  2.3026
  940WAT      O 3030   0.817   0.305   2.659  0.0548 -0.6584 -0.3351
  940WAT     H1 3031   0.849   0.293   2.570  0.3597  0.5398 -0.4134
  940WAT     H2 3032   0.814   0.400   2.670 -2.4918 -0.7241  0.0349
  941WAT      O 3033   1.112   3.278   4.493 -0.1208  0.0024  0.0573
  941WAT     H1 3034   1.189   3.236   4.455  0.0184 -0.9203  1.2867
  941WAT     H2 3035   1.144   3.318   4.574 -1.1584 -1.5477  1.2859
  942WAT      O 3036   2.495   3.648   3.946  0.2182  0.8561 -0.4614
  942WAT     H1 3037   2.489   3.736   3.909  0.7103  0.9339 -0.3615
  942WAT     H2 3038   2.531   3.594   3.876  0.0031  0.7522 -0.4931
  943WAT      O 3039   3.836   0.374   0.170  0.5007 -0.0367  0.0461
  943WAT     H1 3040   3.743   0.387   0.149  0.7904  0.4368 -0.9965
  943WAT     H2 3041   3.882   0.394   0.089  1.4418 -1.5072  0.1943
  944WAT      O 3042   4.052   1.240   3.023 -0.2486 -0.1911 -0.2457
  944WAT     H1 3043   4.113   1.167   3.039 -1.1162 -1.0508 -0.7632
  944WAT     H2 3044   3.978   1.222   3.080  0.0024  0.9250  0.4743
  945WAT      O 3045   3.805   2.005   4.256  0.1075  0.2335  0.3658
  945WAT     H1 3046   3.717   1.971   4.266  0.8119 -1.6803  0.5172
  945WAT     H2 3047   3.820   2.006   4.161  0.3391 -0.6583  0.3822
  946WAT      O 3048   3.543   1.982   3.210  0.2312  0.6160  0.2308
  946WAT     H1 3049   3.590   1.899   3.212  1.2283  1.1539 -0.3592
  946WAT     H2 3050   3.451   1.957   3.222  0.7257 -0.3462  2.6555
  947WAT      O 3051   0.940   1.769   0.382 -0.3229  0.8243 -0.2093
  947WAT     H1 3052   0.922   1.855   0.345 -1.6644  0.5192 -0.3026
  947WAT     H2 3053   0.869   1.714   0.350  0.6214 -0.3788 -0.3129
  948WAT      O 3054   4.117   0.710   1.557 -0.4199  0.1046 -0.7131
  948WAT     H1 3055   4.167   0.786   1.586 -0.2139 -0.2257 -0.1860
  948WAT     H2 3056   4.034   0.717   1.603  0.2780 -0.9585  0.7974
  949WAT      O 3057   0.133   0.262   3.577 -0.2134  0.3364 -0.3363
  949WAT     H1 3058   0.079   0.249   3.499 -0.3195 -1.5436  0.0065
  949WAT     H2 3059   0.157   0.355   3.574 -3.0510  1.1628 -0.7455
  950WAT      O 3060   2.138   3.787   3.172  0.6318 -0.3321 -1.1299
  950WAT     H1 3061   2.043   3.777   3.159 -0.2603  1.9130  2.1890
  950WAT     H2 3062   2.169   3.700   3.194 -1.0572 -0.8473 -0.6183
  951WAT      O 3063   0.413   0.444   0.382  0.6048 -0.0387 -0.0770
  951WAT     H1 3064   0.412   0.472   0.473 -1.3818 -3.3341  1.1118
  951WAT     H2 3065   0.325   0.463   0.350  0.9132 -0.0161 -0.9335
  952WAT      O 3066   0.982   3.920   2.869 -0.2512  0.6178  0.2598
  952WAT     H1 3067   0.947   3.911   2.957 -2.2547  1.6280 -0.3623
  952WAT     H2 3068   1.019   4.009   2.867  0.5611  0.2847  0.3253
  953WAT      O 3069   3.300   1.508   4.198  0.2609  0.2115 -0.3389
  953WAT     H1 3070   3.374   1.544   4.149 -0.2744  2.6411  0.5041
  953WAT     H2 3071   3.331   1.423   4.230  1.4317 -0.3819 -2.8521
  954WAT      O 3072   0.521   3.414   4.021  0.1931  0.5251  0.1557
  954WAT     H1 3073   0.456   3.477   4.053 -0.4851  0.2051 -0.5790
  954WAT     H2 3074   0.501   3.333   4.068 -1.5498 -0.2875 -1.8025
  955WAT      O 3075   3.178   0.047   1.823  0.3138 -0.1161 -0.0353
  955WAT     H1 3076   3.130  -0.017   1.876  0.4236 -0.0346  0.1612
  955WAT     H2 3077   3.118   0.067   1.751  0.1173 -0.1376  0.1221
  956WAT      O 3078   0.354   2.991   1.937 -0.3374  0.5779  0.1088
  956WAT     H1 3079   0.338   2.988   1.842 -0.2081  1.4879  0.0531
  956WAT     H2 3080   0.280   2.942   1.974  0.1873 -0.7502 -0.5073
  957WAT      O 3081   3.970   4.163   3.566  0.1473  0.1884  0.3224
  957WAT     H1 3082   3.962   4.178   3.660 -0.2997  1.2663  0.1195
  957WAT     H2 3083   3.963   4.068   3.556 -0.1094  0.0965  1.3427
  958WAT      O 3084   4.158   1.775   1.666  0.0316  0.0483  0.0082
  958WAT     H1 3085   4.241   1.778   1.618  0.3706 -2.8278  0.1985
  958WAT     H2 3086   4.102   1.838   1.622  1.5110  0.1842 -1.7939
  959WAT      O 3087   1.339   1.151   0.317  0.1705  0.8767  0.5087
  959WAT     H1 3088   1.422   1.103   0.327  0.1327  0.4653 -1.0033
  959WAT     H2 3089   1.362   1.227   0.264 -0.6652 -0.0023 -1.1928
  960WAT      O 3090   2.618   4.215   4.770  0.2523 -0.1481 -0.5384
  960WAT     H1 3091   2.603   4.142   4.829 -0.2161 -0.9233 -1.5907
  960WAT     H2 3092   2.705   4.248   4.793 -0.6038  0.7097  1.7589
  961WAT      O 3093   4.122   2.742   4.513 -0.0447  0.1450  0.9896
  961WAT     H1 3094   4.208   2.700   4.511 -0.2821 -0.3387  0.7005
  961WAT     H2 3095   4.139   2.831   4.544  0.5938  0.1426  0.6503
  962WAT      O 3096   0.433   3.581   3.692 -0.2888 -0.0934 -0.4600
  962WAT     H1 3097   0.358   3.620   3.737 -0.6441 -1.0094 -0.2177
  962WAT     H2 3098   0.487   3.655   3.665 -0.3352  0.5006  0.9964
  963WAT      O 3099   2.296   2.243   0.849  1.0302 -0.3379  0.7302
  963WAT     H1 3100   2.308   2.184   0.775  0.0107 -0.0797  0.3430
  963WAT     H2 3101   2.293   2.186   0.926  2.4283 -0.5843  0.6368
  964WAT      O 3102   3.962   4.402   2.226 -0.6111  0.2815 -0.8938
  964WAT     H1 3103   3.999   4.439   2.306 -1.0026 -0.6090 -0.2791
  964WAT     H2 3104   4.029   4.415   2.159 -0.0678  0.5815 -0.2969
  965WAT      O 3105   3.685   2.087   2.981  0.0136  0.0108  0.6455
  965WAT     H1 3106   3.616   2.045   2.930 -1.6921  1.7104  1.4357
  965WAT     H2 3107   3.672   2.055   3.070  1.0628 -0.6278  0.5779
  966WAT      O 3108   1.703   3.363   0.394  0.1667  0.0316 -0.2805
  966WAT     H1 3109   1.645   3.435   0.370  0.3680  0.7807  1.3437
  966WAT     H2 3110   1.732   3.327   0.310 -0.4198  1.4363 -1.1279
  967WAT      O 3111   3.181   1.896   1.053  0.1871 -0.3866  0.1445
  967WAT     H1 3112   3.184   1.856   1.139  0.0335  1.7836  1.2326
  967WAT     H2 3113   3.147   1.827   0.995  0.3264 -1.8908  1.7785
  968WAT      O 3114   3.826   0.392   4.732 -0.1614 -0.2879  0.2116
  968WAT     H1 3115   3.856   0.453   4.800 -1.7719  0.2462  0.5034
  968WAT     H2 3116   3.731   0.387   4.745 -0.6518  0.3816 -2.4266
  969WAT      O 3117   1.299   5.011   1.258 -0.1484 -0.0920 -0.7211
  969WAT     H1 3118   1.213   5.013   1.300 -0.0483  0.5035 -0.5320
  969WAT     H2 3119   1.324   4.919   1.257 -0.2460 -0.1406  0.3270
  970WAT      O 3120   1.573   4.014   0.068 -0.3484  0.0407 -0.0895
  970WAT     H1 3121   1.596   3.957  -0.006 -2.3089 -0.7453 -0.1582
  970WAT     H2 3122   1.520   4.083   0.030 -1.6620 -0.5555  0.5737
  971WAT      O 3123   1.787   5.087   2.033  0.1472  0.2481 -0.0791
  971WAT     H1 3124   1.770   4.995   2.009 -0.3727  0.4713 -0.5835
  971WAT     H2 3125   1.703   5.131   2.022  0.2879  0.7061  0.5933
  972WAT      O 3126   2.093   3.084   1.120  0.2162  0.0831  0.8135
  972WAT     H1 3127   2.062   3.084   1.211  0.0057 -0.7894  0.7446
  972WAT     H2 3128   2.033   3.144   1.075 -1.6142 -1.7497  0.6317
  973WAT      O 3129   1.221   1.482   3.322 -0.0259  0.2901  0.0319
  973WAT     H1 3130   1.200   1.442   3.238  0.5517 -0.9833  0.4740
  973WAT     H2 3131   1.171   1.564   3.322 -0.3801  0.1028 -1.3548
  974WAT      O 3132   3.361   3.658   0.434 -0.1664  0.0656  0.3479
  974WAT     H1 3133   3.322   3.604   0.365 -1.1693  0.1586  0.8274
  974WAT     H2 3134   3.287   3.688   0.486  0.5921 -0.1277  1.5768
  975WAT      O 3135   1.546   0.739   4.748  0.4825 -0.3687  0.0082
  975WAT     H1 3136   1.490   0.669   4.716  1.0859 -1.5369  1.3581
  975WAT     H2 3137   1.604   0.760   4.675 -1.0907  0.2549 -1.1124
  976WAT      O 3138   0.324   2.961   4.057 -0.9139  0.5761 -0.0291
  976WAT     H1 3139   0.360   2.954   3.969 -0.3048 -1.2991  0.3359
  976WAT     H2 3140   0.235   2.926   4.049  0.2732 -3.0947  0.6802
  977WAT      O 3141   1.291   0.416   4.160  0.3110  0.5345 -0.5970
  977WAT     H1 3142   1.288   0.510   4.177  0.4044  0.2803  0.9289
  977WAT     H2 3143   1.212   0.400   4.107 -0.9907  1.1190  1.0755
  978WAT      O 3144   0.565   1.189   3.345 -0.2384  0.4085  0.0565
  978WAT     H1 3145   0.551   1.239   3.425 -0.8567  2.3889 -1.1954
  978WAT     H2 3146   0.483   1.199   3.296 -0.3888 -1.8942 -0.2812
  979WAT      O 3147   1.204   3.744   2.830 -0.0932 -0.3819  0.1212
  979WAT     H1 3148   1.162   3.777   2.751  0.9451  0.3602 -0.1454
  979WAT     H2 3149   1.160   3.791   2.901 -0.0318  0.0644 -0.1272
  980WAT      O 3150   2.997   4.373   2.577  0.2640  0.0778  0.1703
  980WAT     H1 3151   3.068   4.366   2.513  0.5470 -0.8555  0.5687
  980WAT     H2 3152   2.965   4.283   2.587 -1.2775  0.5313 -0.3276
  981WAT      O 3153   4.537   3.594   2.239 -0.0456  0.3648 -0.0621
  981WAT     H1 3154   4.515   3.503   2.255  0.1720  0.3870  0.3797
  981WAT     H2 3155   4.478   3.644   2.296  0.7810  0.4426  0.7569
  982WAT      O 3156   1.464   3.970   1.564 -0.0459 -0.1709  1.0351
  982WAT     H1 3157   1.422   4.016   1.491 -0.0694 -0.5776  0.7880
  982WAT     H2 3158   1.420   4.002   1.642 -0.2496  0.0204  0.8403
  983WAT      O 3159   1.404   0.110   0.628  0.3330 -0.2311 -0.2603
  983WAT     H1 3160   1.382   0.063   0.547  0.7964 -2.7474  0.9745
  983WAT     H2 3161   1.437   0.195   0.599 -0.4639 -0.6733 -2.6466
  984WAT      O 3162   3.929   4.137   4.251 -0.0875  0.1124 -0.1542
  984WAT     H1 3163   3.921   4.101   4.339  0.5666  0.8066  0.2035
  984WAT     H2 3164   3.886   4.223   4.256  0.6018  0.4780 -0.3024
  985WAT      O 3165   4.240   4.866   0.300  0.0258 -0.1851  0.4424
  985WAT     H1 3166   4.204   4.886   0.386 -0.4010 -0.5739  0.3575
  985WAT     H2 3167   4.335   4.862   0.314 -0.1212 -1.6091  1.1917
  986WAT      O 3168   4.467   2.524   2.737  0.0022  0.3837 -0.5632
  986WAT     H1 3169   4.373   2.544   2.738 -0.1309 -0.1378  0.8501
  986WAT     H2 3170   4.493   2.533   2.646 -1.9787 -2.0151 -1.4688
  987WAT      O 3171   2.476   2.480   2.275 -0.0668  0.2579  0.3405
  987WAT     H1 3172   2.445   2.406   2.326 -0.1821 -0.4032 -0.6699
  987WAT     H2 3173   2.561   2.452   2.241  0.2765  0.9143  0.6370
  988WAT      O 3174   2.435   2.121   1.733  0.5902  0.3575  0.4898
  988WAT     H1 3175   2.341   2.139   1.732  0.9663  2.6256  0.2482
  988WAT     H2 3176   2.442   2.030   1.704 -1.5775 -0.3101  1.8032
  989WAT      O 3177   1.591   2.897   2.112  0.0864  0.1306 -0.4019
  989WAT     H1 3178   1.644   2.946   2.048 -0.3003  0.5836 -0.3715
  989WAT     H2 3179   1.654   2.872   2.180  0.0281  1.8321  0.3280
  990WAT      O 3180   3.751   1.962   2.204 -0.3060  0.4314 -0.4202
  990WAT     H1 3181   3.760   1.870   2.180  0.6879  0.8209 -1.6257
  990WAT     H2 3182   3.748   1.961   2.300 -1.5997 -0.9346 -0.4246
  991WAT      O 3183   3.498   4.938   1.703  0.1108  0.4381  0.2249
  991WAT     H1 3184   3.488   4.906   1.792  0.9304  0.7063  0.4124
  991WAT     H2 3185   3.570   4.887   1.667 -0.9143 -0.4531 -0.6599
  992WAT      O 3186   3.646   3.587   0.488  0.0358  0.4639  0.4125
  992WAT     H1 3187   3.673   3.571   0.398 -0.2699  0.8043  0.2554
  992WAT     H2 3188   3.559   3.627   0.480 -0.3138 -0.1677  0.8825
  993WAT      O 3189   1.123   2.056   0.635  0.1149  0.0661 -0.3576
  993WAT     H1 3190   1.171   1.990   0.585 -0.0550 -1.2370  1.1329
  993WAT     H2 3191   1.133   2.137   0.584  0.6825 -1.0023 -2.0088
  994WAT      O 3192   2.612   3.895   3.253  0.0790  0.5670  0.5066
  994WAT     H1 3193   2.519   3.915   3.241 -0.0945 -1.3600 -2.1514
  994WAT     H2 3194   2.657   3.978   3.240 -1.1544  1.1695 -0.0124
  995WAT      O 3195   0.657   4.146   3.027 -0.1955  0.6405 -0.7651
  995WAT     H1 3196   0.630   4.236   3.048  1.3136  1.1949 -1.0406
  995WAT     H2 3197   0.725   4.126   3.091  0.4994  0.2533 -1.6068
  996WAT      O 3198   2.340   5.126   2.688 -0.3675 -0.1956 -0.9845
  996WAT     H1 3199   2.277   5.187   2.649 -0.0824  0.0473 -1.0713
  996WAT     H2 3200   2.307   5.039   2.665 -0.0386 -0.0494 -2.0201
  997WAT      O 3201   0.637   1.201   0.835  0.1957  0.4509  0.0073
  997WAT     H1 3202   0.658   1.174   0.925  0.5634 -0.8514 -0.4421
  997WAT     H2 3203   0.722   1.199   0.790 -0.3361 -1.6849 -1.0297
  998WAT      O 3204   0.927   4.338   4.664  0.0615  0.1385  0.0071
  998WAT     H1 3205   0.954   4.417   4.711 -1.1317  0.6577 -0.1493
  998WAT     H2 3206   0.920   4.365   4.573  0.0451 -0.2643 -0.1159
  999WAT      O 3207   3.153   4.364   0.417  0.2755  0.0567 -0.0504
  999WAT     H1 3208   3.101   4.433   0.376  0.3840  0.7850  1.0057
  999WAT     H2 3209   3.101   4.285   0.406 -0.6317  0.6093  0.1709
 1000WAT      O 3210   3.178   1.558   3.088 -0.1030 -0.6597  0.1982
 1000WAT     H1 3211   3.148   1.488   3.029 -1.4046  1.3522 -1.6544
 1000WAT     H2 3212   3.274   1.551   3.086 -0.1789 -3.1892  1.1674
 1001WAT      O 3213   2.701   0.399   4.377  0.2585  0.3007  0.0194
 1001WAT     H1 3214   2.681   0.482   4.421 -2.1743 -0.1775 -0.0776
 1001WAT     H2 3215   2.627   0.342   4.397  0.1332 -0.6850 -2.8479
 1002WAT      O 3216   4.405   3.546   2.621 -0.2781  0.1366  0.4463
 1002WAT     H1 3217   4.333   3.562   2.682 -0.5078 -1.9449  0.8068
 1002WAT     H2 3218   4.401   3.619   2.559 -1.8317  0.7878  1.2566
 1003WAT      O 3219   1.812   0.664   3.031  0.3558 -0.4199  0.2370
 1003WAT     H1 3220   1.721   0.646   3.008 -0.0326 -0.5189  1.7389
 1003WAT     H2 3221   1.860   0.587   2.999  0.3014  0.6088 -2.5326
 1004WAT      O 3222   2.188   1.280   3.801 -0.6635  0.5989 -0.1076
 1004WAT     H1 3223   2.233   1.196   3.788 -1.5609  0.0323  0.3477
 1004WAT     H2 3224   2.113   1.259   3.856 -2.4474  1.1956 -2.1594
 1005WAT      O 3225   3.836   0.134   1.027 -0.3315 -0.1365  0.1043
 1005WAT     H1 3226   3.752   0.117   0.985  0.6481  0.0347 -2.0398
 1005WAT     H2 3227   3.846   0.229   1.024 -0.8716  0.0173  2.0803
 1006WAT      O 3228   3.002   0.443   3.747 -0.1119 -0.5048 -0.0166
 1006WAT     H1 3229   3.054   0.380   3.797  1.3002  0.2712 -0.4416
 1006WAT     H2 3230   2.981   0.512   3.809  1.1623  0.1829 -0.3056
 1007WAT      O 3231   1.338   1.854   0.103 -0.0514 -0.2319  0.4601
 1007WAT     H1 3232   1.282   1.919   0.060 -1.6877 -2.0433 -0.3103
 1007WAT     H2 3233   1.419   1.855   0.052 -0.8632 -0.2687 -0.8993
 1008WAT      O 3234   3.967   1.928   3.740 -0.3094  0.0003 -0.0268
 1008WAT     H1 3235   3.986   1.871   3.666 -0.9995 -0.4841  0.1617
 1008WAT     H2 3236   4.035   1.995   3.736 -0.0970 -0.2512 -0.8524
 1009WAT      O 3237   0.713   3.764   2.653 -0.9375 -0.2071 -0.1220
 1009WAT     H1 3238   0.720   3.695   2.719 -0.2817  0.1533  0.2032
 1009WAT     H2 3239   0.675   3.838   2.700  0.7546  0.4888  0.2340
 1010WAT      O 3240   2.790   2.407   5.200  0.0755  0.9680 -0.2089
 1010WAT     H1 3241   2.727   2.347   5.239 -0.9075  0.4769 -2.3722
 1010WAT     H2 3242   2.867   2.353   5.181  0.6704  1.2721  1.2207
 1011WAT      O 3243   2.999   4.342   1.718  0.0899  0.2650  0.3374
 1011WAT     H1 3244   2.936   4.275   1.744 -0.8874  0.9175 -0.2861
 1011WAT     H2 3245   3.031   4.378   1.800 -2.2159  1.6247  0.7360
 1012WAT      O 3246   3.709   3.872   1.464 -0.3015 -0.3637  0.1439
 1012WAT     H1 3247   3.764   3.852   1.540 -0.8003 -0.9007  0.3732
 1012WAT     H2 3248   3.770   3.877   1.391  0.1742  0.0539  0.5600
 1013WAT      O 3249   0.656   2.583   0.768  0.6254  0.0967  0.5533
 1013WAT     H1 3250   0.623   2.497   0.795  0.7523 -1.5454 -3.7889
 1013WAT     H2 3251   0.577   2.632   0.743  0.7660 -0.2949 -0.7333
 1014WAT      O 3252   2.272   4.890   1.333  0.0299  0.4308 -0.2738
 1014WAT     H1 3253   2.325   4.930   1.264 -1.1479  0.0113 -1.4695
 1014WAT     H2 3254   2.257   4.960   1.396  1.6898  0.6397 -0.0792
 1015WAT      O 3255   3.804   4.874   4.186 -0.3226 -0.9446 -0.6069
 1015WAT     H1 3256   3.809   4.826   4.269 -0.1162  0.6738  0.3678
 1015WAT     H2 3257   3.713   4.904   4.182  0.2881  1.3066  0.4801
 1016WAT      O 3258   0.828   3.975   0.879 -0.3557  0.2756 -0.0599
 1016WAT     H1 3259   0.838   4.068   0.861 -1.6919  0.3632 -0.4648
 1016WAT     H2 3260   0.750   3.969   0.933 -0.0540 -0.5877  0.3038
 1017WAT      O 3261   1.054   0.549   3.880 -0.4045  0.1929 -0.6825
 1017WAT     H1 3262   1.135   0.599   3.892 -0.9404  1.0942 -0.6609
 1017WAT     H2 3263   0.984   0.613   3.897 -1.1225 -0.7577  0.1207
 1018WAT      O 3264   1.957   3.632   4.093 -0.2379 -0.0650 -0.1533
 1018WAT     H1 3265   1.889   3.635   4.025  0.8839 -2.7599 -1.5471
 1018WAT     H2 3266   2.038   3.647   4.045  0.3852  0.4528  1.0425
 1019WAT      O 3267   3.695   1.478   0.760 -0.3932  0.4365  0.4533
 1019WAT     H1 3268   3.751   1.545   0.720 -0.8223  1.7867  2.0415
 1019WAT     H2 3269   3.756   1.416   0.799  0.0203 -0.5087 -1.5631
 1020WAT      O 3270   3.039   1.350   2.980 -0.2780  0.0019  0.0839
 1020WAT     H1 3271   2.967   1.394   2.935  0.3448 -0.5708 -1.5644
 1020WAT     H2 3272   3.093   1.315   2.909  1.5731  0.3305  1.2755
 1021WAT      O 3273   3.436   2.184   3.417 -0.0199 -0.1366 -0.1512
 1021WAT     H1 3274   3.341   2.190   3.428  0.2830  1.3547  2.2028
 1021WAT     H2 3275   3.449   2.186   3.322 -2.3658 -1.4631 -0.5765
 1022WAT      O 3276   2.191   5.008   4.208  0.3608  0.1978  0.0995
 1022WAT     H1 3277   2.135   5.084   4.224  0.1276 -0.3247  2.1425
 1022WAT     H2 3278   2.136   4.933   4.233  1.2041 -0.4902 -0.0678
 1023WAT      O 3279   1.130   2.057   3.172 -0.0931 -0.4867  0.4332
 1023WAT     H1 3280   1.186   1.997   3.124  2.8690  1.6235  0.9805
 1023WAT     H2 3281   1.140   2.031   3.264  0.2596  0.0813  0.5618
 1024WAT      O 3282   3.323   3.727   2.670 -0.4299 -0.0790  0.4370
 1024WAT     H1 3283   3.305   3.803   2.615  2.4945  0.7565  0.5064
 1024WAT     H2 3284   3.273   3.743   2.750  0.0762  1.7644  0.4324
 1025WAT      O 3285   0.381   1.822   4.674 -0.3279 -0.1408 -0.2500
 1025WAT     H1 3286   0.425   1.738   4.681  0.7127  0.4495  0.5582
 1025WAT     H2 3287   0.298   1.802   4.631 -0.9947 -1.8989  1.7039
 1026WAT      O 3288   3.792   0.849   4.279 -0.2511 -0.5466 -0.8426
 1026WAT     H1 3289   3.805   0.804   4.363 -1.2753  2.0816  0.8444
 1026WAT     H2 3290   3.705   0.822   4.251 -0.6947 -0.0179 -0.0418
 1027WAT      O 3291   2.336   1.964   2.032  0.0922 -0.5761  0.0880
 1027WAT     H1 3292   2.365   1.899   2.097  0.6278 -0.2118  0.2214
 1027WAT     H2 3293   2.399   2.035   2.041  1.2427 -1.2475 -2.0432
 1028WAT      O 3294   3.751   1.217   2.252 -0.4151 -0.1562 -0.3220
 1028WAT     H1 3295   3.810   1.274   2.302 -0.0636  0.4238 -1.3638
 1028WAT     H2 3296   3.804   1.140   2.232 -0.6967 -0.5915  0.5595
 1029WAT      O 3297   0.974   1.207   2.289 -0.4344 -0.4807 -0.3379
 1029WAT     H1 3298   0.975   1.241   2.199  0.8542  0.0937 -0.1171
 1029WAT     H2 3299   1.032   1.131   2.287 -0.9170 -0.8615 -0.1298
 1030WAT      O 3300   2.991   0.683   0.181 -0.4865 -0.1705 -0.1491
 1030WAT     H1 3301   2.949   0.601   0.209  1.1537 -0.1444  2.8002
 1030WAT     H2 3302   2.956   0.749   0.240  1.1429  0.4734  0.1465
 1031WAT      O 3303   3.415   2.319   5.024  0.2162  0.2428 -0.1644
 1031WAT     H1 3304   3.437   2.411   5.008  1.2505  0.3789  1.7715
 1031WAT     H2 3305   3.488   2.269   4.988  0.4137  0.2828  0.1768
 1032WAT      O 3306   3.710   1.213   3.854 -0.6571  0.4329 -0.5444
 1032WAT     H1 3307   3.711   1.266   3.934 -0.0663  0.7657 -0.7653
 1032WAT     H2 3308   3.627   1.234   3.812 -2.1511 -1.5852  1.1811
 1033WAT      O 3309   0.680   4.397   4.752 -0.4166  0.5015 -0.6740
 1033WAT     H1 3310   0.769   4.364   4.743 -0.8933 -0.5053 -2.2824
 1033WAT     H2 3311   0.689   4.492   4.759  0.7993  0.3644 -0.2232
 1034WAT      O 3312   2.301   2.497   1.470  0.1928 -0.1133 -0.1345
 1034WAT     H1 3313   2.247   2.545   1.408 -1.4483 -2.1760 -0.4027
 1034WAT     H2 3314   2.244   2.479   1.544  1.3747  0.0849  0.8656
 1035WAT      O 3315   3.289   1.552   4.810  0.2874  0.5401 -0.3883
 1035WAT     H1 3316   3.241   1.633   4.790 -0.0635  0.1694 -1.0920
 1035WAT     H2 3317   3.372   1.562   4.765  0.5868  0.8604  0.2174
 1036WAT      O 3318   0.878   4.327   3.668  0.0537 -0.4447  0.1951
 1036WAT     H1 3319   0.857   4.400   3.609 -1.3970 -1.5936 -0.7889
 1036WAT     H2 3320   0.812   4.333   3.737 -0.4980 -1.1878 -0.2498
 1037WAT      O 3321   1.951   3.459   2.174  0.0983 -0.1947 -0.5400
 1037WAT     H1 3322   1.896   3.487   2.247 -1.2773 -2.9967 -0.3776
 1037WAT     H2 3323   2.039   3.454   2.211 -0.2208  0.3893  0.3427
 1038WAT      O 3324   4.147   0.477   2.965  0.6328  0.1043 -0.5084
 1038WAT     H1 3325   4.078   0.534   2.999  1.3638  0.6177  0.1539
 1038WAT     H2 3326   4.102   0.418   2.905 -0.0618  1.7505 -1.6625
 1039WAT      O 3327   1.091   0.112   0.474  0.1888 -0.2427  0.1336
 1039WAT     H1 3328   1.163   0.168   0.444  0.2878  0.2718  1.2887
 1039WAT     H2 3329   1.135   0.041   0.521 -0.0037 -0.6417 -0.2787
 1040WAT      O 3330   1.172   3.313   1.728 -0.1718 -0.3832  0.0362
 1040WAT     H1 3331   1.238   3.334   1.794 -0.2566 -2.3175  0.7980
 1040WAT     H2 3332   1.201   3.360   1.650  0.3479  1.3421  1.2061
 1041WAT      O 3333   1.545   0.638   5.217  0.0572  0.6315 -0.0655
 1041WAT     H1 3334   1.487   0.681   5.280  0.1402  0.9144 -0.1790
 1041WAT     H2 3335   1.528   0.545   5.229 -3.0238  0.6960 -2.4593
 1042WAT      O 3336   1.902   2.328   2.162 -0.5903 -0.3865  0.1630
 1042WAT     H1 3337   1.863   2.273   2.231  0.4230 -0.7628  0.4498
 1042WAT     H2 3338   1.986   2.355   2.198 -1.7538  2.8518  0.7691
 1043WAT      O 3339   2.391   1.027   4.360  0.1439  0.4691  0.2674
 1043WAT     H1 3340   2.421   1.102   4.310 -0.1955 -0.8044 -1.9704
 1043WAT     H2 3341   2.470   0.990   4.398  0.6167  0.6001 -0.5817
 1044WAT      O 3342   0.151   2.807   1.972  0.5036 -0.3421 -0.7763
 1044WAT     H1 3343   0.159   2.731   1.915 -0.4782 -0.4938 -0.7263
 1044WAT     H2 3344   0.068   2.795   2.018 -0.2167  1.2738 -1.5505
 1045WAT      O 3345   1.274   3.510   3.616 -0.3252  0.1214 -0.2382
 1045WAT     H1 3346   1.232   3.584   3.571 -0.0281  0.1073 -0.5511
 1045WAT     H2 3347   1.226   3.501   3.698 -1.6523 -0.5929 -1.0574
 1046WAT      O 3348   0.664   0.647   0.694 -0.1039 -0.3729  1.1591
 1046WAT     H1 3349   0.698   0.572   0.742  1.8314 -0.0071  0.4435
 1046WAT     H2 3350   0.688   0.630   0.603 -1.8705 -0.0570  0.5862
 1047WAT      O 3351   1.760   4.381   0.219 -0.4009  0.2844 -0.1321
 1047WAT     H1 3352   1.670   4.394   0.189 -0.9437  0.6856  1.5780
 1047WAT     H2 3353   1.805   4.461   0.195 -1.6048  1.9748  2.7466
 1048WAT      O 3354   0.919   1.345   3.104  0.1933  0.1480 -0.0205
 1048WAT     H1 3355   0.879   1.279   3.162  1.2590  0.3879  1.0187
 1048WAT     H2 3356   1.001   1.305   3.077 -0.2405  0.0908 -1.3086
 1049WAT      O 3357   0.561   1.326   0.452  0.0987  0.2976  0.3041
 1049WAT     H1 3358   0.624   1.375   0.504 -0.9568  0.7594  1.1741
 1049WAT     H2 3359   0.579   1.353   0.362  0.6788  0.9530  0.6078
 1050WAT      O 3360   0.297   3.426   3.509  0.4401 -0.0422  0.3662
 1050WAT     H1 3361   0.357   3.472   3.568  1.5828 -3.4545  2.1088
 1050WAT     H2 3362   0.217   3.417   3.560  0.0763  0.2902 -0.1308
 1051WAT      O 3363   3.734   3.836   2.784  0.2531 -0.5816  0.5810
 1051WAT     H1 3364   3.753   3.878   2.700 -0.3248 -0.8439  0.3139
 1051WAT     H2 3365   3.683   3.758   2.760 -0.4908 -0.2980  1.2330
 1052WAT      O 3366   3.720   2.885   0.522  0.4378  0.0519 -0.4076
 1052WAT     H1 3367   3.676   2.815   0.570  1.3125 -1.6974 -2.0132
 1052WAT     H2 3368   3.765   2.937   0.589  0.5067 -1.4689  0.7642
 1053WAT      O 3369   1.831   3.896   3.971  0.1695 -0.0770 -0.5535
 1053WAT     H1 3370   1.775   3.819   3.960 -0.3632  0.0982  0.7792
 1053WAT     H2 3371   1.869   3.886   4.058 -0.1930  1.3421 -0.2002
 1054WAT      O 3372   3.874   0.995   2.187 -0.3598  0.3844  0.7082
 1054WAT     H1 3373   3.905   0.991   2.097 -0.0079  1.5243  0.7658
 1054WAT     H2 3374   3.889   0.907   2.222 -1.1403 -0.2813 -0.5375
 1055WAT      O 3375   1.714   2.266   0.694 -0.2595  0.1300 -0.2869
 1055WAT     H1 3376   1.793   2.217   0.672  0.0612  0.3975  0.2704
 1055WAT     H2 3377   1.651   2.199   0.720  0.4075  0.0419  1.1905
 1056WAT      O 3378   0.451   1.930   1.620  0.0397 -0.1509  0.4738
 1056WAT     H1 3379   0.489   2.004   1.573 -0.0583  0.0084  0.6428
 1056WAT     H2 3380   0.525   1.872   1.637  0.0080 -0.4098 -0.2375
 1057WAT      O 3381   2.754   5.080   3.506  0.2412  0.0369  0.3928
 1057WAT     H1 3382   2.834   5.054   3.552 -0.5748 -3.3888  0.1332
 1057WAT     H2 3383   2.685   5.071   3.572 -0.1785  1.3801  0.1659
 1058WAT      O 3384   2.153   3.008   2.988 -0.0983 -0.2390 -0.5147
 1058WAT     H1 3385   2.108   3.007   2.903  0.3160  0.0296 -0.7398
 1058WAT     H2 3386   2.082   3.002   3.052 -0.4648  0.2390 -0.8659
 1059WAT      O 3387   2.084   2.907   0.025  0.2940  0.2044 -0.0697
 1059WAT     H1 3388   2.116   2.992  -0.005  0.5608 -0.4751 -1.8230
 1059WAT     H2 3389   2.025   2.928   0.098  0.7195  1.8446 -0.1675
 1060WAT      O 3390   0.180   1.190   4.209  0.0911 -0.2186 -0.0076
 1060WAT     H1 3391   0.223   1.105   4.197  1.5170  0.7898 -2.7949
 1060WAT     H2 3392   0.123   1.199   4.133 -0.7001  0.9994  0.6928
 1061WAT      O 3393   1.128   3.220   0.811  0.3266  0.0105  0.0243
 1061WAT     H1 3394   1.217   3.199   0.781  0.3272 -0.7081  0.5009
 1061WAT     H2 3395   1.090   3.270   0.739  0.4355 -1.3642 -1.0402
 1062WAT      O 3396   2.305   1.862   4.506 -0.0608 -0.1165  0.1828
 1062WAT     H1 3397   2.399   1.878   4.518 -0.2754  0.8307  0.7406
 1062WAT     H2 3398   2.301   1.802   4.432  0.9591  0.4393 -0.3615
 1063WAT      O 3399   2.661   0.545   2.521  0.4723 -0.4387  0.6543
 1063WAT     H1 3400   2.672   0.475   2.585 -2.1178 -1.1543  0.4541
 1063WAT     H2 3401   2.569   0.570   2.530 -0.1488 -0.8631 -2.9961
 1064WAT      O 3402   4.284   0.402   2.560 -0.3262  0.1229 -0.4948
 1064WAT     H1 3403   4.281   0.314   2.597 -0.9314  0.5316  0.4588
 1064WAT     H2 3404   4.195   0.419   2.529 -0.3913  0.6712 -0.0173
 1065WAT      O 3405   1.855   0.685   2.088  0.4655  0.0460  0.4607
 1065WAT     H1 3406   1.776   0.739   2.084  0.1459 -0.4309  0.1759
 1065WAT     H2 3407   1.916   0.734   2.143  1.3752  2.2228 -2.2828
 1066WAT      O 3408   0.643   1.610   5.160 -0.1979  0.2158  0.7975
 1066WAT     H1 3409   0.695   1.577   5.088 -0.2700 -1.0758  1.3035
 1066WAT     H2 3410   0.668   1.702   5.168 -0.0678  0.3431 -0.7428
 1067WAT      O 3411   3.388   0.467   3.665 -0.3011 -0.9552  0.5982
 1067WAT     H1 3412   3.343   0.515   3.735  1.5971  2.2816 -0.1834
 1067WAT     H2 3413   3.469   0.436   3.706 -0.2561 -1.0990  0.4013
 1068WAT      O 3414   2.552   2.339   4.243  0.7082  0.5894  0.1194
 1068WAT     H1 3415   2.597   2.312   4.163  1.5321  0.7757  0.5088
 1068WAT     H2 3416   2.546   2.259   4.295  0.1379  0.4601 -0.1391
 1069WAT      O 3417   2.743   3.670   4.886  0.0811 -0.1563  0.2197
 1069WAT     H1 3418   2.669   3.611   4.900  0.6126 -0.8165  0.2834
 1069WAT     H2 3419   2.773   3.693   4.974  0.0992 -0.0728  0.1920
 1070WAT      O 3420   2.601   1.365   5.276  0.2613 -0.1571  0.7496
 1070WAT     H1 3421   2.551   1.444   5.258  0.1220 -0.9687 -3.4264
 1070WAT     H2 3422   2.686   1.381   5.235  0.1966 -2.1113 -0.2613
 1071WAT      O 3423   1.759   3.756   3.419 -0.7159 -0.2548  0.1203
 1071WAT     H1 3424   1.843   3.787   3.452 -1.8253  2.8439  0.3862
 1071WAT     H2 3425   1.780   3.711   3.337  1.0921  2.0371 -0.7859
 1072WAT      O 3426   1.037   4.889   1.054 -0.1879  0.4110 -0.1543
 1072WAT     H1 3427   1.071   4.907   1.142  0.4080 -0.1726 -0.2590
 1072WAT     H2 3428   1.074   4.804   1.031 -0.1348  0.6779 -1.0844
 1073WAT      O 3429   4.170   0.808   0.321  0.0593  0.3309 -0.1354
 1073WAT     H1 3430   4.252   0.790   0.274  0.8042 -0.4163  1.3743
 1073WAT     H2 3431   4.103   0.764   0.269  0.6366  0.7811 -1.2933
 1074WAT      O 3432   1.998   0.508   4.353  0.1604  0.4754  0.3210
 1074WAT     H1 3433   1.948   0.589   4.349  0.3539  0.6099  0.5776
 1074WAT     H2 3434   2.079   0.527   4.305  0.8405  0.9034  1.5660
 1075WAT      O 3435   3.628   2.563   1.919 -0.2049  0.7313 -0.2675
 1075WAT     H1 3436   3.589   2.492   1.868  1.8334 -1.0288  0.4714
 1075WAT     H2 3437   3.652   2.629   1.854  0.4953 -0.5525 -1.3732
 1076WAT      O 3438   2.351   3.107   3.845  0.1134  0.5508  0.1734
 1076WAT     H1 3439   2.377   3.066   3.763  1.6227  0.9233  0.4480
 1076WAT     H2 3440   2.357   3.037   3.910 -0.5971  0.3824  0.0668
 1077WAT      O 3441   4.393   3.791   3.179 -0.2211 -0.1442  0.1775
 1077WAT     H1 3442   4.334   3.806   3.253  0.1604 -0.7591  0.6221
 1077WAT     H2 3443   4.363   3.852   3.112 -1.7834 -0.9055  0.1411
 1078WAT      O 3444   0.893   1.113   0.742 -0.4251  0.0385 -0.7934
 1078WAT     H1 3445   0.966   1.070   0.698 -1.4231 -1.7101 -0.7969
 1078WAT     H2 3446   0.928   1.135   0.829  0.4951  0.4328 -1.2461
 1079WAT      O 3447   0.447   3.701   4.594 -0.2008  0.6081  0.3203
 1079WAT     H1 3448   0.531   3.719   4.551 -0.6755  0.5955 -0.6587
 1079WAT     H2 3449   0.442   3.605   4.597 -0.5249  0.5992 -0.3492
 1080WAT      O 3450   1.020   2.862   4.811 -0.3185  0.2669 -0.8521
 1080WAT     H1 3451   0.935   2.904   4.796 -0.6257 -0.0974 -0.1738
 1080WAT     H2 3452   1.083   2.920   4.767 -0.5110  2.4884  1.5353
 1081WAT      O 3453   3.209   4.950   4.648 -0.2921 -0.1235  0.7575
 1081WAT     H1 3454   3.146   5.006   4.604 -1.1563 -1.1826  0.6116
 1081WAT     H2 3455   3.187   4.861   4.620  1.2987 -0.5287  0.6463
 1082WAT      O 3456   0.396   1.253   2.068 -0.9137 -0.0066  0.2367
 1082WAT     H1 3457   0.355   1.338   2.049 -1.5593 -0.7055 -1.8031
 1082WAT     H2 3458   0.437   1.265   2.154  1.7042  3.3629 -1.2337
 1083WAT      O 3459   1.421   1.481   5.141  0.4818  0.0899 -0.2000
 1083WAT     H1 3460   1.346   1.424   5.158  0.3729  0.9047  2.5860
 1083WAT     H2 3461   1.382   1.563   5.109  0.1735  0.3416  0.7739
 1084WAT      O 3462   3.792   1.516   1.917 -0.3067 -0.5478 -0.1195
 1084WAT     H1 3463   3.794   1.551   1.828 -0.1296 -0.3951 -0.0556
 1084WAT     H2 3464   3.882   1.521   1.947 -0.5662  0.6710  0.5555
 1085WAT      O 3465   3.985   3.502   5.087 -0.4187 -0.4385 -0.1387
 1085WAT     H1 3466   3.899   3.487   5.048 -0.2819  0.1561 -0.6826
 1085WAT     H2 3467   4.033   3.553   5.021  0.1386 -0.2325  0.4167
 1086WAT      O 3468   1.669   1.269   4.007  0.1403  0.2564  0.0210
 1086WAT     H1 3469   1.708   1.327   4.073 -1.0724  1.2589 -0.1217
 1086WAT     H2 3470   1.578   1.259   4.034 -0.0133 -0.4973 -0.7256
 1087WAT      O 3471   0.953   1.127   3.816  0.3122  0.4085  0.1114
 1087WAT     H1 3472   0.896   1.061   3.777  1.8868 -1.0301  0.1556
 1087WAT     H2 3473   0.899   1.206   3.818 -1.1199 -0.4649 -1.3538
 1088WAT      O 3474   3.302   4.947   3.266 -0.3461 -0.3443  0.2498
 1088WAT     H1 3475   3.224   4.997   3.291 -0.8223 -0.9725  0.0356
 1088WAT     H2 3476   3.292   4.863   3.310 -0.0706 -0.6333 -0.2285
 1089WAT      O 3477   0.919   3.848   2.223  0.5866  0.2271  0.0146
 1089WAT     H1 3478   1.003   3.815   2.256 -0.2710 -1.2253  0.8642
 1089WAT     H2 3479   0.865   3.858   2.301 -0.5831 -0.5577 -0.6625
 1090WAT      O 3480   2.570   4.420   3.406 -0.0914 -0.5930 -0.0941
 1090WAT     H1 3481   2.625   4.428   3.327  1.2630  0.4266  0.8986
 1090WAT     H2 3482   2.534   4.508   3.418 -0.8713 -0.9242  0.0425
 1091WAT      O 3483   1.811   4.698   2.456  0.6865  0.1394 -0.0170
 1091WAT     H1 3484   1.859   4.621   2.424 -2.1740 -1.6126 -0.3713
 1091WAT     H2 3485   1.780   4.741   2.376 -2.5139 -1.6377  0.1090
 1092WAT      O 3486   0.069   0.243   0.777  0.2063  0.1980 -0.8220
 1092WAT     H1 3487  -0.020   0.278   0.778  0.3635  0.6673  1.2309
 1092WAT     H2 3488   0.124   0.316   0.806  1.0461 -0.5721 -0.4183
 1093WAT      O 3489   3.478   4.964   0.543  0.0710  0.1995  0.2894
 1093WAT     H1 3490   3.414   4.900   0.511 -0.5615  0.1081  1.6254
 1093WAT     H2 3491   3.529   4.916   0.608  0.5656  0.6657  0.2531
 1094WAT      O 3492   3.314   0.675   0.421  0.4312  0.1117  0.1709
 1094WAT     H1 3493   3.253   0.642   0.488  0.4138  2.3069  1.3219
 1094WAT     H2 3494   3.264   0.742   0.374  0.9700 -0.2849 -1.0010
 1095WAT      O 3495   0.188   3.513   1.334 -0.4769 -0.4755  0.0903
 1095WAT     H1 3496   0.114   3.531   1.276 -0.0863 -0.3138 -0.3697
 1095WAT     H2 3497   0.165   3.555   1.417 -0.4035  0.5762 -0.4010
 1096WAT      O 3498   1.473   0.968   0.113 -0.1189 -0.2098  0.1248
 1096WAT     H1 3499   1.556   0.973   0.161 -1.0186 -1.1574  1.9011
 1096WAT     H2 3500   1.434   1.055   0.123  0.1768 -0.0873  0.2184
 1097WAT      O 3501   3.563   4.569   0.522  0.2743 -0.8536  0.4127
 1097WAT     H1 3502   3.587   4.557   0.614  0.2358  1.1955  0.7305
 1097WAT     H2 3503   3.647   4.574   0.476  0.3263 -0.2683  0.5704
 1098WAT      O 3504   4.267   3.783   4.420  0.8216  0.3213  0.3787
 1098WAT     H1 3505   4.358   3.761   4.402  0.2756 -0.8752 -1.1842
 1098WAT     H2 3506   4.262   3.878   4.406  1.2747  0.0162 -2.4755
 1099WAT      O 3507   3.982   1.198   3.975  0.2857  0.4390 -0.5425
 1099WAT     H1 3508   3.936   1.246   3.907 -0.7270  2.1587  1.2347
 1099WAT     H2 3509   3.913   1.165   4.033  1.1192 -0.7163 -0.1666
 1100WAT      O 3510   2.884   2.310   3.972 -0.2559  0.5514  0.3455
 1100WAT     H1 3511   2.788   2.310   3.963 -0.6140 -0.6693  3.2805
 1100WAT     H2 3512   2.907   2.403   3.976 -1.8057  0.9319  3.0041
 1101WAT      O 3513   2.799   0.401   2.134  0.5299 -0.2532 -0.4339
 1101WAT     H1 3514   2.837   0.472   2.186 -2.1809  0.5219  0.6640
 1101WAT     H2 3515   2.804   0.432   2.044 -0.9854  1.6593  0.0553
 1102WAT      O 3516   3.887   4.640   4.742 -0.0255  0.0496 -0.7708
 1102WAT     H1 3517   3.961   4.599   4.696 -0.4603  0.6648 -2.0752
 1102WAT     H2 3518   3.923   4.722   4.775  0.0655  0.0132 -0.7779
 1103WAT      O 3519   0.067   0.662   3.469 -0.7423 -0.1677  0.3825
 1103WAT     H1 3520  -0.009   0.604   3.469  0.0224 -1.2444 -0.9645
 1103WAT     H2 3521   0.065   0.704   3.384 -1.1272  1.6581  1.2394
 1104WAT      O 3522   0.899   3.993   1.996 -0.6094  0.0796 -0.0747
 1104WAT     H1 3523   0.885   3.926   2.062 -1.5201  1.7388  1.5042
 1104WAT     H2 3524   0.856   3.958   1.917 -2.8243 -0.3639  1.2471
 1105WAT      O 3525   2.144   0.343   1.958 -0.1979 -0.0239 -0.1717
 1105WAT     H1 3526   2.101   0.422   1.924  0.2669  0.0805 -0.5247
 1105WAT     H2 3527   2.075   0.278   1.964 -0.6763  0.5288  0.5029
 1106WAT      O 3528   2.180   2.868   2.596 -0.0442  0.0063 -0.3260
 1106WAT     H1 3529   2.118   2.816   2.544 -1.6997  1.7105 -0.1577
 1106WAT     H2 3530   2.128   2.901   2.669  1.8905 -1.1708  1.7092
 1107WAT      O 3531   2.824   3.926   4.857 -0.1817 -0.1479 -0.0015
 1107WAT     H1 3532   2.818   3.831   4.869 -1.4964 -0.2992 -1.5018
 1107WAT     H2 3533   2.740   3.960   4.888  0.7586  0.7282  1.7493
 1108WAT      O 3534   2.518   4.700   1.176  0.0323 -0.3744 -1.0154
 1108WAT     H1 3535   2.540   4.775   1.121 -0.7632 -0.0245 -0.8635
 1108WAT     H2 3536   2.571   4.629   1.140  3.8052  1.0311  1.1802
 1109WAT      O 3537   2.598   1.360   3.600 -0.4587 -0.0536 -0.2899
 1109WAT     H1 3538   2.635   1.437   3.643  1.1593 -2.1088  2.3691
 1109WAT     H2 3539   2.508   1.355   3.632 -0.2054  0.1405  0.4886
 1110WAT      O 3540   0.105   3.088   2.249 -0.4579  0.8310  0.1256
 1110WAT     H1 3541   0.129   3.002   2.216 -1.0204  0.7507 -0.0878
 1110WAT     H2 3542   0.100   3.077   2.344  0.5138  0.8973  0.1894
 1111WAT      O 3543   3.284   2.382   0.631 -0.2679 -0.3528  0.1943
 1111WAT     H1 3544   3.250   2.467   0.602  2.7839  0.9675  0.0050
 1111WAT     H2 3545   3.328   2.346   0.554  2.3501  0.1407  1.3316
 1112WAT      O 3546   3.124   0.653   0.615 -0.1405  0.7361  0.0314
 1112WAT     H1 3547   3.144   0.591   0.685  1.2646 -0.5381 -1.3908
 1112WAT     H2 3548   3.126   0.739   0.657 -0.5621 -0.0647  1.7625
 1113WAT      O 3549   2.611   2.227   3.979 -0.5693  0.1167 -0.5261
 1113WAT     H1 3550   2.637   2.140   4.009 -1.8298 -0.4177 -0.9307
 1113WAT     H2 3551   2.525   2.214   3.939 -0.7481  1.5382 -0.6487
 1114WAT      O 3552   0.325   3.407   0.786 -0.4840  0.4764  0.0083
 1114WAT     H1 3553   0.380   3.381   0.860  0.3149  0.8289 -0.4484
 1114WAT     H2 3554   0.381   3.464   0.733 -1.0328  0.2239 -0.8737
 1115WAT      O 3555   1.746   1.184   1.114 -0.2056 -0.1753  0.1111
 1115WAT     H1 3556   1.691   1.121   1.159 -0.7097  0.1539 -0.0408
 1115WAT     H2 3557   1.754   1.150   1.025 -0.7513  0.1415 -0.0632
 1116WAT      O 3558   2.052   4.644   0.943  0.5959  0.4316  0.2030
 1116WAT     H1 3559   2.024   4.594   1.020  0.8178  0.1360  0.0932
 1116WAT     H2 3560   2.028   4.589   0.869  0.4294  0.6944  0.0593
 1117WAT      O 3561   2.376   0.691   3.565  0.9797 -0.1381 -0.3279
 1117WAT     H1 3562   2.318   0.765   3.582  1.0761  0.0886 -0.9647
 1117WAT     H2 3563   2.326   0.632   3.510  0.5798 -0.9939  0.8987
 1118WAT      O 3564   0.983   2.550   1.653 -0.0537  0.8807 -0.3949
 1118WAT     H1 3565   1.043   2.624   1.650 -0.3169  1.0746 -1.4619
 1118WAT     H2 3566   0.924   2.565   1.578 -0.4052 -0.1493 -0.3330
 1119WAT      O 3567   2.828   2.233   4.507  0.3742 -0.3693  0.0975
 1119WAT     H1 3568   2.811   2.326   4.518  1.2415  0.0539 -1.7684
 1119WAT     H2 3569   2.817   2.217   4.413  0.8326 -2.0132  0.2873
 1120WAT      O 3570   0.112   4.290   1.084 -0.5694  0.2608 -0.0911
 1120WAT     H1 3571   0.082   4.247   1.003  0.5970  0.5700 -0.6996
 1120WAT     H2 3572   0.148   4.374   1.055 -0.7786  0.6830  0.8397
 1121WAT      O 3573   0.432   3.519   0.519 -0.3402 -0.4217 -0.4440
 1121WAT     H1 3574   0.457   3.600   0.475 -1.4977  0.4795  0.4658
 1121WAT     H2 3575   0.338   3.510   0.499 -0.9344  0.0742  1.8135
 1122WAT      O 3576   2.113   0.379   4.578  0.5094 -0.4562 -0.0044
 1122WAT     H1 3577   2.060   0.417   4.508  1.0341  0.8428  0.2803
 1122WAT     H2 3578   2.096   0.285   4.572 -1.3081 -0.1493 -0.3327
 1123WAT      O 3579   2.085   1.425   4.075 -0.3068 -0.3048  0.0875
 1123WAT     H1 3580   2.048   1.338   4.062  1.6414 -1.1008 -0.5035
 1123WAT     H2 3581   2.078   1.468   3.990 -2.5425  0.7190  0.7029
 1124WAT      O 3582   2.698   4.891   1.864  0.0088  0.8325  0.1442
 1124WAT     H1 3583   2.620   4.838   1.877  0.1736  0.3446 -0.7230
 1124WAT     H2 3584   2.714   4.885   1.769  0.6637  1.5324  0.2060
 1125WAT      O 3585   4.243   1.798   3.831 -0.4044  0.3073 -0.1850
 1125WAT     H1 3586   4.284   1.842   3.906 -2.8713  2.2878  0.1116
 1125WAT     H2 3587   4.247   1.862   3.760  0.1983 -0.8538 -1.2545
 1126WAT      O 3588   0.120   2.771   0.081 -0.1006 -0.4336  0.3649
 1126WAT     H1 3589   0.075   2.856   0.085  1.5453  0.4836  0.3181
 1126WAT     H2 3590   0.083   2.728   0.004 -0.2502  0.6974 -0.2220
 1127WAT      O 3591   1.487   0.967   0.868  0.1450  0.6391  0.0272
 1127WAT     H1 3592   1.471   0.882   0.909  0.5875 -0.4051 -1.8413
 1127WAT     H2 3593   1.405   0.989   0.824  0.4496  0.5063 -0.6176
 1128WAT      O 3594   0.469   1.606   2.108  0.0386 -0.6867  0.3682
 1128WAT     H1 3595   0.501   1.617   2.198  0.3965  1.7095  0.0058
 1128WAT     H2 3596   0.543   1.631   2.053 -0.5898 -0.8740 -0.5829
 1129WAT      O 3597   1.246   1.829   0.966 -0.1418 -0.5356  0.0158
 1129WAT     H1 3598   1.295   1.798   0.890 -0.4115 -0.1382 -0.3242
 1129WAT     H2 3599   1.187   1.896   0.931 -0.6645 -0.7447  0.4807
 1130WAT      O 3600   3.264   3.314   3.931 -0.0919  0.0249  0.3934
 1130WAT     H1 3601   3.187   3.357   3.969  0.8065  2.1511 -0.0608
 1130WAT     H2 3602   3.299   3.378   3.869  1.2980 -1.4216 -0.3801
 1131WAT      O 3603   2.326   4.100   5.242 -0.3479 -0.0826 -0.3882
 1131WAT     H1 3604   2.278   4.137   5.168 -0.6227 -1.1682 -0.7749
 1131WAT     H2 3605   2.296   4.150   5.318  1.0603  2.0957 -1.1568
 1132WAT      O 3606   3.655   3.540   3.728  0.1616 -0.1089 -0.0427
 1132WAT     H1 3607   3.573   3.492   3.716  1.3145 -1.6845 -2.5512
 1132WAT     H2 3608   3.695   3.501   3.805 -0.0502 -1.5332 -0.6264
 1133WAT      O 3609   4.335   0.050   1.185 -0.3256 -0.4449  0.5458
 1133WAT     H1 3610   4.316  -0.024   1.243  0.0508 -0.6776  0.3774
 1133WAT     H2 3611   4.343   0.125   1.243 -1.1997 -0.4417  0.6727
 1134WAT      O 3612   1.589   1.422   1.877 -0.0895  0.0246 -0.0390
 1134WAT     H1 3613   1.585   1.445   1.970 -1.7674  1.3672 -0.4095
 1134WAT     H2 3614   1.645   1.490   1.838 -1.2625  0.8301 -0.3644
 1135WAT      O 3615   3.064   5.099   3.328  0.6322 -0.6663 -0.6540
 1135WAT     H1 3616   2.982   5.088   3.281  0.6924  0.1765 -0.9732
 1135WAT     H2 3617   3.087   5.191   3.315  0.6348 -0.3988  1.0688
 1136WAT      O 3618   2.853   2.020   0.178 -0.0805 -0.3328  0.2544
 1136WAT     H1 3619   2.897   1.936   0.169 -0.6421 -0.5418 -0.6339
 1136WAT     H2 3620   2.924   2.084   0.187  0.3872 -0.7444 -0.4333
 1137WAT      O 3621   4.389   1.176   0.926  0.4293  0.6390 -0.6834
 1137WAT     H1 3622   4.300   1.205   0.904  0.8221  0.5953 -2.4394
 1137WAT     H2 3623   4.427   1.250   0.974  0.0957  1.4726 -1.6728
 1138WAT      O 3624   3.679   0.452   5.219  0.0345  0.2726  0.0387
 1138WAT     H1 3625   3.701   0.545   5.210  0.8182 -0.1149 -3.5755
 1138WAT     H2 3626   3.742   0.408   5.163 -1.9255 -2.2195 -0.3534
 1139WAT      O 3627   3.647   0.279   3.704  0.0039 -0.2019 -0.3201
 1139WAT     H1 3628   3.610   0.195   3.729 -0.6945  0.1727 -0.0700
 1139WAT     H2 3629   3.712   0.298   3.772 -0.1734 -0.3230 -0.1147
 1140WAT      O 3630   1.963   2.840   0.618 -0.3903 -0.1099 -0.0408
 1140WAT     H1 3631   2.042   2.842   0.672 -0.7869  1.8652  0.5288
 1140WAT     H2 3632   1.904   2.780   0.664  0.9622 -2.1492 -0.8350
 1141WAT      O 3633   1.584   3.722   4.599 -0.2342  0.0613 -0.3484
 1141WAT     H1 3634   1.669   3.734   4.642  0.4810 -0.1322 -1.6680
 1141WAT     H2 3635   1.601   3.740   4.507 -1.3903 -1.0453 -0.8024
 1142WAT      O 3636   3.069   3.303   2.629 -0.4931  0.0146 -0.1210
 1142WAT     H1 3637   3.157   3.341   2.632 -0.3011 -0.4871  1.1253
 1142WAT     H2 3638   3.084   3.209   2.620 -0.9380  0.0238 -1.1233
 1143WAT      O 3639   3.450   1.033   4.701 -0.5045  0.3532  0.3540
 1143WAT     H1 3640   3.364   1.073   4.703 -1.0395 -0.7393  0.0508
 1143WAT     H2 3641   3.500   1.078   4.769 -1.2633  1.1021  0.4178
 1144WAT      O 3642   2.570   3.647   1.975 -0.6290  0.3741  0.4927
 1144WAT     H1 3643   2.599   3.720   2.029 -1.4562  0.3823  0.9498
 1144WAT     H2 3644   2.561   3.685   1.887  1.4914  0.1678  0.1333
 1145WAT      O 3645   1.961   3.862   5.121  0.6449 -0.0943 -0.1084
 1145WAT     H1 3646   1.946   3.956   5.131 -0.1642 -0.3641  1.4327
 1145WAT     H2 3647   2.052   3.849   5.147  0.3845  0.1046  0.9436
 1146WAT      O 3648   4.158   4.251   2.711 -0.1079 -0.3509  0.4558
 1146WAT     H1 3649   4.220   4.180   2.693 -1.6330 -1.8674  0.8860
 1146WAT     H2 3650   4.180   4.281   2.799 -1.0379 -2.0831  1.3226
 1147WAT      O 3651   3.192   1.859   0.749 -0.4308  0.1340  0.4470
 1147WAT     H1 3652   3.274   1.823   0.782  0.3838 -0.2261 -1.8236
 1147WAT     H2 3653   3.210   1.952   0.735 -0.3245  0.0159 -0.2407
 1148WAT      O 3654   0.783   1.268   4.889 -0.0057  0.5728  0.0767
 1148WAT     H1 3655   0.844   1.306   4.951  0.0171  0.6115  0.0307
 1148WAT     H2 3656   0.816   1.180   4.873  0.1402  0.6591 -0.0896
 1149WAT      O 3657   1.574   2.925   2.554  0.3421 -0.0712 -0.5334
 1149WAT     H1 3658   1.612   2.979   2.484  0.9355  0.6182  0.3070
 1149WAT     H2 3659   1.538   2.849   2.508 -0.0558  0.7808 -1.6927
 1150WAT      O 3660   2.257   4.743   1.579  0.4658 -0.9622 -0.2739
 1150WAT     H1 3661   2.186   4.682   1.560  1.3312 -1.9052 -0.5738
 1150WAT     H2 3662   2.281   4.781   1.494 -0.0627 -0.1953 -0.0906
 1151WAT      O 3663   2.209   3.930   0.845 -0.2104 -0.2768  0.0460
 1151WAT     H1 3664   2.293   3.975   0.848  0.2331 -0.9712 -1.0914
 1151WAT     H2 3665   2.157   3.981   0.783 -0.2248 -0.4790 -0.1118
 1152WAT      O 3666   1.241   4.743   4.630 -0.1438 -0.2180  0.4746
 1152WAT     H1 3667   1.309   4.676   4.624 -0.3926 -0.5232  1.0227
 1152WAT     H2 3668   1.246   4.789   4.546 -1.5492 -2.4751 -0.9676
 1153WAT      O 3669   0.986   4.170   4.874 -0.2518 -0.2465  0.1853
 1153WAT     H1 3670   1.017   4.226   4.944  3.6410 -1.5691 -0.2396
 1153WAT     H2 3671   0.954   4.231   4.807  0.8079  1.2956  1.0199
 1154WAT      O 3672   0.063   4.907   3.825 -0.2232  0.0707 -0.5430
 1154WAT     H1 3673   0.108   4.902   3.909 -0.3077 -0.1611 -0.5104
 1154WAT     H2 3674   0.039   4.999   3.815  2.4414  0.7435 -1.7020
 1155WAT      O 3675   2.266   3.185   2.522  0.2028 -0.2053  0.1104
 1155WAT     H1 3676   2.354   3.206   2.552 -0.5357  1.0934  1.5054
 1155WAT     H2 3677   2.256   3.091   2.539  1.0254 -0.1851  0.7176
 1156WAT      O 3678   3.438   3.925   4.400 -0.2163 -0.1785  0.5736
 1156WAT     H1 3679   3.427   3.834   4.376 -2.7692  0.0142  0.6737
 1156WAT     H2 3680   3.351   3.952   4.432  1.1837  1.4461  3.4392
 1157WAT      O 3681   3.727   1.512   4.834  0.7650  0.4181 -0.0423
 1157WAT     H1 3682   3.762   1.565   4.905 -3.2080  2.1237  0.9224
 1157WAT     H2 3683   3.708   1.428   4.874  1.2424  0.3913  0.1322
 1158WAT      O 3684   2.109   4.850   3.256  0.3951 -0.1238  0.5816
 1158WAT     H1 3685   2.163   4.868   3.333 -0.9854 -0.8044  1.7613
 1158WAT     H2 3686   2.102   4.934   3.212  0.2620  0.5519  1.8363
 1159WAT      O 3687   1.583   1.715   1.830  0.1950 -0.2352 -0.1544
 1159WAT     H1 3688   1.522   1.703   1.903  1.7094 -1.8459  0.9254
 1159WAT     H2 3689   1.531   1.759   1.763 -2.0606 -1.1709  0.8553
 1160WAT      O 3690   3.813   2.210   1.818 -0.2538 -0.0668  0.3909
 1160WAT     H1 3691   3.749   2.281   1.818  0.2845  0.4218  0.4176
 1160WAT     H2 3692   3.820   2.183   1.910  1.6750  1.8081  0.8720
 1161WAT      O 3693   1.490   1.601   1.538  0.4745  0.0726  0.0089
 1161WAT     H1 3694   1.521   1.666   1.601  0.6043  0.0744 -0.0558
 1161WAT     H2 3695   1.562   1.594   1.475  1.5434 -1.9214  1.3311
 1162WAT      O 3696   4.358   1.941   4.940 -0.5683 -0.3439  0.2805
 1162WAT     H1 3697   4.380   1.988   4.860  0.7070 -0.2245  0.6713
 1162WAT     H2 3698   4.263   1.940   4.943 -0.6188  0.0081 -1.0206
 1163WAT      O 3699   2.255   1.707   3.158  0.3962  0.2191 -0.0713
 1163WAT     H1 3700   2.316   1.726   3.087 -0.3788  1.6317 -0.4027
 1163WAT     H2 3701   2.268   1.614   3.176  0.9930 -0.0566 -1.7032
 1164WAT      O 3702   2.389   0.894   5.148  0.3359 -0.1881  0.3251
 1164WAT     H1 3703   2.403   0.989   5.152 -0.2459 -0.1184  0.9167
 1164WAT     H2 3704   2.301   0.884   5.110  0.3913 -0.4889  0.2722
 1165WAT      O 3705   1.256   3.961   3.421  0.4572 -0.1938  0.0993
 1165WAT     H1 3706   1.225   3.985   3.334 -1.4550  0.8592  1.0272
 1165WAT     H2 3707   1.351   3.977   3.417  0.1561  1.4886 -1.2510
 1166WAT      O 3708   3.596   4.744   3.120  0.6045 -0.0324 -0.2008
 1166WAT     H1 3709   3.581   4.660   3.162  0.8063 -0.0880 -0.2405
 1166WAT     H2 3710   3.682   4.736   3.079  0.7004  0.2491 -0.0589
 1167WAT      O 3711   0.878   2.018   4.281  0.0919  0.0874  0.1561
 1167WAT     H1 3712   0.833   1.935   4.268 -0.7651  0.3249  1.3555
 1167WAT     H2 3713   0.969   1.994   4.298 -0.2958 -0.6862  1.2682
 1168WAT      O 3714   3.655   3.798   1.918  0.3454  0.1042  0.0296
 1168WAT     H1 3715   3.714   3.867   1.949 -0.4600  0.0909  1.6830
 1168WAT     H2 3716   3.583   3.798   1.981 -0.1955 -1.5448 -0.5454
 1169WAT      O 3717   3.062   4.701   4.605 -0.2352  0.5900  0.7146
 1169WAT     H1 3718   3.073   4.642   4.680  0.7134  0.8462  0.7893
 1169WAT     H2 3719   2.970   4.725   4.607 -0.2905  0.3381  1.6095
 1170WAT      O 3720   2.831   2.323   1.480  0.8030 -0.0626 -0.1622
 1170WAT     H1 3721   2.872   2.376   1.548  0.7328 -0.1457 -0.0546
 1170WAT     H2 3722   2.739   2.319   1.505  0.7447  0.0580 -0.3600
 1171WAT      O 3723   3.776   4.356   0.937  0.3655  0.3349  0.3097
 1171WAT     H1 3724   3.814   4.424   0.992  0.7885  0.5432 -0.2221
 1171WAT     H2 3725   3.711   4.402   0.884  1.6319  0.6373 -1.0534
 1172WAT      O 3726   2.316   0.143   0.444  0.2477  0.2435 -0.4979
 1172WAT     H1 3727   2.395   0.091   0.429 -0.6510 -1.2998 -0.1692
 1172WAT     H2 3728   2.324   0.217   0.384  1.6465 -0.2003 -0.9037
 1173WAT      O 3729   4.308   3.997   3.930 -0.1762  0.1428 -0.3660
 1173WAT     H1 3730   4.253   4.050   3.988  2.1325  1.5047  0.7009
 1173WAT     H2 3731   4.375   3.961   3.987  2.0393  1.3047 -2.0924
 1174WAT      O 3732   0.099   0.067   2.315  0.3023  0.0930 -0.1856
 1174WAT     H1 3733   0.156   0.013   2.370  0.4746 -0.5977 -1.0279
 1174WAT     H2 3734   0.062   0.006   2.252 -1.4704  0.5152  0.4019
 1175WAT      O 3735   4.376   1.901   4.535 -0.2400 -0.0390  0.0957
 1175WAT     H1 3736   4.331   1.820   4.510 -3.0722  0.7640  2.1152
 1175WAT     H2 3737   4.310   1.970   4.520  0.1042  1.1784  3.5099
 1176WAT      O 3738   3.893   4.908   0.942  0.1227 -0.0753 -0.1837
 1176WAT     H1 3739   3.805   4.942   0.927 -0.3717 -1.1162  0.2413
 1176WAT     H2 3740   3.943   4.935   0.865 -0.9973 -0.8815 -1.2191
 1177WAT      O 3741   2.679   1.606   2.933 -0.1985 -0.0097 -0.0958
 1177WAT     H1 3742   2.761   1.568   2.902 -0.1633  0.0230 -0.0417
 1177WAT     H2 3743   2.615   1.535   2.923 -0.3260  0.2060 -0.8640
 1178WAT      O 3744   3.272   4.502   4.525 -0.3417  0.0519  0.2456
 1178WAT     H1 3745   3.210   4.572   4.546 -0.9484 -0.6140  0.7208
 1178WAT     H2 3746   3.281   4.453   4.607 -1.6639 -1.7715 -0.6313
 1179WAT      O 3747   3.096   0.926   1.644  0.3272  0.2385 -0.3130
 1179WAT     H1 3748   3.010   0.961   1.666 -0.6905 -1.3329 -1.4769
 1179WAT     H2 3749   3.118   0.867   1.717 -0.1782 -0.2850 -0.5720
 1180WAT      O 3750   1.089   0.794   5.182 -0.4266  0.5585  0.0856
 1180WAT     H1 3751   1.085   0.875   5.233  0.7602  0.2553  0.6992
 1180WAT     H2 3752   0.998   0.765   5.178 -0.8286  1.7407  0.1414
 1181WAT      O 3753   1.823   0.675   0.374  0.5971  0.1610 -0.0806
 1181WAT     H1 3754   1.794   0.585   0.359  1.7517  0.0440 -1.9240
 1181WAT     H2 3755   1.877   0.669   0.453 -1.5003 -0.2129  1.4115
 1182WAT      O 3756   2.938   4.987   4.513  0.3135  0.2883 -0.0969
 1182WAT     H1 3757   2.875   5.008   4.444  0.9625 -0.2327 -0.8732
 1182WAT     H2 3758   2.965   5.072   4.547 -0.8634  0.5144  0.3161
 1183WAT      O 3759   3.363   0.480   1.644  0.3730 -0.3425 -0.4203
 1183WAT     H1 3760   3.414   0.561   1.633  1.4216 -0.8913  0.2476
 1183WAT     H2 3761   3.411   0.430   1.710 -0.8461 -1.0528 -0.0333
 1184WAT      O 3762   2.071   0.268   4.889 -0.0685 -0.5450  0.4007
 1184WAT     H1 3763   2.137   0.312   4.944  0.3753  0.2794 -0.7482
 1184WAT     H2 3764   1.987   0.299   4.923  0.1830 -0.3609  0.8693
 1185WAT      O 3765   0.692   0.967   3.452 -0.3345 -0.2841 -0.2041
 1185WAT     H1 3766   0.708   1.040   3.391 -0.2779  0.0878  0.2487
 1185WAT     H2 3767   0.694   1.008   3.539 -0.6680 -0.7688  0.0330
 1186WAT      O 3768   2.032   0.359   0.788  0.4111 -0.4088 -0.6223
 1186WAT     H1 3769   2.053   0.286   0.730  1.3111  0.2867 -1.2040
 1186WAT     H2 3770   1.999   0.318   0.868  0.3094 -1.4208 -1.1754
 1187WAT      O 3771   0.603   1.098   4.146  0.3899  0.0082  0.3363
 1187WAT     H1 3772   0.538   1.053   4.200  0.8670  0.4508  1.2996
 1187WAT     H2 3773   0.667   1.132   4.209  0.4674  1.3482 -0.4401
 1188WAT      O 3774   2.299   1.212   0.281  0.5359 -0.2988  0.7745
 1188WAT     H1 3775   2.282   1.138   0.222  2.5271  0.0815 -0.3876
 1188WAT     H2 3776   2.240   1.281   0.252  0.0950 -0.7762  0.5324
 1189WAT      O 3777   0.670   4.563   1.724 -0.4117  0.2638  0.0262
 1189WAT     H1 3778   0.700   4.593   1.638 -1.6105 -1.0680 -0.9105
 1189WAT     H2 3779   0.725   4.488   1.745 -0.6447  0.0875  0.0220
 1190WAT      O 3780   4.030   2.721   2.494 -0.1778 -0.6376 -0.1734
 1190WAT     H1 3781   4.018   2.666   2.416  1.0037 -1.5448  0.2507
 1190WAT     H2 3782   3.954   2.778   2.495 -1.1161 -1.8232 -1.0189
 1191WAT      O 3783   3.416   2.926   0.769  0.9585 -0.1581  0.4298
 1191WAT     H1 3784   3.410   2.845   0.718 -0.8982 -0.5934  1.2383
 1191WAT     H2 3785   3.473   2.904   0.842  1.7433 -0.2298 -0.1867
 1192WAT      O 3786   1.017   3.752   4.842 -0.4165  0.3782  0.8081
 1192WAT     H1 3787   0.993   3.703   4.921 -0.0396  1.3324  1.5408
 1192WAT     H2 3788   0.947   3.816   4.832 -1.8410 -1.3785 -1.1634
 1193WAT      O 3789   3.931   4.749   3.054 -0.1112 -0.5366 -0.0209
 1193WAT     H1 3790   3.925   4.835   3.093  3.8933 -0.6113  1.2361
 1193WAT     H2 3791   3.976   4.695   3.120  1.7082 -2.2519 -2.4605
 1194WAT      O 3792   2.456   2.651   0.708  0.3156 -0.3814 -0.4116
 1194WAT     H1 3793   2.376   2.632   0.757  0.1391 -0.6819 -0.8084
 1194WAT     H2 3794   2.492   2.729   0.750  0.7373 -1.2316  0.8998
 1195WAT      O 3795   0.099   1.975   2.031  0.4238  0.9741 -0.2843
 1195WAT     H1 3796   0.178   2.019   2.063  1.2604 -1.1796  0.8293
 1195WAT     H2 3797   0.127   1.931   1.950  0.2163  0.6488 -0.1799
 1196WAT      O 3798   3.517   0.441   3.053 -0.0046 -0.5038  0.2982
 1196WAT     H1 3799   3.520   0.528   3.015 -0.7922 -0.7497 -0.3554
 1196WAT     H2 3800   3.572   0.447   3.131  0.4368  0.4077 -0.0684
 1197WAT      O 3801   0.520   1.914   5.222  0.5527 -0.3449 -0.6273
 1197WAT     H1 3802   0.557   1.971   5.289  2.1067 -2.3022  0.3027
 1197WAT     H2 3803   0.570   1.933   5.143 -0.3947  1.0400 -0.9277
 1198WAT      O 3804   1.292   0.602   4.707  0.1130 -0.1097 -0.3283
 1198WAT     H1 3805   1.236   0.668   4.748 -0.2009 -0.2469 -0.5314
 1198WAT     H2 3806   1.244   0.575   4.629  0.1511 -0.7203 -0.1429
 1199WAT      O 3807   2.506   3.512   1.689 -0.1683  0.6436 -0.0078
 1199WAT     H1 3808   2.588   3.465   1.680 -0.5669  0.1647 -1.3711
 1199WAT     H2 3809   2.479   3.532   1.599 -2.1165 -0.2471  0.3126
 1200WAT      O 3810   2.126   1.338   0.647 -0.8983  0.1714 -0.1014
 1200WAT     H1 3811   2.195   1.277   0.621 -1.0163 -0.2167  0.4712
 1200WAT     H2 3812   2.091   1.302   0.728 -0.9391  1.0290  0.2789
 1201WAT      O 3813   1.273   2.541   4.809  0.2587 -0.1345 -0.2673
 1201WAT     H1 3814   1.307   2.496   4.886 -0.5772  1.6216  1.2151
 1201WAT     H2 3815   1.326   2.621   4.803  0.2005 -0.1699 -1.4244
 1202WAT      O 3816   2.750   3.981   1.359  0.6856 -0.3457  0.1367
 1202WAT     H1 3817   2.705   3.897   1.369  1.7920 -0.8691  0.9222
 1202WAT     H2 3818   2.797   3.973   1.276 -1.3124  0.5539 -1.1685
 1203WAT      O 3819   1.646   1.125   3.032  0.1003  0.6147  0.0619
 1203WAT     H1 3820   1.735   1.155   3.009  0.1518 -0.6910 -1.6889
 1203WAT     H2 3821   1.659   1.062   3.102  0.5638  0.4277 -0.1882
 1204WAT      O 3822   0.551   2.522   2.989 -0.5102 -0.2476 -0.4016
 1204WAT     H1 3823   0.469   2.548   3.031  0.1433 -2.3925  2.4936
 1204WAT     H2 3824   0.615   2.588   3.018  0.1484 -2.2057  3.0942
 1205WAT      O 3825   2.113   0.442   3.167  0.8168  0.1281  0.1735
 1205WAT     H1 3826   2.049   0.444   3.095 -0.7304  0.6797  1.5194
 1205WAT     H2 3827   2.167   0.365   3.147 -0.2731 -0.3875 -1.0011
 1206WAT      O 3828   3.642   0.224   3.438 -0.1941 -0.7528 -0.5275
 1206WAT     H1 3829   3.649   0.247   3.530  1.7529  0.3261 -0.8818
 1206WAT     H2 3830   3.584   0.148   3.436 -2.2247  0.6311  1.3157
 1207WAT      O 3831   1.331   1.762   1.938 -0.0367  0.2368 -0.1663
 1207WAT     H1 3832   1.267   1.698   1.908 -0.2474  0.2767  0.2003
 1207WAT     H2 3833   1.290   1.847   1.920 -0.6415  0.2632  1.2462
 1208WAT      O 3834   1.529   5.083   3.969 -0.3175  0.3748  0.7833
 1208WAT     H1 3835   1.564   5.169   3.993 -0.0836  0.4577  0.1549
 1208WAT     H2 3836   1.558   5.025   4.039  2.0674  0.1957 -0.2505
 1209WAT      O 3837   1.954   0.623   2.532 -0.5780  0.0016 -0.2271
 1209WAT     H1 3838   2.020   0.619   2.463 -1.1143 -2.7260 -0.6956
 1209WAT     H2 3839   2.003   0.620   2.614 -0.0147  1.8807 -0.4314
 1210WAT      O 3840   2.238   1.204   4.930 -0.1329 -0.0597 -0.6902
 1210WAT     H1 3841   2.277   1.215   5.016  0.7574  0.5223 -1.1504
 1210WAT     H2 3842   2.200   1.116   4.931  1.1654 -0.6353 -0.2125
 1211WAT      O 3843   2.643   0.071   4.611  0.5138 -0.2511  0.6199
 1211WAT     H1 3844   2.708   0.127   4.653 -0.6709  1.9877 -0.4088
 1211WAT     H2 3845   2.562   0.086   4.660  0.2394 -1.3530  0.5401
 1212WAT      O 3846   2.493   3.599   2.270  0.3179 -0.3416  0.1113
 1212WAT     H1 3847   2.559   3.668   2.278  2.1770 -1.8719 -1.2221
 1212WAT     H2 3848   2.532   3.525   2.316 -0.9006 -1.0167  0.0732
 1213WAT      O 3849   1.521   0.526   4.508  0.5329  0.2127 -0.1680
 1213WAT     H1 3850   1.578   0.450   4.520  0.0327 -0.1591 -0.1531
 1213WAT     H2 3851   1.580   0.601   4.518  1.6297 -0.1506 -3.1451
 1214WAT      O 3852   2.880   1.967   2.409 -0.1579 -0.4133  0.2348
 1214WAT     H1 3853   2.836   1.993   2.490  0.2757 -1.1404  0.7161
 1214WAT     H2 3854   2.921   1.884   2.430  0.9768 -0.0264 -0.3765
 1215WAT      O 3855   2.125   3.940   2.428 -0.0253 -0.3437  0.0578
 1215WAT     H1 3856   2.176   3.909   2.503  0.1712 -0.4505 -0.1180
 1215WAT     H2 3857   2.039   3.961   2.464 -0.2472 -1.3473  0.1403
 1216WAT      O 3858   2.768   1.551   0.386  0.0376 -0.5478  0.1417
 1216WAT     H1 3859   2.802   1.467   0.354  0.0771 -0.6812  0.5275
 1216WAT     H2 3860   2.684   1.560   0.342  0.7610  0.0100 -1.1825
 1217WAT      O 3861   1.415   2.681   2.157 -0.2653  0.9565  0.3225
 1217WAT     H1 3862   1.481   2.638   2.212 -0.2456  2.0442  1.1605
 1217WAT     H2 3863   1.458   2.760   2.126 -0.7203  0.9867 -0.2417
 1218WAT      O 3864   2.128   5.092   0.719  0.2425  0.2369 -0.2946
 1218WAT     H1 3865   2.086   5.163   0.670  0.6935  1.0841  0.5262
 1218WAT     H2 3866   2.179   5.136   0.786  0.2658 -0.8900  0.4472
 1219WAT      O 3867   0.479   1.373   2.878  0.0489  0.3157  0.3137
 1219WAT     H1 3868   0.478   1.421   2.795  1.1009 -0.5990 -0.2576
 1219WAT     H2 3869   0.511   1.436   2.942  0.0379  0.7877 -0.1372
 1220WAT      O 3870   0.157   4.949   4.508  0.4478  0.3013 -1.1740
 1220WAT     H1 3871   0.236   4.918   4.463  0.0556  0.7887 -2.2391
 1220WAT     H2 3872   0.166   4.917   4.598  1.7814  0.2210 -1.3165
 1221WAT      O 3873   1.944   2.872   4.548 -0.4947 -0.4909 -0.1724
 1221WAT     H1 3874   1.942   2.810   4.620  0.7482  0.4209  0.7056
 1221WAT     H2 3875   2.016   2.932   4.570 -0.7964  0.4705 -1.6215
 1222WAT      O 3876   2.909   1.750   0.200  0.7665 -0.0389  0.1077
 1222WAT     H1 3877   2.887   1.710   0.284  2.3565 -1.2619 -0.0005
 1222WAT     H2 3878   2.899   1.679   0.137  0.4694  0.6260 -0.6056
 1223WAT      O 3879   1.431   5.059   3.243  0.2647 -0.4274  0.5388
 1223WAT     H1 3880   1.373   4.983   3.241 -0.6449  0.2381  1.1401
 1223WAT     H2 3881   1.500   5.038   3.180 -0.5669 -1.2804 -0.1129
 1224WAT      O 3882   3.176   3.377   4.361  0.0500  0.2394  0.1776
 1224WAT     H1 3883   3.082   3.376   4.377  0.1696  0.4596  0.9222
 1224WAT     H2 3884   3.189   3.449   4.300 -0.1526  0.8518  0.8478
 1225WAT      O 3885   0.296   1.254   3.175 -0.3712  0.3011 -0.1451
 1225WAT     H1 3886   0.228   1.322   3.174  1.1641  1.8961 -1.9307
 1225WAT     H2 3887   0.362   1.284   3.113  1.9349 -1.2790  1.3695
 1226WAT      O 3888   2.154   3.161   0.052  0.0669 -0.3464 -0.6515
 1226WAT     H1 3889   2.145   3.200  -0.035 -0.3820  0.5036 -0.2337
 1226WAT     H2 3890   2.185   3.233   0.108 -0.4972 -0.6518  0.0760
 1227WAT      O 3891   3.516   1.389   1.465  0.3144  0.1890  0.1309
 1227WAT     H1 3892   3.428   1.408   1.497 -0.6008 -0.7579 -1.6878
 1227WAT     H2 3893   3.569   1.380   1.544 -1.0421  1.5266  1.2431
 1228WAT      O 3894   0.869   3.892   3.395 -0.0410  0.2757  0.1579
 1228WAT     H1 3895   0.902   3.981   3.404 -0.0876  0.2195  0.9429
 1228WAT     H2 3896   0.881   3.853   3.481 -0.6805 -0.2506  0.0200
 1229WAT      O 3897   0.134   3.645   4.727  0.0970  0.5366  0.4060
 1229WAT     H1 3898   0.044   3.676   4.744  0.0180 -0.2284  1.5097
 1229WAT     H2 3899   0.157   3.683   4.642 -1.7819 -0.3502 -0.5609
 1230WAT      O 3900   1.762   0.737   4.528  0.4079 -0.7176  0.1960
 1230WAT     H1 3901   1.826   0.675   4.563 -0.3353 -1.4459  0.2875
 1230WAT     H2 3902   1.815   0.803   4.483  1.2290 -1.2339  0.3872
 1231WAT      O 3903   3.070   0.032   2.996  0.0882 -0.0436 -0.3977
 1231WAT     H1 3904   3.011   0.102   2.968  0.2619  0.1783 -0.2100
 1231WAT     H2 3905   3.106   0.063   3.079 -1.8449 -1.5069  1.0783
 1232WAT      O 3906   4.235   3.637   0.321  0.1963 -0.6222 -0.1200
 1232WAT     H1 3907   4.255   3.716   0.371 -0.9241  0.5862 -1.4854
 1232WAT     H2 3908   4.180   3.585   0.379 -0.0126  0.1490  0.3833
 1233WAT      O 3909   2.389   3.804   4.641 -0.0184  0.1447 -0.5173
 1233WAT     H1 3910   2.429   3.891   4.646  0.9246 -0.2382 -1.1985
 1233WAT     H2 3911   2.432   3.761   4.568  0.0885 -1.1816  0.2791
 1234WAT      O 3912   0.730   1.250   1.497  0.1557 -0.1983  0.4361
 1234WAT     H1 3913   0.777   1.176   1.457  0.7853  0.5100 -0.1833
 1234WAT     H2 3914   0.789   1.282   1.565 -1.3426 -2.0304  2.7268
 1235WAT      O 3915   2.949   2.091   1.011  0.4605 -0.0913 -0.9749
 1235WAT     H1 3916   2.945   2.167   1.068 -1.9506  1.0695 -2.5393
 1235WAT     H2 3917   3.013   2.033   1.053 -1.6832  0.2464  3.3611
 1236WAT      O 3918   0.649   3.609   4.239 -0.4601 -0.1934  0.1592
 1236WAT     H1 3919   0.578   3.548   4.258  0.5528 -1.6965 -0.7082
 1236WAT     H2 3920   0.697   3.569   4.167  1.3450  0.7172  0.7966
 1237WAT      O 3921   0.709   4.531   5.272 -0.6702 -0.6576 -0.2500
 1237WAT     H1 3922   0.687   4.537   5.179 -0.7170 -1.3212 -0.2902
 1237WAT     H2 3923   0.775   4.461   5.276 -0.5452 -0.5192  0.1947
 1238WAT      O 3924   2.406   0.605   4.832  0.2912 -0.4815 -0.0878
 1238WAT     H1 3925   2.501   0.595   4.837  0.6975  1.4209 -2.2076
 1238WAT     H2 3926   2.391   0.697   4.854 -0.5917  0.2377 -3.2385
 1239WAT      O 3927   0.557   2.851   3.524  0.0481 -0.3828  0.4371
 1239WAT     H1 3928   0.559   2.925   3.463  0.5226 -0.1416  0.7387
 1239WAT     H2 3929   0.625   2.792   3.491  0.5131 -0.1139  0.8950
 1240WAT      O 3930   3.926   2.610   4.088 -0.0628 -0.2080  0.0423
 1240WAT     H1 3931   3.924   2.624   4.182 -0.4615  0.3593 -0.0467
 1240WAT     H2 3932   3.922   2.515   4.078  0.6014 -0.3022  0.6053
 1241WAT      O 3933   2.526   4.613   3.656 -0.6470 -0.2391  0.3532
 1241WAT     H1 3934   2.450   4.557   3.674 -0.0895 -0.9040  0.6409
 1241WAT     H2 3935   2.550   4.649   3.742 -0.3230 -0.4369  0.3478
 1242WAT      O 3936   4.016   4.666   0.538 -0.2310 -0.3439  0.5382
 1242WAT     H1 3937   4.058   4.638   0.619  0.6721  0.5732  0.4025
 1242WAT     H2 3938   4.044   4.601   0.473  1.9892  0.8791  0.1904
 1243WAT      O 3939   3.102   2.016   2.973 -0.0949  0.0038 -0.6581
 1243WAT     H1 3940   3.036   2.055   3.031 -0.5394 -0.9494 -0.4928
 1243WAT     H2 3941   3.051   1.976   2.903  0.2343 -1.5125 -0.0613
 1244WAT      O 3942   3.006   1.812   4.069  0.4576  0.3131 -0.6774
 1244WAT     H1 3943   2.991   1.891   4.017 -1.2052  1.1249  0.9349
 1244WAT     H2 3944   3.032   1.844   4.155  0.2573 -0.9267 -0.1333
 1245WAT      O 3945   0.379   3.948   0.918 -0.0743 -0.5273  0.1500
 1245WAT     H1 3946   0.327   3.925   0.995 -0.1608 -0.0607  0.2318
 1245WAT     H2 3947   0.470   3.935   0.946 -0.1276 -0.8999  0.1520
 1246WAT      O 3948   0.246   3.971   3.792 -0.4276 -0.5980  0.7146
 1246WAT     H1 3949   0.284   3.884   3.781  0.1563 -0.2135 -0.4671
 1246WAT     H2 3950   0.215   3.995   3.705  3.2509  2.0967 -0.0838
 1247WAT      O 3951   3.924   2.898   3.121 -0.3701  0.1021 -0.1804
 1247WAT     H1 3952   3.985   2.835   3.083 -1.3311 -1.2431  0.4003
 1247WAT     H2 3953   3.911   2.866   3.211  0.3337  2.0607  0.6620
 1248WAT      O 3954   3.696   3.716   2.417 -0.2443 -0.0582  0.1918
 1248WAT     H1 3955   3.752   3.759   2.481 -0.3890 -1.0749  1.0431
 1248WAT     H2 3956   3.749   3.645   2.383 -0.1023  0.5977 -0.9878
 1249WAT      O 3957   3.146   3.782   2.899 -0.3966 -0.0505  0.5510
 1249WAT     H1 3958   3.053   3.794   2.919 -0.2529 -0.0149  1.2335
 1249WAT     H2 3959   3.181   3.871   2.893 -0.5069 -0.0557 -0.2147
 1250WAT      O 3960   4.230   1.659   4.518  0.0765  0.4887  0.2245
 1250WAT     H1 3961   4.151   1.677   4.568 -1.1209 -0.5964 -1.1739
 1250WAT     H2 3962   4.271   1.586   4.564  0.9226  1.7876  1.6062
 1251WAT      O 3963   1.152   1.903   1.623 -0.0756 -0.0179  0.1740
 1251WAT     H1 3964   1.079   1.942   1.671  0.0452  1.2647 -0.6350
 1251WAT     H2 3965   1.131   1.916   1.531  1.3691  0.7941 -0.0765
 1252WAT      O 3966   2.683   2.551   0.296  0.2053 -0.3736  0.2720
 1252WAT     H1 3967   2.599   2.554   0.342 -0.2210  0.2666 -0.5143
 1252WAT     H2 3968   2.678   2.472   0.241 -0.0730 -0.0991 -0.1045
 1253WAT      O 3969   1.827   4.881   4.666  0.2696  0.0330 -0.3342
 1253WAT     H1 3970   1.893   4.844   4.725 -0.1992 -1.7145 -0.8526
 1253WAT     H2 3971   1.816   4.815   4.598 -0.7451  1.0834 -1.2288
 1254WAT      O 3972   4.418   2.844   1.369 -0.0664 -0.4504  0.5807
 1254WAT     H1 3973   4.403   2.934   1.397 -1.2876 -0.8817  1.4171
 1254WAT     H2 3974   4.340   2.822   1.318  0.2498 -1.0203  0.3371
 1255WAT      O 3975   4.323   1.140   4.474 -0.2239  0.0261 -0.1741
 1255WAT     H1 3976   4.410   1.121   4.439  0.9091  1.1866  1.7929
 1255WAT     H2 3977   4.309   1.073   4.541 -0.8022 -0.0837 -0.3976
 1256WAT      O 3978   1.706   2.550   3.741  0.3020 -0.0403  0.6277
 1256WAT     H1 3979   1.622   2.578   3.706  1.0488 -0.4499 -1.7378
 1256WAT     H2 3980   1.729   2.615   3.807 -1.6954  0.2479  1.0848
 1257WAT      O 3981   0.607   4.842   2.186 -0.5688 -0.0803  0.2671
 1257WAT     H1 3982   0.551   4.903   2.138 -0.2620 -0.0296 -0.0311
 1257WAT     H2 3983   0.692   4.847   2.142 -0.7742 -1.3854 -0.3302
 1258WAT      O 3984   2.104   2.421   2.928  0.2112 -0.4754 -0.1306
 1258WAT     H1 3985   2.146   2.335   2.928  0.6638 -0.2870  1.8285
 1258WAT     H2 3986   2.130   2.459   2.844  0.8786 -1.8295 -0.5740
 1259WAT      O 3987   4.018   1.476   0.042 -0.3087 -0.7834  0.1983
 1259WAT     H1 3988   3.924   1.478   0.025 -0.4132  0.2080  0.7986
 1259WAT     H2 3989   4.028   1.517   0.128  0.7693  0.2368 -0.3858
 1260WAT      O 3990   0.242   1.184   1.647 -0.1933  0.0847  0.1083
 1260WAT     H1 3991   0.336   1.201   1.641 -0.1512 -0.0560  0.3855
 1260WAT     H2 3992   0.229   1.151   1.735 -0.2996 -1.1602 -0.3546
 1261WAT      O 3993   0.902   1.341   0.153 -0.6080 -0.1770 -0.7480
 1261WAT     H1 3994   0.920   1.347   0.059 -1.4451  1.8859 -0.8475
 1261WAT     H2 3995   0.970   1.284   0.188  0.8982  0.5799 -2.3177
 1262WAT      O 3996   1.307   4.725   1.948  0.2015  0.1268 -0.1401
 1262WAT     H1 3997   1.318   4.819   1.961 -0.1167  0.4016 -1.6139
 1262WAT     H2 3998   1.340   4.709   1.859  1.7615 -1.4399  0.6596
 1263WAT      O 3999   1.004   0.222   2.196 -0.0037 -0.2896  0.4573
 1263WAT     H1 4000   0.946   0.170   2.141  1.3310  0.0714 -1.4135
 1263WAT     H2 4001   1.090   0.182   2.185  0.8862  1.6495 -0.3033
 1264WAT      O 4002   3.094   3.356   4.778 -0.2491 -0.4161  0.1948
 1264WAT     H1 4003   3.153   3.418   4.821 -0.6337  0.1904 -0.1342
 1264WAT     H2 4004   3.019   3.410   4.750 -0.4478 -0.9749 -0.3703
 1265WAT      O 4005   3.958   3.273   4.691 -0.0755  0.2584  0.3198
 1265WAT     H1 4006   3.995   3.322   4.618 -1.4547  1.0879  0.1427
 1265WAT     H2 4007   4.028   3.270   4.756  0.9050  0.1859 -0.7084
 1266WAT      O 4008   2.614   3.540   0.287  0.0094 -0.1221  0.2542
 1266WAT     H1 4009   2.688   3.599   0.277 -0.3829  0.3871  0.2946
 1266WAT     H2 4010   2.544   3.580   0.235  0.6381 -2.1701 -2.3059
 1267WAT      O 4011   1.173   4.993   0.595  0.0721  0.3759 -0.1451
 1267WAT     H1 4012   1.101   4.930   0.601  1.0471 -0.7855 -0.4609
 1267WAT     H2 4013   1.240   4.960   0.655  1.3912  0.0030 -1.7517
 1268WAT      O 4014   0.641   0.585   1.023  0.1313  0.1442  0.2234
 1268WAT     H1 4015   0.728   0.623   1.008  1.2852 -1.6017  1.9565
 1268WAT     H2 4016   0.604   0.639   1.093  0.2629  0.2531  0.2106
 1269WAT      O 4017   2.614   0.402   0.747 -0.1754 -0.1924 -0.2930
 1269WAT     H1 4018   2.567   0.445   0.676  1.0875 -0.1542 -1.1384
 1269WAT     H2 4019   2.680   0.465   0.775 -0.7933 -0.1161  1.0948
 1270WAT      O 4020   4.261   3.268   2.603 -0.4684 -0.1194  0.0343
 1270WAT     H1 4021   4.211   3.263   2.684  0.4511 -0.7515  0.5820
 1270WAT     H2 4022   4.259   3.179   2.568  1.5440 -0.5413  0.8732
 1271WAT      O 4023   0.258   1.108   2.707  0.2382  0.3142 -0.0406
 1271WAT     H1 4024   0.304   1.093   2.790  1.2566  1.0180 -0.4498
 1271WAT     H2 4025   0.305   1.052   2.645  0.4742  0.9536 -0.4420
 1272WAT      O 4026   4.217   2.959   4.182  0.2556 -0.1390  0.5339
 1272WAT     H1 4027   4.203   2.880   4.130  0.4277  0.4667 -0.4430
 1272WAT     H2 4028   4.132   2.975   4.223 -0.4131  0.3732 -0.9810
 1273WAT      O 4029   3.169   2.192   3.472  0.3547 -0.0393 -0.3611
 1273WAT     H1 4030   3.142   2.267   3.421  0.3052  0.3752  0.2651
 1273WAT     H2 4031   3.110   2.191   3.548 -1.6401 -2.4378 -1.7899
 1274WAT      O 4032   3.195   3.660   4.251  0.2212 -0.5452 -0.1529
 1274WAT     H1 4033   3.133   3.685   4.319  0.0270  0.6713 -0.7481
 1274WAT     H2 4034   3.172   3.715   4.176  2.1023  0.0331 -0.3547
 1275WAT      O 4035   2.871   4.316   0.990  0.2462  0.3223 -0.2314
 1275WAT     H1 4036   2.913   4.398   1.017  0.8108  0.2961 -1.0095
 1275WAT     H2 4037   2.939   4.268   0.943 -0.0341 -0.6842  0.3834
 1276WAT      O 4038   1.743   0.211   1.770  0.3923  0.5861  0.6090
 1276WAT     H1 4039   1.691   0.166   1.836  0.9563  2.4630  2.4356
 1276WAT     H2 4040   1.833   0.187   1.791  0.4941  0.1093 -0.3508
 1277WAT      O 4041   0.867   4.207   2.574 -0.7582  0.2453 -0.3500
 1277WAT     H1 4042   0.773   4.203   2.555 -1.0423 -0.6245  1.0378
 1277WAT     H2 4043   0.907   4.241   2.494 -2.0866 -0.8239 -1.5119
 1278WAT      O 4044   0.551   0.335   1.380  0.2898  0.2030 -0.5006
 1278WAT     H1 4045   0.528   0.273   1.448 -2.2116  0.5277 -0.9640
 1278WAT     H2 4046   0.577   0.414   1.427 -2.0066  0.6343  0.1763
 1279WAT      O 4047   2.739   0.955   0.122  0.4684 -0.7359  0.1902
 1279WAT     H1 4048   2.656   0.998   0.145  0.5724 -1.0529  1.2253
 1279WAT     H2 4049   2.786   0.949   0.205  1.4459 -0.7506 -0.3519
 1280WAT      O 4050   4.084   4.803   3.518  0.1693  0.0412  0.3433
 1280WAT     H1 4051   4.016   4.865   3.492  0.8116  0.2574 -0.8904
 1280WAT     H2 4052   4.153   4.858   3.556  0.2334 -0.0456  0.3512
 1281WAT      O 4053   1.099   3.077   1.439  0.1536 -0.1847 -0.0681
 1281WAT     H1 4054   1.126   3.032   1.359  2.0900 -0.5991  0.7706
 1281WAT     H2 4055   1.138   3.164   1.432 -1.3784  0.5032 -0.4728
 1282WAT      O 4056   0.433   0.726   2.734 -0.1907 -0.2345 -0.4696
 1282WAT     H1 4057   0.462   0.693   2.819 -0.0047  0.6365 -0.1878
 1282WAT     H2 4058   0.338   0.715   2.736 -0.1135 -0.9549 -0.4749
 1283WAT      O 4059   0.187   1.500   0.799 -0.3435  0.1854 -0.0930
 1283WAT     H1 4060   0.190   1.408   0.772  2.3343  0.4859 -1.1957
 1283WAT     H2 4061   0.247   1.544   0.739 -1.0604  2.5618  0.8263
 1284WAT      O 4062   1.164   3.686   2.028 -0.0671  0.1487  0.1384
 1284WAT     H1 4063   1.083   3.636   2.032  0.6986 -1.0677  0.9900
 1284WAT     H2 4064   1.167   3.734   2.110  0.2079 -0.0436  0.2439
 1285WAT      O 4065   3.317   3.685   1.992 -0.8738 -0.3182 -0.2059
 1285WAT     H1 4066   3.351   3.757   2.045  0.9295 -0.8570 -0.5602
 1285WAT     H2 4067   3.367   3.609   2.021 -2.6325 -1.4482  0.0613
 1286WAT      O 4068   0.141   3.358   4.856 -0.5884 -0.9308  0.1212
 1286WAT     H1 4069   0.154   3.449   4.831 -1.2194 -0.5186  1.2344
 1286WAT     H2 4070   0.205   3.310   4.804  1.7099  0.4330  1.5111
 1287WAT      O 4071   3.234   4.576   2.616  0.0550  0.5302 -0.2179
 1287WAT     H1 4072   3.175   4.610   2.682  0.1965  0.7946 -0.2290
 1287WAT     H2 4073   3.179   4.564   2.538 -0.2107 -0.2000  0.0712
 1288WAT      O 4074   0.561   3.293   3.775  0.1983 -0.4235 -0.1249
 1288WAT     H1 4075   0.519   3.348   3.842  3.7101  1.0800  1.0819
 1288WAT     H2 4076   0.567   3.350   3.698  0.0868 -0.6100 -0.2726
 1289WAT      O 4077   1.246   4.129   2.241 -0.2169  0.3417 -0.1401
 1289WAT     H1 4078   1.227   4.085   2.323  0.8339  0.9185  0.4412
 1289WAT     H2 4079   1.302   4.203   2.266  1.0949 -0.1470 -1.4790
 1290WAT      O 4080   1.429   1.095   3.819  0.5856  0.0489  0.3003
 1290WAT     H1 4081   1.447   1.055   3.904 -0.5227  0.5581  0.8102
 1290WAT     H2 4082   1.418   1.022   3.759  0.7990 -0.3356  0.7282
 1291WAT      O 4083   1.950   1.651   1.237 -0.5196  0.3238 -0.3425
 1291WAT     H1 4084   1.872   1.598   1.248 -0.5280  0.4439  0.1773
 1291WAT     H2 4085   1.976   1.636   1.146  0.0093 -1.2815  0.0390
 1292WAT      O 4086   0.985   2.507   3.319  0.0707  0.2578 -0.0082
 1292WAT     H1 4087   0.979   2.519   3.224 -0.2445  1.8825  0.1873
 1292WAT     H2 4088   1.078   2.494   3.336 -0.1585 -3.3817 -0.8355
 1293WAT      O 4089   3.434   3.371   3.498  0.1352 -0.5658  0.1211
 1293WAT     H1 4090   3.489   3.293   3.497  0.5569 -0.2769 -1.7470
 1293WAT     H2 4091   3.436   3.404   3.408 -2.7037 -0.2746  0.0620
 1294WAT      O 4092   1.567   1.668   0.973 -0.3132  0.3379 -0.2242
 1294WAT     H1 4093   1.518   1.586   0.983  0.1018  0.1137  0.0214
 1294WAT     H2 4094   1.657   1.639   0.955 -0.2331  0.7410 -0.4911
 1295WAT      O 4095   1.135   1.664   1.177  0.3709 -0.0733 -0.6520
 1295WAT     H1 4096   1.201   1.667   1.246  0.9584 -0.2238 -1.1946
 1295WAT     H2 4097   1.175   1.710   1.103 -0.4842  0.6161 -0.7034
 1296WAT      O 4098   1.405   0.237   3.243  0.0901  0.3930  0.0612
 1296WAT     H1 4099   1.313   0.212   3.235  0.1504  0.1412  0.1419
 1296WAT     H2 4100   1.452   0.154   3.249  0.3308  0.5195 -0.0580
 1297WAT      O 4101   4.352   3.300   0.381  0.1126 -0.2592  0.2422
 1297WAT     H1 4102   4.329   3.336   0.296  2.0064 -0.5120 -0.4096
 1297WAT     H2 4103   4.389   3.373   0.430  1.8335 -0.7450 -0.2661
 1298WAT      O 4104   3.549   4.138   2.004 -0.2317  0.3099  0.6424
 1298WAT     H1 4105   3.583   4.202   2.067 -1.7350  2.0702 -0.2363
 1298WAT     H2 4106   3.560   4.180   1.919 -0.3149 -1.0610 -0.0689
 1299WAT      O 4107   0.270   0.299   5.147  0.0382  0.5261 -0.1366
 1299WAT     H1 4108   0.190   0.342   5.176 -0.2796  0.5422 -1.0117
 1299WAT     H2 4109   0.267   0.304   5.052  0.7762 -0.0276 -0.2009
 1300WAT      O 4110   0.142   2.794   1.240 -0.5239  0.3685  0.2326
 1300WAT     H1 4111   0.049   2.811   1.256 -0.2297  2.2278  0.1100
 1300WAT     H2 4112   0.179   2.879   1.216  1.1798 -0.3739  0.0754
 1301WAT      O 4113   1.866   2.891   3.508 -0.4479  0.0524  0.2045
 1301WAT     H1 4114   1.876   2.957   3.577 -1.8727 -0.5010  0.9819
 1301WAT     H2 4115   1.841   2.941   3.430  0.5333  0.6166  0.2311
 1302WAT      O 4116   0.386   4.537   2.566  0.0277  0.0079 -0.2623
 1302WAT     H1 4117   0.300   4.517   2.530 -0.4464  1.0207  0.2578
 1302WAT     H2 4118   0.411   4.619   2.524  0.9075 -0.4630 -0.6810
 1303WAT      O 4119   0.667   0.687   4.169  0.0566 -0.0015 -0.3699
 1303WAT     H1 4120   0.582   0.645   4.183  0.0186  0.3879  0.6367
 1303WAT     H2 4121   0.646   0.780   4.158  0.2366 -0.0804 -1.5520
 1304WAT      O 4122   1.964   4.812   1.173  0.9006  0.2463 -0.1718
 1304WAT     H1 4123   2.048   4.843   1.205  0.6416  0.2919  0.5010
 1304WAT     H2 4124   1.982   4.775   1.087  1.3101  1.7465 -0.7428
 1305WAT      O 4125   3.376   2.730   2.487  0.5487 -0.6634  0.0442
 1305WAT     H1 4126   3.335   2.675   2.420 -0.4616 -1.2986  1.1608
 1305WAT     H2 4127   3.411   2.805   2.437  0.7228 -1.6108 -1.3085
 1306WAT      O 4128   4.060   0.061   1.988 -0.3587  0.0424  0.5720
 1306WAT     H1 4129   4.002   0.129   1.954  0.4337 -0.3481 -1.6879
 1306WAT     H2 4130   4.008   0.015   2.054 -2.1658  0.4822 -0.5015
 1307WAT      O 4131   4.450   1.470   3.617 -0.7067  0.1290  0.4743
 1307WAT     H1 4132   4.377   1.516   3.659 -1.2299 -0.8693  0.6930
 1307WAT     H2 4133   4.409   1.407   3.558  0.0159  0.7885 -0.7792
 1308WAT      O 4134   2.063   3.654   4.909 -0.8488 -0.3913  0.2698
 1308WAT     H1 4135   2.023   3.740   4.918 -0.1845 -0.0032 -0.3672
 1308WAT     H2 4136   2.039   3.607   4.989 -0.7377  0.5728  0.8730
 1309WAT      O 4137   1.440   1.626   4.793  0.0106  0.2935 -0.0110
 1309WAT     H1 4138   1.399   1.542   4.810 -0.3259  0.6363  0.9087
 1309WAT     H2 4139   1.533   1.610   4.807  0.0361 -0.0950 -0.5636
 1310WAT      O 4140   1.166   3.049   4.711  0.0153 -0.2438 -0.4691
 1310WAT     H1 4141   1.258   3.031   4.730  0.3267  0.4922 -1.2256
 1310WAT     H2 4142   1.166   3.088   4.624 -0.9306  0.4898 -0.1704
 1311WAT      O 4143   3.992   4.006   5.100 -0.3484  0.1752 -0.0907
 1311WAT     H1 4144   3.922   3.946   5.074  0.9807 -1.9683  1.0467
 1311WAT     H2 4145   3.950   4.067   5.161 -1.3597 -0.6608  0.0791
 1312WAT      O 4146   0.092   0.832   3.962 -0.0638 -0.1262 -0.2463
 1312WAT     H1 4147   0.099   0.786   3.878 -0.1237  1.2154 -1.0176
 1312WAT     H2 4148   0.008   0.878   3.958 -0.5982 -0.9385  1.0391
 1313WAT      O 4149   2.471   1.069   3.005  0.0279  0.5898 -0.3529
 1313WAT     H1 4150   2.408   1.035   2.942 -0.0499  0.8882 -0.4362
 1313WAT     H2 4151   2.512   0.991   3.042  0.5642  0.4286 -1.2742
 1314WAT      O 4152   3.166   3.741   5.082 -0.2306  0.5457  0.0771
 1314WAT     H1 4153   3.202   3.685   5.013  1.1597  0.1232  1.1112
 1314WAT     H2 4154   3.071   3.727   5.077 -0.1383  0.3365 -1.5600
 1315WAT      O 4155   3.784   4.510   1.554 -0.6308  0.0184  0.0727
 1315WAT     H1 4156   3.862   4.557   1.523 -1.3743  1.3657  0.1791
 1315WAT     H2 4157   3.772   4.441   1.489 -0.2940  0.8154 -0.8681
 1316WAT      O 4158   1.408   1.365   4.209 -0.2816  0.5456  0.3097
 1316WAT     H1 4159   1.324   1.406   4.191 -1.7085 -2.0678  0.6226
 1316WAT     H2 4160   1.388   1.289   4.263  2.0894 -1.0290 -0.8336
 1317WAT      O 4161   1.991   3.293   3.127  0.2389  0.4459  0.2249
 1317WAT     H1 4162   1.947   3.311   3.210 -2.0587  1.0466 -1.0380
 1317WAT     H2 4163   1.976   3.200   3.112 -2.6226  1.0237 -1.1830
 1318WAT      O 4164   0.625   0.044   4.157  0.1897 -0.4499  0.2369
 1318WAT     H1 4165   0.658  -0.043   4.178  0.6686 -0.7490 -1.5706
 1318WAT     H2 4166   0.608   0.084   4.242  2.3102 -1.4132  1.2016
 1319WAT      O 4167   1.655   0.434   0.710  0.3401  0.3243  0.5624
 1319WAT     H1 4168   1.745   0.466   0.711  0.0815  1.2113 -0.8857
 1319WAT     H2 4169   1.634   0.417   0.801  1.6059  1.1832  1.0329
 1320WAT      O 4170   0.351   0.263   3.178 -0.2320 -0.6716  0.2470
 1320WAT     H1 4171   0.429   0.227   3.137  0.6357 -1.0673  2.1372
 1320WAT     H2 4172   0.349   0.354   3.149  0.2746 -0.9705 -0.7523
 1321WAT      O 4173   1.470   2.463   1.954 -0.0839 -0.0391 -0.2911
 1321WAT     H1 4174   1.461   2.411   1.874 -0.5328 -0.1682 -0.1580
 1321WAT     H2 4175   1.466   2.399   2.025 -3.8309  0.3923  0.0558
 1322WAT      O 4176   4.006   0.187   0.260  0.1236 -0.3234  1.0932
 1322WAT     H1 4177   3.943   0.251   0.226 -1.0183 -1.8290  0.2286
 1322WAT     H2 4178   3.952   0.111   0.283  1.4460 -1.0168  2.0017
 1323WAT      O 4179   3.008   0.889   3.459  0.2431  0.0686  0.1784
 1323WAT     H1 4180   2.996   0.840   3.378 -1.6215 -2.4923  1.8655
 1323WAT     H2 4181   3.060   0.831   3.515 -1.6861  0.0766  2.1048
 1324WAT      O 4182   1.878   3.995   1.278  0.4082 -0.5061  0.9273
 1324WAT     H1 4183   1.798   4.031   1.238 -0.4381 -1.6543  1.5152
 1324WAT     H2 4184   1.939   4.069   1.279 -0.8981  0.6297  1.1510
 1325WAT      O 4185   4.023   1.047   4.880  0.3818  0.4577 -0.9205
 1325WAT     H1 4186   4.005   1.070   4.788  1.4921  0.4081 -1.1593
 1325WAT     H2 4187   4.092   0.982   4.876  1.3936  1.4334 -0.0017
 1326WAT      O 4188   3.195   2.552   4.622 -0.5100  0.1968  0.1976
 1326WAT     H1 4189   3.270   2.604   4.652 -0.8702  0.3065  0.9174
 1326WAT     H2 4190   3.124   2.575   4.682 -0.9525 -0.3647 -0.1044
 1327WAT      O 4191   0.292   2.986   0.437 -0.2784  0.0696  0.3392
 1327WAT     H1 4192   0.269   2.923   0.505  1.8223  0.3848  1.4153
 1327WAT     H2 4193   0.315   2.932   0.361  1.2516 -0.4874  1.1693
 1328WAT      O 4194   2.024   1.930   5.092 -0.0878 -0.3174 -0.0981
 1328WAT     H1 4195   1.951   1.946   5.151 -1.8544 -1.9097 -1.7094
 1328WAT     H2 4196   2.068   1.853   5.128  0.2263  0.0529  0.3276
 1329WAT      O 4197   2.901   2.391   0.407  0.5160 -0.5074  0.0227
 1329WAT     H1 4198   2.948   2.403   0.324  0.4988 -1.6628 -0.1729
 1329WAT     H2 4199   2.823   2.447   0.399  0.8231 -0.1391 -0.4804
 1330WAT      O 4200   0.061   3.335   0.851 -0.0300 -0.2078 -0.2196
 1330WAT     H1 4201   0.066   3.260   0.910  0.5089  0.3311  0.4488
 1330WAT     H2 4202   0.152   3.351   0.825 -0.1060  0.3410 -0.1649
 1331WAT      O 4203   2.953   0.135   1.653 -0.0471  0.3848 -0.0305
 1331WAT     H1 4204   2.949   0.186   1.573 -0.5175  1.5272  0.6943
 1331WAT     H2 4205   2.947   0.044   1.624  2.2501  0.6082 -1.4613
 1332WAT      O 4206   2.871   2.858   3.663 -0.1912  0.7751  0.1363
 1332WAT     H1 4207   2.859   2.953   3.658 -1.0034  0.6785  0.1246
 1332WAT     H2 4208   2.803   2.822   3.606 -0.2825  0.1693  0.6122
 1333WAT      O 4209   0.420   0.350   1.731 -0.2189 -0.3655  0.3070
 1333WAT     H1 4210   0.332   0.387   1.734 -0.0574 -0.0210  1.2863
 1333WAT     H2 4211   0.424   0.292   1.807  1.0177  1.1277  1.4716
 1334WAT      O 4212   1.721   2.907   1.148  0.3958 -0.1027 -0.2449
 1334WAT     H1 4213   1.731   2.988   1.097  0.0084  0.4584  0.5580
 1334WAT     H2 4214   1.692   2.843   1.083 -1.6894  0.9825 -0.4881
 1335WAT      O 4215   2.311   1.005   3.755 -0.0883 -0.1914 -0.5297
 1335WAT     H1 4216   2.401   1.015   3.727  0.0509  1.1229  0.3009
 1335WAT     H2 4217   2.272   0.946   3.690  1.4149 -0.9901 -0.7447
 1336WAT      O 4218   1.401   0.702   0.164  0.3540 -0.8261  0.3091
 1336WAT     H1 4219   1.467   0.745   0.218 -1.2058  2.6439 -0.2388
 1336WAT     H2 4220   1.324   0.759   0.170 -0.9205 -1.8938 -3.0696
 1337WAT      O 4221   3.603   4.653  -0.033  0.4059  0.7208  0.1714
 1337WAT     H1 4222   3.567   4.703   0.041  0.0403 -3.0187  2.8129
 1337WAT     H2 4223   3.687   4.620  -0.000  0.5922 -0.4420 -1.3598
 1338WAT      O 4224   1.975   4.741   3.822 -0.4419 -0.4180  0.0303
 1338WAT     H1 4225   2.043   4.792   3.777 -0.3320 -1.0076 -0.4831
 1338WAT     H2 4226   1.948   4.675   3.758  0.6550 -2.1292  1.2381
 1339WAT      O 4227   3.594   0.525   2.767 -0.4668  0.5304  0.6987
 1339WAT     H1 4228   3.676   0.493   2.730 -1.0924  0.2045 -0.4572
 1339WAT     H2 4229   3.538   0.448   2.770 -1.6164  1.2337 -1.0656
 1340WAT      O 4230   3.851   0.976   3.005 -0.0107 -0.7898 -0.3106
 1340WAT     H1 4231   3.835   0.962   3.098 -2.3052  0.0887 -0.5032
 1340WAT     H2 4232   3.799   1.054   2.983  3.2961  1.2559 -1.5948
 1341WAT      O 4233   3.498   3.413   5.129 -0.3171 -0.2180 -0.2079
 1341WAT     H1 4234   3.481   3.482   5.193  0.5588 -0.2344  0.0596
 1341WAT     H2 4235   3.479   3.331   5.175 -0.7205 -0.1882 -0.3165
 1342WAT      O 4236   0.909   2.400   2.860  0.9237 -0.0376  0.2772
 1342WAT     H1 4237   0.903   2.447   2.943  1.2413  1.4576 -0.5052
 1342WAT     H2 4238   0.828   2.423   2.814  1.1235 -0.1996 -0.1563
 1343WAT      O 4239   3.985   3.055   1.056 -0.2735 -0.1412 -0.3174
 1343WAT     H1 4240   3.993   2.996   0.981 -2.4846 -0.9946  0.0483
 1343WAT     H2 4241   4.012   3.002   1.131  1.7201  0.6446 -0.4139
 1344WAT      O 4242   4.468   3.331   4.053 -0.3018 -0.0452 -0.2591
 1344WAT     H1 4243   4.385   3.375   4.071  0.7574  2.7591 -1.5272
 1344WAT     H2 4244   4.462   3.307   3.960  0.1269 -0.1673 -0.2572
 1345WAT      O 4245   2.049   4.224   2.347 -0.0830 -0.0044  0.2088
 1345WAT     H1 4246   2.121   4.160   2.344  0.4335  0.5604  0.3410
 1345WAT     H2 4247   2.056   4.263   2.434  0.0448  0.7299 -0.1269
 1346WAT      O 4248   3.330   1.836   3.679  0.2883 -0.4733  0.0638
 1346WAT     H1 4249   3.324   1.925   3.713 -2.3877 -0.2214 -0.8080
 1346WAT     H2 4250   3.297   1.842   3.589 -1.2393 -2.5189  0.4049
 1347WAT      O 4251   2.499   4.705   0.869 -0.1289 -0.0299 -0.3397
 1347WAT     H1 4252   2.527   4.796   0.874  1.3712 -0.5332  2.1482
 1347WAT     H2 4253   2.579   4.654   0.879 -1.0385 -1.6265 -0.8037
 1348WAT      O 4254   3.990   3.598   0.054 -0.2697  0.1595 -0.0267
 1348WAT     H1 4255   4.021   3.687   0.034  0.1829  0.1759  0.7102
 1348WAT     H2 4256   3.978   3.558  -0.031  1.6088  0.2197 -0.3784
 1349WAT      O 4257   0.858   2.054   1.732 -0.0667  0.5875  0.3600
 1349WAT     H1 4258   0.817   2.136   1.705 -1.1787 -0.0022  0.2255
 1349WAT     H2 4259   0.913   2.080   1.806 -0.8074  1.3783  0.6612
 1350WAT      O 4260   0.079   2.258   0.367  0.3983  0.3244  0.0401
 1350WAT     H1 4261   0.072   2.228   0.276  0.3758  0.4032  0.0159
 1350WAT     H2 4262   0.156   2.315   0.368  0.5824  0.0761  0.1380
 1351WAT      O 4263   2.086   3.654   4.473 -0.1375  0.4458  0.2737
 1351WAT     H1 4264   2.131   3.628   4.553  0.3107  0.6191  0.0772
 1351WAT     H2 4265   2.132   3.609   4.403 -1.0903 -0.4339  0.1811
 1352WAT      O 4266   4.221   2.546   3.471 -0.1645 -0.2295  0.4569
 1352WAT     H1 4267   4.205   2.454   3.493  1.7717 -1.1927 -1.7354
 1352WAT     H2 4268   4.195   2.554   3.380 -0.3373  1.4363  0.6246
 1353WAT      O 4269   1.131   2.780   2.110  0.5435  0.4319  0.1053
 1353WAT     H1 4270   1.139   2.853   2.049 -0.5914  0.4774 -0.0089
 1353WAT     H2 4271   1.178   2.808   2.188 -1.9516  2.4139  1.0483
 1354WAT      O 4272   2.268   2.612   0.405  0.1844  0.7694  0.2703
 1354WAT     H1 4273   2.350   2.660   0.417  1.7000 -1.1174 -1.8057
 1354WAT     H2 4274   2.275   2.539   0.467  0.4368  0.1933 -0.4296
 1355WAT      O 4275   3.406   0.950   1.408  0.2453  0.0299 -0.1062
 1355WAT     H1 4276   3.494   0.988   1.410  0.1223  0.4945 -1.9296
 1355WAT     H2 4277   3.411   0.875   1.467  1.4428  0.9022  0.9463
 1356WAT      O 4278   2.189   0.606   3.366 -0.0066  0.0155 -0.8135
 1356WAT     H1 4279   2.097   0.619   3.389 -0.6079 -1.5021 -2.2137
 1356WAT     H2 4280   2.188   0.535   3.302  2.0714  0.4959 -1.4470
 1357WAT      O 4281   2.608   2.069   0.253  0.0157  0.7540 -0.4235
 1357WAT     H1 4282   2.587   2.003   0.319  0.4722  1.6905  0.6938
 1357WAT     H2 4283   2.691   2.041   0.215 -0.1792  0.2872 -0.5095
 1358WAT      O 4284   3.379   3.767   3.833  0.3312 -0.4323 -0.3130
 1358WAT     H1 4285   3.387   3.689   3.779 -0.2783 -0.5928 -0.1734
 1358WAT     H2 4286   3.443   3.753   3.904 -0.5958 -1.3581  0.3705
 1359WAT      O 4287   0.571   0.328   4.705 -0.3226 -0.3443  0.2453
 1359WAT     H1 4288   0.478   0.339   4.687 -0.0232 -0.2511 -1.3149
 1359WAT     H2 4289   0.615   0.345   4.622  1.0551 -0.9489  0.8080
 1360WAT      O 4290   4.414   2.912   0.345 -0.0554  0.4312  0.5285
 1360WAT     H1 4291   4.426   2.972   0.418  0.4883  1.1570 -0.1470
 1360WAT     H2 4292   4.451   2.958   0.269 -0.0930 -0.5414 -0.0962
 1361WAT      O 4293   2.618   4.332   5.149 -0.0229  0.2636  0.6969
 1361WAT     H1 4294   2.704   4.336   5.106 -0.9844 -0.0186 -1.3943
 1361WAT     H2 4295   2.629   4.266   5.218  1.2106 -0.4351 -0.1129
 1362WAT      O 4296   0.517   1.167   1.636 -0.2357 -0.4783  0.3649
 1362WAT     H1 4297   0.590   1.197   1.583  0.6586 -1.0023  1.2655
 1362WAT     H2 4298   0.519   1.072   1.629 -1.6272 -0.4680 -0.6136
 1363WAT      O 4299   1.157   4.820   3.877 -0.1649 -0.0835 -0.2037
 1363WAT     H1 4300   1.128   4.736   3.840 -0.4370 -0.4491  0.8135
 1363WAT     H2 4301   1.101   4.832   3.954  1.2932 -0.0079  0.8835
 1364WAT      O 4302   2.586   4.014   4.964  0.5669  0.7228 -0.5618
 1364WAT     H1 4303   2.589   4.062   5.046  0.1400 -0.4753  0.1767
 1364WAT     H2 4304   2.504   3.965   4.968  1.3151 -0.5916 -0.9837
 1365WAT      O 4305   1.987   1.022   2.911 -0.4112 -0.3394  0.0381
 1365WAT     H1 4306   1.942   1.107   2.912 -1.0828 -0.7002  0.4487
 1365WAT     H2 4307   1.953   0.976   2.987  1.1769 -0.3614  0.7624
 1366WAT      O 4308   1.806   0.034   4.909  0.1340  0.6067 -0.0096
 1366WAT     H1 4309   1.733   0.093   4.925 -0.8147 -0.3826 -0.6244
 1366WAT     H2 4310   1.789  -0.004   4.823  0.9413 -0.2624  0.1934
 1367WAT      O 4311   0.046   0.322   3.927 -0.1565  0.4591  0.0942
 1367WAT     H1 4312   0.127   0.278   3.902  1.4926  2.5770  1.3851
 1367WAT     H2 4313   0.016   0.274   4.005  0.5226  0.4224  0.3361
 1368WAT      O 4314   3.657   0.326   0.727  0.1894 -0.7930  0.1070
 1368WAT     H1 4315   3.721   0.305   0.660 -0.4084 -2.5447  0.0420
 1368WAT     H2 4316   3.572   0.310   0.685 -0.2363 -0.4818  0.8237
 1369WAT      O 4317   3.710   3.212   3.622  0.1161 -0.2479  0.1645
 1369WAT     H1 4318   3.679   3.241   3.708  0.2357 -1.4468  0.6377
 1369WAT     H2 4319   3.641   3.154   3.590  0.4008 -0.3757 -0.2325
 1370WAT      O 4320   3.647   0.097   2.554  0.3698  0.1733 -0.0571
 1370WAT     H1 4321   3.641   0.121   2.462 -0.6149 -1.4053 -0.4367
 1370WAT     H2 4322   3.566   0.049   2.572 -0.0662  1.5232  1.9712
 1371WAT      O 4323   2.014   3.177   0.434 -0.2547  0.2109  0.0969
 1371WAT     H1 4324   1.968   3.256   0.461 -1.8569 -0.4515 -0.5844
 1371WAT     H2 4325   2.034   3.131   0.516 -0.6858  0.5759  0.4059
 1372WAT      O 4326   1.495   4.004   4.074 -0.2023  0.3451 -0.1060
 1372WAT     H1 4327   1.477   3.963   3.990 -0.8569  0.6047 -0.0976
 1372WAT     H2 4328   1.437   3.961   4.136 -0.3090  0.7125  0.0562
 1373WAT      O 4329   3.021   0.123   4.576  0.3247 -0.2505 -0.8448
 1373WAT     H1 4330   3.094   0.182   4.560  0.3785 -0.0476  0.1023
 1373WAT     H2 4331   2.957   0.176   4.624 -0.3618 -0.4786 -1.4849
 1374WAT      O 4332   3.788   2.173   4.496 -0.2484 -0.2232 -0.2286
 1374WAT     H1 4333   3.799   2.117   4.420 -0.3665 -0.1058 -0.3327
 1374WAT     H2 4334   3.770   2.260   4.460  0.5870  0.0245 -0.0780
 1375WAT      O 4335   2.062   2.516   0.198  0.2272 -0.4797  0.1171
 1375WAT     H1 4336   2.014   2.465   0.263  0.5533  0.0349  0.7765
 1375WAT     H2 4337   2.125   2.567   0.250 -0.5300  1.0837 -0.4383
 1376WAT      O 4338   1.011   0.469   0.735 -0.7605  0.1274  0.0760
 1376WAT     H1 4339   1.003   0.380   0.768  2.6883  0.0333  1.0315
 1376WAT     H2 4340   0.992   0.462   0.641 -2.9291 -1.0686  0.5326
 1377WAT      O 4341   0.791   1.084   2.496 -0.9596 -0.6068  0.4934
 1377WAT     H1 4342   0.843   1.145   2.443 -0.9878 -1.9519 -1.1796
 1377WAT     H2 4343   0.715   1.064   2.441 -0.8136 -2.3239  0.8538
 1378WAT      O 4344   1.255   3.476   0.307  0.0115 -0.2695 -0.1677
 1378WAT     H1 4345   1.239   3.393   0.351  1.9665 -0.8004 -0.3720
 1378WAT     H2 4346   1.172   3.497   0.264 -0.8575 -1.5170  0.8414
 1379WAT      O 4347   3.284   0.030   0.415 -0.0021 -0.3143 -0.0041
 1379WAT     H1 4348   3.370  -0.001   0.387  0.1551 -1.5778  1.7526
 1379WAT     H2 4349   3.258  -0.029   0.485 -1.8662  0.6650  0.2071
 1380WAT      O 4350   2.611   4.816   1.584  0.5250  0.2098  0.3822
 1380WAT     H1 4351   2.640   4.900   1.548 -1.9457  0.8773 -0.3038
 1380WAT     H2 4352   2.590   4.763   1.507 -1.9225  0.5541  0.7281
 1381WAT      O 4353   1.987   0.073   1.871  0.9438 -0.0970  0.2528
 1381WAT     H1 4354   1.923   0.034   1.930 -0.5517 -0.3786 -1.4473
 1381WAT     H2 4355   2.033  -0.001   1.833  0.5856 -0.0430 -0.3079
 1382WAT      O 4356   1.299   2.508   2.685 -0.3025 -0.3307  0.8457
 1382WAT     H1 4357   1.219   2.465   2.656 -0.3257  0.6874 -0.7174
 1382WAT     H2 4358   1.298   2.499   2.781 -0.8317 -2.8021  0.6731
 1383WAT      O 4359   0.283   0.142   3.835 -0.8446  0.0771  0.1034
 1383WAT     H1 4360   0.284   0.168   3.743 -2.6621  3.1830  0.8124
 1383WAT     H2 4361   0.375   0.125   3.856  0.0552  2.3926 -1.5659
 1384WAT      O 4362   0.407   5.012   3.429 -0.5990  0.1809 -0.2142
 1384WAT     H1 4363   0.387   5.106   3.421  0.9758  0.3892 -2.6195
 1384WAT     H2 4364   0.396   4.978   3.340  0.5826 -1.5639  0.2644
 1385WAT      O 4365   4.032   4.353   2.505  0.1525  0.5463  0.2302
 1385WAT     H1 4366   4.079   4.312   2.577  1.1441 -2.3213 -1.8823
 1385WAT     H2 4367   3.940   4.352   2.532  0.2704 -2.2157  0.7329
 1386WAT      O 4368   1.116   4.980   4.760 -0.4176  0.1796 -0.0776
 1386WAT     H1 4369   1.129   4.932   4.842 -0.1922  0.9665  0.3539
 1386WAT     H2 4370   1.142   4.917   4.692 -1.0290 -0.6297  0.4193
 1387WAT      O 4371   2.168   3.838   1.108  0.4132 -0.1485 -0.2556
 1387WAT     H1 4372   2.082   3.797   1.109  0.9021 -1.2195  0.7254
 1387WAT     H2 4373   2.169   3.891   1.028 -0.9082 -0.6283 -0.6100
 1388WAT      O 4374   2.289   0.777   4.435  1.0046  0.0258  0.2930
 1388WAT     H1 4375   2.234   0.809   4.507  0.9134 -0.6938  0.5581
 1388WAT     H2 4376   2.319   0.856   4.391 -2.0326  0.4807 -1.2270
 1389WAT      O 4377   3.221   1.172   4.648  0.5137 -0.4513 -0.1750
 1389WAT     H1 4378   3.149   1.123   4.688 -0.0001  0.1034 -0.4068
 1389WAT     H2 4379   3.223   1.140   4.558  0.5130 -0.4175 -0.1866
 1390WAT      O 4380   2.736   0.833   2.214 -0.1933 -0.1800  0.1380
 1390WAT     H1 4381   2.802   0.874   2.270 -0.6938 -0.2369  0.7859
 1390WAT     H2 4382   2.742   0.740   2.234  0.1891 -0.2995 -0.5173
 1391WAT      O 4383   0.616   1.062   5.282  0.6802 -0.0744  0.5571
 1391WAT     H1 4384   0.604   0.974   5.319 -0.7792 -0.3977 -0.6147
 1391WAT     H2 4385   0.694   1.054   5.228 -0.3287 -1.1232 -0.8113
 1392WAT      O 4386   2.599   3.885   1.838  0.1440 -0.3403  1.2058
 1392WAT     H1 4387   2.568   3.969   1.805  0.3756 -0.7670 -0.1698
 1392WAT     H2 4388   2.606   3.897   1.933  1.0120  1.4763  0.9531
 1393WAT      O 4389   2.984   1.873   3.267 -0.3946  0.2156  0.6762
 1393WAT     H1 4390   2.916   1.937   3.248  0.4368  0.3703 -2.2725
 1393WAT     H2 4391   2.944   1.788   3.249  0.2567  0.3378 -1.6819
 1394WAT      O 4392   0.268   0.024   0.726 -0.2169  0.0982  0.2878
 1394WAT     H1 4393   0.285  -0.029   0.804 -0.8136  0.1792  0.4816
 1394WAT     H2 4394   0.183   0.065   0.744  0.4673  1.5426  0.3778
 1395WAT      O 4395   4.143   1.028   0.455  0.2235  0.1234  0.2826
 1395WAT     H1 4396   4.161   0.958   0.392  0.9864 -0.5118  1.1684
 1395WAT     H2 4397   4.053   1.011   0.484  1.3653 -2.5318  2.8527
 1396WAT      O 4398   1.023   4.208   3.268  0.0081 -0.0813  0.5161
 1396WAT     H1 4399   0.973   4.265   3.210  0.8775 -0.1669 -0.3524
 1396WAT     H2 4400   0.965   4.191   3.342 -1.9539 -1.6002 -1.2504
 1397WAT      O 4401   0.512   4.077   3.602  0.4457 -0.3110  0.1127
 1397WAT     H1 4402   0.489   3.998   3.553  0.0328  0.1829 -0.5214
 1397WAT     H2 4403   0.533   4.046   3.690  3.2346 -1.4708 -0.8753
 1398WAT      O 4404   0.074   2.610   3.342  1.1471 -0.3088  0.0005
 1398WAT     H1 4405   0.096   2.517   3.329 -1.5213 -0.7416 -2.5377
 1398WAT     H2 4406   0.149   2.657   3.306  1.0001 -1.5908 -2.2120
 1399WAT      O 4407   3.000   1.300   4.340 -0.5478  0.1267 -0.3222
 1399WAT     H1 4408   2.991   1.395   4.338 -0.3396  0.1378 -1.3817
 1399WAT     H2 4409   2.952   1.272   4.418  0.1659  1.1746  0.5086
 1400WAT      O 4410   2.817   4.815   4.700 -0.1926  0.0795 -0.1165
 1400WAT     H1 4411   2.729   4.851   4.713  0.3896  2.1241 -1.4493
 1400WAT     H2 4412   2.858   4.874   4.637  1.8195 -1.3942 -0.2735
 1401WAT      O 4413   4.022   0.426   0.721 -0.2462 -0.2283 -0.3463
 1401WAT     H1 4414   3.999   0.475   0.642 -0.7579 -0.6383 -0.4591
 1401WAT     H2 4415   4.009   0.488   0.793  0.4286  0.2127 -0.5962
 1402WAT      O 4416   3.516   4.989  -0.031 -0.1745 -0.4940  0.3694
 1402WAT     H1 4417   3.516   4.949   0.056  1.6400 -0.7443  0.3008
 1402WAT     H2 4418   3.560   5.073  -0.018 -1.0874  0.0572 -0.0753
 1403WAT      O 4419   0.926   4.486   4.426 -0.1480 -0.4829  0.2676
 1403WAT     H1 4420   0.965   4.567   4.392 -0.2460 -0.6480 -0.2575
 1403WAT     H2 4421   0.835   4.489   4.394 -0.0707 -0.9379 -0.0012
 1404WAT      O 4422   4.012   2.421   1.800 -0.5538 -0.3262 -0.3127
 1404WAT     H1 4423   3.971   2.338   1.826  0.4564 -1.3911 -1.8980
 1404WAT     H2 4424   4.087   2.394   1.747  0.2318  1.6215 -0.2656
 1405WAT      O 4425   1.932   2.990   5.087  0.1735 -0.1863 -0.4495
 1405WAT     H1 4426   1.984   2.938   5.147  0.8993  0.3585 -0.5832
 1405WAT     H2 4427   1.880   3.047   5.143 -0.3393 -0.7902 -0.3121
 1406WAT      O 4428   2.044   3.451   2.624  0.0983 -0.2564  0.0842
 1406WAT     H1 4429   2.131   3.491   2.629  0.0495 -0.2424  4.1184
 1406WAT     H2 4430   1.985   3.520   2.653 -1.4545 -0.1482 -2.9365
 1407WAT      O 4431   2.588   2.671   4.634  0.1695  0.2671 -0.4672
 1407WAT     H1 4432   2.502   2.678   4.676  1.2932 -0.3446  2.1352
 1407WAT     H2 4433   2.640   2.740   4.675  2.0117 -1.8917  1.1149
 1408WAT      O 4434   0.601   4.862   0.945  0.4127 -0.1698  0.1922
 1408WAT     H1 4435   0.652   4.899   0.873 -0.0544 -0.9634 -0.5592
 1408WAT     H2 4436   0.529   4.924   0.957 -1.0190 -1.3089 -1.8302
 1409WAT      O 4437   1.913   4.269   3.069 -0.3579 -0.1937 -0.2263
 1409WAT     H1 4438   1.973   4.271   2.994  0.5231 -0.5269  0.4503
 1409WAT     H2 4439   1.868   4.185   3.062 -0.2637 -0.2332 -0.3667
 1410WAT      O 4440   1.693   3.096   2.382  0.0874 -0.4436 -0.5483
 1410WAT     H1 4441   1.740   3.088   2.299 -0.6099  0.4869 -1.0530
 1410WAT     H2 4442   1.704   3.188   2.407 -0.3252 -0.5425  0.0126
 1411WAT      O 4443   3.992   5.022   2.222 -0.3330 -0.6919  0.2006
 1411WAT     H1 4444   4.019   4.950   2.280 -1.2836  0.7668  2.6002
 1411WAT     H2 4445   3.897   5.014   2.217 -0.3489 -0.2180 -0.4038
 1412WAT      O 4446   0.065   2.355   0.944 -0.6096 -0.2935 -0.0604
 1412WAT     H1 4447  -0.003   2.290   0.927 -1.2087  0.8713 -2.7041
 1412WAT     H2 4448   0.132   2.339   0.878  0.0938  0.6450  0.3861
 1413WAT      O 4449   4.474   4.512   4.048 -0.6122 -0.1492 -0.0757
 1413WAT     H1 4450   4.466   4.419   4.027  0.8225 -0.4756  0.6998
 1413WAT     H2 4451   4.443   4.557   3.969 -2.5085 -1.2424 -0.0111
 1414WAT      O 4452   2.013   0.126   4.638 -0.0536 -1.0568  0.2444
 1414WAT     H1 4453   1.928   0.087   4.619 -0.5622 -0.8876  1.9925
 1414WAT     H2 4454   1.997   0.182   4.714  1.2280  0.4979 -0.5744
 1415WAT      O 4455   0.895   5.024   1.628 -0.2665 -0.0232 -0.6145
 1415WAT     H1 4456   0.834   4.959   1.661  1.2723 -1.6340 -0.8067
 1415WAT     H2 4457   0.980   4.998   1.663  0.4301  1.8263 -0.7948
 1416WAT      O 4458   3.135   4.568   4.832  0.0168  0.2363 -0.4866
 1416WAT     H1 4459   3.224   4.533   4.840  0.1796 -0.0366 -2.9230
 1416WAT     H2 4460   3.107   4.580   4.923  2.0169 -0.9591  0.3737
 1417WAT      O 4461   1.753   3.926   0.256  0.3149  0.3592  0.0723
 1417WAT     H1 4462   1.705   3.861   0.308  0.9918  0.0712  0.3548
 1417WAT     H2 4463   1.687   3.965   0.199  0.0140 -1.0557 -0.6004
 1418WAT      O 4464   3.266   1.327   0.044  0.8600 -0.0808 -0.3761
 1418WAT     H1 4465   3.230   1.300  -0.041  1.4336  0.3050 -0.7448
 1418WAT     H2 4466   3.231   1.415   0.057 -2.1259 -1.3804  1.4560
 1419WAT      O 4467   0.796   3.050   3.550  0.2007 -0.0528  0.5413
 1419WAT     H1 4468   0.802   3.051   3.454 -0.5996  0.5096  0.4826
 1419WAT     H2 4469   0.771   3.140   3.572 -0.5182 -0.4135  1.2118
 1420WAT      O 4470   0.643   5.102   2.350 -0.0050  0.4043 -0.1938
 1420WAT     H1 4471   0.693   5.043   2.407  0.0561 -0.7023 -1.3387
 1420WAT     H2 4472   0.632   5.052   2.269  0.2077  2.0496 -1.2798
 1421WAT      O 4473   1.579   1.552   0.640  0.2403 -0.2191  0.4431
 1421WAT     H1 4474   1.550   1.468   0.604 -2.3384  0.4754  0.6342
 1421WAT     H2 4475   1.657   1.532   0.690  1.0307 -2.0802 -1.4075
 1422WAT      O 4476   4.139   1.031   3.733  0.3153  0.2583  0.0058
 1422WAT     H1 4477   4.045   1.013   3.733  0.6733 -2.4315  2.6913
 1422WAT     H2 4478   4.173   0.979   3.659 -0.1431  0.0121 -0.0378
 1423WAT      O 4479   1.586   5.063   2.416 -0.4284 -0.1314 -0.2137
 1423WAT     H1 4480   1.498   5.098   2.401 -1.2726 -1.9226  0.3140
 1423WAT     H2 4481   1.643   5.118   2.362 -1.6580  1.9968  0.5670
 1424WAT      O 4482   2.118   0.249   2.919 -0.4885 -0.4435  0.1395
 1424WAT     H1 4483   2.168   0.209   2.990 -1.5667 -0.3424  0.9647
 1424WAT     H2 4484   2.093   0.175   2.864  0.7680 -0.4725 -0.4447
 1425WAT      O 4485   1.360   2.478   4.342  0.3070 -0.7613 -0.1207
 1425WAT     H1 4486   1.339   2.504   4.432  1.0279  0.5093 -0.2988
 1425WAT     H2 4487   1.287   2.511   4.290  0.1482 -1.0349 -0.0739
 1426WAT      O 4488   3.246   3.140   4.253  0.4290 -0.2671 -0.2190
 1426WAT     H1 4489   3.177   3.127   4.189  0.9647  0.1194 -0.8879
 1426WAT     H2 4490   3.229   3.228   4.289 -0.7891 -1.0839  1.3342
 1427WAT      O 4491   3.517   0.691   2.992 -0.3908  0.0344 -0.3915
 1427WAT     H1 4492   3.488   0.783   2.987 -1.6687 -0.4254 -2.6037
 1427WAT     H2 4493   3.548   0.671   2.904  1.0908 -1.3319  0.3893
 1428WAT      O 4494   0.179   0.640   2.791 -0.0217 -0.0290 -0.4455
 1428WAT     H1 4495   0.123   0.585   2.736 -0.2980 -0.5367  0.3168
 1428WAT     H2 4496   0.150   0.729   2.774  0.5689 -0.0875 -1.8535
 1429WAT      O 4497   2.061   3.105   4.689  0.0336 -0.0049  0.6738
 1429WAT     H1 4498   2.075   3.054   4.769 -1.2890 -0.6300  0.5448
 1429WAT     H2 4499   2.027   3.189   4.719  0.8245  0.2754  0.8154
 1430WAT      O 4500   2.468   2.882   3.672  0.2377  0.3639  0.1755
 1430WAT     H1 4501   2.544   2.911   3.722  1.1508 -1.0336 -0.3326
 1430WAT     H2 4502   2.505   2.843   3.593 -0.7160 -3.0087  1.2149
 1431WAT      O 4503   2.339   0.105   5.261  0.3130  0.3072  0.2119
 1431WAT     H1 4504   2.419   0.066   5.225 -1.2616  1.3984 -5.3236
 1431WAT     H2 4505   2.281   0.031   5.278  0.9845 -0.2632  0.0348
 1432WAT      O 4506   0.099   4.212   0.305  0.5260  0.3699 -0.2611
 1432WAT     H1 4507   0.043   4.136   0.292 -0.3800  1.0719 -0.6004
 1432WAT     H2 4508   0.160   4.211   0.232  0.5594 -0.0593 -0.2282
 1433WAT      O 4509   1.589   2.022   3.971 -0.3431 -0.7837 -0.1481
 1433WAT     H1 4510   1.597   2.088   3.902 -2.6831 -2.0731 -1.7842
 1433WAT     H2 4511   1.611   1.939   3.927 -0.8122 -1.5003  0.9357
 1434WAT      O 4512   2.666   3.789   2.676  0.2946 -0.2782 -0.7444
 1434WAT     H1 4513   2.731   3.840   2.724  1.0013 -1.4221 -0.4552
 1434WAT     H2 4514   2.636   3.723   2.738  0.4101 -1.0837 -1.5280
 1435WAT      O 4515   2.349   0.889   4.791  0.2577 -0.1455 -0.1490
 1435WAT     H1 4516   2.423   0.949   4.783 -0.3271  0.6901  0.4529
 1435WAT     H2 4517   2.287   0.936   4.847 -0.7733 -0.7751 -0.7362
 1436WAT      O 4518   3.207   1.084   3.061  0.3483  0.1144 -0.2533
 1436WAT     H1 4519   3.113   1.082   3.076  0.2558 -0.7479 -0.8361
 1436WAT     H2 4520   3.241   1.147   3.124 -0.3520 -1.1547  1.4792
 1437WAT      O 4521   0.888   3.800   5.278 -0.5396  0.4402  0.6640
 1437WAT     H1 4522   0.807   3.762   5.244  0.3058 -1.5893  0.7512
 1437WAT     H2 4523   0.892   3.887   5.240 -1.2700 -0.5326 -1.8038
 1438WAT      O 4524   3.424   2.188   4.155 -0.2738 -0.1770  0.4689
 1438WAT     H1 4525   3.455   2.221   4.239 -2.2528  0.0097  1.1721
 1438WAT     H2 4526   3.362   2.254   4.125 -0.4942 -0.8266 -0.5599
 1439WAT      O 4527   0.779   2.233   1.305 -0.3405 -0.2118  0.1050
 1439WAT     H1 4528   0.689   2.225   1.275 -0.3071 -4.4816  0.4632
 1439WAT     H2 4529   0.832   2.218   1.226  0.0559  1.0241  0.1225
 1440WAT      O 4530   1.529   2.702   4.233 -0.1738 -0.1202 -0.5941
 1440WAT     H1 4531   1.610   2.702   4.284 -0.6717 -1.0832  0.2226
 1440WAT     H2 4532   1.482   2.624   4.262 -1.5236  0.5691 -0.8517
 1441WAT      O 4533   1.636   3.768   1.620 -0.2754  0.2299 -0.0832
 1441WAT     H1 4534   1.688   3.794   1.697 -0.3385  1.0140 -0.3058
 1441WAT     H2 4535   1.625   3.848   1.570 -1.4126  0.0007 -0.2236
 1442WAT      O 4536   3.724   0.702   5.148  0.5456 -0.2992  0.2340
 1442WAT     H1 4537   3.652   0.727   5.090  0.9502  0.3614  0.0056
 1442WAT     H2 4538   3.768   0.784   5.169  1.3707 -0.7112  0.1917
 1443WAT      O 4539   3.733   4.689   1.303 -0.1022  0.0100 -0.3200
 1443WAT     H1 4540   3.768   4.700   1.215 -2.1117  2.6376 -0.9219
 1443WAT     H2 4541   3.795   4.734   1.360  0.4586 -0.4425 -0.5645
 1444WAT      O 4542   1.755   2.948   1.892 -0.3660 -0.2000  0.0443
 1444WAT     H1 4543   1.811   3.025   1.885 -1.3949  0.6982  1.3769
 1444WAT     H2 4544   1.815   2.874   1.879  1.0300  0.7403  0.8923
 1445WAT      O 4545   3.632   3.640   3.475  0.0319 -0.0296 -0.0600
 1445WAT     H1 4546   3.657   3.604   3.560  1.4541  0.1584 -0.3855
 1445WAT     H2 4547   3.714   3.648   3.426 -0.8824 -1.2846 -1.9111
 1446WAT      O 4548   2.365   0.972   3.418  0.4254  0.6850  0.1336
 1446WAT     H1 4549   2.448   0.987   3.463  0.6535 -1.1650  0.3941
 1446WAT     H2 4550   2.386   0.907   3.351 -0.6888  0.6533 -0.1979
 1447WAT      O 4551   2.690   2.136   5.219  0.7647 -0.4628 -0.1150
 1447WAT     H1 4552   2.618   2.076   5.198 -0.0237  0.5216 -0.3060
 1447WAT     H2 4553   2.738   2.092   5.289 -0.6017 -0.6959  0.7122
 1448WAT      O 4554   0.839   3.225   1.254 -0.5413  0.0653 -0.4018
 1448WAT     H1 4555   0.753   3.183   1.249 -1.6668  2.2129 -0.5037
 1448WAT     H2 4556   0.855   3.236   1.348 -0.8033  0.4273 -0.3957
 1449WAT      O 4557   1.990   4.843   4.306  0.1033 -0.0993 -0.6678
 1449WAT     H1 4558   1.895   4.853   4.302  0.0402 -0.2534  0.2728
 1449WAT     H2 4559   2.007   4.755   4.271 -0.0954 -0.0605 -0.8625
 1450WAT      O 4560  -0.005   4.246   1.796  0.9005  0.2502 -0.1011
 1450WAT     H1 4561   0.008   4.209   1.709  0.6090  0.5407 -0.2719
 1450WAT     H2 4562   0.083   4.252   1.833  1.2715  1.8692 -1.0984
 1451WAT      O 4563   2.664   0.275   3.819 -0.3779  0.5526 -0.1577
 1451WAT     H1 4564   2.698   0.336   3.753  0.1199  0.9351  0.4450
 1451WAT     H2 4565   2.741   0.224   3.845 -0.5000  0.6590  0.4052
 1452WAT      O 4566   2.003   3.508   5.154  0.3641  0.5569  0.3088
 1452WAT     H1 4567   1.991   3.565   5.230 -2.7928  3.1200 -1.8876
 1452WAT     H2 4568   1.953   3.429   5.176 -0.6682  1.3394  0.8302
 1453WAT      O 4569   2.391   2.637   3.980 -0.3106  0.2297 -0.4832
 1453WAT     H1 4570   2.365   2.720   4.022 -0.0434 -0.0706  0.3065
 1453WAT     H2 4571   2.365   2.570   4.043 -0.2705 -0.2712 -0.9963
 1454WAT      O 4572   1.756   5.054   0.516 -0.6710 -0.3125 -0.5120
 1454WAT     H1 4573   1.738   5.079   0.607  0.0653  0.6923 -0.6231
 1454WAT     H2 4574   1.744   5.135   0.467 -0.8257 -0.7948 -1.2838
 1455WAT      O 4575   1.074   4.304   5.105  0.0017 -0.3599  0.2522
 1455WAT     H1 4576   1.164   4.316   5.075 -0.9625 -0.7334 -3.1237
 1455WAT     H2 4577   1.062   4.373   5.171  2.2390  0.8060 -0.4361
 1456WAT      O 4578   2.316   4.528   4.484 -0.6896  0.1521  0.0442
 1456WAT     H1 4579   2.362   4.536   4.401 -0.1732  1.0580  0.4029
 1456WAT     H2 4580   2.268   4.610   4.494 -0.4053  0.2389  0.8311
 1457WAT      O 4581   0.588   4.370   3.512 -0.2391  0.1112 -0.1140
 1457WAT     H1 4582   0.495   4.384   3.493 -0.5781 -1.1321  0.4738
 1457WAT     H2 4583   0.588   4.298   3.575  1.0615  0.9944  0.9481
 1458WAT      O 4584   1.358   2.841   4.409 -0.7513 -0.2745  0.7683
 1458WAT     H1 4585   1.339   2.792   4.330  0.3477  0.7243 -0.1603
 1458WAT     H2 4586   1.332   2.783   4.481 -0.3542 -1.8130 -0.2875
 1459WAT      O 4587   0.070   4.719   4.168 -0.6044 -0.0373 -0.2371
 1459WAT     H1 4588   0.031   4.641   4.127  1.0576 -1.4150  0.6724
 1459WAT     H2 4589   0.161   4.717   4.140 -0.4445  1.3948  0.1238
 1460WAT      O 4590   1.918   0.511   3.648 -0.4556 -0.1202  0.1740
 1460WAT     H1 4591   1.939   0.599   3.679  1.9761 -0.0875 -1.2877
 1460WAT     H2 4592   1.915   0.458   3.727  0.5761  0.8385  0.8927
 1461WAT      O 4593   0.117   3.681   5.096 -0.0393 -0.0779  0.0572
 1461WAT     H1 4594   0.025   3.660   5.115  0.1583 -0.8270  0.2145
 1461WAT     H2 4595   0.132   3.764   5.141 -1.4361  1.5817 -2.3050
 1462WAT      O 4596   4.481   0.577   4.285  0.1464 -0.5685  0.4895
 1462WAT     H1 4597   4.414   0.621   4.337 -1.7798 -0.5887 -1.8106
 1462WAT     H2 4598   4.473   0.485   4.310 -0.6953 -0.5674  0.2623
 1463WAT      O 4599   2.101   3.350   4.827 -0.3935 -0.0881 -0.0220
 1463WAT     H1 4600   2.163   3.407   4.781 -0.6785  0.0303 -0.2605
 1463WAT     H2 4601   2.017   3.395   4.818 -0.4438 -0.0288  0.6683
 1464WAT      O 4602   2.210   1.408   5.271 -0.0275 -0.7792 -0.0518
 1464WAT     H1 4603   2.239   1.446   5.354  0.3147 -1.2221  0.0327
 1464WAT     H2 4604   2.245   1.467   5.204  1.3163 -1.4416  0.0337
 1465WAT      O 4605   4.490   3.129   3.535  0.3269  0.1160 -0.5331
 1465WAT     H1 4606   4.569   3.101   3.581 -0.5012 -1.6724 -0.1118
 1465WAT     H2 4607   4.452   3.048   3.501 -0.1072  1.1893 -2.7399
 1466WAT      O 4608   0.788   1.340   3.823 -0.0554 -0.0270  0.2087
 1466WAT     H1 4609   0.783   1.426   3.783 -0.0796 -0.3698 -0.5326
 1466WAT     H2 4610   0.719   1.340   3.889 -2.9109 -0.9005 -2.5744
 1467WAT      O 4611   1.445   2.419   0.253 -0.4105  0.5996 -0.1416
 1467WAT     H1 4612   1.357   2.445   0.280 -0.2299  1.4084 -0.3001
 1467WAT     H2 4613   1.497   2.420   0.333 -0.3912  0.8260 -0.1535
 1468WAT      O 4614   0.134   1.998   0.193  0.1275  0.3830 -0.4682
 1468WAT     H1 4615   0.118   1.944   0.115  0.3982 -0.7649  0.2487
 1468WAT     H2 4616   0.204   2.058   0.167  0.4993 -0.2644 -0.9970
 1469WAT      O 4617   1.947   4.886   2.660 -0.0858 -0.3821  0.1178
 1469WAT     H1 4618   1.899   4.842   2.729 -1.3758  0.0183 -0.4909
 1469WAT     H2 4619   1.939   4.828   2.584 -0.1986 -0.0031 -0.1676
 1470WAT      O 4620   3.361   1.262   2.830 -0.1047  0.2304 -0.1246
 1470WAT     H1 4621   3.425   1.204   2.872 -0.0041  0.9800  0.7873
 1470WAT     H2 4622   3.396   1.277   2.742 -0.1334 -1.0738 -0.3721
 1471WAT      O 4623   0.981   4.850   4.074  0.2871  0.2401  0.1340
 1471WAT     H1 4624   0.911   4.817   4.018  1.9441  0.7753 -2.4314
 1471WAT     H2 4625   0.938   4.913   4.132 -1.4166  0.2247 -1.0483
 1472WAT      O 4626   4.020   0.419   2.506  0.1758 -0.5062  0.0393
 1472WAT     H1 4627   3.935   0.461   2.521  0.2149 -0.4406  0.0814
 1472WAT     H2 4628   4.009   0.369   2.425 -0.7509 -2.7377  1.4419
 1473WAT      O 4629   1.779   1.687   2.730 -0.0679  0.0919  0.4940
 1473WAT     H1 4630   1.838   1.759   2.707 -0.5169  0.7041  1.2241
 1473WAT     H2 4631   1.707   1.729   2.776 -1.1498 -0.6343 -0.4949
 1474WAT      O 4632   1.607   2.742   0.966 -0.1892 -0.4577 -0.7774
 1474WAT     H1 4633   1.629   2.653   0.938  1.3930 -0.0158 -1.0618
 1474WAT     H2 4634   1.543   2.730   1.037  1.5824 -1.9525  0.6869
 1475WAT      O 4635   0.770   3.332   3.520  0.0376 -0.6355 -0.2320
 1475WAT     H1 4636   0.815   3.321   3.436  0.1691  0.9977 -0.4087
 1475WAT     H2 4637   0.682   3.361   3.497  0.2344  0.3340  0.1740
 1476WAT      O 4638   1.741   2.828   3.840  0.0615 -0.0418 -0.5016
 1476WAT     H1 4639   1.730   2.883   3.763 -0.0643 -0.8755 -1.0869
 1476WAT     H2 4640   1.713   2.883   3.913 -0.1597  0.6314 -1.0860
 1477WAT      O 4641   1.602   0.890   1.599 -0.5494  0.4127  0.3328
 1477WAT     H1 4642   1.542   0.832   1.553  0.5226 -1.0328  0.6708
 1477WAT     H2 4643   1.604   0.856   1.688  0.4069  0.7151  0.4370
 1478WAT      O 4644   1.963   0.073   4.276 -0.5786  0.1334 -0.2103
 1478WAT     H1 4645   1.881   0.118   4.298 -0.8849 -0.6515  0.3141
 1478WAT     H2 4646   1.939  -0.019   4.271  0.4310 -0.1971  0.7223
 1479WAT      O 4647   0.181   2.981   3.331  0.3850 -0.1361  0.0842
 1479WAT     H1 4648   0.206   3.041   3.401 -3.1680 -0.0092  1.4913
 1479WAT     H2 4649   0.235   2.904   3.344  0.1802  0.0821  2.7296
 1480WAT      O 4650   1.405   3.805   0.163 -0.1527 -0.0992  0.1603
 1480WAT     H1 4651   1.395   3.822   0.256 -0.3733  0.3196  0.0607
 1480WAT     H2 4652   1.451   3.881   0.129 -0.3496 -0.1064 -0.1278
 1481WAT      O 4653   0.597   4.597   0.965  0.1906  0.3401  0.7996
 1481WAT     H1 4654   0.609   4.691   0.951  1.6329  0.0182 -0.2498
 1481WAT     H2 4655   0.577   4.561   0.879 -1.1819 -0.2381  1.3189
 1482WAT      O 4656   3.339   1.136   1.719 -0.4121  0.1277  0.2110
 1482WAT     H1 4657   3.421   1.179   1.744 -0.7143  0.7468  0.1592
 1482WAT     H2 4658   3.358   1.042   1.725  0.5102  0.2513 -0.4606
 1483WAT      O 4659   4.020   2.200   2.577  0.2780 -0.7328  0.1410
 1483WAT     H1 4660   4.029   2.158   2.662 -2.2368 -2.3634 -0.2762
 1483WAT     H2 4661   3.958   2.272   2.592  0.5658 -0.4202 -0.1401
 1484WAT      O 4662   0.974   3.597   5.075  0.0845 -0.4329  0.3790
 1484WAT     H1 4663   0.980   3.504   5.098 -1.1791 -0.2986  1.3376
 1484WAT     H2 4664   0.967   3.642   5.159 -1.9636  0.2913 -0.1363
 1485WAT      O 4665   3.594   3.818   5.231 -0.1273 -0.5809  0.3536
 1485WAT     H1 4666   3.682   3.831   5.265  0.7803 -0.2380 -1.9979
 1485WAT     H2 4667   3.606   3.794   5.140 -2.4793 -0.1940 -0.1249
 1486WAT      O 4668   0.089   0.019   1.068  0.3881 -0.4895  0.0308
 1486WAT     H1 4669   0.128   0.106   1.081  0.1649 -0.2701 -0.7183
 1486WAT     H2 4670   0.023   0.013   1.137  0.1558  0.0867 -0.1317
 1487WAT      O 4671   2.458   5.004   0.394 -0.2979  0.4282  0.1712
 1487WAT     H1 4672   2.400   4.956   0.454 -0.4831 -1.9268 -1.7266
 1487WAT     H2 4673   2.534   5.026   0.448 -0.5597 -1.3693  1.3932
 1488WAT      O 4674   3.234   1.133   3.636  0.0151  0.4300  0.5531
 1488WAT     H1 4675   3.218   1.056   3.691  3.6325 -0.9303 -0.0176
 1488WAT     H2 4676   3.209   1.105   3.548  1.5284 -0.2754  0.3089
 1489WAT      O 4677   4.312   2.287   2.023 -0.0507 -0.0969  0.1078
 1489WAT     H1 4678   4.350   2.313   1.939 -0.7138 -0.2541 -0.2463
 1489WAT     H2 4679   4.309   2.367   2.075  1.2502 -0.1794  0.3430
 1490WAT      O 4680   0.666   2.510   4.634  0.3386 -0.0886  0.0818
 1490WAT     H1 4681   0.613   2.586   4.611 -1.2379 -1.6015 -1.6453
 1490WAT     H2 4682   0.712   2.488   4.553  0.7106 -1.0174  0.5360
 1491WAT      O 4683   4.361   2.618   4.487 -0.1097  0.1269  0.0077
 1491WAT     H1 4684   4.443   2.629   4.439  0.8274 -0.4243  1.4163
 1491WAT     H2 4685   4.327   2.533   4.457  1.5857 -1.2728  1.8222
 1492WAT      O 4686   2.789   2.013   1.714  0.3110  0.0721  0.3658
 1492WAT     H1 4687   2.793   1.968   1.798 -0.6943  1.1937  1.0598
 1492WAT     H2 4688   2.875   1.998   1.674  1.5421  1.0714  2.4387
 1493WAT      O 4689   3.981   3.089   2.440  0.0369  0.1176  0.1378
 1493WAT     H1 4690   4.027   3.173   2.436 -0.6116  0.5319  0.9987
 1493WAT     H2 4691   3.968   3.073   2.533 -1.8044  0.1662 -0.0720
 1494WAT      O 4692   1.231   1.008   4.971 -0.1089 -0.2770  0.2930
 1494WAT     H1 4693   1.307   0.984   5.024 -0.5705  0.2425  1.2093
 1494WAT     H2 4694   1.156   0.993   5.028 -0.5860  0.7637 -0.0314
 1495WAT      O 4695   1.127   2.315   1.351 -0.1407 -0.2588 -0.0699
 1495WAT     H1 4696   1.167   2.399   1.328 -2.3863  1.1648  0.9155
 1495WAT     H2 4697   1.119   2.317   1.446  0.0217 -1.7477  0.0032
 1496WAT      O 4698   3.708   2.541   3.858  0.4814  0.7677 -0.3115
 1496WAT     H1 4699   3.714   2.461   3.910  0.2084 -0.4497 -2.0565
 1496WAT     H2 4700   3.792   2.585   3.871  0.5434  0.3201  0.8454
 1497WAT      O 4701   1.651   0.900   4.950 -0.2667  0.2711  0.1025
 1497WAT     H1 4702   1.592   0.840   4.904 -0.7085  0.6664  0.1478
 1497WAT     H2 4703   1.660   0.975   4.891  2.2304 -0.8457 -1.0958
 1498WAT      O 4704   1.678   0.707   3.846  0.2975 -0.1143  0.1592
 1498WAT     H1 4705   1.616   0.658   3.791  0.0278 -0.6835  0.9629
 1498WAT     H2 4706   1.641   0.703   3.934 -0.7618  3.1419  0.0138
 1499WAT      O 4707   1.442   2.599   1.462 -0.1146 -0.6179  0.0313
 1499WAT     H1 4708   1.398   2.637   1.538  1.5832 -0.9463  1.2454
 1499WAT     H2 4709   1.496   2.529   1.498  2.4945  0.6646 -1.1257
 1500WAT      O 4710   0.454   0.861   4.235  0.3489  0.1406 -0.2516
 1500WAT     H1 4711   0.417   0.878   4.148 -0.9346  0.9951  0.4272
 1500WAT     H2 4712   0.394   0.904   4.295  1.3142 -0.2870  1.0636
 1501WAT      O 4713   1.243   4.460   3.284  0.4741 -0.3834  0.1134
 1501WAT     H1 4714   1.301   4.410   3.227 -0.1179 -1.4698  0.4248
 1501WAT     H2 4715   1.302   4.515   3.336  1.1786 -0.9310 -0.0824
 1502WAT      O 4716   3.024   0.641   5.218 -0.4135 -0.0977  0.0943
 1502WAT     H1 4717   3.014   0.640   5.313 -0.2413  0.7678  0.1287
 1502WAT     H2 4718   2.974   0.565   5.188 -5.8179  2.8377  0.4231
 1503WAT      O 4719   0.329   3.963   1.656  0.0859 -0.1363  0.4456
 1503WAT     H1 4720   0.299   4.050   1.682  0.0017 -0.0256 -0.0065
 1503WAT     H2 4721   0.299   3.905   1.726 -1.2316 -0.0342 -0.0107
 1504WAT      O 4722   1.351   3.888   1.999 -0.0250  0.0984  0.5049
 1504WAT     H1 4723   1.353   3.792   2.001  1.8791  0.1271  1.7515
 1504WAT     H2 4724   1.308   3.912   2.081 -0.6737  0.3279  0.1050
 1505WAT      O 4725   0.272   0.058   2.819  0.4531 -0.2059 -0.1205
 1505WAT     H1 4726   0.216   0.125   2.857  1.5376  0.3432  0.5590
 1505WAT     H2 4727   0.247  -0.023   2.865 -0.6317 -0.2238 -0.7168
 1506WAT      O 4728   3.274   1.858   3.158  0.3106  0.3208  0.1455
 1506WAT     H1 4729   3.241   1.775   3.191  0.9375 -1.1707 -2.6978
 1506WAT     H2 4730   3.199   1.897   3.112  0.7385 -0.0330 -0.8795
 1507WAT      O 4731   0.201   4.964   2.919 -0.1893  0.6379  0.3445
 1507WAT     H1 4732   0.142   4.913   2.974  2.2158 -3.0694 -0.1768
 1507WAT     H2 4733   0.188   4.930   2.831  1.0904  1.3657 -0.1619
 1508WAT      O 4734   4.309   4.972   0.990 -0.1537  0.5581 -0.3081
 1508WAT     H1 4735   4.337   5.040   0.929  0.5845  0.2590 -0.3141
 1508WAT     H2 4736   4.390   4.946   1.035 -0.1834 -1.2298 -1.2197
 1509WAT      O 4737   3.634   1.649   2.667  0.1449 -0.4872 -0.1717
 1509WAT     H1 4738   3.607   1.574   2.721  0.6024 -1.2390 -0.9566
 1509WAT     H2 4739   3.611   1.623   2.578 -0.3865  0.6417 -0.3760
 1510WAT      O 4740   0.175   3.802   0.454  0.9668  0.7577 -0.0722
 1510WAT     H1 4741   0.092   3.754   0.459  1.2025  0.4064  0.7045
 1510WAT     H2 4742   0.155   3.888   0.491  0.9755  0.6273  0.2425
 1511WAT      O 4743   1.793   5.037   3.221  0.2169 -0.2776  0.4207
 1511WAT     H1 4744   1.792   4.990   3.305  1.1012 -2.2795 -0.6246
 1511WAT     H2 4745   1.880   5.076   3.217 -0.2639  0.9074  0.9573
 1512WAT      O 4746   1.826   3.441   4.692  0.5154 -0.4313  0.2510
 1512WAT     H1 4747   1.746   3.416   4.738  0.2957  0.3160  0.2881
 1512WAT     H2 4748   1.836   3.375   4.624  0.6262 -1.3156  1.1190
 1513WAT      O 4749   4.199   2.511   1.442  1.0379  0.6243  0.0135
 1513WAT     H1 4750   4.107   2.534   1.452  0.8978 -0.0758  0.4149
 1513WAT     H2 4751   4.217   2.525   1.349  0.0242 -0.9450 -0.4664
 1514WAT      O 4752   3.849   1.830   4.855  0.1740 -0.0069 -0.4810
 1514WAT     H1 4753   3.867   1.840   4.949 -0.4626 -0.5064 -0.3033
 1514WAT     H2 4754   3.754   1.828   4.848  0.2160 -0.6357 -1.0625
 1515WAT      O 4755   4.237   1.209   3.468  0.3689  0.3974  0.1557
 1515WAT     H1 4756   4.238   1.224   3.562  2.3856 -0.2003  0.2914
 1515WAT     H2 4757   4.298   1.136   3.455 -0.9007 -0.4494 -1.4910
 1516WAT      O 4758   1.146   1.669   0.234  0.0743 -0.0980 -0.5374
 1516WAT     H1 4759   1.209   1.735   0.207  0.4034 -0.6091 -1.0400
 1516WAT     H2 4760   1.107   1.704   0.314  1.6799 -0.2029  0.3305
 1517WAT      O 4761   3.179   4.834   1.173  0.0158 -0.8902  0.5643
 1517WAT     H1 4762   3.196   4.770   1.241 -1.3737 -2.1374 -0.2024
 1517WAT     H2 4763   3.231   4.805   1.098  0.0368 -0.6294  0.4746
 1518WAT      O 4764   4.046   3.233   3.764 -0.3552  0.5872  0.0000
 1518WAT     H1 4765   4.114   3.220   3.830  0.4629 -0.9006 -1.0645
 1518WAT     H2 4766   4.093   3.239   3.681 -1.3209  2.9857 -0.4545
 1519WAT      O 4767   0.142   1.861   0.741 -0.3006 -0.4556  0.0627
 1519WAT     H1 4768   0.126   1.896   0.653 -0.8903 -0.7928  0.0294
 1519WAT     H2 4769   0.231   1.826   0.737 -0.3010 -0.4163 -0.3800
 1520WAT      O 4770   0.927   1.087   1.402 -0.3335  0.0355 -0.4108
 1520WAT     H1 4771   0.970   1.002   1.401 -0.5143 -0.0962 -2.6660
 1520WAT     H2 4772   0.995   1.148   1.373 -0.3562  0.5914  0.6620
 1521WAT      O 4773   1.898   1.337   4.663 -0.2464  0.1800  0.5303
 1521WAT     H1 4774   1.972   1.367   4.716 -0.6112  0.8214  0.6838
 1521WAT     H2 4775   1.861   1.417   4.626 -1.8114  0.0214  1.6928
 1522WAT      O 4776   2.689   4.681   3.890 -0.1947 -0.2242 -0.0011
 1522WAT     H1 4777   2.731   4.767   3.887 -1.4990  0.5413  1.8843
 1522WAT     H2 4778   2.746   4.628   3.945  0.4609 -0.5167 -0.9320
 1523WAT      O 4779   4.242   3.462   0.131 -0.0240 -0.3934  0.3320
 1523WAT     H1 4780   4.150   3.478   0.113  0.2757  0.2159 -0.7332
 1523WAT     H2 4781   4.268   3.536   0.187  0.0756  0.0508 -0.2847
 1524WAT      O 4782   0.924   4.263   4.238  0.6472  0.0766  0.0772
 1524WAT     H1 4783   0.961   4.337   4.286 -0.5829 -0.3177  1.7351
 1524WAT     H2 4784   0.850   4.234   4.292 -0.4191 -0.8150 -1.7593
 1525WAT      O 4785   0.733   3.291   5.095 -0.1598 -0.4543  0.3050
 1525WAT     H1 4786   0.704   3.373   5.054 -0.9822 -1.5469 -1.4234
 1525WAT     H2 4787   0.828   3.300   5.102 -0.3551  1.2292  1.5783
 1526WAT      O 4788   0.770   0.802   2.544  0.2545  0.0823 -0.4334
 1526WAT     H1 4789   0.769   0.893   2.514  0.6814  0.7293  1.3604
 1526WAT     H2 4790   0.859   0.771   2.526  1.5022  1.4366  2.6341
 1527WAT      O 4791   1.460   0.038   3.482 -0.0887  0.3193 -0.1659
 1527WAT     H1 4792   1.451  -0.004   3.396 -1.0976 -1.7503  0.8626
 1527WAT     H2 4793   1.370   0.052   3.511  0.2235  0.0284  0.9779
 1528WAT      O 4794   0.340   1.898   3.976 -0.3091  0.0811  0.1350
 1528WAT     H1 4795   0.310   1.984   3.946 -1.8180  0.0002  1.2880
 1528WAT     H2 4796   0.263   1.843   3.972  0.2624 -0.8051  0.9255
 1529WAT      O 4797   1.713   0.401  -0.010 -0.4153  0.0321 -0.1226
 1529WAT     H1 4798   1.633   0.400   0.042 -0.2161  0.4808  0.1962
 1529WAT     H2 4799   1.746   0.311  -0.006 -0.2312  0.1308  0.7951
 1530WAT      O 4800   0.706   1.830   1.663  0.9610 -0.5251  0.2852
 1530WAT     H1 4801   0.717   1.812   1.570 -2.5318  0.8770 -0.5714
 1530WAT     H2 4802   0.746   1.916   1.676 -1.9716  1.1989 -1.0339
 1531WAT      O 4803   3.126   1.818   4.399  0.3454  0.8343  0.1215
 1531WAT     H1 4804   3.073   1.837   4.477 -1.2113  1.6369 -1.0732
 1531WAT     H2 4805   3.176   1.898   4.385  1.6335  0.2186  1.0173
 1532WAT      O 4806   0.426   1.955   2.511 -0.2228 -0.4005 -0.1135
 1532WAT     H1 4807   0.421   1.884   2.576 -2.5002  0.2761  0.5249
 1532WAT     H2 4808   0.339   1.994   2.512  0.5289  1.4181 -1.6050
 1533WAT      O 4809   1.531   0.566   2.163  0.5531 -0.4360  0.0949
 1533WAT     H1 4810   1.448   0.605   2.135  1.4354  0.5355 -1.3456
 1533WAT     H2 4811   1.569   0.631   2.222  1.4262  0.3503 -1.2757
 1534WAT      O 4812   2.041   1.991   1.210  0.0884  0.5084  0.5285
 1534WAT     H1 4813   1.955   1.996   1.250  0.1814 -0.8181  0.9436
 1534WAT     H2 4814   2.092   1.936   1.269  0.8763  0.3442 -0.2771
 1535WAT      O 4815   2.343   3.767   5.044 -0.0636 -0.1241  0.4301
 1535WAT     H1 4816   2.278   3.706   5.079  0.6627 -1.2834 -0.1760
 1535WAT     H2 4817   2.292   3.826   4.988 -0.7958 -0.0697  1.1231
 1536WAT      O 4818   3.277   1.735   1.446 -0.4296 -0.1075 -0.5212
 1536WAT     H1 4819   3.193   1.722   1.490 -0.5869  1.4790 -0.3072
 1536WAT     H2 4820   3.312   1.647   1.436 -2.5654 -0.9225 -1.5242
 1537WAT      O 4821   0.007   4.214   3.037 -0.1432 -0.0234 -0.0797
 1537WAT     H1 4822   0.051   4.283   2.986 -1.2170  1.3641  0.7971
 1537WAT     H2 4823   0.032   4.133   2.993  3.0799  0.6834  0.2478
 1538WAT      O 4824   3.310   0.138   0.988 -0.1831  0.0209  0.4525
 1538WAT     H1 4825   3.229   0.088   0.996 -0.5700  0.5796  0.0924
 1538WAT     H2 4826   3.299   0.210   1.050 -0.3744  0.6295 -0.2707
 1539WAT      O 4827   2.502   3.045   4.849  0.2195  0.5609  0.3271
 1539WAT     H1 4828   2.491   3.118   4.911  1.4984  1.2251 -0.1903
 1539WAT     H2 4829   2.444   3.067   4.776 -1.5985 -0.4240  1.4135
 1540WAT      O 4830   2.147   2.406   5.265  0.1778  1.0328  0.0423
 1540WAT     H1 4831   2.235   2.443   5.254 -0.5606  2.5681 -1.3278
 1540WAT     H2 4832   2.110   2.453   5.340 -0.3880  2.4162 -1.0549
 1541WAT      O 4833   3.577   1.797   2.383 -0.3608 -0.2749 -0.1505
 1541WAT     H1 4834   3.581   1.745   2.302 -1.4542 -1.0435  0.2569
 1541WAT     H2 4835   3.485   1.823   2.389 -0.1153  0.4504  0.4333
 1542WAT      O 4836   4.249   1.290   1.469 -0.2097  0.1472  0.2800
 1542WAT     H1 4837   4.333   1.300   1.424 -0.2824 -0.5132 -0.0197
 1542WAT     H2 4838   4.255   1.347   1.546  1.0557 -0.9842  1.0431
 1543WAT      O 4839   0.159   3.374   3.276 -0.0882  0.1398  0.1122
 1543WAT     H1 4840   0.151   3.431   3.352  0.6084  0.0759  0.2409
 1543WAT     H2 4841   0.249   3.387   3.245 -0.9249  1.7240 -1.9367
 1544WAT      O 4842   2.396   1.827   2.961 -0.1491  0.5377  0.0479
 1544WAT     H1 4843   2.413   1.829   2.867 -0.2696  0.5993  0.0276
 1544WAT     H2 4844   2.348   1.907   2.979  1.7363  1.6259  0.5327
 1545WAT      O 4845   0.339   0.114   0.341 -0.0007  0.6361  0.2950
 1545WAT     H1 4846   0.268   0.164   0.380 -1.2690 -0.8397 -0.0254
 1545WAT     H2 4847   0.380   0.068   0.414 -0.9765 -0.4173  0.2111
 1546WAT      O 4848   0.351   2.965   2.863  0.4891  0.3903 -0.3298
 1546WAT     H1 4849   0.264   3.006   2.866  0.2259 -0.1629 -0.2683
 1546WAT     H2 4850   0.396   3.010   2.792  0.2000  0.7753 -0.2751
 1547WAT      O 4851   4.386   2.247   1.246 -0.0486 -0.4100  0.0379
 1547WAT     H1 4852   4.481   2.243   1.234  0.1367  0.6622  1.0226
 1547WAT     H2 4853   4.365   2.340   1.242 -0.9634 -0.5921  0.4349
 1548WAT      O 4854   1.766   3.064   1.557  0.6638  0.5882 -0.1922
 1548WAT     H1 4855   1.691   3.067   1.498 -0.2591  1.2408  0.9844
 1548WAT     H2 4856   1.756   2.982   1.604 -1.0606  1.9905  2.1090
 1549WAT      O 4857   4.190   2.167   3.056 -0.1364  0.6707 -0.1785
 1549WAT     H1 4858   4.100   2.193   3.078 -0.3672 -0.8358  0.8529
 1549WAT     H2 4859   4.233   2.157   3.141  0.8078  0.7139 -0.6431
 1550WAT      O 4860   3.453   0.519   1.238 -0.2632  0.1468 -0.0650
 1550WAT     H1 4861   3.534   0.537   1.190 -1.4332 -0.8228 -2.6083
 1550WAT     H2 4862   3.478   0.452   1.303  1.2871  1.1483  0.4307
 1551WAT      O 4863   3.910   1.857   5.124  0.0520 -0.1687 -0.1048
 1551WAT     H1 4864   3.995   1.820   5.147 -0.1535  0.8257  2.5219
 1551WAT     H2 4865   3.846   1.792   5.153 -0.1643 -0.5719 -1.3887
 1552WAT      O 4866   2.623   5.062   2.723  0.2104  0.5111  0.0674
 1552WAT     H1 4867   2.661   5.118   2.790 -0.8141 -1.5635  2.5184
 1552WAT     H2 4868   2.535   5.096   2.709  0.1539  0.4756  0.3471
 1553WAT      O 4869   3.808   3.465   0.662  0.3778  0.1170  0.3159
 1553WAT     H1 4870   3.751   3.508   0.599  1.5047 -0.4413 -1.1529
 1553WAT     H2 4871   3.749   3.411   0.715 -0.5334  0.0425 -0.7451
 1554WAT      O 4872   0.518   1.691   3.090  0.1370 -0.3047 -0.0247
 1554WAT     H1 4873   0.434   1.666   3.051 -0.3244 -1.0276  1.3450
 1554WAT     H2 4874   0.581   1.630   3.052 -0.1491 -0.4264 -0.3063
 1555WAT      O 4875   3.861   3.322   3.135  0.1938  0.5288  0.3157
 1555WAT     H1 4876   3.930   3.257   3.124 -0.3288  0.0133  0.0582
 1555WAT     H2 4877   3.841   3.350   3.046 -0.3846  0.2017  0.3441
 1556WAT      O 4878   0.655   2.033   2.381  0.3569 -0.4495 -0.5033
 1556WAT     H1 4879   0.570   2.068   2.405  0.7931  1.2978 -1.3250
 1556WAT     H2 4880   0.662   1.951   2.430 -1.3354 -0.1124  0.3866
 1557WAT      O 4881   4.456   4.151   1.514  0.2781 -0.4867 -0.1007
 1557WAT     H1 4882   4.535   4.112   1.476  1.0709  0.8101  0.1426
 1557WAT     H2 4883   4.418   4.202   1.443 -1.3821 -2.5116 -0.7548
 1558WAT      O 4884   2.367   4.179   0.497  0.7458  0.4469  0.0517
 1558WAT     H1 4885   2.438   4.179   0.432  1.0291 -0.6336  0.3462
 1558WAT     H2 4886   2.352   4.087   0.516 -1.8731  0.5378 -1.2159
 1559WAT      O 4887   0.351   2.379   0.419 -0.4407 -0.5245  0.2899
 1559WAT     H1 4888   0.392   2.456   0.379  0.4282 -0.7862  0.6735
 1559WAT     H2 4889   0.393   2.371   0.505 -0.1980 -1.6948  0.0775
 1560WAT      O 4890   4.235   1.779   1.931  0.0287 -0.0826 -0.6054
 1560WAT     H1 4891   4.222   1.770   1.836 -0.3762  1.3970 -0.7052
 1560WAT     H2 4892   4.281   1.862   1.941 -0.2948 -0.0289  0.5302
 1561WAT      O 4893   3.225   4.647   1.376  0.0029 -0.2608 -0.1879
 1561WAT     H1 4894   3.320   4.648   1.382  0.0711  0.8053 -1.0936
 1561WAT     H2 4895   3.199   4.565   1.418  1.3291 -0.7007 -0.1893
 1562WAT      O 4896   3.022   3.326   0.906  0.2989  0.1252  0.1139
 1562WAT     H1 4897   3.035   3.232   0.893 -0.2272 -0.0156  0.5497
 1562WAT     H2 4898   2.934   3.333   0.944  0.9209  0.6497  1.5654
 1563WAT      O 4899   1.570   3.047   0.307  0.3983  0.0470  0.1814
 1563WAT     H1 4900   1.526   3.121   0.264  0.2707 -0.7925 -1.1693
 1563WAT     H2 4901   1.641   3.023   0.247  1.1575 -0.2147  1.1541
 1564WAT      O 4902   3.430   0.969   2.947  0.2356 -0.4041  0.9027
 1564WAT     H1 4903   3.353   1.016   2.979  1.4413  2.2535  0.2545
 1564WAT     H2 4904   3.504   1.016   2.987  1.5530 -2.1861  0.6612
 1565WAT      O 4905   0.196   4.473   4.905  0.2760  0.1539  0.6531
 1565WAT     H1 4906   0.246   4.469   4.823 -0.5187  1.8142  0.0240
 1565WAT     H2 4907   0.191   4.567   4.924 -1.2205 -0.0869  1.5512
 1566WAT      O 4908   2.340   2.047   4.099  0.3165 -0.0842  0.2271
 1566WAT     H1 4909   2.354   1.960   4.060 -0.7336 -0.3618  0.4563
 1566WAT     H2 4910   2.354   2.108   4.026  0.1539 -0.5003 -0.1577
 1567WAT      O 4911   2.071   3.610   1.612  0.6151 -0.2984 -0.5152
 1567WAT     H1 4912   2.034   3.667   1.545 -1.1917  1.1473  1.5857
 1567WAT     H2 4913   2.063   3.522   1.575 -2.1095  0.2483 -1.4788
 1568WAT      O 4914   3.288   4.260   4.719  0.3056  0.3027  0.2453
 1568WAT     H1 4915   3.332   4.330   4.766  0.2248 -0.1445  1.0119
 1568WAT     H2 4916   3.346   4.239   4.645  0.3100  1.1830 -0.0068
 1569WAT      O 4917   1.171   4.628   1.031  0.1980  0.4677 -0.3627
 1569WAT     H1 4918   1.101   4.583   1.078 -0.6680  1.6590 -0.4613
 1569WAT     H2 4919   1.201   4.565   0.965  0.8458 -0.9080  1.1830
 1570WAT      O 4920   1.455   4.712   4.318  0.4774 -0.8532 -0.2720
 1570WAT     H1 4921   1.526   4.769   4.290 -1.1764  0.0545 -2.9954
 1570WAT     H2 4922   1.435   4.658   4.241  0.0570 -3.1176  1.3150
 1571WAT      O 4923   4.260   2.357   0.580  0.2064  0.0241 -0.4565
 1571WAT     H1 4924   4.224   2.271   0.601 -1.5267  0.9185  0.4978
 1571WAT     H2 4925   4.339   2.364   0.633 -0.5139 -0.3894  0.7174
 1572WAT      O 4926   3.589   3.242   2.183 -0.2946  0.1897  0.2053
 1572WAT     H1 4927   3.543   3.249   2.267 -0.6756 -1.2832  0.1468
 1572WAT     H2 4928   3.537   3.181   2.132  0.0097  0.9611 -1.0791
 1573WAT      O 4929   3.200   3.013   0.915  0.9317 -0.6618  0.2165
 1573WAT     H1 4930   3.181   2.984   0.826  1.1767 -0.9718  0.2658
 1573WAT     H2 4931   3.295   3.015   0.921  0.9186 -0.2274  0.3385
 1574WAT      O 4932   3.433   0.860   2.342  0.1193  1.1201  0.1337
 1574WAT     H1 4933   3.454   0.792   2.405  0.6251  1.5624  0.4405
 1574WAT     H2 4934   3.516   0.880   2.299 -0.1854  0.9378 -0.5707
 1575WAT      O 4935   3.404   3.044   2.838 -0.7022  0.2349  0.7492
 1575WAT     H1 4936   3.319   3.001   2.829  0.6195 -2.6243  0.8016
 1575WAT     H2 4937   3.448   2.996   2.908  1.0898  1.3933  0.4846
 1576WAT      O 4938   1.496   0.296   2.165  0.3297  0.0494  0.0381
 1576WAT     H1 4939   1.547   0.280   2.244  1.1025 -1.8463 -0.7977
 1576WAT     H2 4940   1.523   0.384   2.137  0.2497  0.6304  1.6886
 1577WAT      O 4941   1.951   3.190   2.663  0.4625  0.3127  0.0013
 1577WAT     H1 4942   2.019   3.256   2.651 -0.4271  0.8680 -2.8119
 1577WAT     H2 4943   1.934   3.157   2.575 -0.0050 -2.8331  1.1709
 1578WAT      O 4944   2.118   3.030   3.420  0.0974 -0.2092 -0.4786
 1578WAT     H1 4945   2.148   2.974   3.491  0.2733  1.7264  1.0404
 1578WAT     H2 4946   2.030   3.058   3.447 -0.2175 -0.1962 -1.4765
 1579WAT      O 4947   1.167   3.548   3.189  0.3214 -0.6361  0.5967
 1579WAT     H1 4948   1.126   3.470   3.227  0.6423 -0.2570  1.7666
 1579WAT     H2 4949   1.233   3.514   3.129 -0.8358 -1.2538 -0.3694
 1580WAT      O 4950   3.500   4.099   3.892  0.1586 -0.2485  0.2577
 1580WAT     H1 4951   3.417   4.052   3.907 -0.4742  0.7206 -0.0921
 1580WAT     H2 4952   3.521   4.138   3.977  0.4656 -0.8130  0.4440
 1581WAT      O 4953   0.496   1.721   2.363 -0.4077 -0.3472 -0.0708
 1581WAT     H1 4954   0.549   1.784   2.412 -0.0096  0.2662 -1.2772
 1581WAT     H2 4955   0.405   1.741   2.388 -0.3397  1.1839 -0.9860
 1582WAT      O 4956   4.027   3.888   2.812 -0.3501  0.6951  0.1606
 1582WAT     H1 4957   3.998   3.854   2.728 -2.6219  0.6222  0.9128
 1582WAT     H2 4958   4.025   3.813   2.871 -0.2776  1.0610  0.6438
 1583WAT      O 4959   0.806   3.811   0.386 -0.1708 -0.4696 -0.4279
 1583WAT     H1 4960   0.828   3.779   0.473 -0.4722  0.6823  0.0952
 1583WAT     H2 4961   0.767   3.736   0.341 -1.2296 -0.7347  0.8908
 1584WAT      O 4962   4.463   4.093   5.119  0.2740 -0.3891 -0.2917
 1584WAT     H1 4963   4.384   4.132   5.082  0.6891 -0.0046 -0.7839
 1584WAT     H2 4964   4.487   4.024   5.057 -0.6722 -1.7444  0.7565
 1585WAT      O 4965   1.660   1.560   1.284  0.7692 -0.5422 -0.2774
 1585WAT     H1 4966   1.652   1.552   1.189  1.8101 -1.4867 -0.3004
 1585WAT     H2 4967   1.639   1.473   1.317  0.2300 -0.1691  0.3836
 1586WAT      O 4968   1.830   2.010   3.361  0.0595 -0.2528  0.4596
 1586WAT     H1 4969   1.832   1.989   3.268  0.0965 -0.3603  0.4852
 1586WAT     H2 4970   1.805   1.928   3.404  0.7844 -0.3992  0.6110
 1587WAT      O 4971   3.690   0.575   3.796  0.1235  0.0298  0.6124
 1587WAT     H1 4972   3.745   0.612   3.866 -0.2533  1.4071  0.2173
 1587WAT     H2 4973   3.745   0.580   3.718 -0.7795  2.1702  0.0487
 1588WAT      O 4974   4.289   2.372   3.916  0.2293 -0.6442  0.6193
 1588WAT     H1 4975   4.291   2.462   3.884  1.9575 -1.1013 -0.7152
 1588WAT     H2 4976   4.358   2.328   3.867  0.9550 -2.1703  2.8934
 1589WAT      O 4977   1.142   4.257   1.587  0.2302 -0.4696  0.1969
 1589WAT     H1 4978   1.091   4.184   1.622 -0.0353 -0.5657 -0.3764
 1589WAT     H2 4979   1.199   4.284   1.659 -2.3392  1.2750  1.7716
 1590WAT      O 4980   3.958   0.579   0.516 -0.0359  0.3483  0.2010
 1590WAT     H1 4981   3.960   0.671   0.542  0.2446  0.5736 -0.5864
 1590WAT     H2 4982   3.962   0.581   0.420 -2.0089 -0.4133  0.0525
 1591WAT      O 4983   1.952   2.451   1.279 -0.5860 -0.5107 -0.1237
 1591WAT     H1 4984   1.867   2.491   1.261 -0.3119 -0.1212 -0.5786
 1591WAT     H2 4985   2.011   2.491   1.215  0.6051  1.4980  2.0766
 1592WAT      O 4986   4.201   1.148   4.147  0.5446  0.3061  0.1633
 1592WAT     H1 4987   4.253   1.228   4.152  0.7740  0.1173  1.0541
 1592WAT     H2 4988   4.125   1.172   4.094  0.5135  1.1660  0.5776
 1593WAT      O 4989   3.249   1.225   1.004 -0.5656  0.0539  0.0140
 1593WAT     H1 4990   3.307   1.228   1.080 -1.4181  1.6660  0.6577
 1593WAT     H2 4991   3.181   1.163   1.028  0.4794 -1.3215 -0.4668
 1594WAT      O 4992   4.193   1.616   4.920 -0.3827  0.0023  0.2611
 1594WAT     H1 4993   4.170   1.525   4.901 -1.5051  0.4144 -0.4464
 1594WAT     H2 4994   4.178   1.662   4.837 -2.5734  1.3374  1.3141
 1595WAT      O 4995   0.057   5.049   2.083 -0.3109  0.5622 -0.5755
 1595WAT     H1 4996  -0.020   4.993   2.076  0.5628 -0.7107 -0.3061
 1595WAT     H2 4997   0.108   5.030   2.005  0.4507  0.2729 -0.0137
 1596WAT      O 4998   1.365   0.376   1.090  0.2080 -0.1566  0.2446
 1596WAT     H1 4999   1.432   0.399   1.155 -0.5882 -0.2938  1.1428
 1596WAT     H2 5000   1.350   0.282   1.104 -0.6240  0.0080  0.4999
 1597WAT      O 5001   3.247   4.061   2.883 -0.0173  0.6416 -0.4936
 1597WAT     H1 5002   3.244   4.142   2.832  1.1797  0.7772 -0.3870
 1597WAT     H2 5003   3.334   4.062   2.924  0.7234 -1.4898 -1.8144
 1598WAT      O 5004   1.865   0.416   2.149  0.5865  0.0610  0.4209
 1598WAT     H1 5005   1.847   0.502   2.110 -1.3927 -0.1125  0.8308
 1598WAT     H2 5006   1.829   0.423   2.238  0.4503 -1.1781  0.4780
 1599WAT      O 5007   0.354   4.168   4.389  0.9891 -0.5982  0.2133
 1599WAT     H1 5008   0.354   4.178   4.484 -1.5282 -0.4803  0.2568
 1599WAT     H2 5009   0.325   4.253   4.356  2.2250 -0.5079 -0.7094
 1600WAT      O 5010   2.238   0.598   0.765  0.2550  0.3502  0.2683
 1600WAT     H1 5011   2.243   0.632   0.854  0.1246 -0.2382  0.5049
 1600WAT     H2 5012   2.163   0.538   0.766  1.5178 -1.3157  0.3433
 1601WAT      O 5013   3.174   2.590   2.363 -0.4390 -0.4556 -0.3661
 1601WAT     H1 5014   3.106   2.557   2.304 -0.4591 -1.4967  0.2030
 1601WAT     H2 5015   3.136   2.668   2.403 -0.7638 -0.2488 -1.0636
 1602WAT      O 5016   0.168   2.635   4.482  0.3586  0.1789 -0.1592
 1602WAT     H1 5017   0.234   2.696   4.448 -0.0471  0.5746 -0.2473
 1602WAT     H2 5018   0.194   2.549   4.448  1.0658  0.2603  0.1569
 1603WAT      O 5019   0.305   2.136   3.362 -0.4578  0.2894  0.4825
 1603WAT     H1 5020   0.361   2.089   3.300  1.0310  0.1510  1.8716
 1603WAT     H2 5021   0.306   2.226   3.332 -1.6748 -0.1493 -1.0185
 1604WAT      O 5022   3.029   0.226   1.050 -0.1861  0.6497  0.6114
 1604WAT     H1 5023   3.053   0.134   1.046 -1.7550  0.2500 -0.2327
 1604WAT     H2 5024   3.106   0.269   1.088  2.5282 -0.2864 -3.2386
 1605WAT      O 5025   3.606   2.300   3.955 -0.4056  0.5484  0.0894
 1605WAT     H1 5026   3.576   2.210   3.966  0.5130  0.2384  0.1451
 1605WAT     H2 5027   3.543   2.353   4.004 -0.9056 -0.0685  0.1209
 1606WAT      O 5028   1.605   3.551   1.814 -0.0878 -0.0971 -0.1604
 1606WAT     H1 5029   1.695   3.557   1.845  0.2128  0.2534 -1.0530
 1606WAT     H2 5030   1.613   3.548   1.718 -0.8666 -2.8446 -0.2340
 1607WAT      O 5031   3.546   4.150   2.568  0.2228 -0.0512 -0.1638
 1607WAT     H1 5032   3.598   4.149   2.649  1.0412 -0.5369 -0.6818
 1607WAT     H2 5033   3.493   4.230   2.575  1.6983  0.9717 -0.0089
 1608WAT      O 5034   2.361   2.064   0.107 -0.1097 -0.3516  0.0703
 1608WAT     H1 5035   2.425   2.127   0.140 -0.5891 -0.6610  1.7259
 1608WAT     H2 5036   2.336   2.097   0.021 -0.9409  2.2267  1.1791
 1609WAT      O 5037   0.135   2.306   1.187 -0.0118 -0.4007  0.0096
 1609WAT     H1 5038   0.208   2.245   1.198  0.5324  0.1917 -0.2426
 1609WAT     H2 5039   0.130   2.322   1.093 -0.0424  0.0669  0.0884
 1610WAT      O 5040   3.137   1.429   4.605 -0.4787 -0.6873  0.2688
 1610WAT     H1 5041   3.168   1.490   4.672 -1.3636 -1.6036  1.5588
 1610WAT     H2 5042   3.161   1.343   4.638 -2.1314 -1.2532  0.0960
 1611WAT      O 5043   0.702   4.695   4.823  0.3646  0.0879 -0.1464
 1611WAT     H1 5044   0.712   4.766   4.886  0.7422  0.7509 -0.9349
 1611WAT     H2 5045   0.678   4.738   4.741 -0.3512 -0.7807 -0.4071
 1612WAT      O 5046   0.907   2.928   4.181  0.1651 -0.1890 -0.5809
 1612WAT     H1 5047   0.988   2.973   4.204 -0.3750  0.4013  0.2242
 1612WAT     H2 5048   0.874   2.894   4.265 -1.8770  2.0449 -0.3786
 1613WAT      O 5049   4.159   0.984   2.298 -0.2593  0.0362  0.4963
 1613WAT     H1 5050   4.089   1.027   2.248 -1.3224 -1.6282  0.4479
 1613WAT     H2 5051   4.229   0.971   2.235 -0.9745 -0.6367 -0.1910
 1614WAT      O 5052   4.145   3.680   2.226  0.3330 -0.0666  0.0990
 1614WAT     H1 5053   4.073   3.740   2.246 -0.5714 -0.7516 -0.9614
 1614WAT     H2 5054   4.167   3.698   2.135  0.7959 -0.5950  0.0953
 1615WAT      O 5055   3.097   3.110   3.869  0.5186 -0.1066  0.1817
 1615WAT     H1 5056   3.153   3.182   3.899  1.3753 -0.3115 -0.8605
 1615WAT     H2 5057   3.091   3.052   3.945  1.2886  0.1904  0.4886
 1616WAT      O 5058   4.154   2.784   0.267  0.0611 -0.1054 -0.0140
 1616WAT     H1 5059   4.128   2.716   0.330  0.3048  2.5675  3.2757
 1616WAT     H2 5060   4.248   2.796   0.283 -0.1837  1.6816  0.2614
 1617WAT      O 5061   0.174   4.392   0.491  0.1427 -0.6808  0.3555
 1617WAT     H1 5062   0.113   4.335   0.444  0.7216 -0.4653 -0.6772
 1617WAT     H2 5063   0.256   4.386   0.442 -0.0535  1.8214 -0.4212
 1618WAT      O 5064   4.208   3.262   1.261 -0.0310  0.2584 -0.2308
 1618WAT     H1 5065   4.222   3.174   1.226  0.0978  0.4370 -0.6313
 1618WAT     H2 5066   4.120   3.286   1.230  0.0718  0.4055 -0.4104
 1619WAT      O 5067   0.170   0.455   1.765  0.1684 -0.6059 -0.0916
 1619WAT     H1 5068   0.131   0.473   1.680  1.8548 -0.2758 -0.8302
 1619WAT     H2 5069   0.217   0.535   1.788  0.1943 -0.8892  0.9125
 1620WAT      O 5070   2.342   2.590   2.058  0.0628  0.5452 -0.1814
 1620WAT     H1 5071   2.380   2.565   2.143  0.5191 -0.5798 -0.6928
 1620WAT     H2 5072   2.368   2.681   2.046  2.0030  0.0338 -0.1680
 1621WAT      O 5073   3.819   2.205   2.101 -0.2461 -0.5892 -0.1956
 1621WAT     H1 5074   3.780   2.285   2.135  0.2353 -0.8405  1.0157
 1621WAT     H2 5075   3.780   2.135   2.155  1.1683 -0.9194  0.4426
 1622WAT      O 5076   0.548   3.649   1.006  0.0561  0.0634  0.1204
 1622WAT     H1 5077   0.498   3.650   1.088 -0.2643 -0.2877 -0.0711
 1622WAT     H2 5078   0.582   3.560   1.000 -0.5427 -0.1337 -0.5033
 1623WAT      O 5079   4.106   2.144   3.796  0.1295 -0.0431  0.1338
 1623WAT     H1 5080   4.085   2.125   3.887  1.8863 -1.5109  0.3019
 1623WAT     H2 5081   4.085   2.236   3.785  1.4303  0.6244  2.5312
 1624WAT      O 5082   2.010   1.107   1.564 -0.0203 -0.3302  0.0432
 1624WAT     H1 5083   1.978   1.196   1.550 -0.4974 -0.6687 -1.0897
 1624WAT     H2 5084   2.017   1.099   1.659  0.7572  1.1705  0.1418
 1625WAT      O 5085   1.951   3.913   4.494  0.1385 -0.5417 -0.5099
 1625WAT     H1 5086   2.028   3.858   4.505  0.4358 -0.2318 -0.9953
 1625WAT     H2 5087   1.909   3.880   4.415  0.9439  0.6413 -1.4626
 1626WAT      O 5088   2.859   0.999   1.731  0.1567 -0.0701 -0.1818
 1626WAT     H1 5089   2.770   0.999   1.698  0.0981  1.1862 -0.0547
 1626WAT     H2 5090   2.851   0.968   1.822  0.3841 -4.0944 -1.3454
 1627WAT      O 5091   4.217   4.340   2.048  0.5582  0.8373 -0.1620
 1627WAT     H1 5092   4.214   4.338   1.952  0.7102 -0.2325 -0.1584
 1627WAT     H2 5093   4.310   4.350   2.069  0.4500  1.8516 -0.1191
 1628WAT      O 5094   2.341   2.511   0.929 -0.4199  0.4944 -0.1426
 1628WAT     H1 5095   2.343   2.419   0.900 -1.0011 -0.0326  1.4038
 1628WAT     H2 5096   2.317   2.506   1.021  0.9274  2.1454  0.3222
 1629WAT      O 5097   3.720   1.536   0.037  0.2575  0.1050 -0.2140
 1629WAT     H1 5098   3.673   1.579  -0.034 -1.1284  0.9790  1.1884
 1629WAT     H2 5099   3.688   1.446   0.036  0.5787 -0.0083 -0.9603
 1630WAT      O 5100   1.123   0.336   1.487 -0.1405  0.5049 -0.0843
 1630WAT     H1 5101   1.057   0.271   1.513  0.0680  0.4164  0.2345
 1630WAT     H2 5102   1.082   0.385   1.416  0.0386 -0.5633 -0.9485
 1631WAT      O 5103   1.729   1.179   0.218 -0.0567 -0.2358  0.0834
 1631WAT     H1 5104   1.804   1.230   0.188  0.4082  0.0017  1.5619
 1631WAT     H2 5105   1.759   1.088   0.217 -1.0539 -0.6546 -3.0649
 1632WAT      O 5106   0.935   0.464   3.647  0.6279  0.5525 -0.0663
 1632WAT     H1 5107   0.998   0.406   3.606 -1.0617 -1.6896  0.3517
 1632WAT     H2 5108   0.956   0.461   3.740 -0.6494 -1.0371  0.2146
 1633WAT      O 5109   3.489   4.223   4.150 -0.2438 -0.3039 -0.1433
 1633WAT     H1 5110   3.412   4.255   4.101  1.5509  3.1688 -1.0586
 1633WAT     H2 5111   3.493   4.280   4.227  1.7535  0.1192 -0.5060
 1634WAT      O 5112   0.802   0.051   2.111 -0.3260 -0.2124  0.6688
 1634WAT     H1 5113   0.792  -0.006   2.035 -0.4685  0.5086  0.1331
 1634WAT     H2 5114   0.724   0.107   2.109 -0.8603 -0.8744  1.9527
 1635WAT      O 5115   2.691   0.190   3.389 -0.0718 -0.0808 -0.3421
 1635WAT     H1 5116   2.691   0.105   3.432 -1.6315  0.5479  1.0133
 1635WAT     H2 5117   2.724   0.251   3.454  2.5121  0.2059 -1.7988
 1636WAT      O 5118   2.952   2.543   0.984  0.4272 -0.3949  0.1417
 1636WAT     H1 5119   2.913   2.512   1.066  1.3873  0.3760  0.9203
 1636WAT     H2 5120   2.934   2.637   0.984  1.4733 -0.1830  0.0678
 1637WAT      O 5121   4.414   1.228   0.348  0.5760 -0.0616 -0.2662
 1637WAT     H1 5122   4.369   1.312   0.337  1.8227  0.5316 -1.2093
 1637WAT     H2 5123   4.407   1.209   0.441 -1.8036 -0.1468 -0.4032
 1638WAT      O 5124   1.848   2.650   0.771 -0.2343 -0.5054 -0.3487
 1638WAT     H1 5125   1.777   2.593   0.800  0.0846 -1.9357 -2.1862
 1638WAT     H2 5126   1.923   2.591   0.759  0.2369  0.3391 -1.8919
 1639WAT      O 5127   1.406   4.985   4.817 -0.4382 -0.2698 -0.1516
 1639WAT     H1 5128   1.334   5.004   4.876 -0.1298 -0.4632  0.2897
 1639WAT     H2 5129   1.483   4.976   4.874 -0.3095 -1.4075 -0.4653
 1640WAT      O 5130   0.528   3.884   2.179  0.6140 -0.1135 -0.2406
 1640WAT     H1 5131   0.534   3.974   2.212 -3.9312 -0.2322  1.5550
 1640WAT     H2 5132   0.533   3.830   2.258  0.3676 -1.2577 -0.9919
 1641WAT      O 5133   2.809   4.634   4.147  0.3348 -0.1275  0.2085
 1641WAT     H1 5134   2.852   4.550   4.129 -0.9124 -1.1089  1.5968
 1641WAT     H2 5135   2.867   4.677   4.210  0.5229 -0.3528  0.1940
 1642WAT      O 5136   0.201   2.574   1.838  0.1097  0.3274  0.2618
 1642WAT     H1 5137   0.280   2.576   1.891  0.0390  0.8484  0.3540
 1642WAT     H2 5138   0.232   2.593   1.749  0.2775 -0.9019  0.0384
 1643WAT      O 5139   3.472   2.057   0.765  0.0955  0.0377 -0.2975
 1643WAT     H1 5140   3.481   1.963   0.780  0.9005 -0.2835 -2.3890
 1643WAT     H2 5141   3.397   2.064   0.706 -0.0357  0.7217 -0.0547
 1644WAT      O 5142   1.391   1.328   2.839  0.0186  0.9032 -0.2727
 1644WAT     H1 5143   1.341   1.333   2.921 -1.7641 -0.0285 -1.2542
 1644WAT     H2 5144   1.413   1.236   2.830 -0.2371  0.9177 -1.0907
 1645WAT      O 5145   3.909   1.640   3.793  0.0298 -0.2301 -0.4281
 1645WAT     H1 5146   3.949   1.724   3.817 -0.5130 -0.2488  0.5836
 1645WAT     H2 5147   3.837   1.664   3.735  0.1486 -0.0321 -0.4959
 1646WAT      O 5148   0.580   0.817   0.115 -0.1291 -0.0309  0.5150
 1646WAT     H1 5149   0.576   0.723   0.132 -0.8908 -0.2058 -0.5046
 1646WAT     H2 5150   0.601   0.856   0.199 -0.5703 -1.0627  1.1261
 1647WAT      O 5151   2.345   1.328   1.363  0.2679  0.4812  0.2446
 1647WAT     H1 5152   2.309   1.248   1.402 -1.9467  1.6265  0.7332
 1647WAT     H2 5153   2.338   1.313   1.269  0.1120 -0.0125  0.3297
 1648WAT      O 5154   3.870   0.774   2.838 -0.1672  0.2496 -0.0260
 1648WAT     H1 5155   3.855   0.830   2.914  0.0878 -0.1298  0.3127
 1648WAT     H2 5156   3.854   0.685   2.871  0.1827  0.0622 -0.3494
 1649WAT      O 5157   2.746   4.399   0.326  0.3070 -0.6556  0.1102
 1649WAT     H1 5158   2.827   4.411   0.276  0.8205 -2.2475  0.5043
 1649WAT     H2 5159   2.684   4.362   0.263  0.1760 -0.3246  0.0431
 1650WAT      O 5160   0.942   0.129   1.519 -0.2672 -0.5319  0.7975
 1650WAT     H1 5161   0.883   0.156   1.447 -0.7894  0.7678  1.6742
 1650WAT     H2 5162   0.900   0.051   1.556 -1.1459  0.0410  1.0411
 1651WAT      O 5163   1.865   3.593   1.926 -0.2457 -0.5159 -0.2969
 1651WAT     H1 5164   1.904   3.530   1.866 -0.4266 -0.0629 -0.8984
 1651WAT     H2 5165   1.880   3.556   2.013 -0.6011 -1.5234 -0.6568
 1652WAT      O 5166   1.593   3.100   2.753 -0.1109  0.3696 -0.5427
 1652WAT     H1 5167   1.571   3.049   2.675  0.0320  0.5585 -0.7064
 1652WAT     H2 5168   1.683   3.130   2.738 -0.3253  0.9926 -0.6239
 1653WAT      O 5169   2.664   2.243   3.052 -0.2803  0.4163 -0.0085
 1653WAT     H1 5170   2.607   2.237   3.129  0.2873  0.1915  0.3960
 1653WAT     H2 5171   2.604   2.232   2.978 -0.5712 -1.4701  0.4440
 1654WAT      O 5172   3.964   1.393   2.295  0.3850  0.0127  0.0578
 1654WAT     H1 5173   3.923   1.475   2.269  1.5600  0.6229  0.0313
 1654WAT     H2 5174   4.035   1.381   2.231  0.3771 -0.8897  0.2136
 1655WAT      O 5175   0.677   0.384   5.085  0.1237  0.4680 -0.5352
 1655WAT     H1 5176   0.717   0.408   5.001 -0.7159 -0.4879 -1.2378
 1655WAT     H2 5177   0.674   0.289   5.083  1.6228  0.3194  1.3377
 1656WAT      O 5178   1.669   4.099   3.097  0.4598  0.1294  0.0002
 1656WAT     H1 5179   1.607   4.059   3.158 -1.2011 -0.3066 -1.8938
 1656WAT     H2 5180   1.629   4.088   3.011  2.5021  1.1482 -1.1504
 1657WAT      O 5181   3.226   0.350   4.538  0.2989  0.1852  0.1265
 1657WAT     H1 5182   3.282   0.425   4.554 -0.2585  1.0453 -1.5955
 1657WAT     H2 5183   3.144   0.388   4.507 -0.3453 -1.1148  0.1501
 1658WAT      O 5184   4.404   0.428   1.992  0.1629 -0.8955 -0.1082
 1658WAT     H1 5185   4.476   0.366   1.979  0.4538 -0.9240  1.4276
 1658WAT     H2 5186   4.376   0.450   1.904  0.4475 -2.7512 -0.7142
 1659WAT      O 5187   1.422   4.288   3.448 -0.3500 -0.1339 -0.0694
 1659WAT     H1 5188   1.368   4.242   3.384 -2.4446 -0.3603  1.7435
 1659WAT     H2 5189   1.468   4.219   3.496  1.0765  0.0273 -1.1380
 1660WAT      O 5190   3.875   3.585   4.756 -0.1788  0.6520 -0.4861
 1660WAT     H1 5191   3.840   3.503   4.791  1.3516 -0.1553 -0.7348
 1660WAT     H2 5192   3.801   3.645   4.756 -0.9092 -0.1629  1.4702
 1661WAT      O 5193   3.291   4.801   5.196 -0.1185  0.4152  0.1806
 1661WAT     H1 5194   3.380   4.791   5.230  0.0124 -0.9637 -0.5050
 1661WAT     H2 5195   3.300   4.864   5.124 -0.0301  1.6667  1.2508
 1662WAT      O 5196   3.708   3.930   1.062 -0.2804  0.0660 -0.3066
 1662WAT     H1 5197   3.783   3.936   1.120  0.8143 -1.3782 -1.4869
 1662WAT     H2 5198   3.743   3.951   0.975 -1.1470 -0.9860 -0.9393
 1663WAT      O 5199   3.880   4.212   0.581  0.0557  0.2225  0.5397
 1663WAT     H1 5200   3.945   4.204   0.651 -0.8287 -0.5945  1.3093
 1663WAT     H2 5201   3.902   4.143   0.519 -0.1225 -0.1223  0.8540
 1664WAT      O 5202   3.739   2.415   4.356  0.2687  0.2397 -0.4807
 1664WAT     H1 5203   3.753   2.371   4.272 -1.4685 -0.7711 -0.2942
 1664WAT     H2 5204   3.788   2.496   4.349  1.8137 -0.7416 -1.6822
 1665WAT      O 5205   1.023   4.020   5.173  0.3029 -0.7741  0.3343
 1665WAT     H1 5206   1.069   3.970   5.106 -0.7167 -1.6398  0.2500
 1665WAT     H2 5207   1.022   4.110   5.140  1.0395 -0.9289 -0.1259
 1666WAT      O 5208   3.396   3.615   5.260  0.6361 -0.5423 -0.1999
 1666WAT     H1 5209   3.306   3.621   5.227  0.3313 -2.1558  0.2328
 1666WAT     H2 5210   3.431   3.704   5.251 -1.0637  0.1683 -0.1887
 1667WAT      O 5211   1.417   1.638   2.899 -0.1404 -0.0927  0.1900
 1667WAT     H1 5212   1.396   1.596   2.815  2.4357  0.8617 -1.0437
 1667WAT     H2 5213   1.466   1.571   2.947 -2.1166 -0.8467  1.2733
 1668WAT      O 5214   3.007   0.139   2.116 -0.1056  0.1230  0.1480
 1668WAT     H1 5215   3.046   0.071   2.060 -3.0518 -1.5298 -0.0771
 1668WAT     H2 5216   2.954   0.191   2.056 -1.5512 -0.2993  1.0260
 1669WAT      O 5217   2.269   2.477   1.172 -0.1920 -0.2394 -0.1718
 1669WAT     H1 5218   2.227   2.395   1.197 -1.0932 -0.0287 -0.9001
 1669WAT     H2 5219   2.256   2.535   1.248  1.8474 -1.2083  0.9977
 1670WAT      O 5220   4.308   4.283   0.989 -0.0182  0.3499 -0.5695
 1670WAT     H1 5221   4.369   4.225   0.942  0.1452 -0.3564  0.4689
 1670WAT     H2 5222   4.225   4.235   0.988 -0.2254  0.7167 -0.8627
 1671WAT      O 5223   1.895   2.615   5.029 -0.1980  0.4362  0.4612
 1671WAT     H1 5224   1.846   2.629   5.110  1.6931 -3.0364  2.4605
 1671WAT     H2 5225   1.835   2.565   4.973 -0.2953 -0.4282  1.3058
 1672WAT      O 5226   1.886   4.305   3.621  0.2915  0.2153 -0.4889
 1672WAT     H1 5227   1.881   4.256   3.540 -1.3049  0.7152 -0.7280
 1672WAT     H2 5228   1.840   4.251   3.685 -1.2966  1.2136 -0.7067
 1673WAT      O 5229   2.852   4.372   1.497 -0.2629 -0.1769  0.1241
 1673WAT     H1 5230   2.895   4.434   1.437 -1.2620  0.7287  0.3209
 1673WAT     H2 5231   2.891   4.390   1.582  0.6566 -0.9903 -0.1062
 1674WAT      O 5232   0.336   4.596   4.126  0.1196 -0.0889  0.0281
 1674WAT     H1 5233   0.429   4.592   4.107 -0.1423 -0.3801 -1.3196
 1674WAT     H2 5234   0.294   4.567   4.044 -1.0721 -2.9913  1.5000
 1675WAT      O 5235   2.385   3.100   1.249  0.0752 -0.7569  0.3552
 1675WAT     H1 5236   2.391   3.016   1.295 -0.6337 -1.4187 -0.7366
 1675WAT     H2 5237   2.330   3.082   1.173 -1.0927  0.9746  0.7329
 1676WAT      O 5238   0.913   2.494   5.166 -0.4633  0.2043 -0.2385
 1676WAT     H1 5239   0.910   2.488   5.071 -0.9784  0.5299 -0.2450
 1676WAT     H2 5240   0.822   2.490   5.194 -0.2508 -1.0532  0.3281
 1677WAT      O 5241   2.355   3.547   2.537  1.2007 -0.1040 -0.9975
 1677WAT     H1 5242   2.382   3.518   2.624 -0.9150 -3.5077 -1.2735
 1677WAT     H2 5243   2.431   3.533   2.481  1.2896 -2.1838 -0.4338
 1678WAT      O 5244   1.711   0.835   3.616 -0.1297  0.6217  0.1959
 1678WAT     H1 5245   1.617   0.852   3.605 -0.4722 -2.0215 -1.9348
 1678WAT     H2 5246   1.717   0.783   3.696 -0.7133 -0.5471 -0.4996
 1679WAT      O 5247   1.032   1.931   1.331  0.2319 -0.3124  0.4031
 1679WAT     H1 5248   1.082   2.007   1.301 -0.2427 -0.3126 -0.4048
 1679WAT     H2 5249   1.087   1.856   1.306  0.1295 -0.2836  0.0789
 1680WAT      O 5250   1.354   2.742   3.109 -0.3019 -0.3558  0.2336
 1680WAT     H1 5251   1.334   2.749   3.202 -1.3843 -0.0745  0.0010
 1680WAT     H2 5252   1.429   2.798   3.095 -1.0763  0.8268  0.6770
 1681WAT      O 5253   4.074   2.910   1.787  0.3431  0.1955 -0.1926
 1681WAT     H1 5254   3.995   2.891   1.837  1.2414 -3.0798  0.2268
 1681WAT     H2 5255   4.113   2.986   1.831 -0.6445 -0.4747  1.9965
 1682WAT      O 5256   3.056   1.238   1.824  0.2490 -0.2179 -0.2598
 1682WAT     H1 5257   2.996   1.163   1.817  2.0479 -1.7325 -0.2962
 1682WAT     H2 5258   3.119   1.225   1.753  1.9799 -0.0072  1.1686
 1683WAT      O 5259   3.442   2.262   2.829  0.0948  0.3646  0.3369
 1683WAT     H1 5260   3.405   2.176   2.851  0.6990 -0.1138 -0.4746
 1683WAT     H2 5261   3.389   2.324   2.879 -1.3915 -0.3478 -0.2706
 1684WAT      O 5262   0.527   0.065   5.088 -0.2019  0.4413  0.5935
 1684WAT     H1 5263   0.567   0.077   5.002 -1.6699  3.0035  0.1585
 1684WAT     H2 5264   0.447   0.117   5.085 -1.1412 -0.6839  2.9933
 1685WAT      O 5265   3.680   1.293   4.495 -0.4682 -0.0693  0.6945
 1685WAT     H1 5266   3.733   1.227   4.451 -1.0468 -1.1531  1.5939
 1685WAT     H2 5267   3.698   1.280   4.589  0.3608  1.8575  0.8455
 1686WAT      O 5268   3.547   0.406   4.781 -0.3857 -0.2377 -0.3062
 1686WAT     H1 5269   3.477   0.361   4.829 -1.1423 -1.3625 -2.3191
 1686WAT     H2 5270   3.543   0.369   4.693  0.0910  2.6199 -1.6419
 1687WAT      O 5271   4.071   0.797   1.152  0.2732  0.6005  0.4878
 1687WAT     H1 5272   4.105   0.886   1.151 -1.1240  1.1783  1.0512
 1687WAT     H2 5273   4.006   0.797   1.222 -0.6886 -0.5015 -0.3571
 1688WAT      O 5274   0.778   1.745   1.405  0.0792  0.3126 -0.3419
 1688WAT     H1 5275   0.810   1.801   1.335 -1.0435  1.1478 -0.2275
 1688WAT     H2 5276   0.838   1.670   1.406 -0.2079 -0.0182 -2.5640
 1689WAT      O 5277   3.315   3.439   2.939  0.0532  0.1158 -0.1803
 1689WAT     H1 5278   3.254   3.474   3.004 -0.5236 -1.0104 -0.0816
 1689WAT     H2 5279   3.367   3.375   2.988  0.6416  0.3501 -0.4948
 1690WAT      O 5280   3.099   1.005   4.862  0.6945 -0.2639 -0.1122
 1690WAT     H1 5281   3.080   0.912   4.847  0.0346 -0.1966  0.2869
 1690WAT     H2 5282   3.123   1.009   4.955  3.1059 -0.4123 -0.6669
 1691WAT      O 5283   2.534   1.450   3.942  0.0585  0.3399  0.5005
 1691WAT     H1 5284   2.515   1.521   4.004  0.1584  0.6872  0.1426
 1691WAT     H2 5285   2.517   1.489   3.856 -1.3964 -0.5364  0.3532
 1692WAT      O 5286   0.303   1.551   4.241 -0.3078 -0.0050  0.2480
 1692WAT     H1 5287   0.250   1.629   4.225  0.6559  0.5989 -0.0905
 1692WAT     H2 5288   0.276   1.489   4.173  1.0501  1.1527 -1.4353
 1693WAT      O 5289   1.710   3.388   0.880 -0.1505  0.1745  0.3591
 1693WAT     H1 5290   1.751   3.441   0.812  0.6894 -2.2737 -1.2134
 1693WAT     H2 5291   1.780   3.369   0.942 -0.4246  0.8273  0.8706
 1694WAT      O 5292   0.753   4.361   0.982  0.1907 -0.0837 -0.3159
 1694WAT     H1 5293   0.705   4.443   0.972  2.1131  0.9936 -1.1770
 1694WAT     H2 5294   0.796   4.348   0.898  0.6981 -1.4698  0.1382
 1695WAT      O 5295   3.855   2.499   0.346  0.0994 -0.0784 -0.3222
 1695WAT     H1 5296   3.857   2.532   0.256 -2.1927  1.3699  0.0804
 1695WAT     H2 5297   3.802   2.420   0.342 -0.9846  0.6159 -0.1080
 1696WAT      O 5298   1.544   4.757   2.921 -0.1963 -0.0783 -0.2580
 1696WAT     H1 5299   1.491   4.684   2.953 -2.0853  1.5151  0.4633
 1696WAT     H2 5300   1.487   4.803   2.859 -0.2847  2.4742  1.5493
 1697WAT      O 5301   2.479   0.083   0.666 -0.2355  0.3395 -0.0427
 1697WAT     H1 5302   2.425   0.120   0.597 -0.2901 -0.7461 -0.6085
 1697WAT     H2 5303   2.432   0.104   0.747  0.7316  3.1794 -0.1231
 1698WAT      O 5304   2.002   2.044   2.822  0.1264  0.3106 -0.5499
 1698WAT     H1 5305   2.086   2.052   2.868 -0.7611  0.3447  1.1474
 1698WAT     H2 5306   2.015   1.972   2.760  1.1960 -0.1451  0.1777
 1699WAT      O 5307   2.933   0.177   0.038  0.0677 -0.0300 -0.0461
 1699WAT     H1 5308   2.995   0.170   0.110  0.7465  0.1440 -0.5951
 1699WAT     H2 5309   2.908   0.087   0.018 -0.2916 -0.0613  0.5460
 1700WAT      O 5310   0.045   0.471   2.577 -0.0259  0.4964  0.7193
 1700WAT     H1 5311  -0.044   0.436   2.576  0.4900 -0.8972  1.3985
 1700WAT     H2 5312   0.069   0.479   2.485 -0.8117  0.8136  0.5306
 1701WAT      O 5313   2.141   0.969   4.257  0.1768 -0.2776 -0.3786
 1701WAT     H1 5314   2.081   1.027   4.305  0.0852  1.2465 -2.2461
 1701WAT     H2 5315   2.224   0.976   4.305 -0.9269 -2.1505  2.0398
 1702WAT      O 5316   1.561   2.715   1.871  0.1789  0.4912  0.0085
 1702WAT     H1 5317   1.557   2.640   1.931 -0.8936 -0.7600 -1.5689
 1702WAT     H2 5318   1.599   2.786   1.924 -0.6091 -0.5915  2.1086
 1703WAT      O 5319   2.269   0.379   1.395 -0.1473 -0.1744 -0.2338
 1703WAT     H1 5320   2.316   0.455   1.430  1.4040 -1.6303  1.0425
 1703WAT     H2 5321   2.176   0.399   1.409  0.2998  0.0894  3.3985
 1704WAT      O 5322   3.246   3.793   2.297  0.6210 -0.2992  0.0180
 1704WAT     H1 5323   3.314   3.848   2.337  1.7383 -0.6790 -1.2764
 1704WAT     H2 5324   3.249   3.711   2.346 -0.3104  0.3875  1.2629
 1705WAT      O 5325   1.419   4.551   3.027 -0.0949 -0.2576  0.2191
 1705WAT     H1 5326   1.498   4.504   3.049 -0.4703 -1.8773 -1.6417
 1705WAT     H2 5327   1.378   4.499   2.958 -2.8193  0.4800  1.1440
 1706WAT      O 5328   1.936   1.565   0.230  0.2467 -0.0401  0.2538
 1706WAT     H1 5329   1.957   1.657   0.246 -1.2098  0.6130 -1.2686
 1706WAT     H2 5330   1.904   1.532   0.314 -3.2665  2.0896 -0.0544
 1707WAT      O 5331   2.592   1.726   1.915 -0.2541  0.3766  0.2611
 1707WAT     H1 5332   2.663   1.785   1.940 -1.5721  1.5130  1.4942
 1707WAT     H2 5333   2.550   1.769   1.841  0.2357 -0.2496 -0.4049
 1708WAT      O 5334   1.567   4.886   1.143 -0.5737  0.0480 -0.2185
 1708WAT     H1 5335   1.582   4.944   1.068 -0.9695 -0.8008 -0.9783
 1708WAT     H2 5336   1.482   4.845   1.124 -1.3745  0.8687  1.4017
 1709WAT      O 5337   2.364   0.310   0.241 -0.1847 -0.3794  0.0378
 1709WAT     H1 5338   2.362   0.292   0.147  0.1522 -2.1010  0.3142
 1709WAT     H2 5339   2.457   0.309   0.264 -0.3292 -1.5818  0.6347
 1710WAT      O 5340   2.404   1.296   0.552  0.2327  0.1139  0.1519
 1710WAT     H1 5341   2.388   1.248   0.471 -0.3006 -1.6967  1.2854
 1710WAT     H2 5342   2.480   1.253   0.591  0.3018  0.7673  0.7577
 1711WAT      O 5343   4.181   4.151   4.112 -0.3470  0.5970  0.0816
 1711WAT     H1 5344   4.113   4.101   4.158  0.3810  0.6875  1.2838
 1711WAT     H2 5345   4.142   4.238   4.100 -0.8730  0.3202 -0.2781
 1712WAT      O 5346   2.502   2.143   2.127  0.5587 -0.4306 -0.4114
 1712WAT     H1 5347   2.458   2.185   2.201 -1.7093 -0.5765 -1.5943
 1712WAT     H2 5348   2.547   2.068   2.165  0.4807  0.2077  0.9992
 1713WAT      O 5349   3.474   4.535   4.017 -0.1774  0.0337 -0.9780
 1713WAT     H1 5350   3.406   4.470   4.002 -0.7805  0.2596  0.5929
 1713WAT     H2 5351   3.427   4.613   4.046  0.7404  0.1616  0.2496
 1714WAT      O 5352   0.303   0.737   4.682 -0.0050  0.1109 -0.8221
 1714WAT     H1 5353   0.388   0.713   4.644  0.5404  1.3872 -0.4621
 1714WAT     H2 5354   0.302   0.833   4.681 -0.1157  0.2208  1.9460
 1715WAT      O 5355   1.581   0.302   0.492  0.3222 -0.2965  0.4691
 1715WAT     H1 5356   1.601   0.361   0.565  1.3358  1.0534 -0.8559
 1715WAT     H2 5357   1.651   0.238   0.494  1.5939  0.9987 -0.5809
 1716WAT      O 5358   1.098   0.308   1.886  0.0694 -0.2613  0.1395
 1716WAT     H1 5359   1.164   0.277   1.824  2.7213 -2.4078  3.6529
 1716WAT     H2 5360   1.126   0.398   1.907 -0.1265  0.0274 -0.7784
 1717WAT      O 5361   2.188   3.942   4.916  0.6994 -0.3728 -0.5979
 1717WAT     H1 5362   2.097   3.944   4.887  0.4624 -0.2754  0.1122
 1717WAT     H2 5363   2.222   4.029   4.893  0.0098  0.3535  0.9121
 1718WAT      O 5364   2.106   2.311   1.904 -0.0483  0.2717 -0.6224
 1718WAT     H1 5365   2.018   2.338   1.880  0.3728  0.4952 -2.0239
 1718WAT     H2 5366   2.095   2.256   1.981 -1.5210 -0.6788 -1.4809
 1719WAT      O 5367   2.072   2.079   2.035 -0.2240 -0.2475 -0.3096
 1719WAT     H1 5368   2.053   2.023   2.110  1.1136 -0.3561 -0.0408
 1719WAT     H2 5369   2.153   2.045   1.999 -0.0421  0.7621 -0.8849
 1720WAT      O 5370   2.911   0.594   0.481  0.2240  0.4720 -0.1472
 1720WAT     H1 5371   2.995   0.618   0.520  0.0051  0.1240  0.5576
 1720WAT     H2 5372   2.923   0.503   0.453  0.3552  0.6966 -0.8265
 1721WAT      O 5373   1.781   1.514   3.834 -0.4198 -0.3884 -0.5782
 1721WAT     H1 5374   1.767   1.419   3.840 -1.1507 -0.1857  1.3721
 1721WAT     H2 5375   1.876   1.523   3.826 -0.0227 -1.2238  2.2424
 1722WAT      O 5376   2.054   4.179   1.341 -0.5918  0.2057  0.3429
 1722WAT     H1 5377   2.048   4.275   1.351 -0.9117  0.1405  0.8503
 1722WAT     H2 5378   2.136   4.156   1.385  1.5806  0.6570 -3.1537
 1723WAT      O 5379   0.588   3.161   4.810 -0.1178  0.0044  0.1638
 1723WAT     H1 5380   0.502   3.131   4.840  0.3316 -1.3751  0.1596
 1723WAT     H2 5381   0.606   3.239   4.862 -0.7246 -0.5565  1.2545
 1724WAT      O 5382   1.813   4.782   2.868 -0.6175 -0.1947  0.0890
 1724WAT     H1 5383   1.845   4.711   2.923 -2.5315 -0.8337  0.4381
 1724WAT     H2 5384   1.718   4.779   2.878 -0.9033  0.7678 -1.9238
 1725WAT      O 5385   1.229   0.282   2.411 -0.1395  0.3195  0.0803
 1725WAT     H1 5386   1.316   0.248   2.435  0.5387  1.3021 -0.8972
 1725WAT     H2 5387   1.213   0.247   2.324 -0.4782  0.6026  0.0307
 1726WAT      O 5388   4.200   4.431   5.057 -0.3483  0.5301 -0.4722
 1726WAT     H1 5389   4.216   4.387   5.141  1.4172 -3.0055 -2.4394
 1726WAT     H2 5390   4.276   4.488   5.046  0.2948 -0.2841 -0.3861
 1727WAT      O 5391   4.249   2.080   0.698 -0.1242  0.6175 -0.7215
 1727WAT     H1 5392   4.205   2.007   0.742  1.2158 -0.1900 -0.6495
 1727WAT     H2 5393   4.242   2.060   0.605  0.8591 -0.0129 -0.6787
 1728WAT      O 5394   3.480   0.024   0.210  0.1821 -0.1921 -0.4541
 1728WAT     H1 5395   3.501   0.113   0.182 -0.8690  0.6500  1.2117
 1728WAT     H2 5396   3.394   0.006   0.172 -0.1237 -0.0208  0.1374
 1729WAT      O 5397   4.359   0.804   4.937 -0.0656  0.8011 -0.5766
 1729WAT     H1 5398   4.330   0.739   4.873  0.3260 -0.3054  0.3289
 1729WAT     H2 5399   4.454   0.792   4.942 -0.3938 -1.8066  2.8791
 1730WAT      O 5400   0.734   3.251   1.517 -0.1195  0.7733 -0.7340
 1730WAT     H1 5401   0.673   3.290   1.455  0.8376  2.0161 -0.9200
 1730WAT     H2 5402   0.788   3.324   1.548  0.8199 -0.1736 -0.0520
 1731WAT      O 5403   3.039   0.705   2.550  0.5023 -0.1255 -0.5555
 1731WAT     H1 5404   3.086   0.652   2.614  0.5649 -1.6302 -1.7934
 1731WAT     H2 5405   3.105   0.731   2.486  0.4160  1.2652 -0.1193
 1732WAT      O 5406   0.752   2.944   4.775  0.0291 -0.1058 -0.2954
 1732WAT     H1 5407   0.707   3.028   4.777  3.0839  1.6964 -1.0307
 1732WAT     H2 5408   0.732   2.908   4.689 -0.8930  0.0698 -0.1676
 1733WAT      O 5409   4.351   2.848   1.829 -0.3767 -0.4952  0.5906
 1733WAT     H1 5410   4.328   2.863   1.921 -2.1392  1.7189 -0.0978
 1733WAT     H2 5411   4.266   2.840   1.785  0.3294  0.8376 -1.1340
 1734WAT      O 5412   3.681   1.933   1.053  0.2310  0.0530 -0.5276
 1734WAT     H1 5413   3.712   1.874   0.984  0.8714 -0.2942  0.0469
 1734WAT     H2 5414   3.637   1.875   1.116  0.0602  0.3119 -0.4069
 1735WAT      O 5415   2.615   0.845   4.338 -0.4972 -0.1361 -0.2800
 1735WAT     H1 5416   2.706   0.864   4.362 -0.6621  0.1833  0.1158
 1735WAT     H2 5417   2.621   0.798   4.255 -0.0059  0.7832 -0.7935
 1736WAT      O 5418   3.487   4.541   1.385 -0.2211 -0.4732  0.5599
 1736WAT     H1 5419   3.571   4.575   1.352  0.1244 -1.5039  0.3252
 1736WAT     H2 5420   3.449   4.495   1.310 -2.2513  2.1144 -0.1283
 1737WAT      O 5421   3.194   3.179   2.054  0.1290 -0.4519  0.4877
 1737WAT     H1 5422   3.153   3.222   1.979 -0.1337 -0.0444  0.8643
 1737WAT     H2 5423   3.121   3.142   2.103  0.4005 -2.2170 -0.3551
 1738WAT      O 5424   1.065   0.785   2.498  0.5507  0.4325  0.1916
 1738WAT     H1 5425   1.059   0.692   2.478  3.4612  0.1701  0.0990
 1738WAT     H2 5426   1.113   0.789   2.581 -1.3886  1.8430  1.3375
 1739WAT      O 5427   2.607   3.453   2.442 -0.5230 -0.0833  0.1597
 1739WAT     H1 5428   2.680   3.481   2.497 -0.6276 -0.0814  0.2958
 1739WAT     H2 5429   2.628   3.363   2.417 -0.0328  0.2134 -0.5276
 1740WAT      O 5430   1.847   3.147   2.166 -0.5726  0.1633  0.0963
 1740WAT     H1 5431   1.775   3.188   2.118 -0.0407 -0.3460 -1.1803
 1740WAT     H2 5432   1.897   3.221   2.202  0.0165  0.6455 -1.6356
 1741WAT      O 5433   1.749   2.457   4.886 -0.1492  0.2819  0.3398
 1741WAT     H1 5434   1.746   2.386   4.821  0.5493 -0.1822  0.8017
 1741WAT     H2 5435   1.672   2.442   4.941 -0.9632  0.9024 -0.5946
 1742WAT      O 5436   1.294   2.874   0.037 -0.1783 -0.2808 -0.0149
 1742WAT     H1 5437   1.238   2.799   0.016  2.3511 -1.6092 -2.8123
 1742WAT     H2 5438   1.349   2.843   0.109 -1.0811  0.0290  0.8374
 1743WAT      O 5439   1.347   0.845   4.464 -0.0723 -0.0052  0.3953
 1743WAT     H1 5440   1.355   0.853   4.560  1.1716  0.4457  0.2736
 1743WAT     H2 5441   1.401   0.916   4.430  1.5176 -1.6277 -0.6671
 1744WAT      O 5442   2.939   3.939   2.359  0.0522 -0.3623 -0.3167
 1744WAT     H1 5443   2.947   3.915   2.267  1.5099 -0.2677 -0.2293
 1744WAT     H2 5444   3.018   3.990   2.378  0.9219 -2.2680  1.5508
 1745WAT      O 5445   0.625   3.920   1.049 -0.1297  0.0302 -0.0818
 1745WAT     H1 5446   0.665   3.934   1.135  3.9619 -0.1626 -1.7513
 1745WAT     H2 5447   0.615   3.825   1.043  1.5496 -0.1364 -0.5543
 1746WAT      O 5448   2.420   4.518   5.062 -0.0542 -0.1387 -0.1208
 1746WAT     H1 5449   2.391   4.506   4.971  0.4255 -1.4899 -0.1139
 1746WAT     H2 5450   2.495   4.460   5.071 -0.6115 -0.6624  1.3800
 1747WAT      O 5451   0.072   1.504   3.892  0.7692  0.2473 -0.1097
 1747WAT     H1 5452   0.058   1.593   3.924  1.1794 -0.1195  1.1729
 1747WAT     H2 5453   0.068   1.511   3.797  1.6320  1.7870 -0.0630
 1748WAT      O 5454   1.748   4.633   1.194 -0.2222 -0.2660  0.4391
 1748WAT     H1 5455   1.833   4.669   1.167 -0.4557 -0.3195 -0.4011
 1748WAT     H2 5456   1.687   4.706   1.184 -0.5459 -0.6405 -0.4692
 1749WAT      O 5457   2.262   1.426   0.878 -0.5536 -0.0779 -0.5624
 1749WAT     H1 5458   2.233   1.392   0.793  0.8209 -0.2848 -0.9753
 1749WAT     H2 5459   2.355   1.445   0.865 -0.8785  2.2579  0.1742
 1750WAT      O 5460   1.698   1.767   2.167  0.4216 -0.1113 -0.2331
 1750WAT     H1 5461   1.726   1.795   2.079  0.5896  0.1362 -0.1003
 1750WAT     H2 5462   1.753   1.690   2.186  0.3527 -0.1938 -0.3634
 1751WAT      O 5463   1.732   0.253   1.494 -0.7372  0.4623  0.0311
 1751WAT     H1 5464   1.685   0.318   1.546 -1.1150 -0.9387  1.5472
 1751WAT     H2 5465   1.775   0.197   1.559  2.9221  1.4867 -1.2614
 1752WAT      O 5466   3.715   0.392   2.259  0.1024  0.4808 -0.3955
 1752WAT     H1 5467   3.645   0.331   2.281  0.8906 -0.0140  0.8204
 1752WAT     H2 5468   3.795   0.349   2.287  0.6560  2.2602  1.0055
 1753WAT      O 5469   2.162   2.816   1.090 -0.2496 -0.1868  0.2347
 1753WAT     H1 5470   2.123   2.902   1.074 -1.0909 -0.7985 -1.2674
 1753WAT     H2 5471   2.255   2.828   1.072 -0.3804  0.3940 -0.0886
 1754WAT      O 5472   2.262   0.422   3.845  0.4830 -0.1556  0.2533
 1754WAT     H1 5473   2.256   0.515   3.869  1.1508 -0.0020 -0.1380
 1754WAT     H2 5474   2.173   0.389   3.854 -0.0573  0.8861 -1.0096
 1755WAT      O 5475   3.710   3.176   3.294  0.0495  0.1577 -0.3778
 1755WAT     H1 5476   3.775   3.146   3.358 -0.9533 -0.2300  0.5033
 1755WAT     H2 5477   3.759   3.230   3.232  1.5344 -1.5595 -0.7782
 1756WAT      O 5478   0.044   0.847   2.633 -0.0906  0.2657 -0.3355
 1756WAT     H1 5479   0.005   0.932   2.611  3.3878  1.7986 -1.2085
 1756WAT     H2 5480   0.017   0.789   2.561 -2.8779  0.3570  0.5067
 1757WAT      O 5481   1.079   1.164   0.275  0.6514 -0.2159 -0.9093
 1757WAT     H1 5482   1.058   1.231   0.340  1.8717  0.1994 -0.9221
 1757WAT     H2 5483   1.172   1.148   0.286  0.5387 -1.3504 -1.4482
 1758WAT      O 5484   0.293   2.290   0.729 -0.2006 -0.5446 -0.2330
 1758WAT     H1 5485   0.230   2.312   0.659  1.9126  2.8441 -1.3537
 1758WAT     H2 5486   0.312   2.198   0.716 -2.1470 -0.7650 -2.2121
 1759WAT      O 5487   1.907   0.587   0.722 -0.4301  0.3280  0.6690
 1759WAT     H1 5488   1.865   0.646   0.785  0.9572  0.8852  1.1058
 1759WAT     H2 5489   1.936   0.512   0.774 -0.9112 -0.0712  0.3648
 1760WAT      O 5490   1.907   2.788   2.156  0.4538  0.1065  0.5999
 1760WAT     H1 5491   1.964   2.864   2.147  1.1728 -0.1267  2.6389
 1760WAT     H2 5492   1.894   2.756   2.067  0.0646  2.6301 -0.3112
 1761WAT      O 5493   0.093   1.670   1.019 -0.9787  0.1997 -0.1435
 1761WAT     H1 5494   0.175   1.721   1.021 -1.7632  1.7300 -2.5952
 1761WAT     H2 5495   0.112   1.598   0.959 -1.5248  0.8214 -1.0849
 1762WAT      O 5496   4.428   2.648   0.509  0.2108  0.2113 -0.1570
 1762WAT     H1 5497   4.461   2.719   0.454 -0.1658  0.4942 -0.0179
 1762WAT     H2 5498   4.347   2.620   0.466 -0.5502  1.0131  0.7170
 1763WAT      O 5499   4.466   1.155   1.710  0.5703  0.1605  0.4531
 1763WAT     H1 5500   4.549   1.162   1.664 -0.5258 -1.2626 -1.9078
 1763WAT     H2 5501   4.423   1.240   1.694  0.8705  0.2790  0.2683
 1764WAT      O 5502   4.337   0.783   0.102  0.4120  0.4397  0.0736
 1764WAT     H1 5503   4.367   0.872   0.120  1.5876  0.2417 -0.8422
 1764WAT     H2 5504   4.412   0.739   0.062 -1.1218  0.0078 -2.5642
 1765WAT      O 5505   1.680   2.312   2.764 -0.0810 -0.5364  0.0471
 1765WAT     H1 5506   1.613   2.313   2.695  0.4988  3.3187 -0.6953
 1765WAT     H2 5507   1.635   2.275   2.840 -1.9353 -1.3365 -1.3658
 1766WAT      O 5508   4.075   4.652   3.867  0.1619  0.3438 -0.2777
 1766WAT     H1 5509   4.070   4.701   3.785  0.0191 -1.1886 -1.2148
 1766WAT     H2 5510   4.151   4.688   3.912  1.0030  0.3583 -1.6654
 1767WAT      O 5511   1.114   2.235   2.895 -0.4100  1.2895 -1.2177
 1767WAT     H1 5512   1.165   2.283   2.960  1.5950  0.1746 -1.8873
 1767WAT     H2 5513   1.032   2.284   2.888 -0.6828  1.5017  2.0428
 1768WAT      O 5514   4.030   1.704   0.234 -0.2160  0.3947  0.4769
 1768WAT     H1 5515   4.022   1.776   0.173  0.1777  0.1611  0.1438
 1768WAT     H2 5516   3.941   1.670   0.244  0.0266 -1.1166 -1.8555
 1769WAT      O 5517   3.186   2.807   4.406 -0.1573  0.1251 -0.6241
 1769WAT     H1 5518   3.205   2.726   4.453 -0.5906 -1.3381 -2.8069
 1769WAT     H2 5519   3.269   2.855   4.407  0.7320 -1.3338 -1.0850
 1770WAT      O 5520   1.674   2.689   2.278  0.9386  0.4050 -0.2177
 1770WAT     H1 5521   1.765   2.714   2.263  1.4144 -0.7095  0.5673
 1770WAT     H2 5522   1.678   2.594   2.290 -0.6639 -0.0412 -2.5109
 1771WAT      O 5523   2.911   0.876   0.392  0.3011 -0.8058  0.0856
 1771WAT     H1 5524   2.936   0.791   0.426  1.0250 -0.8294 -0.4654
 1771WAT     H2 5525   2.992   0.928   0.394 -0.0438 -0.2546  0.0691
 1772WAT      O 5526   0.304   4.708   0.919 -0.1553 -0.9343 -0.6778
 1772WAT     H1 5527   0.392   4.728   0.952 -0.6513 -1.0213  0.7874
 1772WAT     H2 5528   0.269   4.793   0.892  0.6201 -0.9976 -1.9316
 1773WAT      O 5529   2.836   4.172   2.901  0.7913 -0.2620  0.3663
 1773WAT     H1 5530   2.860   4.083   2.876 -0.6872 -0.9234  1.1636
 1773WAT     H2 5531   2.769   4.198   2.838 -1.7610 -1.3248  2.4377
 1774WAT      O 5532   3.192   0.196   3.206  0.0721  0.1363 -0.6523
 1774WAT     H1 5533   3.203   0.219   3.298 -2.5928 -2.9189  0.5967
 1774WAT     H2 5534   3.203   0.279   3.159  1.2500  1.8391  2.3721
 1775WAT      O 5535   2.722   2.439   0.841  0.1902  0.0063 -0.2140
 1775WAT     H1 5536   2.810   2.457   0.874 -0.5374  0.1109  1.7852
 1775WAT     H2 5537   2.668   2.510   0.875 -1.2858 -1.7871  1.4215
 1776WAT      O 5538   3.484   3.554   3.237 -0.0540  0.3192 -0.4712
 1776WAT     H1 5539   3.556   3.564   3.300 -0.6062  0.5575  0.1244
 1776WAT     H2 5540   3.450   3.643   3.226 -0.2439  0.2091 -0.7777
 1777WAT      O 5541   0.730   5.024   0.256 -0.5557  0.1995  0.1335
 1777WAT     H1 5542   0.784   4.948   0.232  0.5235  1.2094 -0.7638
 1777WAT     H2 5543   0.675   5.040   0.180 -1.9613 -0.6471  0.9398
 1778WAT      O 5544   3.198   0.250   3.838 -0.4376  0.1951  0.3318
 1778WAT     H1 5545   3.214   0.341   3.863 -0.8153  1.1168 -2.4796
 1778WAT     H2 5546   3.251   0.199   3.899 -0.2366  2.2642  2.0053
 1779WAT      O 5547   0.991   3.544   2.549 -0.3169 -0.9338  0.6828
 1779WAT     H1 5548   0.897   3.528   2.539  0.0658 -3.5652  0.5096
 1779WAT     H2 5549   1.027   3.458   2.572  2.1605 -0.1545  0.0120
 1780WAT      O 5550   0.998   0.074   2.504  0.0927 -0.0543  0.1522
 1780WAT     H1 5551   1.000   0.016   2.428  0.6267 -0.2352  0.3061
 1780WAT     H2 5552   1.031   0.157   2.471  2.2010 -0.6545  0.6244
 1781WAT      O 5553   3.440   1.308   4.334 -0.6587 -0.5928  0.0169
 1781WAT     H1 5554   3.419   1.263   4.415  0.1373 -1.4840 -0.2482
 1781WAT     H2 5555   3.531   1.337   4.345 -1.2836  1.3668  0.3506
 1782WAT      O 5556   2.484   4.225   4.100  0.2155  0.1691 -0.1770
 1782WAT     H1 5557   2.402   4.181   4.122  0.2459 -0.4920 -1.3007
 1782WAT     H2 5558   2.489   4.300   4.160 -0.8540 -0.1891  0.3695
 1783WAT      O 5559   0.285   4.227   2.230 -0.1858 -0.1845  0.4107
 1783WAT     H1 5560   0.291   4.321   2.250 -1.3691 -0.2583  1.2150
 1783WAT     H2 5561   0.325   4.183   2.305  0.8832 -0.3305 -0.2233
 1784WAT      O 5562   1.493   4.397   0.191  0.6690  0.0073  0.3627
 1784WAT     H1 5563   1.430   4.469   0.194 -0.1669 -0.7063  0.3850
 1784WAT     H2 5564   1.449   4.325   0.235  1.2627 -0.6930 -0.1637
 1785WAT      O 5565   4.016   0.500   1.814 -0.3789 -0.4355  0.2012
 1785WAT     H1 5566   3.984   0.452   1.890 -1.6215  1.0393  0.6569
 1785WAT     H2 5567   3.937   0.518   1.762 -0.2268  2.3101  0.7830
 1786WAT      O 5568   1.907   1.900   2.574  0.1021 -0.3404  0.0107
 1786WAT     H1 5569   1.835   1.959   2.554 -0.2065 -0.0893  1.6731
 1786WAT     H2 5570   1.968   1.910   2.501 -1.1388  0.0728 -1.0064
 1787WAT      O 5571   4.512   3.356   4.605  0.3357 -0.0630 -0.4111
 1787WAT     H1 5572   4.492   3.292   4.674  0.0774  2.1180  1.6508
 1787WAT     H2 5573   4.443   3.421   4.612  1.1488  0.9918 -1.7550
 1788WAT      O 5574   2.492   0.575   4.472 -0.4978 -0.8546 -0.2406
 1788WAT     H1 5575   2.456   0.544   4.556  0.0415 -1.2547 -0.1493
 1788WAT     H2 5576   2.443   0.654   4.453  0.6755  0.3555  1.4358
 1789WAT      O 5577   1.155   2.756   2.867 -0.1072  0.6045  0.1385
 1789WAT     H1 5578   1.248   2.750   2.886 -0.2452 -0.6394  0.4501
 1789WAT     H2 5579   1.112   2.751   2.952 -0.4795  0.6996 -0.0412
 1790WAT      O 5580   2.582   4.080   5.251 -0.3428  0.1792 -0.7667
 1790WAT     H1 5581   2.599   3.987   5.265  0.4649  0.5067  0.7341
 1790WAT     H2 5582   2.490   4.084   5.226 -0.6486 -0.9718  0.0654
 1791WAT      O 5583   2.354   0.605   2.572 -0.4228 -0.4596 -0.3904
 1791WAT     H1 5584   2.300   0.526   2.573 -0.7172 -0.2580 -0.1033
 1791WAT     H2 5585   2.293   0.676   2.554 -0.4551 -0.0960  1.0295
 1792WAT      O 5586   2.546   3.687   4.468  0.5259  0.3149  0.4677
 1792WAT     H1 5587   2.573   3.642   4.387 -0.1679  1.8654 -0.6813
 1792WAT     H2 5588   2.620   3.742   4.491  0.8984 -0.4662  1.1662
 1793WAT      O 5589   1.179   1.494   4.134  0.4216  0.1959  0.1096
 1793WAT     H1 5590   1.117   1.537   4.076  0.5629  0.9929  0.5304
 1793WAT     H2 5591   1.126   1.460   4.206  0.4520  0.8704  0.4654
 1794WAT      O 5592   3.330   2.421   3.756 -0.1790 -0.2975  0.4413
 1794WAT     H1 5593   3.241   2.441   3.727 -0.1066  0.2577  0.5905
 1794WAT     H2 5594   3.342   2.475   3.834 -0.1893 -1.3799  1.2119
 1795WAT      O 5595   3.395   1.978   5.018 -0.0981  0.1028 -0.5008
 1795WAT     H1 5596   3.330   2.041   5.049 -0.6903 -0.7857  0.1145
 1795WAT     H2 5597   3.432   1.941   5.098 -0.2062 -0.7816 -0.8528
 1796WAT      O 5598   1.780   3.123  -0.022  0.3471 -0.4904 -0.3591
 1796WAT     H1 5599   1.790   3.189   0.047  1.7448  0.0014 -0.9891
 1796WAT     H2 5600   1.725   3.056   0.016 -0.6228  0.7588  0.5168
 1797WAT      O 5601   1.148   3.055   4.201  0.0483  0.3703 -0.0910
 1797WAT     H1 5602   1.099   3.137   4.197  0.8579  0.8211 -1.3818
 1797WAT     H2 5603   1.217   3.072   4.264 -0.1646  0.4648  0.1192
 1798WAT      O 5604   2.337   4.838   2.936  0.5141  0.1133  0.4499
 1798WAT     H1 5605   2.388   4.871   3.010 -1.2644  0.4188  1.6038
 1798WAT     H2 5606   2.312   4.749   2.962 -0.7263  0.4772  0.5695
 1799WAT      O 5607   3.242   0.814   2.800 -0.3808  0.3696  0.4776
 1799WAT     H1 5608   3.330   0.834   2.832 -0.1926 -0.0721  0.2513
 1799WAT     H2 5609   3.240   0.718   2.796  0.2525  0.3862 -2.5721
 1800WAT      O 5610   2.426   2.428   2.730 -0.1126  0.2611 -0.3669
 1800WAT     H1 5611   2.346   2.476   2.710 -1.5097 -1.5406  0.6520
 1800WAT     H2 5612   2.458   2.467   2.811 -0.5063  0.3299 -0.2445
 1801WAT      O 5613   4.121   2.912   1.277  0.2298  0.0409  0.4578
 1801WAT     H1 5614   4.112   2.842   1.212  0.9726 -0.1632  0.5587
 1801WAT     H2 5615   4.071   2.881   1.352 -0.3237  0.1043  0.1216
 1802WAT      O 5616   2.884   1.647   1.200 -0.0802 -0.1308  0.0910
 1802WAT     H1 5617   2.950   1.578   1.198 -2.6962 -2.8737  0.8697
 1802WAT     H2 5618   2.841   1.636   1.285 -3.0099 -0.0410 -1.2748
 1803WAT      O 5619   2.371   0.417   1.821  0.2252  0.3598  0.2734
 1803WAT     H1 5620   2.280   0.399   1.845 -0.9124  1.5361 -2.6255
 1803WAT     H2 5621   2.414   0.331   1.824 -2.0124 -0.9726 -1.9166
 1804WAT      O 5622   4.444   3.713   3.728  0.0499  0.0787 -0.6005
 1804WAT     H1 5623   4.401   3.676   3.805 -0.2619 -0.1742 -0.8883
 1804WAT     H2 5624   4.379   3.774   3.693  0.5941  0.9782 -0.0787
 1805WAT      O 5625   2.905   1.610   3.153  0.1063  0.0681  0.0894
 1805WAT     H1 5626   2.852   1.637   3.078  1.2341 -0.4379 -0.9290
 1805WAT     H2 5627   2.994   1.603   3.117  0.6007 -0.5414  1.3978
 1806WAT      O 5628   0.188   2.256   1.643  0.0407  0.2643 -0.0869
 1806WAT     H1 5629   0.207   2.286   1.554 -0.2576 -0.2738 -0.3362
 1806WAT     H2 5630   0.274   2.243   1.682  0.2445 -1.8489 -1.1046
 1807WAT      O 5631   3.998   2.716   1.111  0.0309  0.8678  0.4333
 1807WAT     H1 5632   3.922   2.673   1.150  0.8785  0.5216  1.7960
 1807WAT     H2 5633   4.054   2.645   1.081 -0.4717  1.1308 -1.2327
 1808WAT      O 5634   0.446   2.088   4.470  0.2314 -0.3940  0.2273
 1808WAT     H1 5635   0.454   2.066   4.563 -0.6317  0.1522  0.4451
 1808WAT     H2 5636   0.369   2.039   4.441 -1.2016  1.5734  0.5043
 1809WAT      O 5637   2.312   2.710   4.696  0.0150 -0.1933 -0.3224
 1809WAT     H1 5638   2.335   2.776   4.630  0.5845  0.7062  0.7437
 1809WAT     H2 5639   2.265   2.643   4.647 -0.8560  1.1492 -1.4033
 1810WAT      O 5640   1.815   1.469   0.745  0.0696 -0.1074  0.6189
 1810WAT     H1 5641   1.878   1.459   0.817  1.5388  0.4822 -0.5250
 1810WAT     H2 5642   1.840   1.402   0.682  0.7728  1.2734 -0.6528
 1811WAT      O 5643   3.673   5.092   0.406 -0.4734 -0.1744  0.7401
 1811WAT     H1 5644   3.617   5.044   0.467 -0.3864  0.4329  1.3034
 1811WAT     H2 5645   3.615   5.112   0.332 -0.1248 -2.5086 -0.2783
 1812WAT      O 5646   2.288   1.053   1.445 -0.1016 -1.1416  0.3672
 1812WAT     H1 5647   2.211   1.078   1.497  0.0026 -0.1959  0.0829
 1812WAT     H2 5648   2.280   0.958   1.434 -1.1172 -1.0805  0.5136
 1813WAT      O 5649   2.380   2.372   0.170  0.2326 -0.6043 -0.0838
 1813WAT     H1 5650   2.325   2.421   0.231  1.4936  0.1491  0.4889
 1813WAT     H2 5651   2.370   2.417   0.086 -1.4748 -1.6177 -0.4661
 1814WAT      O 5652   2.284   0.799   1.402  0.7719 -0.2923 -0.1255
 1814WAT     H1 5653   2.331   0.716   1.410 -1.2909 -1.3599  3.6791
 1814WAT     H2 5654   2.193   0.774   1.385 -0.1976  0.9608  2.6157
 1815WAT      O 5655   1.629   2.816   3.160 -0.0614  0.6741  0.0111
 1815WAT     H1 5656   1.670   2.902   3.150  2.8153 -0.5551  0.2190
 1815WAT     H2 5657   1.625   2.802   3.255  0.7816  0.0482 -0.0325
 1816WAT      O 5658   2.655   4.473   1.114  0.0853  0.5133  0.4672
 1816WAT     H1 5659   2.594   4.416   1.162 -0.5477  1.4039  0.7451
 1816WAT     H2 5660   2.709   4.412   1.064  0.7014 -0.4568  2.2127
 1817WAT      O 5661   1.017   2.437   4.771 -0.1190 -0.3220 -0.3616
 1817WAT     H1 5662   1.105   2.456   4.804 -0.2324 -1.7633  0.8856
 1817WAT     H2 5663   1.028   2.431   4.676  0.3226  3.4192 -0.7118
 1818WAT      O 5664   0.408   2.473   0.066 -0.0050  0.2722 -0.3582
 1818WAT     H1 5665   0.457   2.540   0.020  2.0288  0.3020  1.6717
 1818WAT     H2 5666   0.370   2.518   0.142 -2.5165  0.0484 -1.3856
 1819WAT      O 5667   2.667   3.932   3.537 -1.2960 -0.0763 -0.4723
 1819WAT     H1 5668   2.682   3.901   3.447 -2.1637  1.8353 -1.3348
 1819WAT     H2 5669   2.615   4.012   3.526 -0.5751  0.7522  1.7057
 1820WAT      O 5670   2.027   0.775   3.154 -0.2933  0.7790 -0.0338
 1820WAT     H1 5671   1.945   0.758   3.107 -0.0461  0.9022 -0.5183
 1820WAT     H2 5672   2.009   0.750   3.245 -0.1319 -1.5068 -0.5836
 1821WAT      O 5673   0.783   1.396   1.865 -0.0093 -0.1794  0.1369
 1821WAT     H1 5674   0.730   1.475   1.870 -0.6562 -0.4836 -1.3830
 1821WAT     H2 5675   0.720   1.324   1.873  0.1833 -0.5449 -1.3616
 1822WAT      O 5676   2.537   0.734   5.308  0.0963 -0.6715  0.0782
 1822WAT     H1 5677   2.494   0.776   5.233 -1.0594 -0.2115  0.9602
 1822WAT     H2 5678   2.600   0.674   5.269  0.5124  0.5675 -1.2397
 1823WAT      O 5679   2.141   2.920   1.563 -0.2623 -0.6826  0.4430
 1823WAT     H1 5680   2.111   2.832   1.583 -1.8114 -0.0300  1.1321
 1823WAT     H2 5681   2.184   2.949   1.644 -1.3576 -0.1697  0.8595
 1824WAT      O 5682   3.783   2.451   3.543 -0.2252  0.1336 -0.1130
 1824WAT     H1 5683   3.818   2.500   3.468  0.2926  0.2422  0.1946
 1824WAT     H2 5684   3.689   2.469   3.541 -0.4491 -0.9813 -1.5538
 1825WAT      O 5685   4.226   4.226   0.620  0.1734  0.0921  0.2156
 1825WAT     H1 5686   4.274   4.306   0.640  1.2552 -0.9267  1.8837
 1825WAT     H2 5687   4.161   4.218   0.690  0.4341 -0.7577  0.3678
 1826WAT      O 5688   2.135   0.859   3.618 -0.2575  0.0519  0.6718
 1826WAT     H1 5689   2.091   0.885   3.537 -1.1229  0.5328  1.2875
 1826WAT     H2 5690   2.067   0.815   3.669  0.1202  0.2887  1.3915
 1827WAT      O 5691   4.465   4.594   3.573 -0.2246  0.0292 -0.0168
 1827WAT     H1 5692   4.433   4.672   3.528  2.5962  0.7878 -0.9515
 1827WAT     H2 5693   4.396   4.530   3.563 -2.6679  2.3463  0.7746
 1828WAT      O 5694   3.137   4.114   1.137 -0.3706  0.0586  0.6307
 1828WAT     H1 5695   3.169   4.112   1.047 -0.6034  1.3382  0.5074
 1828WAT     H2 5696   3.129   4.207   1.158 -1.3513 -0.2252  1.6052
 1829WAT      O 5697   0.326   2.413   3.320 -0.2909 -0.1777 -0.3393
 1829WAT     H1 5698   0.310   2.458   3.402  2.1373 -2.7174  1.7634
 1829WAT     H2 5699   0.410   2.448   3.290 -0.0019 -0.9190 -0.4216
 1830WAT      O 5700   3.550   0.343   4.501  0.0623  0.3287 -0.0820
 1830WAT     H1 5701   3.585   0.411   4.444 -2.3086  2.5342  0.8780
 1830WAT     H2 5702   3.537   0.267   4.443  0.9212  1.3351 -1.6548
 1831WAT      O 5703   0.805   5.011   2.629  0.0779  0.1198  0.1237
 1831WAT     H1 5704   0.759   5.038   2.708 -2.6172  1.6947 -1.8513
 1831WAT     H2 5705   0.876   5.075   2.619 -0.0382  0.3673  0.8242
 1832WAT      O 5706   2.611   1.234   3.368 -0.2528  0.7138 -0.1741
 1832WAT     H1 5707   2.592   1.292   3.441 -0.1906  1.0692 -0.4367
 1832WAT     H2 5708   2.533   1.238   3.313 -0.6200 -0.1605  0.2584
 1833WAT      O 5709   1.714   3.677   1.138 -0.0413 -0.2384  0.1426
 1833WAT     H1 5710   1.775   3.620   1.185 -0.3003  0.6892  1.7017
 1833WAT     H2 5711   1.645   3.618   1.107 -0.0060 -0.8790  1.2132
 1834WAT      O 5712   0.135   4.183   0.675  0.3909 -0.6953  0.3686
 1834WAT     H1 5713   0.144   4.268   0.631 -1.5457 -0.5705  0.1211
 1834WAT     H2 5714   0.222   4.164   0.709  0.7935  1.6208  0.8042
 1835WAT      O 5715   3.652   4.430   3.811 -0.1401 -0.1270  0.1248
 1835WAT     H1 5716   3.577   4.449   3.755  0.2670 -1.3781 -0.9246
 1835WAT     H2 5717   3.632   4.472   3.894 -0.7844  1.7883 -0.9390
 1836WAT      O 5718   3.659   2.910   3.209  0.0933 -0.2202 -0.2319
 1836WAT     H1 5719   3.651   2.999   3.243 -1.2544 -0.5193  0.3091
 1836WAT     H2 5720   3.748   2.905   3.174  0.0591  1.4635 -0.6411
 1837WAT      O 5721   2.554   2.292   1.892  0.0073  0.3080 -0.1295
 1837WAT     H1 5722   2.534   2.262   1.981 -0.6420  1.2736  0.0632
 1837WAT     H2 5723   2.499   2.237   1.836  1.1574 -0.9880 -0.0253
 1838WAT      O 5724   3.523   0.214   2.314 -0.0721  0.0875  0.2956
 1838WAT     H1 5725   3.461   0.276   2.353 -0.3140 -0.4261  0.7343
 1838WAT     H2 5726   3.492   0.203   2.224  0.2705  0.9907  0.0514
 1839WAT      O 5727   1.036   4.825   3.281 -0.2142  0.3663  0.0650
 1839WAT     H1 5728   1.033   4.891   3.212  0.0889 -0.9438 -1.2560
 1839WAT     H2 5729   0.949   4.784   3.278  0.7416 -1.7540 -1.7194
 1840WAT      O 5730   4.134   2.051   2.384  0.2488 -0.3061  0.2562
 1840WAT     H1 5731   4.091   2.099   2.455  0.9429  0.5883  0.0910
 1840WAT     H2 5732   4.115   2.102   2.306  1.7392  0.2084  0.2034
 1841WAT      O 5733   4.337   2.836   0.744  0.7679  0.2359 -0.3778
 1841WAT     H1 5734   4.332   2.922   0.702 -1.2041 -0.0067 -0.7573
 1841WAT     H2 5735   4.332   2.774   0.671  0.4563 -0.1895 -0.0011
 1842WAT      O 5736   2.895   1.494   2.807 -0.4874  0.5913 -0.5471
 1842WAT     H1 5737   2.970   1.554   2.806 -0.7718  0.9470 -0.5629
 1842WAT     H2 5738   2.877   1.477   2.715  0.0246 -0.0646 -0.5337
 1843WAT      O 5739   0.840   4.295   0.019 -0.2779 -0.2852  0.0167
 1843WAT     H1 5740   0.874   4.210  -0.012 -0.5063  0.3566 -2.2258
 1843WAT     H2 5741   0.919   4.344   0.044  0.0712 -0.4279 -0.7508
 1844WAT      O 5742   2.977   2.094   1.447 -0.4047 -0.5574  0.1468
 1844WAT     H1 5743   2.897   2.145   1.457  0.3620  0.9033 -0.7259
 1844WAT     H2 5744   3.043   2.159   1.422  1.0316 -1.7396  0.7513
 1845WAT      O 5745   0.485   1.390   2.357 -0.5175 -0.3127  0.2851
 1845WAT     H1 5746   0.474   1.295   2.351  1.9389 -0.6197 -0.1081
 1845WAT     H2 5747   0.577   1.403   2.379 -0.1851  2.0157 -1.9472
 1846WAT      O 5748   2.542   4.459   4.238  0.1778 -0.3530 -0.7352
 1846WAT     H1 5749   2.619   4.516   4.233 -0.2934  0.2604 -1.2308
 1846WAT     H2 5750   2.468   4.517   4.220 -0.5849 -0.5686  1.3987
 1847WAT      O 5751   3.126   0.058   5.067 -0.0474 -0.4471 -1.1118
 1847WAT     H1 5752   3.033   0.078   5.083  0.0882 -0.1034 -0.7223
 1847WAT     H2 5753   3.132   0.047   4.973 -0.1926  1.1450 -1.3383
 1848WAT      O 5754   0.022   0.590   5.073  0.6215  0.1210 -0.0937
 1848WAT     H1 5755   0.040   0.581   5.167  1.2324  0.8323 -0.1362
 1848WAT     H2 5756   0.108   0.603   5.033  0.6681 -2.5978 -1.0852
 1849WAT      O 5757   1.399   3.814   0.940  0.4325  0.3773 -0.3522
 1849WAT     H1 5758   1.338   3.865   0.993  0.4324 -0.3412  0.3554
 1849WAT     H2 5759   1.413   3.734   0.990  2.1796  0.6477 -0.3541
 1850WAT      O 5760   1.496   3.930   2.587  0.0945 -0.3342 -0.1209
 1850WAT     H1 5761   1.508   3.929   2.492 -3.3340  0.4128 -0.6826
 1850WAT     H2 5762   1.483   3.838   2.610  1.6475 -0.6035 -0.1937
 1851WAT      O 5763   2.992   2.752   4.228  0.3799  0.1163 -0.1412
 1851WAT     H1 5764   2.966   2.671   4.270 -0.6045  1.0499  1.1470
 1851WAT     H2 5765   3.068   2.782   4.277 -0.5864  1.0532  0.8374
 1852WAT      O 5766   4.398   4.928   4.504  0.1394  0.4599 -0.2206
 1852WAT     H1 5767   4.493   4.928   4.518  0.0701 -0.5924  0.3399
 1852WAT     H2 5768   4.362   4.895   4.587 -0.7009  0.5011 -0.5608
 1853WAT      O 5769   3.933   3.298   1.152 -0.2274 -0.4675  0.4795
 1853WAT     H1 5770   3.887   3.282   1.234 -0.4665  1.1840  0.6884
 1853WAT     H2 5771   3.934   3.212   1.108 -1.5868 -0.9963  1.4250
 1854WAT      O 5772   0.724   2.456   2.664 -0.3345  0.2286  0.6938
 1854WAT     H1 5773   0.655   2.403   2.624 -0.0212 -0.3025  0.8486
 1854WAT     H2 5774   0.782   2.479   2.592  0.0462 -0.4424  0.7851
 1855WAT      O 5775   2.480   3.236   5.067  0.6218  0.0761  0.1765
 1855WAT     H1 5776   2.553   3.298   5.070  0.9530 -0.3445  1.5189
 1855WAT     H2 5777   2.480   3.196   5.154 -0.5541 -0.6915 -0.1646
 1856WAT      O 5778   3.004   2.056   3.973  0.3571 -0.0191  0.4686
 1856WAT     H1 5779   3.080   2.105   4.003  0.6270 -0.9712  1.3809
 1856WAT     H2 5780   2.948   2.122   3.932  1.2346  0.8489  0.6325
 1857WAT      O 5781   0.043   2.088   4.134  0.2781  0.0475  0.5149
 1857WAT     H1 5782   0.036   2.173   4.177  2.5767  0.9628 -0.7027
 1857WAT     H2 5783   0.103   2.103   4.061  1.1155 -2.7151  0.4999
 1858WAT      O 5784   0.342   4.673   5.024 -0.8427  0.1915 -0.0377
 1858WAT     H1 5785   0.327   4.765   5.043  0.3488  0.8664 -2.1182
 1858WAT     H2 5786   0.321   4.628   5.106  0.2838  2.4620  1.6010
 1859WAT      O 5787   1.366   2.958   0.925  0.1262  0.7365  0.1535
 1859WAT     H1 5788   1.332   3.031   0.874  0.5323 -0.1354 -1.4165
 1859WAT     H2 5789   1.290   2.903   0.942  0.1728  0.4660 -0.4917
 1860WAT      O 5790   1.188   3.771   2.275 -0.4043  0.2351  0.3419
 1860WAT     H1 5791   1.252   3.701   2.272 -1.0926 -0.3883 -0.2951
 1860WAT     H2 5792   1.203   3.815   2.359  0.5210 -0.1991  0.4099
 1861WAT      O 5793   4.372   0.100   2.465  0.1419  0.0686  0.0545
 1861WAT     H1 5794   4.364   0.044   2.543  1.4252  0.8289  0.7691
 1861WAT     H2 5795   4.466   0.110   2.453 -0.0625  1.2071 -0.7032
 1862WAT      O 5796   4.091   2.235   2.192 -0.1382  0.0015  0.2368
 1862WAT     H1 5797   4.021   2.255   2.130 -0.8233 -1.8281  0.3524
 1862WAT     H2 5798   4.171   2.240   2.140 -0.5758 -0.1939 -0.4748
 1863WAT      O 5799   1.161   0.530   2.414 -0.5714 -0.2238  0.6321
 1863WAT     H1 5800   1.172   0.436   2.423  0.9514 -0.4889 -2.7357
 1863WAT     H2 5801   1.241   0.567   2.452 -0.4877 -0.3887  0.6167
 1864WAT      O 5802   0.269   3.242   0.028  0.6111 -0.6494  0.2457
 1864WAT     H1 5803   0.260   3.269   0.119  0.2642 -0.2982  0.1107
 1864WAT     H2 5804   0.301   3.152   0.032 -0.1526 -0.9038  0.7215
 1865WAT      O 5805   4.127   0.348   2.086  0.1122  0.2128  0.0597
 1865WAT     H1 5806   4.154   0.274   2.140 -2.3436 -0.6870  0.2166
 1865WAT     H2 5807   4.201   0.408   2.086  0.7739 -0.4842  3.1112
 1866WAT      O 5808   3.464   1.500   0.601 -0.5208  0.0167  0.2560
 1866WAT     H1 5809   3.556   1.516   0.623 -0.2841 -1.0641  0.1177
 1866WAT     H2 5810   3.464   1.486   0.506 -0.1050 -4.0675  0.6590
 1867WAT      O 5811   1.137   3.768   2.578  0.0008 -0.3596 -0.0157
 1867WAT     H1 5812   1.104   3.678   2.567  1.0707 -0.5572 -1.9920
 1867WAT     H2 5813   1.060   3.823   2.563 -0.2709 -0.9069 -0.7241
 1868WAT      O 5814   0.332   1.003   4.732  0.0591  0.1522  0.4160
 1868WAT     H1 5815   0.256   1.004   4.791 -2.3064  1.1417 -2.3664
 1868WAT     H2 5816   0.366   1.092   4.736 -1.0483  0.6644 -0.7032
 1869WAT      O 5817   0.099   1.978   3.435  0.6346 -0.4784 -0.1047
 1869WAT     H1 5818   0.175   1.920   3.434 -0.4902 -2.0146 -0.3344
 1869WAT     H2 5819   0.130   2.059   3.394  2.1753 -1.0066 -0.0495
 1870WAT      O 5820   4.329   0.575   3.423 -0.1906  0.6475 -0.4114
 1870WAT     H1 5821   4.311   0.482   3.435  0.5118  0.6098  0.4930
 1870WAT     H2 5822   4.272   0.602   3.351 -0.2415 -0.5272 -0.8296
 1871WAT      O 5823   4.120   3.278   2.826 -0.2185 -0.1423 -0.0914
 1871WAT     H1 5824   4.198   3.323   2.858 -0.1703 -1.1318  1.3197
 1871WAT     H2 5825   4.048   3.337   2.847  0.0122  0.0996  0.0296
 1872WAT      O 5826   2.229   0.582   4.240  0.3944 -0.5432  0.5747
 1872WAT     H1 5827   2.266   0.618   4.159  0.8667 -0.6516  0.7349
 1872WAT     H2 5828   2.280   0.624   4.310  1.6585 -2.2345  0.7444
 1873WAT      O 5829   3.816   3.359   4.332  0.2842  0.6367 -0.3142
 1873WAT     H1 5830   3.871   3.429   4.368 -0.4960  1.1381 -0.0945
 1873WAT     H2 5831   3.755   3.337   4.402  1.2792 -1.1167  0.0645
 1874WAT      O 5832   4.127   3.857   1.099 -0.5102 -0.0198  0.0058
 1874WAT     H1 5833   4.167   3.839   1.184 -2.3307 -0.8556  0.7157
 1874WAT     H2 5834   4.146   3.779   1.047  2.6504  1.4049 -1.2571
 1875WAT      O 5835   0.091   4.518   2.565 -0.0828  0.0191  0.1370
 1875WAT     H1 5836   0.046   4.485   2.487  0.3762 -0.6334  0.1426
 1875WAT     H2 5837   0.025   4.514   2.634 -0.1345 -0.5799  0.0594
 1876WAT      O 5838   1.672   0.137   3.086 -0.3609  0.7011  0.2279
 1876WAT     H1 5839   1.715   0.076   3.146 -0.1145  1.1578  0.5188
 1876WAT     H2 5840   1.668   0.089   3.003 -0.1266  0.3058  0.4387
 1877WAT      O 5841   3.706   4.344   2.103  0.0186 -0.0936 -0.4887
 1877WAT     H1 5842   3.736   4.353   2.013  1.2530  0.3872 -0.0495
 1877WAT     H2 5843   3.780   4.373   2.156 -0.5200 -0.8243  0.6952
 1878WAT      O 5844   4.138   0.610   3.214 -1.0670  0.0713  0.0406
 1878WAT     H1 5845   4.169   0.579   3.129 -0.2937 -0.7242  0.5877
 1878WAT     H2 5846   4.165   0.702   3.217 -1.4404  0.2143 -0.7163
 1879WAT      O 5847   2.604   3.189   0.790 -0.5048 -0.5796 -0.0625
 1879WAT     H1 5848   2.523   3.183   0.739 -0.0606  0.0101 -0.8692
 1879WAT     H2 5849   2.610   3.282   0.813  0.0643 -0.5793 -0.2094
 1880WAT      O 5850   0.053   4.883   1.470  0.2619 -0.0023 -0.3097
 1880WAT     H1 5851   0.097   4.962   1.498  0.4663 -0.1759 -0.1441
 1880WAT     H2 5852  -0.017   4.870   1.534 -0.3556  0.5519 -0.8535
 1881WAT      O 5853   3.606   1.342   1.740  0.1083 -0.6458 -0.0875
 1881WAT     H1 5854   3.649   1.395   1.807 -0.3631 -1.7575  1.1465
 1881WAT     H2 5855   3.670   1.274   1.719 -0.4715 -1.4799  0.7368
 1882WAT      O 5856   2.824   1.874   1.937 -0.0069 -0.6771  0.3319
 1882WAT     H1 5857   2.883   1.940   1.973  0.8042 -1.0991 -0.2051
 1882WAT     H2 5858   2.870   1.791   1.950 -1.5602 -1.3254  2.1615
 1883WAT      O 5859   4.524   2.528   1.440 -0.4341 -0.2621  0.3271
 1883WAT     H1 5860   4.478   2.547   1.358  0.4984 -0.1359 -0.1859
 1883WAT     H2 5861   4.459   2.545   1.508 -0.9594  0.5206 -0.3432
 1884WAT      O 5862   2.541   3.386   1.997 -0.0340  0.5062 -0.1004
 1884WAT     H1 5863   2.557   3.480   1.984  1.7496  0.0923 -1.2581
 1884WAT     H2 5864   2.465   3.383   2.055 -1.0022  2.6514 -1.1239
 1885WAT      O 5865   2.816   1.464   2.097  0.0226  0.0525 -0.4467
 1885WAT     H1 5866   2.863   1.381   2.107 -0.3471  0.0515  1.9404
 1885WAT     H2 5867   2.827   1.487   2.005  2.0677 -1.4860 -0.6646
 1886WAT      O 5868   4.432   0.938   2.890  0.3564  0.2642  0.1044
 1886WAT     H1 5869   4.499   0.892   2.839  0.5747  0.1123  0.5270
 1886WAT     H2 5870   4.481   0.989   2.954  0.1423  1.3531 -0.5583
 1887WAT      O 5871   1.327   4.084   5.176 -0.4386  0.1095 -0.2722
 1887WAT     H1 5872   1.297   4.055   5.090  1.6083 -0.6405 -0.7869
 1887WAT     H2 5873   1.349   4.177   5.164 -0.0594 -0.0211 -0.5806
 1888WAT      O 5874   2.920   4.726   2.047  0.6100 -0.2203  0.5525
 1888WAT     H1 5875   2.871   4.676   2.112  1.2926  0.4578  1.6292
 1888WAT     H2 5876   2.870   4.808   2.038  0.9651  0.0362  0.8715
 1889WAT      O 5877   0.070   0.252   1.992 -0.3790 -0.4014  0.1334
 1889WAT     H1 5878   0.138   0.265   1.926 -0.1996 -0.6748  0.2599
 1889WAT     H2 5879   0.072   0.158   2.010 -0.9091 -0.4376  0.0151
 1890WAT      O 5880   1.862   3.860   0.707  0.4840 -0.2421  0.4360
 1890WAT     H1 5881   1.873   3.865   0.802  0.6319  1.0968  0.3618
 1890WAT     H2 5882   1.782   3.910   0.690  1.8769  1.8681 -0.3795
 1891WAT      O 5883   4.252   2.571   4.860 -0.2023  0.0367 -0.8121
 1891WAT     H1 5884   4.239   2.659   4.896  0.9643  0.0999 -0.4975
 1891WAT     H2 5885   4.334   2.578   4.811 -0.7046 -0.5871 -1.7801
 1892WAT      O 5886   0.622   3.401   0.997 -0.3949 -0.2618 -0.2681
 1892WAT     H1 5887   0.545   3.346   1.009 -0.0927 -1.0528 -1.7752
 1892WAT     H2 5888   0.696   3.343   1.015 -0.1047  0.0171 -0.5523
 1893WAT      O 5889   3.009   3.860   3.409  0.3340  0.3080 -0.4992
 1893WAT     H1 5890   3.090   3.896   3.444  0.2984 -0.5728  0.5581
 1893WAT     H2 5891   2.974   3.807   3.481 -0.8941  0.2364 -1.1336
 1894WAT      O 5892   0.435   3.066   2.219  0.1940 -0.4796  0.0375
 1894WAT     H1 5893   0.373   3.004   2.259  2.1973 -2.5281  0.1361
 1894WAT     H2 5894   0.470   3.020   2.143 -0.2690  1.6760 -1.6161
 1895WAT      O 5895   4.097   5.053   4.432  0.2209  0.1623 -0.6323
 1895WAT     H1 5896   4.046   5.134   4.441  0.0297 -0.1774  2.2293
 1895WAT     H2 5897   4.049   4.989   4.484  1.8193 -1.0633 -0.6213
 1896WAT      O 5898   1.612   2.208   3.788  0.3167  0.7155  0.1324
 1896WAT     H1 5899   1.652   2.195   3.703 -1.0471  1.7849 -0.7269
 1896WAT     H2 5900   1.604   2.303   3.797 -0.3459  0.5916  1.0569
 1897WAT      O 5901   3.198   4.047   0.237 -0.3283 -0.0561  0.1079
 1897WAT     H1 5902   3.208   4.051   0.141 -0.3033  1.0778  0.1399
 1897WAT     H2 5903   3.284   4.018   0.268 -0.4822 -0.9122 -0.2284
 1898WAT      O 5904   0.369   1.512   3.692 -0.3259 -0.3195  0.4537
 1898WAT     H1 5905   0.329   1.496   3.778  0.4805 -0.8202  0.7429
 1898WAT     H2 5906   0.432   1.583   3.709 -0.9147  0.3130  0.0469
 1899WAT      O 5907   2.085   1.882   2.356  0.3363 -0.1935  0.5155
 1899WAT     H1 5908   2.055   1.793   2.337  1.5380 -0.6252  0.5981
 1899WAT     H2 5909   2.177   1.882   2.333  0.8488  0.4593  2.3876
 1900WAT      O 5910   3.636   4.191   0.326 -0.1606 -0.3842 -0.1915
 1900WAT     H1 5911   3.660   4.258   0.262  2.3662 -0.8206  0.2144
 1900WAT     H2 5912   3.576   4.133   0.279 -0.5556  0.8434 -1.2585
 1901WAT      O 5913   2.325   4.486   1.005 -0.1382 -0.5617 -0.0843
 1901WAT     H1 5914   2.396   4.439   1.049  1.1916  2.7640  1.6798
 1901WAT     H2 5915   2.367   4.561   0.964 -2.3574  0.2119 -1.1301
 1902WAT      O 5916   2.992   2.160   4.731  0.4986  0.3325 -0.0804
 1902WAT     H1 5917   2.998   2.221   4.805  0.8966  0.3427 -0.1224
 1902WAT     H2 5918   2.947   2.210   4.663 -0.5278  0.0861  0.4010
 1903WAT      O 5919   1.536   0.689   3.370 -0.5800 -0.5278 -0.0744
 1903WAT     H1 5920   1.608   0.668   3.309 -1.2506 -0.3840 -0.9271
 1903WAT     H2 5921   1.500   0.603   3.393  0.1811 -0.6369  0.7640
 1904WAT      O 5922   2.499   2.855   1.976 -0.1645 -0.1061  0.4399
 1904WAT     H1 5923   2.588   2.824   1.991  0.0900  0.4212  0.0212
 1904WAT     H2 5924   2.485   2.924   2.041  0.7237  1.7490 -1.2351
 1905WAT      O 5925   0.393   5.108   4.704 -0.0394  0.1078  0.2307
 1905WAT     H1 5926   0.458   5.178   4.712 -1.5183  1.5126  0.5366
 1905WAT     H2 5927   0.423   5.056   4.629  1.5205  0.5973  0.4890
 1906WAT      O 5928   1.862   2.146   3.029 -0.2068  0.5907 -0.1944
 1906WAT     H1 5929   1.899   2.077   2.974 -1.3027  0.0123 -0.2116
 1906WAT     H2 5930   1.772   2.155   3.000  0.1694  2.7499 -0.8919
 1907WAT      O 5931   3.800   2.010   2.466 -0.2097 -0.0806 -0.0581
 1907WAT     H1 5932   3.871   2.064   2.502  0.4905 -1.9714  1.5798
 1907WAT     H2 5933   3.721   2.061   2.482  0.5042  0.8545  0.6232
 1908WAT      O 5934   2.749   1.803   4.310 -0.1756  0.4016 -0.1684
 1908WAT     H1 5935   2.684   1.831   4.375 -1.0445 -1.0297 -0.3727
 1908WAT     H2 5936   2.822   1.771   4.363 -0.5714 -0.0706  0.0998
 1909WAT      O 5937   4.335   2.796   1.068  0.1026 -0.5285  0.4400
 1909WAT     H1 5938   4.332   2.797   0.972  1.2340 -2.7399  0.3224
 1909WAT     H2 5939   4.352   2.887   1.092  2.9111 -0.3665 -1.6413
 1910WAT      O 5940   4.206   4.153   5.042 -0.2870 -0.3583 -0.5406
 1910WAT     H1 5941   4.127   4.110   5.072 -0.6972  1.7712  1.7966
 1910WAT     H2 5942   4.180   4.244   5.029  1.4977  0.1340 -0.9588
 1911WAT      O 5943   1.442   2.972   1.629 -0.2547 -0.0618  0.4213
 1911WAT     H1 5944   1.504   2.934   1.692  0.2420 -0.0476 -0.0538
 1911WAT     H2 5945   1.393   2.897   1.596 -0.4977 -0.0736  0.7965
 1912WAT      O 5946   3.362   1.723   2.084 -0.1024  0.2581  0.1398
 1912WAT     H1 5947   3.450   1.689   2.067  0.0251  0.3910  0.5300
 1912WAT     H2 5948   3.377   1.799   2.140 -0.3319  1.3824 -1.2870
 1913WAT      O 5949   3.769   3.972   0.804 -0.2245 -0.2949  0.0909
 1913WAT     H1 5950   3.833   3.902   0.793 -0.6767 -0.5127 -1.5107
 1913WAT     H2 5951   3.805   4.046   0.754  0.5606  0.8835  2.2812
 1914WAT      O 5952   4.448   1.809   1.212 -0.5829  0.2192 -0.7512
 1914WAT     H1 5953   4.501   1.854   1.277 -1.4028 -0.0000  0.0937
 1914WAT     H2 5954   4.511   1.769   1.153  0.1699  1.4259 -0.7978
 1915WAT      O 5955   0.891   4.255   0.772 -0.1050 -0.2671 -1.0634
 1915WAT     H1 5956   0.958   4.323   0.779 -0.4202  0.0611 -1.1671
 1915WAT     H2 5957   0.853   4.267   0.685 -1.5502  0.7522 -0.3307
 1916WAT      O 5958   4.368   0.204   5.186 -0.1371  0.0006 -0.2555
 1916WAT     H1 5959   4.375   0.267   5.114 -2.3578  0.2475 -0.3071
 1916WAT     H2 5960   4.316   0.249   5.253  0.3003 -0.9117  0.7365
 1917WAT      O 5961   3.754   1.205   4.753  0.3252 -0.4457 -0.1904
 1917WAT     H1 5962   3.786   1.224   4.841  0.9918 -2.1070 -0.0415
 1917WAT     H2 5963   3.827   1.158   4.711  0.8283  2.0352 -2.3427
 1918WAT      O 5964   2.820   3.246   5.009  0.2294 -0.2422  0.4671
 1918WAT     H1 5965   2.900   3.209   4.973  0.1330 -1.8666  1.8422
 1918WAT     H2 5966   2.772   3.277   4.931  0.7909 -2.0684 -0.6767
 1919WAT      O 5967   4.466   0.224   3.036  0.0669  0.2589 -0.1774
 1919WAT     H1 5968   4.473   0.315   3.008 -0.7913  0.2518 -0.4554
 1919WAT     H2 5969   4.385   0.193   2.995 -0.2489 -0.2962  0.8326
 1920WAT      O 5970   1.106   4.811   5.001 -0.4859 -0.7019  0.4564
 1920WAT     H1 5971   1.185   4.761   5.019  1.3008  2.0179  0.7150
 1920WAT     H2 5972   1.070   4.832   5.087  0.9036  1.5160  0.5725
 1921WAT      O 5973   1.837   4.126   5.125 -0.0736  0.2269 -0.5782
 1921WAT     H1 5974   1.805   4.107   5.213  1.7019 -0.8396 -0.1220
 1921WAT     H2 5975   1.760   4.160   5.078 -2.3862 -3.7480 -0.0864
 1922WAT      O 5976   4.043   1.080   1.010  0.5290 -0.1805  0.2266
 1922WAT     H1 5977   4.063   1.146   1.075  2.6735 -0.6606  0.1133
 1922WAT     H2 5978   3.947   1.071   1.014  0.4426  1.0381  2.0409
 1923WAT      O 5979   1.374   4.671   4.930  0.5609 -0.0799  0.3070
 1923WAT     H1 5980   1.360   4.731   4.856  0.5568  1.6722  1.6547
 1923WAT     H2 5981   1.452   4.621   4.905 -1.0447 -1.6095 -2.0970
 1924WAT      O 5982   2.779   0.879   5.139 -0.7837 -0.0463 -0.6670
 1924WAT     H1 5983   2.736   0.954   5.097  0.6830  0.6497 -0.9780
 1924WAT     H2 5984   2.770   0.896   5.233  3.7205  3.2633 -0.4895
 1925WAT      O 5985   1.092   0.734   4.454 -0.0943 -0.2944  0.2988
 1925WAT     H1 5986   1.173   0.785   4.451 -0.1677 -0.2186 -0.6897
 1925WAT     H2 5987   1.121   0.643   4.457  0.0394 -0.3067 -0.9821
 1926WAT      O 5988   2.345   3.947   3.188 -0.1823 -0.9276 -0.3448
 1926WAT     H1 5989   2.299   4.030   3.177  0.7217 -0.6284 -2.1389
 1926WAT     H2 5990   2.279   3.881   3.167 -0.5606 -0.6290 -0.1296
 1927WAT      O 5991   0.122   0.131   4.528 -0.4030 -0.0568  0.0180
 1927WAT     H1 5992   0.136   0.076   4.605 -2.6873  3.0108  2.9091
 1927WAT     H2 5993   0.028   0.124   4.510 -0.6346  2.3176  0.0707
 1928WAT      O 5994   3.076   2.167   0.211 -0.1572 -0.4358  0.6723
 1928WAT     H1 5995   3.104   2.252   0.243  1.7732 -1.3474  1.5625
 1928WAT     H2 5996   3.142   2.144   0.145 -0.3978 -1.4532  0.7760
 1929WAT      O 5997   2.397   2.149   3.838  0.4733  0.3933 -0.1736
 1929WAT     H1 5998   2.393   2.199   3.757  1.0132  0.1945 -0.3287
 1929WAT     H2 5999   2.376   2.059   3.813 -0.0190  0.4502  0.0223
 1930WAT      O 6000   0.406   3.304   1.639 -0.2298  0.4746 -0.2450
 1930WAT     H1 6001   0.387   3.274   1.728 -0.5731  2.3204  0.3675
 1930WAT     H2 6002   0.476   3.369   1.651 -0.3308  0.7948 -1.3015
 1931WAT      O 6003   2.836   4.912   3.917  0.5481  0.1774  1.3914
 1931WAT     H1 6004   2.890   4.891   3.993 -1.1941  0.6425  2.8122
 1931WAT     H2 6005   2.786   4.989   3.943 -1.2434 -0.5812  0.3875
 1932WAT      O 6006   2.041   3.103   1.400 -0.2620  0.6993  0.3931
 1932WAT     H1 6007   1.956   3.064   1.417  0.4459 -0.3049  1.8264
 1932WAT     H2 6008   2.103   3.047   1.447  0.7764  3.9308  3.2451
 1933WAT      O 6009   3.912   0.120   4.453  0.5075 -0.0280  0.0220
 1933WAT     H1 6010   3.828   0.093   4.490  0.5676 -0.3369 -0.0575
 1933WAT     H2 6011   3.893   0.202   4.407  0.1495 -0.3351 -0.3880
 1934WAT      O 6012   1.637   4.562   4.867  0.4533  0.3854  0.4684
 1934WAT     H1 6013   1.657   4.591   4.778 -1.3542  2.1245  0.5477
 1934WAT     H2 6014   1.664   4.636   4.923 -1.4393  0.7244  1.0060
 1935WAT      O 6015   1.652   4.264   0.793  0.0858 -0.1668  0.0335
 1935WAT     H1 6016   1.675   4.248   0.701  3.0394 -2.4687  1.0071
 1935WAT     H2 6017   1.558   4.246   0.798 -0.3186  0.8027 -2.6399
 1936WAT      O 6018   2.193   3.539   3.227  0.4033  0.6218  0.2250
 1936WAT     H1 6019   2.109   3.512   3.265 -0.0934  1.4286 -0.2575
 1936WAT     H2 6020   2.193   3.499   3.140  1.1060 -0.4279  0.6877
 1937WAT      O 6021   1.572   0.092   1.991 -0.7564 -0.0608 -0.5198
 1937WAT     H1 6022   1.505   0.055   1.933  0.6658 -0.5459 -1.9174
 1937WAT     H2 6023   1.526   0.162   2.038 -2.7601 -1.6364  0.0582
 1938WAT      O 6024   0.395   3.496   4.306  0.1810  0.2429  0.0204
 1938WAT     H1 6025   0.404   3.464   4.395  0.8899  1.5809  0.4501
 1938WAT     H2 6026   0.306   3.469   4.280 -0.0220 -0.1737  1.1064
 1939WAT      O 6027   1.679   4.816   1.891  0.0747  0.1566  0.2842
 1939WAT     H1 6028   1.632   4.854   1.817  0.8389  0.4223 -0.0771
 1939WAT     H2 6029   1.611   4.793   1.954 -0.5839 -0.0943 -0.5101
 1940WAT      O 6030   2.276   4.411   3.802 -0.1302 -0.7588 -0.0790
 1940WAT     H1 6031   2.203   4.450   3.850 -0.1720  1.0881 -1.5351
 1940WAT     H2 6032   2.240   4.392   3.715  0.9474 -0.4093 -0.6150
 1941WAT      O 6033   0.275   3.676   2.363 -0.3625 -0.3891 -0.2739
 1941WAT     H1 6034   0.214   3.652   2.294 -1.4067  0.1452  0.4318
 1941WAT     H2 6035   0.221   3.721   2.428  0.4963 -1.2930  1.1201
 1942WAT      O 6036   2.359   1.438   3.104 -0.2612 -0.8689  0.5618
 1942WAT     H1 6037   2.352   1.360   3.159  0.2218 -2.4640 -1.5373
 1942WAT     H2 6038   2.444   1.429   3.060 -0.1604  0.8932  0.3061
 1943WAT      O 6039   0.523   3.224   0.197 -0.1884 -0.2722  0.2343
 1943WAT     H1 6040   0.494   3.133   0.186 -3.4636  0.8422 -1.8151
 1943WAT     H2 6041   0.454   3.264   0.249  0.5897  1.3149  0.0786
 1944WAT      O 6042   2.280   3.136   0.377 -0.1192 -0.2713 -0.1496
 1944WAT     H1 6043   2.291   3.067   0.311 -1.3105 -1.7263  1.0756
 1944WAT     H2 6044   2.187   3.158   0.373 -0.3817 -0.9049  1.4567
 1945WAT      O 6045   0.481   2.521   2.320  0.0549 -0.3794  0.1425
 1945WAT     H1 6046   0.545   2.591   2.319  1.7687 -1.8683  0.3474
 1945WAT     H2 6047   0.402   2.559   2.282  1.6931  0.9234 -2.1303
 1946WAT      O 6048   1.534   2.220   3.261 -0.4332  0.4592  0.0790
 1946WAT     H1 6049   1.484   2.220   3.342 -0.7039  1.5779 -0.0701
 1946WAT     H2 6050   1.601   2.153   3.274 -1.9311 -1.0788  0.2977
 1947WAT      O 6051   0.498   1.099   2.896 -0.3766  0.7337 -0.0482
 1947WAT     H1 6052   0.510   1.058   2.811  1.7061  0.1315  0.4829
 1947WAT     H2 6053   0.505   1.193   2.879 -1.7541  0.7421 -0.7565
 1948WAT      O 6054   0.483   4.388   0.071 -0.7147  0.0591  0.5311
 1948WAT     H1 6055   0.561   4.357   0.024 -1.2980 -0.8298  0.1201
 1948WAT     H2 6056   0.415   4.392   0.005 -1.4009 -0.6494  1.1656
 1949WAT      O 6057   1.396   4.126   4.352  0.1355  0.0694 -0.1079
 1949WAT     H1 6058   1.380   4.119   4.446 -1.0762 -1.0382 -0.3673
 1949WAT     H2 6059   1.489   4.147   4.345  0.4289 -0.6352  1.3237
 1950WAT      O 6060   2.051   4.947   1.743 -0.3144  0.0029 -0.4292
 1950WAT     H1 6061   2.118   4.882   1.725  0.2119  0.7801 -1.3998
 1950WAT     H2 6062   1.982   4.929   1.681 -0.5411 -0.1520 -0.1321
 1951WAT      O 6063   3.509   0.668   2.500  0.2221  0.4441 -0.8696
 1951WAT     H1 6064   3.518   0.693   2.592  1.1165 -1.3841 -0.4083
 1951WAT     H2 6065   3.451   0.592   2.501  0.4715  0.2257 -1.7991
 1952WAT      O 6066   3.306   3.301   2.271  0.6145 -0.5084  0.0624
 1952WAT     H1 6067   3.292   3.263   2.184  1.0804 -0.6433  0.0464
 1952WAT     H2 6068   3.338   3.229   2.324  2.1526 -0.0154 -0.1398
 1953WAT      O 6069   0.166   4.770   2.461  0.5455 -0.7275 -0.4689
 1953WAT     H1 6070   0.142   4.693   2.512  0.2886  0.6124  1.5420
 1953WAT     H2 6071   0.153   4.743   2.370 -0.7294 -2.6425  0.2111
 1954WAT      O 6072   2.348   2.956   1.773  0.6673 -0.3142 -0.5788
 1954WAT     H1 6073   2.385   2.931   1.858  0.2432  0.3768 -0.1755
 1954WAT     H2 6074   2.383   3.043   1.756  0.2835 -0.2058 -0.8319
 1955WAT      O 6075   4.179   2.081   0.422 -0.1450  1.1247 -0.0413
 1955WAT     H1 6076   4.126   2.144   0.373 -2.2263 -0.9027 -0.5607
 1955WAT     H2 6077   4.255   2.065   0.367 -3.4454 -2.8358 -4.1731
 1956WAT      O 6078   1.667   4.499   5.158  0.0612  0.3659  0.1866
 1956WAT     H1 6079   1.706   4.423   5.202  0.6365  1.1311  1.0455
 1956WAT     H2 6080   1.673   4.479   5.065  0.9723 -0.2726  0.3735
 1957WAT      O 6081   0.367   1.983   2.969 -0.1491 -0.3172 -0.2631
 1957WAT     H1 6082   0.442   2.011   2.917  0.3025  0.1165  0.5980
 1957WAT     H2 6083   0.292   2.030   2.932  0.1995  0.1403 -0.3876
 1958WAT      O 6084   1.469   1.310   0.127  0.0070  0.2971  0.7951
 1958WAT     H1 6085   1.560   1.295   0.151  1.0110  1.0934 -2.0375
 1958WAT     H2 6086   1.457   1.404   0.137  0.4516  0.6544 -1.4052
 1959WAT      O 6087   4.011   0.945   1.948 -0.1670  0.3633  0.0153
 1959WAT     H1 6088   3.994   1.016   1.886  1.7830  0.3500 -0.6129
 1959WAT     H2 6089   3.963   0.870   1.911  1.7818  0.0699 -2.1563
 1960WAT      O 6090   2.931   2.528   4.352 -0.1504  0.0034  0.4159
 1960WAT     H1 6091   3.017   2.486   4.359  0.1755  0.3186 -1.2735
 1960WAT     H2 6092   2.875   2.476   4.410  0.3014 -2.6209 -1.2881
 1961WAT      O 6093   1.807   3.538   2.385  0.1439  0.1392  0.5849
 1961WAT     H1 6094   1.825   3.602   2.454 -0.6457 -0.8903  1.8011
 1961WAT     H2 6095   1.755   3.470   2.429  0.2203 -0.9014 -0.8670
 1962WAT      O 6096   2.073   4.449   1.324 -0.3068 -0.8419  0.0354
 1962WAT     H1 6097   2.142   4.515   1.319 -2.2248  1.2358 -2.2295
 1962WAT     H2 6098   2.050   4.432   1.232 -1.7002 -2.6570  0.6681
 1963WAT      O 6099   3.489   1.157   3.499  0.1042  0.2656 -0.3536
 1963WAT     H1 6100   3.399   1.128   3.515  0.5473 -1.0731 -0.0885
 1963WAT     H2 6101   3.505   1.224   3.565 -0.7840  0.6926 -0.5696
 1964WAT      O 6102   3.493   2.440   3.534 -0.4031  0.0147  0.0896
 1964WAT     H1 6103   3.421   2.421   3.594  0.0432 -2.0597  0.0240
 1964WAT     H2 6104   3.470   2.396   3.452  0.2998  0.4704 -0.3675
 1965WAT      O 6105   3.468   3.648   4.301  0.1062 -0.7248 -0.0049
 1965WAT     H1 6106   3.381   3.611   4.283 -0.0966 -0.6873  0.8569
 1965WAT     H2 6107   3.514   3.642   4.217 -0.0235 -2.6097  0.0152
 1966WAT      O 6108   0.224   4.709   3.720 -1.0619  0.2682 -0.3606
 1966WAT     H1 6109   0.161   4.665   3.662 -0.3906  1.0147 -1.7035
 1966WAT     H2 6110   0.171   4.770   3.771 -1.8351 -1.2259  0.6883
 1967WAT      O 6111   0.528   1.936   3.589 -0.1036  0.1041 -0.0001
 1967WAT     H1 6112   0.504   2.011   3.643 -1.1127  1.9441 -2.7853
 1967WAT     H2 6113   0.592   1.970   3.527 -0.8757 -1.1898 -1.5938
 1968WAT      O 6114   1.926   3.986   4.821  0.5481 -0.3021  0.1715
 1968WAT     H1 6115   1.910   3.954   4.733  0.4310 -0.0670  0.1056
 1968WAT     H2 6116   1.875   4.067   4.827  0.1492 -0.5832  0.6282
 1969WAT      O 6117   2.127   1.370   2.923 -0.2883 -0.1714 -0.5122
 1969WAT     H1 6118   2.184   1.373   3.000 -1.8846 -0.2357  0.7237
 1969WAT     H2 6119   2.178   1.324   2.857  0.6353 -1.3167  0.9360
 1970WAT      O 6120   0.334   5.008   1.552  0.1414  0.5225 -0.2535
 1970WAT     H1 6121   0.404   4.944   1.539 -1.9610 -1.8514 -0.7008
 1970WAT     H2 6122   0.324   5.051   1.467 -0.5093 -0.8759 -0.9172
 1971WAT      O 6123   1.226   1.792   3.323  0.4673 -0.1901 -0.0869
 1971WAT     H1 6124   1.226   1.872   3.376 -0.1989 -0.3210  0.1218
 1971WAT     H2 6125   1.309   1.794   3.276  1.1647 -0.1597  1.1078
 1972WAT      O 6126   0.928   0.075   0.248 -0.0074 -0.5685 -0.3418
 1972WAT     H1 6127   0.979   0.058   0.328  0.5644  1.7067 -0.1390
 1972WAT     H2 6128   0.845   0.028   0.262  1.2736 -2.8373  0.1301
 1973WAT      O 6129   3.834   2.624   1.566  0.1348 -0.1683  0.0171
 1973WAT     H1 6130   3.796   2.546   1.607  1.5425 -0.4592  0.8522
 1973WAT     H2 6131   3.868   2.592   1.482  0.9930 -0.5628  0.4940
 1974WAT      O 6132   2.467   0.168   1.904 -0.0324 -0.3896 -0.2912
 1974WAT     H1 6133   2.542   0.113   1.927  2.1612  2.8364  0.8775
 1974WAT     H2 6134   2.412   0.167   1.983 -1.0112 -2.2541 -0.9296
 1975WAT      O 6135   2.967   0.808   3.202  0.2004  0.2352 -0.5865
 1975WAT     H1 6136   2.928   0.722   3.186 -1.7531  1.0338 -0.3329
 1975WAT     H2 6137   3.054   0.802   3.162  0.0760 -1.8021 -0.6774
 1976WAT      O 6138   1.987   2.665   3.057  0.1379 -0.3904  0.1457
 1976WAT     H1 6139   1.923   2.650   2.987 -0.6404 -1.5032  1.0555
 1976WAT     H2 6140   2.060   2.606   3.035 -0.4929 -1.4076  0.7272
 1977WAT      O 6141   1.059   0.811   3.617  0.1009  0.1396 -0.1602
 1977WAT     H1 6142   0.970   0.813   3.583 -0.1676  2.9836  0.3939
 1977WAT     H2 6143   1.104   0.746   3.564 -2.6599 -2.7182  0.6992
 1978WAT      O 6144   2.722   4.288   4.529 -0.2683  0.2210  0.5989
 1978WAT     H1 6145   2.689   4.247   4.609 -0.2077 -1.0348 -0.0066
 1978WAT     H2 6146   2.688   4.378   4.533 -1.5122 -0.2576  1.3050
 1979WAT      O 6147   2.937   0.767   4.935 -0.0668 -0.5189 -0.4968
 1979WAT     H1 6148   2.885   0.824   4.991  0.6659  0.6462 -0.9695
 1979WAT     H2 6149   3.018   0.752   4.983  0.4348  0.2291 -1.1010
 1980WAT      O 6150   1.652   2.061   4.499 -0.2132  0.9016  0.1834
 1980WAT     H1 6151   1.702   2.008   4.437 -0.0607 -0.6968  1.5962
 1980WAT     H2 6152   1.561   2.043   4.477 -0.2544  2.8855 -1.6141
 1981WAT      O 6153   2.591   3.319   4.083  0.1599 -0.4367 -0.3391
 1981WAT     H1 6154   2.642   3.388   4.040 -1.9089  1.4362  0.0439
 1981WAT     H2 6155   2.542   3.278   4.011 -1.6585  1.2588 -0.1514
 1982WAT      O 6156   0.386   1.372   0.962  0.3484 -0.0211 -0.0361
 1982WAT     H1 6157   0.389   1.409   0.873  1.3420 -1.2555 -0.5335
 1982WAT     H2 6158   0.452   1.422   1.010 -0.5363  0.9914  0.1714
 1983WAT      O 6159   4.277   2.768   0.027  0.2088  0.4664 -0.3719
 1983WAT     H1 6160   4.259   2.683  -0.013  0.0619  0.2550  0.1353
 1983WAT     H2 6161   4.213   2.775   0.098  0.9187  0.5333  0.2652
 1984WAT      O 6162   1.644   3.347   2.517  0.3737 -0.4276 -0.2970
 1984WAT     H1 6163   1.565   3.305   2.482  0.1033 -0.6308  0.5246
 1984WAT     H2 6164   1.612   3.411   2.580  0.8070  0.7660 -1.2403
 1985WAT      O 6165   0.891   0.691   0.877 -0.3475 -0.3567 -0.6058
 1985WAT     H1 6166   0.956   0.648   0.821  0.3112 -0.5899  0.3170
 1985WAT     H2 6167   0.846   0.752   0.818 -1.0268 -1.9813 -1.8472
 1986WAT      O 6168   2.805   0.906   1.211  0.8617 -0.1712  0.0447
 1986WAT     H1 6169   2.842   0.831   1.165 -0.4416 -0.1032 -1.1733
 1986WAT     H2 6170   2.717   0.877   1.237  1.1000  0.2440  1.3784
 1987WAT      O 6171   3.598   3.312   1.735  0.3632 -0.0237 -0.3141
 1987WAT     H1 6172   3.673   3.372   1.735 -0.5910  1.2229 -0.1906
 1987WAT     H2 6173   3.551   3.332   1.654 -1.2393  1.0992  0.8164
 1988WAT      O 6174   0.729   1.129   2.752  0.1993  0.1664 -0.3216
 1988WAT     H1 6175   0.764   1.055   2.800  0.4445  0.0300 -0.7060
 1988WAT     H2 6176   0.768   1.122   2.665  1.7769  1.8459  0.1954
 1989WAT      O 6177   4.309   5.064   5.209  0.1336  0.6177  0.5469
 1989WAT     H1 6178   4.342   5.153   5.212 -0.7836  0.9533  0.9287
 1989WAT     H2 6179   4.237   5.062   5.271 -1.3694  0.2370 -1.1126
 1990WAT      O 6180   4.374   4.832   1.962  0.1662 -0.5587  0.1870
 1990WAT     H1 6181   4.416   4.841   1.877 -1.6288 -2.9693 -1.0415
 1990WAT     H2 6182   4.284   4.861   1.948  0.0586 -0.1755  1.5159
 1991WAT      O 6183   1.168   3.654   4.140 -0.2245  0.2626 -0.0059
 1991WAT     H1 6184   1.194   3.634   4.230  1.7352  2.4018 -0.0299
 1991WAT     H2 6185   1.106   3.726   4.148 -1.8333 -1.0118 -0.3159
 1992WAT      O 6186   0.732   0.434   4.138 -0.6211  0.1781  0.0539
 1992WAT     H1 6187   0.733   0.527   4.160  1.0338  0.1822  0.0589
 1992WAT     H2 6188   0.779   0.391   4.209 -0.8348 -0.5931 -0.2568
 1993WAT      O 6189   1.772   0.488   2.400  0.1725 -0.6639 -0.2748
 1993WAT     H1 6190   1.722   0.567   2.378  0.7185 -0.2050  0.1284
 1993WAT     H2 6191   1.824   0.512   2.476 -1.3507 -2.1021  1.3052
 1994WAT      O 6192   0.809   2.905   2.539  0.0244 -0.5926 -0.4992
 1994WAT     H1 6193   0.862   2.980   2.564 -1.6233  0.5643 -0.2880
 1994WAT     H2 6194   0.853   2.830   2.578  1.0847  0.4085  0.2771
 1995WAT      O 6195   4.231   0.958   5.144  0.4589 -0.1982  0.1314
 1995WAT     H1 6196   4.280   1.040   5.152  1.4942 -0.9423  1.8105
 1995WAT     H2 6197   4.283   0.906   5.082  0.7917 -0.2873  0.4860
 1996WAT      O 6198   1.947   0.844   1.725  0.4097 -0.0970 -0.4663
 1996WAT     H1 6199   1.915   0.903   1.794 -0.0960 -0.6599 -0.2115
 1996WAT     H2 6200   2.029   0.883   1.696  1.0821 -0.3389  1.0747
 1997WAT      O 6201   2.184   3.806   2.861 -0.6093  0.7892  0.0384
 1997WAT     H1 6202   2.114   3.746   2.834  0.9045 -0.4759 -1.3437
 1997WAT     H2 6203   2.168   3.821   2.954 -1.4688 -1.2431  0.2822
 1998WAT      O 6204   3.821   2.811   2.096  0.2225  0.2646  0.1019
 1998WAT     H1 6205   3.882   2.739   2.079  0.7318  0.3060  1.6079
 1998WAT     H2 6206   3.739   2.782   2.057  0.9496 -0.2159 -1.1303
 1999WAT      O 6207   0.204   1.796   3.124  0.1543 -0.0462  0.1353
 1999WAT     H1 6208   0.181   1.884   3.095  0.2295 -0.1508 -0.2465
 1999WAT     H2 6209   0.257   1.810   3.203  1.5059  0.3181 -0.8072
 2000WAT      O 6210   0.778   2.368   3.399 -0.5521  0.0665 -0.5566
 2000WAT     H1 6211   0.844   2.432   3.370  1.1769 -2.0002 -1.4410
 2000WAT     H2 6212   0.717   2.362   3.326 -0.5823  0.5121 -0.5727
 2001WAT      O 6213   0.961   2.724   2.694  0.2654  0.5489  0.2233
 2001WAT     H1 6214   1.033   2.758   2.748  1.2450  0.0067 -0.6914
 2001WAT     H2 6215   1.004   2.665   2.632 -1.0080  0.0708 -0.2344
 2002WAT      O 6216   3.221   2.295   1.503  0.4888 -0.4232 -0.4812
 2002WAT     H1 6217   3.251   2.282   1.413 -0.5864  1.0600 -1.0927
 2002WAT     H2 6218   3.169   2.376   1.500  2.0668  0.8058  1.8693
 2003WAT      O 6219   1.366   5.102   4.580  0.9200  1.0028  0.1357
 2003WAT     H1 6220   1.459   5.123   4.571  1.0730  0.4752  0.4375
 2003WAT     H2 6221   1.360   5.057   4.664  0.5316  0.2200 -0.3042
 2004WAT      O 6222   3.590   3.654   2.664  0.1139 -0.4797 -0.2297
 2004WAT     H1 6223   3.495   3.659   2.665 -0.0877 -2.9527  0.6918
 2004WAT     H2 6224   3.614   3.648   2.572 -0.6386 -0.1605 -0.4462
 2005WAT      O 6225   1.323   1.509   4.505 -0.1927 -0.4171 -0.4341
 2005WAT     H1 6226   1.349   1.456   4.430  0.6912  1.4917 -1.5586
 2005WAT     H2 6227   1.309   1.597   4.469 -0.7362  0.3429  1.4742
 2006WAT      O 6228   3.690   4.939   3.396 -0.4260  0.0475  0.4044
 2006WAT     H1 6229   3.637   5.018   3.389 -1.7701 -0.8543  0.2052
 2006WAT     H2 6230   3.637   4.870   3.357  1.2189 -0.7463 -0.5652
 2007WAT      O 6231   3.282   0.331   2.284  0.9374  0.8915 -0.2939
 2007WAT     H1 6232   3.202   0.365   2.323  0.4660 -1.0023  0.5103
 2007WAT     H2 6233   3.260   0.313   2.193  0.2436 -0.1566  0.0653
 2008WAT      O 6234   1.325   1.308   2.246  0.2965 -0.3296  0.0916
 2008WAT     H1 6235   1.268   1.383   2.232 -0.4818 -1.0102 -0.4977
 2008WAT     H2 6236   1.270   1.232   2.226  0.6098 -1.1516  2.1135
 2009WAT      O 6237   0.689   0.210   1.847  0.2211 -0.0464 -0.3231
 2009WAT     H1 6238   0.697   0.115   1.845 -2.1927 -0.3153 -0.2845
 2009WAT     H2 6239   0.627   0.230   1.777 -0.9526  1.2428  0.9996
 2010WAT      O 6240   3.723   1.497   2.993  0.5387 -0.1361  0.1677
 2010WAT     H1 6241   3.739   1.415   2.947  1.2330 -0.1334  0.3935
 2010WAT     H2 6242   3.752   1.565   2.932 -1.2409  0.0357 -0.5554
 2011WAT      O 6243   2.908   4.084   4.237  0.7116  0.2915 -0.6863
 2011WAT     H1 6244   2.914   3.988   4.233  1.3104  0.2882 -0.0203
 2011WAT     H2 6245   2.844   4.107   4.170 -0.8749 -0.7087  0.4102
 2012WAT      O 6246   4.063   4.830   5.210 -0.4596 -0.0915  0.5604
 2012WAT     H1 6247   4.021   4.768   5.269  0.9925 -0.1440  1.5891
 2012WAT     H2 6248   4.108   4.892   5.268  0.3296  0.3464 -0.4848
 2013WAT      O 6249   0.667   2.791   4.292  0.3427  0.2858  0.3013
 2013WAT     H1 6250   0.621   2.711   4.317  0.1824  0.5801  0.9831
 2013WAT     H2 6251   0.671   2.788   4.196  1.8715 -1.3895  0.3580
 2014WAT      O 6252   0.498   3.457   0.037  0.0554 -0.4571  0.0991
 2014WAT     H1 6253   0.444   3.449  -0.042  0.9945  1.0153 -0.7297
 2014WAT     H2 6254   0.522   3.367   0.058  0.5565 -0.8365 -1.8474
 2015WAT      O 6255   4.406   3.710   4.805 -0.1061  0.4147  0.4219
 2015WAT     H1 6256   4.330   3.749   4.759 -0.5517 -0.1982  0.6324
 2015WAT     H2 6257   4.380   3.620   4.822  1.3023 -0.2871 -0.9282
 2016WAT      O 6258   1.482   5.110   2.851  0.1433 -0.0795 -0.3362
 2016WAT     H1 6259   1.454   5.019   2.843  0.5289 -0.2103 -0.2185
 2016WAT     H2 6260   1.571   5.105   2.884 -0.8173  0.3604  2.6518
 2017WAT      O 6261   3.914   4.203   5.270  0.2285  0.1013  0.0661
 2017WAT     H1 6262   3.878   4.231   5.354 -1.5643  0.6726 -0.8543
 2017WAT     H2 6263   3.843   4.215   5.207  0.9012 -2.0623 -1.2337
 2018WAT      O 6264   3.588   2.906   2.283 -0.1901  0.0168  0.0431
 2018WAT     H1 6265   3.667   2.856   2.299 -1.2685 -2.4050 -1.5920
 2018WAT     H2 6266   3.576   2.902   2.188 -1.8769  0.9229  0.1789
 2019WAT      O 6267   0.186   4.284   2.005  0.1674  0.2764 -0.2877
 2019WAT     H1 6268   0.254   4.342   1.973  0.4137  0.1375 -0.0228
 2019WAT     H2 6269   0.221   4.249   2.087 -0.4688  0.6735  0.1711
 2020WAT      O 6270   0.607   4.061   1.567 -0.1083 -0.3950 -0.1059
 2020WAT     H1 6271   0.605   3.995   1.636  0.3600 -0.0256  0.2721
 2020WAT     H2 6272   0.523   4.106   1.574 -0.2112 -0.6005 -0.0180
 2021WAT      O 6273   3.429   0.253   0.600 -0.3119  0.0790  0.3633
 2021WAT     H1 6274   3.402   0.163   0.581  1.4719 -0.4769  0.3571
 2021WAT     H2 6275   3.409   0.301   0.519 -0.5895 -0.4691  0.0976
 2022WAT      O 6276   0.388   0.768   5.063 -0.6459  0.2675  0.0263
 2022WAT     H1 6277   0.334   0.835   5.022 -0.7408 -0.2483 -0.7039
 2022WAT     H2 6278   0.352   0.760   5.152  0.1389  2.0260  0.5538
 2023WAT      O 6279   1.478   0.414   0.147  0.1013  0.1799  0.3933
 2023WAT     H1 6280   1.397   0.376   0.113  1.2425 -0.4938 -1.7390
 2023WAT     H2 6281   1.455   0.504   0.168 -1.2352 -0.0339 -0.0432
 2024WAT      O 6282   1.598   2.772   0.449 -0.3982 -0.0428  0.3504
 2024WAT     H1 6283   1.555   2.757   0.534 -1.1081 -1.5314 -0.2364
 2024WAT     H2 6284   1.585   2.865   0.431  1.5998  0.8417  2.8444
 2025WAT      O 6285   0.653   3.030   1.649 -0.1336 -0.4266 -0.3727
 2025WAT     H1 6286   0.565   3.031   1.612 -0.3302  2.1941 -0.0418
 2025WAT     H2 6287   0.696   3.107   1.612  1.0473 -0.0406  1.6111
 2026WAT      O 6288   2.105   3.603   0.128 -0.0443  0.1635 -0.3569
 2026WAT     H1 6289   2.043   3.637   0.194  0.6846 -0.5797  0.7392
 2026WAT     H2 6290   2.135   3.681   0.082 -0.0669  0.7894  0.6496
 2027WAT      O 6291   4.052   4.612   1.465  0.4730 -0.3867  0.1399
 2027WAT     H1 6292   4.064   4.631   1.372  2.9589 -1.2438  0.2287
 2027WAT     H2 6293   4.140   4.612   1.502 -0.5260  1.4075  2.8537
 2028WAT      O 6294   1.777   0.483   3.327  0.2676 -0.4601  0.4467
 2028WAT     H1 6295   1.746   0.451   3.242  1.3629 -1.1288  0.2836
 2028WAT     H2 6296   1.744   0.419   3.390 -0.5201  0.0204  0.5431
 2029WAT      O 6297   3.956   2.427   1.359 -0.2667  0.0683 -0.2774
 2029WAT     H1 6298   3.927   2.358   1.419  0.4908  0.0834  0.1180
 2029WAT     H2 6299   4.011   2.381   1.295 -2.0916 -0.1732 -1.7549
 2030WAT      O 6300   0.880   0.186   3.115 -0.0533 -0.3210  1.2400
 2030WAT     H1 6301   0.891   0.195   3.020 -2.2935  0.8305  1.0388
 2030WAT     H2 6302   0.883   0.275   3.147 -1.1866 -0.5580  2.0209
 2031WAT      O 6303   2.711   0.972   3.358  0.5732 -0.1259  0.0266
 2031WAT     H1 6304   2.803   0.959   3.378  0.4678  0.2823  0.8052
 2031WAT     H2 6305   2.701   1.066   3.347  0.4345 -0.2525 -1.0396
 2032WAT      O 6306   1.043   2.413   4.495 -0.4758  0.4632 -0.1685
 2032WAT     H1 6307   0.976   2.466   4.451  1.6844  1.4303 -2.5595
 2032WAT     H2 6308   1.068   2.347   4.430  1.3595  0.5782  0.3709
 2033WAT      O 6309   3.155   3.768   3.998  0.0564 -0.5016  0.1756
 2033WAT     H1 6310   3.170   3.851   4.043 -0.2004 -0.3849  0.0483
 2033WAT     H2 6311   3.222   3.765   3.930  1.4512 -1.3824  1.4984
 2034WAT      O 6312   3.448   0.319   1.432  0.1148  0.7203  0.4173
 2034WAT     H1 6313   3.470   0.233   1.466 -1.1738  0.7189  1.3095
 2034WAT     H2 6314   3.413   0.367   1.508 -0.0462  1.7160 -0.2639
 2035WAT      O 6315   3.543   0.707   1.638  0.5215  0.4560  0.4109
 2035WAT     H1 6316   3.638   0.717   1.651  0.5353 -0.5803  1.1760
 2035WAT     H2 6317   3.505   0.786   1.677  0.9699  0.1539  1.4745
 2036WAT      O 6318   1.953   3.411   0.551  0.1924  0.1663 -0.5596
 2036WAT     H1 6319   1.875   3.439   0.503 -1.1983 -0.0645  1.4436
 2036WAT     H2 6320   1.952   3.465   0.631  2.6254  0.8147 -0.8944
 2037WAT      O 6321   1.848   4.628   1.805  0.3662 -0.3396 -0.4575
 2037WAT     H1 6322   1.867   4.676   1.724  1.1401  1.2522  0.6255
 2037WAT     H2 6323   1.789   4.685   1.854 -0.0221 -1.2423  0.1552
 2038WAT      O 6324   1.633   3.684   3.662 -0.3224  0.5296  0.2523
 2038WAT     H1 6325   1.568   3.636   3.610 -0.1405 -0.2272  0.7093
 2038WAT     H2 6326   1.694   3.719   3.597 -0.5988  0.3536 -0.1065
 2039WAT      O 6327   3.195   2.722   0.928 -0.0761  0.0465 -0.0710
 2039WAT     H1 6328   3.172   2.781   0.856  0.1276  0.3442  0.1047
 2039WAT     H2 6329   3.165   2.636   0.899 -1.5919  0.4436  0.2255
 2040WAT      O 6330   0.584   0.733   1.268 -0.5156 -0.4119  0.0340
 2040WAT     H1 6331   0.638   0.731   1.347  1.5164 -2.1558 -1.3006
 2040WAT     H2 6332   0.495   0.725   1.300  0.2893 -1.8424  2.1307
 2041WAT      O 6333   0.907   4.785   2.870  0.4416  0.6348 -0.2829
 2041WAT     H1 6334   0.886   4.741   2.787  1.2272  1.3333 -0.8668
 2041WAT     H2 6335   0.993   4.751   2.893  0.7673  1.3751 -0.3992
 2042WAT      O 6336   0.230   4.422   4.287  0.1515  0.5055  0.2571
 2042WAT     H1 6337   0.251   4.498   4.232  1.1233 -0.6820 -1.1014
 2042WAT     H2 6338   0.187   4.361   4.227 -0.3840 -0.1341  1.2730
 2043WAT      O 6339   1.284   4.628   2.200  0.5333 -0.4552 -0.0346
 2043WAT     H1 6340   1.330   4.690   2.257 -1.0969  1.3220 -0.5607
 2043WAT     H2 6341   1.304   4.656   2.111 -0.2821 -0.6061 -0.2819
 2044WAT      O 6342   0.578   0.190   3.055  0.3482  0.5053 -0.5099
 2044WAT     H1 6343   0.556   0.185   2.962  0.8821 -0.4054 -0.6043
 2044WAT     H2 6344   0.668   0.158   3.059  0.4113  0.7881  0.2864
 2045WAT      O 6345   3.552   1.373   3.652  0.5100 -0.3214  0.3872
 2045WAT     H1 6346   3.642   1.404   3.651  0.9229 -1.4850 -0.3599
 2045WAT     H2 6347   3.504   1.440   3.602  0.8297  0.6033  1.2901
 2046WAT      O 6348   3.735   1.611   1.687 -0.6883 -0.1151 -0.3832
 2046WAT     H1 6349   3.768   1.649   1.606  1.3786 -0.9520  0.0124
 2046WAT     H2 6350   3.648   1.648   1.697  0.5526  3.2032 -0.8610
 2047WAT      O 6351   1.769   2.565   2.882 -0.0218 -0.6002  0.2924
 2047WAT     H1 6352   1.718   2.568   2.963  0.0962 -0.1117  0.3513
 2047WAT     H2 6353   1.732   2.491   2.834 -2.8082  1.4330 -0.9647
 2048WAT      O 6354   1.055   4.917   5.279  0.2108  0.8834  0.3603
 2048WAT     H1 6355   1.041   5.012   5.273  0.4827  0.9792  1.1294
 2048WAT     H2 6356   1.145   4.909   5.308 -0.3410  0.4443  2.0698
 2049WAT      O 6357   2.641   4.846   4.149  0.5324  0.6584 -0.1429
 2049WAT     H1 6358   2.569   4.844   4.086  0.0110  1.8606  0.3801
 2049WAT     H2 6359   2.703   4.780   4.117 -0.3024  0.3571 -1.1948
 2050WAT      O 6360   2.858   3.488   2.578  0.2812 -0.1739 -0.3826
 2050WAT     H1 6361   2.921   3.428   2.618 -0.0704 -0.2062  0.1251
 2050WAT     H2 6362   2.907   3.568   2.561  0.4671 -0.2129 -0.0233
 2051WAT      O 6363   3.405   0.160   4.012  0.1526  0.3324  0.9473
 2051WAT     H1 6364   3.468   0.223   4.045  1.7388 -2.3682  3.5810
 2051WAT     H2 6365   3.336   0.157   4.079 -0.7993  0.4656  0.0057
 2052WAT      O 6366   1.857   4.556   3.029  0.4314 -0.3999 -0.3026
 2052WAT     H1 6367   1.786   4.578   3.089  0.7695 -0.4730  0.1321
 2052WAT     H2 6368   1.876   4.464   3.046  3.3445  0.5279  2.5574
 2053WAT      O 6369   1.574   4.052   2.842  0.2716 -0.6009 -0.2472
 2053WAT     H1 6370   1.580   4.093   2.755  0.3106 -0.8017 -0.3393
 2053WAT     H2 6371   1.498   3.994   2.836 -0.2550  0.0332  0.1281
 2054WAT      O 6372   4.152   3.289   4.884  0.4736 -0.1743 -0.3476
 2054WAT     H1 6373   4.196   3.368   4.915  0.9926  0.5880 -2.7905
 2054WAT     H2 6374   4.222   3.224   4.875  0.5480  0.0114 -1.1246
 2055WAT      O 6375   2.433   2.703   0.175 -0.4940 -0.4059  0.1939
 2055WAT     H1 6376   2.371   2.665   0.238 -1.6902 -1.7771 -1.6661
 2055WAT     H2 6377   2.511   2.722   0.226 -2.1010  0.5124  2.4807
 2056WAT      O 6378   3.020   2.995   4.100  0.3535  0.7670 -0.1553
 2056WAT     H1 6379   2.929   3.022   4.112  0.0924  0.7714 -1.9626
 2056WAT     H2 6380   3.021   2.904   4.128 -0.9793 -0.2331 -2.9857
 2057WAT      O 6381   3.987   1.951   1.557  0.1169  0.4025 -0.6922
 2057WAT     H1 6382   3.991   2.043   1.531 -2.5430  0.5095 -1.0563
 2057WAT     H2 6383   3.946   1.952   1.643  0.9436 -0.4107 -0.2764
 2058WAT      O 6384   3.625   4.171   3.654 -0.1376 -0.5157  0.7424
 2058WAT     H1 6385   3.656   4.259   3.678  0.3005 -0.5947  0.4783
 2058WAT     H2 6386   3.579   4.140   3.732  0.5127 -0.4216  1.1728
 2059WAT      O 6387   3.101   1.505   3.999  0.6105  0.0901  0.2080
 2059WAT     H1 6388   3.114   1.569   3.929 -2.0171  1.3910  0.7710
 2059WAT     H2 6389   3.174   1.520   4.059  1.1599  1.1430 -0.6823
 2060WAT      O 6390   1.468   2.694   0.187  0.1528  0.4787  0.0394
 2060WAT     H1 6391   1.465   2.598   0.192 -0.7011  0.5185  0.5743
 2060WAT     H2 6392   1.492   2.721   0.276 -0.5791  0.7784  0.1565
 2061WAT      O 6393   4.212   0.289   1.793 -0.8790  0.2301  0.5059
 2061WAT     H1 6394   4.232   0.264   1.883 -0.4207  0.2123  0.3983
 2061WAT     H2 6395   4.152   0.363   1.801 -1.0848  0.0295  0.8242
 2062WAT      O 6396   2.942   2.370   2.981 -0.0603 -0.1811  0.1633
 2062WAT     H1 6397   3.005   2.409   3.042  1.0978 -0.2248 -0.9459
 2062WAT     H2 6398   2.865   2.351   3.034  0.8968 -0.2113  1.5916
 2063WAT      O 6399   2.152   4.277   4.500  0.0558 -0.4428  0.1524
 2063WAT     H1 6400   2.205   4.357   4.499  1.7511 -1.5272 -1.2462
 2063WAT     H2 6401   2.159   4.245   4.590 -1.0005  1.1477  0.8587
 2064WAT      O 6402   3.328   4.346   3.456 -0.5946  0.6220  0.3238
 2064WAT     H1 6403   3.373   4.347   3.540 -1.6185 -2.0193  0.9768
 2064WAT     H2 6404   3.238   4.371   3.477 -0.8578 -0.0623  0.0152
 2065WAT      O 6405   1.370   3.173   0.735  0.0458  0.3074  0.6316
 2065WAT     H1 6406   1.404   3.246   0.788  0.1455  0.7870 -0.0861
 2065WAT     H2 6407   1.439   3.154   0.672 -0.8916  1.1363 -0.6961
 2066WAT      O 6408   4.362   4.769   4.878  0.3759 -0.4601  0.9588
 2066WAT     H1 6409   4.407   4.851   4.897 -0.5152  0.3087 -0.1217
 2066WAT     H2 6410   4.386   4.712   4.951  2.8373 -0.0234  0.5962
 2067WAT      O 6411   3.878   0.796   1.344 -0.3423  0.4574 -0.5130
 2067WAT     H1 6412   3.880   0.777   1.438 -0.7431 -0.5768 -0.6954
 2067WAT     H2 6413   3.787   0.817   1.325 -0.1823  1.0748 -0.5962
 2068WAT      O 6414   0.022   3.262   2.044 -0.0435  0.5967 -0.8656
 2068WAT     H1 6415   0.029   3.187   2.103  1.5194  1.6106  0.3330
 2068WAT     H2 6416   0.014   3.224   1.957  0.3204 -0.9605 -0.2486
 2069WAT      O 6417   0.980   4.805   0.548 -0.2986 -0.2610 -0.1452
 2069WAT     H1 6418   1.002   4.739   0.483 -1.6931 -1.3474  0.4422
 2069WAT     H2 6419   0.888   4.825   0.532 -0.5969 -0.3545  1.2988
 2070WAT      O 6420   1.094   1.321   0.495  0.4199 -0.1273 -0.4909
 2070WAT     H1 6421   1.155   1.394   0.480 -0.8160  0.8188 -1.1149
 2070WAT     H2 6422   1.083   1.317   0.590 -0.8506  1.6995 -0.5144
 2071WAT      O 6423   0.411   1.100   0.726  0.1010  0.0132 -0.8313
 2071WAT     H1 6424   0.483   1.143   0.771 -0.4914  1.8487 -1.5617
 2071WAT     H2 6425   0.416   1.133   0.636 -0.7113 -1.0613 -1.3023
 2072WAT      O 6426   2.746   4.201   4.004 -0.2283  0.0361 -0.0453
 2072WAT     H1 6427   2.731   4.257   3.928 -0.7829  1.3210  0.9835
 2072WAT     H2 6428   2.660   4.190   4.044  0.1700  0.0230  0.8407
 2073WAT      O 6429   1.729   4.122   3.798 -0.0438 -0.6682 -0.2841
 2073WAT     H1 6430   1.685   4.181   3.858  0.8211 -0.7417  0.4483
 2073WAT     H2 6431   1.724   4.036   3.841  0.1212 -0.8236 -0.5692
 2074WAT      O 6432   3.141   4.609   4.052  0.2653 -0.5697 -0.0914
 2074WAT     H1 6433   3.085   4.577   3.980 -0.2420  0.4535 -0.1694
 2074WAT     H2 6434   3.083   4.664   4.104  1.4108  1.3324 -0.7167
 2075WAT      O 6435   3.917   2.003   0.880  0.4251 -0.9503  0.0235
 2075WAT     H1 6436   3.834   1.958   0.867  1.3788 -2.1102 -2.9331
 2075WAT     H2 6437   3.983   1.936   0.862  1.9289  0.7195 -0.9762
 2076WAT      O 6438   2.772   2.966   0.712 -0.0214  0.3762  0.4377
 2076WAT     H1 6439   2.754   2.957   0.619  1.7410 -0.7807  0.1671
 2076WAT     H2 6440   2.741   3.054   0.734  0.4754  1.0733 -1.4647
 2077WAT      O 6441   3.247   0.542   3.897 -0.0891  0.1977  0.0621
 2077WAT     H1 6442   3.166   0.594   3.895 -0.9973 -1.1551  0.7936
 2077WAT     H2 6443   3.302   0.585   3.963 -0.9285  0.0988  0.8365
 2078WAT      O 6444   4.264   0.951   1.614 -0.3648 -0.1344 -0.5450
 2078WAT     H1 6445   4.331   1.017   1.628  0.4265 -1.3729  2.0498
 2078WAT     H2 6446   4.195   0.998   1.566  1.0897  1.9279 -0.7793
 2079WAT      O 6447   2.745   3.459   3.889  0.7870  0.5172  0.1702
 2079WAT     H1 6448   2.680   3.485   3.824  0.4944 -0.6599 -0.0271
 2079WAT     H2 6449   2.811   3.528   3.886  0.8973  0.3596 -1.5437
 2080WAT      O 6450   0.413   0.162   3.488  0.7127 -0.0856 -0.1435
 2080WAT     H1 6451   0.341   0.160   3.424  0.2700  0.3161  0.3369
 2080WAT     H2 6452   0.445   0.253   3.486  0.3570  0.0618  0.5760
 2081WAT      O 6453   4.005   0.330   2.770  0.3931  0.1223 -0.4139
 2081WAT     H1 6454   4.017   0.365   2.681 -1.0700  1.7985  0.0054
 2081WAT     H2 6455   3.922   0.283   2.765 -0.2769  1.2041  0.3392
 2082WAT      O 6456   4.413   4.463   2.396  0.5234  0.3142  0.1378
 2082WAT     H1 6457   4.383   4.552   2.379 -0.9261  0.2631  2.0526
 2082WAT     H2 6458   4.428   4.426   2.310  2.3936  2.7692 -0.7268
 2083WAT      O 6459   3.430   4.898   4.461 -0.7636 -0.2937 -0.0181
 2083WAT     H1 6460   3.367   4.843   4.414 -1.4534  0.8161 -0.4162
 2083WAT     H2 6461   3.377   4.949   4.523  0.0285 -1.0748  1.3653
 2084WAT      O 6462   2.962   4.969   4.141  0.2619 -0.4569  0.0005
 2084WAT     H1 6463   2.961   5.064   4.154  2.6652 -0.4244  0.4148
 2084WAT     H2 6464   3.053   4.949   4.121 -0.2876 -2.6444 -0.5444
 2085WAT      O 6465   1.953   4.558   3.623 -0.2655  0.1332 -0.1558
 2085WAT     H1 6466   1.925   4.467   3.627  0.0693  0.0607  0.9548
 2085WAT     H2 6467   1.919   4.590   3.539  1.4458 -1.5885 -1.5775
 2086WAT      O 6468   2.103   2.255   3.346 -0.5018 -0.6382 -0.1066
 2086WAT     H1 6469   2.016   2.289   3.325 -0.5533 -0.1780  0.8203
 2086WAT     H2 6470   2.145   2.326   3.395 -0.0711 -1.3489  0.5681
 2087WAT      O 6471   1.143   4.263   3.684  0.0530  0.1430  0.2378
 2087WAT     H1 6472   1.052   4.291   3.698  0.2018  0.0216  1.5286
 2087WAT     H2 6473   1.191   4.344   3.667 -0.5763  0.0631 -2.2976
 2088WAT      O 6474   2.274   4.002   1.919  0.4225  0.4781 -0.1291
 2088WAT     H1 6475   2.275   3.982   2.012  0.6991  1.3943  0.0683
 2088WAT     H2 6476   2.266   3.916   1.877 -2.2153  0.2005  0.7734
 2089WAT      O 6477   0.975   4.086   3.575  0.3651 -0.0126 -0.1121
 2089WAT     H1 6478   1.057   4.135   3.582  0.0939  0.3753  0.3705
 2089WAT     H2 6479   0.908   4.146   3.606  0.1731 -1.1051  1.7256
 2090WAT      O 6480   3.909   1.667   2.271  0.4943 -0.6686  0.4972
 2090WAT     H1 6481   3.970   1.696   2.339  0.2254  3.1100 -0.6736
 2090WAT     H2 6482   3.962   1.664   2.191  0.0787 -1.8254  0.2391
 2091WAT      O 6483   2.962   4.033   4.526 -0.1152 -0.3975  0.2182
 2091WAT     H1 6484   2.972   4.105   4.588 -1.6473 -1.7430  2.1965
 2091WAT     H2 6485   2.938   4.075   4.444 -2.7962  1.3837  1.7429
 2092WAT      O 6486   0.919   2.601   2.118 -0.1330  0.6900  0.5730
 2092WAT     H1 6487   0.858   2.635   2.184  0.9039  1.2983  1.2367
 2092WAT     H2 6488   0.996   2.656   2.126  0.9421 -0.7426  0.4820
 2093WAT      O 6489   2.495   4.285   1.214 -0.3606  0.5943  0.5136
 2093WAT     H1 6490   2.551   4.274   1.291 -0.2870 -1.8846  0.1804
 2093WAT     H2 6491   2.423   4.223   1.227 -1.8662  2.1007 -0.1543
 2094WAT      O 6492   3.534   4.267   0.573  0.1309  0.0245 -0.3447
 2094WAT     H1 6493   3.578   4.245   0.491  0.2953 -2.3103  0.3161
 2094WAT     H2 6494   3.547   4.362   0.582  1.0507  0.1470 -2.4437
 2095WAT      O 6495   3.694   2.773   1.762  0.0730  0.0957  0.5353
 2095WAT     H1 6496   3.734   2.739   1.682  0.9436 -0.9415  1.3834
 2095WAT     H2 6497   3.685   2.867   1.746  1.2113  0.0775 -0.3775
 2096WAT      O 6498   3.050   4.964   1.364  0.5097  0.1515 -0.0356
 2096WAT     H1 6499   3.124   4.986   1.420  0.6941 -0.2607 -0.1128
 2096WAT     H2 6500   3.089   4.930   1.284  0.2592  1.1882 -0.6172
 2097WAT      O 6501   1.145   2.949   1.889 -0.6660 -0.6800 -0.3675
 2097WAT     H1 6502   1.232   2.987   1.886 -1.1650  0.8550  1.7442
 2097WAT     H2 6503   1.091   3.008   1.837 -0.7009 -0.8262 -0.4978
 2098WAT      O 6504   3.749   1.455   0.413 -0.0034 -0.2835 -0.0301
 2098WAT     H1 6505   3.814   1.398   0.453 -1.8238 -1.8370  0.8720
 2098WAT     H2 6506   3.729   1.415   0.329 -0.0362 -0.0104 -0.1545
 2099WAT      O 6507   4.372   0.096   1.669 -0.4149  0.1058  0.1693
 2099WAT     H1 6508   4.324   0.021   1.634  1.0404 -1.4790  1.4355
 2099WAT     H2 6509   4.305   0.163   1.682 -1.3341  0.2517 -3.8914
 2100WAT      O 6510   4.339   4.061   1.916 -0.2886  0.9737 -0.2013
 2100WAT     H1 6511   4.395   4.036   1.989  1.0541 -1.0881 -1.8268
 2100WAT     H2 6512   4.383   4.135   1.876 -1.2743  2.4188  1.2810
 2101WAT      O 6513   0.161   1.053   3.359  0.0178 -0.1450  0.0862
 2101WAT     H1 6514   0.225   1.120   3.337  0.6810 -0.1403  1.8623
 2101WAT     H2 6515   0.211   0.984   3.403 -1.2839  0.3981  2.6110
 2102WAT      O 6516   3.727   3.448   4.975 -0.1221  0.3207 -0.2250
 2102WAT     H1 6517   3.706   3.376   4.915 -0.8286 -0.2460  0.6701
 2102WAT     H2 6518   3.663   3.440   5.046  1.4906  0.1544  1.2960
 2103WAT      O 6519   4.398   4.621   5.090  0.0398  0.1592 -0.1649
 2103WAT     H1 6520   4.463   4.561   5.125 -1.4323 -1.0856  0.5632
 2103WAT     H2 6521   4.384   4.685   5.160 -0.9424 -0.7542  0.5066
 2104WAT      O 6522   0.648   4.008   1.299 -0.0752 -0.0544 -0.3487
 2104WAT     H1 6523   0.554   3.993   1.283  0.0942 -1.8289  0.0630
 2104WAT     H2 6524   0.654   4.025   1.393  0.0303 -0.1581 -0.3360
 2105WAT      O 6525   1.636   3.873   5.137  0.4720  0.2043 -0.3770
 2105WAT     H1 6526   1.725   3.875   5.100  0.1341 -1.3580 -1.3536
 2105WAT     H2 6527   1.581   3.842   5.066 -0.8189  0.7641  0.3466
 2106WAT      O 6528   2.240   1.095   2.243 -0.1430  0.5501  0.1633
 2106WAT     H1 6529   2.285   1.010   2.238 -0.4551  0.4059 -0.2482
 2106WAT     H2 6530   2.308   1.159   2.223 -0.2438  0.2997 -1.0459
 2107WAT      O 6531   4.259   0.860   3.215  0.6959 -0.1417  0.4899
 2107WAT     H1 6532   4.229   0.921   3.148 -0.0422  0.8213  1.6479
 2107WAT     H2 6533   4.299   0.916   3.282  1.5827 -1.0921  0.7778
 2108WAT      O 6534   0.704   2.263   2.227  0.4445 -0.0540  0.1335
 2108WAT     H1 6535   0.659   2.195   2.277 -0.3839  0.4353  0.0582
 2108WAT     H2 6536   0.709   2.337   2.287 -0.7456  0.6117 -0.5519
 2109WAT      O 6537   4.279   0.554   0.878  0.0141  0.0579  0.0663
 2109WAT     H1 6538   4.295   0.508   0.960  0.6222  1.3009  0.6801
 2109WAT     H2 6539   4.192   0.592   0.889 -0.6356 -1.1828 -0.5787
 2110WAT      O 6540   0.954   0.196   0.780 -0.0986 -0.4207 -0.2352
 2110WAT     H1 6541   0.868   0.171   0.747 -1.3983 -0.2774  2.7293
 2110WAT     H2 6542   0.993   0.114   0.809 -0.2264 -0.2102  0.5451
 2111WAT      O 6543   2.553   2.459   1.192  0.2259 -0.2728 -0.2781
 2111WAT     H1 6544   2.457   2.460   1.197  0.1718 -1.9362 -0.2108
 2111WAT     H2 6545   2.573   2.379   1.143  1.5829  0.1030 -0.3722
 2112WAT      O 6546   4.331   1.936   4.061  0.1550 -0.5825 -0.0312
 2112WAT     H1 6547   4.406   1.996   4.060  0.0170 -0.3769  0.8438
 2112WAT     H2 6548   4.284   1.958   4.142 -1.4392  0.0077 -1.0673
 2113WAT      O 6549   0.887   2.623   0.627  0.1553 -0.3310  0.3808
 2113WAT     H1 6550   0.884   2.719   0.630 -1.5386 -0.3602  0.9123
 2113WAT     H2 6551   0.821   2.596   0.691  1.2780 -1.8704  0.9361
 2114WAT      O 6552   2.644   0.740   3.229 -0.4932  0.0976  0.2152
 2114WAT     H1 6553   2.669   0.817   3.281  0.4939 -0.2094  0.2197
 2114WAT     H2 6554   2.654   0.769   3.138  1.3475 -0.4405  0.2028
 2115WAT      O 6555   0.292   2.774   3.500 -0.4801  0.3211  0.2254
 2115WAT     H1 6556   0.385   2.797   3.504 -0.1669 -0.8009 -0.3304
 2115WAT     H2 6557   0.286   2.689   3.543 -1.2568  0.3796  0.2516
 2116WAT      O 6558   2.640   2.742   4.956  0.3105  0.3772 -0.2492
 2116WAT     H1 6559   2.550   2.710   4.960  0.2732  0.2188 -1.7269
 2116WAT     H2 6560   2.635   2.821   4.902  1.0454  0.4089 -0.2791
 2117WAT      O 6561   3.277   2.101   4.611 -0.1706 -0.2326 -0.0331
 2117WAT     H1 6562   3.316   2.156   4.679 -0.0610  0.7265 -0.8570
 2117WAT     H2 6563   3.185   2.126   4.608 -0.1519 -0.1924 -0.3150
 2118WAT      O 6564   1.110   3.139   3.096  0.1533 -0.0113 -0.6115
 2118WAT     H1 6565   1.071   3.107   3.015  0.7386  0.6367 -1.1593
 2118WAT     H2 6566   1.202   3.152   3.075  0.6868 -1.4595  0.6573
 2119WAT      O 6567   0.681   1.630   3.626 -0.1517 -0.1294  0.2503
 2119WAT     H1 6568   0.627   1.676   3.690  1.3681 -0.9739  2.2756
 2119WAT     H2 6569   0.731   1.699   3.583 -2.5266  0.6376 -1.4956
 2120WAT      O 6570   2.600   0.286   2.276  0.0502 -0.1639  0.2444
 2120WAT     H1 6571   2.672   0.323   2.226  0.1344 -1.9159 -1.0242
 2120WAT     H2 6572   2.522   0.332   2.243  0.1770 -0.8700 -1.0902
 2121WAT      O 6573   1.598   0.026   4.386 -0.4712  0.2314  0.1708
 2121WAT     H1 6574   1.617  -0.053   4.335 -1.4765  0.2037 -0.1746
 2121WAT     H2 6575   1.572   0.091   4.322  1.3975  1.2189  0.3379
 2122WAT      O 6576  -0.001   2.701   4.233 -0.1271 -0.1850 -0.0660
 2122WAT     H1 6577   0.080   2.669   4.274  0.7243  1.1810 -0.5731
 2122WAT     H2 6578  -0.001   2.795   4.253 -1.9284 -0.2592  0.4344
 2123WAT      O 6579   1.603   1.596   4.168  0.7984  0.8350  0.0468
 2123WAT     H1 6580   1.516   1.556   4.170  0.9915  0.4484  2.0097
 2123WAT     H2 6581   1.663   1.522   4.157  0.9216  1.0994 -1.2851
 2124WAT      O 6582   1.066   1.103   1.938  0.3178  0.1557  0.1852
 2124WAT     H1 6583   1.024   1.042   1.998  1.7820  0.4593  1.5769
 2124WAT     H2 6584   1.097   1.048   1.865  0.3413 -0.5435  0.7201
 2125WAT      O 6585   2.756   4.601   0.008  0.0761  0.0518  0.4532
 2125WAT     H1 6586   2.665   4.574   0.026 -0.9973  1.1589 -2.7218
 2125WAT     H2 6587   2.759   4.693   0.032 -0.4366  0.6785 -1.7081
 2126WAT      O 6588   1.667   4.890   4.886 -0.7714  0.3318  0.3823
 2126WAT     H1 6589   1.701   4.892   4.797  1.9663  0.5684  1.3193
 2126WAT     H2 6590   1.742   4.864   4.939 -2.4824 -0.4531  2.5658
 2127WAT      O 6591   0.655   1.036   2.093  0.0303 -0.4171 -0.7358
 2127WAT     H1 6592   0.617   1.096   2.029 -0.4132 -0.8289 -0.8658
 2127WAT     H2 6593   0.644   0.949   2.054 -0.4434 -0.6914 -0.0105
 2128WAT      O 6594   1.458   3.527   3.972  0.2583  0.0856 -0.6029
 2128WAT     H1 6595   1.401   3.604   3.971 -0.8709 -0.6435  1.3178
 2128WAT     H2 6596   1.399   3.454   3.992  1.1606 -1.4530 -3.1227
 2129WAT      O 6597   0.581   3.100   3.306  0.2050  0.3159 -0.6576
 2129WAT     H1 6598   0.584   3.115   3.212  0.3175  3.3081 -0.2708
 2129WAT     H2 6599   0.579   3.187   3.344  1.3029 -0.7796  2.1829
 2130WAT      O 6600   2.586   2.191   2.510  0.7838 -0.1478 -0.3338
 2130WAT     H1 6601   2.646   2.225   2.443  1.2751  1.5661  0.9130
 2130WAT     H2 6602   2.639   2.128   2.559  0.7914 -0.4817 -0.7576
 2131WAT      O 6603   0.287   3.231   0.326 -0.7078  0.0381  0.2413
 2131WAT     H1 6604   0.282   3.149   0.374 -1.7394  0.2422  0.5225
 2131WAT     H2 6605   0.226   3.289   0.372  1.2899  1.5599  1.1587
 2132WAT      O 6606   1.154   3.919   4.511 -0.0123 -0.7769  0.3276
 2132WAT     H1 6607   1.096   3.847   4.538  0.1856 -1.6185 -1.3451
 2132WAT     H2 6608   1.119   3.948   4.427  1.0711 -0.2345  0.0397
 2133WAT      O 6609   3.783   2.504   1.060 -0.8763  0.7904  0.2011
 2133WAT     H1 6610   3.774   2.408   1.059  0.3510  0.6606 -0.3739
 2133WAT     H2 6611   3.797   2.528   0.969 -1.3153  1.5370  0.3252
 2134WAT      O 6612   0.978   1.981   0.883 -0.5511 -0.4821  0.5118
 2134WAT     H1 6613   0.927   1.905   0.853  1.5918 -1.8152  0.0370
 2134WAT     H2 6614   1.007   2.023   0.802  0.0887 -0.4432  0.7624
 2135WAT      O 6615   1.817   1.104   3.682 -0.1215 -0.4254  0.1122
 2135WAT     H1 6616   1.736   1.149   3.659  0.1665  0.4310  0.7051
 2135WAT     H2 6617   1.792   1.012   3.688 -1.3581 -0.0474  1.5170
 2136WAT      O 6618   2.472   0.226   4.411  0.1674  0.3034 -0.1339
 2136WAT     H1 6619   2.425   0.293   4.460  2.0308  0.5911  1.4091
 2136WAT     H2 6620   2.410   0.155   4.401 -0.9533  1.1297  0.7437
 2137WAT      O 6621   3.833   3.418   0.217  0.4474 -0.5818 -0.1109
 2137WAT     H1 6622   3.916   3.399   0.261  0.0804 -0.9563  0.4400
 2137WAT     H2 6623   3.853   3.490   0.157  1.0182 -0.2213  0.5007
 2138WAT      O 6624   4.494   2.712   2.191  0.6949 -0.2024 -0.0344
 2138WAT     H1 6625   4.477   2.740   2.281  0.2174  0.6102 -0.3650
 2138WAT     H2 6626   4.441   2.632   2.180  1.4117 -0.7853  0.6584
 2139WAT      O 6627   4.112   2.705   3.052  1.0062  0.5434  0.0301
 2139WAT     H1 6628   4.065   2.622   3.066 -0.2687  1.3957  1.0535
 2139WAT     H2 6629   4.204   2.679   3.044  0.9287 -0.7978  2.5816
 2140WAT      O 6630   1.417   1.356   4.725  0.2070 -0.0522  0.0108
 2140WAT     H1 6631   1.388   1.403   4.647  0.1970 -1.0199 -0.5793
 2140WAT     H2 6632   1.499   1.315   4.700 -0.0121 -0.7206  0.3656
 2141WAT      O 6633   4.329   3.496   1.235 -0.2599 -0.5296  0.0692
 2141WAT     H1 6634   4.347   3.536   1.320  0.2032  0.5703 -0.5251
 2141WAT     H2 6635   4.289   3.412   1.256 -0.5168 -0.1044  1.3697
 2142WAT      O 6636   0.729   4.653   3.663  0.5217  0.3032 -0.2849
 2142WAT     H1 6637   0.693   4.572   3.628  0.8150  0.2159 -0.3902
 2142WAT     H2 6638   0.670   4.722   3.633 -0.6297 -0.0211  1.0989
 2143WAT      O 6639   4.177   4.197   0.330  0.4408  0.3611  0.3979
 2143WAT     H1 6640   4.246   4.169   0.391  1.6976  1.3349 -0.5160
 2143WAT     H2 6641   4.221   4.203   0.245 -1.2535 -0.8575 -0.6204
 2144WAT      O 6642   1.422   0.931   5.130  0.0549 -0.3248 -0.2572
 2144WAT     H1 6643   1.514   0.914   5.109  0.1634 -0.2072  0.1029
 2144WAT     H2 6644   1.422   0.946   5.225 -0.3517 -0.4274 -0.2385
 2145WAT      O 6645   3.532   0.786   3.731 -0.7414  0.0329  0.1880
 2145WAT     H1 6646   3.549   0.817   3.642 -1.6350  0.2384  0.0716
 2145WAT     H2 6647   3.590   0.711   3.742  1.7841  1.9156  0.6288
 2146WAT      O 6648   0.883   3.905   4.105  0.7707 -0.0829 -0.1416
 2146WAT     H1 6649   0.918   3.954   4.030 -0.7279  0.8128 -0.3041
 2146WAT     H2 6650   0.833   3.834   4.065 -1.1404  1.1641 -0.0959
 2147WAT      O 6651   0.318   2.459   5.043  0.1639 -0.3285 -0.3867
 2147WAT     H1 6652   0.261   2.388   5.073 -1.8940  0.6273 -1.8167
 2147WAT     H2 6653   0.374   2.478   5.118 -0.2338 -2.4635  0.5180
 2148WAT      O 6654   1.457   1.044   2.870  0.2271 -0.3295 -0.3274
 2148WAT     H1 6655   1.513   1.086   2.935 -2.6819  0.9080  1.5373
 2148WAT     H2 6656   1.430   0.962   2.911 -0.2955 -0.3514 -0.7109
 2149WAT      O 6657   1.124   1.007   0.538  0.3666 -0.0269  0.2237
 2149WAT     H1 6658   1.155   0.960   0.460  1.3183 -0.1996  0.6997
 2149WAT     H2 6659   1.091   1.090   0.504 -1.0030 -0.8519 -0.5918
 2150WAT      O 6660   0.305   0.715   0.042 -0.6340  0.3226 -0.3365
 2150WAT     H1 6661   0.329   0.630   0.080 -0.9710  0.5662  0.4440
 2150WAT     H2 6662   0.345   0.780   0.099 -1.5310  0.7019 -0.1088
 2151WAT      O 6663   1.309   1.854   3.034  0.4791 -0.2503 -0.2881
 2151WAT     H1 6664   1.309   1.922   2.966 -0.5828 -0.5879 -0.6448
 2151WAT     H2 6665   1.367   1.785   2.999  3.3791  1.3174  1.0283
 2152WAT      O 6666   0.100   3.133   4.164  0.0731 -0.3810 -0.5303
 2152WAT     H1 6667   0.186   3.113   4.128  1.1185  1.1714  0.9465
 2152WAT     H2 6668   0.064   3.199   4.105  0.7522  0.3921 -0.0990
 2153WAT      O 6669   4.464   2.977   0.077 -0.0443 -0.1015 -0.0870
 2153WAT     H1 6670   4.427   3.044   0.021  0.1083 -0.7852 -1.0316
 2153WAT     H2 6671   4.413   2.898   0.058  0.5311 -0.5403  0.1337
 2154WAT      O 6672   0.883   2.091   2.771 -0.1911 -0.0809  0.0214
 2154WAT     H1 6673   0.930   2.040   2.705 -0.1811 -1.2722  0.9170
 2154WAT     H2 6674   0.953   2.128   2.826 -0.2225  0.3140 -0.2031
 2155WAT      O 6675   3.194   1.790   4.831 -0.1633  0.3309 -0.0843
 2155WAT     H1 6676   3.280   1.816   4.800  1.3614 -0.4553  3.0425
 2155WAT     H2 6677   3.201   1.795   4.927 -3.1387 -1.1610  0.3264
 2156WAT      O 6678   4.049   2.179   1.064 -0.5631  0.2143 -0.0477
 2156WAT     H1 6679   4.021   2.112   1.001  1.6442  0.0359 -0.9027
 2156WAT     H2 6680   4.111   2.134   1.121  0.2110  1.3016 -0.0150
 2157WAT      O 6681   2.149   5.080   1.501  0.9644 -0.8793 -0.3020
 2157WAT     H1 6682   2.068   5.045   1.463  0.8053 -0.6010 -0.2231
 2157WAT     H2 6683   2.146   5.053   1.593  1.2484 -1.3757 -0.4400
 2158WAT      O 6684   1.613   4.045   4.816  0.3789  0.6775  0.1301
 2158WAT     H1 6685   1.596   3.966   4.868 -0.2193 -0.0682 -1.1517
 2158WAT     H2 6686   1.529   4.063   4.774  1.1411  0.5392 -1.5240
 2159WAT      O 6687   1.479   1.683   0.396 -0.1445  0.1612 -0.0431
 2159WAT     H1 6688   1.383   1.685   0.387 -0.3665 -1.0219  1.6322
 2159WAT     H2 6689   1.495   1.624   0.469  1.8250  1.4272  0.6301
 2160WAT      O 6690   3.628   0.165   2.977  0.0754 -0.3060  0.7111
 2160WAT     H1 6691   3.641   0.249   3.021 -2.2881  0.5896 -0.1401
 2160WAT     H2 6692   3.536   0.143   2.995 -0.0720 -1.4436 -1.2060
 2161WAT      O 6693   0.305   0.850   3.476  0.0627  0.2490 -0.3799
 2161WAT     H1 6694   0.217   0.811   3.478  0.8444 -1.5537  0.9288
 2161WAT     H2 6695   0.337   0.841   3.565  2.1906 -0.5795 -1.1714
 2162WAT      O 6696   2.648   3.603   2.875  0.0328 -0.1632  1.2377
 2162WAT     H1 6697   2.699   3.572   2.950 -0.0696  0.7063  1.6754
 2162WAT     H2 6698   2.689   3.560   2.800 -0.2919 -1.5851  1.8341
 2163WAT      O 6699   1.811   4.023   2.187  0.5699  0.5651  0.4417
 2163WAT     H1 6700   1.871   4.023   2.262  0.8156 -0.9862  0.2744
 2163WAT     H2 6701   1.756   3.946   2.200  0.2620  0.5753 -0.6949
 2164WAT      O 6702   1.301   4.456   3.615 -0.2391 -0.3479  0.1080
 2164WAT     H1 6703   1.338   4.386   3.561  0.8685 -0.6491  1.2068
 2164WAT     H2 6704   1.346   4.535   3.587 -1.5906 -0.0131 -1.2305
 2165WAT      O 6705   2.029   1.891   4.542  0.1560  0.0320  0.5867
 2165WAT     H1 6706   2.119   1.889   4.509  0.0797  0.1498  0.3679
 2165WAT     H2 6707   2.036   1.933   4.627  0.5700 -1.6587  1.4154
 2166WAT      O 6708   0.349   2.054   0.609 -0.7209  0.6063 -0.0032
 2166WAT     H1 6709   0.411   2.076   0.540 -0.4702  2.2642  0.7165
 2166WAT     H2 6710   0.277   2.011   0.564  0.4886 -0.4949 -0.9741
 2167WAT      O 6711   2.135   2.196   4.264  0.3459 -0.1009  0.1930
 2167WAT     H1 6712   2.180   2.183   4.347 -1.5101 -2.9899  0.8620
 2167WAT     H2 6713   2.173   2.131   4.205 -1.1846 -0.9342  0.0741
 2168WAT      O 6714   2.151   1.585   0.486  0.2440 -0.0135 -0.4798
 2168WAT     H1 6715   2.164   1.545   0.572 -0.4051  0.8120  0.0228
 2168WAT     H2 6716   2.059   1.614   0.487 -0.9304 -3.0721 -2.7615
 2169WAT      O 6717   0.074   3.162   5.013 -0.0276 -0.1267 -0.2762
 2169WAT     H1 6718   0.014   3.158   5.088 -0.8196 -1.8365 -0.9650
 2169WAT     H2 6719   0.110   3.251   5.017 -0.0473 -0.1433  2.1243
 2170WAT      O 6720   2.823   0.394   1.168  0.0070 -0.2810 -0.1154
 2170WAT     H1 6721   2.855   0.343   1.093  0.2624  0.4138 -0.4838
 2170WAT     H2 6722   2.737   0.356   1.187  0.6342 -1.5535  0.2984
 2171WAT      O 6723   2.278   2.491   1.797  0.2225 -0.2243  0.0729
 2171WAT     H1 6724   2.236   2.408   1.818  0.1894 -0.1322  0.3706
 2171WAT     H2 6725   2.308   2.525   1.881  2.7163 -1.2654 -0.2983
 2172WAT      O 6726   2.577   1.700   4.087  0.0406 -0.1885 -0.0538
 2172WAT     H1 6727   2.655   1.662   4.046  0.5064 -0.3234  0.9253
 2172WAT     H2 6728   2.602   1.715   4.178  0.2677  3.5377 -0.5774
 2173WAT      O 6729   0.602   0.958   4.611 -0.1990 -0.4353 -0.4012
 2173WAT     H1 6730   0.519   0.991   4.647  0.7120  0.9918  0.5395
 2173WAT     H2 6731   0.583   0.868   4.585 -2.1795  0.0195 -0.7135
 2174WAT      O 6732   0.432   1.510   5.297 -0.0356 -0.4552 -0.1183
 2174WAT     H1 6733   0.511   1.537   5.250 -0.6377  0.0374 -0.8738
 2174WAT     H2 6734   0.425   1.416   5.278  0.0198 -0.3693 -0.5950
 2175WAT      O 6735   0.188   3.957   4.300  0.2966  0.2783 -0.1009
 2175WAT     H1 6736   0.161   3.942   4.209 -1.3179  1.2301  0.1737
 2175WAT     H2 6737   0.267   4.010   4.293  0.9267 -0.7232 -0.9382
 2176WAT      O 6738   0.672   4.364   3.837 -0.5316 -0.0141 -0.0486
 2176WAT     H1 6739   0.580   4.355   3.811 -0.1721 -0.8468 -1.0955
 2176WAT     H2 6740   0.692   4.282   3.882  0.0454 -0.3876 -0.9622
 2177WAT      O 6741   1.897   4.663   3.391  0.1409  0.0069 -0.1528
 2177WAT     H1 6742   1.964   4.713   3.344 -0.3022  1.1742  0.4094
 2177WAT     H2 6743   1.818   4.671   3.337 -0.4930  1.7260  0.9019
 2178WAT      O 6744   3.417   0.074   1.719  0.3828  0.0707  0.2641
 2178WAT     H1 6745   3.456  -0.012   1.737 -0.6037 -0.1658  1.4095
 2178WAT     H2 6746   3.336   0.074   1.770  1.2021  2.3390  1.7216
 2179WAT      O 6747   2.521   3.505   3.682 -0.3770 -0.1066 -0.1515
 2179WAT     H1 6748   2.469   3.555   3.619  0.3013 -0.5625 -1.0877
 2179WAT     H2 6749   2.519   3.415   3.649 -0.2614 -0.4054  0.6417
 2180WAT      O 6750   1.264   3.975   3.711 -0.2819 -0.3203 -0.2965
 2180WAT     H1 6751   1.234   4.057   3.751 -1.0188 -1.1012  0.8098
 2180WAT     H2 6752   1.238   3.982   3.619  2.0858  1.8208 -0.9046
 2181WAT      O 6753   1.308   3.926   0.714 -0.2603 -0.2373  0.3362
 2181WAT     H1 6754   1.345   3.882   0.790 -1.9790 -0.9467  0.8185
 2181WAT     H2 6755   1.228   3.878   0.695  0.8114 -0.9906 -2.8625
 2182WAT      O 6756   3.053   1.893   2.121 -0.3098 -0.2556  0.0081
 2182WAT     H1 6757   3.037   1.855   2.208 -0.5154 -0.4284 -0.1050
 2182WAT     H2 6758   3.063   1.817   2.063  0.0306 -0.1410 -0.0817
 2183WAT      O 6759   0.125   0.773   3.230 -0.1491 -0.2239  0.0172
 2183WAT     H1 6760   0.068   0.733   3.165 -1.8444  1.2653  0.5135
 2183WAT     H2 6761   0.194   0.814   3.179  0.9389 -2.5820 -0.5604
 2184WAT      O 6762   0.146   3.488   0.400  0.5918 -0.4152  0.9641
 2184WAT     H1 6763   0.059   3.525   0.413  0.1500 -1.0034 -0.1605
 2184WAT     H2 6764   0.182   3.538   0.327  0.7240 -0.9556  0.6577
 2185WAT      O 6765   3.764   3.253   1.400  0.2927 -0.1110 -0.5631
 2185WAT     H1 6766   3.808   3.294   1.475  1.8342  0.6094 -1.8065
 2185WAT     H2 6767   3.697   3.316   1.374 -1.1529 -0.9422  0.9651
 2186WAT      O 6768   0.798   4.920   0.765  0.3481 -0.0085  0.0052
 2186WAT     H1 6769   0.779   4.918   0.671 -0.9428 -1.3146  0.2527
 2186WAT     H2 6770   0.874   4.863   0.775  0.6361  0.3215 -0.2608
 2187WAT      O 6771   4.286   4.491   4.257 -0.8273  0.3859  0.2175
 2187WAT     H1 6772   4.257   4.580   4.239  0.5134  0.6987 -0.5742
 2187WAT     H2 6773   4.358   4.477   4.195 -1.0719 -1.2777  0.2744
 2188WAT      O 6774   0.980   0.694   2.873  0.0988  0.3724 -0.7426
 2188WAT     H1 6775   1.059   0.728   2.830 -0.5366  1.1565 -1.3309
 2188WAT     H2 6776   0.989   0.721   2.965  0.2290  1.0001 -0.9371
 2189WAT      O 6777   0.971   4.205   2.319 -0.9864 -0.0357  0.1035
 2189WAT     H1 6778   0.979   4.112   2.340  2.5716  0.4361  1.5540
 2189WAT     H2 6779   1.010   4.212   2.231  1.5748  0.3615  1.1896
 2190WAT      O 6780   0.497   2.522   1.444 -0.4961 -0.0367  0.1788
 2190WAT     H1 6781   0.503   2.522   1.539  0.0416 -4.3960  0.3379
 2190WAT     H2 6782   0.410   2.485   1.426 -0.4708  0.4520 -1.0128
 2191WAT      O 6783   1.247   2.474   0.507 -0.9533  0.3875  0.3858
 2191WAT     H1 6784   1.303   2.397   0.504 -0.5628  0.6885 -1.9868
 2191WAT     H2 6785   1.236   2.492   0.601  1.9461 -0.3670  0.9636
 2192WAT      O 6786   1.825   2.070   4.079 -0.1281  0.2134 -0.1921
 2192WAT     H1 6787   1.733   2.068   4.052 -0.5127  1.7124  0.8799
 2192WAT     H2 6788   1.836   1.992   4.133 -0.5706 -0.3632 -0.9168
 2193WAT      O 6789   3.038   1.656   0.965 -0.1412 -0.2577 -0.7197
 2193WAT     H1 6790   2.992   1.716   0.906  0.2009  0.3014 -0.4314
 2193WAT     H2 6791   2.983   1.652   1.043 -0.7447 -1.2317 -1.1823
 2194WAT      O 6792   1.632   1.849   2.915  0.6042  0.1324  0.0862
 2194WAT     H1 6793   1.662   1.822   3.002  1.0832 -0.9032 -0.3847
 2194WAT     H2 6794   1.553   1.798   2.899  1.2228 -0.6322 -0.5977
 2195WAT      O 6795   1.702   2.541   1.193 -0.3409 -0.1464  0.4093
 2195WAT     H1 6796   1.607   2.529   1.195 -0.4171  0.5156  2.0539
 2195WAT     H2 6797   1.721   2.561   1.101 -1.5897 -1.6256 -0.2159
 2196WAT      O 6798   3.951   4.051   0.357  0.2770 -0.0121 -0.0847
 2196WAT     H1 6799   4.023   4.102   0.320  0.3396  1.5335  1.9767
 2196WAT     H2 6800   3.978   3.960   0.344  2.4571  0.5090  0.2553
 2197WAT      O 6801   3.110   2.335   1.775 -0.4378 -0.1381 -0.1250
 2197WAT     H1 6802   3.114   2.355   1.682  0.2491 -1.0093 -0.2953
 2197WAT     H2 6803   3.021   2.302   1.788 -0.8051  0.7409 -0.2938
 2198WAT      O 6804   0.167   0.275   4.904 -0.4968 -0.1636 -0.0590
 2198WAT     H1 6805   0.123   0.196   4.871 -1.4714 -0.0819  0.9597
 2198WAT     H2 6806   0.215   0.309   4.829 -0.4689 -1.4473 -0.6518
 2199WAT      O 6807   1.820   0.085   2.279 -0.2062 -0.0874  0.1906
 2199WAT     H1 6808   1.776   0.160   2.320  2.4357  2.4466 -1.2103
 2199WAT     H2 6809   1.776   0.075   2.195  0.4537  1.0410 -0.3124
 2200WAT      O 6810   1.445   2.236   4.237 -0.0275 -0.5416 -0.2158
 2200WAT     H1 6811   1.381   2.244   4.166 -1.1031  0.2758  0.7951
 2200WAT     H2 6812   1.439   2.320   4.284  3.5764  0.5959 -1.4882
 2201WAT      O 6813   3.545   4.077   0.083 -0.2747 -0.6729 -0.1085
 2201WAT     H1 6814   3.482   4.112   0.021  0.7915 -0.7552 -1.2667
 2201WAT     H2 6815   3.572   3.994   0.045  0.3319 -0.7656  0.5129
 2202WAT      O 6816   1.653   2.896   0.076 -0.6755  0.4862 -0.5307
 2202WAT     H1 6817   1.725   2.850   0.119  0.5887  1.8563 -1.1064
 2202WAT     H2 6818   1.580   2.834   0.080 -0.5520  0.3297  3.1550
 2203WAT      O 6819   4.095   2.687   2.223  0.1517  0.1070 -0.4416
 2203WAT     H1 6820   4.075   2.665   2.132 -0.7217  0.6281 -0.3868
 2203WAT     H2 6821   4.075   2.780   2.231  1.0940  0.2776  0.0581
 2204WAT      O 6822   4.273   4.874   0.637  0.5610  0.5248 -0.1363
 2204WAT     H1 6823   4.294   4.804   0.698  3.7359  0.6072 -0.9474
 2204WAT     H2 6824   4.217   4.933   0.687  0.1588 -1.1448  1.4904
 2205WAT      O 6825   4.287   2.108   1.459  0.2419 -0.3068  0.8660
 2205WAT     H1 6826   4.280   2.195   1.499  1.5863  0.0758  0.3406
 2205WAT     H2 6827   4.336   2.124   1.378 -1.0882 -1.2894 -0.1615
 2206WAT      O 6828   0.203   2.160   3.940  0.2717 -0.1415  0.5492
 2206WAT     H1 6829   0.180   2.205   3.859  0.7436 -0.5214  0.2081
 2206WAT     H2 6830   0.256   2.223   3.988 -0.9006  0.5001  1.0577
 2207WAT      O 6831   4.003   0.450   5.268  0.1149  0.4540  0.5167
 2207WAT     H1 6832   4.067   0.518   5.245  0.2990 -0.1552 -0.9017
 2207WAT     H2 6833   4.012   0.385   5.198 -1.6773  0.0958  0.5832
 2208WAT      O 6834   2.987   4.202   3.391  0.8637  0.2795 -0.0021
 2208WAT     H1 6835   3.041   4.170   3.319  1.4841 -0.4385  0.7710
 2208WAT     H2 6836   3.030   4.283   3.418  1.6895 -0.3959  0.7457
 2209WAT      O 6837   4.439   1.703   2.845  0.2991 -0.3608  0.1177
 2209WAT     H1 6838   4.431   1.725   2.753 -1.0998 -0.5450  0.1823
 2209WAT     H2 6839   4.456   1.609   2.846  1.4151 -0.1779  0.0283
 2210WAT      O 6840   0.250   4.499   3.894 -0.2567  0.3083 -0.1380
 2210WAT     H1 6841   0.320   4.446   3.856  2.1977  1.8816  1.7810
 2210WAT     H2 6842   0.239   4.572   3.833  0.9758  0.8722  0.2822
 2211WAT      O 6843   0.759   2.682   3.444  0.1491  0.2707  0.3146
 2211WAT     H1 6844   0.835   2.624   3.450 -1.4274 -1.8582  0.8676
 2211WAT     H2 6845   0.734   2.679   3.352  0.1663  0.1738  0.3124
 2212WAT      O 6846   1.342   2.443   0.856 -0.1018 -0.2569  0.2663
 2212WAT     H1 6847   1.271   2.499   0.826  0.4380 -0.5373 -1.6481
 2212WAT     H2 6848   1.310   2.354   0.843  1.3391 -0.4561 -2.8636
 2213WAT      O 6849   3.733   3.215   4.099 -0.1181  0.2978  0.3021
 2213WAT     H1 6850   3.778   3.251   4.176  0.6827 -0.5080  0.2211
 2213WAT     H2 6851   3.643   3.247   4.107  0.4032  1.7810  0.5725
 2214WAT      O 6852   1.782   0.757   5.134  0.1185 -0.3764 -0.2953
 2214WAT     H1 6853   1.733   0.798   5.063 -0.0631 -2.1433 -1.2572
 2214WAT     H2 6854   1.715   0.726   5.194  0.2243  0.1334  0.0913
 2215WAT      O 6855   2.423   3.715   0.721  0.3738  0.1609  0.3241
 2215WAT     H1 6856   2.429   3.726   0.816 -1.7886  0.4705  0.4861
 2215WAT     H2 6857   2.388   3.799   0.690  1.3624  0.1756 -0.7989
 2216WAT      O 6858   2.454   0.951   0.196 -0.3930 -0.1769 -0.2069
 2216WAT     H1 6859   2.500   0.879   0.152  1.1043  1.5693 -1.6756
 2216WAT     H2 6860   2.366   0.948   0.160  0.2633  0.0068 -1.9129
 2217WAT      O 6861   0.417   4.962   1.153  0.0144  0.4058 -0.1703
 2217WAT     H1 6862   0.389   5.029   1.215  0.0576 -1.3889  1.8637
 2217WAT     H2 6863   0.386   4.880   1.189  1.3425 -0.8818 -1.7700
 2218WAT      O 6864   3.291   1.415   1.687  0.0388 -0.2073 -0.3871
 2218WAT     H1 6865   3.339   1.484   1.733  0.4690 -0.7990  0.0801
 2218WAT     H2 6866   3.321   1.334   1.728  0.1822 -0.7377 -1.4906
 2219WAT      O 6867   1.042   3.661   4.583 -0.1834 -0.5539 -0.7442
 2219WAT     H1 6868   1.031   3.566   4.577 -0.4766 -0.5295 -0.6015
 2219WAT     H2 6869   1.015   3.683   4.672  2.1507 -0.6370  0.0559
 2220WAT      O 6870   0.963   3.395   3.716  0.3944 -0.4559 -0.6624
 2220WAT     H1 6871   0.905   3.425   3.786 -0.7929 -0.8691 -1.4308
 2220WAT     H2 6872   0.903   3.369   3.645  1.3794 -3.0053 -0.6731
 2221WAT      O 6873   1.244   3.815   3.120 -0.5074  0.2943  0.1614
 2221WAT     H1 6874   1.220   3.738   3.172 -1.0559  1.1271  1.2062
 2221WAT     H2 6875   1.163   3.867   3.117 -0.8272 -0.2130 -2.5077
 2222WAT      O 6876   1.487   3.986   2.320  0.4339 -0.1739  0.3825
 2222WAT     H1 6877   1.460   4.043   2.248 -0.1464 -0.2895  0.5053
 2222WAT     H2 6878   1.526   3.910   2.277 -0.6378 -0.6151  0.1533
 2223WAT      O 6879   4.110   1.922   3.311  0.2505  0.3942 -0.4569
 2223WAT     H1 6880   4.017   1.941   3.318 -0.1556 -1.5688  0.2112
 2223WAT     H2 6881   4.154   2.003   3.337 -1.2844  0.8915  0.7217
 2224WAT      O 6882   2.870   5.071   5.053 -0.0358  0.2141  0.1555
 2224WAT     H1 6883   2.902   4.984   5.031  1.3000  0.5772  0.5594
 2224WAT     H2 6884   2.828   5.060   5.139 -0.4925 -0.1562 -0.1123
 2225WAT      O 6885   4.501   3.383   2.411 -0.0751 -0.2381 -0.1619
 2225WAT     H1 6886   4.456   3.423   2.485 -1.1569 -0.1685 -0.8365
 2225WAT     H2 6887   4.550   3.310   2.449 -0.8533 -0.3835  0.5798
 2226WAT      O 6888   0.881   1.658   4.785  0.4327  0.3191 -0.0857
 2226WAT     H1 6889   0.962   1.607   4.787  0.2285  0.0095  1.1062
 2226WAT     H2 6890   0.872   1.692   4.874 -0.4199  0.8812 -0.3748
 2227WAT      O 6891   0.810   0.765   4.425 -0.4253 -0.3173  0.0231
 2227WAT     H1 6892   0.742   0.786   4.361 -1.9975 -1.9872  1.0407
 2227WAT     H2 6893   0.890   0.755   4.372 -1.8098 -2.4042 -1.8621
 2228WAT      O 6894   2.118   3.421   0.844 -0.5355  0.4068 -0.7005
 2228WAT     H1 6895   2.064   3.500   0.835 -1.0617  0.0763 -0.4898
 2228WAT     H2 6896   2.176   3.422   0.768 -1.3254  0.3953 -1.3117
 2229WAT      O 6897   4.102   3.271   5.192  0.3450 -1.0194 -0.1898
 2229WAT     H1 6898   4.019   3.227   5.171  0.0463  0.5098 -2.5256
 2229WAT     H2 6899   4.095   3.357   5.151  2.4949 -0.2654  0.8843
 2230WAT      O 6900   2.618   0.755   3.700 -0.2548 -0.0640  0.1241
 2230WAT     H1 6901   2.605   0.850   3.699 -0.0201  0.0096 -2.4165
 2230WAT     H2 6902   2.551   0.721   3.640  1.8280 -1.1072 -1.7629
 2231WAT      O 6903   0.602   4.173   2.458  0.0086  0.6760 -0.2008
 2231WAT     H1 6904   0.597   4.184   2.363  0.2525  0.0313 -0.2930
 2231WAT     H2 6905   0.520   4.129   2.481 -0.1358  1.0020 -0.0838
 2232WAT      O 6906   1.021   4.384   1.844  0.1366 -0.5928 -0.0330
 2232WAT     H1 6907   0.949   4.360   1.786  1.3060 -0.6007 -1.5657
 2232WAT     H2 6908   1.017   4.320   1.915 -0.7827 -1.1833 -0.5916
 2233WAT      O 6909   1.058   1.958   1.942  0.9018 -0.4094 -0.3616
 2233WAT     H1 6910   1.036   1.867   1.923  0.9504 -0.4358 -0.2894
 2233WAT     H2 6911   1.008   1.979   2.021  1.9095 -0.7769  0.3958
 2234WAT      O 6912   4.400   1.957   2.330 -0.4659 -0.1706 -0.4564
 2234WAT     H1 6913   4.408   1.927   2.239 -2.0915 -0.3962 -0.5547
 2234WAT     H2 6914   4.309   1.986   2.338  0.4013  2.6486  0.2974
 2235WAT      O 6915   2.627   1.618   4.932 -0.5287 -0.5111 -0.2060
 2235WAT     H1 6916   2.572   1.599   4.855  0.1225 -0.9074 -0.5863
 2235WAT     H2 6917   2.564   1.637   5.002 -1.1315 -0.1112 -0.8426
 2236WAT      O 6918   1.244   3.393   4.699 -0.3381  0.0041  0.2917
 2236WAT     H1 6919   1.338   3.382   4.687 -0.4617 -2.6706  0.9916
 2236WAT     H2 6920   1.235   3.457   4.769  0.9816  0.0734  0.4177
 2237WAT      O 6921   3.650   2.538   2.941 -0.7633  0.2952  0.2285
 2237WAT     H1 6922   3.607   2.586   2.870  0.6778 -0.0211 -0.9096
 2237WAT     H2 6923   3.670   2.453   2.903 -0.7103 -0.1912  1.3120
 2238WAT      O 6924   3.685   4.353   0.089 -0.4539  0.2616 -0.0984
 2238WAT     H1 6925   3.641   4.336   0.006  0.7203  0.8867 -0.8708
 2238WAT     H2 6926   3.747   4.423   0.070  1.2522 -0.9222  0.8270
 2239WAT      O 6927   1.433   4.561   4.549 -0.1609  0.5648 -0.2942
 2239WAT     H1 6928   1.351   4.511   4.550 -0.5489  1.1881  0.5830
 2239WAT     H2 6929   1.445   4.584   4.457 -0.7926  0.1831 -0.4863
 2240WAT      O 6930   3.543   0.675   4.930 -0.1129  0.0200 -0.0759
 2240WAT     H1 6931   3.606   0.609   4.899  1.5204  0.3504  2.3067
 2240WAT     H2 6932   3.483   0.626   4.986 -1.3504 -0.0684 -1.4027
 2241WAT      O 6933   3.485   1.370   2.588 -0.0488  0.0734  0.2829
 2241WAT     H1 6934   3.566   1.331   2.621  0.6359  0.6959 -0.6246
 2241WAT     H2 6935   3.509   1.408   2.503 -1.3087  0.2028 -0.0366
 2242WAT      O 6936   3.551   4.555   0.826 -0.2334 -0.1631  0.0504
 2242WAT     H1 6937   3.459   4.537   0.804 -0.0985 -1.6965  0.6405
 2242WAT     H2 6938   3.551   4.569   0.920  0.0360  0.6383 -0.0633
 2243WAT      O 6939   4.133   0.487   4.632 -0.4511 -0.7456 -0.0374
 2243WAT     H1 6940   4.059   0.429   4.650 -0.6402 -1.1576 -1.9253
 2243WAT     H2 6941   4.166   0.459   4.546  0.6051  0.7522 -0.1697
 2244WAT      O 6942   0.873   2.623   4.922  0.0766 -0.1056  0.3142
 2244WAT     H1 6943   0.940   2.681   4.887  0.9603 -0.1483  1.8078
 2244WAT     H2 6944   0.881   2.543   4.870  0.4351  0.2833 -0.2398
 2245WAT      O 6945   2.963   4.833   4.929  0.0122 -0.3882 -0.2612
 2245WAT     H1 6946   2.932   4.759   4.982  1.2491 -1.2620 -0.7238
 2245WAT     H2 6947   2.913   4.826   4.847  0.2648 -0.8372 -0.3809
 2246WAT      O 6948   2.629   5.080   3.974  0.5706 -0.4094 -0.1784
 2246WAT     H1 6949   2.639   5.165   4.015 -0.8047  0.5562 -1.7068
 2246WAT     H2 6950   2.615   5.019   4.047 -2.4432  1.3150  0.8787
 2247WAT      O 6951   4.109   2.069   5.139  0.8718 -0.0462  0.0369
 2247WAT     H1 6952   4.166   2.117   5.079  0.5060  0.1142 -0.1807
 2247WAT     H2 6953   4.066   2.003   5.085  0.8234 -0.1460  0.1954
 2248WAT      O 6954   0.168   2.044   2.342  0.3055 -0.5303  0.6225
 2248WAT     H1 6955   0.139   2.130   2.373 -0.6067 -0.2704 -0.8421
 2248WAT     H2 6956   0.088   2.000   2.315  0.8614 -1.4782  0.4750
 2249WAT      O 6957   0.124   3.145   2.859  0.3974 -0.1265 -0.1104
 2249WAT     H1 6958   0.048   3.204   2.851 -3.0209 -4.0731  0.0712
 2249WAT     H2 6959   0.133   3.129   2.953  2.1564  0.9397 -0.0458
 2250WAT      O 6960   3.425   2.096   3.739 -0.1315  0.2234  0.0949
 2250WAT     H1 6961   3.376   2.178   3.743 -1.5386 -0.1049 -4.3853
 2250WAT     H2 6962   3.513   2.123   3.713 -0.4624  0.3869 -0.8951
 2251WAT      O 6963   0.580   4.275   5.001 -0.1485 -0.0888  0.1699
 2251WAT     H1 6964   0.587   4.364   5.034  0.1944  0.1435 -0.5228
 2251WAT     H2 6965   0.587   4.283   4.906 -0.8455 -0.7769  0.0435
 2252WAT      O 6966   3.539   2.713   0.109  0.4404  0.0864 -0.5588
 2252WAT     H1 6967   3.598   2.781   0.077  0.0966  0.5207 -0.2797
 2252WAT     H2 6968   3.495   2.752   0.184 -0.9028  0.1184 -1.3219
 2253WAT      O 6969   2.597   0.888   1.671  0.0526  0.1369  0.1278
 2253WAT     H1 6970   2.635   0.855   1.589 -1.6490  0.3129 -0.7749
 2253WAT     H2 6971   2.553   0.812   1.709  0.8939  0.0393  0.9419
 2254WAT      O 6972   4.366   4.560   0.130  0.0121  0.2578  0.1648
 2254WAT     H1 6973   4.456   4.542   0.102  0.0407  0.6851 -0.0408
 2254WAT     H2 6974   4.313   4.493   0.087 -0.0957  1.5914 -1.9658
 2255WAT      O 6975   1.947   0.808   1.097 -0.4378  0.2592  0.0400
 2255WAT     H1 6976   1.996   0.868   1.040  0.4708 -0.3636  0.1357
 2255WAT     H2 6977   1.899   0.752   1.036 -0.6961  0.5951 -0.0680
 2256WAT      O 6978   0.659   0.265   0.739  0.1844 -0.0700 -0.2788
 2256WAT     H1 6979   0.647   0.254   0.645 -0.0706  2.6043 -0.6312
 2256WAT     H2 6980   0.590   0.326   0.765  0.9596  0.1411  1.4219
 2257WAT      O 6981   3.622   1.971   3.518 -0.2578 -0.8607 -0.2695
 2257WAT     H1 6982   3.650   2.027   3.590 -0.0658 -2.3171  0.8486
 2257WAT     H2 6983   3.555   2.022   3.472  0.4432  0.5590  0.2284
 2258WAT      O 6984   1.830   3.987   2.786  0.0015  0.1587  0.8343
 2258WAT     H1 6985   1.838   3.893   2.801  1.0603  0.0299 -0.3124
 2258WAT     H2 6986   1.748   4.012   2.828 -1.5254 -1.7221 -0.8255
 2259WAT      O 6987   3.928   0.174   3.542 -0.6042  0.1097  0.2198
 2259WAT     H1 6988   3.982   0.254   3.548  0.0707 -0.4286  1.7248
 2259WAT     H2 6989   3.914   0.148   3.632  0.6919 -2.4632 -0.2420
 2260WAT      O 6990   0.566   2.783   2.069 -0.4679  0.0307 -0.5340
 2260WAT     H1 6991   0.611   2.783   1.985  1.2456  0.2702  0.3416
 2260WAT     H2 6992   0.476   2.811   2.048 -0.8916 -2.5213 -2.6183
 2261WAT      O 6993   2.243   1.495   1.981 -0.5811 -0.1799  0.2182
 2261WAT     H1 6994   2.293   1.458   1.908 -0.1239  0.4332  0.2102
 2261WAT     H2 6995   2.309   1.514   2.048 -1.0389 -1.1001  0.9623
 2262WAT      O 6996   1.116   3.319   0.559 -0.4454 -0.6215 -0.2724
 2262WAT     H1 6997   1.196   3.270   0.540 -0.5873 -0.1821 -2.2222
 2262WAT     H2 6998   1.052   3.286   0.495 -1.4179 -0.0209  0.3661
 2263WAT      O 6999   1.676   4.243   4.355  0.2508 -0.1370 -0.7284
 2263WAT     H1 7000   1.754   4.249   4.410 -1.9804  1.9898  2.6081
 2263WAT     H2 7001   1.655   4.334   4.332 -2.6255 -0.2625  0.8582
 2264WAT      O 7002   1.393   3.386   3.109 -0.1852 -0.3255 -0.3496
 2264WAT     H1 7003   1.369   3.321   3.176  0.4952 -0.3285 -0.0910
 2264WAT     H2 7004   1.356   3.352   3.028 -0.4198 -0.6900 -0.0950
 2265WAT      O 7005   2.765   1.347   3.088  0.0498  0.1312 -0.1272
 2265WAT     H1 7006   2.785   1.254   3.099 -0.1042  0.2445  1.4796
 2265WAT     H2 7007   2.836   1.392   3.134 -1.7010  0.6510  2.2643
 2266WAT      O 7008   2.011   5.024   2.325  0.4455 -0.2751  0.4997
 2266WAT     H1 7009   1.952   5.097   2.306 -0.8192 -1.3663  0.0646
 2266WAT     H2 7010   1.958   4.946   2.309  2.1511 -1.3164 -0.3652
 2267WAT      O 7011   1.204   0.133   4.302 -0.1092 -0.8528 -0.0881
 2267WAT     H1 7012   1.297   0.141   4.279  0.1212 -1.5728  0.5575
 2267WAT     H2 7013   1.161   0.107   4.220  0.6153 -2.8283  0.0921
 2268WAT      O 7014   3.151   0.516   4.815  0.3418  0.1528 -0.5365
 2268WAT     H1 7015   3.230   0.462   4.814 -0.3577 -0.8823 -0.9890
 2268WAT     H2 7016   3.169   0.582   4.882  1.3286 -0.4590 -0.1689
 2269WAT      O 7017   2.508   2.908   0.745  0.2950  0.2240 -0.2969
 2269WAT     H1 7018   2.601   2.925   0.757  0.0227  0.7577  1.4302
 2269WAT     H2 7019   2.478   2.980   0.690  0.9610 -0.2046 -1.2523
 2270WAT      O 7020   2.286   2.177   3.151  0.3223 -0.1926 -0.0196
 2270WAT     H1 7021   2.216   2.225   3.194 -0.1374  0.1261 -1.0968
 2270WAT     H2 7022   2.366   2.205   3.197  0.0202  1.2866 -0.3440
 2271WAT      O 7023   0.694   2.037   0.097  0.0509 -0.2451  1.0500
 2271WAT     H1 7024   0.774   2.067   0.140  1.1203 -0.8042 -0.4754
 2271WAT     H2 7025   0.691   2.085   0.015 -1.0004 -0.5062  0.9186
 2272WAT      O 7026   0.095   0.863   5.250 -0.0071 -0.5156 -0.3457
 2272WAT     H1 7027   0.065   0.934   5.306 -0.1705 -0.4185 -0.5589
 2272WAT     H2 7028   0.175   0.832   5.292  0.3978  0.1910 -0.5828
 2273WAT      O 7029   3.503   1.851   4.261  0.2794  0.7717 -0.2953
 2273WAT     H1 7030   3.495   1.786   4.331  1.0262  0.7619 -0.2088
 2273WAT     H2 7031   3.431   1.912   4.277 -0.0239  0.3421  0.0195
 2274WAT      O 7032   4.345   2.536   1.196  0.1897  0.7082 -0.4432
 2274WAT     H1 7033   4.276   2.501   1.141  1.1287 -2.2550  0.0872
 2274WAT     H2 7034   4.368   2.619   1.156 -0.4493 -0.4285 -3.3902
 2275WAT      O 7035   3.747   2.234   1.046  0.0730  0.1073  0.0944
 2275WAT     H1 7036   3.676   2.169   1.048 -0.7129  0.9543  1.0382
 2275WAT     H2 7037   3.827   2.182   1.055 -0.5973 -0.6897  2.1004
 2276WAT      O 7038   3.387   2.462   4.060 -0.1942  0.3019 -0.3658
 2276WAT     H1 7039   3.433   2.518   4.122 -0.0279 -1.7551  1.4997
 2276WAT     H2 7040   3.308   2.512   4.038  0.3188  1.6094  0.5730
 2277WAT      O 7041   1.867   4.823   1.585 -0.5419  0.4427 -0.2185
 2277WAT     H1 7042   1.869   4.894   1.521  0.4172  0.7388  0.1248
 2277WAT     H2 7043   1.872   4.743   1.533 -0.8535  0.6433 -0.5624
 2278WAT      O 7044   2.415   3.590   3.413 -0.0099  0.2117 -0.4372
 2278WAT     H1 7045   2.379   3.668   3.455  0.1334 -0.5082  1.1048
 2278WAT     H2 7046   2.352   3.568   3.345 -0.9510  0.6968  0.2474
 2279WAT      O 7047   0.235   2.645   2.685  0.2705 -0.1587  0.3931
 2279WAT     H1 7048   0.200   2.655   2.773 -1.0901 -1.8847  0.1014
 2279WAT     H2 7049   0.327   2.621   2.698 -0.1754 -1.4333  1.4208
 2280WAT      O 7050   3.161   3.623   3.123 -0.5222 -0.0946  0.1233
 2280WAT     H1 7051   3.182   3.659   3.037  0.4739  0.6031  0.6406
 2280WAT     H2 7052   3.223   3.665   3.182  0.0220 -1.9232  0.9099
 2281WAT      O 7053   1.219   0.048   3.637  0.2082  0.4164  0.2865
 2281WAT     H1 7054   1.141   0.007   3.600  0.5344 -0.4881  0.5711
 2281WAT     H2 7055   1.237  -0.002   3.717  2.0515 -0.4905 -0.6468
 2282WAT      O 7056   4.139   2.107   4.368  0.1713  0.7497 -0.1534
 2282WAT     H1 7057   4.091   2.031   4.336  1.1797  0.9988 -2.4825
 2282WAT     H2 7058   4.138   2.168   4.295 -1.2308  3.3735  1.8654
 2283WAT      O 7059   3.795   0.495   1.586 -0.3290  0.4790  0.0511
 2283WAT     H1 7060   3.810   0.587   1.607 -2.1735  1.6374 -3.1667
 2283WAT     H2 7061   3.705   0.479   1.613 -1.0296  0.5556 -2.1162
 2284WAT      O 7062   0.008   0.947   1.264 -0.0098 -0.2218  0.5092
 2284WAT     H1 7063   0.083   0.983   1.311 -0.1638 -0.1147  0.6759
 2284WAT     H2 7064  -0.036   0.891   1.329 -1.0913  1.1198  0.9909
 2285WAT      O 7065   2.904   4.974   2.848  0.0561 -0.7945 -0.1864
 2285WAT     H1 7066   2.950   5.040   2.900 -0.1778 -1.7915  1.3358
 2285WAT     H2 7067   2.825   5.019   2.817  0.4901 -0.0086 -0.1772
 2286WAT      O 7068   3.474   3.553   4.752  0.6908  0.4498  0.4797
 2286WAT     H1 7069   3.526   3.579   4.676  1.5547  0.3146  1.0125
 2286WAT     H2 7070   3.436   3.468   4.727  2.3337 -0.4249  0.8053
 2287WAT      O 7071   0.638   3.033   1.929  0.1786 -0.1837 -0.1778
 2287WAT     H1 7072   0.547   3.003   1.924 -0.1576  1.0071 -2.2759
 2287WAT     H2 7073   0.660   3.057   1.839  1.9619  1.3424  0.6096
 2288WAT      O 7074   4.229   4.887   2.900  0.8359 -0.0164  0.5558
 2288WAT     H1 7075   4.305   4.840   2.866  0.9220  0.0832  0.6098
 2288WAT     H2 7076   4.154   4.830   2.881  1.0004 -0.4272  1.1248
 2289WAT      O 7077   0.513   2.507   2.020 -0.7423  0.0736  0.7661
 2289WAT     H1 7078   0.577   2.444   2.055 -0.2411  0.1025 -0.0817
 2289WAT     H2 7079   0.547   2.592   2.048 -0.8657  0.0357  1.0343
 2290WAT      O 7080   2.051   0.733   5.241  0.0613 -0.3091 -0.2458
 2290WAT     H1 7081   1.967   0.765   5.206 -0.6168 -1.4309  0.2874
 2290WAT     H2 7082   2.099   0.703   5.164  0.1488  0.6816 -0.5995
 2291WAT      O 7083   0.710   5.075   2.877  0.1038 -0.1349  0.3277
 2291WAT     H1 7084   0.671   5.005   2.929 -0.7320 -0.5282 -0.8069
 2291WAT     H2 7085   0.637   5.132   2.855  0.7177  0.9215  0.9285
 2292WAT      O 7086   1.299   0.820   1.865 -0.2795  0.2630  0.1272
 2292WAT     H1 7087   1.318   0.834   1.958  1.4516  0.7666 -0.2673
 2292WAT     H2 7088   1.248   0.897   1.839  0.1155  0.6279  0.4281
 2293WAT      O 7089   0.728   4.767   2.553  0.1142  0.1771 -0.2554
 2293WAT     H1 7090   0.740   4.850   2.601  0.4854  0.4088 -0.7339
 2293WAT     H2 7091   0.633   4.759   2.542 -0.5119 -2.0434  4.2477
 2294WAT      O 7092   0.679   1.479   0.885 -0.3664 -0.4253  0.1609
 2294WAT     H1 7093   0.650   1.393   0.854 -2.5644  0.9154 -1.8453
 2294WAT     H2 7094   0.637   1.490   0.970 -1.0365 -0.8968 -0.1006
 2295WAT      O 7095   0.900   2.155   2.456  0.1495  0.0740  0.2631
 2295WAT     H1 7096   0.925   2.090   2.521  0.3575  0.3244  0.4367
 2295WAT     H2 7097   0.835   2.111   2.402  0.0875 -0.1863  0.5464
 2296WAT      O 7098   2.319   0.106   1.359 -0.1753 -0.6250 -0.1537
 2296WAT     H1 7099   2.251   0.064   1.412  2.5355 -3.3529  1.5928
 2296WAT     H2 7100   2.317   0.198   1.385 -2.3850 -0.8597  0.6772
 2297WAT      O 7101   3.994   3.042   4.314  0.0605 -0.6798  0.4307
 2297WAT     H1 7102   3.940   3.011   4.242  0.6488 -1.3204  0.2517
 2297WAT     H2 7103   3.932   3.080   4.376 -0.4757 -0.3695 -0.2839
 2298WAT      O 7104   2.866   2.609   5.018  0.1756  0.5528 -0.5947
 2298WAT     H1 7105   2.791   2.662   4.992 -0.0234 -0.1735 -1.5421
 2298WAT     H2 7106   2.829   2.536   5.067  0.3693  0.7494 -0.1425
 2299WAT      O 7107   2.013   1.340   2.005  0.0992  0.2308  0.3371
 2299WAT     H1 7108   2.090   1.391   1.979 -1.3426  1.6628 -1.3537
 2299WAT     H2 7109   1.948   1.405   2.032 -1.7487 -0.5985 -1.7478
 2300WAT      O 7110   1.266   0.132   2.196 -0.3976  0.1120  0.8211
 2300WAT     H1 7111   1.343   0.187   2.182 -1.1018  0.9972  0.3712
 2300WAT     H2 7112   1.283   0.053   2.144 -0.3916  0.8799 -0.3683
 2301WAT      O 7113   2.688   4.434   3.152  0.3195  0.2145 -0.1380
 2301WAT     H1 7114   2.713   4.517   3.110  0.2215  1.9909  3.0382
 2301WAT     H2 7115   2.604   4.413   3.113 -1.0720  3.2265  0.8940
 2302WAT      O 7116   1.547   4.924   1.668 -0.4747  0.2704 -0.0522
 2302WAT     H1 7117   1.562   4.992   1.603  1.5358 -1.0324 -1.0633
 2302WAT     H2 7118   1.550   4.842   1.619  1.1650 -0.7588  1.6267
 2303WAT      O 7119   0.276   3.615   0.178  0.4370 -0.8063  0.2666
 2303WAT     H1 7120   0.336   3.550   0.140  1.5184  0.1670  0.2457
 2303WAT     H2 7121   0.325   3.697   0.174 -1.4564  0.3502 -1.1736
 2304WAT      O 7122   1.329   0.847   3.245  0.1642  0.5933 -0.4556
 2304WAT     H1 7123   1.314   0.930   3.291 -0.9164  0.5112 -0.6305
 2304WAT     H2 7124   1.359   0.787   3.313  0.5410  1.0124 -0.2447
 2305WAT      O 7125   1.423   0.419   1.452  0.3325 -0.0769 -0.0144
 2305WAT     H1 7126   1.440   0.408   1.546  0.1208  0.4396  0.0857
 2305WAT     H2 7127   1.328   0.423   1.445  0.3730  1.1367 -0.0959
 2306WAT      O 7128   0.919   1.339   1.205  0.3384 -0.6879 -0.0167
 2306WAT     H1 7129   0.841   1.295   1.171 -0.0098 -0.6725  0.7455
 2306WAT     H2 7130   0.886   1.401   1.269  0.6857  1.7440 -2.0344
 2307WAT      O 7131   2.464   3.837   3.717 -0.2420 -0.2315 -0.6203
 2307WAT     H1 7132   2.400   3.830   3.646 -1.1598 -1.6800  0.3128
 2307WAT     H2 7133   2.541   3.875   3.675 -1.5564  1.2307 -1.8496
 2308WAT      O 7134   3.384   0.045   4.881  0.3940  0.3413  0.1621
 2308WAT     H1 7135   3.476   0.065   4.862  0.5282 -1.1166 -0.8646
 2308WAT     H2 7136   3.381  -0.049   4.895 -1.0375  0.2642 -0.4210
 2309WAT      O 7137   2.039   1.578   3.861  0.6362 -0.2716 -0.5515
 2309WAT     H1 7138   2.117   1.616   3.822 -0.7905  1.0724 -2.2563
 2309WAT     H2 7139   2.007   1.644   3.922  0.4223 -0.5119 -0.3975
 2310WAT      O 7140   2.947   1.242   2.155  0.1698 -0.0642  0.2081
 2310WAT     H1 7141   2.874   1.185   2.129 -0.3585  0.0659  1.3416
 2310WAT     H2 7142   3.021   1.183   2.167  0.0879 -0.2810 -0.3388
 2311WAT      O 7143   4.179   4.501   3.125  0.1033  0.3949 -0.1453
 2311WAT     H1 7144   4.118   4.518   3.196  1.3000  2.8842  0.3837
 2311WAT     H2 7145   4.174   4.406   3.111 -0.3325 -0.1736  3.0864
 2312WAT      O 7146   0.483   4.985   4.456 -0.0268 -0.0552  0.2360
 2312WAT     H1 7147   0.495   4.935   4.375 -0.5308  0.4850 -0.1800
 2312WAT     H2 7148   0.452   5.071   4.427 -1.6601 -0.3252  1.0608
 2313WAT      O 7149   0.612   4.022   4.634  0.3600 -0.6978  0.6866
 2313WAT     H1 7150   0.641   3.944   4.587 -0.2818 -1.0133  0.8060
 2313WAT     H2 7151   0.518   4.028   4.615  0.1801 -0.5773  1.5677
 2314WAT      O 7152   3.558   0.645   0.544 -0.0211  0.4376 -0.0716
 2314WAT     H1 7153   3.468   0.659   0.514  0.0078  1.3227  0.2169
 2314WAT     H2 7154   3.585   0.563   0.502 -0.6103  0.6987 -0.9970
 2315WAT      O 7155   0.047   1.510   4.506 -0.3680  0.3118  0.5052
 2315WAT     H1 7156  -0.023   1.472   4.560 -1.4352  0.5986 -0.6302
 2315WAT     H2 7157   0.105   1.436   4.488 -1.0322 -0.2139  0.4709
 2316WAT      O 7158   3.216   3.081   1.568 -0.3622 -0.7321  0.0065
 2316WAT     H1 7159   3.278   3.009   1.583 -0.3845 -0.7111  0.1957
 2316WAT     H2 7160   3.208   3.085   1.473  1.3321  0.4586 -0.1225
 2317WAT      O 7161   0.519   4.822   3.615  0.2105 -0.1937  0.4863
 2317WAT     H1 7162   0.461   4.873   3.559  1.1992  0.8597  0.3863
 2317WAT     H2 7163   0.489   4.842   3.704 -0.1024 -0.3017  0.4058
 2318WAT      O 7164   3.576   3.079   4.762 -0.1562  0.4393  0.1116
 2318WAT     H1 7165   3.623   3.095   4.680  0.1102 -1.9537 -0.2702
 2318WAT     H2 7166   3.512   3.012   4.741  0.2197 -0.5697  1.9466
 2319WAT      O 7167   2.825   5.012   0.695  0.0208  0.2215 -0.2040
 2319WAT     H1 7168   2.757   4.999   0.761  0.1274 -0.6295 -0.2486
 2319WAT     H2 7169   2.824   5.106   0.678 -0.0997  0.4294  0.9037
 2320WAT      O 7170   0.240   1.936   4.354 -0.1206  0.3962 -0.2829
 2320WAT     H1 7171   0.203   1.855   4.389 -0.1400 -0.3598 -1.9665
 2320WAT     H2 7172   0.165   1.982   4.315  0.1638  0.4353 -0.7877
 2321WAT      O 7173   0.503   0.671   1.785 -0.6370 -0.4255  0.4574
 2321WAT     H1 7174   0.410   0.693   1.787 -0.8666 -1.3817  0.9075
 2321WAT     H2 7175   0.516   0.615   1.861  0.0829 -1.1768 -0.1963
 2322WAT      O 7176   0.971   2.679   4.359  0.0141 -0.0968  0.1752
 2322WAT     H1 7177   1.047   2.724   4.321  1.6107 -0.7249  2.4307
 2322WAT     H2 7178   0.953   2.608   4.297  1.1372  0.2052 -0.5325
 2323WAT      O 7179   1.975   2.957   2.779 -0.2736 -0.1617 -0.4222
 2323WAT     H1 7180   1.948   3.028   2.721 -1.1035 -2.2386 -2.7730
 2323WAT     H2 7181   1.893   2.921   2.813  0.1201 -0.2520  0.4798
 2324WAT      O 7182   1.824   2.358   0.320  0.6433  0.4466 -0.0345
 2324WAT     H1 7183   1.869   2.299   0.380 -1.0503  0.5532  1.4161
 2324WAT     H2 7184   1.837   2.445   0.357  0.7383  0.6783 -0.5972
 2325WAT      O 7185   1.343   0.638   2.596 -0.3755 -0.4873  0.5844
 2325WAT     H1 7186   1.368   0.552   2.631 -0.3538 -0.3551  0.8960
 2325WAT     H2 7187   1.413   0.696   2.625 -0.2660 -0.4123  0.1632
 2326WAT      O 7188   0.231   4.916   1.891  0.2578 -0.3847 -0.2893
 2326WAT     H1 7189   0.286   4.927   1.813  1.5247 -2.5887  0.1943
 2326WAT     H2 7190   0.219   4.821   1.898  2.2644 -0.5384  3.5060
 2327WAT      O 7191   1.043   2.390   1.978 -0.2283  0.2586 -0.0979
 2327WAT     H1 7192   1.094   2.468   1.956  0.9323 -0.8272 -1.4662
 2327WAT     H2 7193   0.963   2.424   2.019 -0.0863  2.1875 -1.3044
 2328WAT      O 7194   3.534   1.239   0.725 -0.5999  0.0456 -0.8648
 2328WAT     H1 7195   3.539   1.231   0.630  1.2997 -1.2038 -0.7113
 2328WAT     H2 7196   3.589   1.315   0.746  2.0296 -1.7828 -0.5957
 2329WAT      O 7197   1.064   2.985   0.218  0.2732 -0.1380 -0.4477
 2329WAT     H1 7198   1.080   2.996   0.311 -0.0342 -0.7789 -0.3075
 2329WAT     H2 7199   1.151   2.984   0.178  0.3608  1.4576 -0.3426
 2330WAT      O 7200   1.010   4.444   0.274  0.1068  0.0861  0.3328
 2330WAT     H1 7201   0.998   4.361   0.321  0.5054  0.3515  0.9074
 2330WAT     H2 7202   0.940   4.500   0.305  1.0823  0.6730  1.5464
 2331WAT      O 7203   1.362   0.395   2.719 -0.1900  0.5643 -0.1814
 2331WAT     H1 7204   1.362   0.314   2.669  0.4033  1.8809 -2.4512
 2331WAT     H2 7205   1.338   0.368   2.808  0.1924 -2.0890 -0.7983
 2332WAT      O 7206   1.201   2.176   1.850 -0.3673  0.2596  0.8941
 2332WAT     H1 7207   1.150   2.095   1.858 -0.7919  0.3470 -0.6936
 2332WAT     H2 7208   1.162   2.235   1.914 -0.4994 -0.5445  1.5824
 2333WAT      O 7209   2.407   4.356   2.256  0.3200 -0.1721 -0.3383
 2333WAT     H1 7210   2.334   4.390   2.308 -0.8203 -0.3467 -1.7411
 2333WAT     H2 7211   2.437   4.432   2.206 -0.1887 -0.5117 -1.1809
 2334WAT      O 7212   2.218   4.214   4.867 -0.3977  0.2145  0.4110
 2334WAT     H1 7213   2.279   4.277   4.827  0.7968 -0.8579  0.4768
 2334WAT     H2 7214   2.142   4.267   4.892 -0.0456  1.3741 -0.8440
 2335WAT      O 7215   2.316   3.226   3.449 -0.0831  0.1201 -0.3684
 2335WAT     H1 7216   2.245   3.164   3.433 -0.6575  0.4279  0.8155
 2335WAT     H2 7217   2.330   3.269   3.365 -1.4020  0.1425 -0.6070
 2336WAT      O 7218   1.971   4.352   4.981 -0.5907  0.0999  0.3945
 2336WAT     H1 7219   1.917   4.381   4.907  0.4607 -0.2253 -0.5358
 2336WAT     H2 7220   1.923   4.279   5.019 -1.1489  0.2715  0.0329
 2337WAT      O 7221   3.027   2.988   4.562  0.1864 -0.4966 -0.1463
 2337WAT     H1 7222   3.061   2.932   4.493  0.4006 -0.4142 -0.1063
 2337WAT     H2 7223   2.946   3.024   4.526 -1.9025 -3.5128  1.0335
 2338WAT      O 7224   1.167   3.693   3.447 -0.4587 -0.7504 -0.1344
 2338WAT     H1 7225   1.214   3.776   3.453  1.3560 -1.7662  0.5913
 2338WAT     H2 7226   1.163   3.675   3.353  0.6188 -0.6169 -0.2222
 2339WAT      O 7227   0.885   0.959   2.887 -0.7299 -0.1871  0.1174
 2339WAT     H1 7228   0.941   0.882   2.891 -0.0908  0.0409 -2.4929
 2339WAT     H2 7229   0.823   0.947   2.959  1.3117 -1.4944  1.7835
 2340WAT      O 7230   1.776   4.088   1.523  0.1058 -0.7073  0.4288
 2340WAT     H1 7231   1.833   4.075   1.447 -0.1851  1.7106 -0.2674
 2340WAT     H2 7232   1.690   4.109   1.486  0.0476  0.8787  1.3665
 2341WAT      O 7233   0.046   4.647   4.553  0.1647  0.6088  0.2121
 2341WAT     H1 7234   0.100   4.571   4.573 -0.0101  0.6570  0.9108
 2341WAT     H2 7235   0.101   4.702   4.498 -0.0266 -0.4384 -1.0709
 2342WAT      O 7236   1.524   4.709   5.260  0.2412 -0.4999  0.0707
 2342WAT     H1 7237   1.532   4.792   5.213 -1.0045 -0.0189  0.6696
 2342WAT     H2 7238   1.593   4.654   5.223  0.1045  0.2861 -1.4418
 2343WAT      O 7239   3.934   2.922   3.879 -0.5373  0.4910 -0.0775
 2343WAT     H1 7240   3.966   3.012   3.871 -3.2531  1.4799 -0.8029
 2343WAT     H2 7241   3.898   2.917   3.968 -0.3613  0.0999 -0.0267
 2344WAT      O 7242   4.075   3.284   4.124  0.8232  0.0422  0.4070
 2344WAT     H1 7243   4.045   3.225   4.193 -0.7746  0.6450  0.2821
 2344WAT     H2 7244   4.112   3.359   4.170  1.9640 -0.6062  0.5709
 2345WAT      O 7245   4.152   4.115   3.159 -0.1195 -0.2766 -0.4740
 2345WAT     H1 7246   4.059   4.096   3.160  0.0884 -1.4045  1.0748
 2345WAT     H2 7247   4.182   4.097   3.248  1.0506  2.8714 -0.0979
 2346WAT      O 7248   4.166   1.543   3.873  0.4862  0.3914  0.3907
 2346WAT     H1 7249   4.074   1.569   3.880  0.3528  0.6139 -1.6135
 2346WAT     H2 7250   4.212   1.622   3.846  1.5424  0.6311  2.6463
 2347WAT      O 7251   0.733   4.156   3.347  0.5041  0.0018 -0.6471
 2347WAT     H1 7252   0.691   4.216   3.409  0.5148 -0.0337 -0.6057
 2347WAT     H2 7253   0.662   4.097   3.319  0.9114 -1.2521  0.8369
 2348WAT      O 7254   0.084   4.604   1.425 -0.4710  0.2105 -0.1886
 2348WAT     H1 7255   0.008   4.574   1.373 -0.7522  0.4108  0.1028
 2348WAT     H2 7256   0.066   4.697   1.442 -0.2998  0.1866  0.1293
 2349WAT      O 7257   0.017   0.953   0.979 -0.2822  0.2413  0.1857
 2349WAT     H1 7258   0.029   0.950   1.074  0.5568  1.2049  0.1180
 2349WAT     H2 7259  -0.027   1.036   0.963 -0.4297  0.0748 -0.2744
 2350WAT      O 7260   0.915   1.371   1.633  0.3076 -0.5191  0.0071
 2350WAT     H1 7261   0.884   1.396   1.721 -0.4408 -1.4826  0.0394
 2350WAT     H2 7262   0.993   1.319   1.649  0.8318  0.2601  0.0318
 2351WAT      O 7263   1.133   0.338   2.982 -0.1377 -0.0726  0.2485
 2351WAT     H1 7264   1.221   0.310   2.958 -0.6152 -0.9999 -0.4873
 2351WAT     H2 7265   1.075   0.277   2.936 -1.1737  0.7888  0.3697
 2352WAT      O 7266   2.756   3.356   0.999 -0.2138 -0.4742  0.3709
 2352WAT     H1 7267   2.715   3.415   0.936  1.0774 -1.0497 -1.0805
 2352WAT     H2 7268   2.687   3.338   1.063 -1.2690  0.9154 -0.3204
 2353WAT      O 7269   1.047   1.010   0.020  0.5545 -0.0093 -0.1465
 2353WAT     H1 7270   0.962   1.039  -0.013 -0.4673 -2.2920  0.2961
 2353WAT     H2 7271   1.058   1.059   0.102 -0.1304  0.6259 -0.4203
 2354WAT      O 7272   1.387   2.079   4.944  0.0936 -0.2279  0.0184
 2354WAT     H1 7273   1.347   2.068   4.858  0.0630  1.5627 -0.2330
 2354WAT     H2 7274   1.462   2.020   4.944 -0.8076 -1.3913 -0.6405
 2355WAT      O 7275   1.162   2.684   4.138  0.0608  0.1654  0.0302
 2355WAT     H1 7276   1.186   2.614   4.078  0.5444 -0.4984  0.9595
 2355WAT     H2 7277   1.183   2.765   4.092  0.3136 -0.3272 -0.7213
 2356WAT      O 7278   3.156   1.418   0.453  0.2524 -0.0519  0.7571
 2356WAT     H1 7279   3.130   1.509   0.462  1.1130  0.5375 -2.0347
 2356WAT     H2 7280   3.196   1.396   0.538 -0.0405  2.1000  1.4999
 2357WAT      O 7281   4.018   4.384   4.063 -0.4580 -0.4365 -0.1062
 2357WAT     H1 7282   4.049   4.402   4.152  1.2055 -0.1037 -0.7036
 2357WAT     H2 7283   3.965   4.460   4.040 -3.3340 -1.7929  1.5731
 2358WAT      O 7284   1.948   0.404   0.473  0.8008  0.0848 -0.0394
 2358WAT     H1 7285   2.036   0.426   0.445  1.4219 -0.4968  1.3350
 2358WAT     H2 7286   1.891   0.434   0.402  2.1322  0.0592 -1.1478
 2359WAT      O 7287   1.837   0.349   4.971 -0.0171  0.2762 -0.1752
 2359WAT     H1 7288   1.837   0.397   5.054 -0.6307 -0.5366  0.3095
 2359WAT     H2 7289   1.753   0.303   4.970  0.1418 -0.0209 -1.0805
 2360WAT      O 7290   2.108   3.218   5.068 -0.4630  0.3266  0.9768
 2360WAT     H1 7291   2.066   3.134   5.050  0.2058  0.3084 -0.6714
 2360WAT     H2 7292   2.090   3.270   4.990  2.8496  0.1756 -0.0230
 2361WAT      O 7293   3.178   2.442   0.208  0.0191  0.1927 -0.1536
 2361WAT     H1 7294   3.263   2.431   0.164  0.0553  0.3594 -0.1261
 2361WAT     H2 7295   3.123   2.483   0.142  0.0689  0.4302 -0.0461
 2362WAT      O 7296   2.803   0.616   0.759  0.1588  0.5500  0.3078
 2362WAT     H1 7297   2.867   0.561   0.804  0.9926  0.5138 -0.8651
 2362WAT     H2 7298   2.832   0.616   0.667 -0.3948  2.1377  0.1058
 2363WAT      O 7299   2.422   4.737   4.018  0.1046  0.3616 -0.1657
 2363WAT     H1 7300   2.481   4.681   3.967 -1.0557 -0.9877 -0.0739
 2363WAT     H2 7301   2.383   4.678   4.082  0.5583  1.7698  1.4740
 2364WAT      O 7302   4.160   5.006   4.830 -0.3197  0.1861  0.0926
 2364WAT     H1 7303   4.085   4.974   4.879  0.4764 -1.4900  0.2757
 2364WAT     H2 7304   4.167   4.947   4.755  0.9899  0.1096  0.2414
 2365WAT      O 7305   1.139   3.237   3.831 -0.4973 -0.4410 -0.4185
 2365WAT     H1 7306   1.070   3.272   3.776  0.1979 -0.9590 -1.6571
 2365WAT     H2 7307   1.147   3.300   3.903  0.3480  1.7124 -2.2657
 2366WAT      O 7308   2.319   4.632   4.231 -0.0287 -0.4214  0.4824
 2366WAT     H1 7309   2.234   4.620   4.190  0.8545 -0.3022 -1.4756
 2366WAT     H2 7310   2.304   4.699   4.298 -1.0011  1.3669 -1.4442
 2367WAT      O 7311   3.921   1.875   3.068  0.4576 -0.1713 -0.3421
 2367WAT     H1 7312   3.997   1.826   3.100  0.3651 -0.0117  0.1320
 2367WAT     H2 7313   3.846   1.827   3.102  0.3700  0.4852  0.4361
 2368WAT      O 7314   0.868   0.570   2.645  0.1378 -0.5586 -0.5746
 2368WAT     H1 7315   0.797   0.628   2.619  1.4240  0.8042 -1.2278
 2368WAT     H2 7316   0.902   0.607   2.726  0.5760 -0.7620 -0.6588
 2369WAT      O 7317   0.686   0.876   4.949  0.7018  0.3653 -0.0995
 2369WAT     H1 7318   0.605   0.919   4.921 -0.1484 -0.6614  0.7172
 2369WAT     H2 7319   0.673   0.783   4.930  1.9385  0.2533 -0.5133
 2370WAT      O 7320   3.241   0.687   1.240  0.0381 -0.1399 -0.5982
 2370WAT     H1 7321   3.274   0.747   1.173  1.3671  2.3941  2.1138
 2370WAT     H2 7322   3.311   0.623   1.251  0.3346  0.1528 -0.7598
 2371WAT      O 7323   0.630   0.509   1.567  0.3269  0.1707 -0.1799
 2371WAT     H1 7324   0.666   0.597   1.573 -0.0659  0.3600 -0.5945
 2371WAT     H2 7325   0.544   0.515   1.609 -0.2028  0.2704 -1.2461
 2372WAT      O 7326   0.979   3.125  -0.005  0.0458 -0.4584 -0.1903
 2372WAT     H1 7327   0.931   3.058  -0.054  0.4716 -1.0193  0.1522
 2372WAT     H2 7328   0.997   3.085   0.080  0.1619  0.1535  0.0786
 2373WAT      O 7329   2.059   0.181   0.577 -0.1151 -0.8213  0.4786
 2373WAT     H1 7330   2.122   0.166   0.506 -0.2020 -2.2343  0.6799
 2373WAT     H2 7331   2.016   0.263   0.553  1.1457 -0.3001 -0.1402
 2374WAT      O 7332   2.302   4.341   2.677  0.2151 -0.1566  0.3435
 2374WAT     H1 7333   2.325   4.250   2.693 -0.2874 -0.0356  1.8821
 2374WAT     H2 7334   2.278   4.344   2.584  0.2815 -1.5650  0.2648
 2375WAT      O 7335   3.300   4.274   2.488  0.5026 -0.2328  0.3003
 2375WAT     H1 7336   3.251   4.211   2.434 -0.4773  0.4552  0.3577
 2375WAT     H2 7337   3.314   4.349   2.430  2.1647 -0.7074  0.0546
 2376WAT      O 7338   3.687   2.203   3.664  0.3394 -0.3107  0.2423
 2376WAT     H1 7339   3.716   2.280   3.616  1.9177 -0.5530  0.7564
 2376WAT     H2 7340   3.686   2.230   3.756 -0.2946 -0.5562  0.3150
 2377WAT      O 7341   0.003   4.368   5.137 -0.0161  0.0305  0.2784
 2377WAT     H1 7342   0.014   4.275   5.158 -0.4280  0.1561  1.1357
 2377WAT     H2 7343   0.055   4.382   5.059 -0.3480 -1.0380 -0.1517
 2378WAT      O 7344   1.353   3.687   1.564  0.6104 -0.0167  0.0294
 2378WAT     H1 7345   1.332   3.781   1.557  1.8737  0.2237 -1.1283
 2378WAT     H2 7346   1.444   3.686   1.594  1.3195 -0.7836 -1.9821
 2379WAT      O 7347   2.512   2.578   4.360 -0.1187 -0.6625  0.0764
 2379WAT     H1 7348   2.541   2.567   4.450 -0.5876 -2.0145  0.0934
 2379WAT     H2 7349   2.532   2.493   4.319 -1.5967 -0.7109 -0.5855
 2380WAT      O 7350   2.866   3.482   4.712 -0.5245 -0.1000  0.1792
 2380WAT     H1 7351   2.826   3.543   4.774 -0.9868  0.2755 -0.4821
 2380WAT     H2 7352   2.810   3.404   4.716  0.0373 -0.4808  0.9860
 2381WAT      O 7353   3.292   4.470   0.885  0.0783 -0.3378  0.3801
 2381WAT     H1 7354   3.285   4.376   0.903 -0.4477 -0.3840 -0.0401
 2381WAT     H2 7355   3.253   4.480   0.799 -0.8810  0.4358  0.9009
 2382WAT      O 7356   4.331   3.097   3.028  0.4289  0.1920  0.2809
 2382WAT     H1 7357   4.383   3.128   3.102  2.3433 -0.3751 -0.7655
 2382WAT     H2 7358   4.320   3.174   2.972 -2.1829  0.9718  1.6921
 2383WAT      O 7359   3.767   3.940   4.935 -0.1039 -0.4254 -0.4324
 2383WAT     H1 7360   3.729   3.853   4.949  1.2159 -0.7976  1.1593
 2383WAT     H2 7361   3.692   3.996   4.916 -0.9941 -1.8779 -1.4343
 2384WAT      O 7362   0.201   3.448   4.054 -0.1588 -0.1027  0.4848
 2384WAT     H1 7363   0.112   3.414   4.061  0.5701 -2.2034  0.1514
 2384WAT     H2 7364   0.243   3.393   3.988  1.9393 -0.4398  1.9829
 2385WAT      O 7365   3.884   1.280   0.590  0.5626 -0.4294 -0.4379
 2385WAT     H1 7366   3.806   1.228   0.572 -0.3959  0.2706  1.3906
 2385WAT     H2 7367   3.942   1.220   0.638  0.1823 -0.3320  0.1601
 2386WAT      O 7368   1.051   0.837   4.079 -0.3663 -0.1838 -0.3285
 2386WAT     H1 7369   0.971   0.807   4.036 -0.8267 -0.3730  0.6343
 2386WAT     H2 7370   1.086   0.904   4.020 -2.0727  1.0384 -0.0244
 2387WAT      O 7371   1.525   3.463   4.635  0.4238  0.7451 -0.6090
 2387WAT     H1 7372   1.560   3.465   4.724 -1.6131 -0.6884  0.3064
 2387WAT     H2 7373   1.546   3.549   4.599  1.4888  1.2825  1.1576
 2388WAT      O 7374   0.290   2.810   1.527  0.7386  0.0100 -0.1033
 2388WAT     H1 7375   0.212   2.828   1.579  1.0550  1.7358 -0.1571
 2388WAT     H2 7376   0.260   2.752   1.457 -0.6007  1.0189 -0.3965
 2389WAT      O 7377   1.350   4.738   1.196 -0.8086  0.2322  0.7354
 2389WAT     H1 7378   1.302   4.707   1.120 -0.2280  1.3158 -0.1041
 2389WAT     H2 7379   1.359   4.661   1.252 -0.0662 -0.9505 -0.9116
 2390WAT      O 7380   3.709   3.980   3.010 -0.6854  0.0836  0.5324
 2390WAT     H1 7381   3.614   3.978   3.001 -0.7685  0.4449  1.3009
 2390WAT     H2 7382   3.742   3.941   2.929 -1.4303  2.0258 -0.7649
 2391WAT      O 7383   2.828   3.170   3.951  0.1558  0.1199  0.1328
 2391WAT     H1 7384   2.798   3.258   3.930 -2.0358  0.3273  3.3640
 2391WAT     H2 7385   2.921   3.170   3.928  0.0077  2.9329 -0.8035
 2392WAT      O 7386   1.943   1.402   2.573  0.3323  0.2601 -0.3094
 2392WAT     H1 7387   1.980   1.321   2.537 -0.1467 -0.2266  0.2525
 2392WAT     H2 7388   1.994   1.472   2.533  0.3039 -0.2891 -1.3392
 2393WAT      O 7389   2.194   0.487   0.371 -0.5407  0.2291 -0.2940
 2393WAT     H1 7390   2.180   0.574   0.332 -0.2375  0.7158  0.6631
 2393WAT     H2 7391   2.258   0.446   0.313  0.2129  1.0941 -0.1074
 2394WAT      O 7392   3.506   3.402   0.185  0.1136 -0.6298  0.1147
 2394WAT     H1 7393   3.532   3.493   0.195 -1.8655 -0.0314  0.3290
 2394WAT     H2 7394   3.586   3.356   0.159  0.5702  1.7314 -3.3210
 2395WAT      O 7395   1.431   4.817   3.576  0.4862  0.7243  0.0182
 2395WAT     H1 7396   1.482   4.837   3.654 -0.1038  0.7638  0.4003
 2395WAT     H2 7397   1.350   4.867   3.586  1.0295  1.9604 -1.3672
 2396WAT      O 7398   0.046   5.162   4.807 -0.3336 -0.3298  1.1236
 2396WAT     H1 7399   0.080   5.075   4.827  0.0595 -0.5819 -0.5070
 2396WAT     H2 7400  -0.046   5.159   4.835 -0.1700 -1.0693  1.6060
 2397WAT      O 7401   1.511   3.608   3.215 -0.4281  0.1692 -0.1476
 2397WAT     H1 7402   1.559   3.621   3.134 -0.0531  0.4010  0.1088
 2397WAT     H2 7403   1.435   3.555   3.190  0.4566 -1.0223 -0.4026
 2398WAT      O 7404   1.889   0.604   4.046  0.1244 -0.3691  0.3160
 2398WAT     H1 7405   1.924   0.552   3.974 -0.0530  1.0753 -0.8596
 2398WAT     H2 7406   1.835   0.543   4.095  0.6163 -1.5029 -0.5030
 2399WAT      O 7407   0.980   4.052   1.658 -0.2267 -0.4984  0.8359
 2399WAT     H1 7408   0.907   4.034   1.718 -0.4044  0.0928  0.8053
 2399WAT     H2 7409   1.033   3.973   1.660 -0.7124 -0.8235  1.0890
 2400WAT      O 7410   0.344   1.189   0.344 -0.0092 -0.2358 -0.2005
 2400WAT     H1 7411   0.282   1.248   0.387 -0.4570 -1.3217  0.7053
 2400WAT     H2 7412   0.429   1.214   0.379  0.3341  2.2255 -2.5248
 2401WAT      O 7413   1.977   1.102   2.146  0.0003 -0.4814  0.1959
 2401WAT     H1 7414   1.959   1.178   2.091 -0.8491 -0.9089 -0.1453
 2401WAT     H2 7415   2.062   1.120   2.186 -0.3662  0.8187  0.4341
 2402WAT      O 7416   3.188   3.039   2.591 -0.4845 -0.1256 -0.1368
 2402WAT     H1 7417   3.279   3.046   2.564 -1.0783  0.9520 -2.0495
 2402WAT     H2 7418   3.186   2.965   2.652  2.0585  1.3476  1.9092
 2403WAT      O 7419   2.035   4.406   0.550  0.0621 -0.1193  0.2456
 2403WAT     H1 7420   1.980   4.415   0.628 -1.2408  0.6978 -0.7122
 2403WAT     H2 7421   2.123   4.427   0.579 -0.4699  0.5711  1.4100
 2404WAT      O 7422   3.542   0.768   4.657 -0.0046  0.1576  0.2106
 2404WAT     H1 7423   3.526   0.739   4.747 -1.1324  0.5525  0.1495
 2404WAT     H2 7424   3.515   0.860   4.656  0.1227  0.1947 -0.4983
 2405WAT      O 7425   3.089   2.551   4.021  0.0892  0.4397 -0.1790
 2405WAT     H1 7426   3.088   2.612   3.948 -1.5029  0.6101 -0.0506
 2405WAT     H2 7427   3.026   2.588   4.084  0.2454 -0.5293  0.5773
 2406WAT      O 7428   3.647   3.646   1.040 -0.4432 -0.5651  0.3547
 2406WAT     H1 7429   3.666   3.737   1.016 -0.5327 -1.0766 -1.9604
 2406WAT     H2 7430   3.733   3.610   1.065 -0.2859 -0.0347  0.5986
 2407WAT      O 7431   3.880   3.757   0.346 -0.3866  0.7786 -0.0836
 2407WAT     H1 7432   3.911   3.707   0.422 -2.7145  0.1615  0.5679
 2407WAT     H2 7433   3.834   3.692   0.292 -1.9352  1.8388 -0.1253
 2408WAT      O 7434   1.335   3.456   1.885 -0.8511  0.0741 -0.2647
 2408WAT     H1 7435   1.275   3.508   1.939 -1.2979 -0.5000 -0.1953
 2408WAT     H2 7436   1.416   3.507   1.883 -1.0650  0.4493  0.3483
 2409WAT      O 7437   1.970   0.081   3.417  0.4438  0.2003  0.1009
 2409WAT     H1 7438   2.013   0.075   3.503  1.7456 -1.2501 -0.6105
 2409WAT     H2 7439   1.877   0.090   3.438  0.5965 -1.3623  1.6776
 2410WAT      O 7440   3.409   4.517   1.677 -0.5250  0.0119 -0.0404
 2410WAT     H1 7441   3.418   4.508   1.582  0.2703 -2.0804  0.1723
 2410WAT     H2 7442   3.341   4.583   1.689 -1.9299 -0.9554 -2.1002
 2411WAT      O 7443   3.884   4.045   4.498 -0.1349  0.0246  0.1406
 2411WAT     H1 7444   3.815   4.101   4.533  1.6886  2.4014  0.1683
 2411WAT     H2 7445   3.911   3.991   4.572  0.8590  2.0832  1.3487
 2412WAT      O 7446   1.925   3.524   1.254 -0.4522 -0.6191  0.5483
 2412WAT     H1 7447   1.875   3.510   1.335 -0.2673 -0.5959  0.6650
 2412WAT     H2 7448   1.981   3.598   1.272 -2.0509  0.8875 -0.3655
 2413WAT      O 7449   1.532   1.762   4.365 -0.2214 -0.3212  0.2504
 2413WAT     H1 7450   1.571   1.700   4.303 -0.6593 -0.0770 -0.2794
 2413WAT     H2 7451   1.471   1.813   4.312 -0.2675  0.1999  0.7946
 2414WAT      O 7452   1.628   2.485   4.466  0.1634 -0.4001  0.3651
 2414WAT     H1 7453   1.690   2.417   4.439  0.4489  0.1675 -0.4638
 2414WAT     H2 7454   1.542   2.442   4.462  0.2134 -0.4129 -1.2953
 2415WAT      O 7455   1.578   2.442   0.511  0.1817  0.0027 -0.6627
 2415WAT     H1 7456   1.498   2.392   0.522  0.9651 -0.8684  1.6007
 2415WAT     H2 7457   1.641   2.400   0.569  1.9059  1.4841 -1.3610
 2416WAT      O 7458   2.313   4.924   4.713  0.3498 -0.5558 -0.6967
 2416WAT     H1 7459   2.291   4.967   4.796  0.4617 -0.8340 -0.5233
 2416WAT     H2 7460   2.408   4.919   4.713  0.3474 -0.6137 -0.8153
 2417WAT      O 7461   2.071   2.475   0.746 -0.4428 -0.3690  0.8577
 2417WAT     H1 7462   2.126   2.504   0.673 -1.3383  2.6194  1.2425
 2417WAT     H2 7463   2.111   2.394   0.776  0.8416 -0.9007 -1.9672
 2418WAT      O 7464   0.222   3.997   1.401 -0.2605 -0.0545 -0.0128
 2418WAT     H1 7465   0.274   3.969   1.476  0.8823  2.3265  0.2044
 2418WAT     H2 7466   0.287   4.033   1.339 -1.3821  0.1536 -1.1147
 2419WAT      O 7467   3.930   4.095   3.289 -0.1196 -0.0758 -0.1415
 2419WAT     H1 7468   3.922   4.143   3.371 -2.2226 -1.6701  0.6718
 2419WAT     H2 7469   3.869   4.022   3.297  1.2856 -1.6156 -2.2254
 2420WAT      O 7470   2.301   3.819   3.473 -0.1228  0.1494 -0.4832
 2420WAT     H1 7471   2.218   3.817   3.519 -0.0044  1.1965 -0.2070
 2420WAT     H2 7472   2.294   3.894   3.413  0.2669 -0.3197 -1.1339
 2421WAT      O 7473   4.327   0.936   3.940 -0.2333 -0.0431  0.1007
 2421WAT     H1 7474   4.286   0.967   3.859  0.7612  1.4962  0.1609
 2421WAT     H2 7475   4.265   0.960   4.009 -0.9081 -1.0259 -0.1319
 2422WAT      O 7476   3.668   1.641   2.131  0.4237  0.7343  0.0472
 2422WAT     H1 7477   3.740   1.655   2.193  0.2212  0.5920  0.3160
 2422WAT     H2 7478   3.711   1.608   2.052  0.6574  0.6891  0.1927
 2423WAT      O 7479   0.180   3.693   3.388 -0.0132  0.0704 -0.0197
 2423WAT     H1 7480   0.246   3.643   3.340  0.5718  0.5769  0.2279
 2423WAT     H2 7481   0.218   3.781   3.395  0.6213 -0.3376  2.6587
 2424WAT      O 7482   2.490   4.206   3.794  0.2162 -0.2619  0.3725
 2424WAT     H1 7483   2.426   4.268   3.828  2.5404  1.2035  2.4432
 2424WAT     H2 7484   2.473   4.125   3.843 -0.9778 -0.4099 -0.2421
 2425WAT      O 7485   0.988   0.668   1.867  0.4242 -0.2441 -0.3684
 2425WAT     H1 7486   0.943   0.589   1.838 -0.6660  0.2584 -0.1148
 2425WAT     H2 7487   1.080   0.653   1.847  0.7059 -2.7738  2.2728
 2426WAT      O 7488   0.750   1.974   4.554 -0.1204 -0.4322 -0.2157
 2426WAT     H1 7489   0.765   2.006   4.465  0.3424 -0.0879 -0.0160
 2426WAT     H2 7490   0.743   1.879   4.545  2.1396 -0.6409 -0.3497
 2427WAT      O 7491   4.476   4.334   4.398  0.4450  0.3858  1.1213
 2427WAT     H1 7492   4.543   4.376   4.344 -1.0063 -0.0059 -1.1550
 2427WAT     H2 7493   4.397   4.385   4.381 -0.1303  0.0966  2.7702
 2428WAT      O 7494   1.753   0.437   4.726  0.1339  0.1502 -0.2798
 2428WAT     H1 7495   1.785   0.387   4.801 -2.0290  0.7319  1.1335
 2428WAT     H2 7496   1.783   0.526   4.742 -0.8994  0.4124  0.3062
 2429WAT      O 7497   1.984   3.913   3.765  0.5353  0.1565 -0.6459
 2429WAT     H1 7498   1.916   3.886   3.827 -0.0007 -0.6211 -1.5449
 2429WAT     H2 7499   2.033   3.981   3.812  0.4308 -0.7132  0.7906
 2430WAT      O 7500   1.263   0.601   5.112  0.3399 -0.3009 -0.9796
 2430WAT     H1 7501   1.353   0.621   5.086  0.8487 -0.0844  0.7858
 2430WAT     H2 7502   1.227   0.686   5.139  0.7673 -0.8318  1.5209
 2431WAT      O 7503   3.018   4.608   0.331  0.3642  0.8573 -0.5163
 2431WAT     H1 7504   3.065   4.671   0.277  1.1777 -0.5097 -1.4552
 2431WAT     H2 7505   2.966   4.556   0.269  0.6790 -0.2122  0.0836
 2432WAT      O 7506   2.581   1.444   4.242  0.0803  0.3815  0.4077
 2432WAT     H1 7507   2.654   1.472   4.186  0.2312 -0.4061  0.1960
 2432WAT     H2 7508   2.603   1.480   4.328  2.4129 -2.4476  1.1603
 2433WAT      O 7509   0.730   2.365   4.835  0.6150  0.5089 -0.4720
 2433WAT     H1 7510   0.704   2.412   4.755  0.4612 -1.5907 -1.7480
 2433WAT     H2 7511   0.803   2.309   4.807 -0.0868 -0.9967  0.5743
 2434WAT      O 7512   4.451   3.111   0.538 -0.6665 -0.1796  0.0986
 2434WAT     H1 7513   4.535   3.152   0.557  0.1022 -1.1693 -1.0018
 2434WAT     H2 7514   4.409   3.170   0.476 -0.4638 -0.0491  0.0852
 2435WAT      O 7515   1.875   4.116   1.920 -0.3629  0.0844 -1.1007
 2435WAT     H1 7516   1.820   4.053   1.966  1.0734 -0.2244  0.2775
 2435WAT     H2 7517   1.941   4.062   1.876  2.0290  0.5487  1.5928
 2436WAT      O 7518   3.455   2.175   2.248 -0.5608  0.0402 -0.0503
 2436WAT     H1 7519   3.414   2.248   2.202 -2.2981 -0.1681  1.0708
 2436WAT     H2 7520   3.513   2.136   2.183 -0.0395  2.0189 -0.8593
 2437WAT      O 7521   1.566   3.433   2.214 -0.2505  0.2197 -0.1862
 2437WAT     H1 7522   1.481   3.394   2.235  0.0269 -0.8685 -1.0122
 2437WAT     H2 7523   1.613   3.365   2.166  0.8256  1.0557 -0.3631
 2438WAT      O 7524   4.154   4.745   1.258  0.3360 -0.8208 -0.1678
 2438WAT     H1 7525   4.160   4.734   1.163 -0.3929 -0.1440 -0.2985
 2438WAT     H2 7526   4.173   4.837   1.273  0.3416 -0.9010  0.3381
 2439WAT      O 7527   2.304   2.901   2.305 -0.0539 -0.0571  0.0496
 2439WAT     H1 7528   2.239   2.942   2.248 -1.2880  1.1353  2.1974
 2439WAT     H2 7529   2.253   2.858   2.373  1.2922 -3.2877 -0.8034
 2440WAT      O 7530   1.324   4.972   0.040  0.2749  0.6869  0.0662
 2440WAT     H1 7531   1.300   5.044   0.099  1.4150  0.8165  0.3983
 2440WAT     H2 7532   1.409   4.998   0.005  0.7597 -0.5508  0.2830
 2441WAT      O 7533   3.806   3.651   4.142  0.1958 -0.8347  0.1912
 2441WAT     H1 7534   3.854   3.568   4.146  0.9594 -0.4039  0.1275
 2441WAT     H2 7535   3.852   3.708   4.203  0.1712 -0.2097 -0.3719
 2442WAT      O 7536   2.913   1.249   4.872  0.0300  0.3006  0.0303
 2442WAT     H1 7537   2.936   1.159   4.849  1.0495 -0.0395  2.1048
 2442WAT     H2 7538   2.821   1.243   4.898 -0.3815  0.2059 -1.3773
 2443WAT      O 7539   3.826   3.875   0.061 -0.8258  0.7160  0.0450
 2443WAT     H1 7540   3.921   3.881   0.069 -0.5462 -2.0691 -0.3345
 2443WAT     H2 7541   3.793   3.923   0.137  0.9809 -0.6393  1.8105
 2444WAT      O 7542   3.244   3.480   1.799 -0.5455 -0.1191 -0.2911
 2444WAT     H1 7543   3.316   3.441   1.849 -1.6606 -1.0301  0.6649
 2444WAT     H2 7544   3.210   3.549   1.856  1.0984  2.0436 -1.7689
 2445WAT      O 7545   2.664   1.830   3.064 -0.1475 -0.2655  0.7034
 2445WAT     H1 7546   2.572   1.845   3.042  0.2700  0.5270 -0.6100
 2445WAT     H2 7547   2.687   1.750   3.016 -0.2070 -0.6196  1.2501
 2446WAT      O 7548   2.856   3.708   3.566 -0.0186 -0.1015  0.0867
 2446WAT     H1 7549   2.827   3.662   3.487 -1.7055 -1.6095  1.4642
 2446WAT     H2 7550   2.799   3.784   3.571 -0.2796 -0.2969  0.1211
 2447WAT      O 7551   2.840   0.595   2.319  0.2122 -0.4968  0.4311
 2447WAT     H1 7552   2.780   0.549   2.378 -2.0470  1.2422 -0.3633
 2447WAT     H2 7553   2.872   0.669   2.370 -0.1196 -0.1525  0.1439
 2448WAT      O 7554   3.265   1.744   0.343 -0.4618  0.2465  0.0675
 2448WAT     H1 7555   3.248   1.658   0.304  0.2350  0.0990  0.0699
 2448WAT     H2 7556   3.196   1.755   0.408 -2.1472  0.8648 -1.7455
 2449WAT      O 7557   1.224   2.619   1.887  0.0307  0.2246 -0.5609
 2449WAT     H1 7558   1.212   2.680   1.960  2.9418 -0.5062  0.6720
 2449WAT     H2 7559   1.309   2.578   1.904 -1.0876 -3.0857 -2.1140
 2450WAT      O 7560   0.453   2.696   4.612  0.2306 -0.3895  0.5107
 2450WAT     H1 7561   0.389   2.639   4.656  0.4481 -0.5290  0.6472
 2450WAT     H2 7562   0.401   2.743   4.547 -0.2899  0.5456  1.5552
 2451WAT      O 7563   0.324   4.409   3.427  0.1849  0.3171 -0.1759
 2451WAT     H1 7564   0.306   4.448   3.342 -0.1640  1.7339  0.5183
 2451WAT     H2 7565   0.251   4.437   3.483 -0.6920 -2.2559  0.1147
 2452WAT      O 7566   1.038   4.701   4.303 -0.2795  0.5824  0.8902
 2452WAT     H1 7567   1.059   4.779   4.353  0.9097  0.9435 -0.1273
 2452WAT     H2 7568   1.071   4.719   4.215 -0.3908 -0.8791  0.5219
 2453WAT      O 7569   0.489   1.571   4.628  0.3072 -0.2722  0.3452
 2453WAT     H1 7570   0.540   1.545   4.705 -1.3315 -0.4712  1.4197
 2453WAT     H2 7571   0.501   1.500   4.565  2.7081  0.4974 -0.1478
 2454WAT      O 7572   1.470   3.830   4.891 -0.0003 -0.3471 -0.1580
 2454WAT     H1 7573   1.388   3.798   4.929  1.3460 -1.0720  2.4012
 2454WAT     H2 7574   1.488   3.771   4.818 -1.0664 -1.0462  0.1272
 2455WAT      O 7575   1.066   2.054   3.681  0.1906  0.2998  0.7453
 2455WAT     H1 7576   1.082   1.995   3.755  0.6786 -0.5114  0.0200
 2455WAT     H2 7577   0.972   2.049   3.666 -0.0593  1.2118  1.8987
 2456WAT      O 7578   1.058   2.202   4.934  0.0313 -0.3479 -0.1249
 2456WAT     H1 7579   0.992   2.143   4.899 -1.2170  0.9794 -0.0982
 2456WAT     H2 7580   1.031   2.289   4.904  2.1578  0.1783 -0.7069
 2457WAT      O 7581   1.689   0.405   3.063  0.0176 -0.4755 -0.4171
 2457WAT     H1 7582   1.679   0.314   3.091  0.9501 -0.2553  0.6961
 2457WAT     H2 7583   1.761   0.402   3.000  1.3078 -0.2870  0.9835
 2458WAT      O 7584   0.775   2.721   2.907  0.1803 -0.4708  0.1784
 2458WAT     H1 7585   0.722   2.800   2.921  0.1321 -0.2874 -0.9407
 2458WAT     H2 7586   0.806   2.729   2.817  0.4514 -1.5711  0.1609
 2459WAT      O 7587   2.208   0.993   0.089 -0.1881  0.4986  0.1378
 2459WAT     H1 7588   2.129   0.986   0.143 -0.1198 -2.8403 -0.0061
 2459WAT     H2 7589   2.188   0.940   0.011  1.4216  1.3971 -0.9371
 2460WAT      O 7590   0.311   1.738   0.059 -0.2113  0.0649  0.1281
 2460WAT     H1 7591   0.369   1.800   0.016 -1.0926  1.1974  0.5396
 2460WAT     H2 7592   0.365   1.660   0.073  0.6640  0.4249 -1.1477
 2461WAT      O 7593   3.444   3.909   0.338  0.3075  0.2048 -0.1251
 2461WAT     H1 7594   3.538   3.926   0.336  0.3786 -0.0916 -3.4237
 2461WAT     H2 7595   3.419   3.926   0.429  3.4011  0.9450  0.6928
 2462WAT      O 7596   4.341   4.094   0.094  0.0578  0.0646 -0.1129
 2462WAT     H1 7597   4.354   4.005   0.127  2.4929  0.6466  0.7047
 2462WAT     H2 7598   4.396   4.099   0.016 -0.6167  0.6689 -0.5667
 2463WAT      O 7599   2.578   4.038   2.977  0.1993 -0.0177  0.2877
 2463WAT     H1 7600   2.608   3.960   3.024 -1.6342  0.5798  2.6489
 2463WAT     H2 7601   2.642   4.106   3.000 -0.3931  0.1345  1.5771
 2464WAT      O 7602   0.305   2.619   3.095  0.6709 -0.1412 -0.2362
 2464WAT     H1 7603   0.256   2.673   3.033  2.7552  0.9426 -1.0556
 2464WAT     H2 7604   0.255   2.537   3.100 -0.6396  0.4995 -1.7991
 2465WAT      O 7605   1.699   5.044   2.976 -0.1273 -0.4181  0.1271
 2465WAT     H1 7606   1.743   5.026   3.059 -0.5880  0.6123  0.6155
 2465WAT     H2 7607   1.737   4.982   2.914 -0.1700 -1.5751  1.2288
 2466WAT      O 7608   3.995   3.062   2.705  0.1758 -0.3096  0.0879
 2466WAT     H1 7609   4.050   2.995   2.746  0.9793 -1.0265 -2.0279
 2466WAT     H2 7610   4.030   3.145   2.738  1.0597 -0.8401  0.5230
 2467WAT      O 7611   2.520   4.877   3.117 -0.1751 -0.4062 -0.5913
 2467WAT     H1 7612   2.530   4.804   3.178  1.7859  0.2101 -0.0930
 2467WAT     H2 7613   2.510   4.954   3.174  1.1102  0.1039 -1.0108
 2468WAT      O 7614   4.067   3.973   1.482  0.4082 -0.1084 -0.2419
 2468WAT     H1 7615   4.127   3.912   1.439 -0.7847 -1.2341 -0.3610
 2468WAT     H2 7616   4.113   3.997   1.563  1.0520 -0.8958 -0.3559
 2469WAT      O 7617   3.401   3.788   0.821  0.1911 -0.2325  0.0118
 2469WAT     H1 7618   3.485   3.743   0.812  0.2090 -0.1489 -0.2271
 2469WAT     H2 7619   3.394   3.842   0.743  0.0697  0.0206  0.1977
 2470WAT      O 7620   2.375   1.204   3.247 -0.0508  0.2906  0.4983
 2470WAT     H1 7621   2.386   1.163   3.161  0.4806  3.4169 -1.0836
 2470WAT     H2 7622   2.389   1.133   3.310 -0.5712 -2.1510 -1.9530
 2471WAT      O 7623   2.780   2.046   2.654 -0.0964 -0.7863 -0.2185
 2471WAT     H1 7624   2.815   2.131   2.681 -0.0471 -0.7058 -0.5409
 2471WAT     H2 7625   2.717   2.024   2.723  0.0395 -0.5836 -0.0294
 2472WAT      O 7626   4.514   5.016   0.666  0.7277 -0.1915  0.3261
 2472WAT     H1 7627   4.458   5.090   0.642  2.1976  0.3969 -1.5570
 2472WAT     H2 7628   4.453   4.943   0.679 -0.5519  0.6688 -0.5892
 2473WAT      O 7629   1.480   2.762   1.258  0.4926  0.3233  0.0545
 2473WAT     H1 7630   1.561   2.808   1.276  0.4893  0.1599  0.5093
 2473WAT     H2 7631   1.477   2.692   1.323  0.9418 -0.8868 -1.1809
 2474WAT      O 7632   1.010   5.000   3.570 -0.1324  0.3606  0.1149
 2474WAT     H1 7633   0.915   5.002   3.574 -0.1510  0.6991 -0.3853
 2474WAT     H2 7634   1.030   4.955   3.487  0.1363  0.4607  0.1240
 2475WAT      O 7635   0.160   0.413   4.505 -0.0085  0.0208 -0.1915
 2475WAT     H1 7636   0.201   0.428   4.419  0.5623  0.8737  0.2066
 2475WAT     H2 7637   0.152   0.318   4.512  2.7573 -0.2797  0.0665
 2476WAT      O 7638   3.402   1.892   4.691 -0.0903 -0.3552  0.6552
 2476WAT     H1 7639   3.471   1.863   4.632  0.6175  0.8312  0.8526
 2476WAT     H2 7640   3.372   1.975   4.654 -0.7274 -0.3753  1.1130
 2477WAT      O 7641   3.814   4.755   3.934  0.3605 -0.4103 -0.4267
 2477WAT     H1 7642   3.893   4.710   3.905  0.4142 -0.8719  0.4168
 2477WAT     H2 7643   3.835   4.787   4.022 -0.1609  0.0477 -0.4624
 2478WAT      O 7644   0.821   1.126   3.244 -0.7501  0.1316 -0.4240
 2478WAT     H1 7645   0.793   1.066   3.175  0.2620 -1.3708  0.4090
 2478WAT     H2 7646   0.741   1.168   3.274 -1.8715 -2.5224  0.5417
 2479WAT      O 7647   1.419   2.308   4.593 -0.5500 -0.1018  0.0665
 2479WAT     H1 7648   1.418   2.213   4.606 -0.5740 -0.0595  0.3760
 2479WAT     H2 7649   1.328   2.334   4.603 -0.5091 -0.0149  0.2061
 2480WAT      O 7650   3.481   5.021   2.318 -0.3015 -0.3020  0.0668
 2480WAT     H1 7651   3.438   5.047   2.399  2.7885  2.5678  1.0368
 2480WAT     H2 7652   3.540   4.950   2.343  1.1076  0.9975  0.5755
 2481WAT      O 7653   0.918   0.062   4.725 -0.3671 -0.8948 -0.2009
 2481WAT     H1 7654   0.985   0.121   4.760  0.3003 -1.5599 -0.3165
 2481WAT     H2 7655   0.952  -0.026   4.744 -1.1681 -1.2433 -0.3498
 2482WAT      O 7656   3.099   1.962   5.130 -0.0239 -0.0840 -0.2133
 2482WAT     H1 7657   3.074   1.871   5.114  1.5756 -0.4555 -0.8311
 2482WAT     H2 7658   3.137   1.961   5.218 -2.2971  0.5294  0.8362
 2483WAT      O 7659   4.441   4.261   1.250  0.0597 -0.1112  0.2990
 2483WAT     H1 7660   4.370   4.213   1.208  0.0313 -1.3334  1.6997
 2483WAT     H2 7661   4.501   4.282   1.178 -2.1367  1.8977 -1.1164
 2484WAT      O 7662   3.782   1.018   1.040  0.1426 -0.0221  0.1879
 2484WAT     H1 7663   3.695   1.051   1.021 -0.4512 -1.3890  0.3665
 2484WAT     H2 7664   3.786   0.933   0.996  0.7124 -0.7888  1.6285
 2485WAT      O 7665   3.310   4.207   0.943  0.2400  0.3626  0.1231
 2485WAT     H1 7666   3.360   4.128   0.965 -0.7268 -0.3826 -0.3146
 2485WAT     H2 7667   3.328   4.222   0.851 -0.8076 -0.2841 -0.2108
 2486WAT      O 7668   1.340   4.332   1.782 -0.0613 -0.2235 -0.2387
 2486WAT     H1 7669   1.293   4.361   1.860  0.7358 -0.0007  0.1643
 2486WAT     H2 7670   1.408   4.398   1.769 -1.2637  0.7328 -2.1675
 2487WAT      O 7671   1.069   4.495   0.023  0.3203 -1.0437 -0.0854
 2487WAT     H1 7672   1.083   4.493   0.117  1.1304 -2.8291 -0.2080
 2487WAT     H2 7673   1.139   4.551  -0.011 -0.7984  0.7666  0.4459
 2488WAT      O 7674   2.892   1.327   1.095 -0.1570  0.1023  0.2737
 2488WAT     H1 7675   2.891   1.257   1.160  1.5995 -0.3061 -0.0861
 2488WAT     H2 7676   2.951   1.393   1.132  0.5695  0.0286 -0.7247
 2489WAT      O 7677   0.417   3.269   1.905 -0.8004  0.4110  0.4429
 2489WAT     H1 7678   0.378   3.182   1.913 -1.5903  0.7087 -0.0703
 2489WAT     H2 7679   0.379   3.319   1.978 -0.3203  0.3250  0.7586
 2490WAT      O 7680   3.934   1.205   4.370  0.3739 -0.3507 -0.2250
 2490WAT     H1 7681   3.980   1.284   4.344  3.8768 -2.0970  0.1365
 2490WAT     H2 7682   3.887   1.177   4.291  0.5621  1.1000 -0.8727
 2491WAT      O 7683   1.447   4.705   1.534 -0.1363  0.1866  0.2912
 2491WAT     H1 7684   1.458   4.648   1.458 -1.1017  0.0863  0.2150
 2491WAT     H2 7685   1.355   4.733   1.530 -0.8806 -1.5907  2.5984
 2492WAT      O 7686   0.618   2.317   0.807 -0.2236 -0.2917  0.2337
 2492WAT     H1 7687   0.694   2.258   0.813 -0.1726 -0.3074 -0.4975
 2492WAT     H2 7688   0.547   2.267   0.848  0.0436 -0.4641  0.5022
 2493WAT      O 7689   1.100   4.540   1.611  1.0967  0.3250  0.3726
 2493WAT     H1 7690   1.029   4.539   1.674  1.2155  0.0658  0.5082
 2493WAT     H2 7691   1.126   4.448   1.603 -0.0923  0.0841 -1.3872
 2494WAT      O 7692   2.667   1.829   1.108 -0.3011  0.6746 -0.3259
 2494WAT     H1 7693   2.666   1.918   1.145  0.9094  0.8851 -0.7601
 2494WAT     H2 7694   2.720   1.778   1.168 -1.8389 -0.0386  0.4780
 2495WAT      O 7695   2.307   4.991   3.955 -0.0887  0.0040 -0.0852
 2495WAT     H1 7696   2.390   4.943   3.962 -0.3294 -0.4208 -0.1204
 2495WAT     H2 7697   2.261   4.973   4.037 -0.7470 -0.9077 -0.6350
 2496WAT      O 7698   3.455   3.293   3.152 -0.0272  0.4647  0.1273
 2496WAT     H1 7699   3.540   3.258   3.177  0.1199  0.4882 -0.3494
 2496WAT     H2 7700   3.464   3.387   3.161  0.3219  0.5364 -0.9463
 2497WAT      O 7701   3.515   4.023   1.282  0.5864  0.4325 -0.0438
 2497WAT     H1 7702   3.592   3.967   1.272  0.4741  0.3238 -0.3002
 2497WAT     H2 7703   3.496   4.055   1.194  1.2552  1.6985  0.2428
 2498WAT      O 7704   2.586   4.884   0.095 -0.3379 -0.4142  0.0005
 2498WAT     H1 7705   2.500   4.927   0.100 -0.1897 -0.1695  0.4590
 2498WAT     H2 7706   2.579   4.809   0.155 -1.2732 -2.2552 -2.2631
 2499WAT      O 7707   3.509   5.123   3.291 -0.3092  0.5746 -0.2128
 2499WAT     H1 7708   3.450   5.047   3.296  0.5780 -0.2763 -1.7066
 2499WAT     H2 7709   3.482   5.169   3.211  0.2652  0.8492 -0.2544
 2500WAT      O 7710   1.157   1.274   1.304  0.3543  0.1437  0.0204
 2500WAT     H1 7711   1.219   1.347   1.306  0.0295  0.4900  2.9875
 2500WAT     H2 7712   1.081   1.308   1.257 -1.3816  3.3948  4.3781
 2501WAT      O 7713   1.926   0.688   3.411 -0.0612 -0.0405 -0.2366
 2501WAT     H1 7714   1.876   0.614   3.375 -0.7127 -0.2819  1.0905
 2501WAT     H2 7715   1.869   0.723   3.480  0.0142  2.0398 -1.1731
 2502WAT      O 7716   2.021   1.108   1.833 -0.1862  0.5934  0.1183
 2502WAT     H1 7717   2.014   1.193   1.877 -0.1270 -0.2352  1.8073
 2502WAT     H2 7718   1.936   1.067   1.848  0.5745 -0.5942  1.4547
 2503WAT      O 7719   2.245   3.741   1.348  0.2122 -0.3091 -0.6669
 2503WAT     H1 7720   2.168   3.772   1.396  1.4743  1.7315  0.1729
 2503WAT     H2 7721   2.240   3.786   1.264 -0.0518 -1.0148 -1.0373
 2504WAT      O 7722   4.419   1.002   3.453 -0.4788 -0.1718  0.0708
 2504WAT     H1 7723   4.438   0.963   3.539 -0.6147  3.1562  1.7965
 2504WAT     H2 7724   4.505   1.014   3.413 -0.1943  0.4726  0.8485
 2505WAT      O 7725   0.598   4.824   1.502 -0.0018  0.3885  0.4138
 2505WAT     H1 7726   0.637   4.763   1.439 -1.7065 -2.1178  1.6137
 2505WAT     H2 7727   0.622   4.911   1.469  1.6023 -0.8614 -2.0330
 2506WAT      O 7728   1.501   0.960   0.447  0.0630 -0.1792  0.1901
 2506WAT     H1 7729   1.578   1.007   0.477 -0.1100  0.6036 -0.5254
 2506WAT     H2 7730   1.507   0.874   0.487  1.5121 -0.2607 -0.1724
 2507WAT      O 7731   3.572   4.967   4.224  0.1939 -0.0141  0.5194
 2507WAT     H1 7732   3.510   4.922   4.166  0.8610 -0.6919  0.3136
 2507WAT     H2 7733   3.539   4.949   4.312 -1.1234  1.4621  0.3649
 2508WAT      O 7734   2.216   2.056   1.010  0.1111  0.4670  0.0020
 2508WAT     H1 7735   2.148   2.036   1.074  0.7862  1.7311  1.1832
 2508WAT     H2 7736   2.287   1.995   1.030 -0.8997 -1.3637 -1.7170
 2509WAT      O 7737   0.834   3.521   1.249 -0.5572 -0.2648 -0.2573
 2509WAT     H1 7738   0.869   3.608   1.230 -0.8649  0.3267  1.6939
 2509WAT     H2 7739   0.911   3.465   1.255 -0.3545 -0.1471 -1.4856
 2510WAT      O 7740   0.765   1.652   2.175  0.7423 -0.1438 -0.0998
 2510WAT     H1 7741   0.691   1.667   2.234  2.5688 -0.3077  2.4181
 2510WAT     H2 7742   0.825   1.724   2.193  2.6851 -1.8074  0.5650
 2511WAT      O 7743   3.987   3.797   4.334 -0.4734  0.8195 -0.4198
 2511WAT     H1 7744   4.083   3.794   4.335 -0.4983 -0.3707  0.4180
 2511WAT     H2 7745   3.966   3.880   4.376  0.2142 -0.3323  2.4951
 2512WAT      O 7746   3.998   4.206   0.824 -0.0775 -0.2137  0.4771
 2512WAT     H1 7747   3.925   4.266   0.839 -1.3969 -1.5763 -0.3010
 2512WAT     H2 7748   4.014   4.167   0.910 -1.1481 -0.8729  0.3843
 2513WAT      O 7749   3.690   1.690   3.514  0.1456 -0.0324  0.0403
 2513WAT     H1 7750   3.785   1.688   3.526  0.6172  2.1612 -2.3915
 2513WAT     H2 7751   3.670   1.784   3.508 -1.9645 -0.5049 -0.8478
 2514WAT      O 7752   1.227   3.314   2.902 -0.3078  0.1995  0.1530
 2514WAT     H1 7753   1.187   3.240   2.856  0.0737 -0.3893  0.7640
 2514WAT     H2 7754   1.303   3.337   2.849 -0.9834  0.8086 -0.5788
 2515WAT      O 7755   1.799   3.061   0.727 -0.4494  0.3441  0.0909
 2515WAT     H1 7756   1.818   2.983   0.675  0.0191 -0.9297  2.0666
 2515WAT     H2 7757   1.705   3.075   0.716 -0.9972 -1.8564  1.3961
 2516WAT      O 7758   0.691   3.051   0.556 -0.6340  0.0530  0.0059
 2516WAT     H1 7759   0.635   3.129   0.553 -0.8382 -0.1246 -1.5616
 2516WAT     H2 7760   0.712   3.033   0.464  0.4800 -0.9826  0.4369
 2517WAT      O 7761   4.394   3.454   4.907  0.4961 -0.2185 -0.0696
 2517WAT     H1 7762   4.467   3.396   4.924 -0.5962 -1.2032  1.5619
 2517WAT     H2 7763   4.383   3.503   4.988 -0.5075  0.0793 -0.3671
 2518WAT      O 7764   3.191   1.049   4.400 -0.4402 -0.4979 -0.0702
 2518WAT     H1 7765   3.116   1.087   4.356 -0.2889  0.8087  0.7419
 2518WAT     H2 7766   3.241   1.007   4.331 -0.6031  0.8374 -1.0357
 2519WAT      O 7767   3.874   3.439   2.840  0.7319 -0.2237  0.1685
 2519WAT     H1 7768   3.820   3.512   2.871 -0.6197 -1.6039  1.2410
 2519WAT     H2 7769   3.850   3.428   2.748 -0.1886 -0.2811  0.4111
 2520WAT      O 7770   0.509   3.004   3.843 -0.3690  0.0346  0.1856
 2520WAT     H1 7771   0.588   2.970   3.802 -1.1469 -0.1460 -1.2231
 2520WAT     H2 7772   0.499   3.092   3.809 -0.1636  0.5018  1.2720
 2521WAT      O 7773   1.180   3.525   5.255 -0.3323  0.0573  0.5032
 2521WAT     H1 7774   1.234   3.604   5.262 -0.6931  0.4052 -0.4105
 2521WAT     H2 7775   1.111   3.536   5.321 -1.8484  1.7328 -1.2302
 2522WAT      O 7776   3.457   0.902   1.813 -0.5756 -0.5469  0.0795
 2522WAT     H1 7777   3.535   0.947   1.846  0.7312 -1.4276 -1.6325
 2522WAT     H2 7778   3.451   0.822   1.865  1.2054 -1.7122 -1.3967
 2523WAT      O 7779   3.925   0.434   1.324 -0.1660  0.3325  0.6170
 2523WAT     H1 7780   4.013   0.400   1.339  0.6455  0.7465 -2.5523
 2523WAT     H2 7781   3.908   0.490   1.399  1.8635 -0.4733  1.7673
 2524WAT      O 7782   4.480   4.334   2.155 -0.0682  0.2040  0.4668
 2524WAT     H1 7783   4.525   4.323   2.072  2.7395  0.3466  1.8316
 2524WAT     H2 7784   4.510   4.260   2.208 -1.9283  0.0135  1.3336
 2525WAT      O 7785   2.223   1.305   4.291  0.1662 -0.0245 -0.4997
 2525WAT     H1 7786   2.292   1.250   4.253  1.1319  1.5277 -1.0696
 2525WAT     H2 7787   2.182   1.347   4.216  0.2557  0.9632 -0.0076
 2526WAT      O 7788   2.174   2.754   5.101  0.0484  0.1833 -0.5479
 2526WAT     H1 7789   2.183   2.789   5.190  1.8520  0.0632 -0.6449
 2526WAT     H2 7790   2.091   2.708   5.102  0.4347 -0.5688  1.3593
 2527WAT      O 7791   1.931   0.371   3.875 -0.1163  0.0232  0.1689
 2527WAT     H1 7792   1.967   0.340   3.958  0.7982 -0.8679 -0.5370
 2527WAT     H2 7793   1.899   0.291   3.832  2.0670  0.0011 -1.5948
 2528WAT      O 7794   2.817   4.582   3.591 -0.0924  0.2999 -0.0377
 2528WAT     H1 7795   2.840   4.647   3.657  0.3682 -0.3091  0.4123
 2528WAT     H2 7796   2.722   4.571   3.601 -0.1455  0.7615  0.0028
 2529WAT      O 7797   2.088   2.062   1.542 -0.2139 -0.1626  0.8659
 2529WAT     H1 7798   2.041   2.089   1.620  0.7472  2.1920  0.7251
 2529WAT     H2 7799   2.081   2.136   1.482  0.4873 -1.2335 -0.6347
 2530WAT      O 7800   0.511   2.310   2.511  0.0801 -0.4971  0.2431
 2530WAT     H1 7801   0.425   2.283   2.543  0.3550 -1.9377 -0.1702
 2530WAT     H2 7802   0.491   2.367   2.436 -0.5366 -1.1564 -0.1127
 2531WAT      O 7803   2.800   3.693   1.761 -0.5109 -0.0951  0.8369
 2531WAT     H1 7804   2.773   3.603   1.742 -1.4937 -0.1173  2.2145
 2531WAT     H2 7805   2.720   3.745   1.748  0.4914  0.9517 -1.9579
 2532WAT      O 7806   3.768   1.812   0.160  0.0029 -0.0835  0.2240
 2532WAT     H1 7807   3.701   1.830   0.226 -1.0532  1.6833 -1.2206
 2532WAT     H2 7808   3.750   1.723   0.130 -0.1973 -0.4858  1.5039
 2533WAT      O 7809   3.515   2.812   2.969 -0.0790 -0.5616  0.2216
 2533WAT     H1 7810   3.484   2.728   3.001 -0.2602 -0.7244 -0.3638
 2533WAT     H2 7811   3.566   2.849   3.041  1.0208 -1.7157  0.0594
 2534WAT      O 7812   4.103   3.868   0.093  0.0130 -0.2614 -0.0635
 2534WAT     H1 7813   4.167   3.842   0.159 -0.1288  0.2327  0.2688
 2534WAT     H2 7814   4.147   3.851   0.009  1.0542  1.2016  0.1576
 2535WAT      O 7815   2.141   1.311   2.411  0.1252  0.0548  0.0668
 2535WAT     H1 7816   2.171   1.231   2.367 -0.3818 -0.4477  0.6204
 2535WAT     H2 7817   2.218   1.343   2.458 -0.1282 -1.1528  1.3784
 2536WAT      O 7818   1.527   4.523   1.741  0.2114 -0.8396 -0.4468
 2536WAT     H1 7819   1.499   4.593   1.682  0.0871  1.8336  2.5040
 2536WAT     H2 7820   1.611   4.495   1.706 -1.1242 -1.5275 -3.4739
 2537WAT      O 7821   3.361   2.589   1.765 -0.2955  0.4833  0.0906
 2537WAT     H1 7822   3.403   2.617   1.683 -0.1402  0.3098  0.1097
 2537WAT     H2 7823   3.267   2.593   1.746 -0.2731  0.9007  0.0557
 2538WAT      O 7824   0.177   3.548   1.967 -0.3224  0.3448 -0.1327
 2538WAT     H1 7825   0.123   3.615   2.009 -1.2299 -0.9527  0.8689
 2538WAT     H2 7826   0.159   3.468   2.017  2.2098 -0.2560 -0.0338
 2539WAT      O 7827   3.452   4.180   4.519  0.6406  0.1308  0.1097
 2539WAT     H1 7828   3.469   4.090   4.491 -1.6951  0.0258 -1.2272
 2539WAT     H2 7829   3.533   4.227   4.501  0.6639 -0.8827 -2.9771
 2540WAT      O 7830   2.099   2.670   1.681  0.3138  0.5933 -0.0357
 2540WAT     H1 7831   2.024   2.616   1.656 -0.9375  1.2163  2.0566
 2540WAT     H2 7832   2.171   2.608   1.691 -0.6716 -0.4733  0.7034
 2541WAT      O 7833   0.100   1.190   2.334 -0.5980 -0.0437  0.1215
 2541WAT     H1 7834   0.118   1.261   2.395 -2.5419  0.6181  0.0127
 2541WAT     H2 7835   0.014   1.158   2.360 -0.8162 -0.7254 -1.3484
 2542WAT      O 7836   2.286   3.667   1.815 -0.0300  0.2115  0.1939
 2542WAT     H1 7837   2.221   3.666   1.745  0.6134  0.2886 -0.4151
 2542WAT     H2 7838   2.359   3.614   1.782 -0.1447 -0.6413  1.2330
 2543WAT      O 7839   3.557   1.314   3.269  0.4998 -0.0934  0.1488
 2543WAT     H1 7840   3.631   1.375   3.272 -0.6929  1.3817  0.9885
 2543WAT     H2 7841   3.572   1.256   3.345  1.4041 -0.5962 -0.3916
 2544WAT      O 7842   1.067   4.213   2.044  0.2973 -0.3936 -0.3525
 2544WAT     H1 7843   1.021   4.131   2.024  1.6203 -0.8509 -1.6372
 2544WAT     H2 7844   1.131   4.189   2.111  0.6550 -0.3922 -0.6954
 2545WAT      O 7845   1.491   3.119   1.098 -0.4351 -0.0345 -0.3007
 2545WAT     H1 7846   1.443   3.053   1.049 -0.2423 -0.1650 -0.3162
 2545WAT     H2 7847   1.581   3.113   1.065 -0.7757  1.4597 -1.5853
 2546WAT      O 7848   1.611   3.602   2.957  0.2968  0.2202 -0.7530
 2546WAT     H1 7849   1.697   3.611   2.917  0.1603  0.9414 -0.8958
 2546WAT     H2 7850   1.560   3.675   2.921  0.5683  1.7543  1.7767
 2547WAT      O 7851   1.145   1.834   5.014 -0.4679  0.0118 -0.1843
 2547WAT     H1 7852   1.169   1.921   5.044 -1.9608  0.4409 -0.1485
 2547WAT     H2 7853   1.229   1.788   5.004  0.2718 -0.1581  4.4834
 2548WAT      O 7854   0.667   0.591   3.666 -0.1278 -0.3465 -0.2258
 2548WAT     H1 7855   0.696   0.532   3.736 -1.4911  1.3686  1.9279
 2548WAT     H2 7856   0.747   0.615   3.620  0.9467 -0.9080  1.2641
 2549WAT      O 7857   2.438   4.718   1.772 -0.2334  0.5604 -0.1119
 2549WAT     H1 7858   2.367   4.698   1.711 -0.2983 -1.0365  0.4243
 2549WAT     H2 7859   2.510   4.746   1.716 -0.9623  1.2235 -0.7401
 2550WAT      O 7860   0.760   0.638   0.424  0.3334 -0.4030  0.2212
 2550WAT     H1 7861   0.703   0.582   0.370  0.2540  1.4225 -1.6955
 2550WAT     H2 7862   0.846   0.633   0.382  0.4581  0.4475  0.3562
 2551WAT      O 7863   3.912   3.130   3.473 -0.4464 -0.1081 -0.2492
 2551WAT     H1 7864   3.855   3.161   3.544 -1.0033 -0.4515 -0.5337
 2551WAT     H2 7865   3.998   3.168   3.492 -0.8659  0.7611 -0.0335
 2552WAT      O 7866   3.725   0.523   0.896 -0.4447  0.3961  0.2999
 2552WAT     H1 7867   3.697   0.457   0.833  2.0811 -0.2499 -0.2343
 2552WAT     H2 7868   3.775   0.475   0.961  0.0221  1.5639  0.8378
 2553WAT      O 7869   3.003   1.227   2.437 -0.8642  0.4213  0.0922
 2553WAT     H1 7870   3.061   1.207   2.510 -0.2840 -0.2679 -0.5457
 2553WAT     H2 7871   3.061   1.257   2.368 -1.2675 -0.2165 -0.5357
 2554WAT      O 7872   1.349   2.243   3.504  0.0348 -0.2258  0.0204
 2554WAT     H1 7873   1.301   2.268   3.582  1.3362  0.1628  0.7295
 2554WAT     H2 7874   1.424   2.193   3.537  0.5889 -0.0766 -0.9734
 2555WAT      O 7875   2.421   0.979   2.720 -0.0352 -0.6353  0.3819
 2555WAT     H1 7876   2.501   1.014   2.760 -0.3221  1.4672 -0.7506
 2555WAT     H2 7877   2.450   0.938   2.639 -0.0398 -0.3263  0.2229
 2556WAT      O 7878   4.333   4.461   0.634 -0.3974 -0.8057  0.3713
 2556WAT     H1 7879   4.324   4.495   0.544  0.2384  1.2661  1.0265
 2556WAT     H2 7880   4.310   4.535   0.690 -0.1339 -1.8572  1.9303
 2557WAT      O 7881   2.095   0.037   3.655  0.1449  0.4900  0.0927
 2557WAT     H1 7882   2.171   0.094   3.644 -0.2815  0.7447 -1.7746
 2557WAT     H2 7883   2.025   0.096   3.683 -0.6009  1.1914 -2.9526
 2558WAT      O 7884   1.742   0.047   1.286 -0.0984  0.0690 -0.3189
 2558WAT     H1 7885   1.683  -0.010   1.334  0.2058  0.1486  0.1519
 2558WAT     H2 7886   1.728   0.134   1.324 -0.4805  0.2978 -0.9585
 2559WAT      O 7887   0.521   2.051   1.966  0.2884 -0.3180 -0.2470
 2559WAT     H1 7888   0.493   1.992   1.897 -0.4877  0.5646 -0.7030
 2559WAT     H2 7889   0.480   2.017   2.046 -0.0570 -0.4604 -0.4862
 2560WAT      O 7890   1.896   4.552   1.503 -0.0928  0.1939 -0.5636
 2560WAT     H1 7891   1.873   4.479   1.561 -0.6903  1.4715  0.8623
 2560WAT     H2 7892   1.972   4.520   1.453  0.0998 -1.1452  0.5377
 2561WAT      O 7893   2.606   4.104   0.345 -0.1531  0.0049 -0.3584
 2561WAT     H1 7894   2.590   4.158   0.267 -0.1668  0.8865  0.2342
 2561WAT     H2 7895   2.681   4.050   0.322  0.4820  0.9823 -0.6404
 2562WAT      O 7896   3.757   4.093   2.282  0.2313  0.3836 -0.3390
 2562WAT     H1 7897   3.773   4.170   2.227  1.3546  1.2610  1.1367
 2562WAT     H2 7898   3.663   4.079   2.278  0.2058  0.8046 -1.9383
 2563WAT      O 7899   3.490   2.757   4.483  0.2538 -0.0025  0.0880
 2563WAT     H1 7900   3.484   2.778   4.576 -0.2344  0.3414 -0.0169
 2563WAT     H2 7901   3.561   2.812   4.450  0.0946  0.2500  0.1602
 2564WAT      O 7902   3.207   3.510   1.087  0.0745  0.1434  0.7603
 2564WAT     H1 7903   3.170   3.590   1.050 -1.0249  0.1863  1.8974
 2564WAT     H2 7904   3.155   3.440   1.049 -0.0343  0.0805  1.0260
 2565WAT      O 7905   3.221   2.877   4.965 -0.6099 -0.1039  0.1665
 2565WAT     H1 7906   3.213   2.833   5.050  1.0709 -1.5871 -0.3708
 2565WAT     H2 7907   3.250   2.966   4.987 -0.9335 -0.2338  1.1668
 2566WAT      O 7908   2.212   4.763   4.487  0.1773  0.2870  0.1386
 2566WAT     H1 7909   2.133   4.809   4.456  0.5443  0.3575 -0.7159
 2566WAT     H2 7910   2.240   4.814   4.564  0.7159  1.6691 -0.9326
 2567WAT      O 7911   3.013   2.124   0.484  0.5163  0.5468  0.1918
 2567WAT     H1 7912   3.027   2.104   0.392  1.8211  0.9670  0.2786
 2567WAT     H2 7913   2.973   2.211   0.483  1.2634  0.8969  0.0361
 2568WAT      O 7914   2.546   5.098   5.175 -0.3246 -0.3091 -0.4427
 2568WAT     H1 7915   2.610   5.082   5.105  0.4825 -1.3021  0.4898
 2568WAT     H2 7916   2.585   5.058   5.253 -1.6579 -0.0941  0.3668
 2569WAT      O 7917   3.271   2.986   0.486 -0.1040  0.7732 -0.2930
 2569WAT     H1 7918   3.330   3.020   0.553  0.6904  1.8894 -1.5202
 2569WAT     H2 7919   3.183   3.010   0.517  0.1549  0.3083  0.8657
 2570WAT      O 7920   3.638   5.007   0.939  0.3531 -0.6662 -0.1465
 2570WAT     H1 7921   3.622   5.100   0.929  0.0892 -0.8366 -1.4588
 2570WAT     H2 7922   3.601   4.985   1.025  1.6793  0.6810  0.8159
 2571WAT      O 7923   2.740   0.078   2.909 -0.5463 -0.1974 -0.2250
 2571WAT     H1 7924   2.816   0.133   2.889 -1.3088  0.8842 -0.2313
 2571WAT     H2 7925   2.678   0.137   2.953 -1.9899 -0.6525 -1.5518
 2572WAT      O 7926   2.649   0.657   1.265 -0.1292 -0.0825 -0.4071
 2572WAT     H1 7927   2.617   0.688   1.180 -0.2651 -1.4611 -0.8977
 2572WAT     H2 7928   2.660   0.562   1.252  0.4391 -0.2126  0.9328
 2573WAT      O 7929   0.134   1.235   5.254 -0.1106 -0.1709 -0.1257
 2573WAT     H1 7930   0.226   1.210   5.265 -0.4542 -0.9690  1.2095
 2573WAT     H2 7931   0.109   1.268   5.340 -0.9211  0.5957 -0.6480
 2574WAT      O 7932   0.383   4.229   0.812  0.4360  0.4120  0.6987
 2574WAT     H1 7933   0.449   4.211   0.745 -1.6965 -1.1740 -1.1566
 2574WAT     H2 7934   0.394   4.159   0.876  0.9183  0.4756  0.6832
 2575WAT      O 7935   1.417   3.093   3.169 -0.4125  0.1148 -0.1985
 2575WAT     H1 7936   1.485   3.061   3.229 -0.0852  0.3944 -0.4200
 2575WAT     H2 7937   1.405   3.021   3.107  0.2807  0.3884 -0.6595
 2576WAT      O 7938   1.019   1.656   2.055 -0.1196 -0.5648  0.1637
 2576WAT     H1 7939   0.967   1.591   2.101 -0.7419  0.7389  1.3824
 2576WAT     H2 7940   0.972   1.670   1.972 -0.9720 -0.4118  0.6542
 2577WAT      O 7941   2.808  -0.007   3.186 -0.4821 -0.2270  0.6239
 2577WAT     H1 7942   2.776  -0.001   3.096  1.9533 -0.3299 -0.3273
 2577WAT     H2 7943   2.757   0.058   3.234  1.9938  4.2078 -2.0962
 2578WAT      O 7944   2.389   4.380   4.733  0.4623 -1.0396 -0.1074
 2578WAT     H1 7945   2.468   4.328   4.732  1.0294 -0.4022  2.8251
 2578WAT     H2 7946   2.397   4.437   4.656  2.1460 -1.9151 -0.6335
 2579WAT      O 7947   2.130   2.004   3.292  0.6140 -0.3419  0.3281
 2579WAT     H1 7948   2.209   2.011   3.238  1.0793  2.3483  1.2081
 2579WAT     H2 7949   2.116   2.092   3.325 -1.7619 -1.1353  1.6755
 2580WAT      O 7950   2.740   4.252   2.065 -0.5005  0.6710 -0.5775
 2580WAT     H1 7951   2.683   4.198   2.119 -1.5840 -0.9483 -3.1629
 2580WAT     H2 7952   2.685   4.324   2.035 -0.3978  0.6267 -0.8770
 2581WAT      O 7953   2.862   4.143   2.548 -0.3278 -0.5315  0.6331
 2581WAT     H1 7954   2.785   4.198   2.563 -0.4022  0.1884 -1.9925
 2581WAT     H2 7955   2.827   4.062   2.511  0.1339 -0.4027 -0.0931
 2582WAT      O 7956   0.663   4.874   4.639  0.2031  0.2183  0.2276
 2582WAT     H1 7957   0.653   4.941   4.707  0.5591 -0.6790  1.2024
 2582WAT     H2 7958   0.613   4.907   4.565 -0.2161  1.2297  0.9362
 2583WAT      O 7959   1.838   3.593   0.749  0.1498 -0.3286 -0.0709
 2583WAT     H1 7960   1.916   3.649   0.751 -0.2374  0.2120  0.0977
 2583WAT     H2 7961   1.766   3.653   0.729 -0.5541 -0.4354  1.9329
 2584WAT      O 7962   1.336   4.644   2.618 -0.2590 -0.3227 -0.1938
 2584WAT     H1 7963   1.430   4.629   2.622 -0.3099 -0.6032 -0.0699
 2584WAT     H2 7964   1.298   4.578   2.676 -0.5447 -0.3352 -0.3918
 2585WAT      O 7965   0.071   0.031   1.781  0.2202 -0.1160  0.2400
 2585WAT     H1 7966   0.064  -0.056   1.742 -2.6386 -0.3251  0.9910
 2585WAT     H2 7967  -0.010   0.075   1.756  1.8701  2.6919 -0.7390
 2586WAT      O 7968   0.661   4.688   1.258 -0.1845 -0.0028 -0.3973
 2586WAT     H1 7969   0.678   4.779   1.234  2.7397 -0.4920 -0.5523
 2586WAT     H2 7970   0.611   4.653   1.185  1.7076  0.6072 -2.0568
 2587WAT      O 7971   0.516   2.049   4.719 -0.2592 -0.0684 -0.2210
 2587WAT     H1 7972   0.603   2.024   4.688  0.5550  0.5769  1.4439
 2587WAT     H2 7973   0.462   1.972   4.701  1.1235 -1.2706  0.5730
 2588WAT      O 7974   1.421   2.473   1.142  0.5344  0.2602 -0.1573
 2588WAT     H1 7975   1.406   2.441   1.053  1.0201  1.0441 -0.5318
 2588WAT     H2 7976   1.337   2.513   1.167  0.4089  0.0723 -0.2729
 2589WAT      O 7977   3.874   2.851   3.400 -0.4751  0.0469  0.0157
 2589WAT     H1 7978   3.936   2.904   3.450 -0.9753  0.4899  0.1741
 2589WAT     H2 7979   3.798   2.842   3.457 -1.3906  1.2483 -0.9555
 2590WAT      O 7980   4.159   3.433   2.377 -0.2797 -0.1631  0.0413
 2590WAT     H1 7981   4.191   3.514   2.337 -2.0975  1.4241  1.5967
 2590WAT     H2 7982   4.224   3.413   2.445  0.0538  0.1362 -0.1896
 2591WAT      O 7983   0.177   1.635   0.509  0.4360 -0.0641  0.6795
 2591WAT     H1 7984   0.229   1.707   0.473  0.5652 -0.3350  0.3196
 2591WAT     H2 7985   0.087   1.659   0.489  0.5548 -0.6790 -0.7209
 2592WAT      O 7986   2.159   1.399   4.786  0.4181  0.4676  0.1073
 2592WAT     H1 7987   2.171   1.482   4.833 -0.2643 -0.6180  2.3630
 2592WAT     H2 7988   2.194   1.333   4.845  1.1652 -0.8705 -1.7432
 2593WAT      O 7989   1.863   5.070   3.974 -0.5170  0.0604 -0.6888
 2593WAT     H1 7990   1.953   5.039   3.980 -0.1621  1.2158  3.3811
 2593WAT     H2 7991   1.814   5.016   4.036 -2.5125 -0.0361 -2.2309
 2594WAT      O 7992   3.406   2.551   2.200  0.0892  0.5071  0.3839
 2594WAT     H1 7993   3.354   2.509   2.132 -0.8996  1.0239  0.8032
 2594WAT     H2 7994   3.350   2.549   2.278  1.5219 -0.8831  1.4666
 2595WAT      O 7995   1.136   0.790   4.801  0.3498 -0.3828 -0.0994
 2595WAT     H1 7996   1.044   0.795   4.772  0.3047 -1.0614 -0.1012
 2595WAT     H2 7997   1.145   0.862   4.863 -1.0454 -2.0164  2.1847
 2596WAT      O 7998   0.478   3.487   2.267 -0.2833 -0.2008  0.3923
 2596WAT     H1 7999   0.421   3.555   2.302 -1.0820  0.0813 -1.3263
 2596WAT     H2 8000   0.418   3.421   2.232  0.4821 -1.3615  1.2097
 2597WAT      O 8001   1.359   3.137   0.138  0.4622 -0.0861 -0.1253
 2597WAT     H1 8002   1.366   3.084   0.059  2.8155 -1.0795  0.6535
 2597WAT     H2 8003   1.348   3.227   0.105 -1.4456 -0.7469 -1.4799
 2598WAT      O 8004   1.894   4.983   1.375  0.1839 -0.4255 -0.7142
 2598WAT     H1 8005   1.838   5.040   1.322  0.5829  0.1760 -0.4997
 2598WAT     H2 8006   1.907   4.905   1.321 -1.7823 -1.0873 -0.3276
 2599WAT      O 8007   3.213   2.568   0.453  0.2192  0.1366  0.0746
 2599WAT     H1 8008   3.182   2.518   0.378  1.6291 -0.4982 -0.1063
 2599WAT     H2 8009   3.224   2.657   0.419  0.1248  0.0208 -0.2629
 2600WAT      O 8010   2.840   3.853   2.923 -0.0400 -0.5235  0.3168
 2600WAT     H1 8011   2.799   3.767   2.933  0.8313 -1.0032 -0.1300
 2600WAT     H2 8012   2.875   3.873   3.010 -1.1975 -0.1103  0.7004
 2601WAT      O 8013   1.794   0.856   2.548 -0.8011 -0.1800 -0.4448
 2601WAT     H1 8014   1.847   0.779   2.571 -0.8944  0.7297  3.4021
 2601WAT     H2 8015   1.858   0.921   2.518 -0.3660 -0.6838 -0.6212
 2602WAT      O 8016   2.752   1.118   2.457  0.5585 -0.3036  0.0080
 2602WAT     H1 8017   2.824   1.178   2.440 -0.3338  0.4795 -1.2190
 2602WAT     H2 8018   2.752   1.106   2.552  2.7678 -0.9765 -0.0282
 2603WAT      O 8019   0.604   4.582   4.125 -0.2753  0.0073  0.5471
 2603WAT     H1 8020   0.649   4.540   4.051 -1.7124 -1.8442  0.6514
 2603WAT     H2 8021   0.644   4.542   4.202  0.5497  1.2337  0.7882
 2604WAT      O 8022   2.490   1.589   4.704  0.0451  0.1949 -0.0739
 2604WAT     H1 8023   2.418   1.652   4.712 -0.7848 -0.4894 -1.7355
 2604WAT     H2 8024   2.448   1.510   4.670  1.4614 -0.4758 -0.3091
 2605WAT      O 8025   3.635   2.767   4.054  0.4698 -0.3510 -0.1352
 2605WAT     H1 8026   3.587   2.721   4.123 -1.9831  1.0050 -0.8271
 2605WAT     H2 8027   3.657   2.698   3.991 -1.5942 -0.9122 -0.3121
 2606WAT      O 8028   3.076   4.858   3.468 -0.1264  0.0448 -0.1287
 2606WAT     H1 8029   3.031   4.780   3.435 -1.0380  0.4509  0.1208
 2606WAT     H2 8030   3.061   4.924   3.401 -0.3449  0.3299  0.1994
 2607WAT      O 8031   2.420   5.001   4.380  0.4237 -0.1436 -0.2085
 2607WAT     H1 8032   2.387   5.066   4.441 -1.2415 -0.4189 -0.7712
 2607WAT     H2 8033   2.344   4.975   4.328  1.0901 -2.2639 -0.2597
 2608WAT      O 8034   3.875   3.109   5.170  0.3024  0.5616  0.1711
 2608WAT     H1 8035   3.818   3.060   5.229  0.3633 -0.2693 -0.4446
 2608WAT     H2 8036   3.821   3.128   5.094  0.5359  0.7045  0.0365
 2609WAT      O 8037   0.155   2.047   0.997  0.1282  0.0156  0.3322
 2609WAT     H1 8038   0.174   1.989   0.923  0.0569 -0.0599  0.3732
 2609WAT     H2 8039   0.063   2.072   0.985  0.1002 -0.0413  0.4256
 2610WAT      O 8040   3.789   3.029   0.779  0.1499 -0.5234 -0.0637
 2610WAT     H1 8041   3.727   2.998   0.846 -0.2639 -1.9949 -1.0636
 2610WAT     H2 8042   3.866   2.972   0.789  0.9772  0.6671  0.5461
 2611WAT      O 8043   3.570   1.020   2.030  0.1566  0.1572  0.8836
 2611WAT     H1 8044   3.634   1.082   2.067  1.6077 -0.4830 -0.4172
 2611WAT     H2 8045   3.588   0.938   2.075  1.5644 -0.4888 -0.7534
 2612WAT      O 8046   0.171   1.369   0.506 -0.3891  0.1016  0.1001
 2612WAT     H1 8047   0.168   1.463   0.522 -0.1031 -0.1514  1.8563
 2612WAT     H2 8048   0.126   1.331   0.581 -1.1777 -1.1465 -0.9605
 2613WAT      O 8049   0.992   4.470   0.643  0.3807 -1.2138 -0.0146
 2613WAT     H1 8050   0.915   4.522   0.618  0.7032 -0.1107  1.1507
 2613WAT     H2 8051   1.065   4.512   0.598  0.4595 -1.4951 -0.1480
 2614WAT      O 8052   3.840   4.591   1.046 -0.0466 -0.3895  0.1542
 2614WAT     H1 8053   3.868   4.680   1.027 -0.0213 -0.1943  1.0651
 2614WAT     H2 8054   3.907   4.557   1.106 -0.3981 -0.7937  0.3257
 2615WAT      O 8055   1.100   0.070   5.251 -0.5562  0.0208  0.1904
 2615WAT     H1 8056   1.045   0.077   5.329 -0.3604  1.7442  0.2036
 2615WAT     H2 8057   1.099   0.157   5.213 -0.1756 -0.6460 -1.4365
 2616WAT      O 8058   4.033   4.700   0.191 -0.1064  0.1881 -0.1787
 2616WAT     H1 8059   4.094   4.770   0.211 -1.7835  1.3401  1.2533
 2616WAT     H2 8060   4.042   4.639   0.264  0.4749 -0.4909 -0.8010
 2617WAT      O 8061   0.717   3.130   0.842 -0.5172  0.2009 -0.1845
 2617WAT     H1 8062   0.778   3.190   0.885 -1.8326  0.5909  1.1873
 2617WAT     H2 8063   0.704   3.168   0.755  0.1428  0.8494 -0.0092
 2618WAT      O 8064   1.390   1.793   4.598 -0.4034 -0.0919  0.7957
 2618WAT     H1 8065   1.449   1.774   4.525  2.1495  3.1403  1.7773
 2618WAT     H2 8066   1.406   1.722   4.660 -0.5565 -1.3979 -0.6041
 2619WAT      O 8067   0.352   2.372   4.025 -0.0935  0.1761 -0.2131
 2619WAT     H1 8068   0.448   2.378   4.018 -0.0513  1.6889  1.1386
 2619WAT     H2 8069   0.323   2.463   4.024 -1.4379 -0.2296  0.4032
 2620WAT      O 8070   0.775   0.146   3.825 -0.1774 -0.0337 -0.0325
 2620WAT     H1 8071   0.776   0.142   3.730  0.2607  0.2106 -0.0405
 2620WAT     H2 8072   0.827   0.071   3.853  1.9932  1.3740 -0.0503
 2621WAT      O 8073   3.514   4.821   4.859 -0.3231  0.6206 -0.0228
 2621WAT     H1 8074   3.570   4.853   4.930  0.1905 -0.0131 -0.1304
 2621WAT     H2 8075   3.426   4.848   4.884  0.1378  2.5530 -0.3666
 2622WAT      O 8076   4.312   4.611   0.392 -0.5264  0.4092 -0.0854
 2622WAT     H1 8077   4.340   4.624   0.302 -1.1946 -0.8193 -0.4926
 2622WAT     H2 8078   4.317   4.698   0.431  0.6415  0.7986 -1.0428
 2623WAT      O 8079   0.371   4.937   3.152 -0.1510 -0.1738  0.0939
 2623WAT     H1 8080   0.295   4.952   3.096  0.1704 -0.2794 -0.3727
 2623WAT     H2 8081   0.444   4.927   3.091  0.0198 -1.3909  0.4751
 2624WAT      O 8082   0.720   4.912   0.505  0.2951  0.0632  0.4120
 2624WAT     H1 8083   0.714   4.966   0.426 -0.4431 -1.4422 -0.6126
 2624WAT     H2 8084   0.636   4.925   0.549  1.1353  1.7855  1.5920
 2625WAT      O 8085   1.262   3.302   1.249 -0.1671  0.1766  0.0972
 2625WAT     H1 8086   1.305   3.347   1.177  0.7235  0.6332  0.8975
 2625WAT     H2 8087   1.249   3.212   1.217  0.1425  0.3904 -0.6467
 2626WAT      O 8088   4.053   0.451   4.332 -0.6143  0.2034 -0.6941
 2626WAT     H1 8089   4.021   0.369   4.294 -0.3040  0.3714 -1.3391
 2626WAT     H2 8090   4.037   0.516   4.263  0.1397  0.4816 -0.6151
 2627WAT      O 8091   1.562   3.691   0.708 -0.0314  0.3134 -0.5057
 2627WAT     H1 8092   1.494   3.660   0.648  0.9534 -2.0746 -0.5118
 2627WAT     H2 8093   1.514   3.716   0.788 -1.0971  0.9172 -1.3147
 2628WAT      O 8094   0.221   3.274   3.828 -0.5915 -0.3980 -0.1241
 2628WAT     H1 8095   0.236   3.192   3.781  1.6790  0.1561 -0.5096
 2628WAT     H2 8096   0.136   3.305   3.796 -0.0278 -1.0216 -2.4024
 2629WAT      O 8097   2.022   3.317   1.824 -0.0218  0.7028  0.4362
 2629WAT     H1 8098   2.062   3.346   1.742  0.1935 -0.9256 -0.0699
 2629WAT     H2 8099   2.096   3.286   1.876 -0.4244 -0.7263  0.1797
 2630WAT      O 8100   0.291   2.889   2.584 -0.1976 -0.2213 -0.1378
 2630WAT     H1 8101   0.378   2.896   2.623 -0.7185  0.5532  0.9460
 2630WAT     H2 8102   0.252   2.813   2.626 -0.0629 -0.5497 -0.6006
 2631WAT      O 8103   2.461   0.472   2.937 -0.3174 -0.6223 -0.2603
 2631WAT     H1 8104   2.387   0.518   2.976  1.1387  3.1755 -1.5509
 2631WAT     H2 8105   2.421   0.407   2.879 -2.7207  1.5461 -1.2178
 2632WAT      O 8106   3.895   0.044   3.812  0.0533  0.1087 -0.7925
 2632WAT     H1 8107   3.870   0.014   3.900 -0.0310  1.3677 -0.3687
 2632WAT     H2 8108   3.879  -0.031   3.756 -0.8650 -0.3939  0.1136
 2633WAT      O 8109   3.740   4.203   4.644 -0.4596 -0.0368  0.3088
 2633WAT     H1 8110   3.717   4.291   4.615 -1.6388 -0.3669  0.2033
 2633WAT     H2 8111   3.784   4.216   4.728  0.0186  0.6902 -0.0430
 2634WAT      O 8112   1.390   1.720   1.242 -0.3719 -0.2155 -0.3403
 2634WAT     H1 8113   1.411   1.754   1.155 -1.0209 -0.5498 -0.6316
 2634WAT     H2 8114   1.427   1.785   1.302 -2.0316  1.3278 -0.8878
 2635WAT      O 8115   0.123   2.714   2.915  0.2717 -0.0774 -0.4698
 2635WAT     H1 8116   0.078   2.778   2.971 -1.5369 -0.7017 -1.1291
 2635WAT     H2 8117   0.054   2.651   2.891  1.6578 -1.4366 -1.0584
 2636WAT      O 8118   0.700   1.527   3.003  0.3718  0.4740  0.3355
 2636WAT     H1 8119   0.749   1.456   3.046  1.2018  1.5832  1.2829
 2636WAT     H2 8120   0.753   1.551   2.927 -0.4921 -0.6693 -0.6682
 2637WAT      O 8121   0.487   0.371   1.096 -0.2562  0.7773 -0.3934
 2637WAT     H1 8122   0.490   0.372   1.192 -0.7111 -2.7984 -0.2068
 2637WAT     H2 8123   0.562   0.423   1.070  1.3066 -0.0697  1.9960
 2638WAT      O 8124   2.764   0.385   3.586  0.1929  0.9236  0.1976
 2638WAT     H1 8125   2.724   0.470   3.605  2.0376  1.7180  0.7254
 2638WAT     H2 8126   2.857   0.398   3.602  0.4102 -1.5369  1.4714
 2639WAT      O 8127   3.472   0.730   3.283 -0.0566 -0.0747  0.4376
 2639WAT     H1 8128   3.476   0.661   3.349 -4.0825 -0.8476  0.1692
 2639WAT     H2 8129   3.520   0.695   3.208  0.1979 -1.4565  1.2140
 2640WAT      O 8130   0.268   2.073   5.007  0.1075  0.3953 -0.4236
 2640WAT     H1 8131   0.216   1.993   5.019  0.9850 -0.2674 -0.9302
 2640WAT     H2 8132   0.298   2.068   4.916  3.3076 -0.6441  0.5804
 2641WAT      O 8133   1.731   0.884   0.230  0.2356 -0.0211  0.3505
 2641WAT     H1 8134   1.751   0.816   0.294 -1.1764 -0.8703 -0.0667
 2641WAT     H2 8135   1.774   0.854   0.150  1.3706  0.6626  0.6828
 2642WAT      O 8136   2.276   1.678   2.569  0.2081 -0.0208  1.1109
 2642WAT     H1 8137   2.308   1.590   2.549  1.1757  0.6432 -0.4324
 2642WAT     H2 8138   2.212   1.665   2.639  1.6468 -1.7301  2.1891
 2643WAT      O 8139   2.880   0.224   2.589 -0.3540  0.2290  0.0330
 2643WAT     H1 8140   2.924   0.267   2.516  0.6500  1.0391  1.0857
 2643WAT     H2 8141   2.849   0.141   2.553  0.6076  0.3680 -1.1675
 2644WAT      O 8142   0.539   3.351   2.798  0.2858 -0.6208  0.5021
 2644WAT     H1 8143   0.519   3.355   2.704 -0.4839 -0.6925  0.6572
 2644WAT     H2 8144   0.458   3.377   2.841  0.0877 -2.2389  1.1912
 2645WAT      O 8145   3.052   2.446   3.713  0.3375 -0.3138 -0.0533
 2645WAT     H1 8146   2.980   2.416   3.769  0.2396  2.9223  1.7741
 2645WAT     H2 8147   3.009   2.497   3.644  0.7324 -0.6973 -0.5889
 2646WAT      O 8148   1.950   3.808   1.791  0.2883  0.5348  1.4441
 2646WAT     H1 8149   1.986   3.743   1.731 -1.2986  0.9887 -0.0769
 2646WAT     H2 8150   1.897   3.757   1.853 -1.3810  0.3385 -0.0574
 2647WAT      O 8151   0.645   3.502   2.061 -0.2655  0.4243  0.3542
 2647WAT     H1 8152   0.588   3.491   2.138 -2.7866 -0.2161 -1.4583
 2647WAT     H2 8153   0.637   3.420   2.013 -0.6023  1.5843 -1.6999
 2648WAT      O 8154   0.610   2.068   2.859  0.4554  0.4350  0.3129
 2648WAT     H1 8155   0.687   2.091   2.912  0.7593 -0.3619  0.2409
 2648WAT     H2 8156   0.627   2.107   2.773  1.2678 -0.5608 -0.0036
 2649WAT      O 8157   3.207   0.705   5.037 -0.6561 -0.4431  0.2783
 2649WAT     H1 8158   3.150   0.673   5.106 -1.2480  0.6279  0.3139
 2649WAT     H2 8159   3.295   0.678   5.064 -0.7644  0.6493  1.9120
 2650WAT      O 8160   2.217   4.458   2.432  1.1114 -0.1409 -0.2350
 2650WAT     H1 8161   2.264   4.537   2.457  0.9365 -0.3506  0.7801
 2650WAT     H2 8162   2.125   4.477   2.450  1.0275 -0.4430 -0.3326
 2651WAT      O 8163   2.986   4.582   1.032  0.4546 -0.0177 -0.2429
 2651WAT     H1 8164   2.960   4.578   1.124 -0.6512 -0.8782 -0.5629
 2651WAT     H2 8165   2.926   4.645   0.992  0.8421  0.2535 -0.4038
 2652WAT      O 8166   0.372   4.098   5.119  0.8530 -0.4746 -0.2221
 2652WAT     H1 8167   0.458   4.057   5.114  0.7865 -0.7322  0.5729
 2652WAT     H2 8168   0.340   4.097   5.029  1.4105 -0.9642 -0.4249
 2653WAT      O 8169   1.278   4.616   5.181  0.2060 -0.3875 -0.2332
 2653WAT     H1 8170   1.347   4.638   5.243  0.3803  1.0726 -0.9012
 2653WAT     H2 8171   1.308   4.653   5.098 -0.8032 -0.8040 -0.8015
 2654WAT      O 8172   2.191   3.629   3.665 -1.0850  0.0184 -0.4356
 2654WAT     H1 8173   2.197   3.533   3.665  0.6658  0.0780 -2.1025
 2654WAT     H2 8174   2.220   3.655   3.753  0.1441 -0.9236 -0.5392
 2655WAT      O 8175   3.681   3.198   0.189 -0.3459 -0.4663  0.5508
 2655WAT     H1 8176   3.649   3.135   0.254 -1.3178 -0.9356 -0.3579
 2655WAT     H2 8177   3.750   3.246   0.235  1.0384 -2.7468  1.0255
 2656WAT      O 8178   2.382   0.989   1.162 -0.7918 -0.0019 -0.0383
 2656WAT     H1 8179   2.397   0.971   1.254  1.9205  0.4146 -0.3183
 2656WAT     H2 8180   2.372   1.084   1.157  0.2275  0.1100 -0.2586
 2657WAT      O 8181   0.826   3.971   4.847 -0.2785  0.4369  0.3003
 2657WAT     H1 8182   0.889   4.043   4.855  1.2151 -0.4326 -2.4284
 2657WAT     H2 8183   0.765   3.999   4.779 -0.5520 -0.2912  0.2337
 2658WAT      O 8184   4.305   2.509   2.199  0.7106 -0.2198  0.5916
 2658WAT     H1 8185   4.233   2.572   2.196  0.6188 -0.3341  0.3903
 2658WAT     H2 8186   4.297   2.467   2.285 -2.1641 -3.3872 -1.0309
 2659WAT      O 8187   3.227   3.523   0.238 -0.1174  0.1147 -0.3217
 2659WAT     H1 8188   3.314   3.485   0.225  0.4932  1.3694 -0.0825
 2659WAT     H2 8189   3.172   3.450   0.266  0.3300 -1.1538 -2.5232
 2660WAT      O 8190   3.496   0.915   0.098  0.1450 -0.2907  0.0533
 2660WAT     H1 8191   3.580   0.948   0.068 -0.2796 -0.2113 -1.0873
 2660WAT     H2 8192   3.442   0.911   0.019 -0.6630 -1.1225  0.6295
 2661WAT      O 8193   1.148   3.141   1.085  0.2043 -0.3630  0.2926
 2661WAT     H1 8194   1.067   3.093   1.101 -0.1337 -0.0542 -0.4610
 2661WAT     H2 8195   1.145   3.164   0.992  0.3308  1.1574  0.6402
 2662WAT      O 8196   4.479   1.552   1.489 -0.1781  0.5129 -0.1298
 2662WAT     H1 8197   4.520   1.525   1.407  0.8778  2.3555 -0.2582
 2662WAT     H2 8198   4.444   1.639   1.472 -1.9702  0.0168  0.7486
 2663WAT      O 8199   4.416   3.852   0.208  0.4124 -0.4008  0.2436
 2663WAT     H1 8200   4.404   3.763   0.173  1.5616 -0.3269 -0.3892
 2663WAT     H2 8201   4.430   3.838   0.302 -0.0097 -0.8345  0.2484
 2664WAT      O 8202   2.319   2.746   4.416  0.4683  0.5745 -0.5674
 2664WAT     H1 8203   2.243   2.711   4.370 -0.3194  0.5765  0.6639
 2664WAT     H2 8204   2.388   2.682   4.400 -0.3125 -0.3870 -0.2256
 2665WAT      O 8205   3.357   1.075   2.512  0.3803 -0.0254  0.0761
 2665WAT     H1 8206   3.431   1.044   2.564  1.3044  0.7224 -0.7524
 2665WAT     H2 8207   3.358   1.021   2.433  2.1258  2.1115 -1.4669
 2666WAT      O 8208   0.038   0.536   1.548 -0.1473  0.2659  0.5059
 2666WAT     H1 8209   0.054   0.607   1.486 -1.1306  0.3356  0.3169
 2666WAT     H2 8210  -0.045   0.558   1.589 -1.2794 -1.5102 -0.6754
 2667WAT      O 8211   1.148   1.575   4.735 -0.1730 -0.4259  0.0613
 2667WAT     H1 8212   1.192   1.581   4.650  1.2844 -0.1060  0.8131
 2667WAT     H2 8213   1.167   1.487   4.766 -0.0019 -0.2717  0.4078
 2668WAT      O 8214   2.250   2.376   4.820  0.7443 -0.1177 -0.4199
 2668WAT     H1 8215   2.177   2.357   4.878  2.0251 -3.1616  0.4222
 2668WAT     H2 8216   2.210   2.417   4.743 -1.5529 -0.0021  0.7517
 2669WAT      O 8217   3.662   4.723   1.715  0.6554 -0.0614  0.2990
 2669WAT     H1 8218   3.585   4.711   1.771  0.1370  1.3606 -0.0612
 2669WAT     H2 8219   3.664   4.644   1.661 -0.4678 -0.1903  0.4157
 2670WAT      O 8220   3.980   5.075   1.199  0.2448  0.2292  0.1395
 2670WAT     H1 8221   3.961   5.153   1.147 -0.9291 -0.1768 -0.0550
 2670WAT     H2 8222   3.967   5.002   1.139  0.0344 -0.1843  0.6756
 2671WAT      O 8223   4.157   1.845   0.849 -0.0208 -0.2485 -0.6941
 2671WAT     H1 8224   4.095   1.780   0.883 -0.3520  0.3136 -0.2032
 2671WAT     H2 8225   4.242   1.803   0.856 -0.3926 -1.3600 -2.1298
 2672WAT      O 8226   0.654   2.295   3.161 -0.1272  0.2327 -0.4659
 2672WAT     H1 8227   0.700   2.217   3.131  0.1345  0.2728 -0.1683
 2672WAT     H2 8228   0.644   2.349   3.082 -0.8028 -0.3438 -0.7821
 2673WAT      O 8229   1.452   0.798   1.370  0.6403 -0.0051  0.9146
 2673WAT     H1 8230   1.386   0.757   1.314  0.6047  0.5627  0.5406
 2673WAT     H2 8231   1.531   0.745   1.356  0.8098  0.5135 -0.1730
 2674WAT      O 8232   0.572   1.026   1.319 -0.1520 -0.0095 -0.1408
 2674WAT     H1 8233   0.502   1.008   1.257  0.3934  0.2237 -0.8424
 2674WAT     H2 8234   0.548   0.978   1.398 -0.8468 -0.3295 -0.5440
 2675WAT      O 8235   0.635   3.727  -0.023  0.0987 -0.5315 -0.2269
 2675WAT     H1 8236   0.625   3.774   0.060  0.0180  0.7816 -0.9550
 2675WAT     H2 8237   0.620   3.635  -0.000  1.1664 -0.3544  1.4118
 2676WAT      O 8238   3.637   1.990   1.719  0.0142  0.2654 -0.2810
 2676WAT     H1 8239   3.723   1.962   1.750 -0.0337  0.0940 -0.3013
 2676WAT     H2 8240   3.650   2.080   1.689  0.3642 -0.0211 -1.0179
 2677WAT      O 8241   0.378   0.301   0.656 -0.0185  0.0574  0.1326
 2677WAT     H1 8242   0.348   0.211   0.660 -0.1456  0.0945 -0.0010
 2677WAT     H2 8243   0.318   0.349   0.713 -0.3321  0.1643 -0.2857
 2678WAT      O 8244   1.673   1.883   0.393  0.1394  0.1950 -0.0547
 2678WAT     H1 8245   1.607   1.814   0.389 -0.2183  0.5316  0.0371
 2678WAT     H2 8246   1.647   1.946   0.326 -2.3562  2.7318  2.9764
 2679WAT      O 8247   3.345   4.622   3.043 -0.0127 -0.4824 -0.0228
 2679WAT     H1 8248   3.251   4.603   3.052  0.2720 -1.5428  0.9110
 2679WAT     H2 8249   3.347   4.710   3.007 -1.3799  0.1393  1.2830
 2680WAT      O 8250   4.255   0.786   3.616  0.5947  0.1853  0.5179
 2680WAT     H1 8251   4.266   0.724   3.544  0.2474  2.0694 -1.2403
 2680WAT     H2 8252   4.191   0.745   3.674 -0.6663 -0.5141 -1.2988
 2681WAT      O 8253   3.135   2.396   5.010  0.2138  0.1580 -0.6324
 2681WAT     H1 8254   3.096   2.310   5.027  1.0283  0.1523  1.5574
 2681WAT     H2 8255   3.229   2.382   5.020  0.2583  1.6894  2.1765
 2682WAT      O 8256   1.894   1.077   2.424  0.2653  0.2507  0.2038
 2682WAT     H1 8257   1.929   1.095   2.337 -1.0294  1.4540 -0.1023
 2682WAT     H2 8258   1.970   1.081   2.482  0.7859  1.9918 -0.5402
 2683WAT      O 8259   2.387   4.796   5.092 -0.9573 -0.9180  0.2050
 2683WAT     H1 8260   2.399   4.791   5.187  1.6564 -0.5142 -0.0167
 2683WAT     H2 8261   2.420   4.712   5.059 -0.3374 -0.4413 -0.4277
 2684WAT      O 8262   2.020   4.354   4.244 -0.4133  0.1844  0.2064
 2684WAT     H1 8263   1.981   4.277   4.203  0.3745  1.4553 -3.2596
 2684WAT     H2 8264   2.084   4.319   4.306 -2.6395 -1.8655  1.5374
 2685WAT      O 8265   0.292   3.065   1.139 -0.2766 -0.3652  0.2686
 2685WAT     H1 8266   0.379   3.038   1.110 -0.0005 -0.2619  0.9645
 2685WAT     H2 8267   0.309   3.120   1.216 -0.8422  1.2819 -0.7137
 2686WAT      O 8268   4.405   3.798   0.497  0.4502  0.0441  0.2899
 2686WAT     H1 8269   4.401   3.890   0.521 -0.0052  0.0713  0.1206
 2686WAT     H2 8270   4.378   3.751   0.576 -1.9955  0.1686 -0.3765
 2687WAT      O 8271   3.358   1.677   4.433  0.0666 -0.0612 -0.6109
 2687WAT     H1 8272   3.279   1.731   4.439  0.3505  0.3400 -0.4111
 2687WAT     H2 8273   3.333   1.605   4.375 -0.1661  0.5588 -1.3080
 2688WAT      O 8274   0.336   4.438   0.960 -0.0736 -0.1631  0.4112
 2688WAT     H1 8275   0.347   4.384   0.883 -1.4707 -0.6080  0.4939
 2688WAT     H2 8276   0.332   4.528   0.927  2.3322 -0.0361  0.2831
 2689WAT      O 8277   0.640   0.903   0.361  0.0422 -0.1559 -0.0851
 2689WAT     H1 8278   0.692   0.839   0.409 -0.6663  0.5764  1.7597
 2689WAT     H2 8279   0.659   0.987   0.403 -0.2841  0.6067 -1.3883
 2690WAT      O 8280   3.670   4.993   1.950  0.2846 -0.5059 -0.3031
 2690WAT     H1 8281   3.578   5.010   1.972  0.5833  0.9528 -0.0396
 2690WAT     H2 8282   3.682   4.900   1.966 -1.3562 -0.8909 -1.1105
 2691WAT      O 8283   2.091  -0.008   3.185  0.6817  0.1651 -0.1076
 2691WAT     H1 8284   2.151   0.041   3.129  0.5654 -0.0864 -0.4551
 2691WAT     H2 8285   2.107   0.026   3.273  1.8826 -0.4260 -0.0733
 2692WAT      O 8286   0.672   2.344   0.153  0.2813 -0.0541  0.0219
 2692WAT     H1 8287   0.611   2.409   0.118 -1.0702 -0.7053  1.0491
 2692WAT     H2 8288   0.685   2.283   0.081  0.3705  0.5372 -0.4712
 2693WAT      O 8289   2.338   1.392   4.539 -0.3549 -0.7967 -0.1984
 2693WAT     H1 8290   2.312   1.361   4.453  0.0010 -0.5400 -0.3987
 2693WAT     H2 8291   2.256   1.404   4.586 -0.6844  0.9703 -1.1491
 2694WAT      O 8292   1.959   0.777   3.792 -0.5587 -0.8899  0.0836
 2694WAT     H1 8293   1.882   0.748   3.840 -0.1817  0.8415  1.8751
 2694WAT     H2 8294   1.984   0.859   3.835  0.5876  0.0908 -2.2964
 2695WAT      O 8295   2.174   1.749   5.236  0.2890 -0.2573  0.0870
 2695WAT     H1 8296   2.201   1.754   5.328  0.8145  1.0193 -0.1203
 2695WAT     H2 8297   2.248   1.706   5.192  1.1806  1.4423 -0.1455
 2696WAT      O 8298   2.185   3.843   0.013 -0.1170  0.5154  0.1163
 2696WAT     H1 8299   2.268   3.884  -0.013  0.0922 -0.3719 -0.6746
 2696WAT     H2 8300   2.167   3.878   0.100  2.3377 -1.0375  1.3651
 2697WAT      O 8301   2.006   3.147   4.267  0.0823 -0.4336 -0.0359
 2697WAT     H1 8302   2.099   3.171   4.272 -0.5829  2.5592  0.5029
 2697WAT     H2 8303   1.971   3.205   4.199 -1.9538  0.9752  2.0813
 2698WAT      O 8304   3.451   0.670   1.940 -0.6964 -0.1736  0.2436
 2698WAT     H1 8305   3.542   0.642   1.934 -0.8430 -0.4765 -0.6717
 2698WAT     H2 8306   3.426   0.650   2.030  0.1610  0.0010  0.5332
 2699WAT      O 8307   0.120   1.312   1.028  0.2154  0.2150 -0.2975
 2699WAT     H1 8308   0.185   1.376   0.998 -1.3490  1.2962 -1.5236
 2699WAT     H2 8309   0.151   1.229   0.993  0.8533  0.7472 -1.0359
 2700WAT      O 8310   2.047   4.370   3.975 -0.1454  0.1164 -0.4055
 2700WAT     H1 8311   1.987   4.442   3.955 -0.2098 -0.2444 -1.6127
 2700WAT     H2 8312   2.035   4.354   4.069 -2.1854 -0.1551 -0.6687
 2701WAT      O 8313   1.647   1.020   1.315  0.0027  0.5061  0.0216
 2701WAT     H1 8314   1.588   0.946   1.330 -0.6156  0.6976 -1.3170
 2701WAT     H2 8315   1.723   1.001   1.370 -0.9183 -0.1865  1.0997
 2702WAT      O 8316   0.889   0.735   4.695 -0.4778 -0.4061  0.1090
 2702WAT     H1 8317   0.882   0.710   4.603  1.3745  1.2009 -0.5493
 2702WAT     H2 8318   0.817   0.690   4.738 -2.1389 -0.2746 -2.3221
 2703WAT      O 8319   2.346   0.394   4.693  0.2086 -0.0149 -0.1504
 2703WAT     H1 8320   2.336   0.466   4.755  0.8670  0.7516 -0.8999
 2703WAT     H2 8321   2.257   0.379   4.660  0.1528  0.8981 -0.4534
 2704WAT      O 8322   3.059   0.386   1.842  0.0704  0.1902 -0.0015
 2704WAT     H1 8323   3.102   0.319   1.789  1.2746  0.6581  0.3628
 2704WAT     H2 8324   2.988   0.339   1.886  0.2641 -0.6237 -0.5384
 2705WAT      O 8325   2.208   3.172   1.972 -0.3001 -0.5815 -0.0762
 2705WAT     H1 8326   2.266   3.120   1.918  0.3728  1.2388 -1.1802
 2705WAT     H2 8327   2.266   3.231   2.020 -0.9809 -1.2799  1.7216
 2706WAT      O 8328   4.382   0.565   4.760 -0.5024 -0.1203 -0.6764
 2706WAT     H1 8329   4.446   0.590   4.693 -0.3397  2.0668  0.2183
 2706WAT     H2 8330   4.313   0.521   4.711 -0.9791  2.4950 -2.5604
 2707WAT      O 8331   2.137   2.418   2.213  0.3667 -0.8041 -1.0049
 2707WAT     H1 8332   2.192   2.363   2.269  0.3637  0.5255  0.3918
 2707WAT     H2 8333   2.179   2.415   2.128  2.7703  0.2813  0.0537
 2708WAT      O 8334   3.742   2.049   5.187  0.3835 -0.3571  0.0638
 2708WAT     H1 8335   3.804   1.976   5.191  0.4413 -0.3198 -0.1497
 2708WAT     H2 8336   3.735   2.070   5.094  0.5780  0.0897  0.1474
 2709WAT      O 8337   4.369   2.617   3.101  0.4561  0.1320 -0.0144
 2709WAT     H1 8338   4.448   2.661   3.133 -1.0238  0.8770  2.9221
 2709WAT     H2 8339   4.385   2.524   3.114  1.4619  0.1467 -1.0300
 2710WAT      O 8340   4.030   1.871   4.244  0.0371 -0.4578 -0.6763
 2710WAT     H1 8341   3.950   1.921   4.229 -0.4130 -0.6919  0.8577
 2710WAT     H2 8342   4.001   1.786   4.276  0.9011 -0.1673  0.9796
 2711WAT      O 8343   1.201   2.581   3.818 -1.3650 -0.2214  0.0088
 2711WAT     H1 8344   1.162   2.495   3.831 -1.0435 -0.6578 -1.7259
 2711WAT     H2 8345   1.280   2.565   3.767 -1.5035  1.1201 -0.6885
 2712WAT      O 8346   1.369   2.708   1.677  0.3852  0.1436  0.4259
 2712WAT     H1 8347   1.302   2.697   1.745  0.8929  2.3010  1.3465
 2712WAT     H2 8348   1.450   2.722   1.726  1.1548 -0.3605 -0.6686
 2713WAT      O 8349   3.830   0.514   2.977  0.4086  0.1292  0.2863
 2713WAT     H1 8350   3.793   0.487   3.061  1.1087 -0.2942  0.4672
 2713WAT     H2 8351   3.834   0.433   2.926 -3.1035  0.8660 -1.4157
 2714WAT      O 8352   0.897   2.785   1.836 -0.1091 -0.1320 -0.5426
 2714WAT     H1 8353   0.978   2.833   1.823 -0.1619 -0.1690 -1.0543
 2714WAT     H2 8354   0.924   2.693   1.846 -0.1039 -0.1899 -1.0428
 2715WAT      O 8355   3.457   3.817   3.558 -0.3338 -0.2486 -0.1152
 2715WAT     H1 8356   3.474   3.838   3.650 -1.0578 -1.1359  0.2407
 2715WAT     H2 8357   3.507   3.737   3.543  0.1917  0.1734 -0.6525
 2716WAT      O 8358   3.117   5.068   1.017 -0.6227 -0.1635 -0.7938
 2716WAT     H1 8359   3.136   5.043   0.927  1.7682 -1.8199  0.0888
 2716WAT     H2 8360   3.132   4.989   1.069 -0.0396  1.2203  1.3024
 2717WAT      O 8361   1.800   4.872   5.259 -0.5087 -0.0634 -0.1972
 2717WAT     H1 8362   1.848   4.943   5.216  0.1588 -0.1676  0.3510
 2717WAT     H2 8363   1.712   4.906   5.271 -0.3174  0.5011 -0.3613
 2718WAT      O 8364   2.208   5.015   5.089 -0.1484  0.3066  0.3756
 2718WAT     H1 8365   2.249   5.093   5.052  0.3268  0.5515  1.3878
 2718WAT     H2 8366   2.279   4.952   5.098 -0.1179  0.4885  1.4897
 2719WAT      O 8367   2.928   0.648   4.665 -0.2388 -0.1343 -0.8423
 2719WAT     H1 8368   2.916   0.658   4.760 -2.3894  0.8951 -1.1654
 2719WAT     H2 8369   2.966   0.561   4.655  2.1527  0.5610  1.0729
 2720WAT      O 8370   4.420   1.911   3.023  0.0044  0.4565 -0.3831
 2720WAT     H1 8371   4.430   1.826   2.980  1.5802 -0.7372  2.0738
 2720WAT     H2 8372   4.327   1.932   3.014 -0.8974 -2.5894  0.7020
 2721WAT      O 8373   0.770   4.432   2.209 -0.1758 -0.2446 -0.3401
 2721WAT     H1 8374   0.726   4.474   2.283 -2.5267 -0.1257 -1.6999
 2721WAT     H2 8375   0.863   4.450   2.223 -0.5505 -0.1002  2.4592
 2722WAT      O 8376   0.445   2.336   4.630  0.1681  0.4230 -0.4030
 2722WAT     H1 8377   0.466   2.243   4.639 -0.7751  0.1619 -0.8232
 2722WAT     H2 8378   0.530   2.378   4.614  0.6586 -0.3010  0.2449
 2723WAT      O 8379   0.179   0.482   0.821 -0.1439 -0.4745  0.4562
 2723WAT     H1 8380   0.262   0.529   0.816  0.2838 -1.3360 -1.6906
 2723WAT     H2 8381   0.124   0.535   0.878  0.2506  2.7643 -1.9132
 2724WAT      O 8382   0.333   4.495   2.285 -0.1782  0.2164 -0.2891
 2724WAT     H1 8383   0.400   4.531   2.227 -2.0945 -1.4811 -3.8623
 2724WAT     H2 8384   0.251   4.537   2.256 -1.5494 -2.4211 -0.4971
 2725WAT      O 8385   1.097   5.054   2.819  0.2871  0.9447 -0.2544
 2725WAT     H1 8386   1.073   5.001   2.743 -2.2515  0.7277  0.6064
 2725WAT     H2 8387   1.184   5.089   2.797  0.6634 -0.9641 -2.2160
 2726WAT      O 8388   2.234   0.682   3.002  0.9903  0.0548  0.2960
 2726WAT     H1 8389   2.158   0.683   3.061  0.1519 -0.1696 -0.7471
 2726WAT     H2 8390   2.285   0.758   3.028  0.8142 -0.2278  1.5288
 2727WAT      O 8391   4.500   0.033   3.788  0.5108  0.1092 -0.2430
 2727WAT     H1 8392   4.551   0.108   3.761  3.3107 -0.9757  1.5783
 2727WAT     H2 8393   4.440   0.068   3.855  0.2755  1.0348 -0.9164
 2728WAT      O 8394   3.161   2.319   1.161  0.4950 -0.1196 -0.0188
 2728WAT     H1 8395   3.219   2.256   1.118  0.0214 -0.2689 -0.4421
 2728WAT     H2 8396   3.153   2.391   1.099 -0.5773 -0.5507 -0.4029
 2729WAT      O 8397   0.556   1.281   3.958  0.2111  0.9833 -0.1272
 2729WAT     H1 8398   0.487   1.253   3.898  0.7161  1.3283 -0.8944
 2729WAT     H2 8399   0.582   1.202   4.004 -1.1317  0.9694  0.6398
 2730WAT      O 8400   2.539   2.274   1.493 -0.1484 -0.4957  0.0030
 2730WAT     H1 8401   2.461   2.329   1.482  0.1837  0.2820  1.3561
 2730WAT     H2 8402   2.516   2.212   1.561  0.8119  0.5987  1.4000
 2731WAT      O 8403   0.616   2.173   1.519 -0.1794  0.3513 -0.0407
 2731WAT     H1 8404   0.678   2.176   1.446  0.1318 -0.1376  0.1996
 2731WAT     H2 8405   0.660   2.220   1.590 -0.6124  1.1037 -0.2546
 2732WAT      O 8406   2.105   0.957   3.953  0.9671 -0.6642  0.0890
 2732WAT     H1 8407   2.133   0.977   4.042  1.5666 -2.4952  0.3594
 2732WAT     H2 8408   2.183   0.971   3.899  0.2857  1.6954 -0.4272
 2733WAT      O 8409   3.383   1.306   4.880 -0.7976  0.3637 -0.5318
 2733WAT     H1 8410   3.347   1.388   4.848 -1.1081  0.0976 -0.8818
 2733WAT     H2 8411   3.426   1.267   4.803 -0.0856  0.5030 -0.2093
 2734WAT      O 8412   4.096   3.690   3.286 -0.1418 -0.3565  0.4763
 2734WAT     H1 8413   4.153   3.728   3.353  1.2900 -2.0432  0.2657
 2734WAT     H2 8414   4.119   3.597   3.284 -1.4693 -0.7020 -1.0726
 2735WAT      O 8415   0.371   0.793   0.326 -0.3120 -0.1236  0.2849
 2735WAT     H1 8416   0.457   0.822   0.358 -0.2994  0.9203 -0.6270
 2735WAT     H2 8417   0.328   0.755   0.403  0.6012  0.2163  0.9736
 2736WAT      O 8418   3.252   3.505   4.937  0.5312 -0.2832  0.0886
 2736WAT     H1 8419   3.339   3.533   4.909  0.3453 -0.6455 -0.8955
 2736WAT     H2 8420   3.267   3.457   5.018  1.6486 -2.7892 -1.4659
 2737WAT      O 8421   1.605   1.301   1.381  0.5828  0.8751  0.3470
 2737WAT     H1 8422   1.576   1.282   1.471 -1.7267  0.0081 -0.5217
 2737WAT     H2 8423   1.644   1.219   1.351 -1.1540  0.2477 -0.3234
 2738WAT      O 8424   2.131   4.527   4.739  0.0452 -0.3587 -0.7000
 2738WAT     H1 8425   2.151   4.510   4.647  0.6811 -0.0317 -0.6278
 2738WAT     H2 8426   2.201   4.483   4.787 -0.1122 -0.2651 -0.3850
 2739WAT      O 8427   0.198   4.109   4.809 -0.2408  0.2674 -0.3986
 2739WAT     H1 8428   0.150   4.138   4.732  1.3207  0.9688 -1.1461
 2739WAT     H2 8429   0.148   4.034   4.842 -1.8109  0.9472 -1.1314
 2740WAT      O 8430   0.175   2.637   0.996  0.1836 -0.0981 -0.4578
 2740WAT     H1 8431   0.135   2.558   1.031 -1.3317  0.7913 -0.1172
 2740WAT     H2 8432   0.198   2.689   1.073 -2.1879  1.3874 -0.6453
 2741WAT      O 8433   4.280   0.106   0.920  0.2430 -0.0718 -1.0731
 2741WAT     H1 8434   4.314   0.090   1.008  1.0577 -0.6079 -1.4731
 2741WAT     H2 8435   4.297   0.198   0.903 -1.0722  0.3717 -0.1975
 2742WAT      O 8436   0.401   3.919   3.366 -0.0840 -0.1809 -0.3882
 2742WAT     H1 8437   0.466   3.858   3.333 -1.7527 -1.7116 -0.9729
 2742WAT     H2 8438   0.394   3.986   3.299 -0.4043 -0.9907 -1.1762
 2743WAT      O 8439   0.602   0.245   2.133  0.3126  0.2206  0.3063
 2743WAT     H1 8440   0.593   0.320   2.191  0.8971  1.4890 -1.1703
 2743WAT     H2 8441   0.643   0.281   2.054 -2.6332 -0.8814 -1.8936
 2744WAT      O 8442   1.262   3.156   3.576 -0.0009  1.0109 -0.4578
 2744WAT     H1 8443   1.210   3.081   3.546 -0.1372  1.2773 -0.9040
 2744WAT     H2 8444   1.220   3.183   3.657 -0.4897  1.1439 -0.7477
 2745WAT      O 8445   1.231   2.160   0.864  0.5146 -0.2812 -0.2240
 2745WAT     H1 8446   1.195   2.159   0.953 -0.2309 -0.2063 -0.5150
 2745WAT     H2 8447   1.159   2.130   0.810  0.3912  1.3456 -1.0179
 2746WAT      O 8448   3.793   0.186   0.497  0.0143 -0.2813 -0.7176
 2746WAT     H1 8449   3.734   0.112   0.483 -1.0209  0.1724  0.9272
 2746WAT     H2 8450   3.875   0.146   0.526 -0.7677 -0.8297  0.9080
 2747WAT      O 8451   1.597   3.140   0.569 -0.4732 -0.2901  0.6267
 2747WAT     H1 8452   1.648   3.209   0.527 -1.6216  0.6973  0.8119
 2747WAT     H2 8453   1.551   3.097   0.497 -2.0635  1.0895  0.7503
 2748WAT      O 8454   2.628   0.839   2.973  0.0693 -0.0619  0.1194
 2748WAT     H1 8455   2.721   0.828   2.955  0.1119  0.7931 -0.2483
 2748WAT     H2 8456   2.584   0.784   2.908  0.3179 -0.8630  0.6167
 2749WAT      O 8457   3.928   1.640   4.311 -0.0195 -0.3950 -0.3735
 2749WAT     H1 8458   3.849   1.598   4.346  0.8931 -2.0706 -0.1911
 2749WAT     H2 8459   3.983   1.566   4.283  2.2792  0.5902  1.2408
 2750WAT      O 8460   3.520   2.297   1.845  0.2022 -0.7816  0.2826
 2750WAT     H1 8461   3.467   2.244   1.786 -1.4841 -0.5508  1.5060
 2750WAT     H2 8462   3.519   2.249   1.928 -2.1110  1.4639  1.6902
 2751WAT      O 8463   2.571   2.227   1.069 -0.2555 -0.3971 -0.1817
 2751WAT     H1 8464   2.626   2.186   1.002  2.4540  0.7730  1.1966
 2751WAT     H2 8465   2.564   2.161   1.138 -0.4095 -0.4506 -0.2465
 2752WAT      O 8466   2.288   3.955   4.047 -0.5444 -0.0946  0.2799
 2752WAT     H1 8467   2.242   3.997   3.974  0.7168 -0.6501 -0.8952
 2752WAT     H2 8468   2.287   4.020   4.117 -0.3079  1.1578 -0.8298
 2753WAT      O 8469   0.520   0.439   3.481 -0.2126 -0.4420  0.1913
 2753WAT     H1 8470   0.555   0.500   3.545 -0.2658 -1.5601  1.3304
 2753WAT     H2 8471   0.435   0.474   3.457 -0.4977 -0.3586  1.2733
 2754WAT      O 8472   0.564   2.965   0.127  0.2108  0.4064  0.2266
 2754WAT     H1 8473   0.593   2.987   0.038  1.2648 -0.6353  0.2780
 2754WAT     H2 8474   0.645   2.965   0.179 -0.2686  0.0967  0.9907
 2755WAT      O 8475   1.251   3.435   1.502 -0.2806 -0.0865 -0.7796
 2755WAT     H1 8476   1.240   3.419   1.408  1.0010  1.5466 -1.2651
 2755WAT     H2 8477   1.272   3.528   1.507 -1.2629  0.0596  1.2338
 2756WAT      O 8478   0.217   4.437   4.578 -0.5531  0.0102 -0.7836
 2756WAT     H1 8479   0.243   4.450   4.487 -1.3539 -2.6701 -1.4784
 2756WAT     H2 8480   0.254   4.353   4.602 -0.9650  0.3379  1.1513
 2757WAT      O 8481   0.287   2.526   3.595 -0.1834 -0.2162 -0.1562
 2757WAT     H1 8482   0.330   2.442   3.608  0.8231  0.0514 -1.5331
 2757WAT     H2 8483   0.204   2.519   3.643  1.0741 -0.9765  2.0447
 2758WAT      O 8484   1.269   0.525   4.439 -0.2996  0.3864  0.1264
 2758WAT     H1 8485   1.278   0.439   4.397 -1.3255  0.6707 -0.7035
 2758WAT     H2 8486   1.355   0.541   4.478 -0.7317 -2.1311  2.4912
 2759WAT      O 8487   1.953   2.248   2.644  0.5355 -0.2847  0.2437
 2759WAT     H1 8488   1.877   2.302   2.664  0.0414 -0.7304 -0.4329
 2759WAT     H2 8489   1.967   2.196   2.723  0.4454  0.1597  0.5534
 2760WAT      O 8490   0.163   2.289   2.504  0.3484 -0.2662  0.5691
 2760WAT     H1 8491   0.134   2.379   2.488  0.1283 -0.1511  1.4985
 2760WAT     H2 8492   0.086   2.246   2.542  0.1654 -1.1143 -0.7204
 2761WAT      O 8493   2.577   4.947   4.650 -0.1725  0.1634 -0.3479
 2761WAT     H1 8494   2.558   4.899   4.569 -2.4468 -1.0997  0.8116
 2761WAT     H2 8495   2.621   5.026   4.622  1.9546 -1.6669 -2.5390
 2762WAT      O 8496   0.665   4.525   2.436 -0.2714  0.2100  0.2017
 2762WAT     H1 8497   0.576   4.556   2.452 -0.8514 -1.1005 -0.3633
 2762WAT     H2 8498   0.718   4.567   2.504 -1.6011 -0.2901  1.5876
 2763WAT      O 8499   0.213   4.876   4.792  0.2904 -0.0530  0.7264
 2763WAT     H1 8500   0.199   4.872   4.887  1.1477  0.2749  0.8757
 2763WAT     H2 8501   0.268   4.953   4.780 -0.3679  0.2993 -0.1152
 2764WAT      O 8502   2.657   0.323   2.731 -0.7286 -0.5220  0.1553
 2764WAT     H1 8503   2.666   0.329   2.826 -0.8603 -1.4723  0.2366
 2764WAT     H2 8504   2.744   0.297   2.700 -0.9168 -1.0973  0.1042
 2765WAT      O 8505   4.430   2.129   0.909 -0.0684  0.8376  0.1313
 2765WAT     H1 8506   4.353   2.150   0.962 -0.9107  0.9027 -1.0719
 2765WAT     H2 8507   4.395   2.080   0.834  0.7385  2.6117 -1.5203
 2766WAT      O 8508   4.286   3.951   2.984  0.4456 -0.3299  0.2745
 2766WAT     H1 8509   4.225   3.944   2.910  0.5417 -0.9006  0.2506
 2766WAT     H2 8510   4.240   4.005   3.048  0.5537  0.6061 -0.3993
 2767WAT      O 8511   3.206   4.006   2.578  0.0038  0.2048 -0.3685
 2767WAT     H1 8512   3.261   4.081   2.602 -0.8596  0.3019  1.4862
 2767WAT     H2 8513   3.118   4.043   2.570 -0.0756 -0.2389 -1.6898
 2768WAT      O 8514   0.826   2.876   5.257  0.0365 -0.5223  0.3795
 2768WAT     H1 8515   0.803   2.797   5.306 -1.9262 -1.3432 -1.6170
 2768WAT     H2 8516   0.755   2.884   5.193  0.1195  2.9466  0.5509
 2769WAT      O 8517   0.739   4.840   3.892 -0.5816  0.3243  0.5666
 2769WAT     H1 8518   0.724   4.788   3.812  0.9142 -0.8705  1.0099
 2769WAT     H2 8519   0.653   4.874   3.915 -1.4653 -1.2501 -0.2500
 2770WAT      O 8520   2.811   2.298   1.806 -0.7079  0.0558  0.2776
 2770WAT     H1 8521   2.728   2.300   1.855 -1.0658 -1.2543 -0.2077
 2770WAT     H2 8522   2.809   2.213   1.761  0.6397  0.2644 -0.2105
 2771WAT      O 8523   3.273   0.296   4.254  0.2671 -0.2865 -0.5969
 2771WAT     H1 8524   3.283   0.297   4.349  0.1537 -0.4617 -0.5825
 2771WAT     H2 8525   3.274   0.388   4.229 -2.3171 -0.0530 -0.1621
 2772WAT      O 8526   2.487   1.513   2.101  0.0273 -0.4053  0.0126
 2772WAT     H1 8527   2.572   1.514   2.146 -0.3093 -1.2879  0.7040
 2772WAT     H2 8528   2.499   1.571   2.026  0.9280  0.2811  0.6646
 2773WAT      O 8529   2.205   2.868   0.781  0.5238 -0.2418  0.0130
 2773WAT     H1 8530   2.292   2.899   0.758 -0.0214  0.9842 -0.5171
 2773WAT     H2 8531   2.216   2.827   0.867  1.4892  0.5572  0.2905
 2774WAT      O 8532   3.311   0.050   1.329  0.0677  0.3535  0.0637
 2774WAT     H1 8533   3.249   0.115   1.296 -0.0041 -0.0577 -0.6344
 2774WAT     H2 8534   3.390   0.065   1.278 -0.3144 -0.8413 -0.9151
 2775WAT      O 8535   1.294   3.774   5.165  1.2122 -0.0019  0.2854
 2775WAT     H1 8536   1.237   3.841   5.126  0.0364 -0.0197  1.8953
 2775WAT     H2 8537   1.335   3.818   5.239 -0.1582 -1.2199  1.8355
 2776WAT      O 8538   0.669   3.964   4.301 -0.6055 -0.2023 -0.6130
 2776WAT     H1 8539   0.730   3.949   4.229 -1.3184 -1.0942 -1.0338
 2776WAT     H2 8540   0.694   3.899   4.367  2.9494  3.2871  1.9376
 2777WAT      O 8541   0.715   2.418   4.375  0.0138  0.0540 -0.2451
 2777WAT     H1 8542   0.646   2.476   4.342  0.1582 -0.7780 -2.1334
 2777WAT     H2 8543   0.683   2.330   4.359  1.4860 -0.3535 -1.1803
 2778WAT      O 8544   0.084   0.629   2.064  0.0513  0.3546  0.2164
 2778WAT     H1 8545   0.077   0.671   2.149  0.4949  0.2525  0.3099
 2778WAT     H2 8546  -0.001   0.587   2.050  0.4524 -0.8764  1.2868
 2779WAT      O 8547   1.453   1.192   3.312 -0.6122  0.6095 -0.3455
 2779WAT     H1 8548   1.445   1.186   3.217 -1.8600 -1.6822 -0.1710
 2779WAT     H2 8549   1.537   1.151   3.332  0.6210  2.8740 -0.5177
 2780WAT      O 8550   3.062   3.712   0.078 -0.3689  0.1571  0.6368
 2780WAT     H1 8551   3.069   3.805   0.103 -0.0859  0.4351 -0.4397
 2780WAT     H2 8552   3.125   3.668   0.135  0.3487  0.7973  0.3594
 2781WAT      O 8553   2.441   1.273   2.227 -0.1658  0.3316  0.5800
 2781WAT     H1 8554   2.512   1.224   2.186  0.4959  1.8197 -0.1482
 2781WAT     H2 8555   2.439   1.356   2.178 -3.5870 -0.3185 -0.6405
 2782WAT      O 8556   1.194   3.348   3.390  0.0099  0.5768 -0.0343
 2782WAT     H1 8557   1.230   3.265   3.423 -1.0514  0.0287 -0.2174
 2782WAT     H2 8558   1.216   3.412   3.458 -0.1798 -0.0915  0.6713
 2783WAT      O 8559   4.254   2.330   5.013 -0.0793  0.1435  0.0661
 2783WAT     H1 8560   4.241   2.417   4.976 -0.9124 -0.1501 -0.3430
 2783WAT     H2 8561   4.332   2.297   4.967 -1.1458 -0.2541 -1.5298
 2784WAT      O 8562   1.973   2.597   2.593 -0.3467  0.4638  0.1555
 2784WAT     H1 8563   1.898   2.629   2.644  0.9571  4.2766 -0.0314
 2784WAT     H2 8564   1.946   2.606   2.502 -0.2476  0.2699  0.1068
 2785WAT      O 8565   4.172   1.324   4.892  0.7970 -0.5505 -0.6040
 2785WAT     H1 8566   4.088   1.289   4.861  0.2185 -0.4067  0.7220
 2785WAT     H2 8567   4.167   1.317   4.987  1.8368  0.4984 -0.4497
 2786WAT      O 8568   3.590   3.461   1.415  0.3753 -0.0670  0.0924
 2786WAT     H1 8569   3.543   3.445   1.333 -0.3663  1.4928  0.1719
 2786WAT     H2 8570   3.544   3.535   1.455  1.3516 -0.1385  1.4323
 2787WAT      O 8571   1.468   1.607   0.126 -1.1517  0.0978  0.3494
 2787WAT     H1 8572   1.457   1.668   0.199 -2.5224  0.5336 -0.1933
 2787WAT     H2 8573   1.516   1.657   0.060 -0.8355  0.0392  0.5291
 2788WAT      O 8574   1.089   1.190   2.932  0.6429  0.1083  0.2081
 2788WAT     H1 8575   1.007   1.165   2.891  1.2934 -1.2208 -0.3355
 2788WAT     H2 8576   1.157   1.152   2.876  1.7265  2.7229 -0.4222
 2789WAT      O 8577   1.137   2.388   5.292  0.2856 -0.2545  0.0248
 2789WAT     H1 8578   1.069   2.402   5.227  0.3510 -0.4815 -0.0922
 2789WAT     H2 8579   1.146   2.473   5.336 -1.6216 -0.7654  1.5368
 2790WAT      O 8580   3.619   2.836   5.089 -0.0132 -0.5163 -0.0382
 2790WAT     H1 8581   3.675   2.860   5.162  0.8143 -0.7323 -0.5857
 2790WAT     H2 8582   3.549   2.901   5.089  2.6245  2.6209 -2.0656
 2791WAT      O 8583   0.686   3.999   2.791  0.2559  0.3747  0.2073
 2791WAT     H1 8584   0.766   3.949   2.805 -0.4621 -0.5009  1.3409
 2791WAT     H2 8585   0.684   4.063   2.862  0.5349  1.2080 -0.5134
 2792WAT      O 8586   3.040   0.761   1.437  0.4790  0.1055  0.6393
 2792WAT     H1 8587   3.096   0.780   1.361  0.0593  1.3569  0.6184
 2792WAT     H2 8588   3.075   0.816   1.507  1.4905 -1.7682  1.6918
 2793WAT      O 8589   1.287   0.702   4.178 -0.3321  0.1622  0.5115
 2793WAT     H1 8590   1.296   0.733   4.268 -0.4415 -1.5188  1.1541
 2793WAT     H2 8591   1.195   0.717   4.156 -0.4521  0.0121  0.9117
 2794WAT      O 8592   3.050   3.784   0.666 -0.4624 -0.5758  0.7474
 2794WAT     H1 8593   3.060   3.875   0.636 -0.0428 -1.8822 -3.6850
 2794WAT     H2 8594   2.956   3.773   0.679 -0.7026  0.0390 -0.3785
 2795WAT      O 8595   0.060   4.104   3.291  0.0567  0.3443 -0.3664
 2795WAT     H1 8596   0.072   4.162   3.216 -0.1936 -1.6001 -2.0165
 2795WAT     H2 8597  -0.007   4.042   3.262 -0.5739 -0.0608  1.7641
 2796WAT      O 8598   0.564   2.217   1.170  0.6728 -0.8388  0.6537
 2796WAT     H1 8599   0.482   2.187   1.211 -0.3653  0.3599 -0.4468
 2796WAT     H2 8600   0.543   2.224   1.077  1.7002  0.5206  0.4932
 2797WAT      O 8601   2.094   4.730   2.218 -0.1132  0.0033  0.2602
 2797WAT     H1 8602   2.178   4.759   2.253 -0.1525  0.1327  0.2495
 2797WAT     H2 8603   2.100   4.748   2.124 -0.1435 -0.0079  0.2561
 2798WAT      O 8604   0.927   5.051   3.843  0.3909 -0.1587  0.1618
 2798WAT     H1 8605   0.912   4.957   3.845  2.1634 -0.4700  0.3355
 2798WAT     H2 8606   0.982   5.065   3.766 -0.3442  0.8215 -0.2064
 2799WAT      O 8607   3.406   2.786   4.764 -0.4498  0.0250  0.5024
 2799WAT     H1 8608   3.465   2.721   4.802  0.3999  1.2026  1.2643
 2799WAT     H2 8609   3.347   2.810   4.836 -1.6923 -0.8914 -0.1568
 2800WAT      O 8610   4.371   2.107   3.249 -0.3421  0.2604 -0.5446
 2800WAT     H1 8611   4.384   2.036   3.187 -1.4280 -0.4661  0.0438
 2800WAT     H2 8612   4.399   2.071   3.333  0.4508  1.0097 -0.4646
 2801WAT      O 8613   1.342   0.077   0.152  0.2215 -0.2231  0.1967
 2801WAT     H1 8614   1.300   0.155   0.188  1.1113  1.1867 -1.6904
 2801WAT     H2 8615   1.434   0.099   0.145  0.2669 -0.8237 -1.8100
 2802WAT      O 8616   1.680   1.468   5.051 -0.3011 -0.3391 -0.1529
 2802WAT     H1 8617   1.736   1.526   5.102  1.0643 -1.0594 -0.7970
 2802WAT     H2 8618   1.602   1.457   5.105  0.8838 -0.6828  1.5554
 2803WAT      O 8619   1.978   3.966   0.451  0.4773  0.2518 -0.0339
 2803WAT     H1 8620   1.927   4.045   0.432  1.0502  1.0300  1.5115
 2803WAT     H2 8621   1.916   3.908   0.496  0.2988  0.1745 -0.3738
 2804WAT      O 8622   2.657   3.314   4.768 -0.3049  0.2367 -0.3701
 2804WAT     H1 8623   2.626   3.241   4.715 -0.1438  0.0160 -0.1574
 2804WAT     H2 8624   2.577   3.358   4.797 -0.4544 -0.6100  0.5745
 2805WAT      O 8625   0.430   3.643   1.274 -0.3375  0.0440 -0.1205
 2805WAT     H1 8626   0.345   3.605   1.298 -1.3891  2.6182  0.5321
 2805WAT     H2 8627   0.453   3.700   1.348  0.9426  1.0001 -1.2035
 2806WAT      O 8628   0.143   1.654   4.827 -0.5745 -0.2316 -0.4580
 2806WAT     H1 8629   0.145   1.718   4.898 -0.5918 -1.3702  0.5985
 2806WAT     H2 8630   0.146   1.707   4.747 -2.1180  1.1628  0.3376
 2807WAT      O 8631   0.552   1.316   4.554  0.3220  0.1628  0.2128
 2807WAT     H1 8632   0.537   1.271   4.637  1.1694 -0.0143  0.2748
 2807WAT     H2 8633   0.608   1.257   4.504  0.7849  0.7919 -0.0220
 2808WAT      O 8634   0.636   3.726   3.924  0.2392  0.2289 -0.0748
 2808WAT     H1 8635   0.594   3.753   3.842 -1.2629 -2.5409 -0.3565
 2808WAT     H2 8636   0.571   3.746   3.992  2.3201  4.5909  0.9649
 2809WAT      O 8637   3.624   3.989   4.204 -0.6886  0.2893  0.3160
 2809WAT     H1 8638   3.583   3.957   4.284 -2.2103 -0.7415 -0.8185
 2809WAT     H2 8639   3.580   4.071   4.185 -2.2557 -0.7559 -0.8337
 2810WAT      O 8640   0.959   1.688   5.268 -0.1599 -0.0379 -0.1158
 2810WAT     H1 8641   1.002   1.614   5.227  0.8301  0.0436  0.7454
 2810WAT     H2 8642   1.013   1.709   5.344 -0.0686  1.9403 -0.6527
 2811WAT      O 8643   4.467   0.955   0.709 -0.1404 -0.1707 -0.0401
 2811WAT     H1 8644   4.409   1.020   0.669 -0.7243  0.6431  1.9811
 2811WAT     H2 8645   4.455   0.967   0.803  2.4769 -0.7555  0.4530
 2812WAT      O 8646   0.768   4.278   1.985 -0.6528 -0.2925 -0.4692
 2812WAT     H1 8647   0.779   4.350   2.046 -0.7827 -0.6224 -0.0509
 2812WAT     H2 8648   0.818   4.206   2.024 -1.6110 -0.8319 -0.2014
 2813WAT      O 8649   0.757   2.336   1.704  0.0799  0.4597 -0.2191
 2813WAT     H1 8650   0.780   2.307   1.792 -0.7255  0.7333  0.0936
 2813WAT     H2 8651   0.823   2.401   1.682 -0.8672  1.8922  1.0120
 2814WAT      O 8652   3.372   2.945   3.586 -0.4336  0.0653 -0.1164
 2814WAT     H1 8653   3.294   3.000   3.598 -0.2640  0.4743 -0.8074
 2814WAT     H2 8654   3.401   2.925   3.675  1.1888  3.5354  0.2944
 2815WAT      O 8655   1.636   2.749   3.437 -0.0459 -0.6603  0.7451
 2815WAT     H1 8656   1.726   2.763   3.464 -0.0601 -1.1433  1.0649
 2815WAT     H2 8657   1.584   2.774   3.513 -0.3699  2.2850 -0.3420
 2816WAT      O 8658   4.337   1.415   1.696 -0.1920  0.0032 -0.0801
 2816WAT     H1 8659   4.401   1.456   1.638  1.7916 -1.3113  1.0970
 2816WAT     H2 8660   4.383   1.402   1.778 -1.8083 -1.5243  0.6513
 2817WAT      O 8661   1.708   1.062   2.127  0.3821 -0.2172 -0.3289
 2817WAT     H1 8662   1.793   1.074   2.170  1.0261 -2.0407 -1.0123
 2817WAT     H2 8663   1.647   1.046   2.198  0.8424 -0.1550  0.0878
 2818WAT      O 8664   1.042   3.729   1.466 -0.1879  0.2225 -0.0925
 2818WAT     H1 8665   1.103   3.746   1.394 -0.3089  1.2138  0.0245
 2818WAT     H2 8666   1.092   3.747   1.545 -0.7712  1.5536 -0.0123
 2819WAT      O 8667   4.122   3.650   1.468 -0.3033 -0.1641 -0.4353
 2819WAT     H1 8668   4.152   3.561   1.488  0.8494  0.2072 -0.4334
 2819WAT     H2 8669   4.041   3.637   1.419 -0.1470 -1.2240 -0.4390
 2820WAT      O 8670   3.186   0.818   2.353  0.0831 -0.1981 -0.2067
 2820WAT     H1 8671   3.165   0.829   2.260 -0.1819  0.3992 -0.0828
 2820WAT     H2 8672   3.282   0.824   2.357 -0.0274  3.4235 -0.0425
 2821WAT      O 8673   4.382   1.068   2.438  0.2069  0.5901 -0.3436
 2821WAT     H1 8674   4.355   1.055   2.529 -0.4604 -1.9355 -0.8525
 2821WAT     H2 8675   4.301   1.064   2.387  0.6632  1.1981 -1.1487
 2822WAT      O 8676   0.778   1.807   2.477  0.2204 -0.1740 -0.1004
 2822WAT     H1 8677   0.845   1.740   2.464  2.8498  1.7825  2.1462
 2822WAT     H2 8678   0.735   1.782   2.559  1.3664  0.8793  0.8709
 2823WAT      O 8679   3.443   1.563   3.171  0.8173  0.0724  0.5832
 2823WAT     H1 8680   3.422   1.599   3.257 -1.1712 -0.6876  0.4520
 2823WAT     H2 8681   3.473   1.474   3.189  0.8356  0.0646  0.5151
 2824WAT      O 8682   3.939   2.250   0.694 -0.0145 -0.4187 -0.0666
 2824WAT     H1 8683   3.967   2.166   0.732  0.9240  0.4871  1.3504
 2824WAT     H2 8684   3.856   2.269   0.738 -0.1836 -0.5449 -0.3249
 2825WAT      O 8685   2.227   3.650   4.008  0.0688 -0.3942  0.3078
 2825WAT     H1 8686   2.255   3.740   4.022  1.8686 -0.8199 -0.2165
 2825WAT     H2 8687   2.309   3.600   4.003 -0.8886 -2.1547  1.1659
 2826WAT      O 8688   4.088   2.346   3.290 -0.0210  0.2352 -0.0206
 2826WAT     H1 8689   4.051   2.282   3.230  1.0280 -0.8557  0.4433
 2826WAT     H2 8690   4.017   2.407   3.308 -0.7389 -0.1913 -1.3014
 2827WAT      O 8691   3.966   2.865   0.857 -0.0958 -0.3158  0.5865
 2827WAT     H1 8692   3.986   2.809   0.932  1.2030  0.6295  0.9874
 2827WAT     H2 8693   4.011   2.824   0.784 -0.4397 -0.6372  0.5543
 2828WAT      O 8694   3.533   1.134   4.153 -0.3791 -0.3812  0.2889
 2828WAT     H1 8695   3.472   1.186   4.206  0.2777 -0.1551  0.8381
 2828WAT     H2 8696   3.484   1.113   4.074 -1.9526 -2.0156  1.6087
 2829WAT      O 8697   3.380   0.439   2.545  0.5914  0.4408  0.8158
 2829WAT     H1 8698   3.324   0.428   2.622  1.4884 -1.0300  1.2938
 2829WAT     H2 8699   3.349   0.373   2.483  1.4357 -0.0235  0.8726
 2830WAT      O 8700   3.973   1.727   1.078 -0.5051  0.1088  0.9375
 2830WAT     H1 8701   3.990   1.640   1.113  0.8892 -0.0523 -0.0434
 2830WAT     H2 8702   3.991   1.786   1.151  1.1885 -0.2887  0.8775
 2831WAT      O 8703   0.522   4.318   1.118  0.0901  0.1946 -0.1274
 2831WAT     H1 8704   0.605   4.299   1.074 -0.0315 -1.2644  0.2143
 2831WAT     H2 8705   0.482   4.386   1.064  0.6481 -0.4485 -1.4105
 2832WAT      O 8706   4.146   4.817   2.406 -0.3547  0.5464  0.1694
 2832WAT     H1 8707   4.145   4.891   2.467 -1.1938  1.7170 -1.1867
 2832WAT     H2 8708   4.070   4.765   2.431 -0.0946  0.4529  0.7740
 2833WAT      O 8709   1.146   0.879   1.452  0.0332  0.8203 -0.5122
 2833WAT     H1 8710   1.111   0.793   1.476  0.4166  1.4215  2.6335
 2833WAT     H2 8711   1.228   0.860   1.406 -1.2729 -0.4742 -2.4227
 2834WAT      O 8712   2.354   4.677   2.480  0.3470 -0.1521 -0.7476
 2834WAT     H1 8713   2.420   4.716   2.538 -0.8966 -0.6247  1.0988
 2834WAT     H2 8714   2.278   4.735   2.488 -0.4790 -1.2395 -0.3974
 2835WAT      O 8715   1.520   2.569   5.176 -0.5496 -0.3838  0.3633
 2835WAT     H1 8716   1.561   2.605   5.254 -1.1766  1.2997 -0.0521
 2835WAT     H2 8717   1.515   2.642   5.115  1.0689 -1.9156 -1.7829
 2836WAT      O 8718   0.919   2.454   4.183  0.4779 -0.4692  0.4499
 2836WAT     H1 8719   0.876   2.495   4.107  1.4174 -0.7109 -0.2328
 2836WAT     H2 8720   0.852   2.397   4.221 -0.9847  1.8495  1.6040
 2837WAT      O 8721   1.605   3.228   4.182 -0.6186  0.2416  0.6567
 2837WAT     H1 8722   1.514   3.239   4.155 -1.1777 -1.5332  1.6259
 2837WAT     H2 8723   1.605   3.248   4.275  0.3441  1.7717  0.3625
 2838WAT      O 8724   3.632   2.879   2.707  0.1538  0.3625 -0.0401
 2838WAT     H1 8725   3.675   2.908   2.788 -1.2657  1.3846  0.3873
 2838WAT     H2 8726   3.539   2.898   2.721 -0.3556 -1.0961 -1.2245
 2839WAT      O 8727   0.648   5.088   1.380 -0.4838 -0.3180 -0.4624
 2839WAT     H1 8728   0.730   5.110   1.334 -1.2631  2.1666 -0.8018
 2839WAT     H2 8729   0.586   5.067   1.310 -0.2393 -2.0864 -0.2085
 2840WAT      O 8730   3.024   1.706   5.084  0.8226 -1.0256  0.0873
 2840WAT     H1 8731   2.960   1.696   5.154  0.7462 -1.2878 -0.0177
 2840WAT     H2 8732   2.982   1.668   5.007  1.6728 -2.6185  0.3535
 2841WAT      O 8733   2.282   2.425   4.174 -0.0877  0.5260  0.5842
 2841WAT     H1 8734   2.231   2.347   4.195 -1.4472  0.4741 -2.3994
 2841WAT     H2 8735   2.369   2.408   4.211 -1.2574 -0.8792  2.8984
 2842WAT      O 8736   1.143   2.130   1.143  0.2758  0.1670  0.0917
 2842WAT     H1 8737   1.156   2.204   1.202 -0.2296 -0.3072  0.8252
 2842WAT     H2 8738   1.053   2.140   1.112 -0.5728 -1.2467  1.8606
 2843WAT      O 8739   1.764   2.201   3.535 -0.8244 -0.4340 -0.0549
 2843WAT     H1 8740   1.804   2.144   3.471 -1.2704 -1.1794  0.3162
 2843WAT     H2 8741   1.801   2.288   3.517 -1.3031 -0.5240 -1.6247
 2844WAT      O 8742   0.587   0.676   2.336  0.6024 -0.0467 -0.3232
 2844WAT     H1 8743   0.632   0.720   2.408  0.3108 -0.4450  0.1067
 2844WAT     H2 8744   0.559   0.747   2.278 -1.5185  0.5476  1.3052
 2845WAT      O 8745   3.174   4.530   0.648  0.3367  0.3859 -0.2576
 2845WAT     H1 8746   3.170   4.480   0.567  1.4115 -0.5763  0.2648
 2845WAT     H2 8747   3.086   4.567   0.657 -0.1252 -0.4184 -1.2712
 2846WAT      O 8748   3.258   3.539   2.403  0.3935 -0.4926  0.2537
 2846WAT     H1 8749   3.264   3.502   2.491  0.1361  0.0172  0.4891
 2846WAT     H2 8750   3.251   3.462   2.345  0.1225 -0.8188  0.7105
 2847WAT      O 8751   2.723   3.737   2.345  0.1534  0.1003  0.1550
 2847WAT     H1 8752   2.777   3.688   2.407 -0.4328 -1.0309 -0.1840
 2847WAT     H2 8753   2.690   3.811   2.394  2.8392  1.4506  0.0880
 2848WAT      O 8754   2.432   3.887   0.262  0.1238  0.2548 -0.3137
 2848WAT     H1 8755   2.482   3.951   0.313  0.4027  0.3722 -0.7303
 2848WAT     H2 8756   2.344   3.925   0.255 -0.1345 -0.1286  0.7406
 2849WAT      O 8757   0.106   2.786   4.008  0.4473  0.6580 -0.0664
 2849WAT     H1 8758   0.053   2.823   3.938  0.7203  2.1642  0.4950
 2849WAT     H2 8759   0.045   2.730   4.056  0.3763 -0.8161 -1.7597
 2850WAT      O 8760   3.131   3.248   1.795  0.0529 -0.6154  0.1320
 2850WAT     H1 8761   3.148   3.199   1.715 -0.6704  0.2304 -0.5611
 2850WAT     H2 8762   3.165   3.335   1.777 -1.2186 -0.0748  0.2667
 2851WAT      O 8763   1.229   5.092   5.017  0.2475 -0.4636 -0.0668
 2851WAT     H1 8764   1.182   5.169   4.984  0.0871 -0.9886 -1.1137
 2851WAT     H2 8765   1.173   5.058   5.086  0.4263  0.4785  0.5633
 2852WAT      O 8766   0.457   4.370   0.372 -0.4713  0.6430  0.2221
 2852WAT     H1 8767   0.480   4.347   0.282 -0.0952  0.3100  0.3939
 2852WAT     H2 8768   0.529   4.426   0.401  1.6734 -2.4994  1.6251
 2853WAT      O 8769   3.701   4.595   4.189 -0.2715 -0.1194 -0.1681
 2853WAT     H1 8770   3.623   4.565   4.144 -1.7055  1.8913  0.8261
 2853WAT     H2 8771   3.755   4.635   4.120 -0.5807 -0.6191 -0.7067
 2854WAT      O 8772   0.717   2.667   0.111 -0.3529 -0.1090 -0.4401
 2854WAT     H1 8773   0.630   2.661   0.073  0.0918 -0.2050 -1.4789
 2854WAT     H2 8774   0.702   2.697   0.200 -1.3286  1.9573 -1.2345
 2855WAT      O 8775   3.062   3.466   3.661 -0.4354 -0.0357  0.2055
 2855WAT     H1 8776   2.991   3.477   3.723 -3.0313 -4.1949 -1.6204
 2855WAT     H2 8777   3.020   3.475   3.575  2.0614  1.0105 -0.9977
 2856WAT      O 8778   0.768   3.117   4.035  0.0066 -0.1868  0.2183
 2856WAT     H1 8779   0.753   3.073   3.952  0.5022  0.1748 -0.0648
 2856WAT     H2 8780   0.803   3.048   4.092  0.0655 -0.3358  0.0043
 2857WAT      O 8781   1.313   0.680   3.904  0.0143  0.0129 -0.1091
 2857WAT     H1 8782   1.310   0.689   3.999 -0.2573  1.4321 -0.2345
 2857WAT     H2 8783   1.292   0.767   3.871 -0.7112 -0.6574 -1.4864
 2858WAT      O 8784   2.730   1.519   4.473 -0.2163  0.0424  0.3295
 2858WAT     H1 8785   2.723   1.574   4.551 -1.1573  1.2847 -0.6000
 2858WAT     H2 8786   2.818   1.536   4.439 -0.3326  0.6131  0.3133
 2859WAT      O 8787   3.065   5.023   2.008 -0.4739  0.3546  0.0367
 2859WAT     H1 8788   3.098   4.938   1.981 -0.4744  0.0110  1.0493
 2859WAT     H2 8789   3.018   5.005   2.090 -1.8435  1.0687 -0.5443
 2860WAT      O 8790   2.613   0.197   1.591  0.2431 -0.4308  0.0766
 2860WAT     H1 8791   2.642   0.286   1.608  1.6836 -0.7560 -0.5247
 2860WAT     H2 8792   2.530   0.189   1.638  0.7652  0.7870  1.2529
 2861WAT      O 8793   4.063   0.440   3.542  0.4257  0.2927  0.2991
 2861WAT     H1 8794   3.986   0.496   3.549  0.0363 -0.2965  0.8730
 2861WAT     H2 8795   4.133   0.490   3.584  0.4046  0.8979 -0.3648
 2862WAT      O 8796   3.032   4.288   4.629  0.7184 -0.5951  0.1665
 2862WAT     H1 8797   3.118   4.262   4.661 -0.0354 -0.6262  2.3266
 2862WAT     H2 8798   3.050   4.358   4.566  2.3136 -0.1682  1.0354
 2863WAT      O 8799   2.811   0.193   4.782 -0.1266  0.2203  0.2839
 2863WAT     H1 8800   2.825   0.281   4.817 -3.0774  1.6548 -1.7319
 2863WAT     H2 8801   2.803   0.137   4.860 -0.6488  2.1801  1.7112
 2864WAT      O 8802   1.767   3.734   2.576  0.0126  0.1846  0.0316
 2864WAT     H1 8803   1.681   3.702   2.604  0.3909 -0.1155  0.8980
 2864WAT     H2 8804   1.820   3.734   2.656  0.1212  2.7890  0.0302
 2865WAT      O 8805   0.430   4.139   3.207  0.2139  0.5155 -0.0002
 2865WAT     H1 8806   0.386   4.214   3.245 -1.5957 -0.5376  0.1120
 2865WAT     H2 8807   0.478   4.174   3.132 -0.0639  1.8570  0.4274
 2866WAT      O 8808   3.466   2.808   3.364 -0.1204  0.0921  0.3776
 2866WAT     H1 8809   3.541   2.835   3.312  0.2992 -1.0881  0.3243
 2866WAT     H2 8810   3.464   2.870   3.437  2.0473 -0.8900  1.3912
 2867WAT      O 8811   1.739   1.515   4.479  0.9235 -0.2039 -0.1327
 2867WAT     H1 8812   1.683   1.579   4.523  0.5072 -0.2453 -0.5935
 2867WAT     H2 8813   1.691   1.432   4.486  1.3750 -0.4360  0.3027
 2868WAT      O 8814   3.370   1.604   1.852  0.2325 -0.0562  0.3610
 2868WAT     H1 8815   3.425   1.664   1.802 -1.4883  0.7622 -0.6399
 2868WAT     H2 8816   3.352   1.651   1.933  0.7469 -0.1979  0.5601
 2869WAT      O 8817   3.610   3.593   4.532 -0.1519  0.0424 -0.4292
 2869WAT     H1 8818   3.574   3.608   4.445  0.7762  0.9488 -0.6727
 2869WAT     H2 8819   3.653   3.676   4.555 -1.0331  0.0725  1.2072
 2870WAT      O 8820   2.660   4.490   2.613 -1.1131  0.5264 -0.2504
 2870WAT     H1 8821   2.744   4.536   2.610 -1.9587  2.0559 -1.6056
 2870WAT     H2 8822   2.599   4.554   2.649 -1.9509 -0.1512 -0.4392
 2871WAT      O 8823   4.063   0.976   2.580 -0.1139 -0.6865  0.2902
 2871WAT     H1 8824   4.120   0.909   2.617 -0.4478 -0.6871  0.8111
 2871WAT     H2 8825   4.068   0.962   2.486 -1.1915 -2.2780  0.4330
 2872WAT      O 8826   4.199   0.616   5.205  0.2901  0.0251  0.2093
 2872WAT     H1 8827   4.267   0.616   5.137 -1.1674 -0.3934 -1.3170
 2872WAT     H2 8828   4.195   0.707   5.235  0.4910  0.3762 -0.7855
 2873WAT      O 8829   2.766   2.327   2.314 -0.2132 -0.0170  0.2822
 2873WAT     H1 8830   2.844   2.311   2.260 -0.8510 -0.7808 -0.4295
 2873WAT     H2 8831   2.801   2.357   2.398  0.8916 -1.4327  0.3571
 2874WAT      O 8832   0.001   2.068   4.673  0.6035  0.1954 -0.0022
 2874WAT     H1 8833   0.074   2.078   4.612 -0.5507  0.6390 -1.3773
 2874WAT     H2 8834  -0.057   2.005   4.630 -0.5373  0.9921  0.3275
 2875WAT      O 8835   0.120   2.284   3.707 -0.4468 -0.4084 -0.7882
 2875WAT     H1 8836   0.180   2.238   3.648 -0.6890 -0.6900 -0.8185
 2875WAT     H2 8837   0.033   2.269   3.669 -0.3761  1.7674 -1.9544
 2876WAT      O 8838   2.949   3.473   0.465 -0.2163  0.0172  0.4771
 2876WAT     H1 8839   3.010   3.509   0.529 -0.8983 -1.3146  1.9380
 2876WAT     H2 8840   3.000   3.407   0.417 -0.1203 -0.0909  0.7273
 2877WAT      O 8841   4.005   4.940   0.533 -0.1217  0.2564 -0.4364
 2877WAT     H1 8842   4.010   4.971   0.624  1.2729  0.8405 -0.6787
 2877WAT     H2 8843   4.010   4.845   0.540 -0.7564  0.2606  0.1354
 2878WAT      O 8844   2.256   0.154   0.897  0.1204 -0.2429 -0.3073
 2878WAT     H1 8845   2.302   0.238   0.890  2.2554 -1.1245  1.8988
 2878WAT     H2 8846   2.183   0.171   0.956  1.1913 -0.1151  1.0308
 2879WAT      O 8847   0.111   3.777   2.546 -0.0479  0.0459  0.1522
 2879WAT     H1 8848   0.062   3.811   2.471  1.9131  0.2628 -1.1078
 2879WAT     H2 8849   0.120   3.852   2.605  0.6621  0.5944 -0.6437
 2880WAT      O 8850   0.803   4.260   0.466  0.0557  0.1031  0.1077
 2880WAT     H1 8851   0.739   4.202   0.424 -0.1291 -1.5084  2.4271
 2880WAT     H2 8852   0.888   4.226   0.438 -0.0615  0.6166 -0.9072
 2881WAT      O 8853   1.863   1.661   5.263 -0.3381 -0.2731 -1.1202
 2881WAT     H1 8854   1.958   1.671   5.250 -0.0802 -0.0745  0.6470
 2881WAT     H2 8855   1.855   1.626   5.352 -1.8969 -1.3039 -1.6438
 2882WAT      O 8856   2.434   3.109   2.989 -0.1512 -0.3385  0.3954
 2882WAT     H1 8857   2.483   3.027   2.996 -0.1408 -0.5831 -1.7751
 2882WAT     H2 8858   2.343   3.085   3.003 -0.6706 -1.5433 -3.6027
 2883WAT      O 8859   1.554   3.097   1.395  0.0875 -0.2430 -0.5249
 2883WAT     H1 8860   1.471   3.075   1.436  1.4789 -4.1478  0.6565
 2883WAT     H2 8861   1.540   3.080   1.301 -1.0475  1.4838 -0.6969
 2884WAT      O 8862   3.911   0.222   2.337 -0.1937  0.5474 -0.3563
 2884WAT     H1 8863   3.848   0.150   2.329 -0.4672  0.9281 -2.0676
 2884WAT     H2 8864   3.996   0.182   2.318 -0.1364  0.3714  0.2586
 2885WAT      O 8865   0.662   4.863   3.008 -0.4189  0.1372 -0.5426
 2885WAT     H1 8866   0.733   4.835   2.950 -1.9149 -2.8500 -1.1148
 2885WAT     H2 8867   0.653   4.792   3.071 -1.6894  1.3121  0.6686
 2886WAT      O 8868   1.474   1.579   3.260 -0.0213 -0.0746 -0.0067
 2886WAT     H1 8869   1.519   1.527   3.193  1.4940 -1.0234  1.6596
 2886WAT     H2 8870   1.381   1.559   3.248  0.4108 -2.1070 -0.3009
 2887WAT      O 8871   0.531   2.495   1.707  0.6195 -0.2757  0.1437
 2887WAT     H1 8872   0.551   2.578   1.749  1.7718 -0.4677  0.0184
 2887WAT     H2 8873   0.611   2.443   1.717 -0.7266 -2.1756  2.0849
 2888WAT      O 8874   0.405   3.424   3.141  0.3437  0.9600  0.5635
 2888WAT     H1 8875   0.469   3.485   3.105 -0.7738  1.5589 -0.4461
 2888WAT     H2 8876   0.362   3.385   3.065  0.3266 -0.3504  1.2049
 2889WAT      O 8877   3.328   0.303   5.206 -0.1742  0.4156 -0.5115
 2889WAT     H1 8878   3.348   0.209   5.207  1.5328  0.7499 -0.4761
 2889WAT     H2 8879   3.259   0.313   5.271 -0.4224 -0.8166 -0.5531
 2890WAT      O 8880   2.635   0.198   0.074  0.9258 -0.6487 -0.1147
 2890WAT     H1 8881   2.713   0.144   0.056  0.0965 -1.2317 -2.2132
 2890WAT     H2 8882   2.645   0.223   0.166  3.3971 -1.0131 -0.1980
 2891WAT      O 8883   3.213   0.451   3.087  0.8757  0.1755  0.9139
 2891WAT     H1 8884   3.184   0.495   3.007 -0.6972  0.7098  1.7316
 2891WAT     H2 8885   3.309   0.455   3.083  0.8048  1.6278 -0.1534
 2892WAT      O 8886   2.083   2.914   4.875 -0.4000  0.3724  0.2941
 2892WAT     H1 8887   2.012   2.896   4.937  0.0615  0.2786  0.8010
 2892WAT     H2 8888   2.156   2.860   4.906 -0.1132  0.4514 -0.2350
 2893WAT      O 8889   3.498   1.591   4.650  0.1872 -0.0459 -0.1701
 2893WAT     H1 8890   3.587   1.605   4.616  0.6293  2.1878  1.6574
 2893WAT     H2 8891   3.442   1.642   4.591  0.4896  0.8772  0.3336
 2894WAT      O 8892   1.554   4.993   1.365  0.2051  0.3231 -0.8087
 2894WAT     H1 8893   1.575   4.956   1.280 -0.4073  0.1151 -0.8726
 2894WAT     H2 8894   1.464   5.026   1.356  0.8793  2.2856 -0.9042
 2895WAT      O 8895   3.726   1.286   2.688 -0.4105 -0.3580  0.0154
 2895WAT     H1 8896   3.799   1.328   2.735 -0.4089  0.5067 -0.7175
 2895WAT     H2 8897   3.748   1.193   2.687  0.2525 -0.2166  0.5443
 2896WAT      O 8898   0.055   3.404   5.250  0.3599  0.2659  0.3366
 2896WAT     H1 8899   0.134   3.357   5.276  0.3262  0.1717  0.2680
 2896WAT     H2 8900   0.073   3.435   5.161  0.0168 -0.4313  0.0165
 2897WAT      O 8901   4.153   3.396   3.229 -0.3106  0.0437 -0.5178
 2897WAT     H1 8902   4.149   3.327   3.164 -2.9231  0.2214 -0.6139
 2897WAT     H2 8903   4.238   3.383   3.272  1.2111 -0.4724 -3.4424
 2898WAT      O 8904   2.487   4.536   0.077  0.2905 -0.0816 -0.6124
 2898WAT     H1 8905   2.452   4.562  -0.008 -0.4566  0.9813 -0.0049
 2898WAT     H2 8906   2.426   4.573   0.141  1.2535 -0.1911  0.4131
 2899WAT      O 8907   4.177   1.756   5.171  0.5545  0.5946 -0.2360
 2899WAT     H1 8908   4.230   1.702   5.229 -1.1959  0.0998  0.9962
 2899WAT     H2 8909   4.200   1.726   5.083  1.2994 -0.5576  0.3207
 2900WAT      O 8910   0.980   4.696   3.702  0.8057  0.2149 -0.2648
 2900WAT     H1 8911   0.987   4.787   3.673  0.7248 -0.6526 -3.4254
 2900WAT     H2 8912   0.887   4.675   3.693  0.6579  0.0309  1.3620
 2901WAT      O 8913   1.465   1.275   0.530  0.0563 -0.0145 -0.4230
 2901WAT     H1 8914   1.411   1.253   0.454 -0.1972  0.8591 -0.5089
 2901WAT     H2 8915   1.444   1.208   0.595  0.5229 -0.9659 -1.2328
 2902WAT      O 8916   2.190   4.927   3.730  0.1782 -0.5399  0.1845
 2902WAT     H1 8917   2.227   4.918   3.818 -0.5375 -1.2288  0.4363
 2902WAT     H2 8918   2.180   5.021   3.717 -2.6815 -0.4135  2.1799
 2903WAT      O 8919   2.798   4.745   0.906 -0.3703 -0.0791  0.1672
 2903WAT     H1 8920   2.811   4.754   0.811  0.3022 -0.8480  0.1737
 2903WAT     H2 8921   2.791   4.834   0.938  0.9759  0.2581 -0.4125
 2904WAT      O 8922   3.094   3.291   0.352  0.1379  0.0883  0.1261
 2904WAT     H1 8923   3.078   3.228   0.282  1.9055  1.2380 -1.4045
 2904WAT     H2 8924   3.091   3.239   0.433 -0.6951 -1.4982 -0.8909
 2905WAT      O 8925   2.274   3.374   3.695 -0.3478  0.3243  0.1139
 2905WAT     H1 8926   2.275   3.334   3.608 -2.1862  1.2212 -0.3579
 2905WAT     H2 8927   2.320   3.311   3.750 -1.8717 -1.7971 -0.8877
 2906WAT      O 8928   3.160   1.180   2.654  0.1971  0.3039  0.4895
 2906WAT     H1 8929   3.208   1.208   2.733  0.1060  2.3386 -0.1072
 2906WAT     H2 8930   3.226   1.137   2.601  0.5770  0.1066  1.1070
 2907WAT      O 8931   1.232   4.019   2.472  0.3319 -0.2150 -0.4290
 2907WAT     H1 8932   1.327   4.031   2.465  0.3794  0.7290  1.2503
 2907WAT     H2 8933   1.222   3.938   2.522  0.2345 -0.5338 -0.9584
 2908WAT      O 8934   3.966   3.522   4.468  0.5640 -0.2785  0.0376
 2908WAT     H1 8935   3.988   3.602   4.420  1.2004  0.3345  1.2977
 2908WAT     H2 8936   3.960   3.550   4.559  1.2333 -1.7544  0.5606
 2909WAT      O 8937   4.364   2.016   2.008  0.0185  0.3991  0.2425
 2909WAT     H1 8938   4.345   2.108   2.030 -0.6670 -0.2630  2.6763
 2909WAT     H2 8939   4.457   2.006   2.024  0.4991  1.0958 -1.8552
 2910WAT      O 8940   2.504   5.064   3.355 -0.0183  0.2364 -0.1625
 2910WAT     H1 8941   2.474   5.142   3.400  0.0427  0.3663 -0.3477
 2910WAT     H2 8942   2.591   5.047   3.392  0.3893  0.8229 -0.8176
 2911WAT      O 8943   0.546   3.756   2.421 -0.0038 -0.1904  0.4878
 2911WAT     H1 8944   0.456   3.729   2.439 -1.1714  1.4836 -2.2320
 2911WAT     H2 8945   0.592   3.744   2.505 -3.2681  0.9597  2.6380
 2912WAT      O 8946   1.740   0.448   0.267 -0.2838  0.3302  0.0451
 2912WAT     H1 8947   1.657   0.402   0.281  1.0280 -2.1640  0.1841
 2912WAT     H2 8948   1.750   0.451   0.172  0.0771 -0.6220  0.0405
 2913WAT      O 8949   1.621   1.466   3.059  0.2954  0.3690 -0.2327
 2913WAT     H1 8950   1.675   1.389   3.042 -0.1218  0.6423 -3.2213
 2913WAT     H2 8951   1.683   1.539   3.060  0.5409  0.1750  1.4288
 2914WAT      O 8952   4.419   0.301   4.295 -0.2803 -0.0288  0.4166
 2914WAT     H1 8953   4.389   0.241   4.363 -3.5181  0.0524 -0.7559
 2914WAT     H2 8954   4.441   0.244   4.221  2.0579 -0.0371  1.0539
 2915WAT      O 8955   4.114   5.004   0.117 -0.5569 -0.1971 -0.2474
 2915WAT     H1 8956   4.057   5.037   0.187 -0.7369  0.9850 -0.9143
 2915WAT     H2 8957   4.177   4.948   0.162 -1.3055 -0.2958  0.7176
 2916WAT      O 8958   0.071   2.534   2.506  0.1020  0.1597  0.0668
 2916WAT     H1 8959   0.127   2.574   2.572  1.1587  0.5489 -1.0368
 2916WAT     H2 8960   0.102   2.570   2.422 -0.4065 -1.2231 -0.7517
 2917WAT      O 8961   1.934   3.001   4.026 -0.7483  0.0023 -0.1586
 2917WAT     H1 8962   1.850   3.001   4.071  0.4237 -0.6789  2.1507
 2917WAT     H2 8963   1.996   3.037   4.089  1.0685 -1.3807 -1.0453
 2918WAT      O 8964   0.486   0.664   4.486  0.1019  0.5222  0.1000
 2918WAT     H1 8965   0.571   0.621   4.496  0.9987  2.0046 -0.8015
 2918WAT     H2 8966   0.461   0.645   4.395 -0.8684 -0.4480  0.5477
 2919WAT      O 8967   4.197   5.010   1.342  0.6314 -0.1293 -0.1691
 2919WAT     H1 8968   4.115   5.047   1.308  1.5115  2.3307  0.2078
 2919WAT     H2 8969   4.177   4.989   1.433 -0.3557 -2.2907 -0.8168
 2920WAT      O 8970   3.462   2.449   0.053 -0.5034  0.5445  0.6836
 2920WAT     H1 8971   3.472   2.541   0.077 -2.6659  1.0245 -0.0311
 2920WAT     H2 8972   3.464   2.448  -0.043  0.4394 -0.3043  0.6943
 2921WAT      O 8973   1.231   2.616   4.538 -0.1950  0.4587 -0.2400
 2921WAT     H1 8974   1.144   2.581   4.519  1.1508 -2.1188 -2.3693
 2921WAT     H2 8975   1.248   2.587   4.628 -1.1979  0.2926 -0.0840
 2922WAT      O 8976   3.743   0.265   2.740 -0.2235  0.2551  0.5809
 2922WAT     H1 8977   3.682   0.245   2.812 -0.7678  4.0397  1.3936
 2922WAT     H2 8978   3.705   0.220   2.664 -2.0022 -0.4513  1.7974
 2923WAT      O 8979   0.644   2.172   4.295  0.2617  0.3698 -0.2883
 2923WAT     H1 8980   0.577   2.122   4.340 -0.2872 -0.2029 -1.6744
 2923WAT     H2 8981   0.725   2.121   4.306 -0.2913 -0.9095 -1.7006
 2924WAT      O 8982   4.332   1.159   0.607  0.0616  0.2579  0.0810
 2924WAT     H1 8983   4.272   1.103   0.557  0.2343 -0.1250  0.2987
 2924WAT     H2 8984   4.276   1.210   0.664 -0.2463  1.5361 -1.2949
 2925WAT      O 8985   1.683   3.302   3.110 -0.3608 -0.1569 -0.6634
 2925WAT     H1 8986   1.590   3.308   3.087 -0.4050  0.8112 -0.2841
 2925WAT     H2 8987   1.729   3.325   3.029 -0.4177 -1.4610 -1.0916
 2926WAT      O 8988   1.954   1.600   1.650  0.0375  0.0842 -0.1831
 2926WAT     H1 8989   2.022   1.554   1.600 -0.1754  0.9654 -1.3176
 2926WAT     H2 8990   2.003   1.651   1.715  0.4152  0.0557 -0.4414
 2927WAT      O 8991   0.874   2.898   0.697 -0.3248 -0.7077  0.2500
 2927WAT     H1 8992   0.887   2.922   0.788 -1.2019 -1.5594  0.6202
 2927WAT     H2 8993   0.806   2.958   0.665  0.5464  0.1184 -0.0893
 2928WAT      O 8994   3.563   3.154   2.645  0.0332 -0.2858  0.4972
 2928WAT     H1 8995   3.517   3.133   2.727 -0.3812 -2.8569 -0.3059
 2928WAT     H2 8996   3.651   3.119   2.658 -0.4368 -1.9827 -0.6027
 2929WAT      O 8997   0.152   1.210   0.737 -0.1094 -0.1913 -0.2245
 2929WAT     H1 8998   0.075   1.153   0.734  0.9260 -1.6625 -3.4022
 2929WAT     H2 8999   0.226   1.150   0.741  0.9609  1.1428  1.0546
 2930WAT      O 9000   2.441   0.900   2.241  0.1057  0.1109 -0.0411
 2930WAT     H1 9001   2.501   0.882   2.314  0.9773 -0.0239 -0.7828
 2930WAT     H2 9002   2.468   0.841   2.172 -1.4216 -0.5402 -0.1255
 2931WAT      O 9003   3.517   4.860   0.200  0.2502  0.3070  0.3032
 2931WAT     H1 9004   3.610   4.845   0.213  0.4232  0.5700 -0.5998
 2931WAT     H2 9005   3.475   4.806   0.267  1.0446  0.2015  0.7324
 2932WAT      O 9006   3.453   2.266   4.440 -0.3980  0.0554  0.4767
 2932WAT     H1 9007   3.475   2.232   4.526  2.4883 -1.4794 -0.7377
 2932WAT     H2 9008   3.517   2.335   4.424 -1.6482  1.1475 -0.0117
 2933WAT      O 9009   2.313   4.118   4.269 -0.4487  0.1568  0.2226
 2933WAT     H1 9010   2.398   4.100   4.311 -0.5846 -0.6580  0.1626
 2933WAT     H2 9011   2.253   4.131   4.341 -0.3590  0.3156  0.2687
 2934WAT      O 9012   3.379   3.860   4.733  0.0725 -0.2459 -0.3563
 2934WAT     H1 9013   3.439   3.794   4.699  1.5188  1.5006 -1.4296
 2934WAT     H2 9014   3.330   3.890   4.656  0.1060  0.5563 -0.0781
 2935WAT      O 9015   4.191   4.780   4.664 -0.5801  0.7206 -0.7285
 2935WAT     H1 9016   4.209   4.711   4.600  0.0533  1.1847 -1.0588
 2935WAT     H2 9017   4.258   4.768   4.732 -1.5162 -0.0475  0.0949
 2936WAT      O 9018   2.428   0.865   3.998  0.4151 -0.3924 -0.1845
 2936WAT     H1 9019   2.435   0.925   3.924  0.5829 -1.2541 -0.8754
 2936WAT     H2 9020   2.511   0.872   4.044 -0.7796  2.5594  1.8529
 2937WAT      O 9021   0.363   5.091   2.577 -0.0027  0.4699 -0.0040
 2937WAT     H1 9022   0.451   5.126   2.567  0.2874 -0.2684 -0.1259
 2937WAT     H2 9023   0.322   5.147   2.643  1.0019  0.0401  1.0344
 2938WAT      O 9024   0.835   1.596   2.798  0.3108 -0.1393  0.2649
 2938WAT     H1 9025   0.822   1.528   2.732  0.0860 -0.2607  0.4328
 2938WAT     H2 9026   0.927   1.622   2.788  0.1786  0.1021 -0.3370
 2939WAT      O 9027   2.498   3.208   2.717 -0.6608 -0.2282 -0.0147
 2939WAT     H1 9028   2.504   3.299   2.745  1.7931 -0.3151 -0.0197
 2939WAT     H2 9029   2.505   3.157   2.797  1.1703 -0.4104 -0.2515
 2940WAT      O 9030   3.130   1.108   3.347 -0.0317  0.3570 -0.1410
 2940WAT     H1 9031   3.095   1.019   3.353 -0.1708  0.3535 -0.8514
 2940WAT     H2 9032   3.053   1.163   3.332 -0.1189  0.7921  1.6921
 2941WAT      O 9033   2.885   1.146   4.564 -0.0573 -0.7622  0.5996
 2941WAT     H1 9034   2.794   1.154   4.593 -1.4104 -0.1077 -3.1979
 2941WAT     H2 9035   2.885   1.072   4.504  0.7474  1.6748 -2.7417
 2942WAT      O 9036   1.606   0.420   0.967  0.4381  0.0229 -0.1984
 2942WAT     H1 9037   1.637   0.345   1.017  0.1808 -0.2014 -0.3715
 2942WAT     H2 9038   1.516   0.433   0.995 -0.1157 -0.8627 -1.4583
 2943WAT      O 9039   3.227   3.983   3.620 -0.0031  0.2538 -0.6295
 2943WAT     H1 9040   3.309   3.962   3.576  0.9159  2.0279  0.1224
 2943WAT     H2 9041   3.208   3.906   3.673  1.5590  0.0846 -0.2731
 2944WAT      O 9042   0.502   1.570   0.266 -0.5125  0.1656  0.5127
 2944WAT     H1 9043   0.499   1.524   0.182  0.5239 -0.4927  0.8129
 2944WAT     H2 9044   0.411   1.590   0.286 -1.0086 -1.7222  0.3350
 2945WAT      O 9045   0.351   4.460   1.360  0.1315  0.2152 -0.1643
 2945WAT     H1 9046   0.275   4.482   1.413  0.3040  2.7089 -0.8390
 2945WAT     H2 9047   0.318   4.462   1.270  0.5946 -0.5796 -0.3597
 2946WAT      O 9048   0.938   4.525   1.133  0.4026  0.0160  0.4577
 2946WAT     H1 9049   0.863   4.513   1.075  1.2118 -0.6393 -0.4947
 2946WAT     H2 9050   0.932   4.453   1.195 -0.3608  0.6071  1.0882
 2947WAT      O 9051   3.902   3.913   1.264  0.4015  0.2376 -0.0499
 2947WAT     H1 9052   3.943   3.946   1.344  1.4366 -1.7194  0.2844
 2947WAT     H2 9053   3.976   3.885   1.209 -0.3353  0.6727 -1.2896
 2948WAT      O 9054   1.811   2.129   4.919  0.1098 -0.0827  0.2621
 2948WAT     H1 9055   1.817   2.211   4.869  0.6018 -0.5169 -0.4083
 2948WAT     H2 9056   1.772   2.155   5.003  0.1962  0.8231  0.0336
 2949WAT      O 9057   1.456   1.883   1.608 -0.2204  0.2208  0.7698
 2949WAT     H1 9058   1.424   1.974   1.608 -0.9552  0.0098  2.5633
 2949WAT     H2 9059   1.382   1.832   1.577 -1.1486 -0.0769  3.1982
 2950WAT      O 9060   1.179   1.758   0.557 -0.2539  0.6031 -0.3457
 2950WAT     H1 9061   1.139   1.736   0.641 -0.1032  0.5462 -0.2890
 2950WAT     H2 9062   1.111   1.738   0.492  0.3959 -1.5238 -0.4331
 2951WAT      O 9063   0.875   2.423   3.644  0.4119  0.6317  0.3040
 2951WAT     H1 9064   0.858   2.374   3.564  0.3121 -0.9040  1.2252
 2951WAT     H2 9065   0.790   2.461   3.667 -0.3722 -1.5183  1.3047
 2952WAT      O 9066   3.241   0.443   0.756 -0.2518 -0.7252 -0.6984
 2952WAT     H1 9067   3.276   0.365   0.713 -0.1186 -2.0984  1.6930
 2952WAT     H2 9068   3.319   0.488   0.790 -0.2725  0.8880 -2.6327
 2953WAT      O 9069   1.532   3.912   3.292  0.2720  0.6933  0.2368
 2953WAT     H1 9070   1.498   3.824   3.276  0.9009  0.6364 -0.9290
 2953WAT     H2 9071   1.621   3.897   3.325  0.0558  0.8798  0.9082
 2954WAT      O 9072   1.903   1.273   0.488 -0.0478 -0.1582 -0.4834
 2954WAT     H1 9073   1.992   1.295   0.516  0.1076 -1.4059  0.0498
 2954WAT     H2 9074   1.908   1.268   0.393  0.1185  1.1214 -0.5654
 2955WAT      O 9075   2.080   1.030   2.629 -0.0776  0.1013 -0.2378
 2955WAT     H1 9076   2.142   1.101   2.648 -1.0797  1.4430 -1.7418
 2955WAT     H2 9077   2.053   0.999   2.716  1.8543  0.1942  0.4508
 2956WAT      O 9078   0.192   2.258   5.198  0.4009 -0.8809 -0.0454
 2956WAT     H1 9079   0.221   2.175   5.160 -1.2999 -1.3087 -0.5115
 2956WAT     H2 9080   0.248   2.271   5.274  2.1611 -1.3342 -1.2033
 2957WAT      O 9081   1.253   4.147   0.558  0.4336 -0.1562 -0.2839
 2957WAT     H1 9082   1.262   4.086   0.632  1.8122 -0.4971 -0.6894
 2957WAT     H2 9083   1.299   4.226   0.587  0.1552  0.0525 -0.4158
 2958WAT      O 9084   0.293   3.281   2.167 -0.0357 -0.0783 -0.1628
 2958WAT     H1 9085   0.201   3.270   2.193 -0.6434  0.8165 -1.8290
 2958WAT     H2 9086   0.333   3.196   2.186 -1.4452 -0.8114 -0.3249
 2959WAT      O 9087   2.997   3.121   4.838  0.4364 -0.1823  0.2845
 2959WAT     H1 9088   3.036   3.206   4.818 -0.5811  0.2965  0.2805
 2959WAT     H2 9089   2.997   3.075   4.754 -0.4285  0.4167 -0.0590
 2960WAT      O 9090   4.019   2.975   2.200  0.0343 -0.2105  0.0240
 2960WAT     H1 9091   3.940   2.999   2.151  1.4305  0.9411 -1.7897
 2960WAT     H2 9092   3.997   2.994   2.291 -1.5004  0.8795 -0.5328
 2961WAT      O 9093   1.775   2.218   2.380  0.0406 -0.7544 -0.1324
 2961WAT     H1 9094   1.748   2.126   2.379  1.6895 -1.2866  0.2574
 2961WAT     H2 9095   1.816   2.230   2.466 -0.2255  0.3722 -0.1468
 2962WAT      O 9096   0.523   2.651   2.738 -0.7335 -0.7569 -0.2108
 2962WAT     H1 9097   0.534   2.642   2.833 -2.2366 -0.9546 -0.0261
 2962WAT     H2 9098   0.591   2.595   2.700  0.3869 -0.0664  0.7244
 2963WAT      O 9099   2.282   3.705   2.090  0.1482 -0.0098 -0.1140
 2963WAT     H1 9100   2.357   3.653   2.118 -0.5981 -1.4538 -0.7058
 2963WAT     H2 9101   2.282   3.698   1.995 -0.7773 -0.0763 -0.1165
 2964WAT      O 9102   2.861   4.294   4.830 -0.0388  0.3043 -0.3883
 2964WAT     H1 9103   2.902   4.290   4.744  1.1093 -1.9660  0.1708
 2964WAT     H2 9104   2.913   4.359   4.878  0.9356 -0.2415 -0.6654
 2965WAT      O 9105   2.378   1.485   3.714  0.0025  0.3936 -0.1756
 2965WAT     H1 9106   2.302   1.428   3.726  0.0810  0.5362  1.1166
 2965WAT     H2 9107   2.347   1.555   3.657 -0.7606  0.2825  0.0941
 2966WAT      O 9108   0.882   1.792   5.045 -0.4566 -0.3213  0.1377
 2966WAT     H1 9109   0.973   1.793   5.016 -0.1684  1.7497  0.9693
 2966WAT     H2 9110   0.886   1.757   5.134 -0.5533 -0.7548 -0.0266
 2967WAT      O 9111   0.340   1.749   0.997 -0.6992  0.5272 -0.0285
 2967WAT     H1 9112   0.396   1.738   0.921  0.3830  0.5495  0.7393
 2967WAT     H2 9113   0.400   1.772   1.068 -1.6328  0.1927  0.9050
 2968WAT      O 9114   1.906   0.795   4.236 -0.2581 -0.1463 -0.3126
 2968WAT     H1 9115   1.914   0.755   4.150  0.0415  1.1185 -0.8916
 2968WAT     H2 9116   1.985   0.847   4.246  0.6464 -1.7499  1.5579
 2969WAT      O 9117   3.073   4.474   3.474  0.6429  0.0183 -0.2805
 2969WAT     H1 9118   2.999   4.467   3.535  0.3799 -1.6091 -0.7554
 2969WAT     H2 9119   3.057   4.557   3.428 -1.7220 -0.9438 -1.3830
 2970WAT      O 9120   4.405   4.628   3.827  0.5298  0.1112 -0.0098
 2970WAT     H1 9121   4.418   4.615   3.733  0.5142  0.6907 -0.0979
 2970WAT     H2 9122   4.428   4.720   3.842  0.5052  0.0322  0.5486
 2971WAT      O 9123   2.291   2.050   0.641 -0.4649 -0.0295  0.4288
 2971WAT     H1 9124   2.367   2.094   0.602 -0.2254 -0.2834  0.6048
 2971WAT     H2 9125   2.322   1.962   0.661  0.2248  0.7993  3.5205
 2972WAT      O 9126   1.946   4.505   2.294 -0.1300  0.6188 -0.6803
 2972WAT     H1 9127   1.967   4.417   2.263 -0.4288  0.3443 -0.1212
 2972WAT     H2 9128   2.013   4.561   2.254  0.2433  0.0993 -0.7983
 2973WAT      O 9129   0.896   2.186   1.043  0.0342 -0.0315  0.1262
 2973WAT     H1 9130   0.903   2.101   1.001  1.0075 -0.7697  1.6879
 2973WAT     H2 9131   0.886   2.248   0.970  2.0259 -1.1967 -1.2286
 2974WAT      O 9132   4.177   3.586   2.760 -0.0684 -0.4130 -0.1179
 2974WAT     H1 9133   4.128   3.644   2.701  1.2226  0.4556 -0.3900
 2974WAT     H2 9134   4.157   3.619   2.848 -0.0290 -0.0988 -0.2224
 2975WAT      O 9135   2.409   3.231   1.781  0.3577  0.0330  0.3991
 2975WAT     H1 9136   2.380   3.306   1.729  0.1455  0.7130  1.4401
 2975WAT     H2 9137   2.481   3.266   1.834 -0.1450 -0.3256  1.3382
 2976WAT      O 9138   2.266   1.203   2.716  0.3196  0.2644 -0.0090
 2976WAT     H1 9139   2.309   1.119   2.732 -0.7042  0.1096  2.2591
 2976WAT     H2 9140   2.330   1.253   2.665  0.7407 -2.0214 -1.8927
 2977WAT      O 9141   0.025   2.667   5.139  0.5882  0.0331 -0.0657
 2977WAT     H1 9142  -0.059   2.658   5.095  0.7895 -0.3828 -0.3767
 2977WAT     H2 9143   0.067   2.581   5.127  0.4297 -0.2739  1.3758
 2978WAT      O 9144   2.465   0.586   1.475  0.0934  0.2039  0.5218
 2978WAT     H1 9145   2.536   0.599   1.412  0.6015 -1.9365  0.5614
 2978WAT     H2 9146   2.507   0.547   1.551 -1.2022 -2.2972  0.0778
 2979WAT      O 9147   1.463   2.672   2.476 -0.0624 -0.6789  0.3766
 2979WAT     H1 9148   1.467   2.590   2.526 -0.7970 -1.8121 -1.3499
 2979WAT     H2 9149   1.514   2.654   2.397 -2.1785 -0.3177 -1.1524
 2980WAT      O 9150   1.843   3.695   4.732 -0.4034  0.0605  0.0964
 2980WAT     H1 9151   1.935   3.710   4.754 -0.2533  0.5465 -0.7850
 2980WAT     H2 9152   1.837   3.602   4.709 -0.6506 -0.5562  2.4747
 2981WAT      O 9153   1.269   5.090   2.440 -0.6792 -0.2119 -0.0446
 2981WAT     H1 9154   1.221   5.021   2.486 -0.0996 -0.0966  0.7486
 2981WAT     H2 9155   1.212   5.115   2.368 -0.7516 -1.7965 -0.5926
 2982WAT      O 9156   3.895   0.965   0.633 -0.0249 -0.2259  0.1539
 2982WAT     H1 9157   3.845   0.908   0.575  0.1327 -0.4952  0.2822
 2982WAT     H2 9158   3.893   0.922   0.718 -0.2874  0.1870  0.3612
 2983WAT      O 9159   4.073   5.068   0.797  0.1771  0.7257  0.2082
 2983WAT     H1 9160   4.129   5.105   0.865 -2.0675  1.2680  1.8934
 2983WAT     H2 9161   4.045   5.143   0.745 -0.3518  0.7166  0.4706
 2984WAT      O 9162   0.860   3.802   1.261 -0.6124 -0.2132  0.1953
 2984WAT     H1 9163   0.814   3.886   1.255 -1.2290 -0.4820  1.0178
 2984WAT     H2 9164   0.919   3.812   1.335 -0.9549 -0.6231  0.5316
 2985WAT      O 9165   3.911   2.648   4.372 -0.2547 -0.9993  0.2267
 2985WAT     H1 9166   3.876   2.724   4.420 -1.6862 -0.2710 -1.8400
 2985WAT     H2 9167   4.003   2.645   4.397 -0.0791  1.5695  0.2406
 2986WAT      O 9168   2.151   4.471   3.153  0.1525 -0.2929 -0.2255
 2986WAT     H1 9169   2.141   4.541   3.088  0.8048 -0.5478 -0.6099
 2986WAT     H2 9170   2.178   4.516   3.233  3.1897 -0.2886 -1.1301
 2987WAT      O 9171   3.084   5.025   0.607 -0.1482 -0.2280 -0.1022
 2987WAT     H1 9172   3.143   5.002   0.679 -0.2805 -0.4077 -0.0508
 2987WAT     H2 9173   3.007   5.063   0.649  0.0472  0.2683 -0.1850
 2988WAT      O 9174   3.059   1.079   0.092  0.3731  0.2827  0.0901
 2988WAT     H1 9175   3.030   1.163   0.055 -0.6273 -0.2098 -0.2784
 2988WAT     H2 9176   3.062   1.020   0.017 -1.4310 -0.6627  0.7133
 2989WAT      O 9177   3.538   2.622   2.670  0.3361 -0.2331 -0.1830
 2989WAT     H1 9178   3.580   2.708   2.682  0.3695  0.0644 -2.1169
 2989WAT     H2 9179   3.470   2.637   2.604 -1.7278 -1.0840  1.6413
 2990WAT      O 9180   2.761   0.863   4.612  0.1391  0.5627 -0.0111
 2990WAT     H1 9181   2.827   0.794   4.623  0.8185  1.0435 -0.9446
 2990WAT     H2 9182   2.683   0.817   4.582  0.5275  0.1672 -0.4359
 2991WAT      O 9183   3.904   0.959   5.110 -0.0932  0.3970 -0.3439
 2991WAT     H1 9184   3.983   0.934   5.158 -0.5687 -0.8721 -0.1703
 2991WAT     H2 9185   3.936   1.004   5.032  0.7206  1.5833  0.6417
 2992WAT      O 9186   1.466   3.363   2.802 -0.1946 -0.1568 -0.5467
 2992WAT     H1 9187   1.503   3.274   2.805 -2.2694 -1.0413  2.0183
 2992WAT     H2 9188   1.534   3.418   2.840 -0.4280 -1.3856  1.8727
 2993WAT      O 9189   4.493   1.504   5.216  0.0242 -1.0073 -0.6872
 2993WAT     H1 9190   4.409   1.467   5.244  0.6494 -2.2830 -0.4291
 2993WAT     H2 9191   4.557   1.436   5.235  1.2563  0.2564 -0.1141
 2994WAT      O 9192   0.330   2.850   0.233  0.4958  0.2182  0.0988
 2994WAT     H1 9193   0.255   2.817   0.183 -0.2163  2.1063 -0.1728
 2994WAT     H2 9194   0.391   2.882   0.167  1.8834 -1.8444  0.2883
 2995WAT      O 9195   0.828   0.862   1.141  0.1576 -0.4765 -0.2060
 2995WAT     H1 9196   0.843   0.920   1.216  0.1499 -2.4351  1.4181
 2995WAT     H2 9197   0.741   0.825   1.157 -0.5471  0.2535 -2.0920
 2996WAT      O 9198   3.336   0.968   5.173  0.2432  0.1018 -0.1731
 2996WAT     H1 9199   3.279   1.031   5.129  0.6891 -0.0554 -0.9992
 2996WAT     H2 9200   3.288   0.885   5.169  0.7617 -0.1755 -1.4398
 2997WAT      O 9201   0.862   2.063   4.772  1.1753 -0.0627 -0.4944
 2997WAT     H1 9202   0.922   1.988   4.771 -0.9301 -1.9265  1.1555
 2997WAT     H2 9203   0.811   2.054   4.692  1.4060  0.0602 -0.6581
 2998WAT      O 9204   2.890   0.327   0.428  0.2890 -0.1688 -0.0835
 2998WAT     H1 9205   2.949   0.273   0.375  0.4456 -0.9847  0.8975
 2998WAT     H2 9206   2.850   0.266   0.489 -1.1196  0.4796 -0.3116
 2999WAT      O 9207   0.613   4.141   0.125  0.0835  0.3452  0.4948
 2999WAT     H1 9208   0.666   4.215   0.153  0.4914 -0.7985  2.9944
 2999WAT     H2 9209   0.648   4.118   0.039  1.9821  1.1954  0.9830
 3000WAT      O 9210   2.118   0.963   4.968  0.0019  0.0771  0.0815
 3000WAT     H1 9211   2.061   0.893   4.937 -0.3264  0.5479 -0.3932
 3000WAT     H2 9212   2.073   0.999   5.045  1.0531 -1.4130  1.4645
 3001WAT      O 9213   1.110   1.802   4.131  0.2723 -0.2389  0.4846
 3001WAT     H1 9214   1.066   1.781   4.213 -1.7275  0.7940 -0.2623
 3001WAT     H2 9215   1.157   1.883   4.149  1.0879 -0.8149  1.0076
 3002WAT      O 9216   0.588   2.912   3.000  0.0991  0.3649  0.8309
 3002WAT     H1 9217   0.510   2.915   2.945  1.1643 -0.6916 -0.8363
 3002WAT     H2 9218   0.627   2.999   2.992  0.0612  0.3258  0.1827
 3003WAT      O 9219   0.670   0.627   4.814  0.0829  0.8933 -0.0191
 3003WAT     H1 9220   0.726   0.557   4.845 -0.4016  0.8697  0.8304
 3003WAT     H2 9221   0.583   0.587   4.808 -0.1391  1.3331  0.1892
 3004WAT      O 9222   0.059   1.073   3.082 -0.1481 -0.0031 -0.0002
 3004WAT     H1 9223   0.136   1.125   3.062 -0.9398  0.6806 -1.4919
 3004WAT     H2 9224   0.067   1.052   3.175  1.8286 -0.0010 -0.1278
 3005WAT      O 9225   3.865   0.944   3.778 -0.3122 -0.2792  0.3951
 3005WAT     H1 9226   3.881   0.871   3.838 -0.2187  0.8219  1.7777
 3005WAT     H2 9227   3.803   1.000   3.825 -1.1503  0.0531 -1.0514
 3006WAT      O 9228   0.088   2.795   4.703 -0.1296  0.3722 -0.1346
 3006WAT     H1 9229   0.114   2.762   4.617  0.4165 -0.9939  0.5204
 3006WAT     H2 9230   0.028   2.729   4.737 -0.9255  1.2654  0.2469
 3007WAT      O 9231   2.614   0.321   0.316  0.2493 -0.4426 -0.2121
 3007WAT     H1 9232   2.591   0.330   0.408 -0.8268  1.2915 -0.6171
 3007WAT     H2 9233   2.700   0.362   0.308  2.2178 -3.9228  0.6430
 3008WAT      O 9234   3.010   2.761   3.872 -0.5369 -0.3615  0.0381
 3008WAT     H1 9235   3.101   2.765   3.844  0.3187 -1.1656  2.4987
 3008WAT     H2 9236   2.963   2.815   3.808  1.7837  0.8859 -0.7180
 3009WAT      O 9237   2.786   4.773   2.444 -0.2856  0.0352 -0.2648
 3009WAT     H1 9238   2.819   4.725   2.520  0.7131  0.7903 -0.2005
 3009WAT     H2 9239   2.707   4.816   2.475  0.7343  1.2810  0.7076
 3010WAT      O 9240   1.284   5.050   3.858 -0.2511 -0.0976  0.6299
 3010WAT     H1 9241   1.361   5.051   3.915 -0.0431 -1.0551  0.3834
 3010WAT     H2 9242   1.250   4.960   3.865 -0.3660 -0.1652 -0.5446
 3011WAT      O 9243   3.434   3.981   2.369 -0.3021 -0.2299 -0.0942
 3011WAT     H1 9244   3.385   4.025   2.439 -0.1384  0.3812 -0.3558
 3011WAT     H2 9245   3.514   3.950   2.411 -0.2130  0.1201  0.0006
 3012WAT      O 9246   3.986   4.625   3.303 -0.0850  0.1991  0.5654
 3012WAT     H1 9247   4.020   4.680   3.374  0.2150  1.6049 -0.6344
 3012WAT     H2 9248   3.959   4.544   3.347 -1.6825  1.7298  2.6046
 3013WAT      O 9249   0.047   4.993   4.219 -0.0433 -0.1448 -0.5447
 3013WAT     H1 9250   0.035   4.903   4.188 -1.5976 -0.1151 -0.0994
 3013WAT     H2 9251   0.064   4.984   4.313 -0.8120  0.0415 -0.3796
 3014WAT      O 9252   4.492   2.273   4.869  0.1879 -0.2505  0.0908
 3014WAT     H1 9253   4.475   2.210   4.799 -0.7379  0.5459 -0.4193
 3014WAT     H2 9254   4.559   2.231   4.922 -1.5156 -2.3895  0.6969
 3015WAT      O 9255   0.777   0.751   5.218 -0.4529 -0.1313 -0.4197
 3015WAT     H1 9256   0.718   0.786   5.285 -0.3180  0.8103 -0.7763
 3015WAT     H2 9257   0.749   0.794   5.137 -0.0607 -0.5996 -0.8056
 3016WAT      O 9258   3.661   1.252   0.228  0.5715  0.2316  0.2724
 3016WAT     H1 9259   3.748   1.212   0.227 -0.4883 -2.3999  1.6519
 3016WAT     H2 9260   3.615   1.210   0.155 -0.5321 -1.1319  1.6752
 3017WAT      O 9261   1.210   2.956   5.032 -0.2191  0.0496 -0.4853
 3017WAT     H1 9262   1.130   2.902   5.029 -1.0986  1.0182  2.3635
 3017WAT     H2 9263   1.199   3.018   4.960 -2.7605  1.0325  0.6348
 3018WAT      O 9264   3.291   4.963   0.816 -0.2564 -0.2872  0.0284
 3018WAT     H1 9265   3.382   4.986   0.795  0.1311  0.2486  2.0759
 3018WAT     H2 9266   3.298   4.892   0.880 -1.0752  1.9391  2.7990
 3019WAT      O 9267   0.536   0.097   3.921  0.3295  0.1528  0.4280
 3019WAT     H1 9268   0.621   0.110   3.878 -0.1392  2.9596  0.1793
 3019WAT     H2 9269   0.558   0.072   4.011  1.4048  0.2745  0.2132
 3020WAT      O 9270   1.966   4.172   0.906  0.4976 -0.0549  0.3717
 3020WAT     H1 9271   1.916   4.104   0.950 -1.1199  1.3239  0.7912
 3020WAT     H2 9272   1.991   4.135   0.822 -0.6540 -1.0234  0.4495
 3021WAT      O 9273   1.497   2.892   3.619 -0.8872  0.6378 -0.4249
 3021WAT     H1 9274   1.490   2.919   3.711 -0.4363  1.0382 -0.5024
 3021WAT     H2 9275   1.536   2.968   3.575  2.2965 -0.7865 -0.3144
 3022WAT      O 9276   0.842   0.255   0.052  0.0631  0.0092 -0.1805
 3022WAT     H1 9277   0.864   0.181   0.109 -0.1733  0.4265  0.4648
 3022WAT     H2 9278   0.747   0.262   0.059  0.0513  0.1516 -0.5170
 3023WAT      O 9279   0.092   4.140   4.541  0.2414  0.0878 -0.5000
 3023WAT     H1 9280   0.052   4.202   4.480 -0.1662  1.1685  0.8118
 3023WAT     H2 9281   0.121   4.067   4.486  0.9190  1.5216 -2.1082
 3024WAT      O 9282   0.136   4.575   0.663 -0.0149  0.1778 -0.0621
 3024WAT     H1 9283   0.043   4.557   0.672 -0.8367  3.2029 -1.2913
 3024WAT     H2 9284   0.168   4.507   0.604 -1.0096 -1.8195  1.5579
 3025WAT      O 9285   1.689   1.979   2.394 -0.1446 -0.0603 -0.1282
 3025WAT     H1 9286   1.606   1.970   2.442  0.6347 -0.3581  1.2027
 3025WAT     H2 9287   1.675   1.929   2.313 -1.2233 -0.1748  0.1120
 3026WAT      O 9288   0.010   2.548   4.768 -0.1193  0.7535 -0.6155
 3026WAT     H1 9289   0.106   2.552   4.773  0.1182 -0.8413 -2.5219
 3026WAT     H2 9290  -0.012   2.466   4.812 -0.7182  1.4887  0.5003
 3027WAT      O 9291   3.986   3.695   2.598  0.0500  0.1659  0.5638
 3027WAT     H1 9292   3.960   3.612   2.638 -0.3594 -0.3280 -0.6814
 3027WAT     H2 9293   3.964   3.685   2.505 -0.3759  1.8224  0.4615
 3028WAT      O 9294   2.534   0.625   1.795  0.0962 -0.5051  0.3267
 3028WAT     H1 9295   2.485   0.543   1.800  0.2313 -0.5746  0.5251
 3028WAT     H2 9296   2.623   0.602   1.821 -0.3811  0.1414  2.8440
 3029WAT      O 9297   2.838   3.687   0.265 -0.0998 -0.5534  0.0505
 3029WAT     H1 9298   2.898   3.696   0.191 -0.2889  1.8493  0.0991
 3029WAT     H2 9299   2.876   3.617   0.318  1.9143 -0.0434 -0.6228
 3030WAT      O 9300   2.041   1.189   0.876  0.0045  0.4891  0.3051
 3030WAT     H1 9301   2.085   1.128   0.817  1.3671  0.7079  1.0778
 3030WAT     H2 9302   1.985   1.133   0.930  0.8421 -0.0253  0.6553
 3031WAT      O 9303   0.213   1.451   1.594 -0.1769  0.2934 -0.2606
 3031WAT     H1 9304   0.123   1.479   1.577  0.6003  1.6907 -2.6863
 3031WAT     H2 9305   0.209   1.355   1.596 -1.7600  0.3491  0.0448
 3032WAT      O 9306   0.306   3.070   0.744 -0.5028 -0.1792  0.3378
 3032WAT     H1 9307   0.240   3.026   0.797  0.5142 -1.2200  0.7819
 3032WAT     H2 9308   0.256   3.118   0.678 -1.6933 -1.2687  0.4091
 3033WAT      O 9309   1.084   1.316   3.695 -0.0554  0.6994  0.8779
 3033WAT     H1 9310   1.013   1.341   3.635  0.7772 -1.0124 -0.9077
 3033WAT     H2 9311   1.045   1.250   3.751 -0.4742  1.3859  1.4211
 3034WAT      O 9312   1.575   4.704   2.113 -0.2054 -0.0424  0.7402
 3034WAT     H1 9313   1.540   4.616   2.100 -0.8284  0.2375  0.4584
 3034WAT     H2 9314   1.560   4.721   2.206 -0.4387 -0.0929  0.7150
 3035WAT      O 9315   2.639   1.795   0.840 -0.2615 -0.4872  0.3034
 3035WAT     H1 9316   2.658   1.810   0.932  1.0886  0.9741 -0.1732
 3035WAT     H2 9317   2.565   1.853   0.820 -0.6218 -0.8811  0.4762
 3036WAT      O 9318   0.900   3.254   0.393  0.1068  0.5804 -0.0026
 3036WAT     H1 9319   0.844   3.177   0.383 -0.0390  0.6574  0.1928
 3036WAT     H2 9320   0.884   3.306   0.315 -1.7108  1.6199  0.9915
 3037WAT      O 9321   2.568   1.020   3.662 -0.0660  0.2691  0.7029
 3037WAT     H1 9322   2.629   1.030   3.589  1.2792 -2.5223  1.3329
 3037WAT     H2 9323   2.599   1.082   3.727 -0.6907  2.0912 -0.6446
 3038WAT      O 9324   2.387   3.138   0.633  0.5721  0.0052  0.0363
 3038WAT     H1 9325   2.297   3.141   0.665  0.2628 -0.3488 -0.7722
 3038WAT     H2 9326   2.378   3.139   0.537  1.4648  0.9762 -0.0537
 3039WAT      O 9327   0.969   0.433   1.287 -0.1473 -0.4699 -0.8949
 3039WAT     H1 9328   0.965   0.451   1.193 -0.5199 -0.7704 -0.9397
 3039WAT     H2 9329   0.951   0.339   1.293  1.3855 -0.7720 -0.6502
 3040WAT      O 9330   0.966   3.093   2.297  0.4395  0.6155  0.3262
 3040WAT     H1 9331   0.949   3.030   2.227  0.6846 -1.7192  2.2392
 3040WAT     H2 9332   0.948   3.178   2.257 -0.9212 -0.6897 -2.1057
 3041WAT      O 9333   1.475   2.277   2.574  0.0928  0.3076  0.3754
 3041WAT     H1 9334   1.407   2.343   2.588 -1.1650 -1.2883  2.4581
 3041WAT     H2 9335   1.427   2.195   2.560  1.5857 -0.6298  0.5172
 3042WAT      O 9336   2.877   0.401   5.185  0.2853 -0.3602  0.7444
 3042WAT     H1 9337   2.885   0.320   5.235 -1.5413 -0.2199  1.3508
 3042WAT     H2 9338   2.783   0.420   5.185  0.3038  0.1971 -1.8818
 3043WAT      O 9339   3.053   2.684   4.831 -0.5982  0.3207 -0.4078
 3043WAT     H1 9340   3.004   2.649   4.905 -0.3364 -1.7346 -1.1515
 3043WAT     H2 9341   3.088   2.767   4.863 -0.9382 -0.2463  1.5750
 3044WAT      O 9342   0.620   2.003   4.990  0.0712 -0.2540  0.5674
 3044WAT     H1 9343   0.575   2.051   4.921  0.6431  0.2315  0.5186
 3044WAT     H2 9344   0.711   1.997   4.960  0.5903  0.9766  1.7647
 3045WAT      O 9345   0.192   3.028   1.700  0.0845  0.7345  0.8566
 3045WAT     H1 9346   0.129   2.961   1.674  1.4909 -0.5799  0.6835
 3045WAT     H2 9347   0.178   3.099   1.638  0.4184 -0.5623 -0.7956
 3046WAT      O 9348   3.679   4.883   5.079 -0.0120 -0.7142  0.0923
 3046WAT     H1 9349   3.606   4.918   5.131  0.2897 -0.7120  0.5205
 3046WAT     H2 9350   3.702   4.801   5.123 -0.0634 -0.9486 -0.3193
 3047WAT      O 9351   4.367   4.684   0.793 -0.1056 -0.3201 -0.4961
 3047WAT     H1 9352   4.445   4.719   0.835  0.1932 -1.4829 -0.0296
 3047WAT     H2 9353   4.325   4.631   0.861 -0.1608 -1.4113 -1.3361
 3048WAT      O 9354   1.085   4.514   3.882 -0.4180 -0.1254  0.1179
 3048WAT     H1 9355   1.016   4.522   3.947 -0.0507  1.8846  0.3383
 3048WAT     H2 9356   1.051   4.559   3.805  1.3420  2.8319  0.9154
 3049WAT      O 9357   3.766   4.781   0.486 -0.2490 -0.0268 -0.3239
 3049WAT     H1 9358   3.716   4.807   0.563 -1.4117 -0.5637 -0.8757
 3049WAT     H2 9359   3.851   4.754   0.520 -0.3884  0.7399  0.6534
 3050WAT      O 9360   0.990   1.293   4.609  0.4063  0.1794 -0.1893
 3050WAT     H1 9361   1.024   1.204   4.601  0.7227  0.3390 -0.7333
 3050WAT     H2 9362   0.927   1.289   4.681  1.9175 -0.0284  1.1844
 3051WAT      O 9363   3.712   0.079   5.289 -0.0567 -0.3011 -0.0786
 3051WAT     H1 9364   3.755   0.121   5.215 -0.5577  1.7877  0.7645
 3051WAT     H2 9365   3.781   0.027   5.330  1.0245  0.9719 -0.2269
 3052WAT      O 9366   1.382   4.437   2.791 -0.3554 -0.0456 -0.3726
 3052WAT     H1 9367   1.320   4.387   2.739 -0.6666  1.3306 -1.3978
 3052WAT     H2 9368   1.467   4.397   2.772 -0.5819 -0.1278 -1.2596
 3053WAT      O 9369   0.504   3.167   4.123  0.1252  0.0057 -0.0169
 3053WAT     H1 9370   0.434   3.108   4.096 -0.8046  0.6939  0.8402
 3053WAT     H2 9371   0.582   3.133   4.079 -0.6903 -0.9169 -0.7885
 3054WAT      O 9372   2.665   0.329   3.036 -0.0187 -0.4469 -0.3658
 3054WAT     H1 9373   2.585   0.372   3.006 -0.1295 -1.0814 -1.0115
 3054WAT     H2 9374   2.684   0.369   3.120 -2.1886 -1.7676  0.8251
 3055WAT      O 9375   3.507   4.666   4.622 -0.3981  0.1288 -0.1817
 3055WAT     H1 9376   3.530   4.728   4.691 -0.1853 -0.5157  0.3457
 3055WAT     H2 9377   3.461   4.718   4.557 -2.2151  0.4355  1.2659
 3056WAT      O 9378   3.074   2.420   2.166  0.0423 -0.1732 -0.1372
 3056WAT     H1 9379   3.065   2.329   2.195 -0.6270  0.0071  0.2450
 3056WAT     H2 9380   3.094   2.413   2.072 -0.7005 -0.7039 -0.2677
 3057WAT      O 9381   0.057   1.978   1.677 -0.0499 -0.6838 -0.1411
 3057WAT     H1 9382   0.072   2.073   1.684 -0.7636 -0.6352  0.8510
 3057WAT     H2 9383   0.101   1.941   1.753  1.9128 -1.3921 -1.5258
 3058WAT      O 9384   1.900   2.461   3.558  0.4908  0.3537 -0.5747
 3058WAT     H1 9385   1.891   2.537   3.501  2.1886  0.8646 -0.2000
 3058WAT     H2 9386   1.837   2.477   3.629  1.3065  1.7710 -0.1357
 3059WAT      O 9387   1.372   0.312   3.626  0.1910 -0.3454  0.6846
 3059WAT     H1 9388   1.306   0.247   3.602 -1.7799  1.3418  1.2387
 3059WAT     H2 9389   1.453   0.262   3.634 -0.9507 -2.4753 -0.2661
 3060WAT      O 9390   0.095   3.733   2.878  0.6088  0.3373 -0.3339
 3060WAT     H1 9391   0.040   3.685   2.939  1.4429  0.5025  0.5832
 3060WAT     H2 9392   0.127   3.667   2.817 -1.0251  0.3277 -1.2353
 3061WAT      O 9393   2.695   3.609   1.149  0.1732 -0.0798  0.5389
 3061WAT     H1 9394   2.774   3.630   1.100  0.7620  0.1998  1.5662
 3061WAT     H2 9395   2.669   3.522   1.118  2.6550 -1.5745  2.3284
 3062WAT      O 9396   3.846   5.030   3.594 -0.1044  0.5499  0.0521
 3062WAT     H1 9397   3.865   5.101   3.533  0.6301  0.6013  0.3402
 3062WAT     H2 9398   3.794   4.968   3.542  0.7483  0.4578 -0.7168
 3063WAT      O 9399   1.634   4.573   3.676 -0.1627 -0.2859 -0.5639
 3063WAT     H1 9400   1.713   4.532   3.710 -1.0609 -0.6235  1.2131
 3063WAT     H2 9401   1.633   4.661   3.713 -0.4575 -0.1720 -0.8311
 3064WAT      O 9402   3.886   4.263   3.817  0.0279  0.0937  0.0339
 3064WAT     H1 9403   3.897   4.215   3.899 -0.2545  1.4552  0.9008
 3064WAT     H2 9404   3.842   4.344   3.842 -1.0506  0.0624 -1.6373
 3065WAT      O 9405   4.365   0.391   0.629 -0.0305  0.4704 -0.1371
 3065WAT     H1 9406   4.401   0.447   0.561  2.2547  0.0071  0.5945
 3065WAT     H2 9407   4.332   0.451   0.696 -0.3494  0.9128 -0.6875
 3066WAT      O 9408   2.836   1.586   4.081 -0.1121 -0.6514 -0.5442
 3066WAT     H1 9409   2.913   1.531   4.091 -0.3100 -0.5485  2.1911
 3066WAT     H2 9410   2.868   1.675   4.090 -0.1957 -0.3996 -2.2870
 3067WAT      O 9411   2.296   1.518   0.215 -0.2125 -0.2949  0.7367
 3067WAT     H1 9412   2.293   1.609   0.185  0.2530 -0.6230 -0.3395
 3067WAT     H2 9413   2.256   1.521   0.303 -0.8767  0.8144  0.4220
 3068WAT      O 9414   0.195   3.708   3.690 -0.1010 -0.5580  0.2574
 3068WAT     H1 9415   0.187   3.686   3.598  1.9443  0.5929 -0.2598
 3068WAT     H2 9416   0.107   3.698   3.725 -0.8646 -1.2622 -1.7515
 3069WAT      O 9417   3.668   2.563   1.314 -0.0056  0.5078 -0.5411
 3069WAT     H1 9418   3.721   2.521   1.247 -0.7329 -0.6207 -0.4314
 3069WAT     H2 9419   3.578   2.545   1.289 -0.2944  0.0320  0.7394
 3070WAT      O 9420   4.282   4.047   4.385  0.0982  0.7094 -0.1505
 3070WAT     H1 9421   4.280   4.104   4.462  1.1241 -0.0647  0.4803
 3070WAT     H2 9422   4.323   4.100   4.317  2.1567  0.4093  0.7568
 3071WAT      O 9423   0.723   4.591   3.255 -0.0671  0.2236 -0.3421
 3071WAT     H1 9424   0.809   4.581   3.295  0.5749 -1.0644 -1.8949
 3071WAT     H2 9425   0.662   4.553   3.317  0.4017  1.5305  0.9662
 3072WAT      O 9426   0.513   2.544   4.263  0.6240  0.0432 -0.1309
 3072WAT     H1 9427   0.432   2.563   4.310  0.8986 -0.9379  0.7865
 3072WAT     H2 9428   0.491   2.557   4.171 -0.1361  1.2886  0.1971
 3073WAT      O 9429   2.563   3.931   2.466  0.1658 -0.2911  0.2761
 3073WAT     H1 9430   2.593   3.898   2.551 -1.0757 -0.9711  0.4735
 3073WAT     H2 9431   2.475   3.895   2.456 -0.0007  0.4043 -0.9633
 3074WAT      O 9432   0.136   4.477   2.919  0.4359 -0.1350  0.1205
 3074WAT     H1 9433   0.205   4.420   2.885  0.3871 -0.0324 -0.1512
 3074WAT     H2 9434   0.183   4.551   2.957  0.4690 -0.0090 -0.1690
 3075WAT      O 9435   2.886   0.925   1.989  0.3012  0.6130  0.0824
 3075WAT     H1 9436   2.835   0.899   2.066  1.2421  0.5172  0.6898
 3075WAT     H2 9437   2.976   0.904   2.012  0.8081  2.1254 -0.3878
 3076WAT      O 9438   3.606   1.678   5.133  0.3360  0.2958 -0.0151
 3076WAT     H1 9439   3.625   1.721   5.050 -1.9591 -0.7718 -1.1894
 3076WAT     H2 9440   3.521   1.635   5.119 -0.6973  0.9696  3.2276
 3077WAT      O 9441   1.479   0.236   4.230 -0.1021 -0.5872 -0.6495
 3077WAT     H1 9442   1.540   0.230   4.157  1.6159  1.9271  0.4314
 3077WAT     H2 9443   1.419   0.307   4.206 -0.3516 -0.6384 -0.1889
 3078WAT      O 9444   2.952   0.253   2.854 -0.4221 -0.2818 -0.0467
 3078WAT     H1 9445   3.004   0.332   2.863 -1.2043  0.0950  1.6367
 3078WAT     H2 9446   2.925   0.252   2.762  0.7244  0.6560 -0.4173
 3079WAT      O 9447   3.527   3.398   2.485 -0.0665 -0.0818 -0.1150
 3079WAT     H1 9448   3.449   3.425   2.535 -0.2030  2.1185 -1.4259
 3079WAT     H2 9449   3.547   3.310   2.519  0.1419  1.3935  4.1428
 3080WAT      O 9450   1.897   4.450   0.800  0.3925 -0.7826  0.4325
 3080WAT     H1 9451   1.889   4.369   0.850 -0.9503 -0.5909  0.5617
 3080WAT     H2 9452   1.807   4.474   0.779  0.8690 -0.2841 -1.1770
 3081WAT      O 9453   2.427   0.955   0.497  0.2975  0.0531 -0.2994
 3081WAT     H1 9454   2.502   0.921   0.546  0.7158 -0.2039 -1.1170
 3081WAT     H2 9455   2.460   0.971   0.409  0.3345  3.1737  0.1501
 3082WAT      O 9456   4.250   1.427   3.062  0.0542 -0.1187  0.5193
 3082WAT     H1 9457   4.315   1.428   2.991 -0.5026  0.3910  0.0019
 3082WAT     H2 9458   4.193   1.353   3.040 -0.4162  0.3486  0.1539
 3083WAT      O 9459   1.763   2.835   2.892  0.5363  0.1961 -0.4661
 3083WAT     H1 9460   1.781   2.746   2.861 -1.6912 -0.1993 -0.8051
 3083WAT     H2 9461   1.706   2.824   2.967  2.2607  1.3246  1.1172
 3084WAT      O 9462   2.972   1.517   4.860  0.1398  0.1129  0.1096
 3084WAT     H1 9463   2.956   1.552   4.773  1.7114  1.0331  0.1421
 3084WAT     H2 9464   2.985   1.423   4.847 -0.7447  0.0704 -0.4770
 3085WAT      O 9465   2.655   3.665   1.402 -0.0638  0.0013  0.5442
 3085WAT     H1 9466   2.685   3.641   1.315 -0.2411  0.1783  0.4361
 3085WAT     H2 9467   2.598   3.593   1.428 -1.0552  0.5732 -0.0112
 3086WAT      O 9468   3.673   1.023   1.490  0.0140  0.4109  0.4409
 3086WAT     H1 9469   3.729   1.080   1.438  2.5204 -1.8222  0.4856
 3086WAT     H2 9470   3.721   1.010   1.572  0.0446 -2.4205  0.0646
 3087WAT      O 9471   4.008   1.209   1.636  0.4113  0.1692 -0.3592
 3087WAT     H1 9472   4.016   1.304   1.626 -2.0693  0.4237 -0.5808
 3087WAT     H2 9473   4.035   1.173   1.551  1.7131  0.6210 -0.1542
 3088WAT      O 9474   1.226   2.962   3.951  0.5935  0.2963 -0.3793
 3088WAT     H1 9475   1.210   2.991   4.041  1.7601 -0.1964  0.0035
 3088WAT     H2 9476   1.200   3.037   3.897 -0.0155  0.6358  0.3576
 3089WAT      O 9477   3.781   0.808   0.847 -0.5888  0.7173  0.3961
 3089WAT     H1 9478   3.699   0.853   0.825 -0.3573  1.1363  0.3850
 3089WAT     H2 9479   3.760   0.715   0.837 -0.5928  0.8721 -1.2738
 3090WAT      O 9480   0.838   4.628   0.361 -0.0460 -0.1830 -0.0308
 3090WAT     H1 9481   0.744   4.626   0.379 -0.1159  3.1054  0.5631
 3090WAT     H2 9482   0.848   4.689   0.289  1.5973 -1.2876 -0.7986
 3091WAT      O 9483   0.741   1.966   3.339  0.6975 -0.2220  0.6068
 3091WAT     H1 9484   0.702   2.018   3.269 -1.1074 -1.0801  0.9240
 3091WAT     H2 9485   0.749   1.878   3.302 -0.5544 -0.7580  1.5319
 3092WAT      O 9486   4.086   1.204   0.752  0.1524 -0.5734  0.5080
 3092WAT     H1 9487   4.081   1.153   0.834  0.7324  1.5436  1.9476
 3092WAT     H2 9488   4.055   1.291   0.777  2.9436  0.9260 -0.7986
 3093WAT      O 9489   2.941   1.040   3.954 -0.0337 -0.2844 -0.3329
 3093WAT     H1 9490   2.999   1.079   4.020 -0.6888 -1.4674  1.0132
 3093WAT     H2 9491   2.927   1.109   3.890 -0.1770  1.2974  1.3171
 3094WAT      O 9492   2.986   1.896   4.644 -0.7666  0.1358 -0.2460
 3094WAT     H1 9493   3.062   1.862   4.691 -0.0213  1.5006 -0.4216
 3094WAT     H2 9494   2.953   1.967   4.700 -0.4217  1.1728 -1.3138
 3095WAT      O 9495   3.173   2.591   1.352 -0.0819 -0.6804 -0.4294
 3095WAT     H1 9496   3.174   2.664   1.290 -1.8560 -0.4754 -0.2675
 3095WAT     H2 9497   3.235   2.528   1.315  0.6422  0.4204 -1.1565
 3096WAT      O 9498   4.335   3.727   2.405 -0.7082  0.1829 -0.4916
 3096WAT     H1 9499   4.253   3.706   2.360 -1.0797  1.4669 -0.4401
 3096WAT     H2 9500   4.332   3.822   2.418 -0.0892  0.0035  1.2192
 3097WAT      O 9501   3.190   2.381   4.416 -0.1470 -0.4167 -0.2971
 3097WAT     H1 9502   3.195   2.456   4.476 -0.6280 -0.7770  0.2113
 3097WAT     H2 9503   3.261   2.324   4.443  0.5207  0.0735 -0.9982
 3098WAT      O 9504   4.281   3.152   0.764 -0.3899 -0.1662  0.4818
 3098WAT     H1 9505   4.304   3.126   0.675 -0.2692  1.0716  0.1350
 3098WAT     H2 9506   4.186   3.150   0.766 -0.4449  1.0125 -0.0782
 3099WAT      O 9507   4.428   3.841   4.107  0.4384  0.0075  0.0008
 3099WAT     H1 9508   4.516   3.867   4.079  0.3789  0.5179  0.2794
 3099WAT     H2 9509   4.443   3.770   4.169  0.5699 -1.1765 -1.3474
 3100WAT      O 9510   0.883   0.039   4.433  0.3306 -0.1796 -0.1567
 3100WAT     H1 9511   0.890   0.072   4.523  0.5204 -1.8963  0.4957
 3100WAT     H2 9512   0.915  -0.051   4.438  3.5532  0.6339 -2.6098
 3101WAT      O 9513   3.032   4.724   4.326 -0.1134  0.4969 -0.1363
 3101WAT     H1 9514   3.070   4.811   4.336  1.8144 -0.4557  1.7298
 3101WAT     H2 9515   3.035   4.686   4.414 -2.0079 -1.0488 -0.6693
 3102WAT      O 9516   3.408   5.016   2.036 -0.4969 -0.2890 -0.3367
 3102WAT     H1 9517   3.414   4.929   1.998 -0.3497 -0.4097 -0.0441
 3102WAT     H2 9518   3.401   5.000   2.131  1.2588  0.0558 -0.1218
 3103WAT      O 9519   3.663   2.434   1.628  0.4249  0.2117 -0.5246
 3103WAT     H1 9520   3.671   2.385   1.546 -0.4716  0.1526 -0.5918
 3103WAT     H2 9521   3.592   2.390   1.675  0.7592  0.4060  0.1720
 3104WAT      O 9522   2.931   4.669   3.329 -0.5079 -0.5972 -0.0312
 3104WAT     H1 9523   2.866   4.657   3.398  0.1600 -0.2633  0.6685
 3104WAT     H2 9524   2.894   4.736   3.271 -0.3558  0.3374  0.9218
 3105WAT      O 9525   2.613   0.451   5.227 -0.1232 -0.1134  0.2973
 3105WAT     H1 9526   2.615   0.377   5.287 -0.5650 -2.9649 -2.9411
 3105WAT     H2 9527   2.524   0.484   5.232  0.3642  1.1267  2.5955
 3106WAT      O 9528   3.003   4.136   0.381  0.5611 -0.5741  0.1713
 3106WAT     H1 9529   3.075   4.098   0.330 -0.2280 -1.6852 -0.1253
 3106WAT     H2 9530   2.924   4.101   0.342 -0.1183 -0.2753  1.2288
 3107WAT      O 9531   2.618   2.985   3.970  0.1164  0.0861 -0.4843
 3107WAT     H1 9532   2.682   3.052   3.947  0.6202 -1.0411 -2.5531
 3107WAT     H2 9533   2.656   2.939   4.045  0.1043  1.5719  0.4782
 3108WAT      O 9534   1.180   2.119   0.089 -0.5296  0.0225  0.0792
 3108WAT     H1 9535   1.168   2.214   0.091 -1.9086 -0.1435  0.6358
 3108WAT     H2 9536   1.206   2.100  -0.001 -0.1336  0.9242 -0.0121
 3109WAT      O 9537   3.642   2.568   4.642  0.3373  0.0004 -0.1873
 3109WAT     H1 9538   3.682   2.595   4.559 -0.4569 -2.0388 -1.2865
 3109WAT     H2 9539   3.714   2.571   4.705  1.3102  0.0970 -1.2724
 3110WAT      O 9540   1.842   1.816   1.936  0.6512  0.8170 -0.3653
 3110WAT     H1 9541   1.932   1.790   1.916  0.4294  0.3968 -0.8301
 3110WAT     H2 9542   1.789   1.777   1.867  0.0705  0.7913  0.0797
 3111WAT      O 9543   2.788   0.845   4.069  0.7185 -0.2054  0.1908
 3111WAT     H1 9544   2.814   0.913   4.006 -0.7791  0.7876  0.5948
 3111WAT     H2 9545   2.784   0.765   4.017  2.5779 -0.0443 -0.2852
 3112WAT      O 9546   1.092   0.647   2.187 -0.5587 -0.0967 -0.3696
 3112WAT     H1 9547   1.132   0.623   2.271 -0.9264 -0.1365 -0.2053
 3112WAT     H2 9548   1.022   0.583   2.174 -0.6770  0.0731 -0.5761
 3113WAT      O 9549   1.696   1.823   1.380  0.3607  0.1725  0.1614
 3113WAT     H1 9550   1.738   1.743   1.349  1.0622 -1.0998  3.9622
 3113WAT     H2 9551   1.745   1.848   1.458 -2.3995  1.9396  1.4877
 3114WAT      O 9552   3.651   2.482   0.578 -0.3233 -0.2995  0.2036
 3114WAT     H1 9553   3.716   2.475   0.509 -1.9088 -1.3274 -1.2659
 3114WAT     H2 9554   3.651   2.396   0.621  0.4708  0.2482  1.3647
 3115WAT      O 9555   3.408   3.811   3.271  0.2117 -0.0975 -0.2735
 3115WAT     H1 9556   3.390   3.904   3.258 -1.1027 -0.3264 -0.2247
 3115WAT     H2 9557   3.444   3.806   3.359  1.1502  0.4538 -0.6032
 3116WAT      O 9558   1.927   4.132   4.126 -0.1175 -0.0022  0.3473
 3116WAT     H1 9559   1.914   4.111   4.034 -0.4135 -0.6416  0.5312
 3116WAT     H2 9560   1.869   4.072   4.173 -0.0463  0.3853  0.9454
 3117WAT      O 9561   3.401   4.775   2.798 -0.2754 -0.3399  0.2472
 3117WAT     H1 9562   3.313   4.742   2.782 -0.5862  0.4802  0.2196
 3117WAT     H2 9563   3.388   4.850   2.856  0.2279  0.8690 -1.1440
 3118WAT      O 9564   3.070   4.776   0.130  0.3748 -0.2800  0.1222
 3118WAT     H1 9565   3.140   4.789   0.066  1.0107 -0.5452  0.7404
 3118WAT     H2 9566   3.056   4.863   0.168 -1.2128  0.2453 -1.5535
 3119WAT      O 9567   1.042   4.377   1.341  0.0609  0.2724  0.0161
 3119WAT     H1 9568   1.090   4.344   1.265 -1.4494 -2.0032 -0.0467
 3119WAT     H2 9569   1.081   4.330   1.415 -0.5722  0.0642  0.2221
 3120WAT      O 9570   4.474   2.975   4.307 -0.2315  0.0859  0.7033
 3120WAT     H1 9571   4.386   2.972   4.269  0.3969 -0.1704 -0.7811
 3120WAT     H2 9572   4.523   3.036   4.251  0.6117  0.0495  1.3709
 3121WAT      O 9573   3.672   4.752   2.057 -0.7091 -0.0576  0.5420
 3121WAT     H1 9574   3.620   4.684   2.101 -0.5297 -1.0144 -0.6755
 3121WAT     H2 9575   3.728   4.788   2.126  0.3712 -2.3044  0.9208
 3122WAT      O 9576   0.687   2.729   2.321 -0.4687  0.1869  0.3221
 3122WAT     H1 9577   0.654   2.764   2.238 -0.3722 -0.5816 -0.0528
 3122WAT     H2 9578   0.707   2.807   2.373 -0.8402  0.6801 -0.2493
 3123WAT      O 9579   0.210   1.063   1.393 -0.4695  0.1661 -0.3451
 3123WAT     H1 9580   0.202   1.107   1.478  1.2339 -1.0562  0.5003
 3123WAT     H2 9581   0.254   1.128   1.338  0.0723  0.3189  0.2490
 3124WAT      O 9582   2.473   4.704   2.193 -0.0784 -0.4506 -0.0672
 3124WAT     H1 9583   2.448   4.722   2.283  0.2846  0.0982 -0.0751
 3124WAT     H2 9584   2.429   4.772   2.141 -0.2527 -0.7386 -0.3036
 3125WAT      O 9585   3.607   4.813   0.729 -0.4202 -0.5023 -0.0865
 3125WAT     H1 9586   3.571   4.731   0.764 -0.1745 -0.2790  0.7150
 3125WAT     H2 9587   3.625   4.866   0.807  0.0608  0.0446 -0.5643
 3126WAT      O 9588   0.603   4.542   5.025  0.0172  0.3427  0.3982
 3126WAT     H1 9589   0.634   4.592   4.950 -0.4697  0.8379  0.5211
 3126WAT     H2 9590   0.532   4.595   5.061  1.7959  1.3540  2.6709
 3127WAT      O 9591   1.782   5.133   4.605 -0.2949  0.0555  0.7913
 3127WAT     H1 9592   1.728   5.137   4.526 -0.0746  1.3146  0.6899
 3127WAT     H2 9593   1.815   5.043   4.606 -0.7936 -0.1576 -0.2131
 3128WAT      O 9594   0.565   4.640   0.208 -0.1831  0.0966 -0.2006
 3128WAT     H1 9595   0.476   4.670   0.191 -1.6210 -3.5955 -0.1022
 3128WAT     H2 9596   0.601   4.622   0.121  0.3798  1.1697 -0.2143
 3129WAT      O 9597   0.322   1.823   3.394  0.6849  0.4771 -0.1603
 3129WAT     H1 9598   0.392   1.833   3.330 -0.1940 -0.1403 -1.2523
 3129WAT     H2 9599   0.364   1.842   3.478  1.7722  1.7105 -0.9363
 3130WAT      O 9600   3.904   0.408   1.053 -0.0119  0.6410 -0.0211
 3130WAT     H1 9601   3.948   0.481   1.009  2.2229 -1.2517 -1.1725
 3130WAT     H2 9602   3.934   0.412   1.143  1.6112  0.1312 -0.5046
 3131WAT      O 9603   3.544   0.783   4.148 -0.3252  0.4121  0.0694
 3131WAT     H1 9604   3.556   0.800   4.054  0.2504  1.5634  0.3266
 3131WAT     H2 9605   3.453   0.807   4.165  0.1872  2.4374  0.2127
 3132WAT      O 9606   0.225   4.936   0.513 -0.4055  0.4410  0.0703
 3132WAT     H1 9607   0.175   4.987   0.578 -2.0671 -0.6912 -0.2599
 3132WAT     H2 9608   0.182   4.956   0.430  0.7846  0.7356 -0.4895
 3133WAT      O 9609   0.230   0.714   1.865 -0.1016  0.3851  0.8224
 3133WAT     H1 9610   0.155   0.755   1.824 -0.3914 -1.7563 -1.0207
 3133WAT     H2 9611   0.194   0.667   1.940 -0.7403 -0.8682 -0.2148
 3134WAT      O 9612   2.511   0.091   3.637 -0.6421 -0.0968  0.0195
 3134WAT     H1 9613   2.419   0.115   3.625 -0.6003 -0.0793 -0.2807
 3134WAT     H2 9614   2.541   0.146   3.709 -1.0561 -0.6090  0.5891
 3135WAT      O 9615   0.532   3.376   3.385 -0.4081  0.1013 -0.3502
 3135WAT     H1 9616   0.453   3.403   3.431 -0.4070 -0.3550 -0.0717
 3135WAT     H2 9617   0.511   3.390   3.292 -0.3312  1.2156 -0.2056
 3136WAT      O 9618   2.094   0.221   5.255  0.2349  0.5683  0.4146
 3136WAT     H1 9619   2.182   0.185   5.262  0.2935  0.5205 -0.4740
 3136WAT     H2 9620   2.102   0.292   5.192  0.1354  2.2173  2.1604
 3137WAT      O 9621   4.110   3.634   4.858 -0.0839 -0.2519 -0.2651
 3137WAT     H1 9622   4.173   3.583   4.806 -0.6594 -1.1584 -0.0794
 3137WAT     H2 9623   4.026   3.622   4.814 -0.6309 -1.2286  0.9911
 3138WAT      O 9624   1.849   1.899   4.344 -0.2723  0.6035  0.5490
 3138WAT     H1 9625   1.914   1.898   4.414 -0.2557  1.7703  0.5735
 3138WAT     H2 9626   1.798   1.820   4.357  1.6435 -0.7871  0.0294
 3139WAT      O 9627   4.274   0.117   4.815  0.1092  0.4406  0.6611
 3139WAT     H1 9628   4.212   0.180   4.777 -0.3404  0.3679  1.2542
 3139WAT     H2 9629   4.223   0.036   4.825  0.6449  0.0150  0.0278
 3140WAT      O 9630   4.308   3.410   1.559 -0.8191  0.5178 -0.6756
 3140WAT     H1 9631   4.383   3.414   1.618 -1.4266  0.3851  0.1169
 3140WAT     H2 9632   4.252   3.342   1.595  0.4520 -2.2461 -3.4049
 3141WAT      O 9633   2.157   1.824   1.425 -0.0520  0.4561  0.4319
 3141WAT     H1 9634   2.131   1.904   1.470 -0.2237  1.9737 -2.1298
 3141WAT     H2 9635   2.075   1.776   1.412  0.0131 -0.0469  1.7160
 3142WAT      O 9636   3.909   3.571   1.127 -0.2732  0.9758  0.2440
 3142WAT     H1 9637   3.989   3.575   1.075 -0.8937  0.3233 -0.7723
 3142WAT     H2 9638   3.891   3.478   1.136 -2.0123  1.1185 -1.2592
 3143WAT      O 9639   1.432   2.944   2.922 -0.3447 -0.5492 -0.2870
 3143WAT     H1 9640   1.492   3.002   2.875  1.2861 -0.9700  1.1688
 3143WAT     H2 9641   1.445   2.858   2.881 -0.8307 -0.4118 -0.7358
 3144WAT      O 9642   1.854   2.638   0.414 -0.2242  0.2618 -0.3473
 3144WAT     H1 9643   1.768   2.662   0.449  0.3235  1.5333  0.2175
 3144WAT     H2 9644   1.916   2.672   0.479  0.7694  1.3340 -1.7885
 3145WAT      O 9645   1.477   3.650   2.622  0.0283 -0.4515 -0.0532
 3145WAT     H1 9646   1.437   3.629   2.538 -0.6277  1.3701 -0.2446
 3145WAT     H2 9647   1.403   3.651   2.684  0.7004 -3.3839  0.9600
 3146WAT      O 9648   0.406   1.226   0.035 -0.4545  0.8783  0.3380
 3146WAT     H1 9649   0.478   1.173   0.001  0.1931  1.3231  0.9910
 3146WAT     H2 9650   0.404   1.207   0.129 -0.3609  1.8146  0.5445
 3147WAT      O 9651   1.783   0.983   1.881 -0.7166 -0.1084 -0.2161
 3147WAT     H1 9652   1.726   0.908   1.869 -0.0494 -0.5840 -0.4565
 3147WAT     H2 9653   1.755   1.022   1.964 -2.3181  0.5005 -0.9964
 3148WAT      O 9654   2.980   0.414   0.842  0.1542 -0.2219 -0.1252
 3148WAT     H1 9655   2.969   0.348   0.911 -1.3606  0.1782  0.0586
 3148WAT     H2 9656   3.072   0.408   0.818  0.2160 -1.9349  0.3563
 3149WAT      O 9657   3.619   1.182   0.483 -0.0126 -0.8524  0.1233
 3149WAT     H1 9658   3.600   1.235   0.406  1.3788 -0.7364 -0.1585
 3149WAT     H2 9659   3.618   1.092   0.451 -0.8003 -0.9017  0.2698
 3150WAT      O 9660   1.091   3.019   2.514  0.4326  0.1713  0.1730
 3150WAT     H1 9661   1.039   3.049   2.439  0.9465  0.4568 -0.0776
 3150WAT     H2 9662   1.150   2.952   2.477 -1.4794 -2.0720  0.9314
 3151WAT      O 9663   0.769   1.500   4.344 -0.0855 -0.6871  0.1234
 3151WAT     H1 9664   0.692   1.486   4.288  0.8932  1.2002 -1.8284
 3151WAT     H2 9665   0.742   1.569   4.404  0.1576  0.2473 -0.8114
 3152WAT      O 9666   4.435   4.239   2.553  0.5887  0.1419 -0.0734
 3152WAT     H1 9667   4.406   4.305   2.490 -0.7702 -0.5940 -0.2582
 3152WAT     H2 9668   4.433   4.284   2.638  0.9412  0.6934 -0.3520
 3153WAT      O 9669   0.739   2.227   1.983  0.1979 -0.2325  0.7632
 3153WAT     H1 9670   0.735   2.261   2.072  0.2566 -0.2479  0.7716
 3153WAT     H2 9671   0.673   2.158   1.981 -1.2144  1.0923  0.2219
 3154WAT      O 9672   3.464   0.578   0.823  0.5235  0.3455 -0.5011
 3154WAT     H1 9673   3.542   0.542   0.866  1.5262  1.7684 -1.0563
 3154WAT     H2 9674   3.495   0.606   0.737 -0.7328  0.4553 -0.9376
 3155WAT      O 9675   2.649   2.320   0.168 -0.3535  0.4800 -0.2804
 3155WAT     H1 9676   2.638   2.227   0.188 -1.6071  0.8122  0.6674
 3155WAT     H2 9677   2.563   2.359   0.182  0.3569  1.9550  0.2951
 3156WAT      O 9678   2.063   3.007   2.125  0.0451 -0.1796 -0.5832
 3156WAT     H1 9679   2.109   3.071   2.071  0.2702  0.6506  0.5752
 3156WAT     H2 9680   1.975   3.043   2.135 -0.0399 -0.4055 -0.5086
 3157WAT      O 9681   1.999   2.549   1.024 -0.4031 -0.4105  0.1417
 3157WAT     H1 9682   2.030   2.520   0.938 -0.2095 -0.5071  0.2427
 3157WAT     H2 9683   2.038   2.636   1.036  0.2874 -0.7596  0.5045
 3158WAT      O 9684   0.657   2.483   3.966 -0.6042  0.0140 -0.2548
 3158WAT     H1 9685   0.686   2.566   4.003  0.2891 -0.5386  0.3299
 3158WAT     H2 9686   0.634   2.503   3.876  1.9026  0.4733 -0.8670
 3159WAT      O 9687   2.017   1.743   0.795  0.2332 -0.5058 -0.1208
 3159WAT     H1 9688   1.994   1.813   0.734 -1.1049  0.9809  1.9229
 3159WAT     H2 9689   2.110   1.756   0.812  0.0513  0.7131  0.0838
 3160WAT      O 9690   2.504   0.223   2.522 -0.4601 -0.0715  0.3205
 3160WAT     H1 9691   2.538   0.236   2.434  1.8135 -2.8091  0.6366
 3160WAT     H2 9692   2.566   0.269   2.579 -0.0089 -1.0139  0.6235
 3161WAT      O 9693   3.014   1.726   2.339 -0.2781  0.1532 -0.3924
 3161WAT     H1 9694   3.086   1.677   2.299 -0.2760  1.0305 -1.5397
 3161WAT     H2 9695   3.055   1.776   2.410  0.7885  2.3750 -2.4063
 3162WAT      O 9696   3.245   1.566   3.766 -0.8214 -0.0305 -0.0049
 3162WAT     H1 9697   3.277   1.513   3.693  0.3720  0.6404 -0.0024
 3162WAT     H2 9698   3.261   1.657   3.739  1.0681  0.1980  1.6753
 3163WAT      O 9699   2.506   2.696   0.456 -0.0956 -0.1661  0.8741
 3163WAT     H1 9700   2.561   2.771   0.433 -0.7121  0.6900  2.0687
 3163WAT     H2 9701   2.514   2.688   0.551 -0.4276 -1.3170  0.8220
 3164WAT      O 9702   3.673   0.337   1.264  0.1127  0.1249  0.3847
 3164WAT     H1 9703   3.752   0.389   1.277 -1.4690  2.1219  2.6706
 3164WAT     H2 9704   3.650   0.305   1.351 -0.0695 -2.9572 -0.6449
 3165WAT      O 9705   2.158   2.687   1.332 -0.1136 -0.6636 -0.1558
 3165WAT     H1 9706   2.079   2.720   1.375  0.0850  0.1961 -0.4265
 3165WAT     H2 9707   2.156   2.727   1.245  0.4219 -0.9432 -0.2995
 3166WAT      O 9708   2.267   4.529   3.392  0.3190  0.2440 -0.2326
 3166WAT     H1 9709   2.248   4.453   3.447 -2.4884  1.0793  0.1180
 3166WAT     H2 9710   2.277   4.602   3.453  3.2893  0.2157 -0.5444
 3167WAT      O 9711   1.048   2.284   1.629 -0.2927 -0.4914 -0.1400
 3167WAT     H1 9712   1.079   2.258   1.716  0.6910 -1.2431 -0.6951
 3167WAT     H2 9713   1.029   2.377   1.637 -0.5094 -0.6134  0.9580
 3168WAT      O 9714   1.647   4.249   0.485 -0.1061  0.5515  0.3881
 3168WAT     H1 9715   1.741   4.242   0.469 -0.3740 -0.6875 -0.7689
 3168WAT     H2 9716   1.612   4.292   0.408 -0.4297  1.5443  1.0739
 3169WAT      O 9717   3.299   3.454   2.664 -0.0019 -0.0681  0.0449
 3169WAT     H1 9718   3.305   3.434   2.758 -1.7869  0.1983  0.2538
 3169WAT     H2 9719   3.314   3.548   2.659  2.8102 -0.4490 -0.3015
 3170WAT      O 9720   2.136   3.457   2.962  0.4852  0.6222  0.5349
 3170WAT     H1 9721   2.063   3.404   2.993  0.8884 -0.9396 -1.0311
 3170WAT     H2 9722   2.096   3.534   2.922 -0.2654  0.0537  0.1907
 3171WAT      O 9723   3.865   4.014   4.017 -0.2114 -0.4894 -0.5074
 3171WAT     H1 9724   3.907   4.046   4.097 -0.4460  0.7142 -0.8569
 3171WAT     H2 9725   3.776   3.991   4.044  0.4641 -2.6122  0.1339
 3172WAT      O 9726   1.946   1.234   3.907 -0.8187  0.5879  0.3570
 3172WAT     H1 9727   1.868   1.232   3.963  0.7597 -0.1867  2.6959
 3172WAT     H2 9728   1.922   1.186   3.829 -2.9908  1.2811  0.5395
 3173WAT      O 9729   0.635   3.541   3.100 -0.1791 -0.3623 -0.3601
 3173WAT     H1 9730   0.689   3.468   3.129  0.6714  0.5173  0.3375
 3173WAT     H2 9731   0.673   3.568   3.017 -0.8172 -1.0252 -0.8823
 3174WAT      O 9732   3.138   1.458   3.346  0.2397  1.0846 -0.1710
 3174WAT     H1 9733   3.127   1.478   3.253  0.1112  0.2994 -0.3243
 3174WAT     H2 9734   3.072   1.391   3.365 -0.1785  1.7005  0.6429
 3175WAT      O 9735   4.142   0.678   2.206  0.0786 -0.4016 -0.3322
 3175WAT     H1 9736   4.219   0.696   2.153  0.0865 -0.0492 -0.2030
 3175WAT     H2 9737   4.178   0.649   2.290  0.0838  0.3420 -0.0671
 3176WAT      O 9738   3.652   1.530   1.277 -0.5637  0.3922 -0.0478
 3176WAT     H1 9739   3.606   1.475   1.340 -1.2755  1.7232  0.6304
 3176WAT     H2 9740   3.658   1.616   1.318 -1.2678  1.3796 -1.8690
 3177WAT      O 9741   2.506   2.369   4.617 -0.1338  0.3766 -0.0484
 3177WAT     H1 9742   2.505   2.357   4.712 -0.5365 -1.4541 -0.2555
 3177WAT     H2 9743   2.593   2.404   4.598  0.2737 -0.0848  0.9009
 3178WAT      O 9744   4.161   1.379   2.107  0.0670 -0.4616  0.3500
 3178WAT     H1 9745   4.247   1.412   2.132  1.1819 -1.7616 -1.4871
 3178WAT     H2 9746   4.177   1.292   2.072 -1.8997 -0.5128 -0.6273
 3179WAT      O 9747   3.153   4.524   2.353 -0.3396  0.0760  0.1770
 3179WAT     H1 9748   3.135   4.616   2.334 -0.1869 -0.1194 -0.9941
 3179WAT     H2 9749   3.068   4.486   2.371 -0.3319  0.5894  1.4649
 3180WAT      O 9750   1.645   4.388   1.151 -0.5804  0.2586  0.2447
 3180WAT     H1 9751   1.618   4.420   1.065 -2.3081  0.3209  0.7738
 3180WAT     H2 9752   1.700   4.457   1.186  0.0313  0.2932 -0.7411
 3181WAT      O 9753   0.291   3.372   2.896 -0.5782  0.4991  0.8990
 3181WAT     H1 9754   0.228   3.302   2.879 -0.1769  0.0655  1.1728
 3181WAT     H2 9755   0.285   3.429   2.819 -0.7856  0.0735  0.5953
 3182WAT      O 9756   2.764   2.479   4.575  0.0996 -0.8252 -0.9299
 3182WAT     H1 9757   2.810   2.466   4.658  1.2468  1.4754 -1.1201
 3182WAT     H2 9758   2.718   2.563   4.586 -0.8044 -1.1349 -2.1662
 3183WAT      O 9759   3.363   4.745   0.433 -0.7587  0.4368  0.0512
 3183WAT     H1 9760   3.270   4.722   0.436 -1.1120  1.6550 -0.9476
 3183WAT     H2 9761   3.405   4.680   0.489 -2.3232  0.4540  1.3067
 3184WAT      O 9762   1.755   0.675   0.936 -0.1946 -0.2582  0.3476
 3184WAT     H1 9763   1.721   0.587   0.948 -2.7529  0.7427  1.1173
 3184WAT     H2 9764   1.677   0.731   0.932  1.2760  1.8604 -1.2470
 3185WAT      O 9765   0.812   2.671   0.965 -0.0231 -0.2295 -0.3729
 3185WAT     H1 9766   0.755   2.633   0.897 -1.4793  0.3815  0.4640
 3185WAT     H2 9767   0.778   2.759   0.979  1.8201  0.5453 -0.5815
 3186WAT      O 9768   1.800   4.824   2.187 -0.2892 -0.3828 -0.4449
 3186WAT     H1 9769   1.879   4.772   2.195 -0.4245 -0.4380  0.7464
 3186WAT     H2 9770   1.745   4.777   2.124  0.8106 -0.0715 -1.6795
 3187WAT      O 9771   0.791   4.222   1.206  0.1720  0.4699  0.3164
 3187WAT     H1 9772   0.732   4.151   1.182 -0.1346  0.5620  0.7857
 3187WAT     H2 9773   0.791   4.281   1.131  0.4557 -0.0416 -0.0927
 3188WAT      O 9774   3.813   3.088   4.529 -0.2964  0.4720  0.0779
 3188WAT     H1 9775   3.868   3.125   4.598 -0.0426 -0.1088  0.1946
 3188WAT     H2 9776   3.757   3.161   4.502  0.1768  0.9336  0.3119
 3189WAT      O 9777   4.498   2.377   3.141 -0.3689 -0.0350 -0.0376
 3189WAT     H1 9778   4.471   2.289   3.168 -1.3640  0.2561 -0.0425
 3189WAT     H2 9779   4.489   2.376   3.046 -3.1559  0.9009  0.1217
 3190WAT      O 9780   0.320   2.099   1.249 -0.2275 -0.2045 -1.0316
 3190WAT     H1 9781   0.252   2.058   1.302  0.6047  0.5367  0.6949
 3190WAT     H2 9782   0.309   2.062   1.162 -1.6788 -1.4435 -0.3546
 3191WAT      O 9783   3.463   2.033   0.012 -0.1471 -0.6667  0.4818
 3191WAT     H1 9784   3.556   2.045  -0.009 -0.3936 -0.2341 -0.4399
 3191WAT     H2 9785   3.446   2.095   0.082 -0.2581  0.9745 -0.9319
 3192WAT      O 9786   3.091   2.830   0.711 -0.4258  0.0413  0.5343
 3192WAT     H1 9787   3.003   2.865   0.723 -1.1822 -1.6706  0.1577
 3192WAT     H2 9788   3.086   2.779   0.630  0.2310 -2.1200  1.8015
 3193WAT      O 9789   3.017   0.127   4.148 -0.1488  0.2619  0.2873
 3193WAT     H1 9790   3.087   0.180   4.188  0.8524 -0.9331  0.1714
 3193WAT     H2 9791   2.941   0.185   4.147  0.8778  1.6628  0.2721
 3194WAT      O 9792   0.192   3.763   4.494 -0.1408  0.6399 -0.5845
 3194WAT     H1 9793   0.199   3.845   4.444 -0.2009  0.8793 -0.2034
 3194WAT     H2 9794   0.283   3.735   4.507 -0.0487  1.3771  0.4739
 3195WAT      O 9795   4.223   0.261   0.119 -0.4174 -0.3106  0.1732
 3195WAT     H1 9796   4.156   0.226   0.178 -1.4869  2.3426  0.6384
 3195WAT     H2 9797   4.238   0.350   0.149  0.7808  0.3458 -2.1248
 3196WAT      O 9798   3.247   4.002   4.152 -0.3412  0.2982 -0.5180
 3196WAT     H1 9799   3.291   3.967   4.229 -0.5075 -0.3089 -0.6952
 3196WAT     H2 9800   3.236   4.095   4.171 -1.6077 -0.0812  0.7967
 3197WAT      O 9801   4.469   2.224   0.052 -0.1052 -0.0221  0.0360
 3197WAT     H1 9802   4.440   2.134   0.039 -2.8447  0.4268  2.1870
 3197WAT     H2 9803   4.531   2.240  -0.020  0.5742 -3.5982 -0.3443
 3198WAT      O 9804   2.268   0.953   1.785 -0.3756  0.4988  0.2019
 3198WAT     H1 9805   2.254   0.858   1.783  0.5505  0.3593  0.1342
 3198WAT     H2 9806   2.327   0.970   1.711  0.0907  1.0150  0.6873
 3199WAT      O 9807   1.202   2.202   4.406 -0.6079  0.1817  0.7860
 3199WAT     H1 9808   1.180   2.110   4.391 -0.6636  0.2612  0.3774
 3199WAT     H2 9809   1.281   2.217   4.355 -1.5595  0.8126 -0.5559
 3200WAT      O 9810   0.008   3.613   0.138 -0.2601 -1.0501  0.3218
 3200WAT     H1 9811   0.099   3.642   0.141 -0.6901  0.3724  0.1880
 3200WAT     H2 9812   0.009   3.536   0.082  0.8608 -1.0815  0.3614
 3201WAT      O 9813   0.922   3.911   2.526  0.3639 -0.1587  0.3077
 3201WAT     H1 9814   0.854   3.863   2.572 -0.4588 -0.7186 -1.3889
 3201WAT     H2 9815   0.927   3.996   2.570 -0.5325 -0.5822  1.2427
 3202WAT      O 9816   1.409   0.226   2.933 -0.1091  0.0988 -0.6952
 3202WAT     H1 9817   1.421   0.136   2.903  0.0484 -0.0865 -0.0928
 3202WAT     H2 9818   1.447   0.227   3.022 -1.4197  0.3794 -0.1152
 3203WAT      O 9819   0.044   1.651   4.270 -0.1366 -0.1093  0.3184
 3203WAT     H1 9820  -0.051   1.661   4.264 -0.0217  1.2445  0.2783
 3203WAT     H2 9821   0.058   1.601   4.350 -0.8810 -0.0808  0.4798
 3204WAT      O 9822   1.794   4.411   1.963  0.3845 -0.2460 -0.3785
 3204WAT     H1 9823   1.880   4.373   1.979  0.7685  0.1700 -1.3984
 3204WAT     H2 9824   1.811   4.486   1.905 -0.6798 -0.2824 -0.7519
 3205WAT      O 9825   0.589   2.150   3.751 -0.6122  0.1344  0.3073
 3205WAT     H1 9826   0.679   2.139   3.721  0.0056  1.7761  1.4601
 3205WAT     H2 9827   0.597   2.178   3.842 -2.3019  0.1943  0.4687
 3206WAT      O 9828   2.540   1.522   0.827  0.0937 -0.5853  0.3846
 3206WAT     H1 9829   2.578   1.609   0.836  1.0534 -0.8208 -1.1263
 3206WAT     H2 9830   2.609   1.462   0.856  0.0588 -0.9219 -0.2155
 3207WAT      O 9831   0.782   3.003   0.291  0.2618 -0.0198 -0.5205
 3207WAT     H1 9832   0.757   2.919   0.328 -1.6786  0.6210 -0.2532
 3207WAT     H2 9833   0.872   2.991   0.262  0.5347 -1.7064  0.8911
 3208WAT      O 9834   1.093   0.166   4.921  0.0720  0.2993 -0.0660
 3208WAT     H1 9835   1.145   0.246   4.915  1.2367 -0.3566  0.7769
 3208WAT     H2 9836   1.014   0.192   4.970  0.6729  0.8374  0.6368
 3209WAT      O 9837   3.585   0.398   4.037 -0.3692 -0.1856  0.0134
 3209WAT     H1 9838   3.596   0.467   3.971 -3.0495 -0.7563 -1.1540
 3209WAT     H2 9839   3.648   0.331   4.011  0.3719  0.6610 -0.4485
 3210WAT      O 9840   4.266   1.159   1.958 -0.6461 -0.6356 -0.1882
 3210WAT     H1 9841   4.289   1.144   1.867 -0.1197  1.9155 -0.5432
 3210WAT     H2 9842   4.350   1.163   2.004 -0.8540 -0.8368  0.2145
 3211WAT      O 9843   3.552   1.636   4.093  0.4463 -0.6563  0.3713
 3211WAT     H1 9844   3.549   1.712   4.152  1.6916 -0.6190  0.4032
 3211WAT     H2 9845   3.564   1.674   4.006 -0.7875 -0.7452  0.1414
 3212WAT      O 9846   0.598   0.973   2.351  0.0784  0.1462  0.0884
 3212WAT     H1 9847   0.503   0.979   2.343  0.1008 -0.0046 -0.3469
 3212WAT     H2 9848   0.629   0.971   2.260  0.3612 -2.0760  0.1789
 3213WAT      O 9849   1.659   0.538   2.774  0.2984  0.1032  0.0443
 3213WAT     H1 9850   1.574   0.506   2.805  0.7730  0.1654  1.4361
 3213WAT     H2 9851   1.643   0.630   2.753  0.1294  0.2448  0.7605
 3214WAT      O 9852   4.066   1.338   0.347 -0.3660 -0.1774 -0.4296
 3214WAT     H1 9853   4.114   1.420   0.358 -0.1900 -0.2318 -0.7670
 3214WAT     H2 9854   4.058   1.302   0.435 -0.1731  0.0503 -0.3185
 3215WAT      O 9855   4.352   5.101   2.737 -0.8088 -0.8034  0.8575
 3215WAT     H1 9856   4.305   5.070   2.815 -0.8401 -1.7023  0.4947
 3215WAT     H2 9857   4.422   5.036   2.725  0.1650  0.1874  1.0393
 3216WAT      O 9858   2.745   0.163   0.649  0.1982  0.1974 -0.2486
 3216WAT     H1 9859   2.659   0.122   0.655 -0.3649  0.9269 -2.3986
 3216WAT     H2 9860   2.744   0.233   0.714 -0.2978 -0.6444  0.6783
 3217WAT      O 9861   0.097   1.742   4.008 -0.4853 -0.0286  0.1560
 3217WAT     H1 9862   0.024   1.786   3.965 -0.6386  0.5266  0.9508
 3217WAT     H2 9863   0.069   1.733   4.099 -0.9608 -2.8575 -0.1880
 3218WAT      O 9864   1.785   3.380   2.856  0.0791  0.3390 -0.1518
 3218WAT     H1 9865   1.806   3.474   2.849 -1.0840  0.6398  0.1866
 3218WAT     H2 9866   1.839   3.339   2.788 -0.3345  1.4193 -1.1717
 3219WAT      O 9867   2.553   1.491   1.409  0.1246 -0.1649 -0.5223
 3219WAT     H1 9868   2.548   1.529   1.496  1.4829 -1.2875  0.0891
 3219WAT     H2 9869   2.496   1.414   1.413 -0.9724  0.5868 -1.1102
 3220WAT      O 9870   0.976   0.168   2.849 -0.1846 -0.1342  0.1074
 3220WAT     H1 9871   1.004   0.077   2.839  0.8006  0.2528 -0.9831
 3220WAT     H2 9872   0.934   0.189   2.765 -0.1668  0.4941  0.2510
 3221WAT      O 9873   4.282   0.665   0.604 -0.0303 -0.6038 -0.9747
 3221WAT     H1 9874   4.264   0.641   0.695  1.5054  1.4165 -0.0461
 3221WAT     H2 9875   4.236   0.748   0.592  1.0509 -0.0630 -1.5133
 3222WAT      O 9876   1.608   1.907   1.109  0.3818 -0.1693  0.2518
 3222WAT     H1 9877   1.670   1.889   1.180  0.9147  0.2763 -0.0965
 3222WAT     H2 9878   1.610   1.828   1.055  0.9181 -0.0190  0.0460
 3223WAT      O 9879   2.632   1.203   3.885  0.7241  0.0350 -0.3667
 3223WAT     H1 9880   2.727   1.210   3.897  0.8898  0.4292 -1.7543
 3223WAT     H2 9881   2.599   1.290   3.910  0.8996  0.3652 -1.2480
 3224WAT      O 9882   3.276   0.902   4.161 -0.5131 -0.3773  0.0201
 3224WAT     H1 9883   3.188   0.914   4.124 -1.0290  2.2869  1.8197
 3224WAT     H2 9884   3.332   0.958   4.108 -0.6322  0.7867  1.0791
 3225WAT      O 9885   3.269   4.943   2.983 -0.2712 -0.2003 -0.8628
 3225WAT     H1 9886   3.326   4.948   3.060 -1.0458 -0.7565 -0.2444
 3225WAT     H2 9887   3.231   5.030   2.976 -0.2927 -0.1818 -0.5423
 3226WAT      O 9888   3.218   2.412   2.576 -0.4363  0.4799 -0.1191
 3226WAT     H1 9889   3.126   2.395   2.558 -0.2246 -0.3863 -0.4244
 3226WAT     H2 9890   3.241   2.484   2.517 -0.8879  0.6259 -0.1163
 3227WAT      O 9891   2.891   1.296   3.392 -0.6187 -0.0884 -0.2931
 3227WAT     H1 9892   2.900   1.257   3.479 -2.3155 -1.9084 -0.8566
 3227WAT     H2 9893   2.797   1.307   3.381 -0.3826  0.8156 -1.6281
 3228WAT      O 9894   2.475   3.706   0.992 -0.4736 -0.4160 -0.3104
 3228WAT     H1 9895   2.543   3.679   1.055 -1.0182 -1.8704 -0.3101
 3228WAT     H2 9896   2.459   3.798   1.012  1.1755 -0.1616 -0.0094
 3229WAT      O 9897   1.545   1.160   2.564 -0.3404  0.0493  0.2670
 3229WAT     H1 9898   1.595   1.181   2.643 -0.9970  0.6850  0.5160
 3229WAT     H2 9899   1.465   1.118   2.596 -0.6707  0.4301 -0.0552
 3230WAT      O 9900   2.067   3.349   1.561 -0.0773  0.0132  0.1956
 3230WAT     H1 9901   2.119   3.343   1.480  0.7517  1.4556  0.5896
 3230WAT     H2 9902   1.994   3.288   1.546  0.7757 -0.7701 -1.0813
 3231WAT      O 9903   0.374   0.562   2.480 -0.4685 -0.3099  0.6177
 3231WAT     H1 9904   0.398   0.606   2.562  0.2043  0.2238  0.1383
 3231WAT     H2 9905   0.441   0.588   2.418 -0.8540 -0.8910 -0.0567
 3232WAT      O 9906   4.186   0.364   1.357  0.4836 -0.4159  0.1321
 3232WAT     H1 9907   4.261   0.317   1.393  1.2136  0.4957 -0.1290
 3232WAT     H2 9908   4.219   0.453   1.342 -0.7120  0.0615  0.1925
 3233WAT      O 9909   2.445   4.376   3.050  0.2261  0.3962 -0.1661
 3233WAT     H1 9910   2.428   4.282   3.053  0.9898  0.2452 -0.2941
 3233WAT     H2 9911   2.401   4.411   3.127 -0.3159 -0.0196 -0.2791
 3234WAT      O 9912   1.415   3.128   5.068 -0.1445 -0.1077 -0.7470
 3234WAT     H1 9913   1.381   3.210   5.104  0.3072 -0.0430 -0.4615
 3234WAT     H2 9914   1.339   3.071   5.060 -0.2923 -0.0200  0.0353
 3235WAT      O 9915   3.405   1.982   1.457  0.2758  0.3883  0.1505
 3235WAT     H1 9916   3.346   1.907   1.459  0.7679 -0.0183 -0.5164
 3235WAT     H2 9917   3.402   2.017   1.547 -0.9633  0.3725  0.1333
 3236WAT      O 9918   0.431   0.540   0.848  0.5180 -0.2856  0.4882
 3236WAT     H1 9919   0.456   0.603   0.781 -2.0574  2.9578  2.2208
 3236WAT     H2 9920   0.500   0.546   0.914 -1.3696  4.1746  2.5307
 3237WAT      O 9921   2.863   1.220   5.221  0.2658 -0.4077  0.7115
 3237WAT     H1 9922   2.806   1.155   5.260 -1.1114  0.6762  0.5663
 3237WAT     H2 9923   2.806   1.270   5.162  1.3096  0.8430  0.7223
 3238WAT      O 9924   3.176   1.878   2.517 -0.2971 -0.1777 -0.2329
 3238WAT     H1 9925   3.149   1.954   2.569  1.6117  1.7067 -1.7784
 3238WAT     H2 9926   3.240   1.833   2.572  0.2380  0.6637 -0.1370
 3239WAT      O 9927   1.005   3.329   5.092 -0.1443 -0.8304 -0.2236
 3239WAT     H1 9928   1.034   3.277   5.167  1.2221  0.5895  0.2928
 3239WAT     H2 9929   1.045   3.286   5.016  2.6628  0.4951  0.3791
 3240WAT      O 9930   2.719   2.614   4.187 -0.0710 -0.2349 -0.4593
 3240WAT     H1 9931   2.781   2.573   4.247 -0.1575 -0.5222 -0.5635
 3240WAT     H2 9932   2.634   2.598   4.226 -0.0760  0.1923 -0.2974
 3241WAT      O 9933   4.241   4.434   3.564 -0.8035  0.1762  0.2502
 3241WAT     H1 9934   4.229   4.369   3.634 -0.6668  0.7631  0.8341
 3241WAT     H2 9935   4.155   4.475   3.556 -0.8793 -0.0487 -0.0909
 3242WAT      O 9936   1.308   0.549   0.799  0.3016  0.0451 -0.1736
 3242WAT     H1 9937   1.305   0.489   0.874  0.2021 -0.0451 -0.2483
 3242WAT     H2 9938   1.226   0.532   0.753  0.9306 -0.8082 -1.0057
 3243WAT      O 9939   2.530   0.359   1.203 -0.4721 -0.3331  0.4360
 3243WAT     H1 9940   2.474   0.323   1.272 -0.7843  1.3216  1.1179
 3243WAT     H2 9941   2.468   0.396   1.140 -0.1834  0.5100  0.6283
 3244WAT      O 9942   1.466   4.635   3.358  0.4499  0.3057 -0.2392
 3244WAT     H1 9943   1.556   4.611   3.336  0.0742 -1.5163  0.0437
 3244WAT     H2 9944   1.471   4.668   3.448  0.8156  0.0752 -0.1747
 3245WAT      O 9945   0.971   4.536   3.365  0.4980  0.4038 -0.1729
 3245WAT     H1 9946   0.987   4.592   3.441 -1.0354  0.6401  0.0146
 3245WAT     H2 9947   1.053   4.488   3.353  1.3805  1.6890  0.4967
 3246WAT      O 9948   3.134   1.172   0.350  0.1025  0.4483  0.0216
 3246WAT     H1 9949   3.176   1.185   0.265  1.1877  2.1556  0.7581
 3246WAT     H2 9950   3.128   1.260   0.387 -3.1222  0.1377  0.4743
 3247WAT      O 9951   3.230   0.325   1.197 -0.2827 -0.3463 -0.2866
 3247WAT     H1 9952   3.228   0.339   1.292 -0.8746 -1.2838 -0.1413
 3247WAT     H2 9953   3.304   0.377   1.166  0.6041 -0.9126  0.8379
 3248WAT      O 9954   2.908   0.128   3.880 -0.1681  0.1163  0.1992
 3248WAT     H1 9955   2.980   0.102   3.823 -0.2823 -1.1474  0.6111
 3248WAT     H2 9956   2.943   0.118   3.969 -0.3815  0.9145  0.3785
 3249WAT      O 9957   3.922   2.034   2.768  0.2353  0.4101 -0.1561
 3249WAT     H1 9958   3.936   1.998   2.856 -1.4301  4.1022  1.8310
 3249WAT     H2 9959   3.841   1.994   2.738  1.5624 -2.0074 -0.8249
 3250WAT      O 9960   3.703   1.719   3.199  0.0549  0.2214 -0.0938
 3250WAT     H1 9961   3.730   1.650   3.139 -1.2450  2.5444 -3.6932
 3250WAT     H2 9962   3.631   1.681   3.249  1.1346 -1.7948  0.0340
 3251WAT      O 9963   4.456   1.016   0.181  0.3917 -1.0059 -0.2785
 3251WAT     H1 9964   4.443   1.084   0.246  0.0558 -0.0879 -1.2892
 3251WAT     H2 9965   4.551   1.000   0.182  0.4960 -0.3809 -0.1920
 3252WAT      O 9966   3.297   1.152   2.076 -0.1237 -0.2313 -0.2814
 3252WAT     H1 9967   3.372   1.100   2.047 -0.8036 -1.2241 -0.3376
 3252WAT     H2 9968   3.292   1.225   2.015  0.1392 -0.7693 -0.9571
 3253WAT      O 9969   4.120   1.278   1.219 -0.2117  0.4820  0.4872
 3253WAT     H1 9970   4.167   1.264   1.302  2.6298 -0.0613 -1.0876
 3253WAT     H2 9971   4.104   1.372   1.216 -0.0494  0.5531  1.4925
 3254WAT      O 9972   3.730   4.236   5.068 -0.2743  0.2997 -0.4868
 3254WAT     H1 9973   3.792   4.219   4.996  0.0164 -1.4160  0.1162
 3254WAT     H2 9974   3.658   4.175   5.052  1.0614 -2.1783  2.0999
 3255WAT      O 9975   1.142   2.797   1.025  0.0594 -0.7202 -0.5374
 3255WAT     H1 9976   1.053   2.819   1.053  0.0720 -1.4500  0.1112
 3255WAT     H2 9977   1.166   2.722   1.079  0.9704 -0.7016 -0.9016
 3256WAT      O 9978   0.270   2.819   4.894  0.5568  0.3591 -0.5593
 3256WAT     H1 9979   0.199   2.832   4.832 -0.9881 -0.5705  0.9283
 3256WAT     H2 9980   0.312   2.738   4.867  1.5164  1.2271 -1.8111
 3257WAT      O 9981   2.289   1.834   4.816  0.0736  0.7258  0.3240
 3257WAT     H1 9982   2.316   1.884   4.738 -1.1605  0.2090 -0.4568
 3257WAT     H2 9983   2.204   1.871   4.840  0.7714  1.3793  1.8950
 3258WAT      O 9984   1.943   3.700   0.318 -0.2917 -0.3331  0.5663
 3258WAT     H1 9985   1.951   3.786   0.276 -1.6727 -0.3894  0.1441
 3258WAT     H2 9986   1.849   3.689   0.331  0.0214 -0.5989  3.1219
 3259WAT      O 9987   1.652   0.245   2.394  0.2036  0.0306  0.0021
 3259WAT     H1 9988   1.691   0.333   2.398 -0.9913  0.6243 -0.8588
 3259WAT     H2 9989   1.616   0.232   2.482  0.1725  0.5000  0.0654
 3260WAT      O 9990   0.137   0.486   0.324  0.4648 -0.7915 -0.5126
 3260WAT     H1 9991   0.136   0.393   0.349  0.4645 -0.7224 -0.2532
 3260WAT     H2 9992   0.055   0.521   0.360 -0.0768 -0.9394 -1.5706
 3261WAT      O 9993   4.195   4.323   3.798 -0.1296 -0.3967 -0.4334
 3261WAT     H1 9994   4.105   4.322   3.831  0.2637 -0.3930  0.6909
 3261WAT     H2 9995   4.230   4.408   3.825  0.6168 -0.9253  0.3302
 3262WAT      O 9996   0.120   1.491   1.286  0.0644 -0.0905 -0.2134
 3262WAT     H1 9997   0.121   1.542   1.205  0.7498  0.4292  0.1136
 3262WAT     H2 9998   0.181   1.537   1.344 -1.0580  0.0410  0.9032
 3263WAT      O 9999   2.175   2.482   3.468 -0.0592  0.4578 -0.3774
 3263WAT     H110000   2.157   2.562   3.419  0.2768  0.3518 -0.6796
 3263WAT     H210001   2.093   2.462   3.513  0.2289  1.6946  0.7669
 3264WAT      O10002   2.965   2.950   5.243  0.3835 -0.0058 -0.0408
 3264WAT     H110003   2.973   2.944   5.148 -0.6565 -1.2459 -0.0775
 3264WAT     H210004   2.876   2.922   5.262  0.7145 -0.2189  1.3449
 3265WAT      O10005   2.294   3.113   4.245  0.2452 -0.2354  0.3471
 3265WAT     H110006   2.268   3.047   4.310  2.1923 -2.3441 -0.8659
 3265WAT     H210007   2.332   3.184   4.298 -1.4694 -0.2219  1.6653
 3266WAT      O10008   2.917   1.498   0.061 -0.5900 -0.1494 -0.1980
 3266WAT     H110009   2.870   1.445   0.125 -0.4717 -0.3974 -0.3158
 3266WAT     H210010   2.895   1.460  -0.024  1.4389 -1.6175 -0.1565
 3267WAT      O10011   0.633   1.908   3.963 -0.2944  0.0742  0.1542
 3267WAT     H110012   0.622   1.982   3.904  0.0363  0.5177  0.6452
 3267WAT     H210013   0.559   1.915   4.024  1.3297  1.7671  2.0701
 3268WAT      O10014   3.281   2.771   0.303 -0.1480 -0.1682  0.7727
 3268WAT     H110015   3.302   2.796   0.213  0.6105 -1.4964  0.5542
 3268WAT     H210016   3.283   2.854   0.352  0.3447  0.4474 -0.2552
 3269WAT      O10017   3.105   4.774   2.326  0.4833  0.1361 -0.0721
 3269WAT     H110018   3.066   4.834   2.263 -0.3189 -0.6656 -0.3582
 3269WAT     H210019   3.097   4.820   2.410 -1.2811 -0.0788 -0.0863
 3270WAT      O10020   3.178   4.057   1.765 -0.5946 -0.0092  0.0605
 3270WAT     H110021   3.265   4.034   1.731  0.8093  3.2525  1.0301
 3270WAT     H210022   3.139   4.111   1.697 -1.0510  0.1462  0.4410
 3271WAT      O10023   3.627   2.818   1.228  0.4838 -0.0753  0.3619
 3271WAT     H110024   3.685   2.883   1.268 -0.4514 -0.1242  1.8261
 3271WAT     H210025   3.659   2.734   1.260 -0.2743 -0.1151  1.0346
 3272WAT      O10026   2.537   0.592   4.189 -0.0719 -0.4823  0.1124
 3272WAT     H110027   2.495   0.521   4.140  0.2007  0.0206 -0.8776
 3272WAT     H210028   2.543   0.559   4.279 -2.2820 -0.6972  0.2399
 3273WAT      O10029   1.314   1.439   1.786 -0.1440  0.1575 -0.1013
 3273WAT     H110030   1.313   1.396   1.871 -0.3719 -0.2464 -0.3013
 3273WAT     H210031   1.406   1.446   1.763 -0.0969 -0.0519  0.0219
 3274WAT      O10032   2.495   3.039   2.219  0.2229  0.4254 -0.2660
 3274WAT     H110033   2.541   3.082   2.290 -0.5869  1.4206 -0.3210
 3274WAT     H210034   2.433   2.980   2.262  0.3464  0.3650 -0.1705
 3275WAT      O10035   2.777   2.600   3.884 -0.2200 -0.3192 -0.3034
 3275WAT     H110036   2.837   2.673   3.874  1.8042 -1.8046  0.2865
 3275WAT     H210037   2.751   2.603   3.976  0.0881 -0.4958 -0.2093
 3276WAT      O10038   1.628   2.178   5.115 -0.3047  0.2672 -0.0579
 3276WAT     H110039   1.597   2.122   5.186 -2.4104  0.8544 -0.4204
 3276WAT     H210040   1.563   2.248   5.111  0.4815  0.9504 -1.7299
 3277WAT      O10041   1.807   2.642   0.072  0.5828  0.2932  0.1948
 3277WAT     H110042   1.766   2.570   0.119  0.1138 -0.3357 -1.1387
 3277WAT     H210043   1.900   2.637   0.096  1.0767 -2.3808 -1.8004
 3278WAT      O10044   3.318   1.267   3.860 -0.1557 -0.6914  0.3493
 3278WAT     H110045   3.286   1.357   3.869 -0.5637 -0.9450  1.7071
 3278WAT     H210046   3.329   1.255   3.766 -0.4160  0.6638  0.1178
 3279WAT      O10047   3.839   0.293   3.900 -0.4675 -0.3815 -0.2147
 3279WAT     H110048   3.921   0.340   3.884 -1.2142  0.3788 -2.0860
 3279WAT     H210049   3.847   0.213   3.847  0.3032 -1.9082  2.0375
 3280WAT      O10050   0.687   5.082   1.877 -0.4865 -0.4760  0.2612
 3280WAT     H110051   0.701   5.049   1.788  0.0306 -1.2549  0.6161
 3280WAT     H210052   0.614   5.030   1.910 -1.6298  0.8037 -0.1913
 3281WAT      O10053   2.076   0.364   3.485 -0.2480 -0.2506 -0.3626
 3281WAT     H110054   2.017   0.426   3.528 -0.2839 -0.3902 -0.2054
 3281WAT     H210055   2.035   0.346   3.401  1.2242  2.1711 -1.6990
 3282WAT      O10056   3.338   1.901   2.312  0.6706  1.2548  0.6460
 3282WAT     H110057   3.370   1.991   2.307 -0.4220  1.5970 -0.6756
 3282WAT     H210058   3.273   1.902   2.382  1.1332  1.3295  1.0778
 3283WAT      O10059   4.191   3.117   3.960  0.5101  0.2219  0.7942
 3283WAT     H110060   4.150   3.187   4.011  3.8303  1.4598  2.0817
 3283WAT     H210061   4.238   3.065   4.025  0.6525 -1.3078 -0.4911
 3284WAT      O10062   3.110   3.182   0.621  0.2419  0.9746  0.0976
 3284WAT     H110063   3.146   3.244   0.685 -0.1012  1.4306 -0.1451
 3284WAT     H210064   3.016   3.196   0.624  0.1347  0.2466  0.2531
 3285WAT      O10065   1.431   0.712   0.975  0.9393  0.4086 -0.5989
 3285WAT     H110066   1.386   0.690   1.057  2.1018 -0.7030 -0.2326
 3285WAT     H210067   1.379   0.669   0.907  0.9302 -0.1217 -0.2646
 3286WAT      O10068   4.267   2.313   1.628  0.6705  0.3123 -0.1084
 3286WAT     H110069   4.244   2.388   1.573 -1.5105  0.6266  1.1137
 3286WAT     H210070   4.334   2.347   1.688  0.5887  0.9444 -0.3669
 3287WAT      O10071   0.133   3.399   4.365  0.1694  0.0999  0.1061
 3287WAT     H110072   0.127   3.399   4.460  2.1015  0.7343  0.2656
 3287WAT     H210073   0.134   3.306   4.341 -4.0766 -0.1796  0.3135
 3288WAT      O10074   3.565   4.598   1.078  0.3173 -0.6091  0.1631
 3288WAT     H110075   3.556   4.661   1.150 -0.5465 -0.9841  0.3956
 3288WAT     H210076   3.658   4.576   1.077  0.8961  1.5384 -0.6595
 3289WAT      O10077   4.307   0.331   3.653 -0.8021  0.3261  0.0478
 3289WAT     H110078   4.323   0.264   3.587 -1.6062 -1.2643  1.4046
 3289WAT     H210079   4.394   0.356   3.684 -0.4839  0.2368 -0.7431
 3290WAT      O10080   2.884   0.687   2.931  0.3865 -0.1859 -0.0162
 3290WAT     H110081   2.955   0.624   2.922  0.8287 -0.0180  1.8649
 3290WAT     H210082   2.920   0.770   2.900  0.5129 -0.4042 -0.4530
 3291WAT      O10083   3.878   0.227   1.776  0.2392 -0.0313 -0.3775
 3291WAT     H110084   3.914   0.260   1.694 -0.5610 -0.7915 -1.0549
 3291WAT     H210085   3.852   0.305   1.825 -1.2056  0.3736 -1.7424
 3292WAT      O10086   3.629   3.707   4.966 -0.0638 -0.4018  0.0688
 3292WAT     H110087   3.675   3.624   4.978 -0.3329 -0.4938  0.5315
 3292WAT     H210088   3.561   3.688   4.902  0.5794 -0.2461 -0.6680
 3293WAT      O10089   3.050   0.915   5.177  0.1315 -0.1571 -0.0865
 3293WAT     H110090   2.957   0.935   5.167  0.7209  2.6901 -1.0758
 3293WAT     H210091   3.053   0.822   5.199 -3.0118 -0.0022  1.6627
 3294WAT      O10092   0.301   0.432   2.115 -0.4029  0.0262 -0.1281
 3294WAT     H110093   0.208   0.451   2.100 -0.3679  0.7537  0.4567
 3294WAT     H210094   0.301   0.352   2.167 -0.6962 -0.1541 -0.4069
 3295WAT      O10095   2.379   0.295   2.759 -0.1577 -0.0882 -0.5854
 3295WAT     H110096   2.404   0.225   2.698  0.4386 -0.3175 -0.0824
 3295WAT     H210097   2.297   0.330   2.722 -0.8343 -1.4821 -0.4802
 3296WAT      O10098   1.614   0.400   1.248  0.5906  0.7837  0.9671
 3296WAT     H110099   1.566   0.412   1.330  0.7439  1.6828  0.9291
 3296WAT     H210100   1.696   0.447   1.260  1.4374 -0.6237  0.9719
 3297WAT      O10101   2.296   4.410   0.638  0.3384 -0.6832  0.0414
 3297WAT     H110102   2.345   4.416   0.721 -0.9733 -3.1066  1.0738
 3297WAT     H210103   2.330   4.332   0.596 -0.3665 -0.5328 -0.8187
 3298WAT      O10104   3.734   1.003   0.027  0.3638  0.1008  0.1940
 3298WAT     H110105   3.799   1.000  -0.044  1.9434  1.2163  1.5197
 3298WAT     H210106   3.768   1.069   0.088 -2.2965  1.1267  0.7245
 3299WAT      O10107   1.109   2.328   3.728  0.7151 -0.2475 -0.5181
 3299WAT     H110108   1.020   2.361   3.737  0.9008  0.0092  0.5000
 3299WAT     H210109   1.098   2.234   3.717  0.2915 -0.1429 -1.0236
 3300WAT      O10110   2.461   2.160   2.797  0.2988 -0.6426  0.0489
 3300WAT     H110111   2.443   2.243   2.753 -0.3927 -0.4400  0.6878
 3300WAT     H210112   2.460   2.094   2.727 -2.1976 -0.5459 -0.1088
 3301WAT      O10113   2.551   3.303   0.424 -0.2561  0.2068 -0.5949
 3301WAT     H110114   2.569   3.223   0.373  2.5229 -0.5460  1.3584
 3301WAT     H210115   2.585   3.374   0.369  2.0942 -0.5259 -0.1886
 3302WAT      O10116   4.488   4.998   5.017 -0.8647 -0.1001  0.4843
 3302WAT     H110117   4.404   5.024   5.053 -0.5977  0.3042  0.8231
 3302WAT     H210118   4.551   5.017   5.087 -0.4587 -0.1415  0.1339
 3303WAT      O10119   0.926   0.293   4.307  0.1557 -0.1329 -0.2982
 3303WAT     H110120   0.906   0.201   4.325 -1.2049  0.5657  2.3253
 3303WAT     H210121   0.995   0.290   4.242 -0.8151 -2.9749 -1.3691
 3304WAT      O10122   4.007   4.213   1.367 -0.1334 -0.6227  0.0163
 3304WAT     H110123   4.042   4.151   1.431 -1.8084  1.6930  3.4571
 3304WAT     H210124   3.914   4.222   1.390 -0.6412  0.9680 -2.2821
 3305WAT      O10125   3.514   2.679   3.690 -0.4309  0.4100  0.1598
 3305WAT     H110126   3.474   2.639   3.613  0.4864 -1.1136  0.4231
 3305WAT     H210127   3.522   2.607   3.753  2.6492  0.5990  0.1400
 3306WAT      O10128   1.906   4.291   1.657  0.5590  0.1654 -0.3676
 3306WAT     H110129   1.873   4.273   1.745 -1.0139  0.5211 -0.8386
 3306WAT     H210130   1.865   4.224   1.602  1.1152  0.2551 -0.8940
 3307WAT      O10131   3.634   4.953   2.901  0.3999 -0.4509 -0.3342
 3307WAT     H110132   3.698   4.995   2.958 -2.3955  3.0176  0.5444
 3307WAT     H210133   3.580   4.899   2.959  0.1700 -0.3350 -0.4387
 3308WAT      O10134   1.804   0.152   0.392  0.0120  0.1038 -0.0293
 3308WAT     H110135   1.873   0.087   0.380 -0.4370 -0.2974 -0.4889
 3308WAT     H210136   1.850   0.234   0.410  0.5950 -0.2267 -0.0076
 3309WAT      O10137   3.030   2.880   1.399  0.0005  0.5867 -0.1951
 3309WAT     H110138   3.020   2.975   1.398  0.7371  0.6688 -0.4319
 3309WAT     H210139   3.071   2.859   1.314  0.7944  0.1827  0.2690
 3310WAT      O10140   1.859   0.922   1.465  0.1242  0.9934 -0.4740
 3310WAT     H110141   1.914   0.999   1.482 -0.4502  1.2724  0.1868
 3310WAT     H210142   1.820   0.902   1.550 -3.4182  2.8311 -1.4749
 3311WAT      O10143   3.863   3.595   1.381 -0.4680  0.3348  0.3065
 3311WAT     H110144   3.773   3.607   1.411 -1.2358  0.8869 -1.9971
 3311WAT     H210145   3.857   3.604   1.286  1.9851  0.0519  0.0798
 3312WAT      O10146   4.319   4.333   4.842 -0.2301 -0.0267 -0.1178
 3312WAT     H110147   4.401   4.370   4.876  0.1292  1.0308 -2.0333
 3312WAT     H210148   4.254   4.355   4.909  0.8275  0.1005  0.9017
 3313WAT      O10149   0.303   4.740   0.003 -0.2262  0.1076  0.0165
 3313WAT     H110150   0.259   4.825   0.009  0.4752  0.5188 -0.5224
 3313WAT     H210151   0.248   4.681   0.054 -0.7217  0.8871  0.4016
 3314WAT      O10152   4.252   4.275   2.973 -0.2317  0.0328  0.7207
 3314WAT     H110153   4.340   4.282   3.010 -0.1924 -0.8865  0.8168
 3314WAT     H210154   4.211   4.202   3.020  0.1972 -1.9458 -1.7429
 3315WAT      O10155   1.947   1.749   4.046 -0.0491 -0.4036  0.6228
 3315WAT     H110156   1.852   1.737   4.043 -0.2531  1.1743  0.0430
 3315WAT     H210157   1.960   1.827   4.100  0.7372  0.9340 -1.4130
 3316WAT      O10158   4.091   4.821   4.099  0.1005  0.5816  0.6350
 3316WAT     H110159   3.998   4.828   4.122  0.2911  1.9273  1.0916
 3316WAT     H210160   4.136   4.815   4.183  0.4575  0.3473  0.4299
 3317WAT      O10161   1.836   1.480   2.207 -1.0750  0.3596  0.3301
 3317WAT     H110162   1.765   1.435   2.162 -0.5683  0.2710 -0.4093
 3317WAT     H210163   1.814   1.474   2.300 -2.0245  0.3334  0.1099
 3318WAT      O10164   3.700   4.477   4.598  0.1656  0.2236 -0.0612
 3318WAT     H110165   3.762   4.523   4.655  0.5856  0.7272 -0.8821
 3318WAT     H210166   3.619   4.528   4.604  0.2138  0.2830  0.0747
 3319WAT      O10167   2.828   3.573   3.077 -0.1226  0.3744 -0.3221
 3319WAT     H110168   2.782   3.579   3.161 -0.0244 -1.2194 -0.1110
 3319WAT     H210169   2.920   3.556   3.102  0.0962  0.9150 -0.7487
 3320WAT      O10170   3.879   4.729   2.706 -0.0900  0.4810 -0.5528
 3320WAT     H110171   3.851   4.815   2.676 -0.9036  0.6902  0.7285
 3320WAT     H210172   3.830   4.715   2.787  1.4185 -0.3738  0.2637
 3321WAT      O10173   1.527   1.235   1.624  0.5149 -0.5975 -0.2023
 3321WAT     H110174   1.556   1.145   1.644  2.3473 -0.0192 -0.0322
 3321WAT     H210175   1.540   1.283   1.705  0.2628 -0.0202 -0.4985
 3322WAT      O10176   1.489   2.708   4.750  0.1255 -0.4539  0.3595
 3322WAT     H110177   1.509   2.746   4.664 -0.2634 -0.4161  0.2829
 3322WAT     H210178   1.468   2.783   4.805 -2.7249 -0.6161 -0.3345
 3323WAT      O10179   2.257   0.054   2.075  0.0473  0.9366  0.2324
 3323WAT     H110180   2.261  -0.041   2.080  2.6368  1.0129  1.2323
 3323WAT     H210181   2.180   0.073   2.021 -0.1760 -1.7121 -0.4704
 3324WAT      O10182   1.144   2.557   0.756 -0.4272 -0.5303  0.0118
 3324WAT     H110183   1.113   2.543   0.846 -0.3616 -0.9564 -0.0269
 3324WAT     H210184   1.064   2.575   0.706 -0.3342  0.9751  0.3770
 3325WAT      O10185   2.846   2.243   4.238 -0.1626  0.1904  0.0403
 3325WAT     H110186   2.886   2.277   4.158  1.4505  1.1147  1.1637
 3325WAT     H210187   2.830   2.151   4.219  1.3270  0.0906 -0.9690
 3326WAT      O10188   2.043   2.668   2.344 -0.5890 -0.2474 -0.3695
 3326WAT     H110189   1.995   2.703   2.269 -0.0531 -1.8245 -1.5226
 3326WAT     H210190   2.088   2.591   2.309  1.8629  0.4784  0.9256
 3327WAT      O10191  -0.021   1.397   2.887 -0.0367  0.1004 -0.5945
 3327WAT     H110192  -0.031   1.360   2.799  0.9072 -1.4741 -0.0721
 3327WAT     H210193   0.071   1.422   2.893 -0.0469  0.0181  0.0034
 3328WAT      O10194   0.853   0.444   1.806  0.1242  0.0008  0.6008
 3328WAT     H110195   0.761   0.433   1.780 -0.0357  1.6102  0.3675
 3328WAT     H210196   0.886   0.355   1.817 -1.2276 -0.6214 -0.1428
 3329WAT      O10197   3.678   2.434   2.155  0.2202  0.3255  0.2318
 3329WAT     H110198   3.672   2.483   2.073  1.2462  2.1759  1.1910
 3329WAT     H210199   3.602   2.463   2.206  1.3628  1.8347  1.2005
 3330WAT      O10200   1.178   4.761   1.526 -0.0742 -0.5135 -0.0098
 3330WAT     H110201   1.178   4.671   1.559 -2.3730  0.0330  1.7772
 3330WAT     H210202   1.120   4.759   1.450  0.9145 -0.7366 -0.7859
 3331WAT      O10203   0.892   3.668   3.895  0.2891  0.0477 -0.3187
 3331WAT     H110204   0.801   3.697   3.886  0.2539  0.7049  1.6621
 3331WAT     H210205   0.886   3.585   3.943  0.7374  0.1167 -0.1383
 3332WAT      O10206   1.459   2.579   3.641  0.0767  0.1117 -0.3325
 3332WAT     H110207   1.509   2.531   3.576  1.8456 -0.2779  1.2364
 3332WAT     H210208   1.469   2.671   3.617  2.6135  0.1470  0.5619
 3333WAT      O10209   1.891   1.649   0.507  0.0218  0.1715 -0.4735
 3333WAT     H110210   1.852   1.726   0.465  1.5014  1.8942  1.1286
 3333WAT     H210211   1.852   1.646   0.594 -0.1398 -1.0173 -0.5725
 3334WAT      O10212   2.931   4.387   4.125  0.4396  0.8440 -0.2923
 3334WAT     H110213   2.944   4.400   4.032  2.2483 -0.1375 -0.2305
 3334WAT     H210214   2.887   4.302   4.132 -0.4105  1.2751 -0.2594
 3335WAT      O10215   1.185   1.451   1.030 -0.0150  0.2778  0.0195
 3335WAT     H110216   1.158   1.531   1.075  0.6238  0.0310  0.8561
 3335WAT     H210217   1.261   1.420   1.079  0.4321 -0.2356 -0.9708
 3336WAT      O10218   4.245   3.844   3.438 -0.5346  0.1262  0.1473
 3336WAT     H110219   4.198   3.831   3.520  0.9209 -0.6382  0.9059
 3336WAT     H210220   4.317   3.904   3.462 -0.4740  0.4095 -0.7231
 3337WAT      O10221   3.324   4.714   4.272 -0.0930 -0.2986 -0.3406
 3337WAT     H110222   3.238   4.674   4.257 -0.7188  0.4927  0.9622
 3337WAT     H210223   3.348   4.750   4.187 -1.9110  1.0588 -0.3524
 3338WAT      O10224   3.730   4.867   4.456 -0.0804 -0.0705  0.4061
 3338WAT     H110225   3.644   4.826   4.445 -0.0860  0.3702 -1.4401
 3338WAT     H210226   3.711   4.955   4.487 -0.3557  0.2143 -0.5313
 3339WAT      O10227   2.247   0.659   1.030  0.2056 -0.3000  0.4641
 3339WAT     H110228   2.342   0.668   1.033  0.1204  1.9410 -0.9949
 3339WAT     H210229   2.215   0.748   1.011 -2.3416 -0.5189  3.0122
 3340WAT      O10230   2.248   0.014   4.853  0.0196  0.2402 -0.8038
 3340WAT     H110231   2.163   0.053   4.829 -0.0903  0.0366 -0.7466
 3340WAT     H210232   2.311   0.058   4.795 -0.0772  0.6378 -0.6111
 3341WAT      O10233   0.842   1.392   2.632  0.0954  0.2486  0.3714
 3341WAT     H110234   0.784   1.393   2.556  0.5319  1.8574  0.0286
 3341WAT     H210235   0.799   1.332   2.693 -0.4681 -0.7761 -0.9678
 3342WAT      O10236   1.664   1.480   2.429  0.3572  0.6064  0.2733
 3342WAT     H110237   1.581   1.478   2.476 -0.6700 -1.3230 -1.4402
 3342WAT     H210238   1.719   1.416   2.475  0.6785  1.3868  0.9964
 3343WAT      O10239   2.961   2.281   2.713 -0.0393  0.2123  0.1077
 3343WAT     H110240   3.021   2.211   2.687 -1.4664 -1.4835  1.1845
 3343WAT     H210241   2.978   2.293   2.806 -0.8596  0.2300  0.2553
 3344WAT      O10242   0.651   4.372   1.371 -0.1954  0.0889  0.1342
 3344WAT     H110243   0.701   4.305   1.325 -0.5262 -0.8400  1.0743
 3344WAT     H210244   0.564   4.368   1.332 -0.0362  0.4352 -0.2592
 3345WAT      O10245   1.569   2.475   3.404  0.1197  0.1635 -0.1134
 3345WAT     H110246   1.630   2.545   3.380  2.1440 -0.9974  1.2985
 3345WAT     H210247   1.570   2.415   3.330  0.1280  0.5205 -0.4037
 3346WAT      O10248   1.863   2.538   4.159 -0.0972 -0.2030 -0.3891
 3346WAT     H110249   1.795   2.605   4.159 -1.5908 -1.5752 -2.4317
 3346WAT     H210250   1.832   2.471   4.220 -0.5144 -0.7172 -1.1416
 3347WAT      O10251   3.448   0.653   0.199  0.2391  0.1830  0.2611
 3347WAT     H110252   3.443   0.745   0.172 -1.0104  0.1968  0.4725
 3347WAT     H210253   3.415   0.653   0.289  1.2662 -0.3255  0.6396
 3348WAT      O10254   0.133   3.166   3.121  0.1976  0.4334 -0.1671
 3348WAT     H110255   0.120   3.238   3.183  0.4092  0.2294  0.1190
 3348WAT     H210256   0.162   3.092   3.176 -0.1669  0.0869 -0.4336
 3349WAT      O10257   1.598   2.199   2.986 -0.1325  0.6461  0.2292
 3349WAT     H110258   1.516   2.150   2.987  0.1712  0.1527  1.1156
 3349WAT     H210259   1.598   2.249   3.068  0.9431 -0.1880  0.7662
 3350WAT      O10260   0.163   4.937   0.882 -0.3294  0.1200  0.0251
 3350WAT     H110261   0.135   5.008   0.939 -1.8594  0.6742 -1.3448
 3350WAT     H210262   0.112   4.949   0.802  1.0538 -1.1772 -1.1115
 3351WAT      O10263   3.410   3.006   5.149 -0.1098 -0.2568 -0.3833
 3351WAT     H110264   3.366   2.961   5.221 -1.1229  1.2473 -0.0181
 3351WAT     H210265   3.414   3.098   5.176  2.7703 -0.1936 -0.6739
 3352WAT      O10266   1.016   1.361   2.003 -0.1937  0.0177 -0.6834
 3352WAT     H110267   0.928   1.372   1.966 -0.5431 -2.2816 -0.6980
 3352WAT     H210268   1.053   1.288   1.954  1.3261  0.2530  0.0689
 3353WAT      O10269   0.767   2.920   3.787 -0.3028  0.0602 -0.1885
 3353WAT     H110270   0.784   2.947   3.697 -0.0361  0.5675  0.0098
 3353WAT     H210271   0.838   2.859   3.808 -0.1901  0.1829 -0.2159
 3354WAT      O10272   3.631   4.825   2.462 -0.3979  0.4633  0.1986
 3354WAT     H110273   3.617   4.874   2.543 -0.0050 -0.6187  0.9437
 3354WAT     H210274   3.587   4.741   2.476  1.2784 -0.4735  0.0537
 3355WAT      O10275   3.427   1.722   3.387 -0.0010 -0.8480  0.2845
 3355WAT     H110276   3.351   1.780   3.391  0.1997 -0.4751 -0.8790
 3355WAT     H210277   3.499   1.774   3.423 -0.2965 -1.2259  1.4514
 3356WAT      O10278   3.823   4.892   1.524 -0.2054  0.2226  0.2526
 3356WAT     H110279   3.837   4.954   1.595  0.3615  0.4024 -0.0091
 3356WAT     H210280   3.857   4.809   1.558  1.7733  0.7070 -0.4618
 3357WAT      O10281   3.859   2.025   3.981  1.0021  0.2288  0.1748
 3357WAT     H110282   3.902   2.004   3.898  2.2370  2.7886  0.0552
 3357WAT     H210283   3.767   2.005   3.966  1.4450 -0.9576 -1.2085
 3358WAT      O10284   3.459   0.388   0.382 -0.5649 -0.4850  0.0490
 3358WAT     H110285   3.478   0.349   0.297  0.7361 -2.3720  1.1452
 3358WAT     H210286   3.544   0.395   0.426 -1.4819 -2.8342  2.4882
 3359WAT      O10287   4.058   3.145   3.105 -0.0492  0.0680  0.3928
 3359WAT     H110288   4.012   3.069   3.140 -2.6198  0.1481 -2.3505
 3359WAT     H210289   4.139   3.109   3.068 -1.1616 -1.3681 -0.7666
 3360WAT      O10290   3.204   1.888   3.435 -0.1550  0.2531  0.4606
 3360WAT     H110291   3.122   1.872   3.387  0.0377  0.3654  0.0871
 3360WAT     H210292   3.203   1.982   3.452  0.4934  0.4906 -0.6788
 3361WAT      O10293   2.592   1.390   1.160  0.3850  0.5509 -0.1382
 3361WAT     H110294   2.583   1.456   1.229 -0.6824 -0.1554  0.4048
 3361WAT     H210295   2.685   1.395   1.135  0.3178  2.2918 -0.1516
 3362WAT      O10296   3.474   2.967   3.883  0.2126 -0.1619 -0.5808
 3362WAT     H110297   3.540   2.914   3.929 -0.7912 -0.7584  0.2174
 3362WAT     H210298   3.458   3.041   3.941  1.3204  0.8453 -1.5134
 3363WAT      O10299   3.982   3.779   3.937 -0.1572 -0.0007 -0.2003
 3363WAT     H110300   3.935   3.861   3.930  0.2329  0.4568  1.8971
 3363WAT     H210301   3.918   3.717   3.971 -0.1383 -0.2678 -0.6434
 3364WAT      O10302   0.625   0.417   2.408 -0.4789 -0.1569  0.2285
 3364WAT     H110303   0.602   0.503   2.372 -1.6798  0.1688  1.6725
 3364WAT     H210304   0.721   0.418   2.413 -0.5177  1.6571  1.4697
 3365WAT      O10305   0.148   3.121   2.559 -0.5132 -0.6200 -0.2355
 3365WAT     H110306   0.116   3.140   2.647  1.4818  0.5383  0.2909
 3365WAT     H210307   0.162   3.026   2.558 -0.1168 -0.5807  0.8572
 3366WAT      O10308   4.462   0.215   3.400 -0.0157 -0.1555 -0.5291
 3366WAT     H110309   4.376   0.191   3.366  0.4373 -0.0695 -1.7954
 3366WAT     H210310   4.523   0.157   3.354  0.7932  1.2429 -1.2907
 3367WAT      O10311   1.810   2.406   1.918 -0.2111  0.3058  0.3401
 3367WAT     H110312   1.800   2.409   2.013  0.8145  0.7002  0.4474
 3367WAT     H210313   1.788   2.316   1.895  1.9604 -0.5385  1.2743
 3368WAT      O10314   2.280   0.205   3.149  0.0045  0.0936 -0.2533
 3368WAT     H110315   2.354   0.159   3.110 -1.4093 -1.9092 -0.7494
 3368WAT     H210316   2.317   0.251   3.224  1.6834 -1.0805 -0.2980
 3369WAT      O10317   1.395   4.385   0.650 -1.2096  0.0553 -0.3978
 3369WAT     H110318   1.487   4.413   0.658 -0.4448 -2.5027  0.7114
 3369WAT     H210319   1.357   4.446   0.586  1.1108  1.5080 -0.5073
 3370WAT      O10320   3.784   3.976   2.562  0.1590  0.2633  0.0881
 3370WAT     H110321   3.718   4.044   2.549  0.0410  0.5792  2.0757
 3370WAT     H210322   3.859   4.006   2.511 -0.0342  1.6745  0.6006
 3371WAT      O10323   3.811   0.578   3.564  0.7815  0.2722 -0.0858
 3371WAT     H110324   3.795   0.656   3.511 -0.1860  0.3041  0.2478
 3371WAT     H210325   3.738   0.520   3.545  1.3848 -0.4858 -0.1722
 3372WAT      O10326   2.903   1.049   3.052 -0.1614  0.0114  0.2045
 3372WAT     H110327   2.939   1.038   2.964  1.1119  1.7343  0.4613
 3372WAT     H210328   2.912   0.962   3.093 -0.2898 -0.6714 -1.1633
 3373WAT      O10329   1.474   0.522   3.741 -0.1376 -0.1506 -0.1536
 3373WAT     H110330   1.427   0.456   3.691 -0.5129  0.9421 -1.3159
 3373WAT     H210331   1.407   0.561   3.798  0.3720 -1.6656  1.5741
 3374WAT      O10332   4.250   3.500   4.611 -0.8596 -0.3391  0.5505
 3374WAT     H110333   4.230   3.418   4.566  3.1196 -0.7979 -0.7482
 3374WAT     H210334   4.239   3.567   4.543  0.7534 -0.4805  0.1146
 3375WAT      O10335   1.840   3.109   3.785 -0.4249 -0.1325  0.2515
 3375WAT     H110336   1.869   3.072   3.868 -0.5184  0.6680  0.6486
 3375WAT     H210337   1.779   3.179   3.809 -0.3530  0.1993 -0.4829
 3376WAT      O10338   1.131   1.924   4.406  0.1835  0.1099 -0.2576
 3376WAT     H110339   1.152   1.919   4.500  3.2292  0.3217 -0.8189
 3376WAT     H210340   1.083   1.844   4.387 -0.7422  0.1962  1.5039
 3377WAT      O10341   1.046   4.640   1.941  0.4602  0.5056 -0.3713
 3377WAT     H110342   1.031   4.555   1.900 -0.5496  0.5203 -0.0456
 3377WAT     H210343   1.141   4.651   1.938  0.7222 -1.1907  0.6770
 3378WAT      O10344   0.470   0.831   3.723 -0.1314 -0.0322  0.4246
 3378WAT     H110345   0.547   0.786   3.689  1.1526  1.7842  0.7880
 3378WAT     H210346   0.445   0.780   3.800  1.0379 -0.3413  0.6221
 3379WAT      O10347   4.278   4.794   4.296  1.0582  0.2374 -0.0239
 3379WAT     H110348   4.358   4.754   4.330  0.9186 -0.3693 -0.4013
 3379WAT     H210349   4.268   4.874   4.348  1.9300  0.3446  0.0011
 3380WAT      O10350   0.752   3.663   1.566 -0.4272  0.4495  0.7259
 3380WAT     H110351   0.827   3.610   1.594 -0.1878 -0.0636 -0.7658
 3380WAT     H210352   0.730   3.628   1.479 -1.4316  1.6089  0.4917
 3381WAT      O10353   1.905   4.936   3.584  0.4183 -0.2648  0.4460
 3381WAT     H110354   1.968   5.006   3.603 -0.5375  1.4579 -2.2395
 3381WAT     H210355   1.959   4.866   3.548  1.0797  0.2389  0.4167
 3382WAT      O10356   4.287   1.475   0.473  0.1823  0.1726  0.1956
 3382WAT     H110357   4.236   1.484   0.553 -0.7921  0.9381 -0.4863
 3382WAT     H210358   4.309   1.566   0.449 -0.0154 -0.0045 -0.6961
 3383WAT      O10359   1.817   2.814   4.315 -0.3413  0.2773 -0.1198
 3383WAT     H110360   1.841   2.819   4.407 -2.7178 -2.3206  0.7997
 3383WAT     H210361   1.890   2.854   4.269  1.2547  1.0681  2.8296
 3384WAT      O10362   2.205   3.497   2.306 -0.5220  0.2638 -0.9073
 3384WAT     H110363   2.251   3.517   2.387  0.1132 -0.3320 -1.1122
 3384WAT     H210364   2.218   3.573   2.251 -3.7016  2.1826  0.6683
 3385WAT      O10365   2.783   0.094   1.124 -0.1561 -0.0834  0.6884
 3385WAT     H110366   2.872   0.120   1.150 -0.2454  0.7311  0.2057
 3385WAT     H210367   2.741   0.067   1.206  0.5443 -0.5111  0.9148
 3386WAT      O10368   1.927   2.363   3.168  0.1291 -0.4522  0.1618
 3386WAT     H110369   1.901   2.280   3.127 -2.5623  0.4481 -0.1187
 3386WAT     H210370   1.980   2.406   3.102 -1.6589 -0.3410 -1.2805
 3387WAT      O10371   2.320   3.449   0.644  0.3079 -0.4754 -0.0681
 3387WAT     H110372   2.364   3.368   0.617  1.0938  0.0443 -0.3735
 3387WAT     H210373   2.391   3.506   0.675 -0.5649 -2.0672  6.3004
 3388WAT      O10374   0.876   4.499   2.754 -0.2971 -0.0188 -0.0404
 3388WAT     H110375   0.904   4.493   2.663  1.4152 -0.8628  0.4834
 3388WAT     H210376   0.942   4.448   2.802 -1.2691  0.2361  1.6442
 3389WAT      O10377   0.930   0.365   3.382  0.0392  0.3674 -0.1710
 3389WAT     H110378   0.848   0.319   3.369 -0.3158  1.1757 -0.8833
 3389WAT     H210379   0.914   0.421   3.458 -0.0145  0.4053 -0.2102
 3390WAT      O10380   2.052   4.373   1.056 -0.0249  0.1725 -0.5735
 3390WAT     H110381   2.012   4.307   1.000  0.2123  0.9867 -1.7543
 3390WAT     H210382   2.139   4.386   1.019  0.1382  0.7218 -0.0175
 3391WAT      O10383   0.878   1.374   3.506 -0.2451  0.2947 -0.1295
 3391WAT     H110384   0.782   1.370   3.515 -0.2600  1.4359  0.3695
 3391WAT     H210385   0.897   1.467   3.491  0.9668  0.5527  2.3643
 3392WAT      O10386   3.465   4.457   0.242  0.1597 -0.5335  0.3804
 3392WAT     H110387   3.492   4.505   0.321  1.8231 -0.0712 -0.4491
 3392WAT     H210388   3.545   4.417   0.209 -0.9005 -2.5551  0.1045
 3393WAT      O10389   1.229   1.771   2.656  0.0889  0.2217 -0.1544
 3393WAT     H110390   1.225   1.717   2.577  0.2335  1.1558 -0.8116
 3393WAT     H210391   1.309   1.822   2.646  1.3379 -1.2624  1.6714
 3394WAT      O10392   0.229   0.346   2.781 -0.6864 -0.7711  0.0239
 3394WAT     H110393   0.265   0.432   2.799  0.9317 -1.0823 -1.4903
 3394WAT     H210394   0.160   0.361   2.716 -0.3790 -0.6198 -0.2664
 3395WAT      O10395   0.905   3.332   2.155 -0.1207 -0.1235 -0.2543
 3395WAT     H110396   0.927   3.425   2.163  0.2671 -0.1964 -0.4448
 3395WAT     H210397   0.874   3.323   2.065 -1.9859  0.1863  0.3180
 3396WAT      O10398   2.297   4.216   1.510 -0.1385 -0.4165 -0.1760
 3396WAT     H110399   2.389   4.215   1.537  0.2163  0.2518 -1.3376
 3396WAT     H210400   2.274   4.308   1.504 -1.6673 -0.4856  2.5354
 3397WAT      O10401   4.429   4.231   3.998 -0.3763 -0.8710 -0.2173
 3397WAT     H110402   4.405   4.239   3.906 -1.8638 -0.3682  0.1995
 3397WAT     H210403   4.351   4.197   4.041 -0.8773  1.9574  1.3901
 3398WAT      O10404   2.927   4.586   1.312  0.0493  0.2898 -0.4182
 3398WAT     H110405   2.863   4.657   1.322  1.0182  1.0524  0.7930
 3398WAT     H210406   3.007   4.621   1.352  0.6020 -1.4368  0.0833
 3399WAT      O10407   1.066   2.697   5.282 -0.1938 -0.0781  0.3206
 3399WAT     H110408   1.027   2.785   5.289  0.8395  0.4750 -0.5310
 3399WAT     H210409   0.990   2.638   5.277 -0.9097  0.6620  1.7754
 3400WAT      O10410   3.452   1.458   0.320 -0.9293  0.0382 -0.5780
 3400WAT     H110411   3.502   1.395   0.267 -0.3707 -1.1263  1.2544
 3400WAT     H210412   3.363   1.423   0.319 -0.7446 -0.4629 -0.0683
 3401WAT      O10413   1.271   0.369   5.245 -0.1936  0.4741 -0.4935
 3401WAT     H110414   1.282   0.443   5.185  1.5057  0.4481 -0.2613
 3401WAT     H210415   1.195   0.393   5.299  1.7447  3.2762  1.2667
 3402WAT      O10416   2.516   4.721   2.708  0.2133  0.4387 -0.4213
 3402WAT     H110417   2.437   4.694   2.756 -0.1270  2.2112  0.1094
 3402WAT     H210418   2.502   4.815   2.692  0.6277  0.0707 -3.4305
 3403WAT      O10419   3.049   3.641   4.505 -0.2216 -0.1690  0.4646
 3403WAT     H110420   2.976   3.605   4.454 -0.5636  1.3071 -0.1678
 3403WAT     H210421   3.027   3.620   4.596 -0.6174 -1.1315  0.1571
 3404WAT      O10422   1.874   3.984   2.517  0.2557  0.0398  0.2886
 3404WAT     H110423   1.870   3.994   2.613  0.0981  0.6696  0.2221
 3404WAT     H210424   1.808   3.918   2.497 -1.0105  1.2233  0.4429
 3405WAT      O10425   1.474   2.350   4.883 -0.7115 -0.0473 -0.5372
 3405WAT     H110426   1.435   2.265   4.902 -1.4564  0.1606 -1.1084
 3405WAT     H210427   1.462   2.362   4.789  1.8330 -0.5239 -0.9963
 3406WAT      O10428   0.385   4.486   1.919  0.4753  0.2253 -0.4662
 3406WAT     H110429   0.438   4.461   1.843  0.0280  2.2521 -1.5354
 3406WAT     H210430   0.447   4.526   1.979  0.5411  0.3988 -0.6476
 3407WAT      O10431   0.034   4.831   3.064  0.0728  0.2553  0.1771
 3407WAT     H110432   0.020   4.890   3.138  0.9441 -1.2575  1.6222
 3407WAT     H210433   0.010   4.745   3.098  1.4206 -0.6219 -0.9828
 3408WAT      O10434   1.616   1.934   4.912 -0.2499  0.3856 -0.1297
 3408WAT     H110435   1.652   2.017   4.943  1.4906 -0.4062  0.0975
 3408WAT     H210436   1.683   1.899   4.854 -0.4941 -1.3337  0.5614
 3409WAT      O10437   1.706   4.224   2.489  0.3217  0.1870  0.3420
 3409WAT     H110438   1.635   4.196   2.432  1.2339  0.8136 -1.1634
 3409WAT     H210439   1.781   4.172   2.462  0.7172  0.3014  1.1699
 3410WAT      O10440   3.267   1.913   1.693  0.4491  0.1533 -0.2565
 3410WAT     H110441   3.208   1.890   1.621  0.7105 -0.2936 -0.3273
 3410WAT     H210442   3.218   1.888   1.772 -0.2564  1.5437 -0.2059
 3411WAT      O10443   0.593   1.212   1.891 -0.1333 -0.2290 -0.7625
 3411WAT     H110444   0.508   1.224   1.933  0.2497  0.3209 -0.1197
 3411WAT     H210445   0.572   1.174   1.806 -0.8283 -3.1741  0.5863
 3412WAT      O10446   3.740   1.419   4.036  0.1638 -0.2146  1.0250
 3412WAT     H110447   3.676   1.484   4.065 -1.1377 -0.7024 -0.5973
 3412WAT     H210448   3.821   1.469   4.024 -0.2865  0.7106  1.6923
 3413WAT      O10449   1.621   4.241   5.011  0.0992 -0.6204  0.3812
 3413WAT     H110450   1.532   4.276   5.015  0.6083  0.9785 -1.1538
 3413WAT     H210451   1.622   4.185   4.933  0.1340 -1.6515  1.0938
 3414WAT      O10452   3.561   0.935   0.780 -0.5336  0.2433 -0.0837
 3414WAT     H110453   3.508   0.906   0.706  1.4479  0.4521 -1.6576
 3414WAT     H210454   3.561   1.031   0.775 -2.3066  0.3919  1.6480
 3415WAT      O10455   2.782   3.757   0.723  0.0344  0.3234 -0.5133
 3415WAT     H110456   2.732   3.717   0.651 -0.8656  0.8345 -0.1940
 3415WAT     H210457   2.747   3.846   0.729  0.2195  0.3369  0.4496
 3416WAT      O10458   4.441   1.708   2.546 -0.1625  0.2150  0.1505
 3416WAT     H110459   4.420   1.758   2.467 -0.6419 -0.9275 -0.4731
 3416WAT     H210460   4.362   1.655   2.562  0.4904 -0.6738  0.5169
 3417WAT      O10461   1.241   4.096   1.403 -0.5390  0.3508 -0.2767
 3417WAT     H110462   1.161   4.056   1.370 -0.4450  0.7484 -1.0092
 3417WAT     H210463   1.211   4.159   1.469 -0.5868 -2.2023  2.3372
 3418WAT      O10464   1.077   0.763   1.081  0.2138 -0.5405  0.4197
 3418WAT     H110465   1.060   0.715   1.000  0.4901 -0.7960  0.5103
 3418WAT     H210466   0.991   0.795   1.110  0.1593 -0.1684 -0.1451
 3419WAT      O10467   4.063   1.889   1.287 -0.1983 -0.2347  0.0826
 3419WAT     H110468   4.127   1.945   1.243 -1.4788  2.0646  0.9790
 3419WAT     H210469   4.066   1.917   1.378 -2.9206  0.4525  0.0345
 3420WAT      O10470   3.672   0.087   4.881  0.2885  0.6373  0.2337
 3420WAT     H110471   3.731   0.015   4.858 -0.3920  0.6008 -1.5117
 3420WAT     H210472   3.722   0.139   4.944  1.0049 -1.0421  1.1096
 3421WAT      O10473   3.862   0.386   2.001 -0.0079  0.1876 -0.0899
 3421WAT     H110474   3.786   0.397   2.058 -0.6483 -0.3947 -0.8220
 3421WAT     H210475   3.927   0.344   2.056 -0.3792  0.2551  0.4068
 3422WAT      O10476   0.369   3.292   2.577  0.5159  0.1671  0.8225
 3422WAT     H110477   0.406   3.302   2.489 -0.1019 -0.2530  0.5013
 3422WAT     H210478   0.286   3.245   2.562  0.5928 -0.2452  1.6680
 3423WAT      O10479   0.918   3.456   1.602  0.9924  0.2324  0.0265
 3423WAT     H110480   0.958   3.409   1.675  1.6697  0.3047 -0.2840
 3423WAT     H210481   0.993   3.494   1.555  0.4959  1.1967 -0.0076
 3424WAT      O10482   0.400   4.599   2.844  0.2728 -0.0937  0.1747
 3424WAT     H110483   0.447   4.681   2.830  0.3805 -0.2328 -0.3043
 3424WAT     H210484   0.377   4.569   2.756 -1.1619  0.2333  0.4095
 3425WAT      O10485   1.040   2.791   3.815 -0.1967 -0.4202  0.1124
 3425WAT     H110486   1.097   2.716   3.799  2.2530  1.5679 -1.1781
 3425WAT     H210487   1.085   2.842   3.881 -1.0791  0.6424 -0.0774
 3426WAT      O10488   2.347   0.553   0.064 -0.4371  0.0951  0.5062
 3426WAT     H110489   2.288   0.579   0.135  1.8248  0.6042  2.3095
 3426WAT     H210490   2.413   0.623   0.061 -0.0424 -0.2938 -1.6250
 3427WAT      O10491   1.389   1.814   0.725  0.1024 -0.3898  0.3330
 3427WAT     H110492   1.460   1.751   0.715  0.8553  0.4950 -0.0905
 3427WAT     H210493   1.323   1.788   0.660  0.5857 -0.5029 -0.1150
 3428WAT      O10494   1.577   0.205   4.954  0.1055  0.1660  0.8654
 3428WAT     H110495   1.516   0.260   4.905 -0.7101 -0.9851  0.5385
 3428WAT     H210496   1.526   0.172   5.028 -0.1169 -1.8166 -0.1015
 3429WAT      O10497   2.403   3.421   4.439 -0.1298  0.2511  0.7969
 3429WAT     H110498   2.328   3.422   4.379 -0.4008  1.0547  1.1388
 3429WAT     H210499   2.416   3.513   4.463 -0.8048 -0.1757  2.9481
 3430WAT      O10500   3.968   2.849   1.487 -0.2370  0.1289 -0.1209
 3430WAT     H110501   4.004   2.849   1.576 -1.4343  1.4278  0.4006
 3430WAT     H210502   3.916   2.768   1.483  0.1742 -0.1590  0.1933
 3431WAT      O10503   0.934   3.959   3.830 -0.0162  0.6863 -0.3308
 3431WAT     H110504   0.948   3.987   3.739 -0.6941 -1.0326 -1.0150
 3431WAT     H210505   0.969   3.870   3.832 -1.6044  0.0581  0.6114
 3432WAT      O10506   4.448   3.016   4.798 -0.2170  0.6673  0.4442
 3432WAT     H110507   4.490   3.054   4.875  2.0675  0.1649 -0.4759
 3432WAT     H210508   4.508   2.947   4.769 -1.7719 -0.1876 -0.9039
 3433WAT      O10509   0.245   1.090   1.900  0.0390 -0.9393 -0.2267
 3433WAT     H110510   0.270   1.002   1.927  1.7969 -0.9286 -1.6261
 3433WAT     H210511   0.304   1.148   1.949  0.6626 -0.7197 -1.2039
 3434WAT      O10512   1.958   2.220   0.544  0.1341  0.3292 -0.4498
 3434WAT     H110513   2.039   2.248   0.502  0.2060 -0.8987 -1.1812
 3434WAT     H210514   1.986   2.182   0.627  0.3997 -0.7552 -1.0215
 3435WAT      O10515   0.925   0.344   2.425 -0.1620 -0.0254 -0.0284
 3435WAT     H110516   1.002   0.400   2.432  0.4003 -0.8049  0.2054
 3435WAT     H210517   0.929   0.309   2.335  1.0490 -1.8408  0.6777
 3436WAT      O10518   2.623   1.550   1.690  1.3154  0.1286 -0.1479
 3436WAT     H110519   2.674   1.469   1.700  0.8310  0.0415  2.4625
 3436WAT     H210520   2.621   1.588   1.778 -1.6520  1.0120 -0.4636
 3437WAT      O10521   2.274   0.230   3.620  0.1535 -0.5335  0.9562
 3437WAT     H110522   2.290   0.281   3.700  1.0966 -1.1327  1.1622
 3437WAT     H210523   2.218   0.286   3.567  0.2155  0.2329  1.6750
 3438WAT      O10524   1.284   2.797   3.363  0.2911  0.0885 -0.1392
 3438WAT     H110525   1.212   2.793   3.426 -0.5314 -1.1931 -1.0897
 3438WAT     H210526   1.345   2.860   3.400 -0.5128 -0.0656  1.5545
 3439WAT      O10527   2.594   3.792   5.259 -0.2212 -0.0647  0.1624
 3439WAT     H110528   2.604   3.708   5.213 -0.6453 -0.0021 -0.0494
 3439WAT     H210529   2.534   3.772   5.330 -1.2226  0.3131 -0.5634
 3440WAT      O10530   3.436   4.424   4.332 -0.5443 -0.6238  0.1060
 3440WAT     H110531   3.396   4.444   4.416 -0.6756 -2.0722  0.4080
 3440WAT     H210532   3.383   4.472   4.268 -0.8588 -0.0676  0.7706
 3441WAT      O10533   4.265   0.376   1.069  0.1863  0.0046  0.3547
 3441WAT     H110534   4.254   0.409   1.158  1.4467  1.9160 -0.1299
 3441WAT     H210535   4.190   0.319   1.055  0.0078 -0.4305  2.6561
 3442WAT      O10536   1.045   4.181   0.385  0.6998 -0.0184  0.3360
 3442WAT     H110537   1.096   4.171   0.305  1.5217  2.0503  0.5349
 3442WAT     H210538   1.108   4.168   0.456  1.0248  2.4684  0.5824
 3443WAT      O10539   0.244   0.550   3.777 -0.3233  0.1328  0.2762
 3443WAT     H110540   0.328   0.574   3.816  0.0464  1.4276 -1.2484
 3443WAT     H210541   0.266   0.482   3.713 -0.2828  1.1553 -0.8111
 3444WAT      O10542   4.317   4.515   4.589  0.6961  0.2098  0.7885
 3444WAT     H110543   4.398   4.556   4.558  0.6841 -1.5537 -1.9423
 3444WAT     H210544   4.341   4.473   4.671  2.3907  0.2664  0.3638
 3445WAT      O10545   0.843   4.168   3.995 -0.2538  0.4738  0.0194
 3445WAT     H110546   0.880   4.177   4.083 -1.0828  0.4791  0.3793
 3445WAT     H210547   0.911   4.123   3.945 -0.1298 -0.3626  0.9079
 3446WAT      O10548   0.150   3.275   0.568  0.3760  0.2670  0.0832
 3446WAT     H110549   0.184   3.318   0.646 -0.6775  2.1354 -0.4305
 3446WAT     H210550   0.119   3.346   0.512 -0.7673 -1.1215 -1.1545
 3447WAT      O10551   0.622   2.554   3.695  0.0873  0.5482  0.2962
 3447WAT     H110552   0.550   2.511   3.649  0.7392 -0.6962  0.3949
 3447WAT     H210553   0.658   2.616   3.631 -2.0409  2.4210  0.7582
 3448WAT      O10554   3.269   3.075   4.623 -0.1322  0.3611 -0.1365
 3448WAT     H110555   3.271   3.075   4.719 -0.5536 -0.1345 -0.1218
 3448WAT     H210556   3.179   3.048   4.601  0.0390  0.2065 -0.6713
 3449WAT      O10557   3.999   0.394   3.274  0.2257  0.3672  0.0726
 3449WAT     H110558   4.001   0.376   3.368 -0.6226 -0.5484 -0.0647
 3449WAT     H210559   4.033   0.483   3.266  1.8467 -0.0976  1.0972
 3450WAT      O10560   1.050   3.811   0.805 -0.4905 -0.0089 -0.3311
 3450WAT     H110561   0.982   3.870   0.840 -0.7058  0.3482 -1.3035
 3450WAT     H210562   1.052   3.831   0.711  2.6697  1.7748 -0.0156
 3451WAT      O10563   1.024   1.860   3.881 -0.1695 -0.5887 -0.0830
 3451WAT     H110564   1.087   1.847   3.953 -1.6354 -1.4106  1.1061
 3451WAT     H210565   0.976   1.777   3.877 -2.6142  0.7056  0.4946
 3452WAT      O10566   3.426   4.365   2.942 -0.7438  0.0393 -0.4700
 3452WAT     H110567   3.394   4.448   2.976 -0.4754  0.3024 -0.8638
 3452WAT     H210568   3.356   4.335   2.883 -1.7800 -1.0145  1.2084
 3453WAT      O10569   2.001   4.855   0.444 -0.1041 -0.1060 -0.2461
 3453WAT     H110570   1.950   4.934   0.460 -1.4491 -1.0072  0.0076
 3453WAT     H210571   2.085   4.872   0.487  0.6416  2.2075 -2.3413
 3454WAT      O10572   1.958   3.493   3.355 -0.5920 -0.4917 -0.0734
 3454WAT     H110573   1.917   3.475   3.440 -2.1676  1.5313 -0.3305
 3454WAT     H210574   1.947   3.587   3.342  0.6828 -0.5549 -2.0031
 3455WAT      O10575   1.427   1.427   2.596  0.4270  0.1343 -0.2750
 3455WAT     H110576   1.404   1.419   2.689  1.4548  1.3969  0.1252
 3455WAT     H210577   1.421   1.337   2.562 -1.4960 -0.1168  0.6076
 3456WAT      O10578   1.104   2.214   2.264 -0.8641 -0.0389 -0.1954
 3456WAT     H110579   1.057   2.217   2.347 -0.1738 -0.7311  0.2393
 3456WAT     H210580   1.082   2.296   2.221 -1.4772  0.1934  0.5415
 3457WAT      O10581   3.464   3.082   2.006 -0.1010  0.0095 -0.2187
 3457WAT     H110582   3.373   3.111   2.017  0.3462  1.4042 -0.0302
 3457WAT     H210583   3.460   2.987   2.018 -1.3786  0.1694  0.8873
 3458WAT      O10584   0.598   4.486   0.733  0.0038 -0.4234  0.0244
 3458WAT     H110585   0.583   4.402   0.690 -1.3929 -0.1714 -0.0257
 3458WAT     H210586   0.619   4.547   0.662  0.6381 -0.6393  0.0227
 3459WAT      O10587   1.438   2.812   5.088 -0.0056  0.1556  0.1806
 3459WAT     H110588   1.478   2.878   5.144  1.2592  0.5218 -1.1041
 3459WAT     H210589   1.344   2.829   5.094  0.1559  0.6746  1.5467
 3460WAT      O10590   2.570   4.090   4.412  0.3220  0.2241  0.3416
 3460WAT     H110591   2.627   4.163   4.438  0.0364  0.4489  0.3467
 3460WAT     H210592   2.598   4.017   4.467 -0.3926  0.7381  1.4143
 3461WAT      O10593   3.559   2.003   3.962 -0.2260 -0.5327 -0.0500
 3461WAT     H110594   3.496   1.997   4.034 -1.0934  1.3196 -0.5718
 3461WAT     H210595   3.507   1.989   3.883  0.1674  0.1302 -0.4425
 3462WAT      O10596   0.754   0.761   1.529  0.4463  0.0006  0.4332
 3462WAT     H110597   0.842   0.727   1.542  0.4420  0.0683  0.6470
 3462WAT     H210598   0.747   0.834   1.591  0.0620 -0.3331  0.7875
 3463WAT      O10599   2.227   4.771   0.796 -0.2185 -0.2052  0.7215
 3463WAT     H110600   2.317   4.749   0.820  0.1786 -1.4721 -1.6669
 3463WAT     H210601   2.174   4.711   0.849  0.2796  0.6185  2.2241
 3464WAT      O10602   0.802   1.758   3.170  0.0525  0.0410  0.5502
 3464WAT     H110603   0.891   1.755   3.135 -0.3811  1.3608 -0.7912
 3464WAT     H210604   0.755   1.690   3.121  0.2256 -0.3917  0.9809
 3465WAT      O10605   3.278   2.748   3.822  0.0796 -0.3875  0.5422
 3465WAT     H110606   3.347   2.811   3.839 -0.2180 -0.5582  2.6445
 3465WAT     H210607   3.299   2.712   3.736  2.5999 -0.4166  1.0990
 3466WAT      O10608   3.417   1.197   1.244 -0.0216  0.5541  0.0807
 3466WAT     H110609   3.466   1.240   1.313 -0.3721  1.5761 -0.2903
 3466WAT     H210610   3.384   1.116   1.284  2.6397 -0.6113  0.1022
 3467WAT      O10611   2.742   4.189   3.230 -0.0286  0.8031 -0.1542
 3467WAT     H110612   2.727   4.272   3.185  0.4431  1.1482  0.3189
 3467WAT     H210613   2.825   4.201   3.276  1.1107 -0.6211 -1.6782
 3468WAT      O10614   1.318   3.202   0.406 -1.0210  0.1075 -0.2763
 3468WAT     H110615   1.295   3.119   0.447 -3.3999  0.3732 -0.9604
 3468WAT     H210616   1.344   3.178   0.317 -0.8606  0.0243 -0.2082
 3469WAT      O10617   1.638   3.230   2.011  0.5085 -0.1121 -0.0345
 3469WAT     H110618   1.557   3.200   1.970 -0.1834  1.6563 -0.0013
 3469WAT     H210619   1.698   3.244   1.937  1.0533 -2.0111 -0.0229
 3470WAT      O10620   3.910   1.733   2.562 -0.2521 -0.8203  0.0223
 3470WAT     H110621   3.850   1.799   2.528  0.0473  0.0928  1.1903
 3470WAT     H210622   3.868   1.702   2.643 -1.1103 -3.1765 -1.2220
 3471WAT      O10623   1.221   4.204   2.940  0.1659  0.2988  0.4428
 3471WAT     H110624   1.287   4.183   2.874  0.8465  1.4959  0.7100
 3471WAT     H210625   1.138   4.200   2.893  0.7558  3.0570 -1.0598
 3472WAT      O10626   4.047   3.154   1.906  0.2437  0.0633  0.2830
 3472WAT     H110627   4.083   3.239   1.930  1.6121  0.1424 -1.7693
 3472WAT     H210628   3.973   3.141   1.966  0.7858  2.0832  1.4875
 3473WAT      O10629   3.523   4.267   1.767  0.1566  0.5000 -0.4371
 3473WAT     H110630   3.522   4.207   1.692 -0.7559 -0.6171  0.4234
 3473WAT     H210631   3.487   4.349   1.733 -1.0057 -0.2328 -1.0476
 3474WAT      O10632   3.276   0.379   2.015 -0.3954 -0.0416 -0.1872
 3474WAT     H110633   3.308   0.469   2.024 -0.5176 -0.0514  0.3752
 3474WAT     H210634   3.192   0.388   1.971 -1.0575  0.2438  1.0880
 3475WAT      O10635   2.048   0.685   4.948  0.2037  0.0782 -0.4474
 3475WAT     H110636   2.049   0.687   4.852 -0.2459  0.4636 -0.4468
 3475WAT     H210637   1.965   0.644   4.971 -0.9843  2.4118 -0.2154
 3476WAT      O10638   0.062   1.750   5.261 -0.1271 -0.1228 -0.3550
 3476WAT     H110639   0.150   1.727   5.290  0.2260  0.1759 -1.1927
 3476WAT     H210640   0.016   1.666   5.255 -0.1357 -0.2244  0.7880
 3477WAT      O10641   3.825   1.422   3.670  0.2748 -0.0307  0.2515
 3477WAT     H110642   3.862   1.499   3.715 -0.8140 -0.5594  2.1293
 3477WAT     H210643   3.898   1.360   3.667  0.8413  0.6367 -0.2603
 3478WAT      O10644   4.461   3.672   0.753  0.6340 -0.5818  0.0001
 3478WAT     H110645   4.510   3.745   0.791  1.2800 -1.3861  0.7763
 3478WAT     H210646   4.433   3.620   0.829 -0.8877 -0.4844 -0.4705
 3479WAT      O10647   1.642   2.486   0.900 -0.1829 -0.2203 -0.0879
 3479WAT     H110648   1.547   2.473   0.895 -0.3864  1.6493 -2.1446
 3479WAT     H210649   1.679   2.418   0.843 -0.3081 -0.4594  0.1112
 3480WAT      O10650   0.533   1.597   1.483 -1.1569  0.1362 -0.2389
 3480WAT     H110651   0.553   1.510   1.449 -0.4714  0.1010  0.2321
 3480WAT     H210652   0.604   1.652   1.449 -0.1574  0.0059  1.5046
 3481WAT      O10653   3.757   2.632   0.809  0.3358  0.4444 -0.6583
 3481WAT     H110654   3.719   2.582   0.736  1.0831 -0.4029 -0.4765
 3481WAT     H210655   3.849   2.606   0.811  0.0553 -0.5024  1.3797
 3482WAT      O10656   0.603   1.682   1.888  0.8007 -0.1297  0.0249
 3482WAT     H110657   0.652   1.738   1.827  0.4943 -1.0056 -1.0665
 3482WAT     H210658   0.532   1.646   1.835 -0.1544 -0.0522  1.2095
 3483WAT      O10659   0.477   2.710   5.218  0.1414 -0.3939  0.2228
 3483WAT     H110660   0.512   2.718   5.129  0.0494  0.6131  0.2713
 3483WAT     H210661   0.402   2.769   5.220  1.2748  1.0750  1.5342
 3484WAT      O10662   3.437   0.169   2.064 -0.3920 -0.3723  0.8564
 3484WAT     H110663   3.410   0.086   2.024  0.7252 -0.1084 -0.5251
 3484WAT     H210664   3.381   0.235   2.023 -0.1610 -0.2595  0.7178
 3485WAT      O10665   0.706   1.139   4.436 -0.5877 -0.0844  0.4812
 3485WAT     H110666   0.686   1.052   4.470  1.1665 -1.9230 -2.6897
 3485WAT     H210667   0.788   1.163   4.480  1.0528 -1.9210 -1.3439
 3486WAT      O10668   3.805   1.111   4.174  0.4878  0.0313  0.1835
 3486WAT     H110669   3.713   1.129   4.158  0.3691 -0.8573 -0.1701
 3486WAT     H210670   3.811   1.015   4.180  1.5790 -0.0076 -1.0228
 3487WAT      O10671   4.387   1.831   1.516 -0.3044  0.1254  0.2505
 3487WAT     H110672   4.339   1.906   1.483 -0.8821  0.4195  1.6711
 3487WAT     H210673   4.437   1.865   1.590 -1.2595 -1.0182  1.4864
 3488WAT      O10674   1.594   4.201   2.010  0.3444 -0.1874  0.3179
 3488WAT     H110675   1.626   4.122   1.966 -0.3834 -0.3066 -0.0036
 3488WAT     H210676   1.671   4.258   2.015  1.1399 -1.2809  1.4119
 3489WAT      O10677   1.478   4.386   4.749 -0.3114  0.1089 -0.3193
 3489WAT     H110678   1.463   4.443   4.673 -1.1334  1.9551  1.1460
 3489WAT     H210679   1.546   4.431   4.799  0.5577 -1.3252 -0.1583
 3490WAT      O10680   0.131   4.069   2.607  0.8759 -0.1501 -0.2419
 3490WAT     H110681   0.075   4.146   2.591  2.3233  0.8958 -0.4340
 3490WAT     H210682   0.130   4.059   2.702  0.6674  0.1027 -0.2146
 3491WAT      O10683   2.710   5.051   4.355  0.1756 -0.2205 -0.1513
 3491WAT     H110684   2.703   4.990   4.282  0.3552  0.4734 -0.7626
 3491WAT     H210685   2.620   5.082   4.368  0.2420  0.1118 -0.4792
 3492WAT      O10686   1.241   1.226   4.377 -0.0106 -0.3943  0.6935
 3492WAT     H110687   1.195   1.163   4.433  1.4977 -1.1500  1.1358
 3492WAT     H210688   1.171   1.275   4.334 -1.2878 -3.1055 -0.5418
 3493WAT      O10689   3.651   2.267   0.744  0.1861  0.1924  0.1980
 3493WAT     H110690   3.590   2.333   0.778 -0.9392  0.2226 -1.6986
 3493WAT     H210691   3.598   2.188   0.735  1.4884 -0.9911  2.2992
 3494WAT      O10692   0.724   1.706   4.554 -0.1370  0.2414  0.2470
 3494WAT     H110693   0.785   1.673   4.620  0.1145  0.3594  0.0801
 3494WAT     H210694   0.641   1.663   4.573  0.6535 -2.1670 -1.2465
 3495WAT      O10695   3.096   4.072   4.879 -0.0069 -0.2658  0.1751
 3495WAT     H110696   3.009   4.041   4.855 -0.5263  0.2531  1.3591
 3495WAT     H210697   3.136   4.098   4.795 -0.9185 -0.6336 -0.3875
 3496WAT      O10698   2.054   4.115   0.655 -0.5184 -0.2614  0.5885
 3496WAT     H110699   2.035   4.043   0.595  1.4880 -1.6174  1.4441
 3496WAT     H210700   2.069   4.191   0.598 -0.9744 -0.9274 -0.4425
 3497WAT      O10701   1.370   4.680   0.204 -0.5543 -0.0207 -0.4450
 3497WAT     H110702   1.434   4.718   0.143 -0.2715  1.2711  0.6009
 3497WAT     H210703   1.310   4.752   0.223  0.6730  0.3483  2.5101
 3498WAT      O10704   2.387   2.887   1.425  0.5041  0.0921  0.2705
 3498WAT     H110705   2.308   2.907   1.475  0.9013 -0.6802  1.2277
 3498WAT     H210706   2.403   2.794   1.440  0.9113 -0.0444 -0.9081
 3499WAT      O10707   0.999   1.551   3.905  0.3934 -0.0738 -0.0652
 3499WAT     H110708   1.000   1.461   3.872 -1.3270  0.1344 -0.8183
 3499WAT     H210709   0.906   1.573   3.911  0.7711  1.4527  0.7080
 3500WAT      O10710   4.007   2.502   0.795  0.0920 -0.3459  0.6952
 3500WAT     H110711   4.043   2.567   0.734  0.1293  0.2550  1.3457
 3500WAT     H210712   4.016   2.419   0.749 -0.2606  0.1412 -0.3004
 3501WAT      O10713   2.600   3.482   0.817 -0.4037 -0.0098 -0.1542
 3501WAT     H110714   2.649   3.529   0.749  1.9863 -0.4787  1.1275
 3501WAT     H210715   2.566   3.550   0.875 -0.4269  0.2846 -0.5101
 3502WAT      O10716   4.528   0.676   0.941 -0.2821  0.3636  0.0008
 3502WAT     H110717   4.532   0.769   0.919  0.8369  0.9907  2.4336
 3502WAT     H210718   4.439   0.650   0.919 -0.7659  2.1413 -0.3308
 3503WAT      O10719   1.034   3.271   2.639 -0.3640  0.0202 -0.1375
 3503WAT     H110720   0.950   3.225   2.637 -0.2622 -0.5120  2.9138
 3503WAT     H210721   1.096   3.209   2.601 -1.0914 -0.1480 -1.0898
 3504WAT      O10722   2.583   0.905   2.497 -0.2502  0.1482  0.1617
 3504WAT     H110723   2.638   0.846   2.549  0.0268  0.7361  0.5498
 3504WAT     H210724   2.638   0.982   2.483 -0.6521  0.3657 -0.2307
 3505WAT      O10725   2.894   3.973   5.294  0.5431 -0.3032 -0.4997
 3505WAT     H110726   2.987   3.977   5.274  0.6263  0.5902  0.0021
 3505WAT     H210727   2.855   4.044   5.243 -0.1322 -1.7012 -1.9981
 3506WAT      O10728   4.426   4.810  -0.017  0.5604 -0.1075 -0.3621
 3506WAT     H110729   4.447   4.818   0.076 -2.9015 -0.2544  0.5814
 3506WAT     H210730   4.398   4.898  -0.043 -0.4771 -0.5176 -0.6672
 3507WAT      O10731   1.575   4.084   3.569  0.2244 -0.6058 -0.0074
 3507WAT     H110732   1.619   4.101   3.652 -0.4589  1.0922  0.0339
 3507WAT     H210733   1.627   4.014   3.529  0.5448 -1.5027  1.8369
 3508WAT      O10734   0.951   0.334   4.570  0.3945  0.6996  0.0485
 3508WAT     H110735   1.039   0.308   4.600  0.1260  0.7406  0.8800
 3508WAT     H210736   0.940   0.285   4.489 -0.1167 -1.9673  1.5920
 3509WAT      O10737   3.140   0.851   2.070  0.1958 -0.0548 -0.4555
 3509WAT     H110738   3.221   0.901   2.051  0.8163 -0.9921 -0.3308
 3509WAT     H210739   3.138   0.784   2.002 -1.3548  0.9352 -1.4458
 3510WAT      O10740   0.284   1.857   0.378 -0.3987  0.6257 -0.1656
 3510WAT     H110741   0.238   1.894   0.302 -0.9035 -0.0048 -0.1806
 3510WAT     H210742   0.374   1.888   0.369  0.0548 -1.0474 -2.1442
 3511WAT      O10743   2.263   0.013   4.546 -0.0918  0.2262 -0.6373
 3511WAT     H110744   2.288  -0.059   4.604 -1.4858 -0.2240 -0.5461
 3511WAT     H210745   2.183   0.049   4.585  0.0861  1.2565 -1.1703
 3512WAT      O10746   2.818   1.484   3.835  0.4863 -0.5855  0.2433
 3512WAT     H110747   2.846   1.568   3.800 -0.4186 -0.7006 -0.8036
 3512WAT     H210748   2.782   1.505   3.922 -2.4359  0.6387 -1.1106
 3513WAT      O10749   2.389   1.388   2.506 -0.0494 -0.0180  0.2609
 3513WAT     H110750   2.460   1.439   2.544 -0.0873  0.1114  0.1579
 3513WAT     H210751   2.422   1.359   2.421  0.0656 -0.3742  0.4216
 3514WAT      O10752   1.471   1.903   2.220  0.5839 -0.2741 -0.1563
 3514WAT     H110753   1.546   1.843   2.219  1.4417  0.7639  0.4314
 3514WAT     H210754   1.431   1.893   2.134  0.6217 -1.7742 -0.0393
 3515WAT      O10755   4.118   2.518   0.403  0.4794 -0.1948  0.0208
 3515WAT     H110756   4.157   2.445   0.451 -1.3521 -1.3783 -0.1918
 3515WAT     H210757   4.033   2.486   0.375  0.3388  1.4278 -1.6406
 3516WAT      O10758   1.361   1.429   1.289  0.4318  0.6467  0.7905
 3516WAT     H110759   1.399   1.517   1.290  1.2527  0.4578 -2.1761
 3516WAT     H210760   1.436   1.370   1.295  0.0714  0.1902  0.8858
 3517WAT      O10761   0.922   0.892   2.081 -0.6379 -0.1631 -0.1689
 3517WAT     H110762   0.827   0.903   2.083 -0.4781  1.3488  0.2802
 3517WAT     H210763   0.935   0.797   2.072 -2.1739 -0.4128 -0.0168
 3518WAT      O10764   2.663   3.873   2.112 -0.1437 -0.2179  0.5629
 3518WAT     H110765   2.693   3.848   2.199  0.6004  0.8025  0.6301
 3518WAT     H210766   2.627   3.961   2.124  1.3315  0.5570 -0.3994
 3519WAT      O10767   2.110   2.634   4.236 -0.2187 -0.0126 -0.2501
 3519WAT     H110768   2.163   2.561   4.205 -0.0534 -0.1005  0.2225
 3519WAT     H210769   2.020   2.606   4.222 -0.1475  0.0735 -0.9159
 3520WAT      O10770   2.489   4.621   0.586  0.2252  0.5625 -0.3718
 3520WAT     H110771   2.428   4.554   0.617 -0.2680  1.0983 -0.1850
 3520WAT     H210772   2.472   4.697   0.642  0.9040  0.7930 -0.4676
 3521WAT      O10773   1.709   3.315   3.936  0.0938  0.0916 -0.1636
 3521WAT     H110774   1.631   3.331   3.882 -0.7201 -0.3021  0.8739
 3521WAT     H210775   1.677   3.267   4.012  1.4747 -0.7503 -0.0700
 3522WAT      O10776   4.296   1.664   4.253  0.8967 -0.0948 -0.6896
 3522WAT     H110777   4.261   1.652   4.341  1.0967  0.5243 -0.5231
 3522WAT     H210778   4.229   1.714   4.207  2.0765  2.2992  0.0281
 3523WAT      O10779   0.642   3.199   2.330  0.1322 -0.3130  0.6611
 3523WAT     H110780   0.566   3.144   2.313  0.0449 -0.8713  2.6167
 3523WAT     H210781   0.714   3.157   2.283 -0.9183  0.8552 -2.1733
 3524WAT      O10782   3.754   0.992   3.278 -0.3407  0.0998 -0.1476
 3524WAT     H110783   3.704   0.935   3.337  0.9996 -2.6846 -1.4949
 3524WAT     H210784   3.817   1.036   3.334  0.4652 -1.9627  0.6537
 3525WAT      O10785   0.098   1.103   3.728 -0.2308  0.2094 -0.5640
 3525WAT     H110786   0.075   1.011   3.722  0.3283  0.0666 -0.5497
 3525WAT     H210787   0.037   1.139   3.792 -0.3848 -0.1709 -0.4957
 3526WAT      O10788   3.091   2.664   5.141  0.3980 -0.3779 -0.5633
 3526WAT     H110789   3.001   2.655   5.110  0.3002  1.4848 -0.9565
 3526WAT     H210790   3.144   2.614   5.079 -0.1333  0.6724 -1.9142
 3527WAT      O10791   0.315   3.713   1.792 -0.1818  0.1788  0.0672
 3527WAT     H110792   0.272   3.640   1.836  0.9528 -0.9784 -0.6564
 3527WAT     H210793   0.391   3.733   1.848 -0.4527  0.7688  0.2295
 3528WAT      O10794   1.350   4.357   3.875 -0.3852 -0.2180  0.0405
 3528WAT     H110795   1.372   4.384   3.786 -0.2972  0.2021  0.1875
 3528WAT     H210796   1.255   4.373   3.881 -0.2886  0.2827  0.2069
 3529WAT      O10797   0.315   0.863   2.075 -0.6561  0.7874 -0.0809
 3529WAT     H110798   0.289   0.801   2.007 -2.7032  3.4079 -1.8527
 3529WAT     H210799   0.280   0.825   2.156 -0.1846 -1.2568 -0.7743
 3530WAT      O10800   2.845   3.250   0.591 -0.5006  0.0391 -0.4760
 3530WAT     H110801   2.867   3.336   0.553  0.2250 -0.1359 -0.4682
 3530WAT     H210802   2.750   3.252   0.602 -0.9000 -0.2770 -3.2574
 3531WAT      O10803   0.167   4.012   3.543 -0.4378  0.6672 -0.3332
 3531WAT     H110804   0.097   4.047   3.489 -0.4773  0.8899 -0.1383
 3531WAT     H210805   0.244   4.013   3.487 -0.3986  1.2316 -0.2708
 3532WAT      O10806   3.516   4.059   4.937  0.0087 -0.3168 -0.3662
 3532WAT     H110807   3.460   3.998   4.889 -0.6142 -1.4869  1.6895
 3532WAT     H210808   3.455   4.111   4.989  0.5651  1.9296 -1.8536
 3533WAT      O10809   3.444   3.983   0.996  0.0697  0.1212 -0.2024
 3533WAT     H110810   3.423   3.911   0.937 -0.7238  0.4208 -0.3026
 3533WAT     H210811   3.539   3.978   1.008  0.2198 -0.0524 -1.3479
 3534WAT      O10812   4.030   2.659   1.958 -0.4863 -0.1741 -0.0854
 3534WAT     H110813   4.030   2.576   1.908 -0.2022  1.2922 -2.7151
 3534WAT     H210814   4.054   2.725   1.893 -0.8013  2.0161  1.9192
 3535WAT      O10815   3.663   3.275   0.775 -0.4624 -0.6484 -0.0823
 3535WAT     H110816   3.715   3.195   0.771 -0.5394 -0.7279  0.4618
 3535WAT     H210817   3.607   3.264   0.852 -0.6479 -0.1775 -0.1448
 3536WAT      O10818   1.751   3.547   1.465 -0.2689 -0.1338 -0.0095
 3536WAT     H110819   1.685   3.479   1.478 -1.3264  0.6476 -1.0423
 3536WAT     H210820   1.708   3.628   1.492  0.2665  0.3877 -0.6592
 3537WAT      O10821   3.921   2.906   4.826 -0.3846 -0.4598  0.0903
 3537WAT     H110822   3.863   2.974   4.859 -0.5122 -0.2432 -0.5672
 3537WAT     H210823   4.004   2.920   4.873 -1.0663 -1.2500  1.6005
 3538WAT      O10824   3.275   4.161   5.059 -0.4230 -0.5081  0.2450
 3538WAT     H110825   3.208   4.135   4.996 -1.9158 -1.5582  2.1465
 3538WAT     H210826   3.238   4.236   5.105 -0.0526 -0.7007  0.8816
 3539WAT      O10827   1.655   0.436   1.913 -0.0443 -0.9574  0.1938
 3539WAT     H110828   1.704   0.415   1.993  1.9054  1.2354 -0.3281
 3539WAT     H210829   1.695   0.381   1.846 -0.1573 -1.1495  0.2821
 3540WAT      O10830   3.769   2.254   0.402  0.1817 -0.5670  0.0350
 3540WAT     H110831   3.840   2.274   0.463  1.7866  2.5597 -2.5752
 3540WAT     H210832   3.805   2.188   0.343 -0.1387 -1.0484  0.3666
 3541WAT      O10833   2.933   3.896   3.167 -0.2928  0.4035 -0.5192
 3541WAT     H110834   2.935   3.991   3.175 -1.1614  0.2864  1.4947
 3541WAT     H210835   2.953   3.863   3.254 -0.5171 -1.2620 -1.0493
 3542WAT      O10836   0.742   4.958   3.523  0.3538  0.2036 -0.2624
 3542WAT     H110837   0.656   4.922   3.547 -0.4593  0.9340 -1.9894
 3542WAT     H210838   0.725   5.012   3.446  2.0624  1.8805  0.4640
 3543WAT      O10839   0.773   3.547   0.308 -0.3018  0.1334 -0.0717
 3543WAT     H110840   0.764   3.465   0.260 -1.8302  0.5263 -0.5166
 3543WAT     H210841   0.767   3.523   0.400  2.4439 -0.6024  0.0066
 3544WAT      O10842   3.528   0.965   2.692 -0.2310  0.2759  0.2513
 3544WAT     H110843   3.618   0.999   2.700 -0.3346  0.8299 -0.7455
 3544WAT     H210844   3.496   0.960   2.782  0.6270  0.5608  0.5843
 3545WAT      O10845   3.896   4.965   3.231 -0.3985 -0.6644  0.6375
 3545WAT     H110846   3.837   4.964   3.305 -0.5921  0.4236  0.5137
 3545WAT     H210847   3.849   5.014   3.163 -0.5196 -2.2273 -0.4620
 3546WAT      O10848   2.330   4.540   2.863  0.5264 -0.0068 -0.0089
 3546WAT     H110849   2.310   4.495   2.780  0.3206 -0.4448  0.2764
 3546WAT     H210850   2.367   4.472   2.919 -0.4923 -0.0109  0.6904
 3547WAT      O10851   1.348   3.574   1.053  0.4877  0.0680 -0.2043
 3547WAT     H110852   1.398   3.501   1.016 -0.0047  0.1012 -0.9621
 3547WAT     H210853   1.259   3.559   1.023  0.3577  0.9157 -0.2690
 3548WAT      O10854   4.213   1.560   2.586  0.2686  0.2036  0.3300
 3548WAT     H110855   4.168   1.577   2.669  0.0960 -0.8948  0.4760
 3548WAT     H210856   4.187   1.471   2.562  1.3672  0.0140 -0.2273
 3549WAT      O10857   4.351   0.118   4.497 -0.0085  0.0552 -0.5228
 3549WAT     H110858   4.338   0.118   4.591  2.3247  0.6087 -0.1312
 3549WAT     H210859   4.327   0.029   4.469 -1.0599 -0.0039  0.5170
 3550WAT      O10860   2.554   4.782   4.408  0.4830  0.6119  0.3645
 3550WAT     H110861   2.613   4.764   4.334 -1.0711 -1.3374 -0.5014
 3550WAT     H210862   2.496   4.851   4.376  1.0755  1.1850  0.5164
 3551WAT      O10863   3.892   2.001   3.439  0.1212 -0.3814  0.0884
 3551WAT     H110864   3.908   2.072   3.502 -0.8239 -1.0335  1.1147
 3551WAT     H210865   3.797   1.990   3.439  0.1765 -0.9713 -0.8246
 3552WAT      O10866   2.008   1.969   4.814  0.0930 -0.2663 -0.6928
 3552WAT     H110867   2.038   1.964   4.904  1.9801  0.5355 -1.2359
 3552WAT     H210868   1.936   2.033   4.817  0.0297 -0.3641  0.2431
 3553WAT      O10869   0.320   0.145   1.870 -0.0711 -0.4311 -0.1790
 3553WAT     H110870   0.318   0.150   1.965 -0.6272  0.0550 -0.2102
 3553WAT     H210871   0.251   0.082   1.847  0.3534 -0.8756 -0.2413
 3554WAT      O10872   1.776   3.280   1.762  0.0565  0.1001 -0.0588
 3554WAT     H110873   1.773   3.217   1.689  0.1117  1.0145 -0.8607
 3554WAT     H210874   1.869   3.286   1.785  0.4139  1.8749 -1.7651
 3555WAT      O10875   2.308   3.010   4.513 -0.2397 -0.4286  0.1654
 3555WAT     H110876   2.311   2.927   4.466  0.0289 -0.2827 -0.0758
 3555WAT     H210877   2.224   3.009   4.559 -0.0797 -0.9902  0.4478
 3556WAT      O10878   2.958   1.231   0.633 -0.8448  0.1896  0.1826
 3556WAT     H110879   2.957   1.317   0.677  0.2191 -0.2339  1.0871
 3556WAT     H210880   3.016   1.244   0.558  1.0472 -0.2435  1.4970
 3557WAT      O10881   1.095   0.489   4.918 -0.3546  0.1240  0.3511
 3557WAT     H110882   1.163   0.492   4.852  0.1131 -0.1169  0.8172
 3557WAT     H210883   1.131   0.538   4.992 -0.1543 -1.0939  1.0862
 3558WAT      O10884   3.206   3.897   4.514 -0.0456  0.4361 -0.0809
 3558WAT     H110885   3.124   3.945   4.516  0.6049  1.5546  2.2999
 3558WAT     H210886   3.181   3.807   4.535 -0.7288  0.6497  0.0500
 3559WAT      O10887   2.366   0.061   2.355 -0.0569  0.3529  0.5534
 3559WAT     H110888   2.410   0.125   2.411 -2.5313  1.8899  0.8803
 3559WAT     H210889   2.359   0.104   2.270 -0.4272 -0.1045  0.3485
 3560WAT      O10890   1.324   5.060   0.853  0.1023  0.2445  0.6688
 3560WAT     H110891   1.373   4.994   0.804 -1.4470 -0.2418 -0.3080
 3560WAT     H210892   1.335   5.141   0.802 -1.4972 -0.2580 -0.5551
 3561WAT      O10893   3.645   1.915   2.731 -0.7377  0.3356  0.2067
 3561WAT     H110894   3.664   1.834   2.683 -1.8088 -0.6335  1.3304
 3561WAT     H210895   3.596   1.969   2.668 -1.8881 -0.7970  0.0847
 3562WAT      O10896   1.222   1.392   3.049  0.1994 -0.3790  0.4468
 3562WAT     H110897   1.203   1.474   3.002  1.3805 -0.4842 -0.2342
 3562WAT     H210898   1.190   1.323   2.991  0.9858 -0.4779  0.1258
 3563WAT      O10899   0.469   1.848   4.225  0.1591 -0.2122  0.3614
 3563WAT     H110900   0.391   1.876   4.274 -0.5644 -0.7697 -0.4544
 3563WAT     H210901   0.439   1.836   4.135  0.8521 -1.8482  0.3143
 3564WAT      O10902   0.380   1.134   3.798  0.2838  0.3121  0.3584
 3564WAT     H110903   0.416   1.136   3.709  0.4603 -2.4076  0.2771
 3564WAT     H210904   0.289   1.161   3.787 -0.6625 -3.0169 -1.3161
 3565WAT      O10905   2.544   0.158   4.151 -0.2787  0.2469 -0.3808
 3565WAT     H110906   2.543   0.158   4.247 -0.3067 -1.6761 -0.3397
 3565WAT     H210907   2.509   0.244   4.127 -1.4242  0.3262  1.3340
 3566WAT      O10908   1.441   2.118   1.112 -0.0476 -0.3291 -0.3882
 3566WAT     H110909   1.361   2.081   1.075 -0.1638 -0.9016  0.4142
 3566WAT     H210910   1.501   2.044   1.120  0.4156  0.0151 -0.5848
 3567WAT      O10911   0.076   3.102   0.994  0.0605 -0.3554  0.0657
 3567WAT     H110912   0.070   3.013   0.957 -1.7681  0.0773 -0.7941
 3567WAT     H210913   0.159   3.102   1.041 -0.3631 -2.8687  1.0096
 3568WAT      O10914   0.038   3.804   1.361  0.5594  0.1771 -0.2149
 3568WAT     H110915   0.087   3.752   1.424  1.0124  1.2540  0.3569
 3568WAT     H210916   0.090   3.884   1.351 -1.0014  1.3121  0.3140
 3569WAT      O10917   4.388   0.520   2.813 -0.0636 -0.0281  0.4216
 3569WAT     H110918   4.395   0.469   2.732  0.2783 -0.1762  0.5459
 3569WAT     H210919   4.310   0.484   2.856 -0.0346 -0.1977  0.3358
 3570WAT      O10920   1.525   2.078   0.039  0.1296  0.1058  0.2448
 3570WAT     H110921   1.538   2.102   0.131  2.3348  2.3208 -0.5634
 3570WAT     H210922   1.469   2.147   0.004 -2.5648 -1.8750  0.3047
 3571WAT      O10923   2.926   1.932   0.653 -0.0579 -0.1667 -0.1840
 3571WAT     H110924   2.997   1.934   0.717 -0.7326  1.3894  0.5542
 3571WAT     H210925   2.956   1.987   0.581 -1.0652  1.7951  0.8069
 3572WAT      O10926   3.304   2.005   4.363 -0.0628  0.2481 -0.1940
 3572WAT     H110927   3.296   2.043   4.451 -3.7360  0.5564 -0.5238
 3572WAT     H210928   3.329   2.079   4.308 -1.1745  0.8586  0.0955
 3573WAT      O10929   2.618   1.913   2.233 -0.2688 -0.1965  0.1151
 3573WAT     H110930   2.633   1.820   2.215 -2.0182 -0.5223  0.2010
 3573WAT     H210931   2.705   1.947   2.256  0.4756 -1.6984 -0.3583
 3574WAT      O10932   1.820   4.654   4.018 -0.1788  0.3813  0.6195
 3574WAT     H110933   1.878   4.689   3.950 -1.2382  0.4985 -0.2382
 3574WAT     H210934   1.782   4.731   4.059  0.0525  0.2943  1.0060
 3575WAT      O10935   0.777   2.486   1.428  0.5241  0.2057  0.1260
 3575WAT     H110936   0.686   2.506   1.408  0.8283 -0.4027 -2.0956
 3575WAT     H210937   0.786   2.393   1.405  1.4612 -0.0407  1.3602
 3576WAT      O10938   0.959   2.593   3.072 -0.3106  0.3408  1.3636
 3576WAT     H110939   0.882   2.624   3.025 -0.5368  1.0730  2.1983
 3576WAT     H210940   0.998   2.672   3.109  1.8892  0.2654 -0.5105
 3577WAT      O10941   4.207   2.227   4.137 -0.1842 -0.1610  0.0804
 3577WAT     H110942   4.291   2.249   4.178 -0.0497  3.0286 -1.5079
 3577WAT     H210943   4.217   2.258   4.047 -3.0696  0.3820 -0.1419
 3578WAT      O10944   1.446   4.876   0.690 -0.1629 -0.4560 -0.5903
 3578WAT     H110945   1.453   4.849   0.599 -0.9999  1.6290 -1.3365
 3578WAT     H210946   1.536   4.874   0.723  0.4815  0.9137 -2.1551
 3579WAT      O10947   1.410   2.223   2.195 -0.0068  0.3576 -0.0233
 3579WAT     H110948   1.489   2.174   2.217 -0.0856  0.0552 -0.4085
 3579WAT     H210949   1.340   2.157   2.197 -0.3151  0.6926  0.6999
 3580WAT      O10950   0.292   0.276   2.434  0.0780 -1.0514  0.2338
 3580WAT     H110951   0.351   0.218   2.483  0.8203 -1.0446 -0.6117
 3580WAT     H210952   0.327   0.364   2.448 -0.6708 -0.8616  0.9961
 3581WAT      O10953   4.284   1.769   0.361  0.1187 -0.7051  0.2302
 3581WAT     H110954   4.315   1.854   0.331  0.5982 -0.9046  0.1400
 3581WAT     H210955   4.189   1.776   0.360  0.1365 -0.4571 -0.6011
 3582WAT      O10956   3.493   2.453   0.835 -0.2099  0.2288  0.2184
 3582WAT     H110957   3.413   2.417   0.796 -0.0648  0.2333 -0.0903
 3582WAT     H210958   3.463   2.530   0.883 -0.4201  0.1093  0.2842
 3583WAT      O10959   0.494   1.829   1.225  0.2905  0.2989 -0.1065
 3583WAT     H110960   0.507   1.923   1.231  1.2932  0.1847 -0.3700
 3583WAT     H210961   0.582   1.792   1.227 -0.1000 -0.6587  0.3336
 3584WAT      O10962   0.529   3.851   5.063 -0.1279  0.1427 -0.0037
 3584WAT     H110963   0.458   3.801   5.023  1.0540  0.2729 -2.3961
 3584WAT     H210964   0.552   3.799   5.141  0.2035 -2.4638 -1.6933
 3585WAT      O10965   3.809   1.713   2.847  0.1841 -0.0215 -0.2483
 3585WAT     H110966   3.723   1.730   2.809  1.1210  2.7241 -1.4328
 3585WAT     H210967   3.835   1.797   2.886  1.3701 -1.4191  2.2064
 3586WAT      O10968   1.843   3.736   3.169 -0.0435  0.5771 -0.2350
 3586WAT     H110969   1.824   3.804   3.104 -0.8708  0.6433  0.0566
 3586WAT     H210970   1.862   3.658   3.117 -1.1098  0.5238 -0.5685
 3587WAT      O10971   3.771   1.903   0.469  0.0657 -0.2546  0.3175
 3587WAT     H110972   3.779   1.998   0.472 -1.2212 -0.0986 -0.5281
 3587WAT     H210973   3.679   1.886   0.451  0.3610 -1.6496 -0.0780
 3588WAT      O10974   0.747   3.885   1.761  0.1481  0.4535 -0.1258
 3588WAT     H110975   0.674   3.859   1.817  0.1693  0.5139 -0.0700
 3588WAT     H210976   0.733   3.837   1.679 -0.1381  0.7235 -0.2388
 3589WAT      O10977   2.614   0.912   0.822 -0.0755  0.2892  0.4626
 3589WAT     H110978   2.669   0.989   0.836 -1.5582  1.3255  0.7509
 3589WAT     H210979   2.607   0.904   0.727  1.2470 -0.3788  0.3953
 3590WAT      O10980   1.309   4.184   3.222  0.8430  0.6929 -0.2795
 3590WAT     H110981   1.224   4.206   3.260  1.3999  3.9164 -0.6292
 3590WAT     H210982   1.291   4.167   3.130  0.5683  1.5830 -0.3991
 3591WAT      O10983   1.704   4.626   4.614  0.3111 -0.2646 -0.5411
 3591WAT     H110984   1.615   4.600   4.588  0.8906 -1.8297 -1.0485
 3591WAT     H210985   1.760   4.590   4.546  1.3140  1.2315 -0.5504
 3592WAT      O10986   2.274   0.136   4.012  0.6938  0.8615  0.7296
 3592WAT     H110987   2.257   0.055   3.964 -1.6000  0.1379  2.5686
 3592WAT     H210988   2.355   0.119   4.061  0.2231 -0.3383  1.1137
 3593WAT      O10989   0.972   4.070   1.336  0.5573  0.3235 -0.1764
 3593WAT     H110990   0.913   4.130   1.290  3.0801  2.3402 -1.0272
 3593WAT     H210991   0.937   4.065   1.425 -1.5640  0.3807 -0.9490
 3594WAT      O10992   1.636   4.319   2.737 -0.1541  0.0735 -0.1005
 3594WAT     H110993   1.715   4.305   2.789 -0.4710  1.1643  0.6868
 3594WAT     H210994   1.663   4.297   2.647  1.0101  0.3304  0.1734
 3595WAT      O10995   3.469   4.101   3.032  0.1465  0.3200 -0.3232
 3595WAT     H110996   3.453   4.195   3.022  0.6506  0.3387 -1.0681
 3595WAT     H210997   3.444   4.082   3.122 -1.2867  0.8922 -0.5613
 3596WAT      O10998   4.516   0.492   0.048 -0.2508  0.5435 -0.2999
 3596WAT     H110999   4.555   0.527   0.128 -0.5930  0.6221 -0.1676
 3596WAT     H211000   4.460   0.421   0.077  1.0266 -0.6518 -0.6280
 3597WAT      O11001   4.042   2.708   0.628 -0.1411 -0.0065  0.4814
 3597WAT     H111002   4.048   2.799   0.602  2.4726 -0.6013 -1.3736
 3597WAT     H211003   4.070   2.658   0.551 -0.7601 -2.3450  1.6568
 3598WAT      O11004   1.318   2.046   4.679  0.0692 -0.0421  0.4070
 3598WAT     H111005   1.349   1.960   4.652 -1.1627 -0.4702  0.3199
 3598WAT     H211006   1.227   2.033   4.705  0.2033  1.0209  1.4995
 3599WAT      O11007   3.086   2.549   3.131  0.2008 -0.4144 -0.3273
 3599WAT     H111008   3.171   2.563   3.173 -0.6676  0.5683  1.1927
 3599WAT     H211009   3.084   2.611   3.059 -0.4300  1.8879  1.5586
 3600WAT      O11010   1.786   2.106   0.971 -0.0731  0.5300  0.3824
 3600WAT     H111011   1.818   2.136   1.055  1.4734 -0.0998  0.0427
 3600WAT     H211012   1.696   2.076   0.989  0.4184 -0.1061  1.9079
 3601WAT      O11013   2.104   2.230   1.297 -0.0038  0.0983  0.0364
 3601WAT     H111014   2.045   2.304   1.286 -1.0537 -0.8933 -1.4822
 3601WAT     H211015   2.061   2.158   1.250  1.3035 -1.2910  0.8585
 3602WAT      O11016   0.472   1.759   3.777  0.8747  0.4638  0.4745
 3602WAT     H111017   0.494   1.818   3.705 -0.9716  0.0974 -0.4408
 3602WAT     H211018   0.423   1.813   3.839  0.3834  0.2393  0.2920
 3603WAT      O11019   3.694   0.032   2.189  0.1907 -0.5239  0.1311
 3603WAT     H111020   3.602   0.020   2.210  0.4482 -1.1744  0.9072
 3603WAT     H211021   3.703  -0.001   2.099 -0.4220  0.0023 -0.1295
 3604WAT      O11022   0.343   2.643   4.056  0.0482 -0.4220  0.2813
 3604WAT     H111023   0.412   2.705   4.033 -0.7854  1.3162  2.1308
 3604WAT     H211024   0.262   2.692   4.039 -0.6567 -1.3153  0.9875
 3605WAT      O11025   4.362   3.184   5.221  0.4897  0.1649  0.2618
 3605WAT     H111026   4.386   3.274   5.240 -0.5262  0.9469 -1.8397
 3605WAT     H211027   4.266   3.183   5.224  0.2221  0.1985 -3.4243
 3606WAT      O11028   4.454   3.465   1.810 -0.6594 -0.2060  0.1906
 3606WAT     H111029   4.491   3.525   1.874 -0.5990  1.4205 -1.3006
 3606WAT     H211030   4.496   3.381   1.828  1.4667  0.8718  0.4920
 3607WAT      O11031   2.165   0.706   0.220 -0.4712 -0.4422  0.0031
 3607WAT     H111032   2.134   0.692   0.131  1.3569 -1.1415 -0.5737
 3607WAT     H211033   2.137   0.794   0.242  0.2263  0.2628 -1.7959
 3608WAT      O11034   2.323   4.871   3.481  0.4034  0.0815  0.0049
 3608WAT     H111035   2.369   4.955   3.479  1.8496 -0.5998  2.0452
 3608WAT     H211036   2.268   4.875   3.559 -0.4388 -0.4333 -0.5455
 3609WAT      O11037   3.123   3.477   0.707  0.2422 -0.2859  0.2081
 3609WAT     H111038   3.157   3.564   0.729 -2.1029  0.3981  1.5422
 3609WAT     H211039   3.111   3.434   0.792  1.0740 -1.8437 -0.4152
 3610WAT      O11040   2.727   4.960   1.074 -0.6313  0.4053  0.0914
 3610WAT     H111041   2.777   5.042   1.066 -0.7787  0.3087 -4.2320
 3610WAT     H211042   2.642   4.987   1.110 -0.4923  2.1343 -0.7691
 3611WAT      O11043   3.517   2.580   4.261  0.0169 -0.3886 -0.3667
 3611WAT     H111044   3.586   2.520   4.291  2.0615  1.3281 -1.3380
 3611WAT     H211045   3.496   2.633   4.338  0.5075 -0.3143 -0.2761
 3612WAT      O11046   2.904   3.680   1.002  0.1404 -0.3776  0.3133
 3612WAT     H111047   2.998   3.694   0.990 -0.3469  3.6449 -0.1014
 3612WAT     H211048   2.863   3.728   0.930 -2.2946 -2.2552  0.3204
 3613WAT      O11049   3.694   3.819   4.661  0.2785 -0.3243 -0.2735
 3613WAT     H111050   3.785   3.848   4.663  0.7118 -1.5752 -0.5599
 3613WAT     H211051   3.643   3.895   4.689  1.5024 -0.0016  1.1669
 3614WAT      O11052   4.217   2.567   2.616  0.0799 -0.0813 -0.5201
 3614WAT     H111053   4.246   2.528   2.533 -1.6765 -0.1970 -1.1380
 3614WAT     H211054   4.148   2.629   2.590 -0.5174 -0.1301  0.8576
 3615WAT      O11055   3.994   1.538   1.338  0.3899 -0.8008 -0.4320
 3615WAT     H111056   3.906   1.512   1.366 -0.0221  0.9707  0.1162
 3615WAT     H211057   4.044   1.544   1.419 -0.3818  2.8566 -0.0400
 3616WAT      O11058   4.207   1.441   3.338  0.0334  0.1755 -0.3692
 3616WAT     H111059   4.244   1.430   3.250 -1.4656  2.2753 -1.3486
 3616WAT     H211060   4.211   1.353   3.376  2.0525 -0.5093 -1.9620
 3617WAT      O11061   0.099   2.094   2.992 -0.1125  0.4219  0.3163
 3617WAT     H111062   0.046   2.019   3.017 -0.4983  1.3888  2.6701
 3617WAT     H211063   0.043   2.146   2.935  0.4966 -1.4553 -2.1687
 3618WAT      O11064   0.074   2.028   0.510 -0.0774  0.4391 -0.0074
 3618WAT     H111065   0.039   2.114   0.487  0.9348  0.9841  0.4496
 3618WAT     H211066   0.137   2.008   0.441 -0.0449  0.2273  0.0823
 3619WAT      O11067   3.156   0.485   1.410 -0.0087  0.1587 -0.2638
 3619WAT     H111068   3.147   0.580   1.396  0.4422  0.2057 -0.2659
 3619WAT     H211069   3.220   0.478   1.481  1.1809 -0.1742 -1.3329
 3620WAT      O11070   3.169   0.691   1.841  0.0958 -0.1715 -0.1450
 3620WAT     H111071   3.151   0.602   1.811  0.4208 -0.7492  1.2846
 3620WAT     H211072   3.264   0.693   1.856  0.0312  0.2750  0.2389
 3621WAT      O11073   0.472   2.095   0.930  0.0961  0.6203 -0.0318
 3621WAT     H111074   0.382   2.072   0.906  0.7361 -1.5414 -0.5678
 3621WAT     H211075   0.515   2.011   0.944  1.4091  1.6365  2.7349
 3622WAT      O11076   3.549   4.528   3.296  0.1780  0.1808  0.3924
 3622WAT     H111077   3.604   4.449   3.300  0.7371  0.4273 -1.6349
 3622WAT     H211078   3.468   4.499   3.255  0.4743  0.6754 -0.5812
 3623WAT      O11079   1.153   3.853   1.753 -0.2103  0.0678 -0.0896
 3623WAT     H111080   1.212   3.925   1.773 -0.0398  0.0533 -0.5223
 3623WAT     H211081   1.165   3.791   1.825  2.8492 -1.5453 -1.8040
 3624WAT      O11082   2.486   4.090   2.185  0.1850 -0.4097  0.8428
 3624WAT     H111083   2.454   4.176   2.212 -0.8909 -0.0143 -1.4295
 3624WAT     H211084   2.409   4.034   2.187  0.7267 -1.1387  1.5982
 3625WAT      O11085   4.470   5.007   3.238  0.3185 -0.3281 -0.4045
 3625WAT     H111086   4.377   5.017   3.219 -0.4805 -2.9536  1.4916
 3625WAT     H211087   4.502   5.096   3.251 -2.3157  0.5699  0.5375
 3626WAT      O11088   1.125   0.986   1.697  0.4779 -0.0823  0.4128
 3626WAT     H111089   1.137   1.080   1.682 -2.1975  0.5571  1.6910
 3626WAT     H211090   1.133   0.947   1.610 -0.9415  1.6958 -0.5866
 3627WAT      O11091   3.921   2.667   4.682 -0.2906 -0.1150  0.6625
 3627WAT     H111092   3.996   2.684   4.626 -0.0810 -1.6664  0.4259
 3627WAT     H211093   3.923   2.736   4.748  0.9726  0.2162  0.2877
 3628WAT      O11094   4.417   4.063   0.543  0.3614 -0.3297  0.1222
 3628WAT     H111095   4.362   4.130   0.585  0.7026  0.4752 -0.6793
 3628WAT     H211096   4.507   4.093   0.559  0.5854 -1.4914  1.1870
 3629WAT      O11097   1.080   5.134   0.916  0.2592 -0.3555  0.1172
 3629WAT     H111098   1.167   5.105   0.888 -0.7484 -1.6926 -1.8684
 3629WAT     H211099   1.038   5.055   0.949 -0.9732 -0.2642 -1.1288
 3630WAT      O11100   2.668   5.150   1.938  0.3682  0.0305  0.1093
 3630WAT     H111101   2.683   5.065   1.897  0.7323  0.6277 -1.0263
 3630WAT     H211102   2.704   5.141   2.026  2.4905 -0.2872 -0.7412
 3631WAT      O11103   0.135   3.643   1.563  0.3948 -0.1853  0.1000
 3631WAT     H111104   0.213   3.667   1.613  0.3509  0.0485  0.0548
 3631WAT     H211105   0.064   3.648   1.627  0.1057  1.5584 -0.3203
 3632WAT      O11106   4.233   1.591   1.201  0.1773  0.1549  0.9406
 3632WAT     H111107   4.301   1.658   1.204 -0.5791  1.0059  0.0914
 3632WAT     H211108   4.169   1.618   1.267  1.7380 -1.9629  3.5105
 3633WAT      O11109   2.840   2.396   4.826  0.0315 -0.1575 -0.3708
 3633WAT     H111110   2.788   2.328   4.870 -2.2879  1.2724 -0.7043
 3633WAT     H211111   2.870   2.453   4.897  1.0750 -0.9223 -0.1862
 3634WAT      O11112   3.871   3.409   3.432  0.6206 -0.0250  0.4475
 3634WAT     H111113   3.902   3.376   3.348  0.4409  2.6334 -0.7748
 3634WAT     H211114   3.798   3.351   3.455 -1.6777  1.1229 -3.0479
 3635WAT      O11115   4.114   4.643   2.806  0.8983  0.3239  0.1629
 3635WAT     H111116   4.118   4.581   2.878  1.7458  0.3024  0.1057
 3635WAT     H211117   4.026   4.633   2.770  1.0035 -0.8065  0.1869
 3636WAT      O11118   1.308   1.129   0.694 -0.2434 -0.1881 -0.1183
 3636WAT     H111119   1.265   1.089   0.618 -0.7456  0.8617 -0.3976
 3636WAT     H211120   1.258   1.095   0.769  0.2672 -1.2448 -0.2335
 3637WAT      O11121   1.708   3.322   3.403 -0.4565 -0.4842  0.1611
 3637WAT     H111122   1.655   3.387   3.448  0.7166  0.0125  0.8737
 3637WAT     H211123   1.700   3.343   3.310 -0.4066  0.4329  0.3617
 3638WAT      O11124   2.562   0.024   1.289 -0.8018 -0.0439 -0.3138
 3638WAT     H111125   2.590  -0.017   1.371  1.0982  2.4127  0.3795
 3638WAT     H211126   2.471   0.050   1.305 -1.4652 -2.2848 -0.1628
 3639WAT      O11127   4.229   1.406   0.991 -0.0364  0.2851  0.1106
 3639WAT     H111128   4.242   1.456   1.071 -1.3209  0.7499  0.0564
 3639WAT     H211129   4.299   1.434   0.932  1.4210 -0.6711  1.3380
 3640WAT      O11130   0.764   4.317   1.659 -0.2049  0.0637 -0.5636
 3640WAT     H111131   0.694   4.261   1.694  2.0549 -1.4735  1.8055
 3640WAT     H211132   0.768   4.294   1.566 -1.5909 -1.1866 -0.3591
 3641WAT      O11133   0.999   3.255   4.791 -0.1470  0.4880  0.0944
 3641WAT     H111134   1.082   3.285   4.755 -0.1813  0.9194  0.3630
 3641WAT     H211135   0.979   3.175   4.743  0.4958  0.2994  0.1358
 3642WAT      O11136   3.028   2.690   2.607  0.3987 -0.8749 -0.3374
 3642WAT     H111137   2.975   2.611   2.600 -0.2342 -0.4098 -0.9055
 3642WAT     H211138   2.965   2.762   2.611  0.9101 -0.4672  1.6886
 3643WAT      O11139   1.184   4.344   0.830  0.6752  0.0253 -0.7114
 3643WAT     H111140   1.118   4.397   0.785  0.9647  0.8207 -0.2182
 3643WAT     H211141   1.263   4.354   0.778  0.5793 -0.3940 -0.9384
 3644WAT      O11142   2.550   3.581   4.215  0.1376 -0.5534 -0.2513
 3644WAT     H111143   2.539   3.486   4.212 -0.3543 -0.4927 -0.4246
 3644WAT     H211144   2.544   3.609   4.124 -0.6375 -0.2589 -0.1186
 3645WAT      O11145   3.665   0.790   2.181  0.4866 -0.4714  0.3995
 3645WAT     H111146   3.668   0.721   2.115  2.4310 -0.0399 -0.0472
 3645WAT     H211147   3.746   0.777   2.232 -0.6224 -0.3736  2.2769
 3646WAT      O11148   3.656   1.865   4.578  0.2123  0.6840 -0.3432
 3646WAT     H111149   3.703   1.919   4.643 -1.9259  0.5657  1.4283
 3646WAT     H211150   3.715   1.791   4.562  1.2091  1.1851  0.8036
 3647WAT      O11151   2.852   3.825   4.095 -0.3755 -0.0680 -0.8306
 3647WAT     H111152   2.774   3.866   4.132  0.6705  0.8987  0.4296
 3647WAT     H211153   2.866   3.870   4.012 -1.3231 -0.4750 -1.2200
 3648WAT      O11154   4.322   0.530   1.726 -0.6394 -0.0563 -0.0701
 3648WAT     H111155   4.302   0.445   1.686  0.6142  0.5756 -2.2009
 3648WAT     H211156   4.240   0.577   1.725 -1.0516 -0.7569 -0.1340
 3649WAT      O11157   4.129   1.775   2.401  0.0031  0.0744 -0.8954
 3649WAT     H111158   4.102   1.867   2.395  1.3193  0.5889  0.4720
 3649WAT     H211159   4.100   1.747   2.487  1.3455 -0.1826 -0.5085
 3650WAT      O11160   3.643   0.100   4.287 -0.3940  0.9014 -0.9532
 3650WAT     H111161   3.649   0.067   4.376  1.1264  1.0170 -0.9789
 3650WAT     H211162   3.621   0.024   4.234  0.2959  0.4951 -0.6678
 3651WAT      O11163   3.769   1.374   1.061 -0.2610 -0.0620  0.2496
 3651WAT     H111164   3.721   1.291   1.064  0.3011 -0.3640  1.6366
 3651WAT     H211165   3.725   1.429   1.126  0.0350  0.3602  0.0972
 3652WAT      O11166   4.071   0.967   0.080  0.3357 -0.1224  0.0869
 3652WAT     H111167   4.136   0.985   0.012  1.1399  2.3818  1.4017
 3652WAT     H211168   4.116   0.908   0.140  1.0312  0.7175  0.4100
 3653WAT      O11169   3.953   3.882   2.302 -0.6114  0.6854  0.1626
 3653WAT     H111170   4.025   3.944   2.286 -0.8536  0.7321 -0.8206
 3653WAT     H211171   3.876   3.937   2.312 -0.7042  0.5817  0.0255
 3654WAT      O11172   1.582   4.166   1.324  0.5726 -0.2999 -0.8566
 3654WAT     H111173   1.586   4.255   1.290  0.0502  0.3337  0.6686
 3654WAT     H211174   1.553   4.113   1.250  0.9348  0.7809 -1.7968
 3655WAT      O11175   4.215   3.260   4.496  0.4950  0.0600 -0.4409
 3655WAT     H111176   4.239   3.172   4.525  1.4198  0.3942 -0.1518
 3655WAT     H211177   4.214   3.254   4.400  0.7310 -0.2205 -0.4270
 3656WAT      O11178   2.226   0.696   1.794 -0.1889  0.0141  0.0515
 3656WAT     H111179   2.137   0.662   1.806  0.2238 -0.3657  2.4108
 3656WAT     H211180   2.282   0.620   1.811  0.6239  0.7235  0.5983
 3657WAT      O11181   3.062   4.511   1.936 -0.1505 -0.2503  0.0628
 3657WAT     H111182   3.128   4.491   2.002 -0.7590  1.5310  1.2900
 3657WAT     H211183   3.008   4.579   1.976  0.2076  1.8639 -2.7314
 3658WAT      O11184   4.039   0.204   4.676  0.6989 -0.1172  0.2745
 3658WAT     H111185   4.025   0.173   4.586  0.6360  1.2853 -0.2281
 3658WAT     H211186   3.960   0.255   4.696  0.1514 -1.4117  1.6050
 3659WAT      O11187   4.065   1.299   2.550  0.0307  0.3309 -0.0733
 3659WAT     H111188   4.024   1.343   2.475  0.2764  1.4857  0.4473
 3659WAT     H211189   4.070   1.207   2.524  1.5871  0.9400 -2.1664
 3660WAT      O11190   1.456   3.362   0.945 -0.0305  0.0655 -0.1376
 3660WAT     H111191   1.541   3.380   0.905 -0.1835 -0.3472 -0.6673
 3660WAT     H211192   1.474   3.295   1.011  0.3522  1.2966  1.0580
 3661WAT      O11193   2.808   5.045   0.017  0.1469  0.1129 -0.0457
 3661WAT     H111194   2.745   4.981   0.050 -0.0635  0.6403  0.6023
 3661WAT     H211195   2.887   5.029   0.068  0.6059 -0.6710 -0.9893
 3662WAT      O11196   1.054   0.044   1.961 -0.0790 -0.1923 -0.1021
 3662WAT     H111197   1.084   0.131   1.934  1.7195 -0.7124  0.1080
 3662WAT     H211198   1.067  -0.011   1.884 -0.4368 -0.4681  0.0313
 3663WAT      O11199   3.540   0.326   1.847  0.4805 -0.4877  0.6130
 3663WAT     H111200   3.536   0.288   1.934  0.6564 -0.9455  0.4260
 3663WAT     H211201   3.509   0.256   1.789 -2.4477  0.7078  0.5435
 3664WAT      O11202   1.404   3.024   4.807  0.3947  0.7911 -0.6789
 3664WAT     H111203   1.496   3.010   4.784  0.5941 -0.6892  0.8299
 3664WAT     H211204   1.406   3.052   4.899 -0.6030  2.3291 -1.0802
 3665WAT      O11205   2.235   1.603   4.939 -0.3220 -0.4490 -0.3863
 3665WAT     H111206   2.273   1.676   4.891  0.5891 -0.5472  0.1674
 3665WAT     H211207   2.299   1.583   5.007 -1.6488 -0.1903  0.9921
 3666WAT      O11208   1.797   2.066   1.312 -0.7972 -0.4070  0.0975
 3666WAT     H111209   1.742   2.002   1.356 -0.9007  0.9612  2.0867
 3666WAT     H211210   1.746   2.147   1.312 -0.3486 -0.0692 -1.6280
 3667WAT      O11211   0.679   0.772   2.024  0.2051 -0.0185 -0.3747
 3667WAT     H111212   0.624   0.776   1.946 -1.4645  0.0949  0.7644
 3667WAT     H211213   0.735   0.695   2.010 -1.0903 -0.8769 -1.0360
 3668WAT      O11214   0.558   0.178   0.205  0.2873  0.5305  0.1524
 3668WAT     H111215   0.478   0.177   0.257 -0.0964 -1.0987 -0.4273
 3668WAT     H211216   0.543   0.247   0.140 -1.3349 -0.8147 -0.9619
 3669WAT      O11217   2.626   4.204   1.452  0.3935  0.0422 -0.2874
 3669WAT     H111218   2.664   4.119   1.429 -0.0597 -0.5021  0.8806
 3669WAT     H211219   2.700   4.265   1.448  0.5949 -0.2579 -1.7721
 3670WAT      O11220   3.578   3.228   1.041 -0.0854  0.4101 -0.4687
 3670WAT     H111221   3.656   3.190   1.081  0.1687  0.5836 -0.7930
 3670WAT     H211222   3.546   3.291   1.105 -1.0733 -1.0178  0.5099
 3671WAT      O11223   0.507   3.793   1.515 -0.5839 -0.2474 -0.2926
 3671WAT     H111224   0.578   3.767   1.574 -0.0842  1.8908  0.1402
 3671WAT     H211225   0.441   3.831   1.574 -1.3646 -0.6962 -0.8607
 3672WAT      O11226   3.174   3.966   5.241 -0.5625 -0.3531  0.2358
 3672WAT     H111227   3.182   3.880   5.199  3.3516 -1.1415  2.1160
 3672WAT     H211228   3.208   4.028   5.178 -1.4527 -0.4315 -0.3427
 3673WAT      O11229   0.237   0.131   1.596 -0.7334  0.2095  0.1187
 3673WAT     H111230   0.162   0.109   1.650  0.3579 -0.7611  1.3125
 3673WAT     H211231   0.313   0.117   1.653  0.4133  0.0859 -1.3588
 3674WAT      O11232   3.865   0.264   4.231  0.0116 -0.4641 -0.1847
 3674WAT     H111233   3.776   0.234   4.246 -0.0161 -0.6403 -0.6747
 3674WAT     H211234   3.864   0.297   4.142  0.1567  0.5802  0.1903
 3675WAT      O11235   1.068   3.608   1.011 -0.3586 -0.1725 -0.4270
 3675WAT     H111236   0.979   3.588   0.981 -0.8027  1.1403 -0.0833
 3675WAT     H211237   1.095   3.683   0.959  0.5240 -0.5019 -0.4598
 3676WAT      O11238   2.389   1.178   5.195 -0.3872  0.2174 -0.0087
 3676WAT     H111239   2.458   1.239   5.223  0.3414 -1.1391  1.2734
 3676WAT     H211240   2.308   1.218   5.228  0.0986  0.4006  1.0067
 3677WAT      O11241   4.305   1.695   2.207  0.5070 -0.0282  0.9768
 3677WAT     H111242   4.242   1.709   2.278  0.2842 -0.7243  0.9159
 3677WAT     H211243   4.274   1.751   2.136 -0.8655 -1.4300  0.4331
 3678WAT      O11244   0.559   2.922   2.661  0.4014 -0.1349  0.0382
 3678WAT     H111245   0.557   2.832   2.695 -0.5183  0.3993  1.5176
 3678WAT     H211246   0.646   2.932   2.625  1.4682 -0.8269  2.2360
 3679WAT      O11247   0.336   0.469   4.279 -0.1338  0.7001 -0.5832
 3679WAT     H111248   0.354   0.417   4.201  3.3084  0.9289 -0.1139
 3679WAT     H211249   0.278   0.539   4.249  0.6067  0.4450 -2.8053
 3680WAT      O11250   4.480   2.317   4.274 -0.2370  0.3590 -0.5966
 3680WAT     H111251   4.468   2.329   4.368  0.6208  1.1437 -0.5765
 3680WAT     H211252   4.438   2.393   4.234  0.1233  0.4597 -0.7937
 3681WAT      O11253   3.792   3.131   2.049 -0.4406  0.8938  0.2600
 3681WAT     H111254   3.746   3.052   2.020 -0.2908  1.3609 -1.2995
 3681WAT     H211255   3.738   3.165   2.121 -1.3972  0.2829 -0.1501
 3682WAT      O11256   3.531   2.440   3.183  0.1816 -0.2997  0.1487
 3682WAT     H111257   3.609   2.393   3.211  0.3012 -1.0364 -1.3141
 3682WAT     H211258   3.558   2.483   3.101 -0.7998 -0.1702 -0.1147
 3683WAT      O11259   0.037   3.980   2.906  0.4861 -0.4632 -0.2215
 3683WAT     H111260   0.080   3.894   2.897  0.8545 -0.0800 -2.8888
 3683WAT     H211261  -0.056   3.961   2.896  0.4103 -0.7148  0.8255
 3684WAT      O11262   4.397   1.453   2.205  0.2740 -0.2794  0.1069
 3684WAT     H111263   4.469   1.438   2.267 -0.6846 -0.1602  1.2910
 3684WAT     H211264   4.381   1.548   2.210 -0.5946 -0.4420  0.5962
 3685WAT      O11265   0.455   3.191   0.925 -0.2828  0.0388  0.3451
 3685WAT     H111266   0.413   3.153   0.848 -0.4654  2.4036 -0.7858
 3685WAT     H211267   0.549   3.176   0.910 -0.3245  0.3712 -0.2909
 3686WAT      O11268   0.766   1.580   0.297  0.0400  0.5572  0.0161
 3686WAT     H111269   0.674   1.589   0.274  0.6855  1.4001 -2.6616
 3686WAT     H211270   0.794   1.499   0.256  0.7791  0.9960 -0.3810
 3687WAT      O11271   2.706   0.452   1.554  0.0844 -0.1876  0.4183
 3687WAT     H111272   2.732   0.544   1.557 -2.7415  0.8551 -2.2761
 3687WAT     H211273   2.788   0.404   1.541  1.3525  2.2787 -1.4220
 3688WAT      O11274   0.370   4.738   0.603 -0.4079 -0.4385  0.3107
 3688WAT     H111275   0.320   4.806   0.558  1.0820  0.3904 -0.1476
 3688WAT     H211276   0.312   4.709   0.674 -1.5701  0.3885 -0.2592
 3689WAT      O11277   3.896   1.556   5.076 -0.2675 -0.7368  0.0860
 3689WAT     H111278   3.880   1.469   5.039  0.5267 -0.8492 -0.0169
 3689WAT     H211279   3.991   1.560   5.088 -0.4245 -0.3732  1.3211
 3690WAT      O11280   0.499   2.003   0.331 -0.0066  0.4159 -0.0645
 3690WAT     H111281   0.495   2.019   0.237 -0.0544 -0.4694 -0.2174
 3690WAT     H211282   0.592   2.012   0.352  0.3313 -1.4730 -0.5909
 3691WAT      O11283   1.903   3.165   3.500 -0.6384  0.2347 -0.4771
 3691WAT     H111284   1.883   3.152   3.593  1.2831  0.1989 -0.0250
 3691WAT     H211285   1.830   3.217   3.466 -1.0419  0.8223  1.2156
 3692WAT      O11286   2.095   4.637   0.345  0.3079  0.6728  0.5869
 3692WAT     H111287   2.055   4.714   0.385 -0.7397  0.6862 -0.4288
 3692WAT     H211288   2.052   4.563   0.388 -2.6094  0.6447 -1.9620
 3693WAT      O11289   2.008   0.236   1.045  0.3490  0.7216  0.5027
 3693WAT     H111290   1.946   0.190   1.101  0.9538 -0.9871 -0.1627
 3693WAT     H211291   2.033   0.314   1.095 -1.2116  0.6930  1.3831
 3694WAT      O11292   3.910   2.513   3.049  0.0226  0.0097  0.6405
 3694WAT     H111293   3.947   2.510   2.961 -0.1470 -0.5929  0.5857
 3694WAT     H211294   3.817   2.530   3.034  0.3022  1.9045  0.7906
 3695WAT      O11295   3.782   1.070   1.760  0.3193  0.3694 -0.1230
 3695WAT     H111296   3.796   0.975   1.756 -0.1308  0.3370 -1.1327
 3695WAT     H211297   3.853   1.107   1.707 -0.9239  0.4326 -1.8191
 3696WAT      O11298   2.536   1.871   1.685 -0.2952  0.3257  0.3100
 3696WAT     H111299   2.512   1.832   1.601 -1.4902  0.0624  0.7411
 3696WAT     H211300   2.613   1.924   1.666 -1.0968  1.0277 -1.1523
 3697WAT      O11301   0.144   3.077   4.490 -0.3118 -0.6684  0.4908
 3697WAT     H111302   0.067   3.056   4.438 -0.2313  0.4811 -0.1192
 3697WAT     H211303   0.213   3.094   4.426  0.1899 -0.7212  1.0063
 3698WAT      O11304   2.349   1.592   4.326 -0.3872  0.0697 -0.3216
 3698WAT     H111305   2.436   1.571   4.292 -0.1209  0.7194 -0.0677
 3698WAT     H211306   2.337   1.535   4.401  0.4951  1.0704  0.6185
 3699WAT      O11307   1.610   0.778   1.876 -0.7147  0.1405  0.0734
 3699WAT     H111308   1.612   0.688   1.907  0.1683  0.5844  1.3664
 3699WAT     H211309   1.538   0.819   1.924  0.7924  0.8866  1.7805
 3700WAT      O11310   1.310   2.128   0.347  0.4269  0.0355  0.2009
 3700WAT     H111311   1.278   2.087   0.267  0.7857  2.4810 -1.3268
 3700WAT     H211312   1.406   2.123   0.339  0.4760  1.0093  0.0227
 3701WAT      O11313   4.142   2.433   1.043 -0.0572  0.9537 -0.2281
 3701WAT     H111314   4.083   2.463   0.974  0.2466  0.7952 -0.5586
 3701WAT     H211315   4.117   2.342   1.059  0.4571  0.7071 -0.7646
 3702WAT      O11316   2.680   4.186   2.350 -0.2715 -0.5693 -0.0541
 3702WAT     H111317   2.648   4.096   2.355  0.2977 -0.7308  1.1029
 3702WAT     H211318   2.614   4.238   2.395  0.8333 -0.8591  2.0445
 3703WAT      O11319   3.282   1.534   0.930  0.2682  0.3774  0.3354
 3703WAT     H111320   3.201   1.552   0.977 -0.0198 -1.0582  0.4295
 3703WAT     H211321   3.256   1.474   0.860  1.4425 -1.1735  1.1787
 3704WAT      O11322   3.080   0.101   3.637 -0.8558  0.2578  0.5899
 3704WAT     H111323   3.135   0.159   3.689 -0.4064 -0.3357  0.7822
 3704WAT     H211324   3.059   0.151   3.558 -0.0664  0.4951  0.5291
 3705WAT      O11325   1.512   2.071   0.761  0.1511  0.7827  0.5421
 3705WAT     H111326   1.482   2.071   0.852 -1.6039 -0.2637  0.0070
 3705WAT     H211327   1.467   1.997   0.720  1.6545  0.6323 -0.9591
 3706WAT      O11328   1.035   1.075   2.658  0.2233 -0.0896 -0.7366
 3706WAT     H111329   0.966   1.073   2.592  0.6811  1.2622 -1.3027
 3706WAT     H211330   0.998   1.029   2.733 -0.8941 -0.2869 -1.3851
 3707WAT      O11331   1.658   3.409   4.901  0.0080  0.0205 -0.1370
 3707WAT     H111332   1.641   3.437   4.991 -0.1193  0.0369 -0.1658
 3707WAT     H211333   1.696   3.321   4.910 -1.1350 -0.4855 -0.1199
 3708WAT      O11334   1.438   2.266   1.758  0.0040 -0.0623 -0.0324
 3708WAT     H111335   1.353   2.239   1.794 -0.3693  1.8072  0.6174
 3708WAT     H211336   1.442   2.224   1.672 -1.7060 -0.0056 -0.1827
 3709WAT      O11337   3.160   0.758   4.459 -0.3582 -0.1186  0.9451
 3709WAT     H111338   3.178   0.844   4.421  0.8318 -0.1280  1.4502
 3709WAT     H211339   3.101   0.775   4.532 -1.9347 -0.0004 -0.2966
 3710WAT      O11340   2.701   0.485   3.297 -0.1339  0.9851  0.1478
 3710WAT     H111341   2.651   0.485   3.379 -1.4726  0.9431 -0.6395
 3710WAT     H211342   2.693   0.574   3.264  1.4564  1.3501  0.6451
 3711WAT      O11343   4.269   3.820   1.333  0.6470  0.5860  0.5863
 3711WAT     H111344   4.361   3.825   1.357  0.5907 -0.0323  0.9645
 3711WAT     H211345   4.235   3.745   1.384  0.2298  0.0205 -0.4981
 3712WAT      O11346   3.817   1.020   2.719  0.5432 -0.0580 -0.2158
 3712WAT     H111347   3.901   1.020   2.674  0.8225 -0.3718  0.3014
 3712WAT     H211348   3.820   0.944   2.777 -0.0928 -0.0706 -0.1876
 3713WAT      O11349   1.203   3.726   1.262  0.4986  0.6090  0.2512
 3713WAT     H111350   1.179   3.691   1.177 -1.6405 -3.1309  2.1544
 3713WAT     H211351   1.299   3.720   1.264  0.4625 -1.4958 -1.0835
 3714WAT      O11352   2.266   4.605   1.298 -0.3484  0.0469  0.0084
 3714WAT     H111353   2.266   4.700   1.296 -0.7927  0.0760  1.1042
 3714WAT     H211354   2.348   4.580   1.255 -0.8502  0.8744 -1.4882
 3715WAT      O11355   2.023   0.739   1.341  0.0309  0.2113 -0.0168
 3715WAT     H111356   2.013   0.755   1.247  1.1936  0.6744 -0.0831
 3715WAT     H211357   1.969   0.805   1.383 -0.5553 -0.0464 -0.3518
 3716WAT      O11358   3.354   0.646   2.186 -0.4404  0.2152  0.9014
 3716WAT     H111359   3.382   0.723   2.235  1.6887  0.8030 -1.0624
 3716WAT     H211360   3.384   0.571   2.238  2.8621  0.8229  0.0752
 3717WAT      O11361   3.827  -0.004   3.004  0.4302  0.2052 -0.4142
 3717WAT     H111362   3.899   0.054   3.030 -0.1843  0.5324  0.6352
 3717WAT     H211363   3.750   0.052   3.003 -0.3138 -0.6781  1.3517
 3718WAT      O11364   4.009   0.196   3.045 -0.2118  0.0001 -0.4720
 3718WAT     H111365   4.099   0.175   3.022 -0.0545 -0.4670  0.5382
 3718WAT     H211366   4.016   0.257   3.119 -0.7213 -0.6499  0.1288
 3719WAT      O11367   3.959   3.562   3.644  0.7343 -0.2731  0.4709
 3719WAT     H111368   3.902   3.532   3.715  1.0202 -1.0544  0.3745
 3719WAT     H211369   3.937   3.506   3.570  0.0339  0.9004 -0.2512
 3720WAT      O11370   1.182   4.728   2.911  0.7893  0.3935  0.4332
 3720WAT     H111371   1.159   4.641   2.942  1.6323 -0.3245 -0.8808
 3720WAT     H211372   1.266   4.747   2.952  1.2392  0.0196 -0.2929
 3721WAT      O11373   0.252   2.861   2.292  0.4155  0.4458 -0.7064
 3721WAT     H111374   0.299   2.842   2.374 -2.7199 -0.6341  1.0100
 3721WAT     H211375   0.250   2.777   2.246 -0.2193  0.3679 -0.5396
 3722WAT      O11376   4.389   4.833   3.446  0.9538  0.5347 -0.4926
 3722WAT     H111377   4.405   4.902   3.380 -0.4078  1.4071  0.0348
 3722WAT     H211378   4.360   4.881   3.523  2.5328 -0.4839  0.7764
 3723WAT      O11379   0.507   0.360   5.283  0.4776 -0.1621  0.6036
 3723WAT     H111380   0.556   0.386   5.206 -1.1967 -0.8823 -0.7597
 3723WAT     H211381   0.424   0.326   5.249 -2.0050  3.0148  2.7940
 3724WAT      O11382   1.637   4.374   3.109  0.5485 -0.0271  0.0525
 3724WAT     H111383   1.676   4.286   3.109 -2.8364 -1.6631  0.2651
 3724WAT     H211384   1.637   4.400   3.201  0.9328 -0.0945  0.0727
 3725WAT      O11385   1.637   4.924   2.628  0.0654  0.1989 -0.1451
 3725WAT     H111386   1.625   4.985   2.556 -0.4538  1.0898  0.6665
 3725WAT     H211387   1.729   4.934   2.653 -0.6278  2.7583  1.7557
 3726WAT      O11388   3.107   0.947   0.716 -0.0132  0.1434 -0.1874
 3726WAT     H111389   3.085   1.039   0.704 -1.4067  0.0682  1.4128
 3726WAT     H211390   3.034   0.911   0.766  1.3686 -1.4113  0.8158
 3727WAT      O11391   1.427   0.528   3.031  0.4849  0.3341 -0.9831
 3727WAT     H111392   1.368   0.513   3.105 -0.5333  2.0559 -1.3988
 3727WAT     H211393   1.511   0.492   3.060 -0.3296 -0.6360  0.2897
 3728WAT      O11394   1.323   3.606   0.568 -0.1217 -0.6506 -0.4221
 3728WAT     H111395   1.319   3.537   0.502 -0.3646  0.7812 -1.9828
 3728WAT     H211396   1.231   3.624   0.589 -0.0340 -1.8229  1.1715
 3729WAT      O11397   0.046   4.889   2.688 -0.4210  0.0260 -0.2197
 3729WAT     H111398   0.002   4.813   2.725 -0.5724  0.8234  1.3466
 3729WAT     H211399   0.085   4.858   2.606 -3.8696 -0.7204 -1.7190
 3730WAT      O11400   2.464   2.657   1.740 -0.1636 -0.0814  0.4160
 3730WAT     H111401   2.438   2.749   1.747  0.0611  0.1002 -0.7842
 3730WAT     H211402   2.381   2.609   1.733 -0.2700  0.1987 -0.4403
 3731WAT      O11403   0.218   3.867   1.134 -0.3481  0.2003 -0.1840
 3731WAT     H111404   0.153   3.812   1.177  0.1319  0.0744  0.4013
 3731WAT     H211405   0.219   3.947   1.186 -0.8100  0.6365 -0.8390
 3732WAT      O11406   0.437   3.065   1.515 -0.4187  0.1856  0.1525
 3732WAT     H111407   0.354   3.019   1.515 -0.6173  0.5387  0.5728
 3732WAT     H211408   0.413   3.158   1.520  0.0200  0.2390  2.0056
 3733WAT      O11409   3.712   0.614   1.931  0.1221 -0.0020 -0.8095
 3733WAT     H111410   3.777   0.560   1.975 -0.9744 -1.7609 -1.2379
 3733WAT     H211411   3.754   0.644   1.851  0.2432 -1.6374 -1.3935
 3734WAT      O11412   3.348   0.211   2.786 -0.1332 -0.3228  0.0561
 3734WAT     H111413   3.286   0.283   2.773 -2.7866 -2.5424 -0.5333
 3734WAT     H211414   3.384   0.195   2.698  0.0094 -0.1076  0.0740
 3735WAT      O11415   0.296   4.739   4.377  0.5137  0.2171  0.2083
 3735WAT     H111416   0.369   4.709   4.431 -0.4730  0.1138  1.5176
 3735WAT     H211417   0.297   4.679   4.301  1.3069 -0.2721  0.5907
 3736WAT      O11418   2.059   1.160   4.490  0.1140  0.2820 -0.2494
 3736WAT     H111419   2.006   1.221   4.541  0.4658  0.2823  0.1249
 3736WAT     H211420   2.118   1.216   4.439  0.5517  0.2527  0.2216
 3737WAT      O11421   2.333   1.856   3.894 -0.1263  0.0866 -0.6211
 3737WAT     H111422   2.315   1.818   3.980  0.3389  2.9611  0.8601
 3737WAT     H211423   2.288   1.798   3.833 -1.2673 -1.5460  1.6195
 3738WAT      O11424   0.254   5.051   4.024 -0.6284  0.0333  0.4023
 3738WAT     H111425   0.207   5.088   4.099  0.6140  0.3023  1.0624
 3738WAT     H211426   0.265   5.125   3.964  1.8331  0.8170  1.7121
 3739WAT      O11427   4.408   3.327   2.878 -0.7511 -0.4669 -0.0282
 3739WAT     H111428   4.404   3.372   2.794 -3.9127 -0.2355  0.1358
 3739WAT     H211429   4.425   3.397   2.941 -0.0932 -0.3875 -0.2821
 3740WAT      O11430   0.730   5.123   3.263 -0.3298 -0.2283  0.3882
 3740WAT     H111431   0.782   5.058   3.216 -0.6274 -0.3136  0.1707
 3740WAT     H211432   0.771   5.207   3.242 -0.0049 -0.3346  0.5899
 3741WAT      O11433   4.324   4.163   3.399  0.1942  0.4500 -0.0706
 3741WAT     H111434   4.295   4.225   3.466 -0.8125  1.4840 -1.3942
 3741WAT     H211435   4.397   4.208   3.356 -0.1308  0.4601 -0.6217
 3742WAT      O11436   3.458   3.455   1.170  0.1271 -0.1718 -0.0855
 3742WAT     H111437   3.503   3.525   1.123  0.3611 -0.4285 -0.2468
 3742WAT     H211438   3.366   3.466   1.146  0.0514  0.5719  0.5281
 3743WAT      O11439   3.728   0.346   3.218  0.2484  0.1044 -0.0494
 3743WAT     H111440   3.673   0.289   3.272  0.1653  0.1364 -0.1012
 3743WAT     H211441   3.810   0.353   3.267  0.2250  0.0153  0.0027
 3744WAT      O11442   3.714   2.826   3.627  0.2281  0.4951  0.3405
 3744WAT     H111443   3.741   2.883   3.699 -0.6879  0.6568  0.5700
 3744WAT     H211444   3.642   2.774   3.663  0.4451 -0.1656 -0.1488
 3745WAT      O11445   3.253   5.004   1.540 -0.1845  0.0158  0.4950
 3745WAT     H111446   3.310   4.986   1.615 -0.3506  2.6125  1.3222
 3745WAT     H211447   3.306   5.057   1.481 -1.1413  0.9642  0.4509
 3746WAT      O11448   2.909   1.477   2.508  0.2263  0.0478  0.8653
 3746WAT     H111449   2.938   1.393   2.473 -0.5804 -0.2787  0.9610
 3746WAT     H211450   2.960   1.542   2.459 -0.3003 -0.4355 -0.3526
 3747WAT      O11451   2.008   1.835   0.269 -0.0665  0.6355 -0.7576
 3747WAT     H111452   2.098   1.863   0.258  0.6452 -0.7435  1.0181
 3747WAT     H211453   1.979   1.876   0.350  0.0382 -1.2764  0.3243
 3748WAT      O11454   0.192   0.638   4.130 -0.2167 -0.2269 -0.2938
 3748WAT     H111455   0.197   0.721   4.081 -0.0692 -0.1162 -0.0953
 3748WAT     H211456   0.100   0.631   4.155 -0.3193 -0.3481 -0.6952
 3749WAT      O11457   2.657   3.066   1.033 -1.1510  0.0564 -0.3362
 3749WAT     H111458   2.748   3.045   1.012  0.1365  2.7013  1.9403
 3749WAT     H211459   2.629   3.124   0.962 -1.2205 -1.0016 -1.2006
 3750WAT      O11460   4.023   4.439   4.577 -0.5315 -0.2869  0.5251
 3750WAT     H111461   3.979   4.445   4.492 -0.5144 -1.1810  0.4428
 3750WAT     H211462   4.116   4.432   4.554 -0.5310 -0.5728  0.6214
 3751WAT      O11463   2.848   2.369   1.214 -0.1351 -1.0054 -0.5302
 3751WAT     H111464   2.941   2.346   1.211  0.2106  0.3205 -0.4938
 3751WAT     H211465   2.819   2.340   1.301 -0.0857 -2.5402 -0.9885
 3752WAT      O11466   1.120   0.189   3.307  0.0336  0.0320 -1.0011
 3752WAT     H111467   1.085   0.165   3.221  0.2366 -0.9368 -0.8285
 3752WAT     H211468   1.055   0.249   3.344 -0.0165  0.5148 -1.8497
 3753WAT      O11469   0.492   1.932   3.186  0.2465  0.5996 -0.0233
 3753WAT     H111470   0.443   1.957   3.107  0.2516  0.2819 -0.1278
 3753WAT     H211471   0.535   1.850   3.162 -0.9957 -0.3165  0.8299
 3754WAT      O11472   0.793   2.030   0.455 -0.3260  0.4049 -0.5974
 3754WAT     H111473   0.856   2.057   0.389  1.0734  1.6371  1.1631
 3754WAT     H211474   0.778   2.108   0.509 -2.9209 -0.0070 -0.5586
 3755WAT      O11475   2.172   3.470   4.226  0.3172 -0.3813 -0.1014
 3755WAT     H111476   2.227   3.543   4.197  0.0548  0.5782  1.6577
 3755WAT     H211477   2.130   3.438   4.146  1.7455  0.2749 -1.1596
 3756WAT      O11478   1.696   3.708   0.402 -0.2764  0.1330 -0.8080
 3756WAT     H111479   1.658   3.736   0.485  1.3018 -1.8009  0.6467
 3756WAT     H211480   1.626   3.659   0.359 -0.6449 -0.1774  0.1125
 3757WAT      O11481   0.913   4.515   4.088 -0.0055  0.2274 -0.2568
 3757WAT     H111482   0.876   4.430   4.112  1.3731 -0.2781  0.2071
 3757WAT     H211483   0.951   4.548   4.169  0.8887  0.5255 -0.7859
 3758WAT      O11484   0.102   0.065   5.198  0.1747 -0.0708  0.9005
 3758WAT     H111485   0.179   0.112   5.167  0.2247 -0.4869  0.3769
 3758WAT     H211486   0.029   0.125   5.181  0.2534 -0.1220  0.3647
 3759WAT      O11487   0.262   2.817   0.645 -0.0483 -0.4343  0.0457
 3759WAT     H111488   0.213   2.873   0.704 -0.8689 -0.6206 -0.4514
 3759WAT     H211489   0.261   2.731   0.687  0.0824 -0.3815  0.1597
 3760WAT      O11490   0.565   4.623   0.472  0.1894  0.3064  0.4987
 3760WAT     H111491   0.551   4.642   0.379  1.4928 -0.9742  0.0230
 3760WAT     H211492   0.492   4.668   0.516 -0.5232  0.8292 -1.1345
 3761WAT      O11493   1.404   1.761   5.062  1.1937  0.2654  0.3703
 3761WAT     H111494   1.448   1.740   4.979  1.0930 -1.0680  0.6296
 3761WAT     H211495   1.470   1.806   5.114  1.7763 -0.3603  0.1812
 3762WAT      O11496   3.800   3.428   2.584 -0.3502  0.4417  0.0936
 3762WAT     H111497   3.705   3.428   2.573 -0.4967  0.6714  1.2087
 3762WAT     H211498   3.834   3.459   2.500 -1.1367 -1.6165 -1.0418
 3763WAT      O11499   3.622   4.513   4.989  0.1122  0.0424 -0.2786
 3763WAT     H111500   3.603   4.547   5.076 -1.0121 -0.2705 -0.3845
 3763WAT     H211501   3.692   4.449   5.003 -0.6720 -0.6731  0.5571
 3764WAT      O11502   3.118   1.213   4.094 -0.8060  0.8598 -0.4863
 3764WAT     H111503   3.101   1.281   4.159 -2.6631  0.1030 -0.1097
 3764WAT     H211504   3.167   1.258   4.025  2.3937  1.4157  1.8957
 3765WAT      O11505   1.337   1.516   0.775 -0.1696 -0.3052 -0.0301
 3765WAT     H111506   1.374   1.472   0.852 -0.3528 -0.7268 -0.1789
 3765WAT     H211507   1.412   1.531   0.717  0.0648  0.5291  0.4680
 3766WAT      O11508   4.340   1.951   3.523  0.3773  0.6809 -0.2352
 3766WAT     H111509   4.429   1.934   3.493 -0.1358 -1.1958 -0.7876
 3766WAT     H211510   4.293   1.869   3.509 -1.2649  1.3980  0.7380
 3767WAT      O11511   1.989   4.286   3.363  0.0134 -0.1850 -0.0843
 3767WAT     H111512   1.963   4.262   3.274 -0.9527  0.3302  0.0510
 3767WAT     H211513   1.993   4.382   3.362  2.0097 -0.2160 -0.1140
 3768WAT      O11514   4.186   4.304   0.042  0.4257  0.2076  0.5212
 3768WAT     H111515   4.238   4.224   0.048  0.7722  0.4032  0.1096
 3768WAT     H211516   4.097   4.275   0.063  0.6966 -0.1154  1.2769
 3769WAT      O11517   1.711   4.441   4.120 -0.1105 -0.4829 -0.5091
 3769WAT     H111518   1.728   4.495   4.043 -0.4983  0.0243 -0.2443
 3769WAT     H211519   1.683   4.356   4.085 -0.9533 -0.0388 -0.9204
 3770WAT      O11520   2.998   2.170   2.251 -0.1885  0.6933  0.3051
 3770WAT     H111521   3.033   2.112   2.183  0.0582  1.5371 -0.3108
 3770WAT     H211522   2.958   2.111   2.315  0.0847 -0.1515 -0.2848
 3771WAT      O11523   3.364   0.094   3.028  0.3184 -0.5939  0.0288
 3771WAT     H111524   3.300   0.118   3.095  0.2545  0.2659 -0.3207
 3771WAT     H211525   3.329   0.131   2.947  0.3203 -1.7537 -0.5210
 3772WAT      O11526   2.391   0.395   0.925  0.3988 -0.1028  0.1826
 3772WAT     H111527   2.345   0.479   0.919 -0.4536 -0.6568 -1.5752
 3772WAT     H211528   2.468   0.405   0.871  1.0268 -0.0317  1.0664
 3773WAT      O11529   3.944   3.841   3.587  0.2770 -0.0935  0.2004
 3773WAT     H111530   3.923   3.752   3.617 -1.4013 -0.0945 -0.8165
 3773WAT     H211531   3.914   3.842   3.496  1.0178  1.2867 -0.0514
 3774WAT      O11532   3.849   2.073   0.188 -0.5399  0.2134 -0.0002
 3774WAT     H111533   3.823   1.981   0.180 -0.7849  0.3601 -1.1246
 3774WAT     H211534   3.827   2.111   0.103  0.4000  1.0989  0.1291
 3775WAT      O11535   3.227   1.396   1.988 -0.3058 -0.4440 -0.1046
 3775WAT     H111536   3.289   1.447   1.936  0.4391 -0.0290  1.1418
 3775WAT     H211537   3.172   1.352   1.923 -0.1628  0.9421 -1.2326
 3776WAT      O11538   1.044   1.752   3.047  0.5264  0.0646  0.0469
 3776WAT     H111539   1.065   1.684   2.983  0.2438  0.0018  0.0182
 3776WAT     H211540   1.126   1.767   3.094  0.1738 -1.5217  1.2160
 3777WAT      O11541   1.401   2.303   5.211  0.1439  0.1518  0.2099
 3777WAT     H111542   1.432   2.384   5.172  0.7073 -0.1246  0.0774
 3777WAT     H211543   1.315   2.325   5.246  0.8845  1.2125  1.4714
 3778WAT      O11544   0.527   0.521   2.016  0.2564  0.1079  0.4564
 3778WAT     H111545   0.439   0.494   2.041  0.0299 -0.4816 -0.8988
 3778WAT     H211546   0.571   0.539   2.100 -0.3572 -2.0426  1.3176
 3779WAT      O11547   2.886   0.833   3.718  0.0734 -0.4248 -0.4975
 3779WAT     H111548   2.908   0.859   3.628  0.2415  0.9227 -0.0974
 3779WAT     H211549   2.796   0.801   3.713  0.0003 -0.1321 -1.1091
 3780WAT      O11550   4.315   0.660   4.010 -0.1028 -0.1527 -0.3407
 3780WAT     H111551   4.388   0.619   3.964  1.0758  0.5148  0.8911
 3780WAT     H211552   4.323   0.753   3.989 -0.7330 -0.0904 -0.3417
 3781WAT      O11553   3.351   3.258   0.003  0.3361 -0.7672 -0.0959
 3781WAT     H111554   3.282   3.323  -0.008  0.8140 -0.4253 -1.3160
 3781WAT     H211555   3.413   3.299   0.063 -0.3094 -0.9018  0.6677
 3782WAT      O11556   1.779   2.270   4.682 -0.1214 -0.2061  0.9334
 3782WAT     H111557   1.721   2.205   4.642  0.8233 -1.3832  1.4179
 3782WAT     H211558   1.836   2.298   4.610 -2.5906  2.6364 -0.1443
 3783WAT      O11559   3.428   4.980   2.585  0.7515 -0.1091  0.3024
 3783WAT     H111560   3.332   4.982   2.594  0.5152  0.5645 -1.7946
 3783WAT     H211561   3.457   4.919   2.653 -1.2503 -1.1063  0.3335
 3784WAT      O11562   3.197   4.974   3.987  0.8266  0.2744 -0.4853
 3784WAT     H111563   3.162   4.982   3.899 -2.3346  0.5913  0.6566
 3784WAT     H211564   3.251   5.052   4.000 -0.5637  1.4207 -1.3788
 3785WAT      O11565   0.894   0.424   1.021 -0.2511 -0.0580  0.5448
 3785WAT     H111566   0.905   0.480   0.944  2.2205 -1.1370  0.0094
 3785WAT     H211567   0.866   0.340   0.986 -0.0222 -0.2929  0.9225
 3786WAT      O11568   4.189   1.006   2.980 -0.0705  0.4545  0.1250
 3786WAT     H111569   4.143   0.938   2.931 -1.3770  1.0630  0.4688
 3786WAT     H211570   4.277   1.006   2.943  0.1795 -1.8500  0.5424
 3787WAT      O11571   1.314   1.039   2.592 -0.0343 -0.3093 -0.0785
 3787WAT     H111572   1.224   1.061   2.570 -0.7736 -0.9848  2.0081
 3787WAT     H211573   1.306   0.974   2.663  2.0829 -0.7047 -0.1375
 3788WAT      O11574   2.596   2.634   0.995  0.0758 -0.4214  0.0049
 3788WAT     H111575   2.588   2.570   1.066 -1.0760  1.4193  1.6393
 3788WAT     H211576   2.507   2.650   0.967 -0.3881  3.8973  3.0107
 3789WAT      O11577   0.786   3.776   0.662  0.5999 -0.0358  0.2010
 3789WAT     H111578   0.757   3.701   0.714  0.0695  0.7884  1.1170
 3789WAT     H211579   0.778   3.851   0.721  0.4867  0.8468 -0.9008
 3790WAT      O11580   0.703   2.761   0.423 -0.1591 -0.3146 -0.1263
 3790WAT     H111581   0.772   2.723   0.478 -0.3052 -1.1001 -0.4717
 3790WAT     H211582   0.635   2.787   0.485 -0.5489 -1.6585  0.0624
 3791WAT      O11583   1.882   2.583   3.302  0.7311  0.1813 -0.1772
 3791WAT     H111584   1.907   2.651   3.240  1.9595  0.0561  0.1510
 3791WAT     H211585   1.880   2.503   3.250 -0.9479  0.4803 -0.6132
 3792WAT      O11586   3.843   4.807   2.290  0.6357  0.0734 -0.5132
 3792WAT     H111587   3.786   4.810   2.367  0.4106  0.7009 -0.7032
 3792WAT     H211588   3.908   4.739   2.311  1.1043  0.8438  0.5884
 3793WAT      O11589   3.777   0.675   4.541 -0.1068 -0.5104 -0.4665
 3793WAT     H111590   3.768   0.594   4.591  0.8096 -0.8808 -0.8954
 3793WAT     H211591   3.711   0.733   4.580 -0.7228 -1.4190 -0.1013
 3794WAT      O11592   2.322   5.018   0.147 -0.2844 -0.2555 -0.2892
 3794WAT     H111593   2.294   4.927   0.144 -0.2324 -0.3235  0.9186
 3794WAT     H211594   2.371   5.026   0.229  0.1311  0.7430 -0.6086
 3795WAT      O11595   4.382   2.043   0.263  0.7350 -0.3766 -0.0565
 3795WAT     H111596   4.352   2.032   0.173 -0.9864 -0.6722  0.5201
 3795WAT     H211597   4.477   2.027   0.259  0.4490 -1.9982 -1.5469
 3796WAT      O11598   1.994   1.814   3.154 -0.1990 -0.7905  0.1097
 3796WAT     H111599   2.008   1.897   3.200  0.8831 -1.4003  0.9420
 3796WAT     H211600   2.080   1.772   3.154 -0.4835 -1.4197 -1.2935
 3797WAT      O11601   2.067   3.156   0.722 -0.0822 -0.2133 -0.1717
 3797WAT     H111602   2.056   3.233   0.778 -2.4246 -0.9284  0.4517
 3797WAT     H211603   1.985   3.108   0.730  0.7825 -2.0851 -1.6398
 3798WAT      O11604   1.784   1.043   4.594 -0.3594 -0.2968  0.5976
 3798WAT     H111605   1.794   1.010   4.683 -0.3535  1.0162  1.1007
 3798WAT     H211606   1.873   1.056   4.563 -0.3730  0.0106  0.6900
 3799WAT      O11607   1.234   4.322   2.598 -0.0226 -0.6299  0.6909
 3799WAT     H111608   1.170   4.265   2.555 -0.1310  0.5190 -0.7522
 3799WAT     H211609   1.285   4.359   2.527  1.7617 -0.8984  1.7736
 3800WAT      O11610   0.311   2.514   4.779 -0.1357 -0.2040  0.2199
 3800WAT     H111611   0.319   2.485   4.870 -1.4473 -1.6911 -0.1035
 3800WAT     H211612   0.351   2.444   4.727  2.7554  1.6604 -0.3326
 3801WAT      O11613   3.331   3.512   3.717  0.1588 -0.2066  0.1001
 3801WAT     H111614   3.236   3.516   3.710 -0.0894 -0.4388  2.4152
 3801WAT     H211615   3.358   3.452   3.648 -1.3213  0.1520 -0.8257
 3802WAT      O11616   3.932   5.058   0.305 -0.7833 -0.3309 -0.8169
 3802WAT     H111617   3.964   5.018   0.386 -2.1362 -1.2838 -0.7149
 3802WAT     H211618   3.841   5.080   0.324 -0.5313  1.3779 -1.4078
 3803WAT      O11619   3.393   4.776   1.903 -0.2606  0.1965  0.0661
 3803WAT     H111620   3.365   4.710   1.966 -0.2459  1.0046  0.9339
 3803WAT     H211621   3.350   4.751   1.821 -1.2709 -0.1682  0.6968
 3804WAT      O11622   0.852   0.733   3.957  0.3731  0.5224 -0.0674
 3804WAT     H111623   0.789   0.670   3.991  0.0348  0.5514 -0.6311
 3804WAT     H211624   0.801   0.811   3.939  0.8154  1.0197  0.7635
 3805WAT      O11625   3.895   0.745   2.302 -1.0365  0.4513 -0.3533
 3805WAT     H111626   3.984   0.720   2.278 -0.1852  1.9061  1.0315
 3805WAT     H211627   3.874   0.692   2.379 -1.0796  0.6211 -0.2463
 3806WAT      O11628   3.140   4.974   3.703 -0.1855  0.3423  0.1156
 3806WAT     H111629   3.144   5.063   3.668  0.4058 -0.3473 -1.7296
 3806WAT     H211630   3.088   4.925   3.639  0.7550 -0.9541  0.2924
 3807WAT      O11631   4.185   3.816   5.100 -0.3168 -0.2076  0.1403
 3807WAT     H111632   4.137   3.899   5.105  1.7456  1.1077 -0.7188
 3807WAT     H211633   4.197   3.800   5.006  0.7751 -0.5587  0.3209
 3808WAT      O11634   2.930   4.171   5.128  0.1127 -0.2541  0.2124
 3808WAT     H111635   2.999   4.229   5.161  0.1553 -0.5832  0.7196
 3808WAT     H211636   2.961   4.144   5.042  0.4106 -0.0525  0.2539
 3809WAT      O11637   1.350   1.087   1.190  0.1713 -0.3579 -0.4498
 3809WAT     H111638   1.292   1.118   1.260  0.2452 -1.1016 -0.0416
 3809WAT     H211639   1.434   1.073   1.233  0.4918  0.1461 -0.9110
 3810WAT      O11640   0.358   4.047   0.107  0.2299  0.7893  0.1546
 3810WAT     H111641   0.447   4.078   0.122  0.8426 -0.4724 -0.6614
 3810WAT     H211642   0.344   4.058   0.013 -0.1571  0.2087  0.1389
 3811WAT      O11643   3.917   2.141   3.143 -0.0058 -0.0372 -0.3001
 3811WAT     H111644   3.831   2.165   3.107 -0.0387 -0.4591 -0.5110
 3811WAT     H211645   3.928   2.049   3.118  0.0101 -0.3138  0.7046
 3812WAT      O11646   1.045   0.792   0.683 -0.2984  0.0728 -0.4382
 3812WAT     H111647   1.111   0.745   0.631  0.0171  0.1410 -0.1095
 3812WAT     H211648   1.041   0.879   0.644 -0.8207 -0.1966 -0.9949
 3813WAT      O11649   1.298   2.453   2.307  0.2741  0.3369  0.4609
 3813WAT     H111650   1.333   2.369   2.275 -0.3067 -0.3224  1.5055
 3813WAT     H211651   1.296   2.508   2.229 -0.2120 -0.9167 -0.4557
 3814WAT      O11652   3.230   4.719   1.685  0.1423 -0.2133  0.5622
 3814WAT     H111653   3.143   4.700   1.721  0.0854 -1.3588 -0.1235
 3814WAT     H211654   3.212   4.766   1.603  0.2473  1.4649  1.4571
 3815WAT      O11655   3.275   2.486   2.834  0.4424 -0.1322 -0.3075
 3815WAT     H111656   3.220   2.481   2.755 -1.9585  2.1549  1.0432
 3815WAT     H211657   3.326   2.567   2.823  1.2366 -0.6063 -0.1679
 3816WAT      O11658   0.313   0.791   1.350  0.4388 -0.0796 -0.0811
 3816WAT     H111659   0.254   0.735   1.300  0.5283 -0.2255 -0.0241
 3816WAT     H211660   0.263   0.871   1.366 -0.7576 -1.2224  2.3416
 3817WAT      O11661   3.700   5.134   4.584 -0.5117  0.7796  0.1434
 3817WAT     H111662   3.755   5.085   4.645 -0.8039 -1.3173 -1.1771
 3817WAT     H211663   3.624   5.160   4.636  0.8020  2.0643  1.5035
 3818WAT      O11664   1.255   0.230   1.675 -0.3694  0.1059 -0.4677
 3818WAT     H111665   1.216   0.273   1.600 -0.3038  1.1512  0.0758
 3818WAT     H211666   1.237   0.137   1.662  1.2030  0.0319 -2.6905
 3819WAT      O11667   3.956   3.901   4.709 -0.3001 -0.5179  0.1698
 3819WAT     H111668   4.052   3.904   4.711 -0.2662 -0.1477  3.6927
 3819WAT     H211669   3.929   3.922   4.798 -3.6694 -1.5931 -0.4413
 3820WAT      O11670   2.474   1.574   0.565  0.3383  0.5464  0.3072
 3820WAT     H111671   2.516   1.548   0.647 -1.9273  0.7819  1.6193
 3820WAT     H211672   2.458   1.492   0.519  0.1125  0.2621  0.8877
 3821WAT      O11673   2.330   3.318   2.159  0.5479  0.3298  0.4798
 3821WAT     H111674   2.300   3.385   2.220 -2.7409  0.2942 -0.9210
 3821WAT     H211675   2.318   3.236   2.206  1.4398  0.4712  0.9940
 3822WAT      O11676   0.398   2.280   3.583  0.4185 -0.9749 -0.0155
 3822WAT     H111677   0.395   2.225   3.505  0.3686 -0.2410 -0.5404
 3822WAT     H211678   0.472   2.247   3.633 -0.5422 -2.5295  0.4401
 3823WAT      O11679   3.172   1.544   2.224  0.3142  0.1479 -0.2540
 3823WAT     H111680   3.230   1.595   2.167 -0.9618 -0.6644 -2.3945
 3823WAT     H211681   3.180   1.455   2.192  0.5959 -0.6313  1.8092
 3824WAT      O11682   4.074   4.451   0.319 -0.5087 -0.3784  0.7982
 3824WAT     H111683   4.166   4.475   0.302 -0.8255  0.2041 -0.2289
 3824WAT     H211684   4.076   4.356   0.332  0.1626 -0.4832  0.0542
 3825WAT      O11685   0.356   4.102   1.209 -0.2348  0.0533 -0.1858
 3825WAT     H111686   0.274   4.136   1.173  0.4907  1.0746 -0.9144
 3825WAT     H211687   0.424   4.156   1.169  0.9049 -1.6236 -0.6075
 3826WAT      O11688   0.352   1.047   2.312 -0.0103 -0.0754  0.3807
 3826WAT     H111689   0.262   1.077   2.317 -0.3489 -1.1141  0.8291
 3826WAT     H211690   0.358   1.001   2.229  0.4590  1.0498 -0.2250
 3827WAT      O11691   0.429   1.817   0.714  0.4844  0.6036 -0.3701
 3827WAT     H111692   0.426   1.909   0.689 -2.3361 -0.2073 -3.8153
 3827WAT     H211693   0.483   1.776   0.647 -1.1492 -0.6560 -0.9917
 3828WAT      O11694   0.375   3.069   4.954  0.3742  0.1537 -0.3045
 3828WAT     H111695   0.292   3.110   4.981 -0.7304 -1.4353 -1.1182
 3828WAT     H211696   0.357   2.975   4.958  1.7172 -0.1987 -1.7968
 3829WAT      O11697   3.846   4.417   4.345 -0.4014 -0.3026 -0.0449
 3829WAT     H111698   3.794   4.413   4.426 -0.3459  1.1971  0.0833
 3829WAT     H211699   3.795   4.473   4.287 -0.3692 -1.2648 -1.0305
 3830WAT      O11700   2.821   3.121   3.666 -0.2432 -0.0665  0.0954
 3830WAT     H111701   2.881   3.194   3.650 -0.3157  0.1033  0.6023
 3830WAT     H211702   2.734   3.159   3.655 -0.2657 -0.2573 -0.4017
 3831WAT      O11703   1.183   3.401   4.052 -0.2564 -0.0356  0.6870
 3831WAT     H111704   1.174   3.497   4.049  0.1718 -0.0252 -2.0562
 3831WAT     H211705   1.107   3.372   4.103 -1.9714  1.6343 -0.7601
 3832WAT      O11706   3.040   1.853   1.559  0.0802 -0.4344  0.4884
 3832WAT     H111707   2.952   1.820   1.577 -1.0395  2.3847  0.7350
 3832WAT     H211708   3.027   1.916   1.488  1.7926  0.5492  1.0032
 3833WAT      O11709   0.203   3.231   1.492  0.0354  0.0160  0.5082
 3833WAT     H111710   0.250   3.283   1.557  1.4050 -1.3922  0.6928
 3833WAT     H211711   0.253   3.240   1.411 -0.3730 -0.0945  0.2353
 3834WAT      O11712   1.029   3.574   0.191  0.0323 -0.2982  0.1509
 3834WAT     H111713   0.952   3.535   0.232  0.9864 -0.5336  1.7840
 3834WAT     H211714   1.032   3.663   0.226  0.1447 -0.0715 -0.4254
 3835WAT      O11715   4.135   2.053   1.860  0.0854 -0.3451 -0.1599
 3835WAT     H111716   4.217   2.038   1.907  0.1804 -1.9404 -0.7579
 3835WAT     H211717   4.161   2.102   1.782  0.4656 -0.7453 -0.2891
 3836WAT      O11718   1.240   0.582   1.798 -0.0520  0.1702 -0.1314
 3836WAT     H111719   1.264   0.665   1.840  0.0852  0.5086 -0.8668
 3836WAT     H211720   1.294   0.578   1.720 -1.9039  0.6520 -1.5195
 3837WAT      O11721   2.710   5.055   1.498  0.5001  0.3058 -0.3057
 3837WAT     H111722   2.676   5.135   1.537  1.1095  1.6157 -2.3503
 3837WAT     H211723   2.797   5.045   1.537 -0.0353 -0.0777  0.8571
 3838WAT      O11724   4.096   4.577   0.793  0.2544 -0.2637 -0.7161
 3838WAT     H111725   4.094   4.500   0.849 -0.5435  0.3742  0.1654
 3838WAT     H211726   4.110   4.650   0.853  3.1121  0.1384 -1.7295
 3839WAT      O11727   0.373   3.300   1.289  0.8715 -0.0910 -0.4186
 3839WAT     H111728   0.454   3.341   1.320  0.3065  1.1847 -0.5424
 3839WAT     H211729   0.307   3.369   1.297 -0.3718 -1.3053  0.3495
 3840WAT      O11730   0.468   2.603   0.329  0.5856 -0.2312 -0.0956
 3840WAT     H111731   0.419   2.676   0.292 -0.2855 -0.2929  0.8819
 3840WAT     H211732   0.551   2.641   0.356 -0.1599  0.5929  1.1153
 3841WAT      O11733   3.942   4.530   5.057 -0.5791 -0.0704 -0.3803
 3841WAT     H111734   4.033   4.507   5.038 -0.6365 -0.5939 -0.0461
 3841WAT     H211735   3.932   4.619   5.025 -0.1967 -0.3243 -1.2315
 3842WAT      O11736   0.778   3.190   2.609  0.2928 -0.0205  0.0631
 3842WAT     H111737   0.746   3.169   2.522  1.2764 -2.3503  0.1844
 3842WAT     H211738   0.707   3.165   2.668  1.0822 -2.3597  0.1316
 3843WAT      O11739   4.314   1.394   4.632  0.1895  0.2568 -0.1786
 3843WAT     H111740   4.310   1.324   4.568 -2.4112 -0.3554  0.5404
 3843WAT     H211741   4.319   1.350   4.716 -1.4228  0.8813  0.2792
 3844WAT      O11742   0.250   1.510   2.337  0.0255 -0.3997 -0.4915
 3844WAT     H111743   0.341   1.486   2.355  0.5086  1.3424 -0.4494
 3844WAT     H211744   0.236   1.590   2.388 -1.6471 -0.8165 -0.2387
 3845WAT      O11745   3.262   4.091   2.031 -0.2256  0.0424  0.5135
 3845WAT     H111746   3.354   4.079   2.007 -0.0637  0.8260  0.7191
 3845WAT     H211747   3.220   4.123   1.951 -0.7741 -2.2521 -0.2022
 3846WAT      O11748   2.963   2.556   0.081  0.0673  0.2964 -0.5434
 3846WAT     H111749   3.020   2.551   0.004  0.9779 -3.1221  0.1711
 3846WAT     H211750   2.879   2.520   0.051 -0.1715  0.6989 -0.3715
 3847WAT      O11751   0.381   3.667   4.075  0.2574 -0.3062  0.0511
 3847WAT     H111752   0.385   3.670   4.171 -0.5671  0.2793  0.0745
 3847WAT     H211753   0.304   3.613   4.056  0.6414 -0.7423 -0.2945
 3848WAT      O11754   1.858   3.224   0.208 -0.3700 -0.7974  0.0732
 3848WAT     H111755   1.895   3.197   0.293  0.4512  1.5515  0.5494
 3848WAT     H211756   1.932   3.259   0.160 -1.3266  0.5429 -0.4760
 3849WAT      O11757   3.773   1.573   4.558  0.4764 -0.0005  0.2135
 3849WAT     H111758   3.765   1.549   4.651 -1.3562  1.4672  0.4892
 3849WAT     H211759   3.744   1.496   4.511 -1.5413  0.2418  0.9706
 3850WAT      O11760   3.142   4.414   1.489 -0.1799  0.8762 -0.2956
 3850WAT     H111761   3.188   4.337   1.457 -0.8473  1.5079 -2.9884
 3850WAT     H211762   3.111   4.388   1.576 -1.1574 -2.2514 -1.4225
 3851WAT      O11763   2.927   0.324   1.421  0.0860 -0.0062  0.6513
 3851WAT     H111764   2.877   0.344   1.342  0.5663 -1.3350 -0.0203
 3851WAT     H211765   3.001   0.386   1.418  1.2675 -1.3929 -1.1158
 3852WAT      O11766   3.248   2.859   0.027 -0.1635 -0.4764 -0.8539
 3852WAT     H111767   3.197   2.937   0.005  0.4022  0.4155  0.8130
 3852WAT     H211768   3.188   2.786   0.013 -1.6875  0.4789  0.3398
 3853WAT      O11769   1.721   1.583   4.819 -0.0462 -0.3856 -0.0321
 3853WAT     H111770   1.801   1.634   4.834  0.6943 -1.3222 -0.6478
 3853WAT     H211771   1.707   1.535   4.901  1.0707 -1.5808 -0.4940
 3854WAT      O11772   2.998   3.724   2.546  0.0760 -0.3299 -0.6494
 3854WAT     H111773   3.068   3.743   2.608  0.0851  1.2262 -1.0880
 3854WAT     H211774   2.996   3.800   2.488 -1.0685 -0.9703 -1.4967
 3855WAT      O11775   1.688   0.376   3.585  0.3792 -0.1165 -0.5974
 3855WAT     H111776   1.641   0.407   3.662 -0.3691 -0.4579 -0.9109
 3855WAT     H211777   1.777   0.410   3.596 -0.2374  1.6222 -0.6290
 3856WAT      O11778   1.401   0.996   2.309  0.0311 -0.4335  0.5388
 3856WAT     H111779   1.429   1.070   2.363  2.0726 -0.7937  0.0380
 3856WAT     H211780   1.307   0.988   2.327  0.2323  0.7641  2.4208
 3857WAT      O11781   4.362   2.801   2.425  0.1279  0.1263  0.5808
 3857WAT     H111782   4.344   2.893   2.409  0.3464  0.0176 -0.3537
 3857WAT     H211783   4.324   2.783   2.511 -0.8434  0.8287  0.3103
 3858WAT      O11784   3.542   1.754   0.367 -0.5897 -0.3821  0.5185
 3858WAT     H111785   3.545   1.658   0.359  0.0388 -0.1994 -2.6595
 3858WAT     H211786   3.449   1.776   0.360 -0.5894 -0.6682 -0.4042
 3859WAT      O11787   2.556   0.104   0.978 -0.2816 -0.3469  0.2572
 3859WAT     H111788   2.504   0.179   1.006 -0.1892 -0.0940 -0.2522
 3859WAT     H211789   2.634   0.107   1.034  0.0650  0.3619 -0.2519
 3860WAT      O11790   2.499   3.201   4.582 -0.2876  0.7233 -0.6322
 3860WAT     H111791   2.482   3.287   4.546  0.0823  0.1295 -2.3154
 3860WAT     H211792   2.424   3.148   4.555  0.4683  0.0252 -1.4236
 3861WAT      O11793   4.138   0.863   0.783 -0.3868  0.2539 -0.7432
 3861WAT     H111794   4.138   0.944   0.733  0.0068  0.6918 -0.0592
 3861WAT     H211795   4.080   0.880   0.857  0.3691  0.2220 -0.1293
 3862WAT      O11796   1.287   4.984   2.164  0.2801 -0.0585  0.3101
 3862WAT     H111797   1.314   4.939   2.244  0.8030  1.5650  1.0967
 3862WAT     H211798   1.193   4.999   2.175  0.4044  0.4232  0.7841
 3863WAT      O11799   3.265   4.892   4.891  0.7328 -0.5637 -0.5966
 3863WAT     H111800   3.187   4.845   4.919  1.3392 -1.2551 -0.0082
 3863WAT     H211801   3.246   4.920   4.802 -0.5978  0.2186 -0.1041
 3864WAT      O11802   0.166   4.274   4.049 -0.0444 -0.0563  0.3860
 3864WAT     H111803   0.088   4.229   4.016  1.4864 -1.2149 -1.9164
 3864WAT     H211804   0.179   4.347   3.989  0.3638  0.4197  1.0461
 3865WAT      O11805   2.113   3.682   0.760  0.2063  0.0776 -0.2671
 3865WAT     H111806   2.175   3.641   0.700  0.2246  0.5230 -0.5648
 3865WAT     H211807   2.168   3.733   0.819  0.1793 -0.2555  0.0474
 3866WAT      O11808   1.562   3.670   4.332  0.7496 -0.0228  0.2474
 3866WAT     H111809   1.649   3.682   4.294  0.9047 -1.0216  0.2639
 3866WAT     H211810   1.531   3.588   4.295 -0.2231  0.3609  0.1888
 3867WAT      O11811   2.732   1.307   1.667 -0.5227  0.2761  0.6341
 3867WAT     H111812   2.695   1.239   1.609  1.3098 -0.3646  0.1363
 3867WAT     H211813   2.709   1.278   1.755 -2.2057  0.5476  0.3123
 3868WAT      O11814   3.037   2.512   1.557 -0.2172  0.4894  0.6721
 3868WAT     H111815   3.076   2.548   1.478  1.8541  1.4463  2.0349
 3868WAT     H211816   3.037   2.584   1.620 -2.6210  0.0011  1.3249
 3869WAT      O11817   4.045   2.270   0.252 -0.3197  0.0663 -0.0154
 3869WAT     H111818   3.984   2.205   0.218  0.3153 -0.6367  0.1845
 3869WAT     H211819   4.083   2.311   0.174 -0.8680  0.3489 -0.1398
 3870WAT      O11820   2.332   2.079   1.338 -0.1673  0.1742 -0.1689
 3870WAT     H111821   2.247   2.116   1.315  0.3779  3.1150  1.9478
 3870WAT     H211822   2.313   2.014   1.405 -0.8211  0.1460 -0.3837
 3871WAT      O11823   3.594   2.819   0.944  0.4272 -0.4320 -0.0662
 3871WAT     H111824   3.664   2.769   0.903  0.5970  0.5290 -1.0212
 3871WAT     H211825   3.613   2.815   1.037  0.7556 -1.6383 -0.1677
 3872WAT      O11826   3.856   4.548   0.032 -0.0417  0.2719  0.5908
 3872WAT     H111827   3.935   4.571   0.081 -0.3916  0.0444  1.2741
 3872WAT     H211828   3.886   4.536  -0.058  1.0295 -1.5686  1.1542
 3873WAT      O11829   4.240   3.886   4.685 -0.1212 -0.0269 -0.2151
 3873WAT     H111830   4.243   3.867   4.591 -2.7788  0.2862 -0.4307
 3873WAT     H211831   4.276   3.975   4.692 -2.3211  1.0306 -1.3617
 3874WAT      O11832   1.417   5.089   1.840 -0.3493 -0.8854  0.0049
 3874WAT     H111833   1.472   5.023   1.798 -0.3125  1.3390 -3.9803
 3874WAT     H211834   1.329   5.069   1.808 -0.6222 -0.1308  0.2799
 3875WAT      O11835   3.230   1.536   2.537  0.6524  0.1803 -0.1883
 3875WAT     H111836   3.319   1.503   2.543  0.4423 -0.6216 -1.2423
 3875WAT     H211837   3.209   1.534   2.443 -0.7304 -0.3495  0.1049
 3876WAT      O11838   1.420   4.522   1.339 -0.1751  0.0265 -0.0853
 3876WAT     H111839   1.384   4.433   1.346 -1.0942  0.2137 -1.8674
 3876WAT     H211840   1.510   4.508   1.309 -0.1185 -0.3305  0.2449
 3877WAT      O11841   3.403   1.013   3.942  0.4736  0.2451  0.1634
 3877WAT     H111842   3.424   0.955   3.869  0.7832  0.1832  0.3009
 3877WAT     H211843   3.342   1.077   3.905 -1.6803 -1.4756  0.5345
 3878WAT      O11844   2.616   3.907   4.192 -0.6221  0.1374  0.0984
 3878WAT     H111845   2.528   3.877   4.168 -0.0909 -2.4127  0.9265
 3878WAT     H211846   2.603   3.995   4.227 -2.7366  0.0894 -0.4297
 3879WAT      O11847   4.189   2.109   4.635  0.4354  0.2995 -0.2305
 3879WAT     H111848   4.171   2.129   4.543  0.8789  0.0761 -0.3686
 3879WAT     H211849   4.208   2.194   4.674 -1.1732  0.5934 -0.0069
 3880WAT      O11850   4.046   4.488   1.865 -0.2097 -0.2252  0.4654
 3880WAT     H111851   4.048   4.437   1.946  0.2269  0.3799  0.8457
 3880WAT     H211852   3.971   4.453   1.816 -0.4504 -0.6240  1.1090
 3881WAT      O11853   4.049   1.533   0.628  0.1144  0.2146 -0.0604
 3881WAT     H111854   4.002   1.458   0.666  1.2821  0.0678  1.1519
 3881WAT     H211855   3.983   1.602   0.623 -0.6959 -0.5415 -0.1462
 3882WAT      O11856   2.610   0.229   5.025 -0.6749  0.1622  0.3123
 3882WAT     H111857   2.617   0.192   5.113  3.1929 -1.8162 -0.5748
 3882WAT     H211858   2.629   0.322   5.036 -0.8665  0.0711  1.5957
 3883WAT      O11859   1.360   0.789   2.985  0.0294 -0.3630  0.3935
 3883WAT     H111860   1.382   0.696   2.983  2.6751  0.2120 -0.2949
 3883WAT     H211861   1.366   0.814   3.077  0.5371 -0.6141  0.4295
 3884WAT      O11862   0.807   3.342   3.139  0.2634  0.2765 -0.0688
 3884WAT     H111863   0.858   3.386   3.071  0.3049  2.2624  1.1835
 3884WAT     H211864   0.871   3.293   3.190  0.6324  1.0391  0.2086
 3885WAT      O11865   0.408   1.785   2.742  0.1245 -0.0806  0.1123
 3885WAT     H111866   0.500   1.795   2.768  0.2422  0.7000 -0.5524
 3885WAT     H211867   0.361   1.846   2.798  0.3573  1.4723 -1.2723
 3886WAT      O11868   2.787   4.828   1.329 -0.0728 -0.3415 -0.3495
 3886WAT     H111869   2.738   4.903   1.295 -0.1035 -0.2744 -0.1602
 3886WAT     H211870   2.871   4.866   1.358  0.2290 -0.5118 -0.9878
 3887WAT      O11871   2.596   1.278   4.581 -0.7583  0.0038 -0.2619
 3887WAT     H111872   2.507   1.305   4.559 -0.4810 -0.6120 -2.3513
 3887WAT     H211873   2.651   1.342   4.535 -0.0589  1.4463  2.4130
 3888WAT      O11874   1.833   0.150   5.299  0.4508  0.0877  0.4559
 3888WAT     H111875   1.832   0.097   5.219  0.7566  0.7221  0.0273
 3888WAT     H211876   1.920   0.188   5.302  0.4446  0.0590  1.1028
 3889WAT      O11877   3.845   4.951   4.785  0.2491  0.2230  0.2772
 3889WAT     H111878   3.825   4.885   4.719 -1.7493  0.2913  0.7449
 3889WAT     H211879   3.895   4.904   4.851 -0.3834 -0.6236  0.1772
 3890WAT      O11880   3.034   3.394   4.053 -0.5026  0.3446  0.3373
 3890WAT     H111881   2.985   3.389   4.135 -0.1349 -0.4237  0.5183
 3890WAT     H211882   2.987   3.459   4.000 -0.4808  1.1783  1.3235
 3891WAT      O11883   4.499   3.628   1.052  0.6814  0.1790 -0.1960
 3891WAT     H111884   4.438   3.572   1.101  1.5794 -0.6351  0.0133
 3891WAT     H211885   4.573   3.572   1.032  1.9309  1.4448  0.6157
 3892WAT      O11886   4.149   5.052   1.621  0.4281  0.3039  0.0203
 3892WAT     H111887   4.055   5.048   1.604  0.1161  1.2718  1.3160
 3892WAT     H211888   4.156   5.044   1.716  1.5645  1.2566  0.0412
 3893WAT      O11889   4.482   2.115   2.572 -0.0247 -0.4959  0.6065
 3893WAT     H111890   4.475   2.037   2.517  0.7417  1.0497 -1.9032
 3893WAT     H211891   4.396   2.126   2.611 -0.7544 -1.4483 -0.6799
 3894WAT      O11892   3.694   2.938   0.071  0.0617  0.3539 -0.2926
 3894WAT     H111893   3.664   3.024   0.102  1.6280  1.4310 -1.5762
 3894WAT     H211894   3.764   2.914   0.131 -2.2311 -1.4972  1.8491
 3895WAT      O11895   3.403   4.812   4.024  0.6411  0.8852  0.3488
 3895WAT     H111896   3.330   4.874   4.025  0.0722  0.2836 -0.7886
 3895WAT     H211897   3.458   4.841   3.952  0.4666  0.2013 -0.0747
 3896WAT      O11898   4.506   3.195   1.801 -0.2038  0.2541 -0.1830
 3896WAT     H111899   4.427   3.168   1.753  1.4433 -0.2911 -2.8339
 3896WAT     H211900   4.558   3.115   1.807 -0.1299  0.4245  2.2552
 3897WAT      O11901   3.999   2.386   3.759 -0.2747 -0.8565  0.0342
 3897WAT     H111902   3.940   2.425   3.695  0.8526  0.6170 -0.1602
 3897WAT     H211903   4.069   2.450   3.769 -0.1354 -1.3065  2.3434
 3898WAT      O11904   0.479   4.780   2.445 -0.3735 -0.1445  0.3488
 3898WAT     H111905   0.421   4.850   2.472  1.5073  1.6267  0.0294
 3898WAT     H211906   0.513   4.809   2.360  1.4465 -0.7931  0.8231
 3899WAT      O11907   0.445   5.028   2.081  0.1073 -0.2376  0.1572
 3899WAT     H111908   0.395   5.104   2.110 -1.0301 -1.0783  0.4626
 3899WAT     H211909   0.382   4.975   2.032  1.1548 -0.4628 -0.9916
 3900WAT      O11910   2.265   3.355   0.205  0.2310  0.0127  0.3497
 3900WAT     H111911   2.230   3.442   0.223  1.7739  0.9061 -0.6256
 3900WAT     H211912   2.287   3.319   0.290 -2.2336 -0.2759  0.9230
 3901WAT      O11913   3.160   1.582   0.090  0.3003 -0.2042  0.1508
 3901WAT     H111914   3.069   1.552   0.095  0.0841  0.4397  0.1299
 3901WAT     H211915   3.153   1.675   0.068  0.9941 -0.6499 -2.2686
 3902WAT      O11916   3.664   4.010   3.426  0.7014  0.4970  0.8447
 3902WAT     H111917   3.661   3.916   3.444 -2.0302  0.1848 -0.6583
 3902WAT     H211918   3.657   4.052   3.512 -0.6038 -0.7477  1.3880
 3903WAT      O11919   4.317   3.410   0.835  0.2577 -0.5458  0.3903
 3903WAT     H111920   4.411   3.393   0.839  0.4938 -0.5524 -2.7106
 3903WAT     H211921   4.279   3.328   0.803 -0.5406  0.0267 -0.1635
 3904WAT      O11922   0.057   4.561   1.697 -0.6137  0.3250  0.0151
 3904WAT     H111923   0.038   4.469   1.716  0.6079 -0.1461 -0.9219
 3904WAT     H211924   0.076   4.562   1.603 -1.1837  1.6472 -0.0997
 3905WAT      O11925   4.394   3.325   3.365  0.2764  0.4388 -0.0397
 3905WAT     H111926   4.453   3.257   3.399  0.0849 -0.2299 -1.0051
 3905WAT     H211927   4.423   3.405   3.409  0.0157 -0.3615  1.7097
 3906WAT      O11928   0.614   3.753   3.342 -0.2313  0.4461 -0.6009
 3906WAT     H111929   0.708   3.774   3.346 -0.1699  0.3073 -1.2176
 3906WAT     H211930   0.610   3.669   3.295 -0.5985 -0.0572  0.3214
 3907WAT      O11931   1.020   1.370   4.341  0.3895 -0.2062 -0.0574
 3907WAT     H111932   0.933   1.400   4.316 -0.2763 -1.2762  0.9063
 3907WAT     H211933   1.012   1.345   4.432  2.4060  2.2112  0.9132
 3908WAT      O11934   2.186   0.340   2.538 -0.4813  0.0849 -0.1871
 3908WAT     H111935   2.148   0.255   2.516  0.2563 -0.4803  0.6686
 3908WAT     H211936   2.183   0.390   2.456 -0.6352 -0.8726 -0.7735
 3909WAT      O11937   3.515   4.926   1.182 -0.1781  0.2078 -0.0679
 3909WAT     H111938   3.567   4.973   1.247  0.0831  0.6347 -0.5822
 3909WAT     H211939   3.429   4.969   1.184 -0.2873 -0.0153  0.2453
 3910WAT      O11940   2.597   2.034   1.272 -0.3019 -0.2858  0.6274
 3910WAT     H111941   2.503   2.039   1.284 -0.6602 -3.0507 -0.2406
 3910WAT     H211942   2.633   2.096   1.336 -2.6781  3.7778 -1.5742
 3911WAT      O11943   1.099   0.975   2.302 -0.0134  0.0755  0.0622
 3911WAT     H111944   1.073   0.912   2.369  2.1809 -2.2977 -1.1328
 3911WAT     H211945   1.060   0.942   2.222  2.9803 -1.2678 -1.0105
 3912WAT      O11946   2.039   1.950   0.524  0.2450 -0.3339 -0.2952
 3912WAT     H111947   2.125   1.987   0.542  0.6395 -1.2157 -0.2851
 3912WAT     H211948   1.979   2.025   0.526  0.7449  0.0687  1.4569
 3913WAT      O11949   4.288   2.840   4.941  0.4155 -0.1821  0.0790
 3913WAT     H111950   4.223   2.888   4.992  0.8952  2.3428 -1.5326
 3913WAT     H211951   4.336   2.907   4.893  0.6927 -2.2983 -2.8884
 3914WAT      O11952   1.596   0.732   2.371 -0.9869  0.1739  0.6854
 3914WAT     H111953   1.522   0.784   2.341 -0.9853 -0.6069 -0.7282
 3914WAT     H211954   1.649   0.793   2.423 -0.8563  1.6585 -1.1040
 3915WAT      O11955   1.283   3.532   2.435 -0.2943 -0.0406  0.2648
 3915WAT     H111956   1.312   3.449   2.397  1.4599 -1.0649  3.5096
 3915WAT     H211957   1.193   3.516   2.462  0.4109 -1.4162  1.9830
 3916WAT      O11958   0.655   4.052   0.384 -0.0227 -0.1492  0.0940
 3916WAT     H111959   0.709   3.974   0.391  0.3524  0.1671  0.7406
 3916WAT     H211960   0.644   4.065   0.289  2.3330  0.6596 -0.1214
 3917WAT      O11961   4.234   0.685   4.415  0.0640  0.4405  0.3271
 3917WAT     H111962   4.153   0.634   4.413 -0.3192  0.9811  1.2553
 3917WAT     H211963   4.209   0.771   4.381  0.2886  0.5373  0.4023
 3918WAT      O11964   3.440   2.706   0.611 -0.9373 -0.1936 -0.8438
 3918WAT     H111965   3.408   2.685   0.523  0.1765 -2.3497 -0.8138
 3918WAT     H211966   3.444   2.621   0.655 -0.6522  0.7416  1.0194
 3919WAT      O11967   3.597   1.788   4.868 -0.6704  0.2297 -0.0135
 3919WAT     H111968   3.568   1.712   4.818 -1.8789 -0.7576  2.0724
 3919WAT     H211969   3.524   1.850   4.861  0.5583  1.5476 -2.2203
 3920WAT      O11970   1.062   2.963   3.542  0.3056 -0.0438 -0.1231
 3920WAT     H111971   1.057   2.887   3.601 -0.9145 -0.5070 -0.7757
 3920WAT     H211972   0.972   2.995   3.537  0.7792  1.3366 -0.0196
 3921WAT      O11973   3.077   0.196   0.308  0.1595 -0.2532 -0.8583
 3921WAT     H111974   3.142   0.145   0.357  0.6675 -0.1073 -1.3723
 3921WAT     H211975   3.128   0.265   0.264 -0.1478 -0.9258 -2.3318
 3922WAT      O11976   3.962   1.363   2.807  0.1738 -0.8041  0.2433
 3922WAT     H111977   4.010   1.319   2.877  0.0669 -1.6518 -0.2022
 3922WAT     H211978   4.015   1.349   2.729 -0.2989 -0.8872 -0.0650
 3923WAT      O11979   3.435   1.751   0.800 -0.1647  0.2670  0.5189
 3923WAT     H111980   3.425   1.686   0.869  0.4872  1.7971  2.1291
 3923WAT     H211981   3.438   1.700   0.719 -3.0459 -1.4714  1.3501
 3924WAT      O11982   2.269   4.274   1.871 -0.0664 -0.2403 -0.0866
 3924WAT     H111983   2.268   4.179   1.880 -1.0019 -0.3136 -0.7801
 3924WAT     H211984   2.259   4.306   1.961  3.4415 -0.6942  0.6155
 3925WAT      O11985   2.520   2.539   3.758  0.4239 -0.4752  0.8689
 3925WAT     H111986   2.470   2.566   3.835  0.4050 -1.6008  1.2692
 3925WAT     H211987   2.611   2.557   3.782  0.2483  1.6370  0.1136
 3926WAT      O11988   2.199   0.806   2.488  0.4661  0.2140 -0.3315
 3926WAT     H111989   2.161   0.892   2.507 -0.1016 -0.1784  0.3831
 3926WAT     H211990   2.248   0.819   2.407 -0.0887  1.0701 -0.5473
 3927WAT      O11991   0.272   0.465   3.394  0.2399  0.1959 -0.2844
 3927WAT     H111992   0.209   0.537   3.389  0.6886  0.5520 -0.9805
 3927WAT     H211993   0.297   0.449   3.303  1.9335  0.7599  0.0392
 3928WAT      O11994   1.210   2.579   1.263 -0.0449  0.1987 -0.2164
 3928WAT     H111995   1.290   2.611   1.304 -0.1778 -0.8908  0.9464
 3928WAT     H211996   1.141   2.635   1.298 -0.2100 -0.9665  1.4237
 3929WAT      O11997   1.877   1.985   0.052  0.2708 -0.1751 -0.1723
 3929WAT     H111998   1.898   1.905   0.098  2.7920  0.9399  0.8125
 3929WAT     H211999   1.938   2.050   0.087 -1.0928  1.9806 -1.5166
 3930WAT      O12000   1.056   1.221   3.346  0.8916  0.3361 -0.5571
 3930WAT     H112001   0.989   1.165   3.305  0.7791  1.1524 -1.5259
 3930WAT     H212002   1.006   1.281   3.400  0.7402  1.4296 -1.8547
 3931WAT      O12003   0.778   2.119   3.549  0.6010 -0.7328 -0.1243
 3931WAT     H112004   0.791   2.060   3.475 -0.6265 -0.3340 -0.6887
 3931WAT     H212005   0.772   2.206   3.510 -0.3328 -0.5436  0.4025
 3932WAT      O12006   0.829   2.522   2.412  0.0965 -0.5292 -0.3210
 3932WAT     H112007   0.776   2.601   2.405 -0.6389 -0.8284  1.3819
 3932WAT     H212008   0.917   2.551   2.389 -0.3376  0.5603 -0.6816
 3933WAT      O12009   0.539   0.139   0.949  0.3396 -0.4420 -0.0802
 3933WAT     H112010   0.571   0.178   0.868 -0.7667 -0.3477 -0.4774
 3933WAT     H212011   0.485   0.207   0.989  1.6807 -0.1143  1.2507
 3934WAT      O12012   2.829   1.582   0.639 -0.2511 -0.3033  0.1279
 3934WAT     H112013   2.803   1.674   0.648  0.0949 -0.1143 -0.7058
 3934WAT     H212014   2.801   1.558   0.551  0.8559 -0.5966 -0.1600
 3935WAT      O12015   3.369   0.605   4.507  0.2567  0.6351  0.1676
 3935WAT     H112016   3.297   0.666   4.520  0.0901  0.1739  1.5898
 3935WAT     H212017   3.446   0.650   4.542 -0.0782 -0.3719  2.3851
 3936WAT      O12018   4.093   0.911   4.269 -0.4048 -0.4417  0.0411
 3936WAT     H112019   4.154   0.981   4.247  0.6143 -1.5680 -0.8954
 3936WAT     H212020   4.006   0.951   4.262  0.0702  0.3735 -2.0258
 3937WAT      O12021   0.232   3.908   2.218  0.4322 -0.5583 -0.1176
 3937WAT     H112022   0.270   3.955   2.292  1.4818  1.0698 -1.6172
 3937WAT     H212023   0.298   3.844   2.194  0.6286 -0.2467 -0.4112
 3938WAT      O12024   2.483   0.167   4.793  0.6575  0.2406  0.0795
 3938WAT     H112025   2.545   0.183   4.865  1.1286  1.5373 -0.5801
 3938WAT     H212026   2.444   0.253   4.776 -0.2278 -0.2655 -0.5247
 3939WAT      O12027   0.558   4.225   0.609 -0.4133  0.2826  0.6351
 3939WAT     H112028   0.517   4.257   0.529  1.5365  1.4339  0.0460
 3939WAT     H212029   0.623   4.161   0.579  0.6810  1.0931  1.2223
 3940WAT      O12030   4.139   3.210   1.638  0.7267 -0.5696  0.4573
 3940WAT     H112031   4.098   3.175   1.717  0.8532  1.4806  1.4909
 3940WAT     H212032   4.066   3.246   1.587  0.7815 -0.7047  0.2841
 3941WAT      O12033   1.273   4.863   0.372  0.4126  0.3256 -0.3219
 3941WAT     H112034   1.339   4.931   0.360 -0.5106  0.9378 -2.4638
 3941WAT     H212035   1.213   4.900   0.437 -0.4221  1.9350 -1.8961
 3942WAT      O12036   4.286   0.153   3.920  0.4439  0.0925  0.0211
 3942WAT     H112037   4.200   0.116   3.902  0.1516  1.7242 -2.3707
 3942WAT     H212038   4.269   0.236   3.965  0.8776 -0.3557  1.0520
 3943WAT      O12039   4.115   0.619   3.790 -1.0937 -0.4902  0.0824
 3943WAT     H112040   4.152   0.640   3.876 -0.2068 -2.8363  0.3422
 3943WAT     H212041   4.097   0.525   3.793 -0.8685 -0.6851 -2.3549
 3944WAT      O12042   3.041   1.665   1.998  0.0164  0.6272  0.2632
 3944WAT     H112043   3.024   1.613   1.920  0.3255 -1.4579  1.5236
 3944WAT     H212044   3.053   1.601   2.068 -2.3428  2.4203  2.5014
 3945WAT      O12045   1.163   0.930   3.828 -0.5063 -0.0245 -0.2928
 3945WAT     H112046   1.157   0.903   3.736 -1.2636  1.4432 -0.7035
 3945WAT     H212047   1.136   1.022   3.828 -0.1769  0.1044  1.3584
 3946WAT      O12048   0.671   2.220   5.182  0.3225  0.0423  0.0349
 3946WAT     H112049   0.653   2.302   5.137 -0.6387 -0.0685  0.2022
 3946WAT     H212050   0.627   2.153   5.129 -0.7790 -0.0965  1.0889
 3947WAT      O12051   3.981   0.610   0.236 -0.7157  0.5415 -0.1521
 3947WAT     H112052   3.922   0.680   0.207 -1.0619  0.0161 -0.7422
 3947WAT     H212053   3.932   0.529   0.221  0.1837  0.0906 -0.7497
 3948WAT      O12054   1.302   2.504   2.953  0.1480 -0.4236  0.1320
 3948WAT     H112055   1.308   2.586   3.002 -0.5192 -0.3571  0.1116
 3948WAT     H212056   1.259   2.443   3.014  0.1478 -0.6038 -0.0459
 3949WAT      O12057   1.026   0.610   1.495 -0.1801  0.3028 -0.0305
 3949WAT     H112058   1.014   0.545   1.564 -1.5922  0.4306 -0.1220
 3949WAT     H212059   0.996   0.565   1.415 -2.0165  1.2964  0.0396
 3950WAT      O12060   0.274   0.047   1.328 -0.0300  0.3530 -0.1500
 3950WAT     H112061   0.241   0.106   1.261 -0.0255  1.0972  0.4780
 3950WAT     H212062   0.239   0.082   1.410  1.9076  0.9240  0.4944
 3951WAT      O12063   2.438   1.813   1.443  0.0656 -0.2696 -0.2598
 3951WAT     H112064   2.472   1.860   1.368 -2.7026  0.4822 -1.1584
 3951WAT     H212065   2.344   1.804   1.425 -0.6388 -0.3929  2.9193
 3952WAT      O12066   2.963   3.627   3.876 -0.2821  0.2355 -0.2582
 3952WAT     H112067   3.016   3.665   3.946 -0.5796  0.7030 -0.2866
 3952WAT     H212068   2.936   3.701   3.823  1.8040 -0.2906 -2.1971
 3953WAT      O12069   3.760   4.765   0.224 -0.4386  1.0662  0.4298
 3953WAT     H112070   3.849   4.734   0.208 -0.7660 -0.1844  0.9010
 3953WAT     H212071   3.753   4.769   0.319 -1.0525  0.5990  0.4099
 3954WAT      O12072   0.592   1.396   3.554  0.4518 -0.4374 -0.4016
 3954WAT     H112073   0.501   1.412   3.578 -0.7223 -2.2579 -3.0645
 3954WAT     H212074   0.638   1.475   3.581 -1.4091 -0.3711  3.1313
 3955WAT      O12075   1.039   2.388   2.621  0.1127  0.2335 -0.2617
 3955WAT     H112076   0.983   2.401   2.698 -0.6078  0.0821 -0.7447
 3955WAT     H212077   0.999   2.313   2.576 -2.7231  3.3574 -3.5785
 3956WAT      O12078   0.735   1.631   3.952  0.2752 -0.2107 -0.0481
 3956WAT     H112079   0.692   1.595   4.029 -0.0895  0.3912  0.0396
 3956WAT     H212080   0.693   1.716   3.939 -0.1648 -0.6035 -1.3330
 3957WAT      O12081   0.711   0.146   3.556 -0.3011  0.3622  0.2748
 3957WAT     H112082   0.722   0.185   3.470 -0.1582  0.7644  0.4703
 3957WAT     H212083   0.616   0.137   3.567 -0.3100 -2.6614 -1.2183
 3958WAT      O12084   1.647  -0.008   0.754  0.1162 -0.4035  0.4821
 3958WAT     H112085   1.576   0.053   0.734 -0.5219 -1.3763 -0.3319
 3958WAT     H212086   1.660  -0.000   0.849  0.2286  1.1562  0.3619
 3959WAT      O12087   1.883   1.079   3.423  0.5579  0.7056 -0.2413
 3959WAT     H112088   1.891   1.078   3.518 -0.7083 -0.4816 -0.1021
 3959WAT     H212089   1.960   1.032   3.391  0.7413  0.6926  0.2231
 3960WAT      O12090   1.504   1.894   3.306 -0.6008  0.7172  0.6007
 3960WAT     H112091   1.547   1.810   3.292 -0.8576  0.2509  2.3068
 3960WAT     H212092   1.450   1.906   3.228 -0.9622 -0.9720  0.5402
 3961WAT      O12093   3.188   0.900   0.304 -0.5199  0.0629 -0.2284
 3961WAT     H112094   3.174   0.993   0.322 -1.2765 -0.0880 -0.0218
 3961WAT     H212095   3.143   0.885   0.221  0.5156  0.1133 -0.8142
 3962WAT      O12096   2.701   0.567   4.831  0.2171  0.1550  0.4387
 3962WAT     H112097   2.763   0.613   4.775  0.1197  1.8390  1.6290
 3962WAT     H212098   2.751   0.495   4.869  1.0170  0.5721  0.2011
 3963WAT      O12099   1.490   1.409   0.995 -0.1971  0.3634  0.3720
 3963WAT     H112100   1.468   1.323   1.033  1.1937 -1.9409 -3.4410
 3963WAT     H212101   1.585   1.409   0.992 -0.2004  1.8563 -0.1511
 3964WAT      O12102   3.257   4.315   0.157 -0.0975 -0.1874  0.3813
 3964WAT     H112103   3.259   4.243   0.220 -0.2820 -0.3238  0.2322
 3964WAT     H212104   3.325   4.375   0.187  0.2024 -0.5270  0.3838
 3965WAT      O12105   2.378   2.658   4.951  0.0671 -0.6096  0.3428
 3965WAT     H112106   2.350   2.677   4.862 -1.5094 -0.9094  0.7553
 3965WAT     H212107   2.299   2.667   5.004  1.0155 -0.2366  1.7502
 3966WAT      O12108   3.175   2.123   2.632 -0.0620 -0.5148 -0.2342
 3966WAT     H112109   3.194   2.191   2.567 -1.4737  0.8369  0.7017
 3966WAT     H212110   3.248   2.128   2.694 -0.5773  0.7594  0.2924
 3967WAT      O12111   1.220   4.407   4.557  0.2484 -0.5583 -0.6115
 3967WAT     H112112   1.194   4.317   4.576  0.3380 -0.5468 -0.4341
 3967WAT     H212113   1.146   4.460   4.584  1.1063 -0.3734  1.5342
 3968WAT      O12114   0.433   0.349   4.053 -0.7337  0.1530 -0.2419
 3968WAT     H112115   0.515   0.304   4.076 -0.8538  0.8591  1.8115
 3968WAT     H212116   0.384   0.286   4.001  0.4343 -0.8976 -0.1074
 3969WAT      O12117   2.127   2.533   4.572  0.2315 -0.4359 -0.3094
 3969WAT     H112118   2.039   2.531   4.610  0.5338 -2.6034  0.4125
 3969WAT     H212119   2.118   2.490   4.487  0.6805 -1.1998  0.0204
 3970WAT      O12120   0.391   3.410   4.576  0.4692 -0.4715 -0.3327
 3970WAT     H112121   0.331   3.348   4.617 -0.9615  0.9914 -0.1385
 3970WAT     H212122   0.468   3.357   4.553 -0.5572 -2.2329  0.1137
 3971WAT      O12123   1.990   2.975   3.198 -0.0958 -0.3562  0.5097
 3971WAT     H112124   1.993   2.880   3.186  0.8266 -0.4988  1.6655
 3971WAT     H212125   2.055   2.993   3.266 -0.1125  1.1333  0.1816
 3972WAT      O12126   3.133   1.336   1.454  0.0719  0.1685  0.3463
 3972WAT     H112127   3.178   1.360   1.535  0.9130  0.8839 -0.3052
 3972WAT     H212128   3.160   1.246   1.438  0.1226  0.1149  0.7159
 3973WAT      O12129   4.043   4.467   1.174 -0.3647 -0.0112  0.4721
 3973WAT     H112130   4.130   4.475   1.136 -1.0356  1.4967 -0.8123
 3973WAT     H212131   4.054   4.402   1.244  1.8949  0.5386  0.7013
 3974WAT      O12132   3.153   1.089   1.387 -0.6341 -0.7473 -0.1219
 3974WAT     H112133   3.181   1.058   1.301 -1.8937  0.1656 -0.8856
 3974WAT     H212134   3.194   1.028   1.449  0.4997 -1.2692 -1.3343
 3975WAT      O12135   1.797   0.376   4.196  0.5617  0.0322  0.2821
 3975WAT     H112136   1.887   0.407   4.204  0.5828  0.7109 -1.8513
 3975WAT     H212137   1.768   0.360   4.286  3.1136 -1.1674  0.9644
 3976WAT      O12138   4.238   2.134   2.776  0.0722 -0.7439 -0.2205
 3976WAT     H112139   4.249   2.168   2.864  1.6884 -0.3117 -0.5441
 3976WAT     H212140   4.180   2.059   2.786 -0.6344 -0.0610  1.0368
 3977WAT      O12141   2.908   3.961   1.086  0.2484  0.0307  0.3064
 3977WAT     H112142   2.944   4.044   1.117 -0.2475  0.3285  0.0999
 3977WAT     H212143   2.951   3.945   1.002  1.8687 -0.9607  1.2813
 3978WAT      O12144   1.306   0.294   0.360  0.4827 -0.1273  0.8830
 3978WAT     H112145   1.319   0.366   0.299  0.1685 -1.4664 -0.8601
 3978WAT     H212146   1.387   0.289   0.410  0.9463  0.7188  0.2357
 3979WAT      O12147   2.751   2.113   0.819 -0.6852 -0.3765 -0.6544
 3979WAT     H112148   2.807   2.112   0.896 -0.1207  2.0468 -0.9690
 3979WAT     H212149   2.779   2.037   0.768  1.8669  0.3854 -0.4793
 3980WAT      O12150   3.400   3.841   1.784  0.4477 -0.9900 -0.0778
 3980WAT     H112151   3.338   3.775   1.817 -0.6672  0.1717  0.2535
 3980WAT     H212152   3.478   3.829   1.838 -0.4865 -0.6999  1.4041
 3981WAT      O12153   0.181   4.655   0.391 -0.4424 -0.1737  0.1772
 3981WAT     H112154   0.212   4.635   0.479 -1.0629  0.0315  0.4512
 3981WAT     H212155   0.161   4.570   0.352 -1.8548 -0.1939  0.8783
 3982WAT      O12156   0.807   1.831   1.126  0.2329 -0.4176  0.0060
 3982WAT     H112157   0.857   1.754   1.101 -0.1165 -0.8208  0.5259
 3982WAT     H212158   0.873   1.897   1.147  0.5421 -0.8229  0.3186
 3983WAT      O12159   4.388   4.737   2.299  0.7100 -0.0591  0.3929
 3983WAT     H112160   4.308   4.754   2.350  0.8982  0.5883  0.4885
 3983WAT     H212161   4.369   4.773   2.213  1.2355  0.9822  0.6925
 3984WAT      O12162   2.218   3.583   4.715  0.0261 -0.5503  0.3095
 3984WAT     H112163   2.162   3.587   4.792 -1.5473  0.8359 -0.8321
 3984WAT     H212164   2.265   3.667   4.715  2.6356 -1.8849  1.5419
 3985WAT      O12165   3.798   2.456   4.930 -0.5749 -0.0283  0.1907
 3985WAT     H112166   3.884   2.495   4.942 -1.4940  1.8942  0.9132
 3985WAT     H212167   3.785   2.400   5.007 -0.4939  0.7199  0.7559
 3986WAT      O12168   4.364   0.907   2.137 -0.2750  0.1030  0.0828
 3986WAT     H112169   4.412   0.987   2.115  0.7898 -0.3721  0.5889
 3986WAT     H212170   4.337   0.872   2.052 -0.9279  1.0767 -0.1405
 3987WAT      O12171   3.671   0.949   3.542  0.1525  0.0882 -0.2001
 3987WAT     H112172   3.730   0.968   3.614  0.3507  1.2854 -0.6621
 3987WAT     H212173   3.615   1.026   3.536  0.1254 -0.0083 -1.3169
 3988WAT      O12174   0.260   0.992   4.389 -0.1687  0.0219 -0.6284
 3988WAT     H112175   0.233   1.084   4.398 -0.6025  0.1394 -2.5690
 3988WAT     H212176   0.180   0.942   4.406  0.2389 -0.0799  1.1832
 3989WAT      O12177   0.413   2.262   1.787  0.5368  0.2541  0.0709
 3989WAT     H112178   0.451   2.348   1.774  0.5731  0.2020 -0.1721
 3989WAT     H212179   0.468   2.221   1.853 -0.1756  0.8487  1.0620
 3990WAT      O12180   0.481   4.953   3.920 -0.3980  0.2667 -0.6790
 3990WAT     H112181   0.489   5.047   3.909 -0.1686  0.5225  1.4074
 3990WAT     H212182   0.400   4.940   3.969 -0.4228 -0.6318 -0.9230
 3991WAT      O12183   0.524   0.828   3.254  0.6752 -0.3321 -0.0461
 3991WAT     H112184   0.464   0.787   3.316 -1.4293  0.5158 -1.4316
 3991WAT     H212185   0.586   0.876   3.310 -0.5972 -0.3303  1.4388
 3992WAT      O12186   3.728   0.456   0.440 -0.1061  0.2102 -0.4499
 3992WAT     H112187   3.767   0.370   0.421  1.1763  0.4582  0.9008
 3992WAT     H212188   3.802   0.510   0.467 -1.3077  0.8351  1.7959
 3993WAT      O12189   2.400   3.593   0.080  0.0043  0.0605  0.2706
 3993WAT     H112190   2.361   3.576  -0.005  1.4567 -0.2071 -0.3690
 3993WAT     H212191   2.339   3.652   0.124 -1.4064 -0.8449 -0.4267
 3994WAT      O12192   2.356   1.809   2.337  0.1066 -0.6385 -0.0069
 3994WAT     H112193   2.434   1.865   2.328  0.0606 -0.8820 -2.4582
 3994WAT     H212194   2.370   1.762   2.419  0.9890  1.6545  1.2551
 3995WAT      O12195   2.978   0.527   3.366  0.3202  0.9140  0.0373
 3995WAT     H112196   3.033   0.490   3.296 -1.3483 -1.6793 -0.0439
 3995WAT     H212197   2.890   0.495   3.346 -0.7805  2.7682  1.6058
 3996WAT      O12198   3.305   2.140   1.029  0.0382  0.1919 -0.2780
 3996WAT     H112199   3.256   2.061   1.010  0.2692  0.3564 -1.6718
 3996WAT     H212200   3.350   2.161   0.947  3.3040 -0.5299  1.1759
 3997WAT      O12201   1.788   4.561   4.362  0.0413 -1.1450 -0.2849
 3997WAT     H112202   1.720   4.577   4.297 -1.1776 -0.7470  1.0391
 3997WAT     H212203   1.848   4.500   4.319 -1.1582 -1.5296 -1.4854
 3998WAT      O12204   2.861   2.747   0.264  0.2124 -0.1583  0.1682
 3998WAT     H112205   2.790   2.687   0.286 -0.2187  0.0696 -0.5912
 3998WAT     H212206   2.920   2.696   0.208  1.7862 -1.0318  2.4464
 3999WAT      O12207   4.351   4.506   1.358  0.2283  0.0893  0.6215
 3999WAT     H112208   4.359   4.425   1.306 -0.4327  0.8519 -0.7231
 3999WAT     H212209   4.286   4.558   1.311 -0.2227  0.9349  2.1138
 4000WAT      O12210   3.220   4.173   4.383 -0.6076  0.8196  0.6217
 4000WAT     H112211   3.303   4.186   4.429  1.0473 -2.5198 -1.0263
 4000WAT     H212212   3.178   4.259   4.384  1.8502  2.1693  3.3806
 4001WAT      O12213   3.797   0.806   0.441  0.0189  0.0497 -0.4269
 4001WAT     H112214   3.706   0.791   0.467  0.4203 -1.0594  0.4019
 4001WAT     H212215   3.799   0.783   0.348 -0.4689 -0.2982 -0.3572
 4002WAT      O12216   1.820   4.755   0.660 -0.3242 -0.3651  0.6615
 4002WAT     H112217   1.868   4.767   0.578 -0.5361  1.1038  0.7162
 4002WAT     H212218   1.821   4.842   0.701 -1.9013 -0.5943  1.2701
 4003WAT      O12219   2.005   0.629   4.666  0.0198 -0.1915  0.3079
 4003WAT     H112220   2.044   0.542   4.658  1.7326  0.6020 -0.3029
 4003WAT     H212221   2.060   0.686   4.613 -2.2837  0.9376 -1.0616
 4004WAT      O12222   0.322   0.410   4.707 -0.0416 -0.3608  0.0057
 4004WAT     H112223   0.306   0.477   4.774  0.4203  0.2902 -0.5227
 4004WAT     H212224   0.272   0.440   4.631 -0.5800 -1.1101  0.0573
 4005WAT      O12225   3.077   4.608   3.105  0.1482 -0.2622 -0.1054
 4005WAT     H112226   3.026   4.588   3.184 -1.4999 -0.0814 -1.0645
 4005WAT     H212227   3.059   4.700   3.088  1.8601  0.1620  0.2252
   4.51469   5.13366   5.29077
