Generic title
12227
    1ILE      N    1   1.323   1.313   3.514  0.8116  0.1465 -0.2028
    1ILE     H1    2   1.336   1.237   3.579  0.2883  0.7222  0.5874
    1ILE     H2    3   1.331   1.284   3.417  0.1171  0.1504 -0.2671
    1ILE     H3    4   1.229   1.341   3.537  0.1246 -3.2057  1.7283
    1ILE     CA    5   1.407   1.433   3.558 -0.3675  0.5055 -0.3676
    1ILE     HA    6   1.392   1.513   3.484  1.4787 -0.1479 -1.5115
    1ILE     CB    7   1.358   1.495   3.691  0.3840 -0.1959  0.2411
    1ILE     HB    8   1.251   1.515   3.686  0.1919 -1.2798 -0.4326
    1ILE    CG2    9   1.378   1.396   3.806 -0.2017 -0.8166  0.4507
    1ILE   HG21   10   1.484   1.379   3.828 -0.0286 -2.3247 -1.2612
    1ILE   HG22   11   1.334   1.434   3.898  0.3150  1.0672 -0.0540
    1ILE   HG23   12   1.333   1.298   3.788 -1.5217  0.1297 -1.7203
    1ILE    CG1   13   1.431   1.628   3.723 -0.0429 -0.3533 -0.6271
    1ILE   HG12   14   1.429   1.694   3.636  0.9540  1.3607  0.5866
    1ILE   HG13   15   1.538   1.621   3.742 -0.5336 -0.2644  2.8745
    1ILE    CD1   16   1.364   1.717   3.831  0.1438  1.3239  0.4626
    1ILE   HD11   17   1.352   1.669   3.928 -1.0635  1.7466  0.5439
    1ILE   HD12   18   1.423   1.802   3.863 -0.6987  2.0152  0.2171
    1ILE   HD13   19   1.266   1.751   3.796  0.0368  2.4927  1.8209
    1ILE      C   20   1.556   1.401   3.546  0.4903  0.4445  0.2687
    1ILE      O   21   1.598   1.291   3.579  0.4270 -0.1302 -0.3364
    2LEU      N   22   1.643   1.496   3.503 -0.3569  0.3541  0.6215
    2LEU      H   23   1.608   1.579   3.459  1.8073  0.3039 -1.3958
    2LEU     CA   24   1.785   1.497   3.517 -0.0507 -0.0066  0.6444
    2LEU     HA   25   1.818   1.439   3.604 -0.1127 -2.5151 -0.8830
    2LEU     CB   26   1.847   1.413   3.402 -0.2083 -0.6848  0.9132
    2LEU    HB2   27   1.813   1.310   3.411 -1.1636 -0.5269 -0.5813
    2LEU    HB3   28   1.799   1.455   3.314  0.6841 -0.4847  0.5086
    2LEU     CG   29   1.996   1.409   3.395 -0.4047 -0.3721  0.4702
    2LEU     HG   30   2.034   1.510   3.377 -0.8198 -0.5990 -2.0148
    2LEU    CD1   31   2.052   1.349   3.523 -0.0652 -0.9909 -0.8420
    2LEU   HD11   32   2.011   1.250   3.543  1.0462 -1.5452 -1.2316
    2LEU   HD12   33   2.158   1.334   3.502  0.1491  0.0136 -0.5499
    2LEU   HD13   34   2.056   1.415   3.610  1.6630 -1.9399 -0.1318
    2LEU    CD2   35   2.041   1.331   3.282 -0.8703  0.0684 -0.2473
    2LEU   HD21   36   2.004   1.372   3.187  0.6348  2.7856  0.2376
    2LEU   HD22   37   2.149   1.336   3.277 -0.6088 -0.5955  2.8556
    2LEU   HD23   38   2.009   1.228   3.296 -0.0767 -0.1419  0.0301
    2LEU      C   39   1.851   1.642   3.516  0.4589 -0.2823  0.2996
    2LEU      O   40   1.787   1.727   3.453 -0.5577 -0.2924 -0.0798
    3ARG      N   41   1.965   1.670   3.583 -0.3148  0.0121  0.1784
    3ARG      H   42   1.987   1.606   3.658 -0.2582  0.2599  0.3742
    3ARG     CA   43   2.033   1.801   3.591 -0.8782 -1.0647  0.4865
    3ARG     HA   44   2.022   1.857   3.498 -1.8644 -2.0934 -0.0404
    3ARG     CB   45   1.971   1.889   3.710 -0.1346  0.1861 -0.3581
    3ARG    HB2   46   1.863   1.893   3.701 -0.2511 -0.9619  0.3428
    3ARG    HB3   47   1.991   1.851   3.810  0.4961 -0.5175 -0.7402
    3ARG     CG   48   2.025   2.027   3.694 -0.1684  0.2209  0.0586
    3ARG    HG2   49   2.131   2.018   3.721 -0.1647 -0.6997 -0.2528
    3ARG    HG3   50   1.998   2.071   3.599 -0.4831 -0.3745 -0.1303
    3ARG     CD   51   1.975   2.117   3.800 -0.9345  0.0018 -1.0393
    3ARG    HD2   52   1.872   2.139   3.774 -0.8374 -1.5506 -3.0188
    3ARG    HD3   53   1.977   2.064   3.896  0.1106 -0.1090 -1.1096
    3ARG     NE   54   2.050   2.244   3.807 -0.1003  0.2477  0.6255
    3ARG     HE   55   2.117   2.266   3.735 -0.8968  0.8465  0.0506
    3ARG     CZ   56   2.040   2.338   3.900 -0.0931  1.0598 -0.2250
    3ARG    NH1   57   1.971   2.323   4.009  0.4813  0.2126  0.2720
    3ARG   HH11   58   1.934   2.231   4.028  1.0294 -0.4033 -1.5285
    3ARG   HH12   59   1.951   2.406   4.064 -2.6247  0.4928 -1.0716
    3ARG    NH2   60   2.086   2.452   3.879  0.4930 -0.7660  0.5425
    3ARG   HH21   61   2.143   2.474   3.799  0.2962 -0.9928  0.3336
    3ARG   HH22   62   2.085   2.513   3.959  0.1424  3.1993 -2.2136
    3ARG      C   63   2.184   1.781   3.604  0.0938 -0.0966  0.2443
    3ARG      O   64   2.224   1.699   3.682  0.0228 -0.2672 -0.4272
    4TRP      N   65   2.259   1.867   3.534 -0.3612  0.5452  0.8285
    4TRP      H   66   2.215   1.930   3.469 -1.4060 -0.4654  0.5345
    4TRP     CA   67   2.404   1.887   3.535 -0.3948  0.3091 -0.2791
    4TRP     HA   68   2.431   1.867   3.639  1.2306 -0.5983 -0.8238
    4TRP     CB   69   2.460   1.765   3.447  0.2447  0.3362  0.4072
    4TRP    HB2   70   2.399   1.675   3.459 -0.6814  0.7210 -1.1546
    4TRP    HB3   71   2.444   1.801   3.345 -2.1477 -1.3834  0.0876
    4TRP     CG   72   2.610   1.706   3.465  0.4924  0.0644 -0.5768
    4TRP    CD1   73   2.693   1.666   3.366 -0.1290 -0.0081  0.3341
    4TRP    HD1   74   2.673   1.677   3.260  0.8183 -0.1948  0.1314
    4TRP    NE1   75   2.821   1.661   3.416  0.2663  0.3817  0.7146
    4TRP    HE1   76   2.899   1.641   3.356 -0.4168 -0.1267 -0.0173
    4TRP    CE2   77   2.827   1.699   3.545  0.0976 -0.0952 -0.0571
    4TRP    CZ2   78   2.925   1.726   3.638 -0.1515  0.1250  0.8135
    4TRP    HZ2   79   3.027   1.735   3.604 -0.6868  0.4815 -0.7906
    4TRP    CH2   80   2.899   1.747   3.779  0.2080  0.7178  0.7041
    4TRP    HH2   81   2.979   1.771   3.846 -0.2201  0.6565  1.2435
    4TRP    CZ3   82   2.765   1.736   3.820 -0.4171 -0.5015  0.0907
    4TRP    HZ3   83   2.739   1.738   3.925  0.1843  2.1247  0.2580
    4TRP    CE3   84   2.665   1.719   3.724 -0.3633  0.4959 -0.3912
    4TRP    HE3   85   2.561   1.725   3.753  0.3586  0.7963  2.3612
    4TRP    CD2   86   2.694   1.700   3.584  0.3261  0.7881  0.7226
    4TRP      C   87   2.441   2.039   3.506 -0.4395 -0.0673  0.1833
    4TRP      O   88   2.347   2.113   3.475  0.5531  0.2118  0.3048
    5PRO      N   89   2.563   2.082   3.506  0.1087  0.4188  0.1195
    5PRO     CD   90   2.677   2.001   3.499  0.1924  0.2509  0.2640
    5PRO    HD2   91   2.672   1.929   3.418 -1.2655 -1.1723  1.5528
    5PRO    HD3   92   2.687   1.946   3.593 -0.8271 -0.5702 -0.0993
    5PRO     CG   93   2.797   2.087   3.469  0.2138  0.0669  0.1279
    5PRO    HG2   94   2.792   2.114   3.364 -1.6609 -2.7918 -0.6138
    5PRO    HG3   95   2.888   2.040   3.506  0.1743  1.1150  1.6701
    5PRO     CB   96   2.750   2.212   3.552  0.8429  0.3118 -0.4979
    5PRO    HB2   97   2.807   2.304   3.538  0.4529  0.7003  0.3658
    5PRO    HB3   98   2.752   2.180   3.656 -0.2968  0.2369 -0.4895
    5PRO     CA   99   2.604   2.225   3.512  0.5308  0.5452 -0.0714
    5PRO     HA  100   2.551   2.285   3.585 -0.3460  0.6468 -0.7712
    5PRO      C  101   2.592   2.303   3.383  0.3133  0.5876  0.4935
    5PRO      O  102   2.577   2.254   3.273 -0.1079 -0.3540  0.0207
    6TRP      N  103   2.595   2.437   3.395  0.3960  0.0078  0.4830
    6TRP      H  104   2.610   2.480   3.486  1.0984 -1.1482  0.9461
    6TRP     CA  105   2.597   2.533   3.287  0.0357  0.1882 -0.5074
    6TRP     HA  106   2.640   2.489   3.197  0.5776  2.2752 -1.3353
    6TRP     CB  107   2.455   2.554   3.246  0.1903 -0.8244 -0.1908
    6TRP    HB2  108   2.417   2.456   3.220 -0.8602 -0.4908  0.0119
    6TRP    HB3  109   2.401   2.590   3.334 -1.2346 -1.6395 -0.6898
    6TRP     CG  110   2.433   2.639   3.129 -0.5988  0.1747 -0.5294
    6TRP    CD1  111   2.312   2.696   3.112  0.2562 -0.1756 -0.2623
    6TRP    HD1  112   2.232   2.692   3.185 -0.3270  1.2949 -0.7814
    6TRP    NE1  113   2.310   2.757   2.989 -0.5757  0.4404  0.5375
    6TRP    HE1  114   2.226   2.796   2.950 -0.9485 -1.9917 -1.3252
    6TRP    CE2  115   2.422   2.733   2.914 -0.6894  0.7657 -0.1380
    6TRP    CZ2  116   2.463   2.770   2.788  0.7059  0.1669 -0.1953
    6TRP    HZ2  117   2.393   2.823   2.726 -0.9664 -0.3481  1.1833
    6TRP    CH2  118   2.584   2.722   2.740 -0.2207 -0.3054  0.7816
    6TRP    HH2  119   2.610   2.733   2.636 -0.6933  0.3335  0.7205
    6TRP    CZ3  120   2.665   2.634   2.821 -0.2596 -0.0773 -0.0816
    6TRP    HZ3  121   2.757   2.596   2.779  0.1406  1.0955 -0.2799
    6TRP    CE3  122   2.622   2.599   2.947  0.9234 -0.3651  0.1329
    6TRP    HE3  123   2.689   2.531   2.998  0.8263 -0.8040 -0.3219
    6TRP    CD2  124   2.505   2.654   3.004  0.0382  0.7325  0.2678
    6TRP      C  125   2.655   2.667   3.325  0.3214 -0.4632 -0.0296
    6TRP      O  126   2.610   2.730   3.424 -0.2153  0.2553 -0.2534
    7TRP      N  127   2.744   2.718   3.244 -0.0502 -0.3684  0.1506
    7TRP      H  128   2.779   2.663   3.167 -3.8806 -1.0051 -1.3641
    7TRP     CA  129   2.792   2.855   3.240 -0.0289 -0.0719  0.5464
    7TRP     HA  130   2.745   2.901   3.327  1.1040  1.3089  0.4597
    7TRP     CB  131   2.941   2.838   3.281  0.3661  0.4294  0.2223
    7TRP    HB2  132   2.939   2.767   3.363  0.2451  0.3100  0.1161
    7TRP    HB3  133   2.992   2.793   3.196 -1.6583 -0.2545 -0.6927
    7TRP     CG  134   3.023   2.957   3.327 -0.4513 -0.1950 -0.0688
    7TRP    CD1  135   3.162   2.962   3.325  0.2867 -0.6448  0.2892
    7TRP    HD1  136   3.235   2.886   3.302  0.3658  0.0521 -2.0247
    7TRP    NE1  137   3.201   3.097   3.340  0.7291  0.2345 -0.4319
    7TRP    HE1  138   3.297   3.122   3.321  1.3618 -1.2253  0.6432
    7TRP    CE2  139   3.094   3.178   3.348  0.6617  0.2222 -0.5433
    7TRP    CZ2  140   3.087   3.316   3.329 -0.8342  0.1696  0.5539
    7TRP    HZ2  141   3.172   3.368   3.287 -0.2979 -0.9617  0.1996
    7TRP    CH2  142   2.958   3.374   3.331 -0.6687 -0.0187 -0.3520
    7TRP    HH2  143   2.936   3.478   3.313 -2.6148  0.0752  2.0341
    7TRP    CZ3  144   2.842   3.300   3.365  0.6311 -0.6648 -0.3847
    7TRP    HZ3  145   2.746   3.350   3.369  1.4489  0.9047  3.8543
    7TRP    CE3  146   2.850   3.162   3.365 -0.9167  0.5040  0.0475
    7TRP    HE3  147   2.758   3.109   3.382 -0.3134  0.3494  3.4033
    7TRP    CD2  148   2.978   3.093   3.352  0.1291 -0.2352  0.0635
    7TRP      C  149   2.745   2.917   3.105  0.0675  0.2466  0.1979
    7TRP      O  150   2.624   2.931   3.101  0.0117  0.3152 -0.0109
    8PRO      N  151   2.823   2.966   3.000 -0.2705 -0.1851  0.3012
    8PRO     CD  152   2.957   3.028   3.012  0.4119 -0.2459 -0.3323
    8PRO    HD2  153   3.030   2.972   2.953  0.6869  1.9989 -2.2479
    8PRO    HD3  154   2.991   3.029   3.116 -0.1907 -1.6363 -0.0999
    8PRO     CG  155   2.950   3.176   2.973 -0.2623 -0.6079 -0.3471
    8PRO    HG2  156   3.017   3.205   2.892 -0.9296  2.8160  0.1774
    8PRO    HG3  157   2.966   3.237   3.062 -1.6913 -1.7859  0.7619
    8PRO     CB  158   2.807   3.192   2.927 -0.6118 -0.2903 -0.3560
    8PRO    HB2  159   2.795   3.262   2.844 -1.8788 -0.5642 -0.4196
    8PRO    HB3  160   2.752   3.231   3.012 -0.8653  0.8014 -0.9969
    8PRO     CA  161   2.770   3.045   2.890 -0.0204  0.7187  0.4150
    8PRO     HA  162   2.662   3.039   2.889 -0.0213  0.7270  0.4432
    8PRO      C  163   2.819   3.001   2.747  0.0085  0.3158 -0.6152
    8PRO      O  164   2.915   2.922   2.737 -0.4361  0.3072 -0.8308
    9TRP      N  165   2.764   3.051   2.639  0.3994  0.7301 -0.0613
    9TRP      H  166   2.671   3.089   2.653  0.2261 -0.0058  0.8858
    9TRP     CA  167   2.803   3.034   2.501  0.5104 -0.2118  0.0883
    9TRP     HA  168   2.912   3.027   2.501  0.5712  0.4338  1.3583
    9TRP     CB  169   2.756   2.895   2.459 -0.0224  0.3953 -0.2183
    9TRP    HB2  170   2.782   2.827   2.540  0.3168  1.1615  0.3316
    9TRP    HB3  171   2.647   2.896   2.454 -0.1216 -1.8713  0.2815
    9TRP     CG  172   2.804   2.834   2.329 -0.2005 -0.4068  0.6120
    9TRP    CD1  173   2.726   2.771   2.236  0.3947  0.8614 -0.1937
    9TRP    HD1  174   2.621   2.744   2.236  0.8821 -1.4049 -2.4308
    9TRP    NE1  175   2.806   2.721   2.136  0.2916  0.3329 -0.1678
    9TRP    HE1  176   2.768   2.668   2.059 -1.1063  1.3224 -0.2063
    9TRP    CE2  177   2.929   2.779   2.135  0.7233  0.5686  0.0330
    9TRP    CZ2  178   3.033   2.782   2.043  0.3845 -0.2475  0.2013
    9TRP    HZ2  179   3.028   2.737   1.945  0.0514  1.3372 -0.5424
    9TRP    CH2  180   3.142   2.866   2.062  0.2722  0.2119  0.0634
    9TRP    HH2  181   3.210   2.898   1.984  1.0542 -0.1625  0.5830
    9TRP    CZ3  182   3.160   2.929   2.186  0.6332  0.1701  0.6438
    9TRP    HZ3  183   3.244   2.995   2.200  0.5840  0.6920 -1.1960
    9TRP    CE3  184   3.062   2.909   2.285 -0.6855 -0.6494 -0.3175
    9TRP    HE3  185   3.094   2.946   2.381 -0.5141 -1.6799  0.0355
    9TRP    CD2  186   2.939   2.845   2.262  0.4704  0.0304  0.3146
    9TRP      C  187   2.761   3.143   2.401  0.3290 -0.5695  0.1915
    9TRP      O  188   2.666   3.216   2.428  0.2850  0.0693  0.1125
   10ARG      N  189   2.830   3.149   2.290 -0.4898 -0.3912  0.4285
   10ARG      H  190   2.898   3.078   2.270 -0.2443  0.1646 -0.8147
   10ARG     CA  191   2.795   3.239   2.180 -0.1352 -0.4273  0.3248
   10ARG     HA  192   2.689   3.262   2.185  0.0129  0.8719 -1.3990
   10ARG     CB  193   2.875   3.375   2.208  0.2573 -0.1101 -0.1999
   10ARG    HB2  194   2.816   3.421   2.287  0.5337  0.2182 -0.1848
   10ARG    HB3  195   2.980   3.358   2.234  0.3172 -1.5000 -1.2172
   10ARG     CG  196   2.874   3.466   2.086  1.0516 -0.0627 -0.0821
   10ARG    HG2  197   2.936   3.413   2.014  1.5522 -0.6874  0.7872
   10ARG    HG3  198   2.776   3.491   2.045 -0.1573  0.2853  2.7369
   10ARG     CD  199   2.947   3.597   2.116 -0.5154  0.0175 -0.1213
   10ARG    HD2  200   2.902   3.650   2.200  1.7416  2.6663 -0.4352
   10ARG    HD3  201   3.050   3.580   2.145  0.1247  0.6046 -1.8920
   10ARG     NE  202   2.952   3.686   1.997  0.4457 -0.4182 -0.6397
   10ARG     HE  203   2.909   3.648   1.915 -0.7398 -1.3688  0.3779
   10ARG     CZ  204   3.024   3.799   1.989  0.9363  0.1005 -0.3146
   10ARG    NH1  205   3.104   3.856   2.075  0.2207  0.1074 -0.1452
   10ARG   HH11  206   3.096   3.819   2.169  2.7724 -3.8537 -1.2335
   10ARG   HH12  207   3.161   3.937   2.058 -0.2819  1.2095  2.8122
   10ARG    NH2  208   3.006   3.866   1.879  0.4732 -0.3226 -0.0361
   10ARG   HH21  209   2.947   3.826   1.809  1.1129  0.0910 -0.8325
   10ARG   HH22  210   3.047   3.956   1.856 -2.4639  0.7327 -1.5899
   10ARG      C  211   2.841   3.164   2.055 -0.0583 -1.1381 -0.3031
   10ARG      O  212   2.942   3.098   2.063  0.2481  0.5241  0.6451
   11ARG      N  213   2.782   3.189   1.936  0.0298  0.6564 -0.0136
   11ARG      H  214   2.704   3.254   1.930 -0.1592  0.3522 -1.4086
   11ARG     CA  215   2.836   3.146   1.800  0.6413 -0.5797  0.2443
   11ARG     HA  216   2.944   3.137   1.809  0.8461 -1.6075 -2.3471
   11ARG     CB  217   2.766   3.014   1.768  0.2668  0.4145  0.6765
   11ARG    HB2  218   2.774   2.946   1.853 -1.9547 -0.1294  0.5043
   11ARG    HB3  219   2.659   3.033   1.772  0.0571 -0.5283 -0.0939
   11ARG     CG  220   2.817   2.939   1.643  0.5513 -0.1480  0.2822
   11ARG    HG2  221   2.821   3.002   1.555  1.0817 -2.1143 -1.1798
   11ARG    HG3  222   2.918   2.902   1.660  0.9036  0.4532 -0.4335
   11ARG     CD  223   2.731   2.812   1.625  0.0885 -0.5057  0.5448
   11ARG    HD2  224   2.728   2.744   1.711 -1.8091 -1.1773 -0.0095
   11ARG    HD3  225   2.626   2.836   1.613 -0.4947 -2.1288  1.8655
   11ARG     NE  226   2.772   2.746   1.499  0.1301 -0.0064 -0.4141
   11ARG     HE  227   2.860   2.778   1.462 -0.1890  0.0526 -1.1418
   11ARG     CZ  228   2.729   2.630   1.446  0.0357 -0.4881  0.0093
   11ARG    NH1  229   2.621   2.574   1.493 -0.2470 -0.0835 -0.1597
   11ARG   HH11  230   2.586   2.594   1.585 -0.5024 -3.3098  0.5644
   11ARG   HH12  231   2.600   2.482   1.457 -2.4575 -0.7946  2.6664
   11ARG    NH2  232   2.776   2.579   1.340  0.4724  0.6591 -0.0341
   11ARG   HH21  233   2.828   2.635   1.274  0.4195 -0.9044 -1.4874
   11ARG   HH22  234   2.738   2.492   1.306 -0.2938  1.2836 -0.8107
   11ARG      C  235   2.812   3.263   1.698  0.4075 -0.5358 -0.5424
   11ARG      O  236   2.710   3.331   1.705 -0.8290 -0.0063 -0.0071
   12LYS      N  237   2.906   3.266   1.603 -0.0867 -0.6229 -0.0023
   12LYS      H  238   2.988   3.208   1.611  0.0617 -0.4155 -0.0138
   12LYS     CA  239   2.893   3.333   1.482 -0.0896  0.6037  0.6789
   12LYS     HA  240   2.793   3.373   1.467 -0.4630 -0.5764 -0.1032
   12LYS     CB  241   2.989   3.451   1.496  0.3133 -0.0579 -0.3410
   12LYS    HB2  242   2.964   3.503   1.588 -0.3773 -1.6918  0.4217
   12LYS    HB3  243   3.096   3.428   1.493  0.2287 -0.3945 -2.5520
   12LYS     CG  244   2.959   3.547   1.385  0.0158 -0.1435  0.2642
   12LYS    HG2  245   2.976   3.512   1.283  0.9271  1.7518 -0.2767
   12LYS    HG3  246   2.852   3.567   1.390 -0.5833 -3.0448  1.5366
   12LYS     CD  247   3.031   3.676   1.394  0.7776 -1.2018 -0.0146
   12LYS    HD2  248   3.008   3.725   1.488  0.9088  0.4185 -0.7883
   12LYS    HD3  249   3.139   3.666   1.385  1.4739  2.6825  1.8154
   12LYS     CE  250   2.985   3.771   1.287 -0.1515 -0.5432 -0.2510
   12LYS    HE2  251   3.008   3.716   1.196  3.8672 -0.1920  0.3595
   12LYS    HE3  252   2.878   3.793   1.289  0.0472  0.6162 -1.1428
   12LYS     NZ  253   3.052   3.903   1.287 -0.1167 -0.5055  0.7799
   12LYS    HZ1  254   3.150   3.902   1.262 -0.3836  1.9217 -0.6732
   12LYS    HZ2  255   3.021   3.970   1.218  1.8632 -0.4255 -0.0823
   12LYS    HZ3  256   3.045   3.940   1.381 -2.4036 -0.8918  0.8364
   12LYS      C  257   2.933   3.240   1.356 -0.2735  0.0324  0.4560
   12LYS      O  258   3.015   3.146   1.365 -0.1475  0.4195  0.3015
   13NHE      N  259   2.876   3.266   1.240 -0.7192 -0.2402  0.3988
   13NHE    HN1  260   2.828   3.355   1.237  0.3749  0.3329 -0.4747
   13NHE    HN2  261   2.874   3.204   1.160  1.5935  1.0966 -0.7681
   14Cl-    Cl-  262   3.195   4.316   0.566 -0.0263 -0.1678 -0.4122
   15Cl-    Cl-  263   3.942   4.776   1.909  0.3654 -0.1410  0.1688
   16Cl-    Cl-  264   1.132   1.199   2.085 -0.6038 -0.0331  0.1050
   17Cl-    Cl-  265   0.206   0.228   3.303  0.6410  0.3104 -0.0264
   18Cl-    Cl-  266   3.126   2.414   0.294  0.3705 -0.1150  0.4001
   19WAT      O  267   1.772   3.907   5.205 -0.2765  0.5957  0.0428
   19WAT     H1  268   1.834   3.958   5.257 -1.2504  1.4764  0.3816
   19WAT     H2  269   1.693   3.961   5.202 -1.0851 -0.5577 -0.2558
   20WAT      O  270   2.188   0.215   0.106  0.1184 -0.0461 -0.3296
   20WAT     H1  271   2.097   0.216   0.075 -0.1032 -0.4639  0.2829
   20WAT     H2  272   2.210   0.307   0.119  0.8443  0.3270 -3.4225
   21WAT      O  273   0.828   1.758   4.981 -0.3837  0.0008 -0.2588
   21WAT     H1  274   0.900   1.778   4.922  1.3540  1.1580  2.1002
   21WAT     H2  275   0.870   1.738   5.064 -2.7625 -0.6493  0.8745
   22WAT      O  276   3.936   1.934   1.483  0.1782 -0.4641  0.1242
   22WAT     H1  277   3.941   1.861   1.421  2.2324 -2.0606  2.0020
   22WAT     H2  278   3.846   1.965   1.475 -0.2612 -1.9824 -2.0573
   23WAT      O  279   4.373   4.161   2.710  0.0605 -0.0359  0.3659
   23WAT     H1  280   4.460   4.194   2.690  0.5807 -1.5095  0.0795
   23WAT     H2  281   4.321   4.182   2.632  1.4229 -3.4089 -1.6413
   24WAT      O  282   1.533   2.907   2.208 -0.6576 -0.5080  0.3086
   24WAT     H1  283   1.479   2.921   2.286  1.2976  0.0258  1.6483
   24WAT     H2  284   1.530   2.991   2.161 -0.4041 -0.2336  0.7762
   25WAT      O  285   3.058   5.080   5.209 -0.1583  0.0705 -0.3853
   25WAT     H1  286   2.981   5.053   5.258 -0.5690 -1.0843 -1.6076
   25WAT     H2  287   3.023   5.122   5.130  0.4747  0.2144 -0.5978
   26WAT      O  288   2.268   5.073   0.553 -0.0208  0.3197  0.0797
   26WAT     H1  289   2.232   5.151   0.511 -1.1602  0.1149  0.6219
   26WAT     H2  290   2.239   5.001   0.497  0.2600  0.2151  0.0692
   27WAT      O  291   3.916   0.176   5.230 -0.1271 -0.6698 -0.2037
   27WAT     H1  292   3.943   0.085   5.243 -0.2551 -0.8695 -1.2260
   27WAT     H2  293   3.947   0.222   5.308 -1.6196 -1.9155  1.2184
   28WAT      O  294   0.346   4.699   0.787  0.5023 -0.1286  0.1182
   28WAT     H1  295   0.342   4.623   0.845  0.6373  1.0340  1.6964
   28WAT     H2  296   0.431   4.739   0.806  0.5176  0.3298 -0.8431
   29WAT      O  297   2.819   0.047   4.615 -0.1607 -0.2139 -0.1693
   29WAT     H1  298   2.810   0.067   4.708  2.5791  0.7384 -0.0030
   29WAT     H2  299   2.864  -0.038   4.613 -0.5513 -0.4167 -0.6521
   30WAT      O  300   2.681   0.091   1.116 -0.2444 -1.0319  0.5445
   30WAT     H1  301   2.649   0.015   1.068  1.7114 -2.4750  1.3881
   30WAT     H2  302   2.776   0.086   1.109 -0.0402  1.3175  0.7029
   31WAT      O  303   0.299   1.320   2.306 -0.1905  0.0210  0.3759
   31WAT     H1  304   0.294   1.252   2.239 -1.3431  1.5355 -1.1993
   31WAT     H2  305   0.377   1.371   2.282  0.1983 -0.2528  1.0486
   32WAT      O  306   0.168   0.993   4.447 -0.3699 -0.1532  0.3998
   32WAT     H1  307   0.138   1.042   4.370  1.6221 -1.0503 -1.0261
   32WAT     H2  308   0.196   0.909   4.412  2.1087 -0.0063  1.8483
   33WAT      O  309   2.585   1.956   5.264 -0.4018 -0.0938 -0.4795
   33WAT     H1  310   2.649   1.891   5.295 -1.6874 -1.0923  0.1686
   33WAT     H2  311   2.621   2.040   5.291  0.1854 -0.7096  0.7004
   34WAT      O  312   2.343   1.590   3.123 -0.3081 -0.2232  0.1544
   34WAT     H1  313   2.254   1.609   3.154 -0.4459  0.3248 -0.5629
   34WAT     H2  314   2.380   1.534   3.192 -0.9711  0.0952  0.7901
   35WAT      O  315   0.445   1.443   5.246 -0.4683 -0.2327  0.2349
   35WAT     H1  316   0.477   1.355   5.226 -0.7831 -1.0891  2.9988
   35WAT     H2  317   0.350   1.437   5.234 -0.2831  0.5708 -2.1344
   36WAT      O  318   2.671   2.101   4.515 -0.1760  0.1679 -0.1429
   36WAT     H1  319   2.709   2.073   4.598 -2.6711 -0.4177  0.9153
   36WAT     H2  320   2.673   2.023   4.460  0.5772  0.2830 -0.2859
   37WAT      O  321   1.195   0.539   1.907 -0.5761 -0.0661 -0.1555
   37WAT     H1  322   1.157   0.555   1.821  1.0932 -0.9289 -1.1036
   37WAT     H2  323   1.182   0.621   1.955 -2.5165  0.0498 -0.8142
   38WAT      O  324   0.409   4.156   0.664 -0.3658  0.5770  0.5286
   38WAT     H1  325   0.442   4.245   0.675  0.0264  0.4451  0.4695
   38WAT     H2  326   0.437   4.110   0.743  1.2554 -0.0154 -0.3299
   39WAT      O  327   3.026   2.968   4.031 -0.4512 -0.7570  0.1741
   39WAT     H1  328   3.022   3.036   4.099  2.9675 -1.2991  1.1079
   39WAT     H2  329   3.002   3.013   3.950 -1.1951  0.7661  1.1900
   40WAT      O  330   0.560   3.761   2.141 -0.1302  0.4405  0.0999
   40WAT     H1  331   0.561   3.815   2.219 -0.7475 -0.1095  0.4991
   40WAT     H2  332   0.493   3.694   2.158 -0.1716  0.2194 -0.8275
   41WAT      O  333   0.431   0.623   3.526  0.2603  0.3120 -0.0790
   41WAT     H1  334   0.422   0.553   3.461 -0.2312 -0.1412  0.4718
   41WAT     H2  335   0.493   0.589   3.590  0.0256  0.3867  0.1880
   42WAT      O  336   1.881   1.787   1.761 -0.0350  0.0812 -0.0156
   42WAT     H1  337   1.879   1.743   1.846  2.6073 -0.7130 -0.2938
   42WAT     H2  338   1.817   1.739   1.708 -0.0128 -0.9162  0.8273
   43WAT      O  339   1.442   4.437   1.909 -0.2826 -0.1137  0.2571
   43WAT     H1  340   1.407   4.389   1.984  1.6676  1.1712  2.1289
   43WAT     H2  341   1.401   4.524   1.916 -0.9309 -0.3096 -0.8727
   44WAT      O  342   3.186   3.051   1.721  0.1270 -0.4173  0.0306
   44WAT     H1  343   3.152   3.111   1.788 -0.1963 -0.4475 -0.1066
   44WAT     H2  344   3.268   3.018   1.758 -0.4109 -0.9993  0.7391
   45WAT      O  345   3.509   3.858   0.984 -0.1969 -0.5043  0.1634
   45WAT     H1  346   3.498   3.953   0.976 -0.4861 -0.6198 -1.0759
   45WAT     H2  347   3.468   3.836   1.068 -1.1955  0.3143 -0.0840
   46WAT      O  348   3.285   0.153   0.902  0.2176 -0.2262  0.0095
   46WAT     H1  349   3.317   0.063   0.913 -0.7331 -0.4192  1.6053
   46WAT     H2  350   3.363   0.206   0.890  0.9749 -0.9964  1.3125
   47WAT      O  351   1.713   3.318   2.990 -0.1840  0.1881  0.1344
   47WAT     H1  352   1.707   3.405   2.950  1.3849  0.2342 -0.0824
   47WAT     H2  353   1.692   3.332   3.082  0.0360  0.8062  0.0934
   48WAT      O  354   4.210   3.481   4.255  0.2448  0.5503  0.0976
   48WAT     H1  355   4.251   3.402   4.291  0.7072 -0.3689 -2.2238
   48WAT     H2  356   4.154   3.448   4.185  0.2471  2.2548 -0.7523
   49WAT      O  357   2.025   2.915   0.655 -0.1150  0.2792 -0.7852
   49WAT     H1  358   1.962   2.983   0.682  0.7399  1.3426 -1.3915
   49WAT     H2  359   2.002   2.839   0.708 -2.9033  0.1171 -2.0691
   50WAT      O  360   1.151   3.594   4.558  0.3737  0.2465 -0.2506
   50WAT     H1  361   1.118   3.645   4.632 -2.0333  0.5934 -1.4709
   50WAT     H2  362   1.150   3.503   4.589 -0.6604  0.3814  0.1452
   51WAT      O  363   0.500   3.109   0.645 -0.2358 -0.2300 -0.1671
   51WAT     H1  364   0.588   3.075   0.662 -0.3033 -0.6457 -0.6493
   51WAT     H2  365   0.515   3.187   0.591  0.1305  2.2818  3.2347
   52WAT      O  366   0.793   0.884   2.970 -0.0687  0.3512  0.1911
   52WAT     H1  367   0.779   0.950   3.039  0.3250  0.3409  0.2815
   52WAT     H2  368   0.704   0.858   2.944 -0.2427  1.3344 -0.2485
   53WAT      O  369   3.565   0.233   2.566 -0.1258 -1.1868 -0.0949
   53WAT     H1  370   3.563   0.187   2.649 -1.0221 -0.5467  0.2555
   53WAT     H2  371   3.543   0.166   2.501  1.5757 -1.9191  0.0407
   54WAT      O  372   2.028   4.100   3.591  0.6375  0.5358  0.0558
   54WAT     H1  373   2.049   4.106   3.498  0.4249  0.9439  0.0336
   54WAT     H2  374   1.941   4.140   3.599  0.3759 -0.0676  0.3307
   55WAT      O  375   3.853   1.030   1.229 -0.3213  0.0045  0.2969
   55WAT     H1  376   3.853   0.959   1.294 -0.5762 -0.0839  0.2013
   55WAT     H2  377   3.942   1.066   1.232 -0.0795 -0.5736  0.0638
   56WAT      O  378   2.265   4.080   0.362  0.0693 -0.4697 -0.3826
   56WAT     H1  379   2.266   3.986   0.381  0.0232 -0.4980 -0.5195
   56WAT     H2  380   2.229   4.120   0.441  0.1138 -0.5648 -0.3137
   57WAT      O  381   0.655   5.100   3.661 -0.3681  0.5908  0.4335
   57WAT     H1  382   0.560   5.110   3.661 -0.4265  0.0975 -0.0825
   57WAT     H2  383   0.688   5.188   3.640 -0.6623  1.0145  1.6365
   58WAT      O  384   4.251   4.998   3.661  0.2178  0.1270 -0.2873
   58WAT     H1  385   4.199   4.966   3.588  0.2847  0.9130 -0.6940
   58WAT     H2  386   4.194   4.990   3.737 -0.8153  1.6756 -0.8385
   59WAT      O  387   0.960   0.481   0.261  0.2894 -0.5199 -0.1932
   59WAT     H1  388   1.049   0.508   0.242  0.0145  0.7486  0.1698
   59WAT     H2  389   0.968   0.424   0.338  0.8134 -0.6955 -0.3758
   60WAT      O  390   0.016   0.272   4.371  0.6116 -0.3748 -0.0850
   60WAT     H1  391  -0.055   0.326   4.407  1.1182  0.4302 -0.2518
   60WAT     H2  392   0.062   0.239   4.448  1.0730  0.5032  0.0336
   61WAT      O  393   2.139   0.337   5.020 -0.5972 -0.0266 -0.3442
   61WAT     H1  394   2.074   0.287   4.972  0.8604 -0.2979 -2.1667
   61WAT     H2  395   2.190   0.381   4.952  2.2338 -1.2312  0.8493
   62WAT      O  396   0.715   0.001   4.544  0.7155  0.1469 -0.4625
   62WAT     H1  397   0.728   0.016   4.450  1.0586  0.5680 -0.3506
   62WAT     H2  398   0.706   0.088   4.582 -0.8953 -0.0731 -0.2931
   63WAT      O  399   0.390   2.980   0.229  0.3957 -0.1427  0.1903
   63WAT     H1  400   0.300   3.011   0.223  0.4026 -0.0274  0.6649
   63WAT     H2  401   0.396   2.938   0.315  0.9640  0.4180  0.4379
   64WAT      O  402   2.962   0.065   3.016 -0.2312 -0.1291  0.2305
   64WAT     H1  403   3.021   0.022   3.078  0.2199  1.3407  0.8684
   64WAT     H2  404   3.020   0.112   2.956 -0.7278  0.6811  0.3686
   65WAT      O  405   2.674   4.307   0.803 -0.5255 -0.2150 -0.5534
   65WAT     H1  406   2.755   4.288   0.755  0.2766  0.0905  0.6406
   65WAT     H2  407   2.637   4.220   0.821  0.4324 -0.4645  0.3496
   66WAT      O  408   0.565   0.255   0.523 -0.1287  0.4247 -0.1939
   66WAT     H1  409   0.546   0.291   0.436 -2.5500  3.3275  1.3504
   66WAT     H2  410   0.620   0.322   0.565 -0.6344  0.0123  1.1772
   67WAT      O  411   1.409   1.451   0.943  0.1707 -0.5757 -0.1256
   67WAT     H1  412   1.467   1.467   0.868  0.8802 -0.7078  0.3831
   67WAT     H2  413   1.334   1.405   0.906  0.6169 -0.8388 -0.7180
   68WAT      O  414   0.386   1.153   4.564  0.3544  0.0278 -0.1940
   68WAT     H1  415   0.324   1.096   4.520  1.1858 -0.5324 -0.6765
   68WAT     H2  416   0.366   1.240   4.532  0.6612 -0.3130 -1.3766
   69WAT      O  417   2.102   0.465   4.024 -0.4973 -0.0039  0.0643
   69WAT     H1  418   2.150   0.462   4.107 -0.1436 -0.3999 -0.1461
   69WAT     H2  419   2.023   0.413   4.040 -1.1922  1.1939  0.6124
   70WAT      O  420   0.925   0.467   1.278  0.0804  0.2479 -0.3492
   70WAT     H1  421   1.004   0.418   1.254  0.0825  0.7437 -1.4063
   70WAT     H2  422   0.880   0.483   1.194 -1.1115  0.0213  0.2317
   71WAT      O  423   0.742   1.916   2.543  0.4500 -0.2483  0.0184
   71WAT     H1  424   0.742   1.959   2.457  0.4954 -1.8221 -0.7914
   71WAT     H2  425   0.827   1.873   2.548  0.9767  0.8647  1.4239
   72WAT      O  426   1.207   3.469   4.083 -0.3781  0.3846 -0.8028
   72WAT     H1  427   1.116   3.439   4.074 -0.3829  0.5646 -1.3473
   72WAT     H2  428   1.210   3.509   4.170 -0.3892 -1.1213 -0.0625
   73WAT      O  429   1.433   4.202   3.760  0.4951  0.3171 -0.3747
   73WAT     H1  430   1.420   4.158   3.844 -1.8573 -0.3915 -1.0196
   73WAT     H2  431   1.378   4.153   3.699  1.2792  1.4802 -2.1008
   74WAT      O  432   2.323   4.831   2.899 -0.6092  0.6585  0.3676
   74WAT     H1  433   2.275   4.751   2.920  1.0138  0.0776  2.0849
   74WAT     H2  434   2.389   4.804   2.835 -2.1933  1.3856 -1.7143
   75WAT      O  435   1.364   0.853   4.525  0.2963 -0.0685  0.0976
   75WAT     H1  436   1.275   0.822   4.508  0.6638  0.0820 -2.4355
   75WAT     H2  437   1.379   0.832   4.618 -1.9033 -1.2049  0.2687
   76WAT      O  438   3.134   3.759   4.583 -0.4599 -0.1506 -0.4614
   76WAT     H1  439   3.142   3.803   4.667  0.3825 -1.0168 -0.0817
   76WAT     H2  440   3.118   3.667   4.604  0.2821 -0.4738 -1.2231
   77WAT      O  441   3.842   3.221   3.751  0.1052  0.1301 -0.8605
   77WAT     H1  442   3.830   3.259   3.664 -3.1787  1.1062 -0.1031
   77WAT     H2  443   3.834   3.295   3.811  0.1090 -0.8467  0.3794
   78WAT      O  444   2.880   1.002   2.781 -0.0548  0.3317 -0.4822
   78WAT     H1  445   2.910   0.919   2.818  0.1297  0.3901 -0.4979
   78WAT     H2  446   2.800   1.022   2.829 -0.8229 -0.5085 -1.3629
   79WAT      O  447   4.195   2.842   2.265  0.0693 -0.2293 -0.2138
   79WAT     H1  448   4.152   2.927   2.276  1.3171  0.2705  1.2326
   79WAT     H2  449   4.125   2.782   2.239 -0.9545  1.0952 -0.6218
   80WAT      O  450   0.942   3.889   5.142 -0.2984 -0.0006 -0.4915
   80WAT     H1  451   0.918   3.801   5.113  0.7083 -0.5278  0.2007
   80WAT     H2  452   1.031   3.901   5.109  0.7155 -0.4344  1.8755
   81WAT      O  453   4.089   2.322   1.810  0.0573 -0.7388 -0.1847
   81WAT     H1  454   4.024   2.269   1.857 -1.6701  0.2059 -1.3995
   81WAT     H2  455   4.115   2.389   1.874  1.8360 -2.5653  1.1690
   82WAT      O  456   2.285   2.847   0.635  0.4626  0.7710  0.2573
   82WAT     H1  457   2.299   2.905   0.559  1.4917 -0.8496 -0.8524
   82WAT     H2  458   2.217   2.891   0.686  0.3152  2.3252 -1.1788
   83WAT      O  459   1.769   2.066   1.659  0.4167 -0.4881 -0.2333
   83WAT     H1  460   1.717   2.050   1.581 -1.7547 -1.3702  1.3080
   83WAT     H2  461   1.827   1.990   1.665  2.3073  0.6811 -2.1673
   84WAT      O  462   2.156   1.974   2.240  0.8994  1.2751 -0.8160
   84WAT     H1  463   2.173   1.897   2.186  2.2906  1.8375 -1.2272
   84WAT     H2  464   2.063   1.994   2.224 -0.0158 -1.3097  0.6849
   85WAT      O  465   1.762   3.993   4.940 -0.0688  0.0344 -0.4388
   85WAT     H1  466   1.759   3.961   5.030 -1.0678 -0.7519 -0.7393
   85WAT     H2  467   1.678   4.035   4.926  0.3134  0.6966 -0.8253
   86WAT      O  468   1.318   0.582   4.731 -0.0110 -0.0047 -0.2138
   86WAT     H1  469   1.356   0.552   4.813  0.2825  0.6444 -0.1050
   86WAT     H2  470   1.305   0.676   4.744  0.1618  0.1250 -0.9563
   87WAT      O  471   0.624   0.175   1.808 -0.2547  0.4568 -0.4944
   87WAT     H1  472   0.604   0.264   1.778 -1.1281  0.0719 -1.1008
   87WAT     H2  473   0.540   0.141   1.837  0.0942 -0.1427 -0.1870
   88WAT      O  474   1.733   3.336   4.939 -0.5131 -0.4683  0.1115
   88WAT     H1  475   1.709   3.409   4.997  0.0517 -0.2008  0.0156
   88WAT     H2  476   1.809   3.296   4.981 -1.1237 -1.3243  0.4247
   89WAT      O  477   2.255   4.414   4.868  0.3006  0.2718  0.0798
   89WAT     H1  478   2.306   4.354   4.813  0.0297 -4.4626  4.2344
   89WAT     H2  479   2.165   4.404   4.838  0.4046 -0.6628  0.0452
   90WAT      O  480   1.897   0.954   1.465 -0.4143  0.3259  0.1930
   90WAT     H1  481   1.942   0.986   1.386 -0.9784  0.9182  0.1032
   90WAT     H2  482   1.873   1.033   1.513 -2.3501  0.0962 -0.3211
   91WAT      O  483   0.842   0.499   2.703  0.4793  0.0851 -0.2185
   91WAT     H1  484   0.789   0.470   2.629 -0.4698  0.3465  0.3476
   91WAT     H2  485   0.780   0.541   2.762  1.3616  0.6116  0.3502
   92WAT      O  486   3.338   0.397   0.575 -0.1065  0.3789 -0.3874
   92WAT     H1  487   3.397   0.402   0.650 -0.6976  0.2391  0.0937
   92WAT     H2  488   3.317   0.304   0.566 -0.2194  0.4214 -0.5847
   93WAT      O  489   2.213   4.688   0.538  0.3265  0.1478  0.0292
   93WAT     H1  490   2.123   4.699   0.569  0.9139 -1.2159  2.5068
   93WAT     H2  491   2.204   4.666   0.445 -2.0128 -1.2548  0.5200
   94WAT      O  492   4.410   2.737   4.166  0.6156 -0.7814 -0.9917
   94WAT     H1  493   4.391   2.645   4.187  0.5980 -0.5896 -0.1468
   94WAT     H2  494   4.336   2.764   4.112 -0.8670 -0.4648  1.0672
   95WAT      O  495   3.284   3.588   1.873  0.1018  0.4646  0.1065
   95WAT     H1  496   3.278   3.625   1.785 -0.4625 -1.1594 -0.5685
   95WAT     H2  497   3.372   3.549   1.877 -0.2060 -0.2640 -0.0825
   96WAT      O  498   0.040   0.408   3.932  0.2561 -0.3923  0.6385
   96WAT     H1  499  -0.012   0.329   3.921  1.3806 -0.9817 -0.6803
   96WAT     H2  500   0.096   0.390   4.008 -0.0366 -0.5486  0.8193
   97WAT      O  501   3.478   4.030   4.579  0.4682  0.4948 -0.1397
   97WAT     H1  502   3.560   4.056   4.537  0.2275  2.6700  0.5906
   97WAT     H2  503   3.495   4.040   4.673  0.3042 -2.1154  0.2253
   98WAT      O  504   3.976   3.816   1.222 -0.0642  0.2106 -0.1111
   98WAT     H1  505   4.066   3.794   1.246 -0.2043  0.5908  0.8062
   98WAT     H2  506   3.983   3.901   1.178  0.0259  0.2417 -0.0385
   99WAT      O  507   0.597   3.679   3.906  0.4335  0.0677  0.1787
   99WAT     H1  508   0.655   3.606   3.928 -2.2409 -1.9371  1.0793
   99WAT     H2  509   0.587   3.727   3.989 -1.2760 -1.2450  0.7979
  100WAT      O  510   4.285   3.710   4.983 -0.4474  0.4541 -0.0201
  100WAT     H1  511   4.333   3.667   5.054  1.3556  1.3392 -0.6484
  100WAT     H2  512   4.309   3.803   4.990 -2.1789  0.9535 -0.3012
  101WAT      O  513   3.156   3.181   0.639 -0.4041  0.4749  0.4816
  101WAT     H1  514   3.121   3.203   0.725 -0.0509 -0.3840  0.8567
  101WAT     H2  515   3.082   3.194   0.579  0.0529  3.7989  0.4406
  102WAT      O  516   2.325   4.931   1.145 -0.0445  0.3685  0.0674
  102WAT     H1  517   2.290   4.877   1.074  0.2896 -0.0135  0.1912
  102WAT     H2  518   2.248   4.978   1.179 -0.6898 -1.4184  1.1747
  103WAT      O  519   2.572   3.184   0.015  0.0692 -0.2236  0.0776
  103WAT     H1  520   2.591   3.184  -0.079  3.1129 -0.3714  0.6093
  103WAT     H2  521   2.592   3.095   0.043 -0.6692 -0.1360  0.9055
  104WAT      O  522   3.282   1.025   0.009 -0.8012 -0.2511  0.1401
  104WAT     H1  523   3.310   0.941   0.044  0.7368  0.5319  0.9328
  104WAT     H2  524   3.193   1.011  -0.021  0.5769 -3.1980 -3.2895
  105WAT      O  525   3.650   4.985   4.106 -0.5175 -0.2036  0.0191
  105WAT     H1  526   3.608   4.899   4.107 -2.1417  0.5379  0.1522
  105WAT     H2  527   3.634   5.020   4.194 -2.0993  1.1856 -0.7566
  106WAT      O  528   0.220   0.683   3.660 -0.0056  0.3957 -0.0765
  106WAT     H1  529   0.307   0.667   3.624  0.5076  2.2146  0.2151
  106WAT     H2  530   0.237   0.721   3.747 -1.1341 -0.6601  0.6433
  107WAT      O  531   2.635   2.340   5.122 -0.3356 -0.5635 -0.4706
  107WAT     H1  532   2.705   2.284   5.089 -0.2482  0.0705 -1.4111
  107WAT     H2  533   2.554   2.293   5.100 -0.2984  0.0589 -2.0663
  108WAT      O  534   3.189   5.113   2.701  0.2714  0.0966 -0.1257
  108WAT     H1  535   3.101   5.077   2.711  0.1501  0.3827 -0.1597
  108WAT     H2  536   3.194   5.181   2.768  1.4015 -1.6780  1.7286
  109WAT      O  537   3.912   4.664   3.363 -0.4577 -0.5964  0.4477
  109WAT     H1  538   4.000   4.636   3.339 -0.1608  0.4561  0.2609
  109WAT     H2  539   3.906   4.646   3.457 -0.3394 -1.4148  0.3036
  110WAT      O  540   3.906   1.370   0.729  0.5713  0.3492  0.5361
  110WAT     H1  541   3.867   1.351   0.644 -2.0324  2.1721  1.2220
  110WAT     H2  542   3.864   1.310   0.789  1.0247  0.3284  0.8385
  111WAT      O  543   2.567   4.334   3.123  0.1520 -0.0800  0.1600
  111WAT     H1  544   2.627   4.335   3.197 -0.7112  1.2965  0.8794
  111WAT     H2  545   2.503   4.266   3.146  0.4758 -0.3814  0.1801
  112WAT      O  546   2.492   0.849   2.566  0.3786 -0.9691 -0.0646
  112WAT     H1  547   2.423   0.896   2.519  0.2754 -0.8026  0.2536
  112WAT     H2  548   2.571   0.900   2.550  0.5725 -1.5171 -0.9847
  113WAT      O  549   3.270   4.418   5.040  0.2866  0.3727  0.2524
  113WAT     H1  550   3.245   4.500   4.998  0.6979  0.0878 -0.5645
  113WAT     H2  551   3.361   4.404   5.015  0.2781 -0.2468  0.5236
  114WAT      O  552   4.116   0.309   0.569 -0.1016 -0.5901 -0.0374
  114WAT     H1  553   4.108   0.263   0.485 -1.1297 -0.0830 -0.2313
  114WAT     H2  554   4.150   0.243   0.629  0.2630 -1.0698 -0.7581
  115WAT      O  555   2.309   3.793   5.007  0.0379 -0.1565  0.6855
  115WAT     H1  556   2.377   3.763   5.068  0.2971  1.7466  1.4083
  115WAT     H2  557   2.231   3.802   5.061 -0.0066  0.4978  0.5247
  116WAT      O  558   2.154   1.103   3.116 -0.6498  0.2875 -0.4444
  116WAT     H1  559   2.142   1.163   3.189  0.4847  0.1633 -0.1358
  116WAT     H2  560   2.093   1.133   3.049 -0.7874  1.1808  0.0748
  117WAT      O  561   1.659   4.268   3.017  0.0522 -0.1104 -0.0223
  117WAT     H1  562   1.641   4.199   3.081 -1.5973  0.3783  0.1004
  117WAT     H2  563   1.610   4.241   2.939 -1.0192  1.1106  0.1879
  118WAT      O  564   4.169   0.651   3.810 -0.1822 -0.0105 -1.3514
  118WAT     H1  565   4.099   0.689   3.757 -1.1432 -0.8091 -0.6943
  118WAT     H2  566   4.197   0.574   3.760 -2.1982 -1.7149 -0.0469
  119WAT      O  567   4.421   1.144   3.848  0.2951  0.3966 -0.1934
  119WAT     H1  568   4.367   1.158   3.770  0.4554  0.3277 -0.3168
  119WAT     H2  569   4.383   1.067   3.890  0.0019  0.6321 -0.0234
  120WAT      O  570   0.467   3.542   2.440  0.4615  0.0096 -0.7201
  120WAT     H1  571   0.437   3.498   2.520  2.0568  1.3302  0.6832
  120WAT     H2  572   0.392   3.537   2.381 -0.7220 -1.1684  0.7850
  121WAT      O  573   2.400   0.667   2.758  0.4757 -0.1342 -0.4938
  121WAT     H1  574   2.378   0.603   2.690 -1.8616 -0.9694  0.9022
  121WAT     H2  575   2.410   0.750   2.711  1.9343 -1.1928 -2.1511
  122WAT      O  576   0.656   0.251   3.497  0.3014  0.0755  0.0867
  122WAT     H1  577   0.697   0.330   3.463 -0.5629  0.6614  0.3779
  122WAT     H2  578   0.563   0.274   3.506  0.0300 -0.9822  0.1275
  123WAT      O  579   3.917   3.434   1.809  0.2399  0.1083  0.1023
  123WAT     H1  580   3.903   3.340   1.798 -1.6648  0.4557 -0.8840
  123WAT     H2  581   4.004   3.441   1.848  0.2217 -2.0751  0.6723
  124WAT      O  582   0.937   1.706   1.212 -0.0572  0.1683 -0.4781
  124WAT     H1  583   0.875   1.778   1.223 -0.5022 -0.3683  0.6611
  124WAT     H2  584   0.887   1.637   1.170 -0.3409 -0.3674  0.6942
  125WAT      O  585   3.855   3.056   4.162 -0.1272 -0.2255 -0.0304
  125WAT     H1  586   3.936   3.043   4.111 -0.3735  0.2960 -0.5678
  125WAT     H2  587   3.885   3.062   4.252  0.3078 -1.3033 -0.0927
  126WAT      O  588   3.248   3.482   3.882  0.2048  0.2318  0.0325
  126WAT     H1  589   3.171   3.533   3.857 -0.9646 -1.1808  0.6335
  126WAT     H2  590   3.267   3.427   3.806 -0.6762 -0.9155  0.6206
  127WAT      O  591   3.667   0.455   1.011 -0.4396 -0.0529 -0.3614
  127WAT     H1  592   3.655   0.547   0.984  1.4879  1.2339  2.6806
  127WAT     H2  593   3.602   0.442   1.080  1.3018  0.0929  1.3687
  128WAT      O  594   0.984   2.878   2.272  0.0082 -0.5808  0.2140
  128WAT     H1  595   0.994   2.970   2.296  0.5244 -0.5061 -0.2645
  128WAT     H2  596   1.045   2.865   2.199 -0.7988 -1.0574 -0.3940
  129WAT      O  597   2.103   3.738   2.427 -0.5244 -0.0414 -0.1240
  129WAT     H1  598   2.107   3.818   2.374  0.1605 -0.5245 -0.8175
  129WAT     H2  599   2.014   3.738   2.462  0.1235  2.2009  1.7728
  130WAT      O  600   4.217   2.479   2.005  0.2277 -0.0810  0.2951
  130WAT     H1  601   4.210   2.568   1.970  1.1571  0.5413  1.5814
  130WAT     H2  602   4.295   2.443   1.962 -0.0684 -0.2343 -0.1215
  131WAT      O  603   0.783   0.194   1.255  0.2169  0.7978  0.1552
  131WAT     H1  604   0.752   0.189   1.345 -1.9107  2.0697 -0.4395
  131WAT     H2  605   0.842   0.269   1.254  0.1709  0.8373  0.4446
  132WAT      O  606   0.300   4.591   3.025  0.0520 -0.3163 -0.3951
  132WAT     H1  607   0.286   4.497   3.017 -1.0302 -0.0972 -1.4925
  132WAT     H2  608   0.217   4.625   3.059  0.5210  0.2171  0.2355
  133WAT      O  609   2.631   1.797   2.061  0.3814 -0.0914 -0.5657
  133WAT     H1  610   2.685   1.830   1.990  0.7703 -0.0019 -0.2286
  133WAT     H2  611   2.690   1.788   2.135 -0.6672  3.3643  0.8844
  134WAT      O  612   1.362   0.478   4.364 -0.1460 -0.1515  0.4655
  134WAT     H1  613   1.366   0.421   4.286  1.2863  0.3242  0.1607
  134WAT     H2  614   1.422   0.549   4.344 -0.1939  0.2766  1.7920
  135WAT      O  615   2.064   0.552   4.699  0.0010  0.2523 -0.1792
  135WAT     H1  616   2.025   0.556   4.611 -0.8383 -1.6578  0.0643
  135WAT     H2  617   2.144   0.501   4.688  0.6907  1.2855 -0.0724
  136WAT      O  618   0.062   2.200   1.467 -0.6879 -0.1447  0.0726
  136WAT     H1  619   0.037   2.196   1.559 -3.4936 -1.4855 -0.6549
  136WAT     H2  620   0.023   2.281   1.434  0.5490  0.4807  0.0723
  137WAT      O  621   1.773   3.833   0.261  0.1012  0.3910  0.5983
  137WAT     H1  622   1.694   3.859   0.308  0.4305 -1.1167  2.0773
  137WAT     H2  623   1.745   3.762   0.204  0.1641  0.6415  0.2524
  138WAT      O  624   2.540   5.028   0.983 -0.0497 -0.8334  0.2274
  138WAT     H1  625   2.487   5.046   0.905  1.2106 -0.0597 -0.4834
  138WAT     H2  626   2.476   5.005   1.050 -1.3977  1.1161 -0.2975
  139WAT      O  627   4.066   0.225   2.105 -0.0934  0.6610  0.0399
  139WAT     H1  628   4.138   0.250   2.046 -1.1580  1.1085 -1.1322
  139WAT     H2  629   4.065   0.294   2.171 -0.5213  1.6226 -0.9370
  140WAT      O  630   2.140   3.290   0.161  0.7511 -0.4854  0.1056
  140WAT     H1  631   2.153   3.320   0.071  0.1926 -0.5650 -0.0007
  140WAT     H2  632   2.222   3.313   0.205  1.1582 -0.7493 -0.5016
  141WAT      O  633   3.272   5.136   1.394  0.4018 -0.1609  0.0075
  141WAT     H1  634   3.327   5.207   1.362  0.1338 -0.3812 -1.0061
  141WAT     H2  635   3.312   5.057   1.359 -0.4976 -0.3286 -0.7101
  142WAT      O  636   0.070   0.732   0.040 -0.0367 -0.2148 -0.0073
  142WAT     H1  637   0.097   0.678   0.115  0.4585 -0.1261 -0.1182
  142WAT     H2  638   0.127   0.809   0.044  0.0965 -0.2822 -0.5611
  143WAT      O  639   0.052   0.288   0.048 -0.1491 -0.2705  0.1638
  143WAT     H1  640   0.054   0.371   0.001  0.1177  0.0843  0.8029
  143WAT     H2  641   0.142   0.274   0.076  0.1616 -1.5959 -1.3506
  144WAT      O  642   1.936   0.950   3.770 -0.1695  1.0335  0.4587
  144WAT     H1  643   1.844   0.937   3.745 -0.6550  0.1243  2.4337
  144WAT     H2  644   1.984   0.884   3.720 -0.9896 -0.2837  1.3455
  145WAT      O  645   0.242   3.579   0.573  0.6349  0.0585 -0.5709
  145WAT     H1  646   0.319   3.635   0.563 -0.5348  1.7771 -0.3942
  145WAT     H2  647   0.189   3.598   0.496 -0.7655  0.8179  0.5443
  146WAT      O  648   3.229   2.623   2.234  0.5916 -0.2054  0.4539
  146WAT     H1  649   3.178   2.634   2.314  1.6964  1.2022  1.0108
  146WAT     H2  650   3.220   2.707   2.188  0.3353 -0.8394 -0.6910
  147WAT      O  651   0.746   1.285   1.525  0.0116  0.0318  0.5024
  147WAT     H1  652   0.818   1.314   1.581 -1.6866  1.3829  2.1210
  147WAT     H2  653   0.750   1.189   1.528  1.4709  0.0745  0.8431
  148WAT      O  654   0.191   3.820   1.226 -0.2796  0.1883  0.7905
  148WAT     H1  655   0.096   3.805   1.229 -0.4517  0.9653 -0.0575
  148WAT     H2  656   0.199   3.914   1.208  0.6710  0.4306  2.3342
  149WAT      O  657   2.137   3.152   4.324 -0.3288 -0.5135  0.0365
  149WAT     H1  658   2.178   3.108   4.398  2.4191 -0.5473 -1.3955
  149WAT     H2  659   2.185   3.234   4.316 -0.5911 -0.5049 -1.7022
  150WAT      O  660   3.532   0.948   1.544  0.5378 -0.3460  0.3779
  150WAT     H1  661   3.541   0.911   1.456  1.0380 -2.0196  1.0815
  150WAT     H2  662   3.614   0.995   1.559 -0.4380  1.8306 -0.8410
  151WAT      O  663   0.872   1.834   3.850 -0.3065 -0.6664 -0.4353
  151WAT     H1  664   0.892   1.831   3.944 -0.4990 -0.8824 -0.4009
  151WAT     H2  665   0.937   1.895   3.814 -0.0831 -0.7616 -0.2002
  152WAT      O  666   0.909   0.437   2.077  0.2144  0.0560 -0.1439
  152WAT     H1  667   0.836   0.391   2.119  0.4176  0.8229  1.1155
  152WAT     H2  668   0.915   0.399   1.989 -0.8656 -0.9177  0.1857
  153WAT      O  669   3.773   0.718   0.236 -0.5660 -0.0345 -0.2998
  153WAT     H1  670   3.759   0.646   0.298  0.7981 -1.3166 -1.4115
  153WAT     H2  671   3.779   0.675   0.151  1.8875  1.1881 -0.8148
  154WAT      O  672   3.932   2.015   5.248  0.5785 -0.0656  0.3222
  154WAT     H1  673   3.888   1.945   5.200 -0.9570  0.6925  0.5785
  154WAT     H2  674   3.863   2.077   5.270  2.1259  2.4048 -1.3167
  155WAT      O  675   4.492   0.912   4.983  0.6185  0.3534 -0.0916
  155WAT     H1  676   4.539   0.933   4.902 -0.2117 -0.9279 -0.9462
  155WAT     H2  677   4.448   0.829   4.964  0.2727  0.1073  1.6286
  156WAT      O  678   1.699   1.792   0.993  0.0749  0.0937  0.0161
  156WAT     H1  679   1.621   1.781   1.047  0.7466 -1.9314  0.6634
  156WAT     H2  680   1.670   1.772   0.904  0.0734 -1.8331  0.4218
  157WAT      O  681   2.415   4.280   4.691 -0.0336  0.0052 -0.2530
  157WAT     H1  682   2.372   4.204   4.653  0.6644 -0.1137 -0.8079
  157WAT     H2  683   2.505   4.253   4.705 -0.5548 -0.5007  2.9802
  158WAT      O  684   1.713   2.890   0.849 -0.6817  0.1580  0.4713
  158WAT     H1  685   1.720   2.951   0.777  0.3303 -0.7813 -0.2577
  158WAT     H2  686   1.793   2.838   0.845 -1.5586 -1.3000  0.9756
  159WAT      O  687   2.832   2.952   1.126 -0.1493 -0.3618 -0.2315
  159WAT     H1  688   2.897   2.923   1.191 -0.2521 -1.1635 -0.4744
  159WAT     H2  689   2.782   2.873   1.106 -1.4602  0.3243  0.2254
  160WAT      O  690   2.556   2.285   4.216 -0.0403  0.3722 -0.0279
  160WAT     H1  691   2.601   2.291   4.301  0.6137 -0.2825 -0.3261
  160WAT     H2  692   2.525   2.194   4.212  0.3938  0.2493 -0.7186
  161WAT      O  693   2.847   0.359   5.150 -0.8355 -0.6731  0.1119
  161WAT     H1  694   2.771   0.306   5.174 -2.0022  1.0064  0.3743
  161WAT     H2  695   2.917   0.329   5.209 -1.6270 -1.4794  0.6713
  162WAT      O  696   1.027   0.011   1.124  0.1576  0.1208 -0.1295
  162WAT     H1  697   0.999  -0.073   1.088 -1.6672  0.5520  0.1677
  162WAT     H2  698   0.990   0.012   1.212  1.7154  0.4931  0.5420
  163WAT      O  699   1.016   4.022   1.190 -0.1034  0.4174  0.1500
  163WAT     H1  700   0.997   4.111   1.219  0.1565  0.6454 -0.3610
  163WAT     H2  701   1.083   3.990   1.250  0.1259  0.7300  0.0621
  164WAT      O  702   2.772   4.852   3.227  0.3293  0.0953 -0.2579
  164WAT     H1  703   2.688   4.851   3.271  0.8184 -0.5075  0.7020
  164WAT     H2  704   2.751   4.844   3.134 -0.6086 -4.6360  0.0936
  165WAT      O  705   4.445   0.208   3.010  0.4208 -0.2133 -0.0156
  165WAT     H1  706   4.422   0.213   3.103  0.3425 -0.2884 -0.0308
  165WAT     H2  707   4.537   0.231   3.007  0.5040 -0.5197  0.1194
  166WAT      O  708   3.660   3.242   4.167 -0.9903  0.0948  0.3907
  166WAT     H1  709   3.720   3.169   4.157 -0.5288  0.4093  0.8754
  166WAT     H2  710   3.716   3.320   4.168 -1.4976  0.4882 -0.4741
  167WAT      O  711   0.412   3.339   4.668  0.4519  0.5257 -0.4583
  167WAT     H1  712   0.331   3.387   4.658  1.9363  2.9739 -1.5504
  167WAT     H2  713   0.430   3.341   4.762 -0.9849 -0.5830 -0.1250
  168WAT      O  714   2.149   1.340   3.854  0.4614 -0.3161 -0.1759
  168WAT     H1  715   2.160   1.249   3.826  1.1717 -0.1354 -0.5081
  168WAT     H2  716   2.224   1.386   3.817  0.2006  0.3776  0.1319
  169WAT      O  717   0.097   1.885   3.120  0.3758 -0.1615  0.1430
  169WAT     H1  718   0.020   1.901   3.065  0.6095 -1.0117 -0.4409
  169WAT     H2  719   0.171   1.902   3.062  0.6550  1.1965  0.8578
  170WAT      O  720   3.810   1.410   1.575 -0.4467 -0.4697  0.5359
  170WAT     H1  721   3.812   1.473   1.648  1.2936 -2.0817  1.9886
  170WAT     H2  722   3.720   1.378   1.575 -0.3387 -0.9442  2.5184
  171WAT      O  723   3.362   2.920   1.200 -0.5408 -0.0533  0.4761
  171WAT     H1  724   3.349   2.922   1.105  1.3992 -0.8290  0.1499
  171WAT     H2  725   3.330   3.006   1.230 -0.4686  0.5089 -0.9786
  172WAT      O  726   4.058   4.352   3.023  0.1373  0.2704  0.2624
  172WAT     H1  727   4.127   4.308   2.972 -0.3187 -0.5782  0.3558
  172WAT     H2  728   3.977   4.320   2.985 -0.2550  2.3416 -0.7908
  173WAT      O  729   2.249   0.602   0.590 -0.0365 -0.2827 -0.1488
  173WAT     H1  730   2.259   0.679   0.534  0.4137 -0.2594 -0.0422
  173WAT     H2  731   2.226   0.638   0.676 -1.5641 -0.3605 -0.5069
  174WAT      O  732   3.961   0.353   4.159  0.3276  0.5287  0.6122
  174WAT     H1  733   3.880   0.324   4.200  0.5512  0.3793  0.9451
  174WAT     H2  734   3.998   0.417   4.220  0.7604  0.1577  0.7505
  175WAT      O  735   4.260   0.386   3.725  0.7644 -0.1729  0.3561
  175WAT     H1  736   4.337   0.442   3.717  0.4027  0.2034 -0.5808
  175WAT     H2  737   4.277   0.312   3.667  0.1402  0.2456 -0.3751
  176WAT      O  738   4.217   4.226   1.413 -0.5670  0.5569 -0.1049
  176WAT     H1  739   4.191   4.254   1.326  1.3439  1.2069 -0.5034
  176WAT     H2  740   4.227   4.307   1.463 -0.9943  0.2267  0.5313
  177WAT      O  741   0.231   1.780   2.753  0.6318 -0.1597  0.7375
  177WAT     H1  742   0.263   1.834   2.825 -0.7292  1.5074  0.1620
  177WAT     H2  743   0.205   1.697   2.794 -0.4971  0.9000  2.2417
  178WAT      O  744   3.871   2.184   4.053  0.4417 -0.1686  0.4781
  178WAT     H1  745   3.966   2.184   4.064  0.4434  0.3595  0.5106
  178WAT     H2  746   3.856   2.223   3.967  0.2335  0.3724  0.7508
  179WAT      O  747   1.524   2.613   5.264 -0.0194 -0.2747  0.2306
  179WAT     H1  748   1.498   2.608   5.356  1.5255 -0.3157  0.7014
  179WAT     H2  749   1.579   2.535   5.251 -1.1398 -0.9001 -1.0685
  180WAT      O  750   3.735   0.586   3.685  0.5160 -0.5108  0.3476
  180WAT     H1  751   3.784   0.616   3.762  1.8033 -1.0853 -0.2183
  180WAT     H2  752   3.707   0.497   3.707 -3.1437  0.8554  1.9520
  181WAT      O  753   2.254   1.534   2.311 -0.2541  0.3967 -0.0206
  181WAT     H1  754   2.313   1.590   2.260 -0.2137  0.6924  0.3565
  181WAT     H2  755   2.167   1.564   2.287 -0.2301  0.7069  0.2817
  182WAT      O  756   0.574   2.682   4.206  0.5492 -0.7742 -0.0675
  182WAT     H1  757   0.629   2.751   4.168  0.0887  0.1716  0.9159
  182WAT     H2  758   0.619   2.656   4.286 -0.5147  0.2070  0.8969
  183WAT      O  759   4.127   3.387   5.290 -0.0052 -0.0816  0.2316
  183WAT     H1  760   4.060   3.323   5.314 -0.4145 -0.6767 -2.2023
  183WAT     H2  761   4.082   3.472   5.296 -0.2706 -0.2667  0.8906
  184WAT      O  762   0.005   1.897   0.404 -0.2060  0.4196 -0.1118
  184WAT     H1  763  -0.041   1.926   0.483  1.2298  0.3641  0.7853
  184WAT     H2  764   0.093   1.874   0.435  0.0935 -0.5138 -1.5817
  185WAT      O  765   3.707   0.318   3.781  0.1466 -0.4835 -0.0375
  185WAT     H1  766   3.673   0.323   3.870  0.1681 -1.0744  0.0044
  185WAT     H2  767   3.799   0.292   3.792  0.8733  1.8221 -0.1023
  186WAT      O  768   4.493   2.019   0.051 -0.5333 -0.2816 -0.9725
  186WAT     H1  769   4.530   2.048  -0.033  0.3996 -0.7078 -0.7163
  186WAT     H2  770   4.527   1.930   0.063  0.2854  0.1880  0.3986
  187WAT      O  771   3.263   0.933   3.594 -0.0350 -0.5466  0.2390
  187WAT     H1  772   3.233   0.846   3.569 -0.6546  0.1177 -1.4757
  187WAT     H2  773   3.254   0.986   3.514  1.4415  0.8076  0.9044
  188WAT      O  774   3.799   0.364   2.387  0.8391 -0.1577  0.1053
  188WAT     H1  775   3.725   0.320   2.427  1.3795 -0.5520  0.6893
  188WAT     H2  776   3.832   0.423   2.455  0.0951  1.2201 -0.6819
  189WAT      O  777   0.278   3.538   2.966  0.6944 -0.3773  0.4151
  189WAT     H1  778   0.335   3.613   2.981  0.5398 -0.7587  3.5173
  189WAT     H2  779   0.194   3.576   2.941  1.4713  0.2785 -1.3779
  190WAT      O  780   4.045   4.891   0.872  0.5426 -0.3640 -0.4166
  190WAT     H1  781   4.115   4.827   0.857 -0.6412 -2.3606  1.8470
  190WAT     H2  782   4.086   4.957   0.928  1.2987 -0.0777 -1.2807
  191WAT      O  783   4.291   4.731   0.887 -0.4277 -0.5468  0.3115
  191WAT     H1  784   4.383   4.743   0.862 -0.6936 -1.2587 -1.0539
  191WAT     H2  785   4.283   4.781   0.969  0.2942  2.5196 -1.3230
  192WAT      O  786   0.071   4.674   2.190 -0.3819  0.0914 -0.3655
  192WAT     H1  787   0.122   4.741   2.236 -3.0268  1.2827  1.0309
  192WAT     H2  788   0.054   4.712   2.104  0.6867 -0.1378 -0.6899
  193WAT      O  789   0.120   0.134   4.622  0.1994 -0.1426  0.2509
  193WAT     H1  790   0.058   0.062   4.614 -1.7960  1.5604 -0.6316
  193WAT     H2  791   0.072   0.201   4.670  2.4193  0.2241  2.1821
  194WAT      O  792   3.785   1.263   3.314 -0.2168 -0.4723 -0.2365
  194WAT     H1  793   3.700   1.287   3.350 -1.0109 -1.1590 -1.5347
  194WAT     H2  794   3.772   1.174   3.279  1.4442 -1.1817  0.7966
  195WAT      O  795   0.838   2.028   1.947  0.0904  0.0422 -0.3510
  195WAT     H1  796   0.822   2.000   1.857  0.9906  0.4221 -0.6396
  195WAT     H2  797   0.757   2.007   1.993 -0.9636  1.2222 -1.5754
  196WAT      O  798   0.279   3.174   4.305 -0.3991  0.1230 -0.0434
  196WAT     H1  799   0.372   3.197   4.302 -0.0937 -1.1087 -1.3789
  196WAT     H2  800   0.234   3.258   4.307  0.7322  0.7393  0.8337
  197WAT      O  801   1.470   2.987   3.948 -0.3879 -0.2139 -0.3483
  197WAT     H1  802   1.411   3.059   3.972 -0.5612 -0.7378  0.9282
  197WAT     H2  803   1.452   2.920   4.014  0.9283 -0.7837 -0.5434
  198WAT      O  804   2.979   0.682   2.430 -0.4851 -0.5104 -0.0392
  198WAT     H1  805   3.055   0.685   2.487  0.7626  0.1652 -1.6469
  198WAT     H2  806   2.979   0.767   2.385 -1.6937 -0.8329 -0.7080
  199WAT      O  807   0.976   2.781   4.024 -0.1370  0.1944 -0.5019
  199WAT     H1  808   0.905   2.839   3.998 -0.3161  0.6312  0.9164
  199WAT     H2  809   0.959   2.700   3.975 -1.2639  0.4989 -0.6515
  200WAT      O  810   1.941   2.446   5.176 -0.4763  0.3434  0.3350
  200WAT     H1  811   1.846   2.451   5.175 -0.6032 -1.4952  0.0660
  200WAT     H2  812   1.970   2.537   5.180 -2.2249  1.0497 -1.3441
  201WAT      O  813   0.722   1.536   1.787 -0.2076  0.3813  0.1194
  201WAT     H1  814   0.649   1.575   1.739  1.2631  2.1926 -0.7499
  201WAT     H2  815   0.703   1.442   1.786 -2.6718  0.7976  0.2217
  202WAT      O  816   2.613   4.910   5.065 -0.3263  0.1298 -0.1602
  202WAT     H1  817   2.698   4.874   5.041 -0.3024 -0.2477  0.4606
  202WAT     H2  818   2.550   4.860   5.013 -0.3153 -1.0296  0.9065
  203WAT      O  819   3.872   5.005   2.707  0.0302  0.4725 -0.4481
  203WAT     H1  820   3.932   5.037   2.639  1.7913 -0.8486  0.4021
  203WAT     H2  821   3.921   5.013   2.788 -1.9815  1.8473  0.7030
  204WAT      O  822   0.246   1.214   1.899 -0.0825 -0.3649 -0.6239
  204WAT     H1  823   0.209   1.160   1.968 -0.6826 -1.9451 -2.1061
  204WAT     H2  824   0.203   1.299   1.908  0.0705 -0.4441  1.0846
  205WAT      O  825   3.614   0.230   4.713  0.1066 -0.2607 -0.6571
  205WAT     H1  826   3.527   0.257   4.685 -0.5043 -2.4215 -0.9912
  205WAT     H2  827   3.656   0.195   4.634  0.7105 -0.6197 -0.1912
  206WAT      O  828   0.627   2.800   2.236 -0.4977 -0.0303  0.2462
  206WAT     H1  829   0.673   2.775   2.316  1.4278 -1.2507 -1.1746
  206WAT     H2  830   0.653   2.891   2.221  0.3817 -0.2909  0.1771
  207WAT      O  831   2.632   4.704   1.324  0.0389 -0.0298 -0.2448
  207WAT     H1  832   2.565   4.649   1.365 -0.3614 -0.4071 -1.3557
  207WAT     H2  833   2.711   4.689   1.375 -0.3923 -0.6352  0.2536
  208WAT      O  834   2.893   0.199   3.437 -0.4153  0.2699 -0.2040
  208WAT     H1  835   2.808   0.227   3.402 -0.5076  1.2285  0.7309
  208WAT     H2  836   2.911   0.116   3.393 -1.4704  0.4321 -0.9873
  209WAT      O  837   4.068   2.702   1.435 -0.2819  0.4306  0.0035
  209WAT     H1  838   4.088   2.778   1.381  0.8124 -0.3698 -0.7656
  209WAT     H2  839   3.973   2.690   1.426 -0.3510  1.2611 -0.4363
  210WAT      O  840   1.029   4.496   2.590  0.3708 -0.3178  0.0481
  210WAT     H1  841   1.019   4.557   2.516 -1.4398  0.6016  0.9744
  210WAT     H2  842   1.044   4.552   2.666  0.8097 -1.1647  0.6020
  211WAT      O  843   0.931   0.667   2.508  0.0594  0.2701  0.6003
  211WAT     H1  844   0.908   0.603   2.576  0.1924 -0.3608  0.0540
  211WAT     H2  845   1.022   0.645   2.485 -0.2742 -0.0762 -0.4016
  212WAT      O  846   1.864   3.538   2.228 -0.5609  0.1105  0.1680
  212WAT     H1  847   1.801   3.563   2.161  0.5329  0.6732 -0.6910
  212WAT     H2  848   1.831   3.578   2.308 -1.3586  0.2762 -0.2313
  213WAT      O  849   0.244   2.272   4.749 -0.1906  1.0185  0.1120
  213WAT     H1  850   0.161   2.229   4.770 -0.8416  1.7943 -0.7549
  213WAT     H2  851   0.311   2.209   4.772 -1.0174  0.4878  1.1115
  214WAT      O  852   1.523   0.191   2.325 -0.0850  0.4973  0.1900
  214WAT     H1  853   1.571   0.262   2.367 -0.8768  0.0403  1.9607
  214WAT     H2  854   1.587   0.120   2.315 -0.3065 -0.1160  2.5408
  215WAT      O  855   3.204   4.277   0.169 -0.6442 -0.2243 -0.8238
  215WAT     H1  856   3.115   4.269   0.134 -0.5355 -1.8809 -0.7975
  215WAT     H2  857   3.260   4.275   0.091 -0.3457 -4.7382 -0.8015
  216WAT      O  858   2.111   1.022   0.908 -0.0686  0.0709 -0.2000
  216WAT     H1  859   2.180   0.959   0.887 -0.9205 -0.4829 -1.4263
  216WAT     H2  860   2.062   1.033   0.827 -0.5580  1.5571  0.2671
  217WAT      O  861   2.937   4.303   3.687 -0.1990 -0.2827 -0.3862
  217WAT     H1  862   2.999   4.352   3.633  0.5846 -1.1322 -0.2843
  217WAT     H2  863   2.978   4.300   3.774 -0.6772 -0.3384 -0.1571
  218WAT      O  864   3.667   0.104   5.097  0.2658 -0.3700  0.0299
  218WAT     H1  865   3.656   0.020   5.140 -0.1531 -0.9638 -1.1920
  218WAT     H2  866   3.755   0.133   5.123  0.5650 -1.3519  0.1580
  219WAT      O  867   0.734   1.231   3.044 -0.4797 -0.1669 -0.0970
  219WAT     H1  868   0.720   1.176   3.120  1.6055  0.9091  1.1518
  219WAT     H2  869   0.688   1.313   3.064  0.4338  0.2760  0.2135
  220WAT      O  870   1.182   0.686   1.082  0.4950  0.4660  0.0579
  220WAT     H1  871   1.120   0.630   1.034 -0.1061  1.9987 -1.0116
  220WAT     H2  872   1.257   0.693   1.023  0.5489  0.8269  0.1729
  221WAT      O  873   0.646   4.206   1.934  0.4157 -0.0611 -0.1455
  221WAT     H1  874   0.561   4.211   1.978  0.1589 -0.0932 -0.6351
  221WAT     H2  875   0.697   4.143   1.986 -0.2443 -0.8953 -0.4829
  222WAT      O  876   1.846   0.206   0.949 -0.2671 -0.7186 -0.0610
  222WAT     H1  877   1.814   0.122   0.982  0.5998 -1.2477 -0.5133
  222WAT     H2  878   1.776   0.268   0.968 -0.7474 -1.4604  0.6660
  223WAT      O  879   0.532   4.318   0.354  0.7891 -0.3137  0.3565
  223WAT     H1  880   0.570   4.362   0.430  0.8996 -0.2735  0.2782
  223WAT     H2  881   0.466   4.379   0.322  1.2466 -0.0099 -0.0160
  224WAT      O  882   3.874   0.067   2.919 -0.3969 -0.3766  0.1746
  224WAT     H1  883   3.894   0.146   2.969 -0.5068 -0.0886 -0.2398
  224WAT     H2  884   3.950   0.010   2.934 -0.2588 -0.1450  0.3650
  225WAT      O  885   2.028   3.961   2.653 -0.1062 -0.9663 -0.0438
  225WAT     H1  886   2.107   3.948   2.600  1.1159 -0.3715  1.5629
  225WAT     H2  887   2.017   3.879   2.700 -0.9865 -1.3639 -0.9001
  226WAT      O  888   1.759   3.030   0.621  0.1431 -0.7931 -0.3668
  226WAT     H1  889   1.746   2.958   0.559  0.3512  1.0480 -2.7176
  226WAT     H2  890   1.733   3.109   0.572 -0.2239  0.7550  2.1142
  227WAT      O  891   3.555   2.302   2.654 -0.1090 -0.2916 -0.6507
  227WAT     H1  892   3.578   2.286   2.746  1.1950 -1.3464 -1.1215
  227WAT     H2  893   3.639   2.314   2.610 -0.7440  0.6838 -1.6384
  228WAT      O  894   1.623   3.138   4.731 -0.2055 -0.1950  0.3711
  228WAT     H1  895   1.626   3.198   4.657  0.3884 -1.5030 -0.6964
  228WAT     H2  896   1.657   3.190   4.805  0.7031  0.6623 -0.6167
  229WAT      O  897   0.991   1.910   4.321  0.1446 -0.3055 -0.7075
  229WAT     H1  898   0.990   1.842   4.389 -0.8180 -0.2102 -0.6083
  229WAT     H2  899   0.961   1.989   4.367  1.2086  0.1845 -0.8309
  230WAT      O  900   1.794   3.961   4.377 -0.1757 -0.2283 -0.0629
  230WAT     H1  901   1.739   3.959   4.456 -0.0220  0.4057  0.0693
  230WAT     H2  902   1.863   3.897   4.394 -0.8085 -0.9611 -0.1871
  231WAT      O  903   1.911   1.530   2.671 -0.1053 -0.1380  0.1672
  231WAT     H1  904   1.874   1.574   2.594 -0.5829  1.3453  1.2088
  231WAT     H2  905   1.979   1.473   2.635 -0.5279  0.2839 -1.3823
  232WAT      O  906   3.020   2.268   3.247 -0.2058  0.1554 -0.6091
  232WAT     H1  907   3.107   2.265   3.207  0.1137  0.4880  0.0472
  232WAT     H2  908   2.963   2.225   3.183  0.6346 -1.0779 -0.5505
  233WAT      O  909   0.808   1.574   2.683  0.1209 -0.2263 -0.3399
  233WAT     H1  910   0.781   1.555   2.593  1.9907  2.7466 -1.6791
  233WAT     H2  911   0.875   1.508   2.703  0.7468 -0.0362 -1.7181
  234WAT      O  912   4.483   4.302   5.131 -0.4731 -0.0179 -0.4570
  234WAT     H1  913   4.507   4.263   5.215 -1.1053 -1.5730 -0.9635
  234WAT     H2  914   4.512   4.393   5.139  1.4145 -0.6307  0.6442
  235WAT      O  915   3.761   2.077   0.958 -0.0668  0.2187 -0.0746
  235WAT     H1  916   3.839   2.021   0.958 -0.1111  0.1417  1.0043
  235WAT     H2  917   3.795   2.164   0.938 -0.2172 -0.4015 -3.6378
  236WAT      O  918   0.031   2.601   2.012 -0.8949  0.3665 -0.0192
  236WAT     H1  919  -0.055   2.604   2.055 -1.1424  1.5775 -0.5398
  236WAT     H2  920   0.018   2.651   1.932  0.6432  1.7560  0.5437
  237WAT      O  921   2.774   0.722   2.766 -0.4160  0.1206  0.3837
  237WAT     H1  922   2.755   0.706   2.674 -0.3026 -2.6716  0.7593
  237WAT     H2  923   2.706   0.675   2.813  1.4616 -1.4612  1.6847
  238WAT      O  924   3.243   0.786   4.049  0.1879  0.3280 -0.6971
  238WAT     H1  925   3.258   0.858   3.988  1.7143  0.4767 -0.1687
  238WAT     H2  926   3.263   0.707   3.999  1.8533  0.4723 -0.2937
  239WAT      O  927   1.708   3.327   0.850  0.5369 -0.3263  0.3478
  239WAT     H1  928   1.700   3.403   0.909  2.2029 -1.1806  1.7413
  239WAT     H2  929   1.666   3.256   0.898 -0.6072 -0.4272 -0.7608
  240WAT      O  930   2.545   1.794   1.136 -0.3682  0.3689  0.0539
  240WAT     H1  931   2.499   1.865   1.091  0.2270  0.9328  0.3144
  240WAT     H2  932   2.479   1.753   1.191 -1.2357 -0.6481 -1.6776
  241WAT      O  933   2.262   0.407   0.385  0.1299  0.2562  0.6694
  241WAT     H1  934   2.244   0.466   0.459 -0.3594  2.3308 -1.0156
  241WAT     H2  935   2.255   0.463   0.308 -0.2334 -2.0231 -1.0365
  242WAT      O  936   3.826   2.283   2.613  0.0527 -0.2955 -0.1338
  242WAT     H1  937   3.902   2.270   2.556 -0.0426 -0.3419 -0.2509
  242WAT     H2  938   3.854   2.350   2.676  0.2429 -0.4264 -0.0799
  243WAT      O  939   4.298   4.879   1.112  0.0106  0.4654  0.3958
  243WAT     H1  940   4.245   4.955   1.136 -1.2604 -0.4366  0.5530
  243WAT     H2  941   4.337   4.851   1.195 -0.2639  0.4000  0.5052
  244WAT      O  942   1.144   0.874   1.255  0.4313 -0.1758 -0.3461
  244WAT     H1  943   1.224   0.926   1.254  0.0785  0.3694 -0.5308
  244WAT     H2  944   1.160   0.803   1.193  1.8012 -1.6644  1.5869
  245WAT      O  945   4.238   3.518   1.518  0.0073 -0.7805  0.2089
  245WAT     H1  946   4.305   3.486   1.578  1.9466  0.9690 -0.8722
  245WAT     H2  947   4.268   3.488   1.432 -1.3304 -1.0613 -0.1790
  246WAT      O  948   0.335   1.943   5.204 -0.2115 -0.1351 -0.2258
  246WAT     H1  949   0.398   1.871   5.201 -0.3918 -0.2809 -0.7027
  246WAT     H2  950   0.378   2.011   5.257 -0.2907 -0.8158  0.7223
  247WAT      O  951   1.717   3.980   1.821 -0.0983  0.2283  0.0631
  247WAT     H1  952   1.642   3.920   1.822  0.5987 -0.6616  0.7437
  247WAT     H2  953   1.790   3.926   1.790 -0.0077  1.4381 -1.9923
  248WAT      O  954   2.166   4.881   1.874 -0.0322  0.2523  0.4944
  248WAT     H1  955   2.222   4.949   1.836 -2.0956  2.1860  0.7786
  248WAT     H2  956   2.134   4.832   1.798  0.6521  0.2002  0.2230
  249WAT      O  957   1.601   1.768   0.169  0.3365 -0.0533  0.1223
  249WAT     H1  958   1.597   1.863   0.181  0.5280  0.1945 -1.5235
  249WAT     H2  959   1.681   1.753   0.120  0.4294 -1.1084  0.5540
  250WAT      O  960   3.737   2.527   2.133 -0.4073  0.1152 -0.4553
  250WAT     H1  961   3.685   2.494   2.059  0.2667 -0.5665 -0.6342
  250WAT     H2  962   3.825   2.492   2.118 -0.0470  0.7171  0.1962
  251WAT      O  963   1.566   2.493   4.871  0.1293 -0.7253  0.2971
  251WAT     H1  964   1.527   2.430   4.811  0.5168 -0.9707  0.2981
  251WAT     H2  965   1.559   2.577   4.826  1.2935 -1.0532 -0.5251
  252WAT      O  966   3.704   3.568   2.001  0.1129  0.0304  0.3224
  252WAT     H1  967   3.781   3.553   1.946 -0.6524  0.3515 -0.8903
  252WAT     H2  968   3.719   3.655   2.039 -0.5939  1.0568 -1.6184
  253WAT      O  969   3.388   5.111   3.541 -0.1932  0.2317  0.1033
  253WAT     H1  970   3.311   5.073   3.499 -0.8654  0.9762  0.6398
  253WAT     H2  971   3.356   5.191   3.583  0.6572  0.0347  1.1786
  254WAT      O  972   1.869   4.168   2.616 -0.4497  0.9135  0.4300
  254WAT     H1  973   1.930   4.243   2.622 -0.2148  0.7522  0.0917
  254WAT     H2  974   1.926   4.092   2.612 -0.5396  0.9030 -2.7902
  255WAT      O  975   0.686   0.687   3.287  0.3543 -0.0543  0.5210
  255WAT     H1  976   0.719   0.662   3.200 -1.0847 -0.8530  0.1626
  255WAT     H2  977   0.710   0.613   3.343 -3.1408 -2.1259 -0.3564
  256WAT      O  978   1.803   4.124   0.636 -0.0522  0.3170  0.1127
  256WAT     H1  979   1.723   4.150   0.592  0.0440  1.7250  0.7305
  256WAT     H2  980   1.806   4.177   0.716  0.9280 -0.5180  0.6744
  257WAT      O  981   3.272   0.924   0.922 -0.6805  0.0195  0.2632
  257WAT     H1  982   3.286   0.970   0.839  0.0891  0.0533  0.4047
  257WAT     H2  983   3.200   0.971   0.963 -2.3706 -1.1338 -1.2014
  258WAT      O  984   2.056   4.370   2.563 -0.1981 -0.2906  0.2539
  258WAT     H1  985   2.070   4.414   2.647 -2.1598 -2.0976  1.6302
  258WAT     H2  986   1.975   4.409   2.529  1.9428  2.4608 -2.3649
  259WAT      O  987   4.234   4.301   5.024 -0.6731 -0.1578 -0.2188
  259WAT     H1  988   4.320   4.282   5.063 -0.9839  0.7388  0.9283
  259WAT     H2  989   4.244   4.388   4.985 -0.3113 -1.0926 -2.3965
  260WAT      O  990   3.650   1.235   0.141  0.1512 -0.0732 -0.0588
  260WAT     H1  991   3.733   1.238   0.092 -1.2956  0.5703 -2.6428
  260WAT     H2  992   3.638   1.142   0.162  1.1952 -0.2653 -0.2463
  261WAT      O  993   0.760   1.061   0.088  0.2253  0.4188 -0.2993
  261WAT     H1  994   0.834   1.031   0.035 -0.2789 -0.4853 -0.5132
  261WAT     H2  995   0.728   0.983   0.132  0.5025  1.1179  1.2129
  262WAT      O  996   0.284   3.145   1.470 -0.0302  0.2907  0.1074
  262WAT     H1  997   0.366   3.102   1.447 -0.5689 -1.2257  0.9040
  262WAT     H2  998   0.258   3.105   1.553 -1.1395  1.3689  0.3114
  263WAT      O  999   2.763   1.793   0.102 -0.2750 -0.1021  0.0425
  263WAT     H1 1000   2.795   1.833   0.183  0.7837  0.6233 -0.7017
  263WAT     H2 1001   2.706   1.722   0.131 -0.5887  0.6717  1.4177
  264WAT      O 1002   4.120   2.766   4.379  0.1378  0.2152 -0.0555
  264WAT     H1 1003   4.208   2.800   4.394 -0.1892  0.5396  1.2996
  264WAT     H2 1004   4.133   2.687   4.327  1.0048  1.8114 -2.4485
  265WAT      O 1005   0.381   2.768   1.804  0.0081 -0.4737  0.2704
  265WAT     H1 1006   0.343   2.766   1.891 -1.0505  1.1414 -0.1221
  265WAT     H2 1007   0.454   2.705   1.808 -0.7155 -1.2508  1.9581
  266WAT      O 1008   1.078   0.905   3.010 -0.0339 -0.6632 -0.2930
  266WAT     H1 1009   0.983   0.894   3.006 -0.0305 -0.7022 -0.2620
  266WAT     H2 1010   1.114   0.823   2.976 -0.0073 -0.8707  0.2190
  267WAT      O 1011   2.553   3.357   1.959 -0.3135 -0.0424  0.7960
  267WAT     H1 1012   2.532   3.441   2.000 -1.1038 -0.3728  1.0793
  267WAT     H2 1013   2.503   3.357   1.877  0.8452  0.3890  0.0631
  268WAT      O 1014   2.676   1.441   4.804 -0.1816  0.2067  0.7519
  268WAT     H1 1015   2.746   1.404   4.857  0.7589 -0.8470 -1.0965
  268WAT     H2 1016   2.626   1.365   4.774 -0.7739  0.7663  0.2702
  269WAT      O 1017   2.438   4.233   1.499 -0.7150 -0.0078 -0.2595
  269WAT     H1 1018   2.425   4.223   1.404 -2.1322 -3.4305  0.1493
  269WAT     H2 1019   2.516   4.181   1.518  0.5377  1.9894  0.3152
  270WAT      O 1020   4.106   4.608   2.926 -0.6179  0.1773 -0.1412
  270WAT     H1 1021   4.067   4.527   2.960 -0.5013  0.1892  0.0206
  270WAT     H2 1022   4.032   4.660   2.896 -0.7297  0.1989  0.1648
  271WAT      O 1023   1.776   2.837   2.385  0.1144 -0.0669 -0.7794
  271WAT     H1 1024   1.775   2.867   2.476 -1.4668  0.9309 -1.0864
  271WAT     H2 1025   1.685   2.814   2.367  0.6954 -1.8547 -1.6329
  272WAT      O 1026   1.908   0.694   0.350 -0.0063 -0.5673  0.3082
  272WAT     H1 1027   1.813   0.695   0.367 -0.1323 -0.1071 -0.3628
  272WAT     H2 1028   1.919   0.621   0.289  0.2135 -1.2172  1.1142
  273WAT      O 1029   0.488   3.213   3.256 -0.4477 -0.5258  0.1814
  273WAT     H1 1030   0.412   3.231   3.311  0.0347  1.0255  0.3664
  273WAT     H2 1031   0.460   3.233   3.167 -0.2236  0.2169  0.2695
  274WAT      O 1032   4.313   4.380   0.222 -0.4874 -1.0052 -0.3640
  274WAT     H1 1033   4.272   4.381   0.309 -0.0102 -0.7582 -0.1365
  274WAT     H2 1034   4.284   4.462   0.181 -2.6234 -2.1800 -1.3666
  275WAT      O 1035   1.168   3.129   0.798 -0.2127 -0.2265 -0.3118
  275WAT     H1 1036   1.238   3.082   0.754 -0.5203 -0.6674 -0.3320
  275WAT     H2 1037   1.186   3.118   0.891  0.2741  0.4608 -0.3177
  276WAT      O 1038   1.821   1.790   5.258 -0.1352 -0.1435  0.3873
  276WAT     H1 1039   1.827   1.797   5.163 -0.3960 -0.9236  0.3023
  276WAT     H2 1040   1.826   1.696   5.275 -0.1885 -0.0176  1.1371
  277WAT      O 1041   2.530   3.272   4.254  1.0001 -0.3850 -0.6368
  277WAT     H1 1042   2.600   3.262   4.190  0.5266  0.0319 -1.2358
  277WAT     H2 1043   2.450   3.262   4.203  0.5995 -2.6246  0.3285
  278WAT      O 1044   0.866   2.359   2.498 -0.4500  0.0808  0.3792
  278WAT     H1 1045   0.808   2.292   2.462  0.8544 -1.0676  0.3382
  278WAT     H2 1046   0.939   2.363   2.436  0.2125  0.4780  1.1645
  279WAT      O 1047   1.894   1.044   4.815 -0.0851  0.1878  0.2631
  279WAT     H1 1048   1.918   1.076   4.902 -2.0816  0.7210  0.6749
  279WAT     H2 1049   1.935   0.958   4.809  3.4379  1.6981  0.0931
  280WAT      O 1050   3.174   4.346   4.293  0.0776  0.1939 -0.1900
  280WAT     H1 1051   3.228   4.338   4.371 -0.8728  0.8863  0.5724
  280WAT     H2 1052   3.234   4.373   4.224  0.9972 -0.8058  0.1996
  281WAT      O 1053   0.459   3.700   0.522 -0.6022  0.4335  0.2633
  281WAT     H1 1054   0.405   3.770   0.485 -0.4496  1.4190  1.8080
  281WAT     H2 1055   0.547   3.719   0.489 -0.9247 -0.3969 -1.1697
  282WAT      O 1056   0.480   4.220   2.933 -0.3214  0.3914  0.1115
  282WAT     H1 1057   0.547   4.165   2.893  0.0163 -0.2272  1.4693
  282WAT     H2 1058   0.526   4.268   3.002 -0.8549  1.5352 -0.3055
  283WAT      O 1059   3.135   2.027   4.065  0.0473  0.3364 -0.3221
  283WAT     H1 1060   3.166   2.026   3.974  0.7050  0.3244 -0.1074
  283WAT     H2 1061   3.040   2.017   4.059  0.3184 -2.8067 -0.8792
  284WAT      O 1062   3.048   0.456   1.701 -0.7306  0.1762  0.0195
  284WAT     H1 1063   2.972   0.397   1.703  0.5036 -1.4671  0.3077
  284WAT     H2 1064   3.047   0.493   1.613 -1.0460 -0.9791 -0.4842
  285WAT      O 1065   3.519   2.726   1.782  0.9096  0.4436  0.0732
  285WAT     H1 1066   3.487   2.686   1.701  0.6692  1.7828 -0.5149
  285WAT     H2 1067   3.470   2.682   1.851  2.4279 -2.0535 -0.2964
  286WAT      O 1068   2.515   0.196   0.822 -0.0756  0.8959  0.1504
  286WAT     H1 1069   2.608   0.221   0.823  0.3837 -0.6765  1.0366
  286WAT     H2 1070   2.514   0.114   0.772 -0.9278  0.7084  0.4614
  287WAT      O 1071   1.510   1.065   3.927 -0.0119  0.4641  0.3518
  287WAT     H1 1072   1.573   1.012   3.977  0.3306 -0.3627 -0.8919
  287WAT     H2 1073   1.428   1.017   3.934 -0.0250  0.4850  0.3414
  288WAT      O 1074   2.243   3.655   2.854 -0.4970  0.1078  0.2531
  288WAT     H1 1075   2.157   3.686   2.825  0.0403  1.9737  0.4983
  288WAT     H2 1076   2.240   3.661   2.949 -0.0381  0.3390  0.2525
  289WAT      O 1077   2.823   3.890   2.389 -0.1303  0.5386  0.0057
  289WAT     H1 1078   2.823   3.910   2.482  0.3295  0.5921 -0.0026
  289WAT     H2 1079   2.912   3.910   2.360  0.0785 -0.5851 -0.1979
  290WAT      O 1080   3.792   2.688   1.848  0.2719 -0.3194 -0.1272
  290WAT     H1 1081   3.800   2.595   1.827  0.7132  0.1442 -2.3527
  290WAT     H2 1082   3.698   2.706   1.839  0.5257  0.1161 -3.5514
  291WAT      O 1083   4.284   3.925   4.763  0.3267  0.4350 -0.1002
  291WAT     H1 1084   4.214   3.872   4.799  0.0868  0.9342  0.1865
  291WAT     H2 1085   4.313   3.980   4.837 -0.2609  1.5633 -0.6724
  292WAT      O 1086   2.870   0.349   1.474 -0.2016  0.3929  0.5067
  292WAT     H1 1087   2.962   0.325   1.467 -0.6712 -2.2408  2.1299
  292WAT     H2 1088   2.824   0.290   1.414 -0.8477  1.9371 -0.5832
  293WAT      O 1089   4.239   2.940   1.456 -0.3088  0.7249  0.6015
  293WAT     H1 1090   4.318   2.897   1.489  0.1006 -0.1504 -1.3912
  293WAT     H2 1091   4.259   2.960   1.364 -2.9128 -0.8091 -0.3950
  294WAT      O 1092   0.752   3.489   1.270 -0.1769  0.1171 -0.1469
  294WAT     H1 1093   0.684   3.514   1.332  0.8639  2.2726  0.1995
  294WAT     H2 1094   0.725   3.528   1.187 -0.2677 -0.5908 -0.4615
  295WAT      O 1095   3.942   0.500   2.571 -0.3722 -0.1871 -0.0498
  295WAT     H1 1096   4.000   0.484   2.645  0.5406  0.9728 -0.4741
  295WAT     H2 1097   3.973   0.583   2.534 -1.6850 -0.0431 -0.8948
  296WAT      O 1098   3.426   3.256   2.133 -0.5129  0.8144  0.4906
  296WAT     H1 1099   3.447   3.320   2.064 -0.6849  0.3636  0.0123
  296WAT     H2 1100   3.459   3.297   2.213 -0.7345  1.5621  0.2150
  297WAT      O 1101   2.216   1.450   2.665 -0.0365 -0.0398  0.0654
  297WAT     H1 1102   2.276   1.416   2.599 -0.3056 -0.2212 -0.0901
  297WAT     H2 1103   2.271   1.464   2.742  0.4511  1.0283 -0.4666
  298WAT      O 1104   1.269   2.166   2.471 -0.6095 -0.0179 -0.3579
  298WAT     H1 1105   1.325   2.122   2.535  0.8194 -0.5119 -1.8666
  298WAT     H2 1106   1.223   2.095   2.427 -1.1411  0.2762 -0.2887
  299WAT      O 1107   3.178   3.833   0.799 -0.0247 -0.1009  0.1107
  299WAT     H1 1108   3.206   3.758   0.747 -0.7084 -0.1496 -0.1983
  299WAT     H2 1109   3.260   3.876   0.826  0.3644 -0.8771  0.1842
  300WAT      O 1110   1.275   4.919   0.386 -0.3611 -0.0158  0.0422
  300WAT     H1 1111   1.216   4.859   0.433 -1.9813 -0.1904 -2.0512
  300WAT     H2 1112   1.344   4.862   0.352  0.8618  0.1200  2.1186
  301WAT      O 1113   1.954   4.941   4.979  0.4156 -0.1559 -0.1329
  301WAT     H1 1114   2.024   4.879   5.000  0.8716  0.4352  0.1188
  301WAT     H2 1115   1.998   5.015   4.940  0.2007  1.0718  1.8004
  302WAT      O 1116   3.627   0.311   3.230  0.4324 -0.1626 -0.0994
  302WAT     H1 1117   3.622   0.300   3.135 -0.2314  0.0962 -0.0967
  302WAT     H2 1118   3.539   0.290   3.261  0.5774  0.0140  0.4329
  303WAT      O 1119   1.896   3.756   1.826  0.1607 -0.4358  0.9021
  303WAT     H1 1120   1.982   3.715   1.813 -0.6148 -1.9768  0.4281
  303WAT     H2 1121   1.846   3.691   1.876 -1.8089 -1.0918 -1.7218
  304WAT      O 1122   0.086   4.482   3.354 -0.0043 -0.2540  0.0944
  304WAT     H1 1123   0.054   4.522   3.273 -1.9343 -0.2163  0.8240
  304WAT     H2 1124   0.150   4.544   3.387  0.8416 -0.2817 -1.3924
  305WAT      O 1125   0.197   2.711   3.488  0.5441 -0.0974 -0.4673
  305WAT     H1 1126   0.278   2.687   3.533 -0.2933 -1.6602  0.2795
  305WAT     H2 1127   0.135   2.731   3.559  0.2222  0.9343 -1.0250
  306WAT      O 1128   3.161   3.630   3.151 -0.1318  0.0539 -0.1182
  306WAT     H1 1129   3.217   3.555   3.133  0.5887  0.2647  1.0889
  306WAT     H2 1130   3.188   3.659   3.238 -2.8619 -0.4578  0.9782
  307WAT      O 1131   4.303   0.230   0.800  0.3805  0.4540  0.5353
  307WAT     H1 1132   4.286   0.279   0.881 -0.7024  3.2655 -1.2124
  307WAT     H2 1133   4.391   0.258   0.773 -0.7976  2.8632 -1.2307
  308WAT      O 1134   2.214   0.546   1.473 -0.3845  0.2215 -0.0649
  308WAT     H1 1135   2.167   0.473   1.433 -1.6524  0.6139  0.6514
  308WAT     H2 1136   2.147   0.613   1.486  0.3166  0.6962  1.2430
  309WAT      O 1137   4.287   0.804   1.773 -0.0695 -0.0313 -0.1756
  309WAT     H1 1138   4.232   0.731   1.801  0.2215 -0.3493 -0.4292
  309WAT     H2 1139   4.227   0.864   1.728 -0.9067  1.3197  2.5457
  310WAT      O 1140   1.065   5.071   0.275  0.4700  0.1324 -0.4769
  310WAT     H1 1141   1.147   5.021   0.279 -0.5600 -1.6119 -0.0840
  310WAT     H2 1142   1.005   5.023   0.331 -0.6564  1.7770 -0.1963
  311WAT      O 1143   1.074   4.458   4.520  0.4386  0.0399 -0.5947
  311WAT     H1 1144   1.093   4.395   4.450  1.3802  0.0848 -0.3893
  311WAT     H2 1145   1.074   4.543   4.477  1.5322  0.1160 -0.4548
  312WAT      O 1146   1.684   0.410   4.112 -0.0656  0.1091 -0.1409
  312WAT     H1 1147   1.734   0.335   4.079 -0.6241 -0.3031 -0.0697
  312WAT     H2 1148   1.597   0.375   4.129 -0.8461  1.1798 -1.7664
  313WAT      O 1149   1.446   1.052   4.878  0.0417 -0.1290  0.2309
  313WAT     H1 1150   1.513   0.994   4.914  0.6416 -0.4114 -1.2824
  313WAT     H2 1151   1.491   1.135   4.864 -0.7258  0.6730  2.0515
  314WAT      O 1152   1.276   3.770   2.116  0.0542  0.2591 -0.2434
  314WAT     H1 1153   1.257   3.861   2.093 -0.6357 -0.2617 -1.9084
  314WAT     H2 1154   1.191   3.733   2.141 -0.1259 -0.5134 -1.8723
  315WAT      O 1155   4.250   1.484   0.642 -0.2230 -0.1513  0.1210
  315WAT     H1 1156   4.240   1.574   0.674 -0.0030 -0.0353 -0.1294
  315WAT     H2 1157   4.232   1.491   0.548  1.3326 -0.0813 -0.2022
  316WAT      O 1158   4.102   4.357   1.194  0.0480  0.0736 -0.7713
  316WAT     H1 1159   4.048   4.425   1.235 -0.0986 -0.4618 -0.0545
  316WAT     H2 1160   4.150   4.403   1.126  1.0204  1.2165  0.6160
  317WAT      O 1161   1.030   3.780   3.074  0.4556 -0.2026 -0.0804
  317WAT     H1 1162   1.083   3.700   3.070  0.2308 -0.3443 -0.3617
  317WAT     H2 1163   1.084   3.847   3.033  1.2568  0.1575  1.5156
  318WAT      O 1164   0.141   0.402   1.226  0.0932 -0.0508  0.0115
  318WAT     H1 1165   0.127   0.489   1.263  1.5199  0.6343 -0.9809
  318WAT     H2 1166   0.146   0.344   1.302  1.0923  1.0377  0.8040
  319WAT      O 1167   4.413   4.822   3.242  0.0708 -0.1037 -0.4628
  319WAT     H1 1168   4.468   4.858   3.311 -3.1118  0.5640  1.9688
  319WAT     H2 1169   4.456   4.850   3.161  2.3786  1.7458  1.2395
  320WAT      O 1170   3.236   2.002   0.779  0.0673  0.2289  0.4350
  320WAT     H1 1171   3.284   2.066   0.832 -1.0663  1.8481 -0.3960
  320WAT     H2 1172   3.161   1.978   0.833 -1.1561  1.9733 -0.3695
  321WAT      O 1173   0.629   2.190   1.695  0.5515  0.1551 -0.5415
  321WAT     H1 1174   0.688   2.258   1.663 -0.7546  0.9017 -1.4360
  321WAT     H2 1175   0.591   2.152   1.616  0.0212 -0.4815  0.0073
  322WAT      O 1176   1.211   4.716   1.573 -0.5760  0.3003 -0.2115
  322WAT     H1 1177   1.119   4.733   1.554 -0.2695 -0.1113 -2.3173
  322WAT     H2 1178   1.255   4.725   1.488  0.7735 -3.1145 -0.0488
  323WAT      O 1179   0.028   4.846   4.676 -0.2752 -0.6767  0.5550
  323WAT     H1 1180  -0.048   4.886   4.718 -0.5337 -0.7804  0.1915
  323WAT     H2 1181   0.099   4.858   4.739  0.0273  1.6647 -0.1034
  324WAT      O 1182   1.181   0.088   3.047 -0.5047  0.0258  0.8568
  324WAT     H1 1183   1.141   0.125   3.126 -0.2645  2.5434 -0.1128
  324WAT     H2 1184   1.272   0.118   3.051  0.1861 -1.9823  0.8680
  325WAT      O 1185   3.276   1.162   0.341 -0.2959  0.3191  0.3514
  325WAT     H1 1186   3.321   1.082   0.314 -2.1044  0.0676 -2.4357
  325WAT     H2 1187   3.264   1.211   0.259  1.1107  3.7265  1.9953
  326WAT      O 1188   3.959   1.581   0.493 -0.5342  0.6716  0.2972
  326WAT     H1 1189   3.980   1.569   0.586 -0.7113 -1.6559  0.1008
  326WAT     H2 1190   4.041   1.610   0.454 -0.6142  2.3010  1.2378
  327WAT      O 1191   1.910   4.641   1.830  0.1795  0.0426 -0.7020
  327WAT     H1 1192   1.834   4.588   1.856 -0.2848  0.7505 -0.5873
  327WAT     H2 1193   1.977   4.577   1.806  0.0544 -0.6107  0.6137
  328WAT      O 1194   0.235   3.303   4.925  0.4292  0.1784 -0.1776
  328WAT     H1 1195   0.178   3.251   4.982 -1.0676  0.3660 -1.4380
  328WAT     H2 1196   0.186   3.312   4.844  2.4807 -0.0381 -1.5090
  329WAT      O 1197   2.087   2.425   4.379 -0.0080 -0.6677  0.1812
  329WAT     H1 1198   2.019   2.468   4.327  0.5895 -0.1320 -0.1624
  329WAT     H2 1199   2.074   2.458   4.467  1.3262  1.3539 -0.3271
  330WAT      O 1200   3.061   3.157   3.822  0.1443 -0.0463  0.3993
  330WAT     H1 1201   3.040   3.244   3.787 -0.5499  0.4139  1.9069
  330WAT     H2 1202   3.085   3.106   3.745  1.3453  1.6939 -0.4419
  331WAT      O 1203   2.473   2.805   1.303 -0.1698 -0.0375 -0.3625
  331WAT     H1 1204   2.557   2.836   1.269  1.0218 -0.4186  2.0275
  331WAT     H2 1205   2.408   2.856   1.254  1.4978  1.6001 -1.0165
  332WAT      O 1206   2.061   4.174   3.278  0.6763  0.4803  0.7796
  332WAT     H1 1207   2.151   4.144   3.263  0.8010  1.2621 -0.1210
  332WAT     H2 1208   2.006   4.102   3.247  0.9772 -0.3338  2.0622
  333WAT      O 1209   3.416   5.072   5.238  0.4779  0.2720 -0.1222
  333WAT     H1 1210   3.476   5.002   5.266 -0.1274  0.1042  0.8108
  333WAT     H2 1211   3.405   5.126   5.316 -1.2184 -0.1675 -0.0248
  334WAT      O 1212   0.754   4.630   2.061 -0.1713 -0.0916  0.0186
  334WAT     H1 1213   0.802   4.562   2.013 -1.7980 -0.8974 -0.5419
  334WAT     H2 1214   0.765   4.606   2.153  0.3556 -0.3642 -0.1143
  335WAT      O 1215   2.920   2.200   0.428 -0.2370 -0.4816  0.0159
  335WAT     H1 1216   2.945   2.268   0.366  0.8445  0.9476  1.8898
  335WAT     H2 1217   2.860   2.244   0.489 -0.4966 -1.5455  0.5614
  336WAT      O 1218   2.930   4.787   1.091  0.1762 -0.3466  0.3773
  336WAT     H1 1219   3.000   4.805   1.154  0.4804  1.4656 -0.4116
  336WAT     H2 1220   2.850   4.814   1.137  0.3606  0.6265  0.1631
  337WAT      O 1221   1.892   0.632   5.256 -0.3912 -0.2075 -0.3602
  337WAT     H1 1222   1.943   0.694   5.203  2.9204 -0.3568  2.2765
  337WAT     H2 1223   1.839   0.688   5.313  2.6659  0.5148  2.0894
  338WAT      O 1224   0.671   2.219   4.007  0.4175  0.1819 -0.0571
  338WAT     H1 1225   0.614   2.156   4.051  1.1380 -0.0912  0.4984
  338WAT     H2 1226   0.626   2.303   4.018  0.2103 -0.0013  0.5421
  339WAT      O 1227   1.131   2.251   5.210  0.1733 -0.3385  0.7605
  339WAT     H1 1228   1.057   2.197   5.184 -0.0690  0.9503 -1.4670
  339WAT     H2 1229   1.198   2.234   5.145  0.4837  1.2049  0.6432
  340WAT      O 1230   0.388   0.272   4.370 -0.0740 -0.7687 -0.3781
  340WAT     H1 1231   0.394   0.188   4.415  0.0361 -0.1524  0.7761
  340WAT     H2 1232   0.479   0.296   4.351  0.0065 -0.1893  0.6752
  341WAT      O 1233   3.644   4.413   1.262 -0.0753 -0.0956 -0.0765
  341WAT     H1 1234   3.626   4.358   1.185  1.0383  0.1547 -0.5296
  341WAT     H2 1235   3.722   4.375   1.301 -1.2305 -0.8784  1.5905
  342WAT      O 1236   4.426   3.655   4.482  0.1809  0.0141 -0.0949
  342WAT     H1 1237   4.456   3.718   4.547  1.0119  2.3286 -2.5315
  342WAT     H2 1238   4.356   3.701   4.435  1.2714 -0.5410 -2.3939
  343WAT      O 1239   3.697   4.005   1.534  0.0628 -0.0563 -0.0786
  343WAT     H1 1240   3.750   4.062   1.479 -1.9023 -0.5678 -2.6690
  343WAT     H2 1241   3.722   3.916   1.507 -1.1738 -0.3170 -0.3977
  344WAT      O 1242   2.438   2.408   4.610  0.7059  0.0829  0.7412
  344WAT     H1 1243   2.416   2.432   4.520 -0.8156 -1.4395  0.6327
  344WAT     H2 1244   2.498   2.475   4.640 -1.6157  2.7502 -0.1802
  345WAT      O 1245   3.495   2.474   1.204  0.3227  0.2060 -0.8291
  345WAT     H1 1246   3.475   2.563   1.175 -1.0279  0.5774  1.0810
  345WAT     H2 1247   3.581   2.455   1.166  0.3142  2.0227 -1.8667
  346WAT      O 1248   0.857   4.948   0.452  0.0319  0.5604  0.4522
  346WAT     H1 1249   0.946   4.934   0.484  0.0642  0.5012  0.3362
  346WAT     H2 1250   0.809   4.983   0.528 -0.4570 -1.6192  1.2085
  347WAT      O 1251   1.697   3.385   0.580 -0.0437  0.1755 -0.6493
  347WAT     H1 1252   1.784   3.410   0.550 -0.0086 -0.6877 -1.2990
  347WAT     H2 1253   1.700   3.393   0.675  1.1571 -1.1389 -0.5566
  348WAT      O 1254   0.112   4.439   4.817 -0.0327 -0.4441  0.3784
  348WAT     H1 1255   0.061   4.360   4.795  0.1047 -1.5713  3.5730
  348WAT     H2 1256   0.055   4.488   4.876  0.9088  0.5752  0.4708
  349WAT      O 1257   3.062   5.053   2.392 -0.0807  0.0049  0.0143
  349WAT     H1 1258   2.976   5.025   2.362  0.1730  0.8959 -1.6465
  349WAT     H2 1259   3.045   5.103   2.473 -0.9735 -0.8543  0.3676
  350WAT      O 1260   4.222   0.350   2.316  0.5366 -0.3433  0.1589
  350WAT     H1 1261   4.272   0.414   2.366 -0.6878  1.1483 -0.4334
  350WAT     H2 1262   4.187   0.290   2.382  2.4590 -1.0028  0.6380
  351WAT      O 1263   2.835   4.656   4.142  0.1223  0.1824 -0.2618
  351WAT     H1 1264   2.867   4.566   4.136 -1.4693 -0.4733  0.5551
  351WAT     H2 1265   2.879   4.692   4.220  2.5574  0.9486 -1.8635
  352WAT      O 1266   3.983   3.705   3.766  0.1039  0.3640  0.2636
  352WAT     H1 1267   3.993   3.763   3.691  0.6157 -0.1278 -0.0584
  352WAT     H2 1268   4.045   3.634   3.749 -0.9598 -0.6084  0.3273
  353WAT      O 1269   1.747   5.094   1.016  0.0802 -0.2522  0.2400
  353WAT     H1 1270   1.799   5.025   0.974 -0.3226 -0.3674 -0.0752
  353WAT     H2 1271   1.657   5.076   0.988 -0.3143 -0.8178  1.8125
  354WAT      O 1272   1.149   2.753   4.473 -0.3569 -0.2756 -0.2578
  354WAT     H1 1273   1.153   2.663   4.506 -1.8248 -0.2449  0.0640
  354WAT     H2 1274   1.240   2.783   4.477 -0.2550 -0.6168  2.9161
  355WAT      O 1275   3.311   3.797   4.877  0.5074  0.0144 -0.1560
  355WAT     H1 1276   3.302   3.798   4.973 -1.2011 -0.1659 -0.2981
  355WAT     H2 1277   3.322   3.705   4.855 -2.3222 -0.3534 -0.3558
  356WAT      O 1278   1.217   0.010   0.680 -0.3523 -0.3146  0.2191
  356WAT     H1 1279   1.286   0.049   0.734  0.3288 -2.3928  0.9493
  356WAT     H2 1280   1.259  -0.005   0.595 -0.1174 -0.8516  0.4221
  357WAT      O 1281   2.554   0.852   0.553 -0.7068  0.6687  0.3737
  357WAT     H1 1282   2.598   0.921   0.502  1.1329 -1.0285 -0.4601
  357WAT     H2 1283   2.474   0.834   0.505  0.3553  0.0382 -1.2298
  358WAT      O 1284   3.981   2.448   0.354 -0.3844 -0.4787 -0.1043
  358WAT     H1 1285   3.958   2.386   0.285  0.7367 -0.5976 -0.4035
  358WAT     H2 1286   4.064   2.487   0.323  0.8133 -1.4410  1.7247
  359WAT      O 1287   2.523   2.325   0.348  0.3190 -0.3736 -0.3334
  359WAT     H1 1288   2.462   2.294   0.281 -0.2160 -1.1740  0.5129
  359WAT     H2 1289   2.511   2.420   0.348  0.0659 -0.3953 -1.1238
  360WAT      O 1290   2.902   4.103   2.080  0.4185 -0.0637 -0.1683
  360WAT     H1 1291   2.820   4.152   2.093 -0.4456 -0.9451 -1.9106
  360WAT     H2 1292   2.875   4.011   2.087  1.1848 -0.3671 -1.0582
  361WAT      O 1293   4.119   2.477   2.947 -0.3352  0.3654  0.1264
  361WAT     H1 1294   4.143   2.385   2.936 -1.7579 -0.0724  0.4333
  361WAT     H2 1295   4.183   2.525   2.895  0.8899 -0.7367  0.5668
  362WAT      O 1296   2.913   2.250   4.855  0.0405  0.0830 -0.5770
  362WAT     H1 1297   2.975   2.203   4.799  1.6343  0.4416  0.7643
  362WAT     H2 1298   2.930   2.343   4.837  1.0684  0.2247  0.9099
  363WAT      O 1299   2.330   1.065   0.059 -0.2772  0.0925  0.0346
  363WAT     H1 1300   2.327   1.152   0.019 -0.3243 -0.2923 -0.8366
  363WAT     H2 1301   2.239   1.043   0.075 -0.1692  1.0829  2.2917
  364WAT      O 1302   0.235   5.062   2.093  0.8571 -0.0260 -0.5245
  364WAT     H1 1303   0.160   5.003   2.084  0.2370  0.6611  0.0336
  364WAT     H2 1304   0.234   5.088   2.185  0.4177  1.7737 -1.0047
  365WAT      O 1305   3.867   0.924   1.723 -0.1761  0.0257 -0.1584
  365WAT     H1 1306   3.840   1.006   1.682  0.7572  0.1364 -0.5674
  365WAT     H2 1307   3.806   0.859   1.688  1.3675 -0.1443 -2.8039
  366WAT      O 1308   0.419   3.433   1.796 -0.4985 -0.2957 -0.0880
  366WAT     H1 1309   0.406   3.376   1.871 -1.1671  0.6903  0.5739
  366WAT     H2 1310   0.468   3.508   1.831  0.7971 -0.6486 -1.0423
  367WAT      O 1311   0.357   3.311   1.054  0.0937 -0.1968 -0.1987
  367WAT     H1 1312   0.368   3.405   1.069 -0.3169 -0.3367  1.1406
  367WAT     H2 1313   0.303   3.281   1.128 -1.1323 -1.2016 -1.4597
  368WAT      O 1314   1.529   2.040   2.280  0.0011 -0.3612 -0.0316
  368WAT     H1 1315   1.535   2.110   2.345  1.0948 -0.7280  0.2752
  368WAT     H2 1316   1.479   1.971   2.323  1.5619 -1.0061  0.8157
  369WAT      O 1317   3.031   0.730   3.771 -0.1234  0.3443  0.0203
  369WAT     H1 1318   3.022   0.684   3.688  0.8824  0.3952 -0.1300
  369WAT     H2 1319   3.095   0.680   3.820  0.1804  0.9735  0.2837
  370WAT      O 1320   0.359   2.737   0.106  0.4265 -0.1485 -0.1278
  370WAT     H1 1321   0.384   2.817   0.152 -0.4665 -0.2696  0.5984
  370WAT     H2 1322   0.337   2.675   0.175 -0.4160 -0.5097 -0.6992
  371WAT      O 1323   1.911   3.881   1.123  0.3157  0.1055  0.1862
  371WAT     H1 1324   1.940   3.790   1.126  1.4433  0.4759  1.1084
  371WAT     H2 1325   1.905   3.908   1.214  1.0959  1.2933 -0.0855
  372WAT      O 1326   4.023   2.490   0.750  0.1853 -0.0706 -0.3072
  372WAT     H1 1327   3.993   2.552   0.816 -0.5364  1.3445 -1.8862
  372WAT     H2 1328   3.945   2.471   0.697  1.3254  1.4008 -2.6977
  373WAT      O 1329   3.301   0.970   3.867 -0.3456  0.0296  0.6944
  373WAT     H1 1330   3.396   0.963   3.862  0.0678  4.1154 -0.5717
  373WAT     H2 1331   3.271   0.947   3.779 -0.2996  0.8921  0.4510
  374WAT      O 1332   3.732   4.976   4.688 -0.3619  0.6513 -0.5876
  374WAT     H1 1333   3.664   5.038   4.713 -0.5689  0.4511 -0.6548
  374WAT     H2 1334   3.772   4.950   4.771  0.0312  1.2198 -0.5928
  375WAT      O 1335   3.241   0.227   4.214  0.3106 -0.3292  0.2507
  375WAT     H1 1336   3.250   0.196   4.304 -0.4378  1.4530  0.9884
  375WAT     H2 1337   3.146   0.224   4.197  0.3101  0.5828  0.0206
  376WAT      O 1338   3.028   4.040   3.604 -0.6718 -0.1601 -0.4691
  376WAT     H1 1339   2.978   4.040   3.522  0.0677  0.4196 -0.9343
  376WAT     H2 1340   3.008   4.125   3.644 -0.2141 -0.0088 -0.5606
  377WAT      O 1341   3.104   0.695   5.147 -0.0754  0.0297 -0.2466
  377WAT     H1 1342   3.109   0.603   5.123 -0.1116  0.1079 -0.5612
  377WAT     H2 1343   3.089   0.695   5.242  1.0139 -0.2762 -0.0573
  378WAT      O 1344   0.931   5.113   0.701  0.0050  0.9045 -0.1162
  378WAT     H1 1345   0.916   5.166   0.779  1.0407 -1.1515  1.6241
  378WAT     H2 1346   1.021   5.134   0.675 -0.2436  1.3820 -0.6085
  379WAT      O 1347   2.738   0.591   2.508 -0.1421  0.3813  0.4532
  379WAT     H1 1348   2.819   0.632   2.476 -0.4666  0.8804  0.2636
  379WAT     H2 1349   2.768   0.515   2.559  0.3859 -0.6214 -1.2637
  380WAT      O 1350   1.399   2.170   2.075 -0.2923  0.0031 -0.2688
  380WAT     H1 1351   1.310   2.182   2.109 -0.3942  0.8326 -0.7937
  380WAT     H2 1352   1.436   2.100   2.128 -1.7723 -1.4026 -0.9834
  381WAT      O 1353   1.532   4.299   5.144 -0.4476  0.3145  0.2975
  381WAT     H1 1354   1.472   4.366   5.177  0.8155  2.0764 -0.8068
  381WAT     H2 1355   1.604   4.348   5.106 -0.1706 -1.6596 -1.9620
  382WAT      O 1356   4.371   0.594   1.175 -0.2062  0.1251  0.2298
  382WAT     H1 1357   4.357   0.625   1.264  1.2368 -0.5704  0.7317
  382WAT     H2 1358   4.304   0.638   1.123 -1.7317 -0.2247  1.8042
  383WAT      O 1359   2.369   1.051   2.894 -0.4601  0.8287  0.1981
  383WAT     H1 1360   2.310   0.994   2.944 -0.9931  1.5164  0.3668
  383WAT     H2 1361   2.323   1.067   2.812  0.9614 -1.3323 -1.1280
  384WAT      O 1362   3.412   2.655   5.150  0.1957 -0.5160  0.2801
  384WAT     H1 1363   3.474   2.583   5.158  0.9077 -0.0114 -0.4710
  384WAT     H2 1364   3.333   2.625   5.195  0.1182 -2.1676 -0.8959
  385WAT      O 1365   1.609   4.828   4.896  0.5717 -0.5193 -0.3003
  385WAT     H1 1366   1.692   4.840   4.850 -0.4579 -0.5378 -2.2524
  385WAT     H2 1367   1.571   4.749   4.858 -1.3324  0.6761 -1.0656
  386WAT      O 1368   1.937   1.295   2.958 -0.2182  0.2281 -0.1300
  386WAT     H1 1369   1.887   1.360   2.908 -0.4025  1.2646  1.3454
  386WAT     H2 1370   1.875   1.260   3.021  0.2542 -0.3920  0.0011
  387WAT      O 1371   1.363   2.348   3.673  0.5131  0.0679 -0.6723
  387WAT     H1 1372   1.423   2.346   3.747 -1.0347  0.6357  0.6610
  387WAT     H2 1373   1.346   2.441   3.658  1.7848  0.0501 -2.6409
  388WAT      O 1374   1.445   4.498   2.862  0.3309 -0.0144  0.2454
  388WAT     H1 1375   1.381   4.509   2.932  0.7289  0.7497  0.4940
  388WAT     H2 1376   1.393   4.468   2.787 -0.2636  0.2280  0.5565
  389WAT      O 1377   0.609   1.938   2.057 -0.1618  0.4751  0.1449
  389WAT     H1 1378   0.590   1.856   2.103  1.7373  0.2830  0.6725
  389WAT     H2 1379   0.562   2.004   2.107 -0.9607 -0.1732  0.2730
  390WAT      O 1380   3.322   3.657   1.228 -0.0038 -0.4405  0.1261
  390WAT     H1 1381   3.355   3.570   1.252 -0.1622 -0.7713 -0.8036
  390WAT     H2 1382   3.370   3.717   1.284  0.3962 -1.1008  0.5063
  391WAT      O 1383   4.387   1.036   1.066 -0.1331  0.2642 -0.2273
  391WAT     H1 1384   4.338   1.047   0.985  1.4001  3.5930 -0.8642
  391WAT     H2 1385   4.479   1.034   1.039  0.4308  1.6134  1.3921
  392WAT      O 1386   3.613   4.393   2.532 -0.3554 -0.5411 -0.6675
  392WAT     H1 1387   3.601   4.300   2.552  2.4997 -1.2770 -1.7919
  392WAT     H2 1388   3.697   4.415   2.573  0.9093  0.4453 -3.5311
  393WAT      O 1389   0.865   3.315   2.380 -0.3343  0.2550 -0.1425
  393WAT     H1 1390   0.791   3.351   2.333 -0.4397  1.7342  1.0796
  393WAT     H2 1391   0.840   3.321   2.473  0.8739 -0.1884  0.2362
  394WAT      O 1392   3.124   4.039   2.510  0.0914  0.5218  0.3991
  394WAT     H1 1393   3.183   3.964   2.517  1.8406  1.7912 -0.1253
  394WAT     H2 1394   3.051   4.018   2.568  1.4669 -0.7293  1.7497
  395WAT      O 1395   4.034   0.647   2.987 -0.2618  0.3013 -0.1462
  395WAT     H1 1396   4.116   0.696   2.993  0.3943 -0.7796  0.0209
  395WAT     H2 1397   4.041   0.581   3.055 -0.6564 -0.6918 -1.0439
  396WAT      O 1398   2.222   0.183   2.000  0.5234 -0.4399  0.1008
  396WAT     H1 1399   2.208   0.204   1.908 -0.2456 -1.9367 -0.1628
  396WAT     H2 1400   2.224   0.268   2.044 -0.0289  0.2602 -1.1673
  397WAT      O 1401   2.362   3.041   3.895  0.5327 -0.0715 -0.6236
  397WAT     H1 1402   2.330   3.047   3.985 -1.4464  1.5172 -1.3391
  397WAT     H2 1403   2.389   2.950   3.884 -2.2309 -1.1587  0.6569
  398WAT      O 1404   2.784   3.931   0.721 -0.3346 -0.1265 -0.6351
  398WAT     H1 1405   2.739   3.944   0.804  0.6202  0.7682 -0.2375
  398WAT     H2 1406   2.823   3.844   0.728  0.9612  0.5093  0.4679
  399WAT      O 1407   0.248   0.434   4.211 -0.1485 -0.2696 -0.4025
  399WAT     H1 1408   0.287   0.373   4.272 -1.5654 -0.4919  0.3236
  399WAT     H2 1409   0.178   0.476   4.261 -0.4633  0.5193 -1.4729
  400WAT      O 1410   0.725   4.908   1.588  0.5145 -0.5829  0.3689
  400WAT     H1 1411   0.635   4.939   1.581  1.5423  2.5435 -0.7276
  400WAT     H2 1412   0.717   4.818   1.622 -2.9723 -0.5796 -0.0731
  401WAT      O 1413   2.558   1.151   3.370  0.0772 -0.9076  0.2208
  401WAT     H1 1414   2.530   1.062   3.351  0.0476 -0.4735 -1.9988
  401WAT     H2 1415   2.557   1.156   3.466 -1.1451 -2.8768  0.3693
  402WAT      O 1416   0.381   2.668   0.681  0.1560 -0.6907 -0.1135
  402WAT     H1 1417   0.473   2.694   0.676 -0.3444  1.0798 -2.3495
  402WAT     H2 1418   0.355   2.687   0.771  1.3495  1.4144 -0.1311
  403WAT      O 1419   0.955   3.270   0.711 -0.4140  0.4568  1.0973
  403WAT     H1 1420   1.016   3.198   0.728 -1.1863 -1.1025 -2.0509
  403WAT     H2 1421   0.997   3.347   0.749  2.0387 -1.0647  1.6524
  404WAT      O 1422   1.114   2.510   1.363  0.5760 -0.1995  0.3464
  404WAT     H1 1423   1.124   2.415   1.360  3.5210 -0.0279  1.6489
  404WAT     H2 1424   1.076   2.528   1.449  0.3194 -0.1725  0.2283
  405WAT      O 1425   0.073   2.387   4.534 -0.4297  0.0828 -0.7547
  405WAT     H1 1426   0.122   2.395   4.616 -1.1224  2.2542 -0.4992
  405WAT     H2 1427   0.019   2.309   4.546  2.7294 -2.3198 -0.9871
  406WAT      O 1428   4.192   1.873   2.398 -0.4170  0.5374  0.8488
  406WAT     H1 1429   4.234   1.845   2.480  2.8195  0.2614 -0.7566
  406WAT     H2 1430   4.204   1.968   2.396  1.1186  0.3415 -0.0847
  407WAT      O 1431   2.114   3.444   3.379 -0.5161  0.4387 -0.3171
  407WAT     H1 1432   2.121   3.420   3.287  0.8678  0.1453 -0.1639
  407WAT     H2 1433   2.049   3.384   3.415 -2.5303  1.8442 -1.4815
  408WAT      O 1434   1.506   1.841   2.998 -0.4073 -0.0079 -0.0065
  408WAT     H1 1435   1.579   1.899   2.976  1.5192 -2.1756  0.1443
  408WAT     H2 1436   1.484   1.863   3.088 -0.6652  1.3765 -0.3947
  409WAT      O 1437   2.565   1.036   1.518 -0.2994  0.2278 -0.0764
  409WAT     H1 1438   2.612   0.966   1.473 -0.6065  0.4647 -0.7832
  409WAT     H2 1439   2.633   1.085   1.564 -0.1853 -1.0737  1.1930
  410WAT      O 1440   0.340   2.416   2.559  0.0635  0.2380 -0.2369
  410WAT     H1 1441   0.337   2.328   2.597 -0.4366  1.1506  2.0558
  410WAT     H2 1442   0.283   2.468   2.616  0.9267  2.2024 -1.0682
  411WAT      O 1443   0.879   3.166   2.072  0.0276  0.3372  0.4023
  411WAT     H1 1444   0.949   3.206   2.122  1.5847 -1.2127 -0.4368
  411WAT     H2 1445   0.812   3.144   2.137  1.1884  0.0216  1.5224
  412WAT      O 1446   3.529   4.356   3.379 -0.0741  0.2099  0.0258
  412WAT     H1 1447   3.570   4.368   3.294  0.9186  0.3498  0.5023
  412WAT     H2 1448   3.600   4.324   3.435 -0.7171  0.0859  0.7824
  413WAT      O 1449   3.827   2.119   1.806 -0.4845  0.6250 -0.1181
  413WAT     H1 1450   3.815   2.031   1.841  0.8185  0.3649 -0.2825
  413WAT     H2 1451   3.776   2.120   1.725  0.1596 -0.2641 -0.5488
  414WAT      O 1452   1.367   4.797   4.260  0.2821  0.1516 -0.1124
  414WAT     H1 1453   1.429   4.751   4.203  0.4270  0.8286 -0.5158
  414WAT     H2 1454   1.416   4.813   4.340 -0.0155 -1.0684  0.3377
  415WAT      O 1455   0.981   3.354   3.214  0.6129 -0.3715  0.1910
  415WAT     H1 1456   0.906   3.339   3.271  0.8739 -1.7136  0.2014
  415WAT     H2 1457   0.943   3.388   3.133  0.0300 -0.7768  0.2909
  416WAT      O 1458   2.710   3.503   3.828 -0.0180  0.1864  0.3835
  416WAT     H1 1459   2.707   3.592   3.864 -2.2624 -0.0502  0.9303
  416WAT     H2 1460   2.624   3.490   3.788  0.9762 -1.0535 -1.4952
  417WAT      O 1461   4.165   5.101   1.018 -0.2453  0.0765  0.2593
  417WAT     H1 1462   4.132   5.190   1.006 -0.8976 -0.3249 -1.0424
  417WAT     H2 1463   4.250   5.101   0.974 -1.1584 -0.4816 -1.5791
  418WAT      O 1464   2.990   2.439   2.642  0.2565  0.0741  0.0198
  418WAT     H1 1465   2.925   2.369   2.633  1.0521 -0.6893  0.0564
  418WAT     H2 1466   3.007   2.444   2.736  0.3620  0.1633 -0.0045
  419WAT      O 1467   1.831   2.255   4.342 -0.0362 -0.4487 -0.7441
  419WAT     H1 1468   1.875   2.200   4.277  0.3685 -1.0671  0.0283
  419WAT     H2 1469   1.775   2.313   4.291 -0.1092 -1.2620 -1.6168
  420WAT      O 1470   0.735   3.326   3.335 -0.2947 -0.5245 -0.0029
  420WAT     H1 1471   0.656   3.275   3.320 -2.6325  2.4499  1.2333
  420WAT     H2 1472   0.764   3.299   3.423  0.0527 -1.5210 -0.4021
  421WAT      O 1473   3.130   2.302   3.497 -0.3871 -0.0004 -0.3716
  421WAT     H1 1474   3.069   2.274   3.429 -1.2736  2.1126 -0.5177
  421WAT     H2 1475   3.088   2.275   3.579 -2.4153  2.7736 -0.3676
  422WAT      O 1476   0.401   0.751   0.270 -0.0010  0.1225  0.2001
  422WAT     H1 1477   0.445   0.710   0.195  0.4522  0.5989  0.1979
  422WAT     H2 1478   0.338   0.812   0.231 -0.6809 -0.5612  0.2034
  423WAT      O 1479   1.409   1.385   1.236  0.6247  0.0169 -0.4652
  423WAT     H1 1480   1.481   1.321   1.233  0.8678  0.2090  0.6323
  423WAT     H2 1481   1.433   1.452   1.173  1.3013 -0.0508 -0.2879
  424WAT      O 1482   2.263   2.247   0.636 -0.2156 -0.1423 -0.1488
  424WAT     H1 1483   2.220   2.287   0.712 -0.3790  1.6513 -1.1287
  424WAT     H2 1484   2.215   2.282   0.561 -0.0038 -1.8134 -1.1122
  425WAT      O 1485   0.074   4.945   2.427  0.4037  0.0245  0.0694
  425WAT     H1 1486   0.035   4.962   2.513  1.2978  1.1449  0.2679
  425WAT     H2 1487   0.168   4.939   2.444  0.5488 -0.1378 -0.7752
  426WAT      O 1488   0.079   1.374   0.431 -0.4304 -0.2095 -0.0957
  426WAT     H1 1489   0.051   1.437   0.497 -0.2932 -2.5885  2.4340
  426WAT     H2 1490   0.008   1.372   0.367 -0.6179  2.1147 -0.0326
  427WAT      O 1491   3.975   4.345   3.289 -0.1305 -0.4056 -0.0699
  427WAT     H1 1492   4.030   4.372   3.363 -0.1481  0.7463 -0.4672
  427WAT     H2 1493   4.032   4.352   3.213 -1.2281  2.4298 -0.7306
  428WAT      O 1494   1.130   4.200   1.769 -0.0515 -0.2408  0.1572
  428WAT     H1 1495   1.172   4.128   1.722  1.5254  1.6617 -1.5495
  428WAT     H2 1496   1.135   4.176   1.861 -1.2352 -3.1033 -0.4138
  429WAT      O 1497   3.675   1.739   3.331 -0.5484  0.5856  0.1276
  429WAT     H1 1498   3.707   1.780   3.251  1.2150  0.9995  1.0113
  429WAT     H2 1499   3.751   1.695   3.368 -1.8085 -1.4556  0.5038
  430WAT      O 1500   1.736   0.259   0.094  0.0491  0.2615 -0.5431
  430WAT     H1 1501   1.678   0.225   0.025 -1.0215 -0.0266  0.4631
  430WAT     H2 1502   1.814   0.204   0.089 -0.3369 -0.2500 -1.0420
  431WAT      O 1503   0.238   2.551   0.984 -0.1552 -0.1043  0.0885
  431WAT     H1 1504   0.207   2.562   1.074  3.4545  0.5002  1.4258
  431WAT     H2 1505   0.270   2.637   0.958  0.5714 -0.6943 -1.0606
  432WAT      O 1506   0.834   2.963   5.046  0.0657 -0.4908 -0.6310
  432WAT     H1 1507   0.882   2.978   5.127  0.2805 -0.3186 -0.7884
  432WAT     H2 1508   0.742   2.971   5.070  0.1650  2.2802 -0.9352
  433WAT      O 1509   3.046   3.161   1.006  0.1647 -0.6718  0.0915
  433WAT     H1 1510   3.058   3.068   0.989  2.1039 -0.3578 -0.4155
  433WAT     H2 1511   3.124   3.188   1.054 -0.7109  0.5528  0.8940
  434WAT      O 1512   2.213   3.765   0.379 -0.0101 -0.3261 -0.2404
  434WAT     H1 1513   2.124   3.740   0.353 -0.2977  0.0585  0.3472
  434WAT     H2 1514   2.264   3.759   0.298 -0.5429 -0.6726 -0.5564
  435WAT      O 1515   0.443   0.386   1.367 -0.2693 -0.2289  0.5274
  435WAT     H1 1516   0.427   0.331   1.291 -2.4590  0.9978  0.0316
  435WAT     H2 1517   0.492   0.461   1.333 -1.1027  0.2376  0.3313
  436WAT      O 1518   2.488   1.601   5.032  0.2173  0.1625 -0.3337
  436WAT     H1 1519   2.570   1.577   4.988 -0.1562  1.2786 -1.7073
  436WAT     H2 1520   2.481   1.696   5.019 -1.1054  0.1423  0.0986
  437WAT      O 1521   1.532   3.282   4.509  0.3758 -0.3418  0.8304
  437WAT     H1 1522   1.528   3.319   4.421  0.5580 -1.2269  0.4342
  437WAT     H2 1523   1.519   3.356   4.567  1.0570  0.3985  0.0707
  438WAT      O 1524   0.830   2.097   3.031 -0.2242 -0.2458  0.9500
  438WAT     H1 1525   0.893   2.165   3.011 -1.3984  0.2108 -1.5709
  438WAT     H2 1526   0.754   2.144   3.064 -0.1448 -0.5764  1.6174
  439WAT      O 1527   0.854   4.055   2.097  0.4329  0.6606  0.1926
  439WAT     H1 1528   0.865   4.150   2.105 -0.0256  0.8079 -0.7263
  439WAT     H2 1529   0.940   4.018   2.117  0.8247  1.3264 -0.2191
  440WAT      O 1530   2.849   4.668   0.439  0.4142 -0.1959  0.0976
  440WAT     H1 1531   2.879   4.627   0.520  0.6788  0.2059  0.2058
  440WAT     H2 1532   2.871   4.604   0.371 -0.1096 -0.6817  0.3721
  441WAT      O 1533   3.613   3.934   3.257  0.3131 -0.2814  0.4736
  441WAT     H1 1534   3.662   3.933   3.175  0.5456  1.8152  0.5294
  441WAT     H2 1535   3.536   3.988   3.239  1.1644  1.5609  2.0083
  442WAT      O 1536   1.789   0.675   4.161  0.2402 -0.3662 -0.5568
  442WAT     H1 1537   1.759   0.662   4.251 -0.0409  0.4168 -0.5349
  442WAT     H2 1538   1.750   0.602   4.112 -0.2637 -0.3408 -0.1968
  443WAT      O 1539   2.433   1.481   1.803 -0.5428  0.3790  0.1255
  443WAT     H1 1540   2.511   1.529   1.774 -0.3184  0.2930  0.5871
  443WAT     H2 1541   2.420   1.414   1.736 -1.9094  2.1649 -1.5211
  444WAT      O 1542   1.889   0.634   3.271  0.0504  0.4547 -0.4116
  444WAT     H1 1543   1.856   0.663   3.356 -0.2704  1.4423 -0.8460
  444WAT     H2 1544   1.852   0.547   3.259  2.3412 -0.9360  1.6650
  445WAT      O 1545   0.889   0.549   4.528  0.3705  0.0455  0.7427
  445WAT     H1 1546   0.934   0.482   4.579 -0.6808 -1.1879  0.0811
  445WAT     H2 1547   0.801   0.553   4.563  0.6927  1.8983  1.4988
  446WAT      O 1548   4.226   0.264   4.640 -0.1858  0.4329  0.1933
  446WAT     H1 1549   4.250   0.320   4.714  1.6411 -0.4135  0.2787
  446WAT     H2 1550   4.183   0.324   4.578  1.2201  1.8404  0.5095
  447WAT      O 1551   2.746   2.135   1.511 -0.1096  0.1273 -0.3690
  447WAT     H1 1552   2.652   2.125   1.528 -0.4417 -0.9683 -2.5060
  447WAT     H2 1553   2.783   2.050   1.534  0.3243  0.4611  0.1794
  448WAT      O 1554   2.794   0.169   3.939  0.7013 -0.7255  0.6393
  448WAT     H1 1555   2.818   0.242   3.996  0.9631 -1.9595  2.1862
  448WAT     H2 1556   2.877   0.139   3.902  0.8117 -1.1849  1.2315
  449WAT      O 1557   2.235   3.408   4.255 -0.3458  0.2874 -0.4489
  449WAT     H1 1558   2.168   3.470   4.285 -0.2685  1.4160 -2.4657
  449WAT     H2 1559   2.258   3.438   4.168  1.9062 -0.8408 -0.3046
  450WAT      O 1560   0.256   3.103   4.669 -0.4853  0.4852  0.3402
  450WAT     H1 1561   0.311   3.177   4.644 -0.1079  0.3078  0.6300
  450WAT     H2 1562   0.166   3.134   4.657 -0.3286  0.4026 -1.2116
  451WAT      O 1563   0.375   4.807   0.102 -0.1226  0.4400  0.0081
  451WAT     H1 1564   0.341   4.857   0.177  1.1613 -1.4858  2.0100
  451WAT     H2 1565   0.469   4.822   0.104  0.2201 -1.4748  0.3038
  452WAT      O 1566   3.314   3.383   3.633  0.0171  0.2580  0.8335
  452WAT     H1 1567   3.248   3.372   3.565  2.5049 -0.4757 -1.6447
  452WAT     H2 1568   3.349   3.471   3.618 -0.3212  0.6310  2.1028
  453WAT      O 1569   3.235   2.743   2.840 -0.2224  0.1499 -0.3707
  453WAT     H1 1570   3.195   2.764   2.755  0.7605  0.9412 -0.6584
  453WAT     H2 1571   3.260   2.828   2.876  0.2116 -0.2515  0.2904
  454WAT      O 1572   0.917   3.699   3.414 -0.2401 -0.3070 -0.3604
  454WAT     H1 1573   0.935   3.793   3.411  3.8504 -0.9232 -2.5548
  454WAT     H2 1574   0.858   3.683   3.340  0.3562  0.3675 -0.9910
  455WAT      O 1575   4.373   5.001   4.821  0.3497  0.1985 -0.0602
  455WAT     H1 1576   4.449   4.996   4.880  0.4560  0.6435 -0.1507
  455WAT     H2 1577   4.299   5.016   4.879  0.6722  2.3654 -0.1213
  456WAT      O 1578   2.028   0.779   5.076 -0.0034 -0.1372  0.4033
  456WAT     H1 1579   2.118   0.808   5.090  1.0132 -2.7206 -0.1523
  456WAT     H2 1580   2.020   0.771   4.980  0.0142 -2.0992  0.5164
  457WAT      O 1581   3.444   4.661   3.816 -0.6230  0.1269  0.0259
  457WAT     H1 1582   3.476   4.738   3.769 -0.4010  0.9592  1.4578
  457WAT     H2 1583   3.479   4.587   3.767  1.5184  0.9771  0.1290
  458WAT      O 1584   0.407   4.651   2.584 -0.5033 -0.3826  0.2669
  458WAT     H1 1585   0.318   4.634   2.555 -1.0670  1.4391  0.7855
  458WAT     H2 1586   0.406   4.743   2.611  1.9807  0.2141 -1.3752
  459WAT      O 1587   3.874   0.801   1.394  0.3653 -0.0845  0.3540
  459WAT     H1 1588   3.843   0.746   1.466  1.2922  1.2304  1.8445
  459WAT     H2 1589   3.816   0.781   1.321 -2.6362  0.7725  2.3503
  460WAT      O 1590   4.172   0.261   0.052  0.0781  0.0319 -0.0227
  460WAT     H1 1591   4.181   0.356   0.044  0.5623 -0.1383 -1.7226
  460WAT     H2 1592   4.239   0.225  -0.006 -0.0931 -1.3603  0.6040
  461WAT      O 1593   4.111   1.066   3.078  0.1044  0.3739 -0.2838
  461WAT     H1 1594   4.092   1.034   3.166 -1.3329 -0.2047 -0.7648
  461WAT     H2 1595   4.126   0.987   3.026 -1.9747  0.4745 -1.1560
  462WAT      O 1596   3.345   2.847   2.562 -0.2529  0.6250  0.0680
  462WAT     H1 1597   3.266   2.899   2.571 -1.9546 -1.8840  0.9275
  462WAT     H2 1598   3.318   2.759   2.588  2.6903 -0.4747 -0.2262
  463WAT      O 1599   1.088   4.565   2.286  0.3526 -0.0393 -0.1490
  463WAT     H1 1600   1.151   4.619   2.239 -0.2618  0.3565 -0.5304
  463WAT     H2 1601   1.141   4.512   2.346  1.1823 -0.7599 -1.4804
  464WAT      O 1602   3.698   1.855   4.313  0.1346  0.3850 -0.6998
  464WAT     H1 1603   3.677   1.944   4.286 -0.6364  0.7796  1.0476
  464WAT     H2 1604   3.720   1.862   4.406  0.4643 -1.1886 -0.6212
  465WAT      O 1605   1.900   4.646   2.154 -0.0647 -0.0961 -0.1681
  465WAT     H1 1606   1.915   4.696   2.074 -0.5977 -0.6168 -0.6079
  465WAT     H2 1607   1.818   4.681   2.189 -0.6433 -0.8892 -0.6822
  466WAT      O 1608   4.381   0.644   0.730 -0.7536  0.0930 -0.0741
  466WAT     H1 1609   4.381   0.699   0.809 -0.4872 -0.6999  0.4964
  466WAT     H2 1610   4.309   0.678   0.677  0.5924  2.2438 -0.6539
  467WAT      O 1611   4.062   0.878   5.261 -0.2005 -0.2347  0.5535
  467WAT     H1 1612   4.151   0.874   5.224  0.0321  0.8778  0.9524
  467WAT     H2 1613   4.074   0.919   5.347 -0.8227 -2.1586  1.6133
  468WAT      O 1614   1.572   0.561   1.646  0.2921  0.3330 -0.0514
  468WAT     H1 1615   1.516   0.632   1.676 -0.3532  0.8886 -2.4243
  468WAT     H2 1616   1.516   0.484   1.646  0.3084  0.3188  0.1387
  469WAT      O 1617   1.914   2.684   0.742  0.5766 -0.1408  0.8238
  469WAT     H1 1618   1.921   2.644   0.828 -0.1522 -0.2033  0.8613
  469WAT     H2 1619   1.967   2.628   0.685 -1.2407 -1.8034  0.6681
  470WAT      O 1620   3.723   3.181   2.232 -0.3476 -0.4265 -0.0109
  470WAT     H1 1621   3.765   3.179   2.319 -0.1060 -1.7251 -0.1384
  470WAT     H2 1622   3.660   3.254   2.238  1.5963  1.3196  0.3213
  471WAT      O 1623   4.089   3.455   3.237 -0.5580  0.0868 -0.1884
  471WAT     H1 1624   4.011   3.451   3.292  0.3673 -0.2100  1.1525
  471WAT     H2 1625   4.156   3.411   3.288  0.4009 -0.0360 -1.4950
  472WAT      O 1626   0.430   5.089   1.218  0.4446  0.2974  0.0990
  472WAT     H1 1627   0.455   5.077   1.310 -1.8372 -0.2550  0.7125
  472WAT     H2 1628   0.512   5.081   1.170  1.5735 -0.3263  2.0075
  473WAT      O 1629   2.302   2.513   5.062  0.3326  0.0352  0.1956
  473WAT     H1 1630   2.372   2.518   5.127 -0.2082 -1.7736  0.9508
  473WAT     H2 1631   2.268   2.424   5.069 -0.0335 -0.1010 -2.2794
  474WAT      O 1632   2.040   3.897   3.767 -0.0714 -0.3520  0.2132
  474WAT     H1 1633   1.980   3.823   3.762 -0.9721  0.2204  1.8825
  474WAT     H2 1634   2.012   3.955   3.697  0.5118 -1.4536 -0.9785
  475WAT      O 1635   2.732   3.430   5.046  0.0733 -0.0272  0.1657
  475WAT     H1 1636   2.717   3.337   5.059 -0.6160  0.2202  1.3462
  475WAT     H2 1637   2.827   3.440   5.051  0.1862 -0.7199 -0.4564
  476WAT      O 1638   3.182   3.436   4.578  0.4285 -0.2183  0.0116
  476WAT     H1 1639   3.250   3.376   4.607  0.5604  0.1515  0.4857
  476WAT     H2 1640   3.100   3.388   4.595  0.5328 -0.2803  0.3600
  477WAT      O 1641   2.481   3.457   1.653 -0.1603 -0.1967  0.1209
  477WAT     H1 1642   2.556   3.420   1.700 -1.8126 -1.3572  2.0431
  477WAT     H2 1643   2.516   3.532   1.606  1.9187  0.2822  2.2567
  478WAT      O 1644   0.062   1.852   3.740 -0.3854 -0.5872  0.2617
  478WAT     H1 1645   0.112   1.934   3.739  0.0023 -0.8169  0.4199
  478WAT     H2 1646   0.119   1.788   3.697  0.5142 -1.4338  2.5131
  479WAT      O 1647   0.920   4.081   4.414 -0.0676  0.0027  0.2423
  479WAT     H1 1648   0.963   4.162   4.385  0.5087 -0.6857 -0.9285
  479WAT     H2 1649   0.841   4.111   4.459 -0.4635  1.2168 -1.1479
  480WAT      O 1650   2.484   3.583   3.156  0.2547  0.8533  0.0244
  480WAT     H1 1651   2.412   3.645   3.157 -0.5431  0.0918  3.5954
  480WAT     H2 1652   2.560   3.634   3.185 -0.2990  0.4222  2.4776
  481WAT      O 1653   2.365   4.203   1.216  0.1904 -0.3586  0.0914
  481WAT     H1 1654   2.428   4.228   1.148 -0.0143 -2.5949 -0.9944
  481WAT     H2 1655   2.287   4.255   1.196 -0.1140 -1.4944 -1.8682
  482WAT      O 1656   3.872   4.493   3.858 -0.1728  0.6338 -0.1610
  482WAT     H1 1657   3.946   4.444   3.895 -0.3262 -0.2718 -0.9956
  482WAT     H2 1658   3.884   4.582   3.890  0.2997  0.1293  1.1509
  483WAT      O 1659   2.115   2.720   1.503  0.2658 -0.1747  0.1294
  483WAT     H1 1660   2.127   2.808   1.466  0.7382 -0.6438 -0.8595
  483WAT     H2 1661   2.023   2.700   1.487  0.3317 -0.1473 -0.2870
  484WAT      O 1662   3.805   0.134   4.479 -0.0982 -0.6342 -0.1417
  484WAT     H1 1663   3.886   0.128   4.530 -0.7737 -1.2681  0.9088
  484WAT     H2 1664   3.795   0.227   4.460  0.9185 -0.5591 -0.3734
  485WAT      O 1665   4.435   0.349   0.315 -0.0724  0.3243 -0.1491
  485WAT     H1 1666   4.381   0.292   0.370 -1.7913  0.2634 -1.8304
  485WAT     H2 1667   4.472   0.290   0.249 -0.5428  0.8880 -0.9181
  486WAT      O 1668   2.364   3.315   3.246 -0.4477 -0.2039 -0.1153
  486WAT     H1 1669   2.313   3.283   3.172  0.2281 -0.6935 -0.3750
  486WAT     H2 1670   2.400   3.399   3.216 -0.3133 -0.3206 -0.2815
  487WAT      O 1671   1.350   3.382   2.619 -0.2819 -0.3316 -0.0261
  487WAT     H1 1672   1.386   3.443   2.554 -2.7099  1.8349  0.5006
  487WAT     H2 1673   1.385   3.297   2.593  2.1498  1.0411 -1.6604
  488WAT      O 1674   1.344   1.930   3.563  0.2137  0.1641  0.2727
  488WAT     H1 1675   1.405   1.945   3.636  2.4498 -3.1513 -0.6694
  488WAT     H2 1676   1.259   1.919   3.605  0.1579  4.4627  1.7029
  489WAT      O 1677   1.778   0.148   0.658 -0.4277  0.3818 -0.2629
  489WAT     H1 1678   1.788   0.240   0.634 -1.7057  1.0794  1.6490
  489WAT     H2 1679   1.832   0.138   0.736 -0.1569 -0.5672 -0.5531
  490WAT      O 1680   0.146   0.993   4.765 -0.4075 -0.5468 -0.2989
  490WAT     H1 1681   0.149   1.088   4.758 -0.2724 -0.5979 -0.9488
  490WAT     H2 1682   0.225   0.963   4.720  0.8500 -0.8669  1.9459
  491WAT      O 1683   4.225   4.916   0.113 -0.9158  0.3540 -0.2709
  491WAT     H1 1684   4.167   4.925   0.189  0.7770 -1.1857  1.3029
  491WAT     H2 1685   4.291   4.984   0.124 -0.5753  0.0291 -0.2613
  492WAT      O 1686   3.709   0.747   1.185 -0.1729 -0.3446  0.0921
  492WAT     H1 1687   3.698   0.841   1.170 -0.1781 -0.3071  0.3338
  492WAT     H2 1688   3.690   0.707   1.100  0.6999 -0.0687 -0.2323
  493WAT      O 1689   1.133   3.036   4.394  0.1884 -0.6560  0.4043
  493WAT     H1 1690   1.058   2.995   4.350 -0.4640 -1.1343  1.8680
  493WAT     H2 1691   1.113   3.129   4.394  0.0097 -0.6942  0.0221
  494WAT      O 1692   2.274   1.949   1.853 -0.1983 -0.2695 -0.1926
  494WAT     H1 1693   2.339   1.988   1.912 -0.7541 -0.4301  0.5511
  494WAT     H2 1694   2.323   1.883   1.804  0.0730 -0.8838  0.8558
  495WAT      O 1695   3.430   1.392   4.475  0.1657  0.4530 -0.5670
  495WAT     H1 1696   3.458   1.483   4.460  3.4062 -0.5684 -1.7255
  495WAT     H2 1697   3.460   1.372   4.564 -0.2344  0.4358 -0.4380
  496WAT      O 1698   0.079   2.345   2.385  0.0207  0.4756  0.2955
  496WAT     H1 1699   0.099   2.358   2.293 -2.5318  1.1504 -0.2357
  496WAT     H2 1700   0.090   2.251   2.400 -3.5785 -0.4975 -1.8976
  497WAT      O 1701   4.024   2.324   2.443  0.4190 -0.1983  0.0393
  497WAT     H1 1702   4.092   2.326   2.510  0.4126  0.3151  0.0306
  497WAT     H2 1703   4.051   2.391   2.380  0.4770 -0.7336 -0.5265
  498WAT      O 1704   1.443   3.465   1.539  0.4359  0.1943 -0.1801
  498WAT     H1 1705   1.349   3.449   1.537  0.1405  1.8652 -0.4612
  498WAT     H2 1706   1.481   3.378   1.527 -1.0750 -0.3954 -1.0446
  499WAT      O 1707   1.539   0.397   3.530  0.4081 -0.3240  0.0700
  499WAT     H1 1708   1.457   0.350   3.544  0.6920 -0.7819  0.2432
  499WAT     H2 1709   1.538   0.421   3.438  0.3288 -0.8134 -0.0597
  500WAT      O 1710   0.748   2.167   0.620  0.4894 -0.3396  0.1757
  500WAT     H1 1711   0.742   2.111   0.697  2.5197 -2.4033 -1.0280
  500WAT     H2 1712   0.658   2.174   0.588 -0.0036 -1.8438  1.1258
  501WAT      O 1713   0.170   3.657   0.311  0.7120 -0.4936  0.3606
  501WAT     H1 1714   0.249   3.687   0.268 -0.0800 -0.3168 -1.0193
  501WAT     H2 1715   0.149   3.574   0.268  0.2179 -0.6105  0.8060
  502WAT      O 1716   2.419   1.851   0.169  0.5603  0.4811  0.5320
  502WAT     H1 1717   2.468   1.909   0.111 -1.6577  0.3423 -1.6356
  502WAT     H2 1718   2.430   1.764   0.130 -1.8090  0.5355 -0.3967
  503WAT      O 1719   0.131   1.800   1.761  0.3160  0.6583 -0.1690
  503WAT     H1 1720   0.142   1.838   1.848  0.7024  0.6924 -0.2287
  503WAT     H2 1721   0.043   1.825   1.735  0.0295  0.2706  0.3958
  504WAT      O 1722   2.189   1.175   1.794 -0.1540 -0.1498 -0.1866
  504WAT     H1 1723   2.273   1.195   1.754 -0.8282 -0.3493 -1.8021
  504WAT     H2 1724   2.176   1.244   1.860  1.0730  0.1109 -0.2016
  505WAT      O 1725   4.071   2.846   0.574 -0.5796  0.1889 -0.0781
  505WAT     H1 1726   4.136   2.776   0.588  0.1627  1.0420  0.9548
  505WAT     H2 1727   4.095   2.884   0.490 -1.5767 -1.3794 -1.1122
  506WAT      O 1728   4.303   1.516   4.817 -0.7597 -0.6536  0.6654
  506WAT     H1 1729   4.356   1.446   4.855  1.2911 -0.9017 -2.2821
  506WAT     H2 1730   4.305   1.498   4.722 -1.6220  2.4110 -0.0382
  507WAT      O 1731   0.211   1.018   3.100 -0.2944 -0.1713  0.3204
  507WAT     H1 1732   0.191   1.027   3.007  0.0865 -2.0844  0.0076
  507WAT     H2 1733   0.167   0.936   3.126  0.2434 -0.0674  1.6238
  508WAT      O 1734   2.150   0.343   2.732 -0.2753  0.3585 -0.0727
  508WAT     H1 1735   2.065   0.387   2.732 -0.4450  0.0612  1.0798
  508WAT     H2 1736   2.186   0.359   2.819  0.9694  0.6753 -0.6240
  509WAT      O 1737   0.630   3.189   0.234 -0.0945 -0.2085  0.1711
  509WAT     H1 1738   0.647   3.227   0.148  0.8483 -1.0207 -0.0118
  509WAT     H2 1739   0.577   3.111   0.216  1.5341 -1.3421  0.1501
  510WAT      O 1740   1.157   0.547   4.077 -0.6320 -0.0461 -0.1602
  510WAT     H1 1741   1.209   0.609   4.128  1.0037 -1.6822  0.2800
  510WAT     H2 1742   1.089   0.517   4.137 -0.2720 -0.0547  0.2528
  511WAT      O 1743   0.520   0.144   2.583  0.3040  0.2879 -0.4317
  511WAT     H1 1744   0.470   0.126   2.662 -0.1619  1.1691 -0.5229
  511WAT     H2 1745   0.599   0.090   2.592 -0.9359 -1.6591 -0.6191
  512WAT      O 1746   0.740   1.688   3.397  0.3962 -0.0696 -0.2179
  512WAT     H1 1747   0.685   1.710   3.321 -0.7519 -0.2751  0.5186
  512WAT     H2 1748   0.830   1.697   3.365 -0.0474 -1.1027 -1.8915
  513WAT      O 1749   0.201   1.018   1.297 -0.4582 -0.1147 -0.1284
  513WAT     H1 1750   0.155   1.076   1.359  2.1944  0.1280  1.8142
  513WAT     H2 1751   0.133   0.987   1.238 -3.1000  0.1368  2.5438
  514WAT      O 1752   4.384   0.869   3.215  0.1551  0.6312  0.3301
  514WAT     H1 1753   4.457   0.844   3.272  1.0536  0.3728 -0.8850
  514WAT     H2 1754   4.412   0.951   3.174  0.2246  0.0341 -0.8818
  515WAT      O 1755   0.841   4.393   2.780  0.0875 -0.4876 -0.0012
  515WAT     H1 1756   0.746   4.394   2.772 -0.0957 -2.1903  1.5325
  515WAT     H2 1757   0.872   4.427   2.695 -1.8501  2.2700  0.2543
  516WAT      O 1758   3.030   3.320   2.512 -0.2379 -0.4807  0.5594
  516WAT     H1 1759   3.077   3.257   2.567 -0.9749 -2.4335 -0.9310
  516WAT     H2 1760   3.086   3.333   2.436 -0.2957  0.3373  0.6488
  517WAT      O 1761   0.839   1.690   0.550  0.0141  0.9626  0.3036
  517WAT     H1 1762   0.769   1.631   0.523  0.1967  0.1126  1.5998
  517WAT     H2 1763   0.850   1.749   0.476  0.1320 -0.8956 -1.2304
  518WAT      O 1764   1.954   1.274   4.226 -0.1978 -0.8524  0.3147
  518WAT     H1 1765   2.047   1.291   4.214 -1.0165  3.0691 -2.5463
  518WAT     H2 1766   1.937   1.194   4.175  1.6687 -2.4082  1.9820
  519WAT      O 1767   2.457   1.230   3.077  0.6459 -0.6066 -0.9505
  519WAT     H1 1768   2.499   1.203   3.159 -0.7632  0.4871  0.1914
  519WAT     H2 1769   2.436   1.148   3.032  0.1325 -1.3008  0.4925
  520WAT      O 1770   3.875   1.229   2.417 -0.5687  0.3319 -0.3134
  520WAT     H1 1771   3.941   1.165   2.390 -0.3861  0.5988 -0.5014
  520WAT     H2 1772   3.891   1.305   2.361  0.0450  1.0407  0.7849
  521WAT      O 1773   1.624   3.297   2.449  0.0157  0.4511 -0.5135
  521WAT     H1 1774   1.680   3.267   2.378 -0.5908  0.0572 -0.8333
  521WAT     H2 1775   1.550   3.237   2.448  0.1461  0.2496  0.6495
  522WAT      O 1776   1.429   2.703   4.687 -0.5467  0.4357 -0.0080
  522WAT     H1 1777   1.431   2.735   4.596 -1.6822  1.4276  0.2981
  522WAT     H2 1778   1.344   2.662   4.695 -0.3181  0.0662  0.5307
  523WAT      O 1779   3.430   0.274   4.982 -0.5412 -0.2806  0.9681
  523WAT     H1 1780   3.403   0.312   4.899 -0.6196  0.1267  1.1811
  523WAT     H2 1781   3.505   0.218   4.959  0.0769  0.6144  0.7724
  524WAT      O 1782   0.373   2.356   1.885  0.0661  0.1868  0.1776
  524WAT     H1 1783   0.288   2.345   1.928  0.1611  0.4268  0.4349
  524WAT     H2 1784   0.375   2.289   1.818 -0.7050  0.7550 -0.4341
  525WAT      O 1785   0.902   0.287   1.852 -0.1085 -0.5761  0.4380
  525WAT     H1 1786   0.841   0.214   1.855 -0.5524 -0.1870  2.1398
  525WAT     H2 1787   0.989   0.246   1.854 -0.3387 -1.0745  0.3337
  526WAT      O 1788   3.161   0.207   2.888  0.1888 -0.0973  0.0190
  526WAT     H1 1789   3.167   0.279   2.951  1.1095  0.6065 -0.8328
  526WAT     H2 1790   3.159   0.250   2.803 -0.8356 -1.0430 -0.4538
  527WAT      O 1791   3.978   0.796   3.672  0.0715 -0.2316 -0.0859
  527WAT     H1 1792   4.016   0.882   3.654 -0.6209 -0.2756 -2.0062
  527WAT     H2 1793   3.886   0.815   3.692 -0.2517 -0.5472 -1.2050
  528WAT      O 1794   2.019   3.455   4.051  0.1861  0.0070 -0.6685
  528WAT     H1 1795   1.970   3.507   4.116 -2.5202 -1.0268 -1.7441
  528WAT     H2 1796   2.109   3.486   4.059 -0.3408  1.0830  2.4016
  529WAT      O 1797   4.102   1.521   3.403 -0.3359  0.3152 -0.1404
  529WAT     H1 1798   4.104   1.431   3.433 -1.0731  0.9027  1.8212
  529WAT     H2 1799   4.030   1.524   3.340 -0.0681 -0.5234 -0.4973
  530WAT      O 1800   1.173   3.222   3.037 -0.7378 -0.0681  0.6600
  530WAT     H1 1801   1.148   3.176   2.957 -1.7552 -1.2615  1.6337
  530WAT     H2 1802   1.090   3.250   3.075 -0.1860  2.0782  0.4325
  531WAT      O 1803   3.570   3.794   3.649 -0.1731 -0.0621 -0.4939
  531WAT     H1 1804   3.507   3.858   3.681 -0.0609 -0.1908  0.0067
  531WAT     H2 1805   3.606   3.754   3.729  0.3047 -0.2145 -0.7780
  532WAT      O 1806   3.702   2.133   0.029  0.3643 -0.1117  0.5407
  532WAT     H1 1807   3.635   2.078   0.068 -0.4776  0.6656  0.2311
  532WAT     H2 1808   3.660   2.171  -0.049  1.3319 -0.0239  0.0399
  533WAT      O 1809   0.665   3.130   4.686  0.1045 -0.0509 -0.0084
  533WAT     H1 1810   0.726   3.067   4.726 -0.2719 -0.3571  0.0942
  533WAT     H2 1811   0.579   3.103   4.719 -0.4404 -1.2920 -2.2304
  534WAT      O 1812   3.498   4.793   3.469 -0.3763 -0.5227  0.5799
  534WAT     H1 1813   3.559   4.828   3.534 -0.0836  1.3676 -0.6296
  534WAT     H2 1814   3.546   4.800   3.386 -0.6205 -3.1787  0.1485
  535WAT      O 1815   2.971   4.841   1.443 -0.0893 -0.1446  0.3366
  535WAT     H1 1816   2.960   4.932   1.415 -0.1260 -0.5973 -1.1813
  535WAT     H2 1817   3.041   4.807   1.387 -0.7465 -1.3327  0.2089
  536WAT      O 1818   1.371   0.888   2.864  0.7189  0.0551 -0.1474
  536WAT     H1 1819   1.304   0.906   2.798  0.7780 -0.0003 -0.2234
  536WAT     H2 1820   1.441   0.845   2.815  0.4333 -0.6936  0.0899
  537WAT      O 1821   3.200   4.910   3.816  0.6511 -0.7266 -0.1289
  537WAT     H1 1822   3.174   4.858   3.740  0.4539 -0.3711 -0.3046
  537WAT     H2 1823   3.296   4.911   3.812  0.6280  1.6559 -2.0055
  538WAT      O 1824   2.177   0.600   1.958  0.0821 -0.1126  0.2518
  538WAT     H1 1825   2.235   0.589   1.882 -0.6173  1.4484 -0.5657
  538WAT     H2 1826   2.110   0.533   1.947  1.6067 -1.8851  1.1578
  539WAT      O 1827   3.657   3.782   5.066  0.1538  0.6702 -0.3121
  539WAT     H1 1828   3.703   3.701   5.044  1.6264  1.9132 -2.2025
  539WAT     H2 1829   3.606   3.761   5.144 -1.0108 -2.5695 -1.7975
  540WAT      O 1830   2.177   4.105   0.622  0.7283 -1.0031  0.0574
  540WAT     H1 1831   2.108   4.043   0.647 -1.4541  1.0665 -0.4752
  540WAT     H2 1832   2.199   4.150   0.704 -0.5976  0.2020 -0.2019
  541WAT      O 1833   0.945   1.292   2.889 -0.1789 -0.0115  0.6394
  541WAT     H1 1834   0.867   1.290   2.945 -0.0667 -2.3026  0.7866
  541WAT     H2 1835   1.006   1.349   2.936 -0.6528 -0.6364  2.0781
  542WAT      O 1836   0.977   0.867   4.726  0.0257  0.8496  0.4255
  542WAT     H1 1837   0.896   0.858   4.676  0.9096 -0.0462 -0.9448
  542WAT     H2 1838   0.950   0.864   4.817 -1.3247 -1.4017  0.0272
  543WAT      O 1839   3.804   3.787   1.450 -0.0300  0.5639 -0.3638
  543WAT     H1 1840   3.853   3.744   1.520 -1.2380  0.3132  0.3519
  543WAT     H2 1841   3.870   3.808   1.384  1.0368  0.2690  0.5828
  544WAT      O 1842   1.754   0.967   2.887 -0.4341 -0.2042 -0.5756
  544WAT     H1 1843   1.810   0.984   2.812  0.9898 -2.1076  0.0011
  544WAT     H2 1844   1.802   1.003   2.962 -2.2218  2.4682 -0.5381
  545WAT      O 1845   3.368   0.697   4.268  0.3895 -0.0026  0.1878
  545WAT     H1 1846   3.360   0.765   4.335 -2.0239  0.2454 -0.2587
  545WAT     H2 1847   3.318   0.731   4.194  0.8908 -1.3777 -0.8197
  546WAT      O 1848   2.303   2.285   4.017 -0.4887 -0.5048  0.4277
  546WAT     H1 1849   2.342   2.372   4.028 -2.2229  0.2773  0.6866
  546WAT     H2 1850   2.277   2.260   4.105  0.1119 -1.3534  0.3693
  547WAT      O 1851   3.978   2.698   2.255  0.2949  0.0403 -0.4573
  547WAT     H1 1852   3.927   2.731   2.329 -1.4354 -2.5585 -0.3532
  547WAT     H2 1853   3.946   2.748   2.179 -0.2653  0.4883  0.0648
  548WAT      O 1854   1.163   0.773   2.675 -0.1063  0.1924 -0.0699
  548WAT     H1 1855   1.164   0.856   2.626 -0.8787 -0.0629 -0.5318
  548WAT     H2 1856   1.232   0.720   2.634  0.9448  0.8757  0.7431
  549WAT      O 1857   4.018   3.112   4.442 -0.1616 -0.2326 -0.3118
  549WAT     H1 1858   4.061   3.177   4.498 -0.2414 -1.1459  0.8537
  549WAT     H2 1859   4.079   3.100   4.369  1.0351 -0.6112  0.7018
  550WAT      O 1860   3.756   4.793   1.307 -0.1108 -0.0626  0.7302
  550WAT     H1 1861   3.722   4.798   1.396 -0.0339 -0.0525  0.7585
  550WAT     H2 1862   3.678   4.803   1.252 -0.5530 -2.5799  0.7876
  551WAT      O 1863   0.624   3.559   0.272  0.2045 -0.3011 -0.6549
  551WAT     H1 1864   0.714   3.536   0.249  0.2775  0.3763 -1.0600
  551WAT     H2 1865   0.632   3.620   0.345 -0.0052 -1.8101  0.6995
  552WAT      O 1866   4.181   0.589   2.718  0.2451 -0.1080  0.4337
  552WAT     H1 1867   4.177   0.672   2.766  0.2035 -0.4380  1.0185
  552WAT     H2 1868   4.192   0.523   2.787  3.4769 -0.3404 -0.1635
  553WAT      O 1869   0.642   3.547   1.024 -0.0453 -0.4260 -0.2095
  553WAT     H1 1870   0.547   3.562   1.027  0.4661  3.6373  0.6477
  553WAT     H2 1871   0.672   3.595   0.947  1.5959  0.7293  1.0912
  554WAT      O 1872   0.799   2.838   3.828  0.1326 -0.1200 -0.3620
  554WAT     H1 1873   0.852   2.769   3.789  1.2973  0.2766  0.4832
  554WAT     H2 1874   0.808   2.912   3.768 -1.4232 -0.7720 -1.4714
  555WAT      O 1875   3.710   2.176   3.387 -0.1988 -0.4032 -0.5173
  555WAT     H1 1876   3.648   2.144   3.322  0.7641 -3.5641 -0.0118
  555WAT     H2 1877   3.791   2.191   3.339  0.2629 -1.9069 -0.2531
  556WAT      O 1878   1.304   4.151   3.485  0.1754 -0.6114  0.5549
  556WAT     H1 1879   1.357   4.073   3.471  0.1163 -0.4027 -1.0401
  556WAT     H2 1880   1.262   4.167   3.401 -1.3892 -0.0024  1.4011
  557WAT      O 1881   0.947   4.175   5.156 -0.1615  0.4784 -0.3732
  557WAT     H1 1882   0.921   4.089   5.122  0.5857 -0.1008  0.4975
  557WAT     H2 1883   0.909   4.237   5.093  0.4568 -0.5292 -1.7904
  558WAT      O 1884   3.275   1.304   1.078  0.0081  0.3686 -0.0491
  558WAT     H1 1885   3.275   1.320   1.173  1.7366 -0.7569  0.1860
  558WAT     H2 1886   3.367   1.290   1.056 -0.5456 -1.2647 -1.5743
  559WAT      O 1887   2.059   3.669   3.533  0.6112  0.3548 -0.5052
  559WAT     H1 1888   2.070   3.613   3.457 -0.4507  1.1312 -1.2542
  559WAT     H2 1889   2.070   3.610   3.608  0.2707 -0.6954 -1.2571
  560WAT      O 1890   3.931   2.929   2.138  0.4404  0.1413  0.4364
  560WAT     H1 1891   3.864   2.946   2.072  0.1295 -0.2587  0.6409
  560WAT     H2 1892   3.978   3.012   2.148  3.6809 -0.8128 -3.7415
  561WAT      O 1893   2.283   0.310   2.476 -0.1128  0.2115  0.2933
  561WAT     H1 1894   2.343   0.384   2.482 -0.3081  0.4333 -0.3210
  561WAT     H2 1895   2.236   0.310   2.559  0.9893 -0.1953  0.9270
  562WAT      O 1896   0.661   5.112   2.771 -0.2531 -0.2548  0.3931
  562WAT     H1 1897   0.711   5.186   2.806  2.6833 -1.1405 -1.5609
  562WAT     H2 1898   0.705   5.035   2.806 -0.4453 -1.0950 -1.1317
  563WAT      O 1899   0.476   0.517   0.911  0.2718 -0.6725  0.0807
  563WAT     H1 1900   0.424   0.578   0.963  0.7391 -0.3963  0.2348
  563WAT     H2 1901   0.489   0.441   0.967 -0.3693 -0.9465 -0.1359
  564WAT      O 1902   1.471   3.767   0.999  0.0538  0.3724  0.1850
  564WAT     H1 1903   1.393   3.785   0.947  1.0165  2.6967 -0.6378
  564WAT     H2 1904   1.446   3.790   1.089 -0.2241  1.1743 -0.0831
  565WAT      O 1905   0.224   3.732   2.633  0.4398 -0.6653 -0.4167
  565WAT     H1 1906   0.161   3.671   2.596 -0.2873  0.0106 -0.3076
  565WAT     H2 1907   0.306   3.682   2.635 -0.3473 -1.9875  0.6455
  566WAT      O 1908   2.875   1.049   1.844 -0.6046 -0.2535 -0.5520
  566WAT     H1 1909   2.857   1.097   1.763 -1.1573  2.2355  0.9357
  566WAT     H2 1910   2.788   1.036   1.883 -0.1989  1.2982  1.0218
  567WAT      O 1911   2.881   3.925   2.656  0.3660 -0.1291  0.3336
  567WAT     H1 1912   2.946   3.874   2.704 -0.6905 -0.9110  0.9675
  567WAT     H2 1913   2.834   3.973   2.724  1.5909  2.0641 -0.2641
  568WAT      O 1914   0.637   1.296   2.625 -0.2609 -0.1497 -0.0888
  568WAT     H1 1915   0.721   1.312   2.582  0.0530  1.0437  0.9037
  568WAT     H2 1916   0.644   1.206   2.659 -0.4326 -1.0357 -2.2457
  569WAT      O 1917   0.370   1.156   0.171 -0.0730 -0.7226 -0.2514
  569WAT     H1 1918   0.461   1.126   0.180  0.6375  1.1725 -0.5668
  569WAT     H2 1919   0.362   1.225   0.237 -0.0103  1.8135 -2.7371
  570WAT      O 1920   3.911   2.854   3.221 -0.1805 -0.1266 -0.3536
  570WAT     H1 1921   3.949   2.792   3.284 -0.2508 -0.3855 -0.5660
  570WAT     H2 1922   3.986   2.902   3.187  0.0006 -0.8424 -0.9953
  571WAT      O 1923   1.001   4.835   1.236  0.6573 -0.3933  0.2096
  571WAT     H1 1924   1.082   4.808   1.193  1.4136  0.6555  0.9385
  571WAT     H2 1925   0.951   4.879   1.167  1.0139 -0.4303 -0.0747
  572WAT      O 1926   1.554   3.910   2.999  0.6049  0.1089  0.1075
  572WAT     H1 1927   1.474   3.905   2.946 -0.0968  1.2930  1.0086
  572WAT     H2 1928   1.587   3.820   3.000 -0.1735 -0.2207 -1.0908
  573WAT      O 1929   2.506   4.968   3.072  0.0935  0.3056 -0.3973
  573WAT     H1 1930   2.426   4.924   3.041 -0.0509 -0.8509  1.4717
  573WAT     H2 1931   2.577   4.916   3.036 -0.0045  0.4420 -0.8015
  574WAT      O 1932   3.408   1.897   3.089  0.3225 -0.0321 -0.2900
  574WAT     H1 1933   3.346   1.949   3.038 -0.4673 -1.4872 -0.9007
  574WAT     H2 1934   3.470   1.862   3.025  1.0178  0.3830  0.1451
  575WAT      O 1935   2.731   0.260   0.556  0.2823 -0.7765  0.1419
  575WAT     H1 1936   2.644   0.298   0.567  0.5790 -0.0555  0.0434
  575WAT     H2 1937   2.718   0.186   0.497  0.0732  0.6501 -1.6662
  576WAT      O 1938   3.522   1.306   4.741 -0.1086  0.2656  0.2581
  576WAT     H1 1939   3.500   1.223   4.784 -0.7423  0.8898  1.1938
  576WAT     H2 1940   3.618   1.309   4.742 -0.0362 -0.9566 -0.8076
  577WAT      O 1941   0.991   0.194   4.075 -0.4597 -0.1988  0.7373
  577WAT     H1 1942   0.917   0.213   4.132 -1.8341 -1.5349 -0.5183
  577WAT     H2 1943   0.961   0.122   4.020  1.5694 -0.3694 -0.2283
  578WAT      O 1944   2.661   4.284   2.146 -0.2275  0.1267  0.1153
  578WAT     H1 1945   2.693   4.374   2.144 -0.7850  0.3232 -0.3902
  578WAT     H2 1946   2.565   4.293   2.139 -0.2606 -0.5166 -0.3213
  579WAT      O 1947   3.849   4.301   2.717  0.5815  0.6851  0.3228
  579WAT     H1 1948   3.837   4.394   2.735  1.1159  0.7290  0.4680
  579WAT     H2 1949   3.935   4.295   2.677 -0.2693  0.4932 -1.5941
  580WAT      O 1950   4.395   1.452   1.463 -0.0602 -0.3839 -0.8543
  580WAT     H1 1951   4.447   1.430   1.385  2.4542  2.4407 -0.1906
  580WAT     H2 1952   4.455   1.438   1.536 -0.2757  2.4582  0.0159
  581WAT      O 1953   1.422   3.554   3.403  0.4405  0.0244 -0.2667
  581WAT     H1 1954   1.400   3.593   3.487 -0.0042 -1.0684  0.1410
  581WAT     H2 1955   1.338   3.540   3.360  0.6355  0.1326 -0.6903
  582WAT      O 1956   0.038   2.526   3.357  0.1688 -0.0515 -0.0968
  582WAT     H1 1957   0.082   2.605   3.390 -0.5064 -0.2110  1.2408
  582WAT     H2 1958   0.109   2.465   3.337  0.6166  0.2263  0.6318
  583WAT      O 1959   1.372   0.405   5.261 -0.1723  0.2794  0.6415
  583WAT     H1 1960   1.280   0.410   5.235 -0.2383  2.1649  1.0969
  583WAT     H2 1961   1.375   0.449   5.346  1.3758  1.5692 -0.0454
  584WAT      O 1962   4.293   2.644   0.662 -0.3498  0.0041  0.7855
  584WAT     H1 1963   4.347   2.600   0.727 -0.9684 -0.9153  0.6877
  584WAT     H2 1964   4.300   2.590   0.583 -1.4334 -0.1595  0.7856
  585WAT      O 1965   3.659   0.770   2.242  0.0894  0.1153  0.2650
  585WAT     H1 1966   3.654   0.763   2.146  0.1755  0.7642  0.2111
  585WAT     H2 1967   3.580   0.726   2.273 -1.1940  1.9825 -0.2111
  586WAT      O 1968   0.941   3.155   0.246  0.1986  0.2418 -0.3485
  586WAT     H1 1969   0.964   3.191   0.332 -1.2584 -1.2259  0.7048
  586WAT     H2 1970   0.846   3.158   0.243  0.1563 -1.1579 -1.2594
  587WAT      O 1971   1.354   2.867   2.417 -0.6593  0.8612  0.1621
  587WAT     H1 1972   1.272   2.856   2.369 -0.1498  1.0265 -0.7851
  587WAT     H2 1973   1.381   2.777   2.438 -2.1141  0.8691  2.3586
  588WAT      O 1974   1.048   4.297   2.925 -0.3629 -0.0341  0.1340
  588WAT     H1 1975   0.980   4.342   2.874  0.4581 -0.4270 -1.3725
  588WAT     H2 1976   1.089   4.367   2.975 -0.7082  0.4935 -0.2999
  589WAT      O 1977   3.527   3.240   3.656 -0.4606 -0.5511 -0.4129
  589WAT     H1 1978   3.436   3.268   3.653 -0.9383 -2.0762 -1.3427
  589WAT     H2 1979   3.529   3.170   3.722  0.3027  0.3166  0.5008
  590WAT      O 1980   3.798   4.343   4.783  0.2650 -0.0581  0.7223
  590WAT     H1 1981   3.784   4.404   4.712  0.7543  0.8916  1.4148
  590WAT     H2 1982   3.861   4.279   4.748  0.2719  0.2253  0.2119
  591WAT      O 1983   1.489   1.625   3.325 -0.3571 -0.4175 -0.0325
  591WAT     H1 1984   1.510   1.714   3.298  0.4038 -0.4265  0.5133
  591WAT     H2 1985   1.511   1.571   3.248  0.8502 -0.3301  0.2427
  592WAT      O 1986   3.071   1.355   3.579 -0.2837  0.1041 -0.4573
  592WAT     H1 1987   3.082   1.263   3.603 -0.3145 -0.0013 -0.8422
  592WAT     H2 1988   3.155   1.380   3.539 -0.7140 -0.1201 -1.5167
  593WAT      O 1989   2.219   2.629   1.911  0.5001  0.6127 -0.3613
  593WAT     H1 1990   2.131   2.611   1.944 -0.3498  2.7171 -1.3092
  593WAT     H2 1991   2.256   2.543   1.894 -0.1100 -0.4805  3.1008
  594WAT      O 1992   1.821   3.135   0.234  0.1397 -0.1446 -0.0464
  594WAT     H1 1993   1.859   3.110   0.318  0.6986  0.0027 -0.2527
  594WAT     H2 1994   1.738   3.087   0.230 -0.5124  0.7977  1.1471
  595WAT      O 1995   1.087   3.678   4.800  0.2641 -1.1965 -0.3296
  595WAT     H1 1996   1.021   3.745   4.817 -0.4302 -1.8860 -0.2694
  595WAT     H2 1997   1.110   3.644   4.886  1.4704 -0.2519 -0.2549
  596WAT      O 1998   1.354   1.231   4.089 -0.3519 -0.5022 -0.3297
  596WAT     H1 1999   1.439   1.191   4.071 -0.5432 -1.1631  0.2135
  596WAT     H2 2000   1.300   1.159   4.122 -0.9595  0.0247 -0.1547
  597WAT      O 2001   0.840   4.371   4.958 -0.0584  0.0641  0.0809
  597WAT     H1 2002   0.843   4.374   4.862 -1.1466 -0.1805  0.0337
  597WAT     H2 2003   0.747   4.371   4.980  0.1492  2.1798  1.2108
  598WAT      O 2004   3.534   4.709   4.104 -0.0494 -0.2527  0.3507
  598WAT     H1 2005   3.513   4.669   4.020 -1.6298 -0.1948  0.6762
  598WAT     H2 2006   3.619   4.672   4.128 -0.1012 -1.1320 -0.7320
  599WAT      O 2007   3.226   1.484   3.140  0.4018  0.5969 -0.0537
  599WAT     H1 2008   3.141   1.453   3.109  1.0317 -0.0846 -1.1806
  599WAT     H2 2009   3.281   1.483   3.062  1.3314  1.4547  0.5691
  600WAT      O 2010   1.878   4.877   3.153  0.2807 -0.2049  0.3017
  600WAT     H1 2011   1.968   4.849   3.137  0.0627 -0.8615  0.1743
  600WAT     H2 2012   1.860   4.941   3.084  1.4442  1.8137  1.7672
  601WAT      O 2013   3.705   1.671   4.040 -0.0773 -0.4812  0.0751
  601WAT     H1 2014   3.773   1.711   4.094 -0.3379 -1.0526  0.8339
  601WAT     H2 2015   3.662   1.745   3.997 -0.1140  0.0156  0.9390
  602WAT      O 2016   0.234   4.763   4.223 -0.7330  0.2209 -0.1958
  602WAT     H1 2017   0.158   4.810   4.256 -1.2925  0.3635 -1.6030
  602WAT     H2 2018   0.247   4.798   4.135  0.6658 -0.1589 -0.1683
  603WAT      O 2019   0.660   3.721   2.472 -0.3549  0.8763 -0.1713
  603WAT     H1 2020   0.594   3.654   2.455 -0.0239  0.4647  0.1373
  603WAT     H2 2021   0.624   3.801   2.435 -2.1199  1.2115  2.0324
  604WAT      O 2022   1.235   2.660   3.926 -0.1574 -0.2413 -0.2660
  604WAT     H1 2023   1.294   2.650   3.851  0.3200  0.9978 -0.0755
  604WAT     H2 2024   1.164   2.714   3.894 -0.7153 -0.9280 -0.2183
  605WAT      O 2025   4.351   0.933   2.768  0.3278 -0.3340 -0.3761
  605WAT     H1 2026   4.416   1.003   2.770  1.6237 -1.4654 -0.6537
  605WAT     H2 2027   4.275   0.972   2.725  0.7015  1.1279  0.2401
  606WAT      O 2028   1.252   0.077   4.447  0.7362 -0.3149 -0.3975
  606WAT     H1 2029   1.231   0.112   4.533  0.2245 -0.2503 -0.5495
  606WAT     H2 2030   1.241  -0.018   4.455 -0.0685 -0.2431 -0.6023
  607WAT      O 2031   3.855   3.813   2.277  0.8492 -0.3523  0.4716
  607WAT     H1 2032   3.930   3.874   2.278  1.4510 -1.0717  1.5679
  607WAT     H2 2033   3.803   3.841   2.202  0.1058  2.7084  1.9505
  608WAT      O 2034   3.602   0.705   0.945  0.1536  0.0767  0.0173
  608WAT     H1 2035   3.510   0.688   0.924 -0.1227  1.8380 -0.3535
  608WAT     H2 2036   3.646   0.707   0.860  0.5887 -0.9147  0.2033
  609WAT      O 2037   3.738   1.737   0.675  0.7368 -0.6549  0.5035
  609WAT     H1 2038   3.720   1.710   0.585  0.1885 -1.3782  0.8163
  609WAT     H2 2039   3.791   1.816   0.667 -0.4392  0.0488 -0.4526
  610WAT      O 2040   4.154   4.010   1.547  0.6776 -0.3064  0.2198
  610WAT     H1 2041   4.186   4.089   1.503  0.7497  0.1933  1.1481
  610WAT     H2 2042   4.227   3.983   1.603  0.6432 -1.0308 -0.0694
  611WAT      O 2043   0.776   0.713   0.897 -0.4446  0.1859  0.3037
  611WAT     H1 2044   0.783   0.807   0.912  0.8306  0.0497  0.7242
  611WAT     H2 2045   0.751   0.705   0.805  0.4403  0.9307 -0.0203
  612WAT      O 2046   1.214   4.124   2.800 -0.1883 -1.0071  0.2887
  612WAT     H1 2047   1.144   4.065   2.772 -1.9190  1.2987 -0.5527
  612WAT     H2 2048   1.171   4.185   2.861  1.2692  0.0358  0.3365
  613WAT      O 2049   4.034   0.018   2.261  0.6814  0.1713 -0.5095
  613WAT     H1 2050   4.067   0.075   2.191  0.7358 -0.1721 -0.7632
  613WAT     H2 2051   3.940   0.034   2.261  0.5449 -0.5856 -1.3480
  614WAT      O 2052   3.719   4.683   2.080 -0.7888  0.3763  0.3256
  614WAT     H1 2053   3.811   4.685   2.056 -1.0409 -0.2780 -0.7794
  614WAT     H2 2054   3.683   4.764   2.043 -0.8364  0.1814 -0.0631
  615WAT      O 2055   0.254   3.405   0.775  0.0840 -0.0217 -0.1403
  615WAT     H1 2056   0.332   3.434   0.822  0.4637 -0.9935 -0.1403
  615WAT     H2 2057   0.261   3.448   0.689  2.4228 -2.6239 -1.3975
  616WAT      O 2058   2.830   4.971   2.292  0.1616  0.6494  0.0962
  616WAT     H1 2059   2.823   5.006   2.203 -1.3439  0.6774  0.2043
  616WAT     H2 2060   2.740   4.964   2.323  0.2039 -4.0088 -0.1426
  617WAT      O 2061   3.117   3.844   2.769  0.0680  0.1327 -0.0202
  617WAT     H1 2062   3.186   3.908   2.789 -0.5473  1.0279 -0.6858
  617WAT     H2 2063   3.160   3.759   2.778  1.2112  0.6715 -0.2461
  618WAT      O 2064   0.729   4.884   3.112 -0.0921  0.5357 -0.4986
  618WAT     H1 2065   0.803   4.919   3.162 -0.1850 -0.2316  0.1967
  618WAT     H2 2066   0.748   4.909   3.022  0.1688  1.8030 -0.1214
  619WAT      O 2067   1.043   3.263   0.013  0.1910 -0.7931  0.3075
  619WAT     H1 2068   1.133   3.231   0.028  0.3201  0.0125  1.3468
  619WAT     H2 2069   1.000   3.252   0.098 -0.2037  0.3677  0.2644
  620WAT      O 2070   3.562   2.148   3.179 -0.0904  0.6429  0.0132
  620WAT     H1 2071   3.524   2.062   3.160  2.8994 -0.5731 -1.0054
  620WAT     H2 2072   3.587   2.182   3.094 -0.5741  2.2581  0.4839
  621WAT      O 2073   3.371   4.796   1.049  0.3951 -0.1405  0.0225
  621WAT     H1 2074   3.334   4.785   0.962 -1.0597 -0.2592  0.6396
  621WAT     H2 2075   3.429   4.720   1.060 -0.8999 -1.1714 -0.0985
  622WAT      O 2076   0.845   4.407   1.897  0.7599 -0.2989 -0.4397
  622WAT     H1 2077   0.895   4.368   1.826  0.7060 -0.2723 -0.4918
  622WAT     H2 2078   0.769   4.349   1.907  0.2379  0.2619 -1.0823
  623WAT      O 2079   1.683   0.260   2.052 -0.0206  0.1922 -0.0328
  623WAT     H1 2080   1.742   0.314   2.105 -1.4146  2.0740 -0.2777
  623WAT     H2 2081   1.621   0.323   2.014  0.9301 -0.9857 -4.0143
  624WAT      O 2082   3.747   2.014   2.318 -0.2685  0.2463 -0.2223
  624WAT     H1 2083   3.667   1.969   2.291 -0.3316  0.6177 -0.6631
  624WAT     H2 2084   3.731   2.037   2.409 -0.2613 -0.5627 -0.0041
  625WAT      O 2085   2.587   4.702   2.235  0.3235  0.7076  0.1801
  625WAT     H1 2086   2.619   4.632   2.178 -0.3881 -0.9662  1.7308
  625WAT     H2 2087   2.509   4.736   2.190 -0.8375 -1.2940  0.5846
  626WAT      O 2088   3.551   0.280   2.949  0.3228  0.4874  0.7295
  626WAT     H1 2089   3.595   0.347   2.897  1.1043 -0.7863 -0.3210
  626WAT     H2 2090   3.535   0.208   2.888 -0.2765 -0.3893  1.8645
  627WAT      O 2091   0.515   4.718   2.145 -0.1964  0.0356 -0.2048
  627WAT     H1 2092   0.545   4.808   2.156  0.6060 -0.3039  0.6344
  627WAT     H2 2093   0.595   4.668   2.129 -0.4126 -0.7552  1.0343
  628WAT      O 2094   4.513   2.831   4.637 -0.4394  0.2271 -0.0750
  628WAT     H1 2095   4.540   2.818   4.547  1.6507  1.2880  0.3509
  628WAT     H2 2096   4.494   2.743   4.670  0.3222 -0.3195 -1.0793
  629WAT      O 2097   0.740   0.670   5.109 -0.2163  0.2290 -0.6865
  629WAT     H1 2098   0.747   0.583   5.069  1.3549  0.2222 -0.4516
  629WAT     H2 2099   0.744   0.653   5.203 -2.5423  0.3677 -0.5061
  630WAT      O 2100   0.925   4.430   3.489 -0.1596  0.6022 -0.1209
  630WAT     H1 2101   0.964   4.361   3.541 -0.0168  0.5458 -0.3000
  630WAT     H2 2102   0.907   4.500   3.551 -4.3984 -1.1805  0.9637
  631WAT      O 2103   3.935   3.809   3.101 -0.6845  0.1113 -0.1576
  631WAT     H1 2104   3.976   3.881   3.149 -1.7995  0.8101 -0.2177
  631WAT     H2 2105   4.009   3.760   3.064  0.1050  1.0170  0.1689
  632WAT      O 2106   1.598   1.307   4.304  0.5118 -0.1137  0.1652
  632WAT     H1 2107   1.642   1.244   4.361 -1.2663  0.2209  2.0143
  632WAT     H2 2108   1.540   1.254   4.250  0.8475 -0.2635 -0.0536
  633WAT      O 2109   1.686   4.669   3.328 -0.0079  1.1602 -0.1311
  633WAT     H1 2110   1.726   4.585   3.305  0.4259  0.6269  2.3424
  633WAT     H2 2111   1.756   4.719   3.369 -0.8440  1.8370  0.5053
  634WAT      O 2112   3.301   2.192   2.593 -0.0737 -0.1768  0.4141
  634WAT     H1 2113   3.377   2.248   2.611 -0.7757  1.0859 -0.4037
  634WAT     H2 2114   3.254   2.238   2.523 -0.9588 -1.5416  0.0815
  635WAT      O 2115   0.654   1.526   0.101  0.4571 -0.5133  0.5649
  635WAT     H1 2116   0.567   1.507   0.066  0.8529  0.0573 -0.8036
  635WAT     H2 2117   0.672   1.454   0.161  0.1131 -2.0656 -1.1171
  636WAT      O 2118   3.708   1.463   2.171  0.1219 -0.0781  0.4333
  636WAT     H1 2119   3.709   1.388   2.111  0.0970 -1.0039  1.5490
  636WAT     H2 2120   3.678   1.536   2.118  4.6992  0.3568 -2.0627
  637WAT      O 2121   3.699   4.353   5.135  0.3084 -0.0170  0.0340
  637WAT     H1 2122   3.732   4.344   5.225  0.5573 -0.8529 -0.1290
  637WAT     H2 2123   3.735   4.277   5.089  0.5842  0.6618 -0.9034
  638WAT      O 2124   1.756   1.542   1.148  0.0469  0.4926 -0.7121
  638WAT     H1 2125   1.689   1.582   1.093 -0.8083 -1.8348 -1.4657
  638WAT     H2 2126   1.724   1.556   1.238 -1.0154  0.1581 -1.0263
  639WAT      O 2127   4.166   0.595   1.570  0.3847 -0.6815  0.2538
  639WAT     H1 2128   4.157   0.690   1.578  0.7231 -0.6386  0.1680
  639WAT     H2 2129   4.150   0.562   1.658 -0.6409 -0.6236  0.0969
  640WAT      O 2130   4.050   1.534   0.156  0.2994  0.0047  0.5947
  640WAT     H1 2131   3.985   1.603   0.164  0.2460  0.5329 -2.8090
  640WAT     H2 2132   4.103   1.541   0.235 -2.5074  0.8151  2.5766
  641WAT      O 2133   0.400   3.714   0.182 -0.4643  0.3747  0.5604
  641WAT     H1 2134   0.465   3.781   0.162 -1.2505  0.6779 -1.1531
  641WAT     H2 2135   0.453   3.635   0.198  0.3878  1.0014  0.9497
  642WAT      O 2136   1.591   1.274   4.838 -0.6756  0.0871  0.0308
  642WAT     H1 2137   1.655   1.286   4.768 -0.5012 -0.4345  0.0947
  642WAT     H2 2138   1.623   1.330   4.909 -0.3646 -0.0634  0.0125
  643WAT      O 2139   1.219   1.245   1.388  0.0590  0.2708  0.2654
  643WAT     H1 2140   1.285   1.286   1.332  0.3914 -1.5055 -0.7189
  643WAT     H2 2141   1.139   1.296   1.372  0.8313  1.5575  0.3885
  644WAT      O 2142   0.658   1.941   4.399 -0.4658  0.1283 -0.1952
  644WAT     H1 2143   0.643   1.863   4.453 -0.5427  0.4322  0.2303
  644WAT     H2 2144   0.693   2.006   4.461 -2.3755  1.1118 -0.0877
  645WAT      O 2145   2.277   5.082   0.869  0.0202  0.9374  0.2217
  645WAT     H1 2146   2.266   5.069   0.775  0.7877 -0.1702  0.2661
  645WAT     H2 2147   2.254   4.997   0.908 -0.9026  1.5710  1.0921
  646WAT      O 2148   1.452   3.238   3.485  0.3730 -0.8426  0.4244
  646WAT     H1 2149   1.496   3.322   3.498 -0.6110 -0.2446 -0.0268
  646WAT     H2 2150   1.458   3.221   3.391 -0.5779 -0.6150  0.3111
  647WAT      O 2151   1.732   1.447   2.856  0.2306 -0.3282 -0.3674
  647WAT     H1 2152   1.797   1.473   2.791  1.1411 -1.5642  0.0045
  647WAT     H2 2153   1.648   1.462   2.813  0.7626  0.6725 -1.1093
  648WAT      O 2154   0.482   1.690   0.561 -0.0132 -0.2021  0.2135
  648WAT     H1 2155   0.423   1.656   0.628  2.5437 -0.1005  2.6714
  648WAT     H2 2156   0.512   1.774   0.595  0.7262  0.2718 -1.4814
  649WAT      O 2157   1.227   3.376   1.898 -0.1030  0.1697 -0.1627
  649WAT     H1 2158   1.189   3.300   1.941 -0.6639  0.7883  0.4454
  649WAT     H2 2159   1.153   3.434   1.880  0.5524  1.6189  1.4979
  650WAT      O 2160   2.552   1.218   5.179  0.3093  0.0425 -0.5680
  650WAT     H1 2161   2.526   1.240   5.090  1.5685 -1.5632 -1.3771
  650WAT     H2 2162   2.640   1.255   5.188 -0.8753  2.7235  1.0656
  651WAT      O 2163   0.474   2.156   2.135 -0.0836 -0.3072  0.2216
  651WAT     H1 2164   0.458   2.195   2.049  1.3241  0.8935  0.4663
  651WAT     H2 2165   0.469   2.229   2.196 -0.4455 -1.0434  1.0888
  652WAT      O 2166   3.757   1.882   4.587 -0.1728  0.3782 -0.1173
  652WAT     H1 2167   3.695   1.860   4.656 -0.5031  1.3665 -0.0830
  652WAT     H2 2168   3.830   1.923   4.633  0.7540 -1.2111 -0.1030
  653WAT      O 2169   2.819   1.477   1.854  0.2147  0.2703  0.7346
  653WAT     H1 2170   2.800   1.452   1.944  0.1595 -0.8659  0.4195
  653WAT     H2 2171   2.885   1.546   1.862  0.2439  0.1503  1.6372
  654WAT      O 2172   0.657   2.024   3.754  0.3557  0.6979 -0.4769
  654WAT     H1 2173   0.728   1.961   3.757  0.8949  1.2444 -1.2231
  654WAT     H2 2174   0.690   2.101   3.799  0.8544  1.5121 -2.1342
  655WAT      O 2175   0.734   3.517   2.005 -0.0092  0.2975  0.1481
  655WAT     H1 2176   0.723   3.611   1.987  0.5567  0.1262 -1.2381
  655WAT     H2 2177   0.714   3.508   2.098 -2.5404  1.4149 -0.1888
  656WAT      O 2178   4.189   2.448   1.396 -0.1989 -0.2971 -0.9111
  656WAT     H1 2179   4.152   2.536   1.408  1.3322  0.1497  1.1985
  656WAT     H2 2180   4.129   2.391   1.445  0.4735  0.0751  0.4084
  657WAT      O 2181   2.291   0.339   3.838  0.3358  0.1287  0.0865
  657WAT     H1 2182   2.310   0.258   3.885  1.9185 -0.0900 -0.8728
  657WAT     H2 2183   2.233   0.387   3.897 -1.9793 -2.3396  0.0205
  658WAT      O 2184   0.223   0.784   4.274 -0.0584  0.1641 -0.0182
  658WAT     H1 2185   0.312   0.750   4.266 -0.6180 -1.2267 -0.7421
  658WAT     H2 2186   0.203   0.820   4.187 -1.2247 -2.2687 -0.8346
  659WAT      O 2187   0.146   0.270   0.522  0.1769  0.2104 -0.0093
  659WAT     H1 2188   0.198   0.337   0.565 -0.4077  0.6391  0.0509
  659WAT     H2 2189   0.085   0.319   0.466 -1.6541 -0.1119  1.5715
  660WAT      O 2190   2.342   3.484   4.995  0.1284 -0.3477 -0.5660
  660WAT     H1 2191   2.406   3.531   5.048 -0.1759 -1.0161  0.4351
  660WAT     H2 2192   2.263   3.538   4.999 -1.1581 -2.1527  2.9739
  661WAT      O 2193   4.428   0.628   1.472  0.0119 -0.4986  0.6756
  661WAT     H1 2194   4.408   0.721   1.462 -1.9041 -1.0705 -1.8274
  661WAT     H2 2195   4.348   0.590   1.508  0.1568 -1.4134  0.0676
  662WAT      O 2196   3.316   0.298   3.129 -0.1751  0.1320  0.2211
  662WAT     H1 2197   3.263   0.219   3.125 -0.5191  0.4005 -0.6226
  662WAT     H2 2198   3.382   0.287   3.060  0.4825  0.0894  0.8372
  663WAT      O 2199   3.628   4.304   1.006  0.6614 -0.4459 -0.3040
  663WAT     H1 2200   3.594   4.353   0.931  0.4483  0.2423  0.2311
  663WAT     H2 2201   3.703   4.256   0.971  0.6610 -0.0067 -0.9249
  664WAT      O 2202   2.766   0.800   3.909  0.3647  0.4652  0.2755
  664WAT     H1 2203   2.857   0.802   3.879 -0.3845 -0.1646 -2.2688
  664WAT     H2 2204   2.746   0.892   3.928  1.5679  0.5876  1.1200
  665WAT      O 2205   4.104   0.056   1.353  0.3665  0.0633 -0.3090
  665WAT     H1 2206   4.109   0.142   1.311 -0.6783  1.1219  1.5739
  665WAT     H2 2207   4.192   0.040   1.386  0.6406  0.2670 -0.9254
  666WAT      O 2208   0.645   4.357   0.604  0.3585  0.2601 -0.0753
  666WAT     H1 2209   0.682   4.443   0.627  2.0171 -0.3245 -0.4115
  666WAT     H2 2210   0.646   4.308   0.686  1.4662 -0.1335 -0.3048
  667WAT      O 2211   1.839   0.603   2.076 -0.5242  0.3282 -0.2128
  667WAT     H1 2212   1.890   0.542   2.023  0.6633  1.1051 -0.0145
  667WAT     H2 2213   1.883   0.601   2.162 -0.4632  1.4536 -0.2101
  668WAT      O 2214   4.227   2.283   4.761  0.3385 -0.5251  0.0336
  668WAT     H1 2215   4.141   2.259   4.797 -0.6501  0.4877 -1.5271
  668WAT     H2 2216   4.253   2.360   4.811 -1.1476  1.0292 -1.4392
  669WAT      O 2217   3.245   2.895   0.961 -0.8224 -0.2972  0.2346
  669WAT     H1 2218   3.175   2.834   0.939  0.5482 -2.1383  0.6958
  669WAT     H2 2219   3.287   2.916   0.878  0.7878 -2.7374  0.3188
  670WAT      O 2220   2.635   1.635   1.677 -0.5472 -0.1512 -0.2809
  670WAT     H1 2221   2.718   1.623   1.723 -1.0932  0.9098  1.0642
  670WAT     H2 2222   2.660   1.640   1.585  0.8246 -0.3720  0.0482
  671WAT      O 2223   3.638   0.268   0.171 -1.1174  0.3012 -0.1005
  671WAT     H1 2224   3.674   0.257   0.083 -2.6590  0.2172 -0.7578
  671WAT     H2 2225   3.555   0.314   0.157 -1.0075  1.0231  1.3996
  672WAT      O 2226   3.151   2.424   1.589 -0.3112 -0.4643 -0.4941
  672WAT     H1 2227   3.233   2.405   1.542  0.5439  0.0226  0.7559
  672WAT     H2 2228   3.083   2.386   1.534  0.9097 -2.7059 -0.5765
  673WAT      O 2229   0.804   4.081   3.171  0.2629 -0.0476 -0.0289
  673WAT     H1 2230   0.751   4.159   3.158  1.8066  1.2298  1.0090
  673WAT     H2 2231   0.748   4.009   3.143 -1.6115  1.3203  0.0478
  674WAT      O 2232   4.156   0.572   1.856 -0.2253 -0.0498  0.5753
  674WAT     H1 2233   4.213   0.497   1.875 -0.6243 -0.3380  0.6546
  674WAT     H2 2234   4.074   0.551   1.901 -0.9597 -0.4104 -0.8734
  675WAT      O 2235   1.682   4.663   4.365  0.7134 -0.3907  0.2476
  675WAT     H1 2236   1.623   4.614   4.422  0.8674 -1.9646 -0.8656
  675WAT     H2 2237   1.752   4.601   4.344  0.4022 -0.0732 -2.0134
  676WAT      O 2238   1.251   0.290   3.927 -0.1411 -0.2856 -0.1155
  676WAT     H1 2239   1.185   0.238   3.974 -0.4487 -0.9989 -1.3081
  676WAT     H2 2240   1.202   0.336   3.859  0.5911 -0.9681 -1.1411
  677WAT      O 2241   0.813   0.478   3.447 -0.0321 -0.1852 -0.1993
  677WAT     H1 2242   0.892   0.435   3.415  0.7914  2.2730 -1.7471
  677WAT     H2 2243   0.844   0.533   3.519 -0.7083 -0.6351  0.4486
  678WAT      O 2244   3.368   4.100   0.738  0.4974 -0.2292  0.2863
  678WAT     H1 2245   3.313   4.166   0.695 -0.9182 -0.5973  1.4553
  678WAT     H2 2246   3.381   4.133   0.827 -0.5257 -1.6436  1.0090
  679WAT      O 2247   0.628   2.126   2.686 -0.6179 -0.1032  0.0804
  679WAT     H1 2248   0.695   2.064   2.656  1.4056  0.7458  2.5417
  679WAT     H2 2249   0.677   2.202   2.716 -2.9386  2.0202 -1.1056
  680WAT      O 2250   2.688   4.745   1.713 -0.0374  0.2412  0.2015
  680WAT     H1 2251   2.617   4.793   1.672 -0.1524 -0.8657 -0.9697
  680WAT     H2 2252   2.644   4.684   1.772  0.0427  0.7187  0.7612
  681WAT      O 2253   0.315   0.804   3.909  0.0471 -0.5027 -0.7883
  681WAT     H1 2254   0.228   0.798   3.948 -1.1901  0.2847 -3.1786
  681WAT     H2 2255   0.365   0.735   3.951 -2.1690 -1.9616 -0.3553
  682WAT      O 2256   2.706   4.290   3.367 -1.0353  0.3153 -0.5228
  682WAT     H1 2257   2.796   4.301   3.399 -0.4463 -1.4636 -1.4070
  682WAT     H2 2258   2.661   4.245   3.438 -0.2705 -1.8016 -1.2814
  683WAT      O 2259   1.571   3.435   2.187 -0.3767 -0.2520 -0.8154
  683WAT     H1 2260   1.629   3.364   2.216 -1.8827 -0.6446  1.5054
  683WAT     H2 2261   1.546   3.410   2.098  1.9745 -0.6852 -1.4304
  684WAT      O 2262   0.975   3.678   4.192 -0.2601 -0.1977 -0.1021
  684WAT     H1 2263   1.042   3.654   4.256 -0.6805 -0.5068  0.2255
  684WAT     H2 2264   0.922   3.744   4.237 -0.7808 -0.6848  0.0041
  685WAT      O 2265   3.321   1.314   1.346 -0.5272 -0.5082 -0.2465
  685WAT     H1 2266   3.269   1.374   1.399 -2.0854 -1.7696 -0.2691
  685WAT     H2 2267   3.333   1.237   1.401  0.6964 -0.5443 -0.5321
  686WAT      O 2268   1.316   0.557   1.305  0.2490  0.0804  0.2597
  686WAT     H1 2269   1.367   0.637   1.317 -0.0577  0.4792 -0.8988
  686WAT     H2 2270   1.252   0.580   1.237 -0.9498 -0.6459  1.0901
  687WAT      O 2271   0.744   4.831   2.436  0.5305 -0.5385 -0.3295
  687WAT     H1 2272   0.767   4.761   2.375  4.9423  0.0131  0.3279
  687WAT     H2 2273   0.760   4.912   2.387 -2.3992  0.0753 -0.4035
  688WAT      O 2274   1.144   3.981   4.750 -0.6529  0.2266  0.1112
  688WAT     H1 2275   1.199   3.979   4.829 -2.3781  2.4575  1.4982
  688WAT     H2 2276   1.055   3.970   4.784 -1.3813  0.6032 -1.6116
  689WAT      O 2277   3.994   1.217   4.374 -0.6671 -0.0843  0.4506
  689WAT     H1 2278   4.072   1.236   4.323 -0.4330  0.3698  0.9733
  689WAT     H2 2279   3.930   1.283   4.346 -1.5875 -1.6710 -1.4822
  690WAT      O 2280   3.300   1.170   3.202 -0.0928  0.4978 -0.2772
  690WAT     H1 2281   3.244   1.210   3.135  0.5092  0.7603 -0.6377
  690WAT     H2 2282   3.340   1.095   3.158 -2.0529 -1.2327  0.7090
  691WAT      O 2283   1.124   4.966   4.495  0.0330 -0.1289  0.1589
  691WAT     H1 2284   1.207   4.919   4.509 -0.0416 -0.6607 -1.0325
  691WAT     H2 2285   1.058   4.911   4.536 -0.1216 -1.4100 -1.6605
  692WAT      O 2286   1.567   4.877   0.620  0.7494  0.6785 -0.6248
  692WAT     H1 2287   1.620   4.863   0.542  0.8238  1.1855 -0.6733
  692WAT     H2 2288   1.532   4.966   0.609 -0.4827  0.1867 -0.8149
  693WAT      O 2289   2.454   2.287   2.113  0.8533 -0.2056  0.1749
  693WAT     H1 2290   2.404   2.295   2.194 -0.8696 -0.3231 -0.8201
  693WAT     H2 2291   2.454   2.193   2.095 -1.6457  0.0316 -1.5881
  694WAT      O 2292   0.132   1.046   0.991 -0.3341 -0.1114 -0.0805
  694WAT     H1 2293   0.121   1.140   0.976  1.2869  0.1409  0.0984
  694WAT     H2 2294   0.227   1.034   0.995 -0.3039 -2.3135 -3.5637
  695WAT      O 2295   1.817   1.102   3.127 -0.5929 -0.3750  0.2420
  695WAT     H1 2296   1.734   1.131   3.163  0.3261  1.7418  0.8291
  695WAT     H2 2297   1.858   1.051   3.197 -0.5874  0.2241  0.6818
  696WAT      O 2298   1.452   3.526   1.283  0.3679  0.4993 -0.1514
  696WAT     H1 2299   1.436   3.515   1.376 -2.8551 -1.3467 -0.7803
  696WAT     H2 2300   1.517   3.460   1.261 -0.8208 -0.8873  0.3798
  697WAT      O 2301   2.496   2.212   0.851 -0.8348  0.0694  0.2999
  697WAT     H1 2302   2.435   2.241   0.784 -0.0691  2.0656  0.4084
  697WAT     H2 2303   2.528   2.293   0.892  1.5505 -0.9039  0.5362
  698WAT      O 2304   3.340   0.707   2.852 -0.6653  0.2780  0.2049
  698WAT     H1 2305   3.374   0.717   2.763 -1.2536  1.0763  0.0552
  698WAT     H2 2306   3.375   0.624   2.882  0.9735  0.7987 -0.1453
  699WAT      O 2307   2.254   4.224   2.901  0.2279  0.0854  0.0082
  699WAT     H1 2308   2.290   4.240   2.989 -3.2152  1.4049  1.3256
  699WAT     H2 2309   2.317   4.266   2.842  2.4901 -0.5670  1.7717
  700WAT      O 2310   0.108   4.419   2.157 -0.1756  0.1161 -0.6185
  700WAT     H1 2311   0.069   4.499   2.193  0.7486  1.0305 -1.5747
  700WAT     H2 2312   0.035   4.374   2.115 -0.6190  0.6807 -0.4618
  701WAT      O 2313   3.703   4.128   0.540  0.2636 -0.0853  0.1716
  701WAT     H1 2314   3.750   4.134   0.623 -0.3078  0.1393  0.4878
  701WAT     H2 2315   3.661   4.042   0.543 -1.7503  0.8468  1.2324
  702WAT      O 2316   1.564   0.014   4.772 -0.0183  0.1460  0.4058
  702WAT     H1 2317   1.520   0.098   4.787 -0.9608 -0.6819  2.7696
  702WAT     H2 2318   1.610  -0.003   4.855  2.8408 -0.2112 -1.1051
  703WAT      O 2319   0.929   2.565   2.149 -0.3458 -0.0231  0.4447
  703WAT     H1 2320   1.023   2.581   2.147 -0.5553  1.2706 -0.2383
  703WAT     H2 2321   0.902   2.593   2.236  0.1040 -1.9220  1.2593
  704WAT      O 2322   3.807   0.526   3.156  0.2437  0.0953 -0.4348
  704WAT     H1 2323   3.776   0.439   3.180 -0.3655  0.3737 -0.2061
  704WAT     H2 2324   3.768   0.585   3.220 -0.0240  0.6359 -1.0730
  705WAT      O 2325   1.110   0.389   2.250  0.2021  0.3455  0.0135
  705WAT     H1 2326   1.050   0.413   2.179 -0.7663 -0.8816  0.3772
  705WAT     H2 2327   1.190   0.362   2.205  0.0127  0.7234 -0.5582
  706WAT      O 2328   0.132   1.524   2.795  0.1578 -0.0215 -1.0166
  706WAT     H1 2329   0.177   1.443   2.817  0.2899  0.3118 -0.0228
  706WAT     H2 2330   0.040   1.507   2.818  0.3641  0.4703  0.2701
  707WAT      O 2331   3.428   3.199   5.188 -0.1148 -0.4134  0.1783
  707WAT     H1 2332   3.494   3.151   5.138 -0.3248 -1.8027  1.1845
  707WAT     H2 2333   3.477   3.269   5.231  0.0675  0.8573 -1.9339
  708WAT      O 2334   1.099   4.343   0.051  0.1017 -0.6899  0.6592
  708WAT     H1 2335   1.060   4.302  -0.026 -0.1167 -0.0829  0.4420
  708WAT     H2 2336   1.146   4.272   0.095 -0.8036 -1.3092  0.6372
  709WAT      O 2337   0.017   3.049   1.761 -0.5417 -0.3378  0.3330
  709WAT     H1 2338   0.007   3.015   1.671  0.8795 -0.1566  0.0912
  709WAT     H2 2339   0.110   3.040   1.780 -0.8147 -0.3058  1.7846
  710WAT      O 2340   0.616   4.052   3.953  0.0516  0.5257 -0.1386
  710WAT     H1 2341   0.626   3.994   4.029 -3.9315  0.8565  0.8171
  710WAT     H2 2342   0.647   3.999   3.880  0.0530 -1.4193  1.1884
  711WAT      O 2343   1.897   4.288   5.180 -0.2482  0.0322 -0.3605
  711WAT     H1 2344   1.884   4.311   5.088 -0.3974 -0.0401 -0.3585
  711WAT     H2 2345   1.985   4.319   5.201  0.7026 -1.9386 -1.1450
  712WAT      O 2346   2.289   4.587   0.975  0.5065 -0.5464  0.5019
  712WAT     H1 2347   2.311   4.564   0.885  0.6057  0.4032  0.2653
  712WAT     H2 2348   2.374   4.593   1.019  0.4836 -0.6393  0.5568
  713WAT      O 2349   1.923   2.932   3.633  0.3127  0.1678  0.2411
  713WAT     H1 2350   1.858   2.998   3.610 -0.0721 -0.0140  0.7825
  713WAT     H2 2351   2.007   2.975   3.619  0.0770  0.4642 -0.2936
  714WAT      O 2352   0.266   1.738   3.613  0.4550  0.7184 -0.1056
  714WAT     H1 2353   0.356   1.771   3.619  0.5757  0.2639  1.0592
  714WAT     H2 2354   0.277   1.643   3.600  0.1272  0.8236 -1.2475
  715WAT      O 2355   1.527   1.734   0.488  0.2096 -0.1234  0.0181
  715WAT     H1 2356   1.566   1.806   0.537  1.3134 -0.4700 -0.3183
  715WAT     H2 2357   1.481   1.777   0.415  0.5624  0.2584  0.0176
  716WAT      O 2358   2.488   4.367   2.805 -0.3632 -0.2232 -0.1466
  716WAT     H1 2359   2.499   4.461   2.792 -1.2214  0.0609  1.0597
  716WAT     H2 2360   2.565   4.341   2.855  0.1609 -0.2921 -0.9586
  717WAT      O 2361   1.876   1.557   0.308  0.7708 -0.3114 -0.3791
  717WAT     H1 2362   1.960   1.556   0.260  1.2431  1.5401  0.3267
  717WAT     H2 2363   1.887   1.626   0.373 -0.9079 -0.8425  0.5097
  718WAT      O 2364   3.896   2.253   1.276  0.1945 -0.5889 -0.5176
  718WAT     H1 2365   3.980   2.209   1.265  0.3138 -1.4361  2.5940
  718WAT     H2 2366   3.831   2.186   1.253  0.3806 -0.7380 -0.6093
  719WAT      O 2367   3.072   3.780   2.363 -0.4640  0.1739  0.3701
  719WAT     H1 2368   3.162   3.785   2.397 -0.6725  3.1469  0.7140
  719WAT     H2 2369   3.028   3.719   2.423  1.3425 -1.5690  0.0228
  720WAT      O 2370   3.636   0.864   2.807  0.2503  0.1606 -0.2934
  720WAT     H1 2371   3.679   0.843   2.890  1.1684 -0.5755 -0.9415
  720WAT     H2 2372   3.566   0.799   2.799 -0.3808  0.7501  0.2893
  721WAT      O 2373   1.236   1.285   2.868 -0.5671 -0.7920  0.4906
  721WAT     H1 2374   1.285   1.203   2.875 -2.3685 -1.8580  1.0714
  721WAT     H2 2375   1.153   1.260   2.828 -0.4587  1.0726 -1.0453
  722WAT      O 2376   3.868   0.633   3.909 -0.1444  0.2720 -0.4664
  722WAT     H1 2377   3.924   0.564   3.873 -0.1316 -0.5123  0.9538
  722WAT     H2 2378   3.895   0.639   4.001 -0.7731  1.5485 -0.3554
  723WAT      O 2379   1.991   3.278   1.356 -0.7492  0.8093 -0.3856
  723WAT     H1 2380   1.943   3.343   1.407 -2.5019  1.1081 -2.2650
  723WAT     H2 2381   2.028   3.218   1.421 -0.4881  2.7056  1.3209
  724WAT      O 2382   3.121   0.358   2.130 -0.7667  0.6012 -0.2766
  724WAT     H1 2383   3.101   0.449   2.107  0.0348  0.7560 -0.3613
  724WAT     H2 2384   3.213   0.347   2.108 -0.6314  0.0213  0.5464
  725WAT      O 2385   0.739   1.511   2.109  0.1234  0.1889 -0.0257
  725WAT     H1 2386   0.757   1.445   2.042  0.7957 -0.3819  0.7081
  725WAT     H2 2387   0.756   1.595   2.065  1.0383 -0.2002 -0.4274
  726WAT      O 2388   4.451   3.150   3.505  0.2556 -0.1545 -0.0691
  726WAT     H1 2389   4.534   3.153   3.552 -0.2896 -0.0624  0.9039
  726WAT     H2 2390   4.444   3.059   3.475  0.7723 -0.1274 -0.2907
  727WAT      O 2391   0.558   4.314   1.721 -0.5575 -0.0822  0.1095
  727WAT     H1 2392   0.604   4.264   1.654 -1.1657 -1.0492  0.3983
  727WAT     H2 2393   0.587   4.275   1.804 -0.8344  0.2195  0.3532
  728WAT      O 2394   4.439   0.322   1.069 -0.4949 -0.4696 -0.1079
  728WAT     H1 2395   4.488   0.328   0.986 -0.6522 -1.2709 -0.2652
  728WAT     H2 2396   4.459   0.404   1.114 -0.8354  0.2283 -1.1766
  729WAT      O 2397   1.924   4.490   1.297 -0.5977 -0.2784  0.8554
  729WAT     H1 2398   1.877   4.511   1.378  0.0610  1.6640  0.7635
  729WAT     H2 2399   1.967   4.571   1.271 -1.0016 -0.7693 -1.6133
  730WAT      O 2400   1.373   0.806   5.118 -0.1308 -0.4807 -0.3647
  730WAT     H1 2401   1.321   0.853   5.052  0.4549  0.0819 -0.4380
  730WAT     H2 2402   1.384   0.718   5.081 -1.4508 -0.7663 -0.1108
  731WAT      O 2403   1.345   1.288   4.696  0.2563  0.3553  0.0966
  731WAT     H1 2404   1.418   1.303   4.756  0.2705  1.0484 -0.0836
  731WAT     H2 2405   1.382   1.235   4.626  0.7082  1.0816 -0.2199
  732WAT      O 2406   1.901   3.609   4.733  0.1091  0.3641  0.0388
  732WAT     H1 2407   1.957   3.684   4.755  1.1486 -1.2035  3.3449
  732WAT     H2 2408   1.961   3.535   4.730 -1.5263 -1.2588  2.8977
  733WAT      O 2409   1.776   0.671   2.566 -0.1773 -0.0490  0.6411
  733WAT     H1 2410   1.777   0.762   2.534  2.3406 -0.1856  0.1178
  733WAT     H2 2411   1.795   0.619   2.488  0.7138 -0.8345  1.3716
  734WAT      O 2412   2.863   1.134   1.300 -0.4143 -0.3568  0.5016
  734WAT     H1 2413   2.904   1.212   1.264  0.1445 -0.8119  0.1454
  734WAT     H2 2414   2.930   1.094   1.355 -0.7875 -0.4404  0.8986
  735WAT      O 2415   4.183   1.366   1.702 -0.2019  0.4219  0.1931
  735WAT     H1 2416   4.208   1.374   1.610  0.9915  0.0990  0.4763
  735WAT     H2 2417   4.122   1.292   1.704 -1.6564  1.5393 -0.5814
  736WAT      O 2418   1.688   4.468   4.973 -0.1644  0.4741  0.4768
  736WAT     H1 2419   1.738   4.455   4.892 -1.0874  0.0880 -0.0509
  736WAT     H2 2420   1.610   4.517   4.945 -0.5290  0.2703  1.1229
  737WAT      O 2421   3.798   1.327   4.769 -0.7813  0.5240 -0.8659
  737WAT     H1 2422   3.794   1.305   4.677 -0.6251 -1.2370 -0.4807
  737WAT     H2 2423   3.858   1.402   4.773 -0.8314  0.6556 -2.1792
  738WAT      O 2424   0.883   4.809   4.008 -0.1721 -0.1716 -0.1225
  738WAT     H1 2425   0.827   4.853   3.944 -0.1846 -0.6881 -0.4785
  738WAT     H2 2426   0.972   4.827   3.978 -0.1701 -1.8981 -1.3781
  739WAT      O 2427   3.200   2.084   1.261 -0.3742 -0.2237 -0.1889
  739WAT     H1 2428   3.227   2.062   1.350 -0.2955  0.7536  0.0405
  739WAT     H2 2429   3.187   1.999   1.218  1.0722 -0.7139  0.2892
  740WAT      O 2430   3.771   3.031   4.450  0.6001  0.2507 -0.2191
  740WAT     H1 2431   3.859   3.067   4.459 -0.0855  2.3392 -1.1450
  740WAT     H2 2432   3.778   2.970   4.377  1.5059 -0.5058  0.4740
  741WAT      O 2433   2.246   4.566   4.108  0.5968  0.7291 -0.0295
  741WAT     H1 2434   2.302   4.598   4.037  0.2108  0.7907 -0.3111
  741WAT     H2 2435   2.159   4.598   4.085  0.3294  0.0722  0.0584
  742WAT      O 2436   0.470   0.713   2.398  0.5500 -0.7281  0.3284
  742WAT     H1 2437   0.391   0.733   2.449 -1.7098 -0.1370 -3.0235
  742WAT     H2 2438   0.533   0.780   2.424 -0.6629 -0.1425  1.9057
  743WAT      O 2439   2.189   1.638   4.285 -0.7046 -0.1993 -0.7589
  743WAT     H1 2440   2.257   1.703   4.274  1.4484 -1.8712  1.4864
  743WAT     H2 2441   2.121   1.662   4.221  1.3987  2.2582 -2.2371
  744WAT      O 2442   2.123   5.017   3.767  0.2625  0.3817 -0.4670
  744WAT     H1 2443   2.095   5.046   3.853  0.5608  0.9516 -0.5588
  744WAT     H2 2444   2.113   5.094   3.711  0.7055  0.2050 -0.7947
  745WAT      O 2445   4.143   2.128   2.063 -0.4648 -0.3191  0.2685
  745WAT     H1 2446   4.054   2.156   2.087 -0.7800 -2.9501  2.7957
  745WAT     H2 2447   4.198   2.162   2.134  0.3547  0.1389 -0.5672
  746WAT      O 2448   2.916   5.086   2.769  0.0415 -0.2122 -0.1797
  746WAT     H1 2449   2.906   5.115   2.859 -0.9258 -3.4188  0.8921
  746WAT     H2 2450   2.835   5.113   2.725 -0.6843 -0.9385  0.6777
  747WAT      O 2451   0.352   3.988   1.839  0.1240  0.4134 -0.0731
  747WAT     H1 2452   0.345   4.042   1.917 -1.0674 -0.2450  0.3050
  747WAT     H2 2453   0.296   4.032   1.775 -1.2961 -0.6017  0.4071
  748WAT      O 2454   3.427   3.516   4.843  0.1214 -0.1736  0.1184
  748WAT     H1 2455   3.368   3.471   4.782  0.0244  0.9776 -0.6572
  748WAT     H2 2456   3.500   3.545   4.788  0.4013  0.2343  0.6962
  749WAT      O 2457   3.749   1.692   4.859 -0.0295 -0.5876  0.0407
  749WAT     H1 2458   3.672   1.731   4.817 -0.2049 -0.5850  0.3597
  749WAT     H2 2459   3.823   1.743   4.826 -0.2251 -0.1963  0.2061
  750WAT      O 2460   4.039   0.930   4.140  0.1427 -0.1164  0.4399
  750WAT     H1 2461   4.061   0.853   4.087  1.2298 -1.0554  2.1527
  750WAT     H2 2462   4.060   1.005   4.084 -0.9192 -1.0291 -1.2661
  751WAT      O 2463   1.600   4.029   4.625  0.0393  0.2789  0.1292
  751WAT     H1 2464   1.585   3.941   4.659 -1.4228  1.2550  2.1891
  751WAT     H2 2465   1.513   4.065   4.612  0.6188  1.4864 -0.5728
  752WAT      O 2466   2.884   3.697   0.336  0.1034  0.0815  0.1450
  752WAT     H1 2467   2.926   3.753   0.401  1.6520  0.6941 -1.2985
  752WAT     H2 2468   2.804   3.666   0.378  1.3296 -0.0390  2.5418
  753WAT      O 2469   0.226   3.877   4.488 -0.7748 -0.2215  0.1079
  753WAT     H1 2470   0.144   3.887   4.537 -0.6581  0.0993  0.2446
  753WAT     H2 2471   0.249   3.785   4.497 -0.2904 -0.0015  1.4097
  754WAT      O 2472   0.785   3.710   0.826  0.9594  0.5725 -0.1941
  754WAT     H1 2473   0.826   3.695   0.741  1.1192  0.7761 -0.1529
  754WAT     H2 2474   0.726   3.784   0.811  0.4793  0.1758 -0.2952
  755WAT      O 2475   2.685   2.558   4.658 -0.3876  0.8707 -0.0180
  755WAT     H1 2476   2.680   2.654   4.658 -1.7446  0.8201  0.7650
  755WAT     H2 2477   2.703   2.536   4.750 -2.6659  0.2896  0.3338
  756WAT      O 2478   4.184   4.454   0.922  0.3732 -0.3457 -0.3542
  756WAT     H1 2479   4.092   4.445   0.897 -0.4911  0.9470  1.9994
  756WAT     H2 2480   4.212   4.537   0.882 -0.1420  0.2758  0.5229
  757WAT      O 2481   1.729   0.290   3.723  0.3278  0.2251 -0.2209
  757WAT     H1 2482   1.669   0.222   3.752  2.0054 -0.8155  0.9658
  757WAT     H2 2483   1.674   0.350   3.672 -2.4274  1.0158  3.2574
  758WAT      O 2484   2.485   1.084   4.480  0.0240  0.3364 -0.3535
  758WAT     H1 2485   2.405   1.131   4.456  0.9050  1.7579 -0.6408
  758WAT     H2 2486   2.545   1.102   4.408  0.8778  0.0024  0.2649
  759WAT      O 2487   1.032   3.807   3.960  0.2010  0.1530  0.5515
  759WAT     H1 2488   1.007   3.765   4.042  0.5118  2.1828  1.7588
  759WAT     H2 2489   1.092   3.876   3.986 -0.6853  1.6967 -1.2556
  760WAT      O 2490   1.132   2.548   2.570 -0.3603 -0.3166 -0.0688
  760WAT     H1 2491   1.067   2.614   2.546  0.0140 -0.4566 -1.6151
  760WAT     H2 2492   1.144   2.496   2.490 -0.1969 -1.8837  0.9204
  761WAT      O 2493   2.932   2.795   3.658 -0.4133  0.0521 -0.2159
  761WAT     H1 2494   2.862   2.861   3.662  0.4343  0.9210  1.4531
  761WAT     H2 2495   3.013   2.845   3.657  0.2298 -0.9494 -1.8695
  762WAT      O 2496   3.124   0.889   4.389  0.5487  0.1131 -0.1457
  762WAT     H1 2497   3.118   0.843   4.473  1.5673  1.2270  0.5617
  762WAT     H2 2498   3.034   0.891   4.356  0.1167 -0.2128  0.9841
  763WAT      O 2499   3.284   1.208   4.014 -0.4969  0.1740  0.7344
  763WAT     H1 2500   3.308   1.186   4.104  0.7069 -0.6598  0.2321
  763WAT     H2 2501   3.271   1.123   3.972  2.3212  0.3875 -0.7553
  764WAT      O 2502   3.820   0.199   1.980 -0.3183 -0.4754  0.1051
  764WAT     H1 2503   3.837   0.171   1.890 -0.6104 -2.2863  0.5726
  764WAT     H2 2504   3.907   0.212   2.018 -0.1413 -1.5157  0.0789
  765WAT      O 2505   2.214   2.055   2.636 -0.4476  0.2759  0.0757
  765WAT     H1 2506   2.240   1.965   2.616  2.5787  1.4462 -1.8660
  765WAT     H2 2507   2.244   2.069   2.726 -1.7514 -0.8544  0.7306
  766WAT      O 2508   1.520   4.065   5.287  0.4776 -0.3530  0.3027
  766WAT     H1 2509   1.504   4.125   5.214  1.2615 -2.1212 -1.4075
  766WAT     H2 2510   1.434   4.029   5.308  0.0939  0.9048  0.9591
  767WAT      O 2511   3.409   2.158   2.204 -0.1488  0.2142  0.2768
  767WAT     H1 2512   3.412   2.252   2.222  1.1586 -0.2923  3.3832
  767WAT     H2 2513   3.497   2.136   2.175  0.1987 -0.3128  1.6255
  768WAT      O 2514   1.636   2.862   4.825 -0.5671 -0.3133  0.1971
  768WAT     H1 2515   1.558   2.830   4.781  0.4844 -0.4584 -1.6351
  768WAT     H2 2516   1.645   2.953   4.796 -0.4559 -0.0604  0.9854
  769WAT      O 2517   0.205   4.142   2.338 -0.0230  0.0028 -0.1299
  769WAT     H1 2518   0.296   4.157   2.361  0.0534 -0.8263  0.1642
  769WAT     H2 2519   0.185   4.208   2.272  0.6524  0.4781  0.1311
  770WAT      O 2520   0.033   2.952   4.883  0.3533  0.1688 -0.2124
  770WAT     H1 2521   0.107   2.899   4.909 -0.5225 -0.9016  0.1623
  770WAT     H2 2522   0.001   2.911   4.802 -1.3013 -0.9154  0.9219
  771WAT      O 2523   3.095   1.274   4.711  0.4525 -0.0630  0.1730
  771WAT     H1 2524   3.120   1.300   4.622  0.5378 -0.6048  0.0361
  771WAT     H2 2525   3.160   1.209   4.736 -0.6290 -1.2734 -0.0750
  772WAT      O 2526   2.907   2.141   2.470 -0.1304 -0.5423 -0.0527
  772WAT     H1 2527   2.873   2.160   2.558  0.5035 -1.0306  0.3074
  772WAT     H2 2528   2.977   2.205   2.457 -1.9969  1.3812 -1.3511
  773WAT      O 2529   2.019   2.262   2.631  0.0109 -0.2769 -0.0785
  773WAT     H1 2530   2.039   2.169   2.627 -0.2349 -0.5620  2.8769
  773WAT     H2 2531   2.103   2.306   2.621  0.0418 -0.7220 -2.1813
  774WAT      O 2532   3.132   0.780   0.501  0.4424  0.3741  0.1729
  774WAT     H1 2533   3.101   0.865   0.534  0.6045 -0.0847  1.6048
  774WAT     H2 2534   3.227   0.792   0.493  0.2812  0.8259 -1.2324
  775WAT      O 2535   1.203   3.644   1.258  0.1690  0.5556 -0.6277
  775WAT     H1 2536   1.283   3.590   1.258 -0.2556 -0.0852 -0.5566
  775WAT     H2 2537   1.137   3.588   1.218 -0.0848  1.3439 -1.3573
  776WAT      O 2538   2.212   3.370   5.214  0.4070 -0.0405  0.0402
  776WAT     H1 2539   2.279   3.395   5.151 -0.2452  1.2917 -0.1632
  776WAT     H2 2540   2.133   3.360   5.162  0.1300 -0.1818  0.4822
  777WAT      O 2541   0.738   4.681   0.714  0.5356  0.1021  0.1865
  777WAT     H1 2542   0.782   4.671   0.799 -0.6543  0.8888  0.9073
  777WAT     H2 2543   0.705   4.770   0.714  0.6886  0.1824 -1.2100
  778WAT      O 2544   2.796   4.929   3.776  0.0293 -0.2208 -0.3925
  778WAT     H1 2545   2.744   5.000   3.740 -1.1429 -0.3571  0.9333
  778WAT     H2 2546   2.877   4.971   3.804  0.3615  0.1316 -1.7870
  779WAT      O 2547   0.319   3.232   3.033  0.4006 -0.6544  0.3417
  779WAT     H1 2548   0.264   3.172   3.083 -0.6599 -0.9714 -1.1399
  779WAT     H2 2549   0.261   3.305   3.009  2.0817  2.0436  3.6586
  780WAT      O 2550   0.381   3.599   1.153  0.8996 -0.4810  0.1559
  780WAT     H1 2551   0.315   3.667   1.166 -0.5772 -1.5814 -1.2484
  780WAT     H2 2552   0.427   3.595   1.237 -2.6340 -1.5563  2.2419
  781WAT      O 2553   1.940   4.629   0.844 -0.5068 -0.5268  0.1189
  781WAT     H1 2554   1.978   4.643   0.758 -1.8413  2.3407 -0.1037
  781WAT     H2 2555   1.847   4.613   0.827 -1.1011  1.6257  1.0154
  782WAT      O 2556   3.437   4.166   0.276 -0.4051 -0.0122  0.2492
  782WAT     H1 2557   3.419   4.083   0.320  1.4013 -0.0546  0.9916
  782WAT     H2 2558   3.351   4.207   0.267 -0.9992 -0.4623  2.9016
  783WAT      O 2559   3.981   3.058   0.745 -0.4965 -0.1588  0.2722
  783WAT     H1 2560   3.966   3.111   0.667 -0.3822 -0.0871  0.2987
  783WAT     H2 2561   4.007   2.972   0.711  2.9628  0.7935  0.1886
  784WAT      O 2562   0.143   3.780   1.744  0.4864  0.0601 -0.0323
  784WAT     H1 2563   0.130   3.790   1.650  3.3604  2.3340 -0.3247
  784WAT     H2 2564   0.235   3.755   1.753 -0.3695 -2.8976  2.1393
  785WAT      O 2565   2.482   4.941   4.259  0.0205 -0.0882  0.2680
  785WAT     H1 2566   2.530   5.001   4.316  1.0487 -0.6894  0.0758
  785WAT     H2 2567   2.551   4.893   4.212 -0.7170  1.5358 -2.7452
  786WAT      O 2568   3.687   3.679   2.473  0.9592  0.8331  0.0811
  786WAT     H1 2569   3.739   3.703   2.397  4.2665 -2.1051  1.1407
  786WAT     H2 2570   3.687   3.756   2.529  3.5200  1.2631 -0.4118
  787WAT      O 2571   0.182   0.007   3.075 -0.1410 -0.0399  0.1146
  787WAT     H1 2572   0.273  -0.020   3.066  0.5020  1.6973  0.9299
  787WAT     H2 2573   0.182   0.071   3.147 -2.1664 -0.7126  0.8018
  788WAT      O 2574   0.876   2.215   1.206 -0.3643 -0.3599 -0.3194
  788WAT     H1 2575   0.812   2.282   1.228  1.0797  1.0161 -0.1175
  788WAT     H2 2576   0.949   2.231   1.265  0.0331 -2.1334 -0.2613
  789WAT      O 2577   2.708   2.490   0.052  0.0334  0.2357  0.6038
  789WAT     H1 2578   2.674   2.446  -0.026 -0.6243  0.7701  0.5721
  789WAT     H2 2579   2.673   2.579   0.046 -0.1002  0.2600  1.5549
  790WAT      O 2580   1.954   0.510   2.327 -0.0223  0.6722  1.1804
  790WAT     H1 2581   2.023   0.561   2.369 -0.1424  0.2091  1.9552
  790WAT     H2 2582   1.999   0.431   2.296  0.1221  1.1299  0.1689
  791WAT      O 2583   1.053   1.053   5.238  0.3269 -0.2309 -0.4618
  791WAT     H1 2584   1.118   0.999   5.283  0.4339  0.2688 -0.0144
  791WAT     H2 2585   1.095   1.079   5.156  1.3215  1.4061  0.5185
  792WAT      O 2586   2.118   0.288   0.959  0.2800 -0.1542 -0.4856
  792WAT     H1 2587   2.025   0.265   0.962  0.3876 -0.8265 -1.7835
  792WAT     H2 2588   2.164   0.210   0.988  0.4439  0.2292  0.3063
  793WAT      O 2589   0.379   0.321   1.092  0.2022 -0.1336  0.0175
  793WAT     H1 2590   0.300   0.370   1.115  1.6853  1.6989  1.5384
  793WAT     H2 2591   0.347   0.235   1.064 -2.3472  0.8041 -0.1982
  794WAT      O 2592   0.578   1.733   0.995 -0.1654  0.6573 -0.4542
  794WAT     H1 2593   0.626   1.801   1.041  1.1006  1.0208 -2.1868
  794WAT     H2 2594   0.496   1.774   0.969 -0.1441  0.9762 -0.0220
  795WAT      O 2595   3.512   0.328   0.814 -0.3549  0.9617  0.2585
  795WAT     H1 2596   3.550   0.291   0.734  0.4117  0.5519  0.7987
  795WAT     H2 2597   3.587   0.343   0.871 -1.1008 -1.3704  1.9868
  796WAT      O 2598   3.774   4.077   2.537 -0.2276  0.2551  0.2551
  796WAT     H1 2599   3.799   4.149   2.595  2.7722 -0.8732  0.5408
  796WAT     H2 2600   3.790   4.110   2.449  1.9632 -0.2370  0.4113
  797WAT      O 2601   1.384   4.712   1.882 -0.0039  0.2978  0.6449
  797WAT     H1 2602   1.301   4.757   1.868 -0.0866 -0.2553 -0.8988
  797WAT     H2 2603   1.448   4.782   1.896 -0.0223  1.0426 -2.2860
  798WAT      O 2604   2.138   0.165   1.712 -0.5578  0.3073  0.6224
  798WAT     H1 2605   2.050   0.145   1.681 -1.1156  2.2637  0.8444
  798WAT     H2 2606   2.181   0.208   1.638  0.6266 -1.5427  0.1447
  799WAT      O 2607   4.169   2.807   0.867  0.0544  0.7641  0.4810
  799WAT     H1 2608   4.176   2.783   0.774 -0.1879  2.4248  0.0055
  799WAT     H2 2609   4.191   2.900   0.869  0.4453  0.6595  2.1581
  800WAT      O 2610   0.398   1.072   3.840 -0.1556  0.6588  0.6173
  800WAT     H1 2611   0.332   1.112   3.784 -0.2023 -0.3655 -0.0854
  800WAT     H2 2612   0.357   0.992   3.873  1.7493 -1.8097 -2.4647
  801WAT      O 2613   0.331   3.472   2.671  0.2347  0.4772 -0.0762
  801WAT     H1 2614   0.289   3.389   2.647  0.7150  0.4804 -0.9564
  801WAT     H2 2615   0.357   3.459   2.762 -2.6928  0.9128  0.9410
  802WAT      O 2616   2.781   2.911   5.029 -0.2779  0.7646  0.3366
  802WAT     H1 2617   2.851   2.964   5.068  0.4355 -1.3957  2.2405
  802WAT     H2 2618   2.818   2.823   5.023 -2.0886  0.0261 -0.7501
  803WAT      O 2619   3.803   3.555   4.978 -0.4746 -0.2987  0.4619
  803WAT     H1 2620   3.792   3.464   5.006 -2.0310 -0.3450 -0.2244
  803WAT     H2 2621   3.811   3.549   4.882 -0.5603  0.2931  0.4170
  804WAT      O 2622   3.368   0.842   1.722  0.0076  0.2296  0.1792
  804WAT     H1 2623   3.293   0.807   1.674 -0.6677 -0.3964  1.6464
  804WAT     H2 2624   3.423   0.882   1.654  0.4277 -2.9270 -1.5484
  805WAT      O 2625   4.440   1.811   4.831 -0.2802 -0.2365  0.0682
  805WAT     H1 2626   4.479   1.756   4.898  0.5159 -0.9589 -0.9460
  805WAT     H2 2627   4.378   1.754   4.786  0.9335 -0.5177 -1.3375
  806WAT      O 2628   0.239   3.062   0.594  0.4412  0.2912  0.0915
  806WAT     H1 2629   0.332   3.083   0.596  0.5656 -0.3292  0.8849
  806WAT     H2 2630   0.204   3.097   0.676  0.1990 -0.4814  0.3241
  807WAT      O 2631   0.049   3.040   2.237  0.2119 -0.0147  0.1437
  807WAT     H1 2632  -0.027   3.060   2.183  0.7914  2.4987  0.1644
  807WAT     H2 2633   0.082   2.957   2.202 -1.3872 -0.1679 -1.1115
  808WAT      O 2634   3.498   2.167   3.980  0.3046 -0.6393 -0.9057
  808WAT     H1 2635   3.414   2.186   4.022 -0.7873 -3.2670 -1.7012
  808WAT     H2 2636   3.511   2.239   3.919 -0.7464  0.4312  0.0766
  809WAT      O 2637   2.656   3.940   1.805  0.2607 -0.2604  0.6235
  809WAT     H1 2638   2.672   3.933   1.899  0.5979  1.3808  0.7220
  809WAT     H2 2639   2.577   3.888   1.790 -0.3241  0.1999  1.9848
  810WAT      O 2640   4.156   0.512   4.512 -0.1715  0.2040 -0.4402
  810WAT     H1 2641   4.148   0.593   4.564  1.1173  0.7619 -1.0715
  810WAT     H2 2642   4.096   0.526   4.438  2.1909  1.9844 -2.2043
  811WAT      O 2643   0.515   5.029   2.130 -0.0124 -0.1464  0.2109
  811WAT     H1 2644   0.522   5.082   2.209  2.1222  0.6335 -0.4467
  811WAT     H2 2645   0.429   5.052   2.093 -0.1073  1.0762  1.1560
  812WAT      O 2646   1.744   1.364   2.044 -0.1701  0.1224  0.1280
  812WAT     H1 2647   1.734   1.346   1.951  2.1014  0.2038 -0.1851
  812WAT     H2 2648   1.780   1.284   2.081 -1.0032  0.1072  0.9528
  813WAT      O 2649   1.555   1.172   0.940 -0.0187  0.4659 -0.1541
  813WAT     H1 2650   1.526   1.249   0.892 -0.4679 -0.7388 -1.9316
  813WAT     H2 2651   1.627   1.203   0.995 -1.5075  2.5386  0.7773
  814WAT      O 2652   1.515   1.917   3.326  0.1998  0.3820  0.5185
  814WAT     H1 2653   1.591   1.971   3.345 -1.6942  3.4058  0.2309
  814WAT     H2 2654   1.456   1.931   3.400 -0.0022 -2.2089  0.9455
  815WAT      O 2655   1.848   3.037   1.257 -0.0762  0.1595 -0.2136
  815WAT     H1 2656   1.759   3.007   1.277 -0.7827  0.8352 -2.0928
  815WAT     H2 2657   1.835   3.111   1.196  1.7811 -0.8110 -1.9017
  816WAT      O 2658   4.202   0.020   3.196  0.1623  0.5663 -0.2995
  816WAT     H1 2659   4.288   0.056   3.219  0.7262 -1.0137  0.1586
  816WAT     H2 2660   4.160   0.004   3.281  0.3550 -0.8189 -0.4456
  817WAT      O 2661   2.429   4.645   2.456  0.0471  0.5931  0.4790
  817WAT     H1 2662   2.406   4.552   2.451 -1.6648  1.0451 -1.8469
  817WAT     H2 2663   2.486   4.659   2.381 -1.4262  1.7806 -0.4816
  818WAT      O 2664   3.337   3.411   1.595 -0.0874  0.0158 -0.1438
  818WAT     H1 2665   3.403   3.459   1.646  0.7545 -0.6909 -0.5375
  818WAT     H2 2666   3.281   3.370   1.660  0.4029 -0.0980  0.2130
  819WAT      O 2667   1.824   4.010   3.365  0.3554 -0.1910 -0.3294
  819WAT     H1 2668   1.816   4.047   3.452 -0.0791  0.9941 -0.8552
  819WAT     H2 2669   1.742   4.034   3.320 -0.6925 -3.1109 -0.2460
  820WAT      O 2670   3.065   1.645   5.046  0.5409 -0.3634 -0.2246
  820WAT     H1 2671   3.130   1.698   5.091 -0.3272  1.2321 -0.7584
  820WAT     H2 2672   3.027   1.590   5.114  0.8428  0.3705  0.5478
  821WAT      O 2673   0.422   2.862   4.497  0.6150 -0.2497  0.0116
  821WAT     H1 2674   0.364   2.897   4.564  0.6530  0.4651 -0.3275
  821WAT     H2 2675   0.365   2.842   4.423  0.8894  1.1457 -0.5948
  822WAT      O 2676   4.495   1.423   1.714 -0.1599  0.3388  0.2897
  822WAT     H1 2677   4.458   1.336   1.700  0.6216  0.1014 -0.3343
  822WAT     H2 2678   4.438   1.462   1.781 -1.4237 -0.0762 -0.5029
  823WAT      O 2679   2.342   1.358   4.706 -0.1233 -0.3550 -0.0501
  823WAT     H1 2680   2.248   1.359   4.720 -0.0185  0.7947  0.6700
  823WAT     H2 2681   2.356   1.418   4.632  0.0268 -0.6855 -0.2931
  824WAT      O 2682   2.374   4.723   3.931  0.6152 -1.0527 -0.4062
  824WAT     H1 2683   2.444   4.764   3.980  0.5611 -0.3522 -0.8932
  824WAT     H2 2684   2.413   4.702   3.846  0.1524 -0.3232 -0.8112
  825WAT      O 2685   0.440   3.612   0.820  0.2900  0.0260  0.5154
  825WAT     H1 2686   0.364   3.669   0.817 -0.7353 -1.2754  0.6021
  825WAT     H2 2687   0.487   3.629   0.738 -0.0109  0.9464  0.5305
  826WAT      O 2688   2.620   0.631   2.171 -0.1656 -0.0136  0.1763
  826WAT     H1 2689   2.526   0.637   2.158 -0.1967  2.7497  0.9126
  826WAT     H2 2690   2.634   0.544   2.210 -2.4876 -0.2180  0.6869
  827WAT      O 2691   3.881   0.006   1.216 -0.8385  0.0863  0.5249
  827WAT     H1 2692   3.854   0.080   1.162 -0.7720  0.3893  0.9060
  827WAT     H2 2693   3.974   0.019   1.231 -0.6705 -0.4623 -0.0064
  828WAT      O 2694   3.761   2.955   3.863 -0.0679  0.1744  0.3919
  828WAT     H1 2695   3.795   3.041   3.842 -0.2930  0.3523  0.7264
  828WAT     H2 2696   3.666   2.964   3.854 -0.0402 -0.3146 -0.5427
  829WAT      O 2697   3.655   1.784   1.309 -0.2054 -0.0134 -0.3335
  829WAT     H1 2698   3.603   1.766   1.387 -0.5853 -1.2280 -0.8446
  829WAT     H2 2699   3.696   1.700   1.287  0.7513  0.5548 -0.8342
  830WAT      O 2700   0.164   3.560   3.436  0.1549 -0.2094 -0.1069
  830WAT     H1 2701   0.166   3.651   3.464 -1.1314 -0.1998 -0.0158
  830WAT     H2 2702   0.084   3.552   3.385 -0.2099 -1.5133  0.6347
  831WAT      O 2703   3.244   2.131   0.156 -0.5021 -0.0195 -0.4087
  831WAT     H1 2704   3.245   2.123   0.252  1.1150  0.1236 -0.3860
  831WAT     H2 2705   3.156   2.102   0.131 -0.9454 -0.0966  1.1124
  832WAT      O 2706   1.539   4.595   4.775  0.1653 -0.1461  0.3535
  832WAT     H1 2707   1.452   4.573   4.741 -0.0403  1.8064 -0.5317
  832WAT     H2 2708   1.599   4.552   4.715 -0.2170  0.7213 -0.6916
  833WAT      O 2709   2.281   2.531   4.790 -0.2514  0.2994  0.0367
  833WAT     H1 2710   2.337   2.459   4.764  0.0420  0.9820 -1.2620
  833WAT     H2 2711   2.300   2.544   4.883 -0.0892 -1.0804  0.2112
  834WAT      O 2712   1.427   0.163   1.330  0.1781  0.0750 -0.0022
  834WAT     H1 2713   1.340   0.192   1.357 -0.2160 -0.5265 -0.5804
  834WAT     H2 2714   1.411   0.107   1.254  0.9775 -0.9687  0.5694
  835WAT      O 2715   0.081   2.493   0.683 -0.0763 -1.1652 -0.1007
  835WAT     H1 2716   0.027   2.486   0.762 -0.3762  3.1171  0.3103
  835WAT     H2 2717   0.165   2.526   0.715 -0.1972  0.6113 -1.4870
  836WAT      O 2718   4.239   2.141   4.068 -0.3094  0.3058 -0.0791
  836WAT     H1 2719   4.266   2.136   4.159  0.0381  0.4594 -0.1721
  836WAT     H2 2720   4.297   2.081   4.022 -0.6756  0.0060 -0.1578
  837WAT      O 2721   0.560   4.913   4.135  0.2636 -0.5054 -0.2401
  837WAT     H1 2722   0.478   4.863   4.143  0.9336 -1.3099  2.4391
  837WAT     H2 2723   0.626   4.857   4.175  1.7089  1.0982 -0.2870
  838WAT      O 2724   3.569   1.240   1.766 -0.2438 -0.3458  0.2589
  838WAT     H1 2725   3.486   1.195   1.782 -0.0829 -1.2893 -1.3685
  838WAT     H2 2726   3.604   1.257   1.854 -2.2769  0.3742  0.9923
  839WAT      O 2727   0.310   0.511   2.233 -0.2804 -0.5383 -0.1517
  839WAT     H1 2728   0.326   0.577   2.300 -0.6788 -0.4590 -0.1363
  839WAT     H2 2729   0.395   0.501   2.189 -0.2671  0.1202 -0.2818
  840WAT      O 2730   1.494   3.403   4.234  0.3619 -0.1284  0.2924
  840WAT     H1 2731   1.471   3.375   4.146  0.2533 -0.5793  0.4584
  840WAT     H2 2732   1.421   3.459   4.261 -0.5713 -1.5230  0.8030
  841WAT      O 2733   0.948   2.591   3.833  0.0437 -0.2896 -0.5129
  841WAT     H1 2734   0.975   2.586   3.742  0.4568 -0.3223 -0.3885
  841WAT     H2 2735   0.914   2.503   3.852  0.1418 -0.3422 -0.5788
  842WAT      O 2736   1.105   4.969   0.850 -0.1190 -0.3149 -0.1732
  842WAT     H1 2737   1.173   5.015   0.800  0.9963 -0.8335  0.7983
  842WAT     H2 2738   1.046   4.934   0.783  0.8596 -0.2779 -1.0882
  843WAT      O 2739   4.044   1.729   2.229 -0.3073  0.4061  0.0419
  843WAT     H1 2740   4.089   1.784   2.293 -0.8835 -1.6428  2.3985
  843WAT     H2 2741   4.093   1.741   2.148  3.1250  0.0394  1.8815
  844WAT      O 2742   0.169   1.482   5.252  0.4353 -0.1583 -0.2084
  844WAT     H1 2743   0.126   1.558   5.291  1.0349 -0.8812  1.9770
  844WAT     H2 2744   0.126   1.406   5.291  1.0015 -0.9517 -1.0567
  845WAT      O 2745   2.737   0.904   1.317  0.0433 -0.2255 -0.4391
  845WAT     H1 2746   2.805   0.838   1.302 -1.3837 -1.7842 -0.3593
  845WAT     H2 2747   2.784   0.988   1.318  2.1415 -1.3449  1.0524
  846WAT      O 2748   4.045   4.008   5.221 -0.0790 -0.1540 -0.4665
  846WAT     H1 2749   4.112   4.000   5.289 -0.7038 -1.7401  0.0104
  846WAT     H2 2750   3.998   4.089   5.242  0.2604 -0.1987  0.5062
  847WAT      O 2751   2.759   1.150   4.479  0.2282 -0.3524 -0.0165
  847WAT     H1 2752   2.740   1.244   4.478  0.6019 -0.2772 -0.5620
  847WAT     H2 2753   2.833   1.140   4.419 -0.4692 -1.1327 -0.7709
  848WAT      O 2754   0.843   0.129   4.953  0.5481  0.0427  0.2660
  848WAT     H1 2755   0.932   0.103   4.976  0.6102  0.0040 -0.0102
  848WAT     H2 2756   0.855   0.209   4.901  0.4389 -0.1344 -0.0288
  849WAT      O 2757   2.983   4.841   0.828 -0.4868 -0.3129 -0.0119
  849WAT     H1 2758   2.953   4.826   0.918 -2.7240 -0.0576 -0.6471
  849WAT     H2 2759   2.935   4.920   0.800 -0.1335 -0.6107 -1.5503
  850WAT      O 2760   1.246   0.484   1.559  0.6312  0.3964  0.3114
  850WAT     H1 2761   1.295   0.414   1.602  0.0874 -1.7244 -2.2675
  850WAT     H2 2762   1.293   0.499   1.477 -1.5867  0.0406 -1.1113
  851WAT      O 2763   0.795   0.977   0.960 -0.2000 -0.2859 -0.2122
  851WAT     H1 2764   0.873   1.010   1.004  0.6312 -4.0786  1.6064
  851WAT     H2 2765   0.724   0.994   1.020  0.1499 -1.2487  0.5091
  852WAT      O 2766   2.807   1.983   0.301  0.7652 -0.0331 -0.1097
  852WAT     H1 2767   2.754   1.976   0.380 -0.7873  1.2860 -0.9811
  852WAT     H2 2768   2.844   2.071   0.305 -1.1070  0.8915 -1.8668
  853WAT      O 2769   3.529   1.843   4.758 -0.2893  0.6704 -0.6400
  853WAT     H1 2770   3.463   1.781   4.727 -2.1930  1.2210  1.9049
  853WAT     H2 2771   3.479   1.922   4.780  1.4326  1.6128  0.0997
  854WAT      O 2772   3.364   1.469   3.864  0.7858  0.5956 -0.5974
  854WAT     H1 2773   3.327   1.404   3.925 -1.5605  1.2255 -1.2261
  854WAT     H2 2774   3.387   1.418   3.787 -1.1889  0.4489 -1.1477
  855WAT      O 2775   4.035   1.808   2.626 -0.3612 -0.6314 -0.0993
  855WAT     H1 2776   3.956   1.808   2.573 -0.1520 -3.0052 -0.5261
  855WAT     H2 2777   4.027   1.730   2.681  0.5851  0.4116  1.5790
  856WAT      O 2778   2.286   1.958   5.152  0.0360 -0.6096  0.5364
  856WAT     H1 2779   2.336   1.878   5.139  0.1704 -0.3588 -0.5870
  856WAT     H2 2780   2.199   1.937   5.117 -0.0825 -0.4292  0.7210
  857WAT      O 2781   0.421   1.591   1.943 -0.2500 -0.1901  0.4951
  857WAT     H1 2782   0.338   1.576   1.896  0.7681 -1.0973 -1.1200
  857WAT     H2 2783   0.463   1.505   1.943  1.7892  0.7386 -0.9543
  858WAT      O 2784   1.601   5.095   4.243  0.3809  0.8649  0.4352
  858WAT     H1 2785   1.582   5.086   4.336 -2.6635 -0.3284 -0.1765
  858WAT     H2 2786   1.531   5.151   4.210  0.5584  0.0962 -1.3483
  859WAT      O 2787   4.513   0.778   2.560 -0.2576  0.1898  0.4242
  859WAT     H1 2788   4.524   0.847   2.494 -1.6713  0.7874  0.7614
  859WAT     H2 2789   4.455   0.818   2.626  0.1683 -0.7965  1.4220
  860WAT      O 2790   1.052   1.531   5.034 -0.1501  0.5082  0.6890
  860WAT     H1 2791   1.051   1.594   4.963 -1.3624  0.6867  0.8502
  860WAT     H2 2792   1.059   1.446   4.991  1.6223  0.7252  0.4787
  861WAT      O 2793   0.044   2.574   3.922  0.1026 -0.1201  0.1774
  861WAT     H1 2794   0.101   2.508   3.962  1.4154  1.7510  1.5520
  861WAT     H2 2795   0.018   2.630   3.995 -1.7312  0.3848 -0.8025
  862WAT      O 2796   2.823   1.077   3.333 -0.3546 -0.1787  0.2619
  862WAT     H1 2797   2.728   1.085   3.341 -0.4523 -1.1541  0.3052
  862WAT     H2 2798   2.836   0.998   3.279  0.4289 -0.3210  0.6371
  863WAT      O 2799   2.850   3.663   0.767  0.1371 -0.2982 -0.0679
  863WAT     H1 2800   2.849   3.629   0.857  2.2290  0.1857  0.1909
  863WAT     H2 2801   2.857   3.585   0.712 -0.5483 -0.5603  0.2000
  864WAT      O 2802   1.797   5.116   2.975  0.2345  0.2688  0.0172
  864WAT     H1 2803   1.715   5.151   2.941 -0.1839 -1.9660 -1.5005
  864WAT     H2 2804   1.862   5.133   2.907  0.1417 -1.3144 -0.5020
  865WAT      O 2805   2.370   2.976   0.007  0.4486  0.4339  0.8063
  865WAT     H1 2806   2.330   2.926  -0.064 -0.5556  0.7214  1.1510
  865WAT     H2 2807   2.411   3.050  -0.035  0.5185  0.1936  0.4498
  866WAT      O 2808   2.699   4.229   4.703  0.0260 -0.1617 -0.0487
  866WAT     H1 2809   2.740   4.221   4.617 -1.9460 -0.0531 -1.0635
  866WAT     H2 2810   2.738   4.308   4.741 -0.2144  0.6949 -1.5216
  867WAT      O 2811   3.314   1.953   2.476 -0.3410 -0.2051 -0.6235
  867WAT     H1 2812   3.338   2.043   2.497 -0.3656 -0.4642  0.6264
  867WAT     H2 2813   3.236   1.961   2.421 -3.5974  0.6046  3.5393
  868WAT      O 2814   1.668   2.022   4.775  0.5131 -0.3800  0.3506
  868WAT     H1 2815   1.711   2.082   4.715 -1.8711  0.2784 -0.7845
  868WAT     H2 2816   1.665   1.939   4.728 -2.1105  0.3414 -0.9230
  869WAT      O 2817   1.914   1.767   0.504  0.2117 -0.4641  0.2606
  869WAT     H1 2818   1.861   1.834   0.548 -1.6614 -0.4172 -1.8864
  869WAT     H2 2819   1.987   1.817   0.466 -0.7000  0.2692 -0.5885
  870WAT      O 2820   3.356   2.605   0.396  1.0156 -0.2522 -0.2606
  870WAT     H1 2821   3.428   2.571   0.450 -0.6217 -1.3072  1.4066
  870WAT     H2 2822   3.312   2.526   0.364 -0.1355  0.3318 -0.1669
  871WAT      O 2823   4.367   2.918   3.411 -0.2014  0.2826  0.1169
  871WAT     H1 2824   4.348   2.922   3.317 -0.2657 -0.6619  0.0765
  871WAT     H2 2825   4.345   2.828   3.436  2.1796 -0.2770  0.4900
  872WAT      O 2826   3.938   4.281   4.234  0.2213 -0.1809  0.4054
  872WAT     H1 2827   4.017   4.308   4.281  0.0592 -1.7855  1.7095
  872WAT     H2 2828   3.866   4.301   4.294 -0.2316 -0.0972 -0.1499
  873WAT      O 2829   1.336   4.182   0.836  0.6102 -0.1316  0.7072
  873WAT     H1 2830   1.320   4.214   0.748  0.3963 -0.8279  0.4879
  873WAT     H2 2831   1.426   4.150   0.834  0.5084 -0.4207  0.6530
  874WAT      O 2832   4.372   1.467   2.916 -0.5629  0.0432 -0.2967
  874WAT     H1 2833   4.336   1.380   2.901 -0.0006 -0.5657  1.6037
  874WAT     H2 2834   4.330   1.497   2.996  2.1774 -0.2458  1.4122
  875WAT      O 2835   2.325   4.383   2.440 -0.3482 -0.2993  0.0538
  875WAT     H1 2836   2.230   4.385   2.450 -0.5131 -1.0165 -1.2580
  875WAT     H2 2837   2.352   4.308   2.494 -0.8549 -1.8773 -1.7703
  876WAT      O 2838   1.479   4.768   0.270  0.5288  0.1934 -0.6660
  876WAT     H1 2839   1.515   4.680   0.266  0.4771  0.1808 -0.8672
  876WAT     H2 2840   1.545   4.819   0.318 -1.0638 -0.7390  2.8150
  877WAT      O 2841   0.036   4.905   4.324  0.4447  0.1230  0.0903
  877WAT     H1 2842  -0.058   4.891   4.316  0.5133 -0.3411  0.0223
  877WAT     H2 2843   0.045   4.986   4.373  0.0123 -0.1966  0.7045
  878WAT      O 2844   4.030   0.338   3.864 -0.5031  0.2337 -0.1834
  878WAT     H1 2845   4.017   0.336   3.959  1.0239 -1.5570  0.0459
  878WAT     H2 2846   4.123   0.356   3.853 -0.4961 -0.3786 -1.3091
  879WAT      O 2847   2.797   4.534   2.110  0.0649 -0.4221  1.2801
  879WAT     H1 2848   2.890   4.516   2.124  0.1927 -0.7087  0.1870
  879WAT     H2 2849   2.794   4.574   2.022 -0.7639  0.2717  1.6083
  880WAT      O 2850   4.093   0.997   2.646  0.5295  0.2106  0.3251
  880WAT     H1 2851   4.012   0.952   2.668  1.4581 -0.6324  2.3355
  880WAT     H2 2852   4.084   1.021   2.554 -1.2353 -1.4681  0.0080
  881WAT      O 2853   1.251   4.125   0.119  0.2590  0.0088  0.5224
  881WAT     H1 2854   1.202   4.090   0.194 -1.6108 -0.9584 -1.0512
  881WAT     H2 2855   1.258   4.050   0.059  1.3309  0.8741 -0.4640
  882WAT      O 2856   0.295   2.843   3.978  0.3274 -0.2187 -0.0559
  882WAT     H1 2857   0.292   2.752   3.946  1.4719  0.6626 -2.9146
  882WAT     H2 2858   0.241   2.892   3.916 -1.1499  1.0002  2.0371
  883WAT      O 2859   0.044   0.912   4.095  0.1149 -0.1447 -0.7391
  883WAT     H1 2860  -0.044   0.943   4.115  0.0887  0.8078 -2.1786
  883WAT     H2 2861   0.100   0.989   4.106  0.3812 -0.1031 -2.1591
  884WAT      O 2862   1.520   0.177   5.198 -0.5059 -0.0701 -0.1876
  884WAT     H1 2863   1.457   0.248   5.209 -1.8725 -1.1101 -0.9365
  884WAT     H2 2864   1.475   0.100   5.233  1.3688 -0.4154  1.6529
  885WAT      O 2865   0.948   3.700   2.448  0.3142  0.2669 -0.2232
  885WAT     H1 2866   0.862   3.681   2.486  0.4604  0.9578  0.4894
  885WAT     H2 2867   1.010   3.669   2.514  0.5706  1.9207  0.3649
  886WAT      O 2868   1.352   2.635   3.700 -0.0881 -0.5160 -0.3528
  886WAT     H1 2869   1.430   2.690   3.707 -1.2310  1.3287 -1.5603
  886WAT     H2 2870   1.311   2.661   3.618 -2.6363 -0.5353  0.8382
  887WAT      O 2871   2.120   3.936   2.227 -0.6846 -0.5577 -0.1738
  887WAT     H1 2872   2.133   3.940   2.133  3.2583  1.9407  0.2371
  887WAT     H2 2873   2.074   4.017   2.249 -1.5257 -1.0941  0.0851
  888WAT      O 2874   3.823   4.946   4.983  0.4853  0.5750 -0.2117
  888WAT     H1 2875   3.888   5.014   4.962  2.1010 -1.0379 -0.7578
  888WAT     H2 2876   3.862   4.899   5.057 -0.6456  0.2976  0.2155
  889WAT      O 2877   0.982   0.998   0.634 -0.1897  0.5313 -0.4577
  889WAT     H1 2878   1.030   0.916   0.620  1.2561  0.7135  2.6010
  889WAT     H2 2879   0.890   0.971   0.644  0.1542 -0.6152 -0.2903
  890WAT      O 2880   3.215   4.695   4.526 -0.0028  0.1654 -0.2920
  890WAT     H1 2881   3.241   4.751   4.452  0.0533  1.3021  0.5684
  890WAT     H2 2882   3.286   4.631   4.533 -0.0003  0.0463 -1.2023
  891WAT      O 2883   4.290   5.113   0.678  0.0763 -0.1848 -0.3787
  891WAT     H1 2884   4.279   5.200   0.716 -1.3476 -0.3237 -0.4019
  891WAT     H2 2885   4.355   5.070   0.734 -0.1995  0.4393  0.4418
  892WAT      O 2886   4.271   3.014   1.189 -0.1084  0.2866 -0.3265
  892WAT     H1 2887   4.345   2.968   1.150  1.0390 -0.0848  2.0715
  892WAT     H2 2888   4.300   3.105   1.194  0.4424  0.0764  0.9827
  893WAT      O 2889   3.252   1.605   0.662 -0.0997 -0.1521 -0.1815
  893WAT     H1 2890   3.301   1.621   0.742 -0.0611 -0.6193 -0.1094
  893WAT     H2 2891   3.319   1.583   0.597 -0.2024 -0.6216 -0.1255
  894WAT      O 2892   4.068   3.908   2.033 -0.1790  0.2662  0.3405
  894WAT     H1 2893   4.138   3.945   1.979 -0.7488  1.3527  0.3186
  894WAT     H2 2894   3.987   3.945   1.996 -0.6371  0.3586  1.3994
  895WAT      O 2895   0.442   0.865   1.345  0.9625 -0.8122  0.1598
  895WAT     H1 2896   0.416   0.812   1.421 -0.0158 -1.1385 -0.3840
  895WAT     H2 2897   0.365   0.919   1.327  2.4930  2.2044  1.8122
  896WAT      O 2898   0.561   3.872   3.394  0.3983 -0.3933  0.3369
  896WAT     H1 2899   0.544   3.797   3.452  1.1715 -0.4101  0.5446
  896WAT     H2 2900   0.645   3.852   3.353  0.3202  0.0799 -0.0588
  897WAT      O 2901   1.736   4.710   2.740 -0.6495 -0.0244  0.1762
  897WAT     H1 2902   1.777   4.713   2.826 -1.7038  0.0163  0.6895
  897WAT     H2 2903   1.738   4.618   2.715 -0.2708 -0.0244  0.2042
  898WAT      O 2904   2.446   2.910   1.867 -0.4447  0.3903 -0.0177
  898WAT     H1 2905   2.463   2.886   1.776 -1.1510  1.6314 -0.5006
  898WAT     H2 2906   2.413   2.829   1.907 -1.7034  0.2287 -1.3058
  899WAT      O 2907   3.687   4.829   1.578  0.2523  0.0749  0.2776
  899WAT     H1 2908   3.609   4.861   1.625 -0.6485 -0.2658 -0.9296
  899WAT     H2 2909   3.761   4.867   1.626 -0.6921  1.6680  0.5658
  900WAT      O 2910   4.418   1.284   3.375 -0.3665  0.3381 -0.0323
  900WAT     H1 2911   4.398   1.219   3.308  0.6924  0.6051 -0.6440
  900WAT     H2 2912   4.358   1.265   3.446 -0.0094 -1.3780 -0.1479
  901WAT      O 2913   0.508   4.693   4.737  0.1701  0.4727 -0.4710
  901WAT     H1 2914   0.514   4.788   4.746  0.0210  0.5208 -0.8739
  901WAT     H2 2915   0.579   4.670   4.677  0.1358  0.3447 -0.4629
  902WAT      O 2916   1.140   3.030   2.823 -0.3636  0.2360  0.2849
  902WAT     H1 2917   1.224   3.019   2.867 -0.1904  0.3646 -0.0107
  902WAT     H2 2918   1.093   2.948   2.839  0.0023 -0.0195  0.0558
  903WAT      O 2919   3.059   0.604   0.962  0.6975 -0.0413 -0.1999
  903WAT     H1 2920   3.082   0.611   0.869 -0.3953 -0.8103 -0.5476
  903WAT     H2 2921   2.970   0.639   0.967  0.7192 -0.0828  0.5468
  904WAT      O 2922   2.924   1.880   1.493  0.0203  0.1505  0.0917
  904WAT     H1 2923   2.986   1.950   1.475  1.6757 -1.9244 -3.2896
  904WAT     H2 2924   2.968   1.825   1.558  0.3695  0.2439 -0.0683
  905WAT      O 2925   4.408   2.060   2.762  0.2321  0.0656  0.3995
  905WAT     H1 2926   4.392   1.988   2.823 -1.6434 -0.7256 -0.9038
  905WAT     H2 2927   4.438   2.132   2.817 -1.7126 -0.4893  2.3586
  906WAT      O 2928   4.213   2.389   2.638 -0.2286  0.6641 -0.1214
  906WAT     H1 2929   4.306   2.384   2.661 -0.3205  2.2943  0.8037
  906WAT     H2 2930   4.187   2.476   2.667 -1.7827  0.6686 -1.4161
  907WAT      O 2931   2.111   1.868   0.347 -0.4049 -0.0717 -0.0038
  907WAT     H1 2932   2.121   1.912   0.262 -1.9825 -1.1281 -0.7977
  907WAT     H2 2933   2.181   1.802   0.348 -2.3202 -2.3559 -2.1007
  908WAT      O 2934   2.705   0.026   2.624 -0.3744  0.0216  0.0547
  908WAT     H1 2935   2.666  -0.019   2.549 -0.5327  0.1735  0.0465
  908WAT     H2 2936   2.704   0.119   2.600  0.1931  0.0049 -0.0395
  909WAT      O 2937   3.816   2.844   2.398  0.1135 -0.8990  0.5328
  909WAT     H1 2938   3.838   2.883   2.314  0.3930  1.2524  1.5345
  909WAT     H2 2939   3.723   2.862   2.410  0.5591  1.0618  1.6912
  910WAT      O 2940   2.428   0.677   4.635  0.2891  0.2190 -0.3855
  910WAT     H1 2941   2.471   0.626   4.567 -0.4145 -0.4362 -0.3534
  910WAT     H2 2942   2.476   0.759   4.638  2.5380 -1.0500  0.7162
  911WAT      O 2943   0.714   1.249   1.245  0.1349  0.0226 -0.2659
  911WAT     H1 2944   0.755   1.255   1.331 -0.2701  0.6153 -0.1038
  911WAT     H2 2945   0.640   1.310   1.251  0.1999  0.1840 -1.0869
  912WAT      O 2946   1.938   3.585   3.117 -0.1982  0.7543 -0.4384
  912WAT     H1 2947   1.951   3.625   3.203 -0.7200 -0.6426  0.3348
  912WAT     H2 2948   1.987   3.503   3.121 -1.4726 -0.0716 -0.8796
  913WAT      O 2949   3.752   1.906   5.075 -0.0334 -0.0509 -0.1401
  913WAT     H1 2950   3.665   1.943   5.083 -0.1118 -0.6466  2.4341
  913WAT     H2 2951   3.752   1.864   4.989 -2.2918 -0.0737 -0.1778
  914WAT      O 2952   1.703   4.511   1.963 -0.2983 -0.2004  0.2953
  914WAT     H1 2953   1.622   4.480   1.923 -0.1858  1.5614 -1.4226
  914WAT     H2 2954   1.690   4.497   2.057 -2.8644  0.5764  0.1348
  915WAT      O 2955   3.332   0.782   1.998  0.4284 -0.1703  0.4931
  915WAT     H1 2956   3.330   0.796   1.904 -1.2998 -0.8003  0.4007
  915WAT     H2 2957   3.256   0.831   2.031 -0.2002 -1.6244  1.2803
  916WAT      O 2958   0.284   4.375   1.758  0.1641  0.2715  0.2607
  916WAT     H1 2959   0.375   4.353   1.739 -0.0292  1.9587 -3.3215
  916WAT     H2 2960   0.289   4.435   1.832  2.0803  1.1779 -0.5558
  917WAT      O 2961   2.774   1.652   1.057  0.4394  0.0470  0.6221
  917WAT     H1 2962   2.697   1.709   1.054  1.0823  0.9001 -0.2940
  917WAT     H2 2963   2.823   1.674   0.978  1.9412 -0.0482  1.4972
  918WAT      O 2964   0.300   3.945   0.520  0.0944 -0.8069 -0.0315
  918WAT     H1 2965   0.211   3.979   0.519  0.3564  0.0635  1.8755
  918WAT     H2 2966   0.349   4.008   0.574  2.0875 -0.7666 -1.7416
  919WAT      O 2967   0.368   2.169   2.673  0.4922  0.4257 -0.2967
  919WAT     H1 2968   0.462   2.177   2.658  0.5425  1.1626  0.3738
  919WAT     H2 2969   0.361   2.141   2.765  0.1234 -1.9210 -0.9677
  920WAT      O 2970   3.675   3.715   0.834  0.1530  0.6499  0.4467
  920WAT     H1 2971   3.656   3.622   0.832 -1.1250  0.8834  0.8204
  920WAT     H2 2972   3.604   3.753   0.887 -1.3695  2.2640 -2.4952
  921WAT      O 2973   1.584   4.095   0.877 -0.6701  0.2807  0.4007
  921WAT     H1 2974   1.625   4.027   0.824 -2.2501 -0.1961 -0.2692
  921WAT     H2 2975   1.634   4.174   0.858  0.9294 -0.5853  0.8672
  922WAT      O 2976   0.108   2.955   2.833 -0.1006 -0.2131 -0.4876
  922WAT     H1 2977   0.112   2.911   2.918 -1.0066 -1.7560 -1.1989
  922WAT     H2 2978   0.026   3.004   2.835  0.7801  1.2814  0.2043
  923WAT      O 2979   1.286   1.420   4.434  0.7998  0.3409  0.1623
  923WAT     H1 2980   1.280   1.427   4.338  0.7103  0.5714  0.1834
  923WAT     H2 2981   1.324   1.333   4.449  2.8304  1.1192 -0.1483
  924WAT      O 2982   3.976   3.608   1.541 -0.0527  0.3620  0.0543
  924WAT     H1 2983   3.977   3.582   1.634  1.3683  0.6346  0.1342
  924WAT     H2 2984   4.066   3.598   1.512 -1.0828 -3.5904 -2.4538
  925WAT      O 2985   3.490   1.983   0.961  0.2248  0.1484  0.5371
  925WAT     H1 2986   3.583   2.002   0.955  0.3172 -0.6467 -2.0719
  925WAT     H2 2987   3.448   2.069   0.964  0.9959  0.5222  2.7403
  926WAT      O 2988   0.706   3.464   4.071  0.2705  0.2157 -0.4113
  926WAT     H1 2989   0.731   3.437   4.160  0.6394 -0.3449 -0.6775
  926WAT     H2 2990   0.616   3.494   4.080  0.1229 -0.3363  0.0565
  927WAT      O 2991   4.097   3.154   5.024  0.1594 -0.3133 -0.5072
  927WAT     H1 2992   4.117   3.096   4.951  1.8521 -0.0328 -0.3224
  927WAT     H2 2993   4.179   3.203   5.038  0.3069 -1.1996  2.3056
  928WAT      O 2994   1.030   1.107   4.405 -0.1273 -0.2576  0.0431
  928WAT     H1 2995   0.952   1.057   4.384 -0.0637 -0.8501  1.1506
  928WAT     H2 2996   1.002   1.199   4.399 -0.6289 -0.4403 -0.5418
  929WAT      O 2997   4.511   3.240   2.888 -0.2673  0.0071  0.2195
  929WAT     H1 2998   4.425   3.200   2.872  0.3530 -0.6504 -1.8210
  929WAT     H2 2999   4.495   3.334   2.889 -0.7502  0.0591 -2.7175
  930WAT      O 3000   0.886   2.067   0.210  0.7918  0.6398 -0.2015
  930WAT     H1 3001   0.895   2.052   0.116  0.8897  0.3685 -0.1489
  930WAT     H2 3002   0.909   2.160   0.221  1.5259  0.4829 -0.3453
  931WAT      O 3003   2.701   0.589   4.063 -1.0178  0.4718 -0.3537
  931WAT     H1 3004   2.749   0.654   4.013 -3.5253  2.3684 -0.4695
  931WAT     H2 3005   2.682   0.631   4.147 -0.6117 -1.0501  0.5601
  932WAT      O 3006   0.123   4.995   0.004  0.2555 -0.1386  0.2842
  932WAT     H1 3007   0.121   5.060  -0.066  1.1640  0.1919  0.5417
  932WAT     H2 3008   0.089   4.915  -0.035  2.5493 -0.5035 -1.1399
  933WAT      O 3009   2.799   2.101   5.153 -0.2024  0.2390 -0.0257
  933WAT     H1 3010   2.848   2.020   5.142 -0.0249  0.1985  0.9415
  933WAT     H2 3011   2.855   2.155   5.209 -0.4613  0.9021 -0.4028
  934WAT      O 3012   0.542   4.789   1.189 -0.2850 -0.1547 -0.2571
  934WAT     H1 3013   0.590   4.872   1.189  0.4333 -0.5417  0.7506
  934WAT     H2 3014   0.593   4.733   1.248 -1.8834 -0.6559  0.7048
  935WAT      O 3015   0.093   4.717   1.591 -1.0937 -0.1125  0.5510
  935WAT     H1 3016   0.159   4.712   1.659  0.1561  2.6046 -0.2991
  935WAT     H2 3017   0.033   4.786   1.621 -0.9822  0.5531 -0.6769
  936WAT      O 3018   2.474   3.433   0.877  0.8870 -0.0345  0.5084
  936WAT     H1 3019   2.528   3.498   0.923  1.2170  0.6510 -0.7946
  936WAT     H2 3020   2.535   3.363   0.854  0.8569 -0.0749  0.5516
  937WAT      O 3021   0.665   2.139   5.186  0.2006 -0.4997 -0.6495
  937WAT     H1 3022   0.627   2.131   5.274  0.1131  3.1961 -0.2103
  937WAT     H2 3023   0.604   2.195   5.139  1.3777 -0.6144 -2.4008
  938WAT      O 3024   4.220   1.705   3.982  0.3132  0.2212 -0.1423
  938WAT     H1 3025   4.292   1.670   3.931  0.9987  1.6348 -0.1935
  938WAT     H2 3026   4.227   1.800   3.972 -1.3018  0.4181  0.1949
  939WAT      O 3027   3.000   5.110   3.840 -0.0204 -0.1991 -0.3573
  939WAT     H1 3028   3.024   5.182   3.783  1.3667 -0.8832 -0.6664
  939WAT     H2 3029   3.072   5.048   3.833 -0.2116 -0.7014  1.4630
  940WAT      O 3030   0.288   4.730   1.784  0.0622 -0.1597  0.1409
  940WAT     H1 3031   0.222   4.681   1.833  2.7127 -2.6327  1.5283
  940WAT     H2 3032   0.285   4.818   1.822 -0.7594 -0.9091  1.9101
  941WAT      O 3033   1.284   4.548   3.878 -0.5256  0.3972 -0.2130
  941WAT     H1 3034   1.350   4.547   3.946 -2.2300 -1.0443  1.5365
  941WAT     H2 3035   1.330   4.516   3.800  1.1577  0.8352  0.5499
  942WAT      O 3036   3.362   4.758   2.539 -0.0607  0.0625 -0.2747
  942WAT     H1 3037   3.385   4.729   2.451  0.9872 -0.1208  0.0456
  942WAT     H2 3038   3.382   4.683   2.595  0.0909  0.4702  0.2231
  943WAT      O 3039   3.308   0.186   3.694  0.1854  0.4357  0.0403
  943WAT     H1 3040   3.345   0.211   3.778  0.8734  0.8724 -0.3898
  943WAT     H2 3041   3.224   0.233   3.690  0.3484  0.7483  0.2876
  944WAT      O 3042   4.221   2.527   4.236  0.4746 -0.0536  0.0085
  944WAT     H1 3043   4.224   2.482   4.152  1.2734  0.1298 -0.0684
  944WAT     H2 3044   4.234   2.458   4.301  0.5382 -0.0975 -0.0514
  945WAT      O 3045   3.510   0.549   1.263  0.3713  0.4208 -0.2476
  945WAT     H1 3046   3.557   0.625   1.231 -0.5192  0.1030 -2.5185
  945WAT     H2 3047   3.574   0.502   1.317  0.9977  2.5890  1.0067
  946WAT      O 3048   3.532   4.882   0.531  0.1915 -0.0613 -0.1841
  946WAT     H1 3049   3.439   4.904   0.536 -0.2352 -1.4680 -1.3061
  946WAT     H2 3050   3.533   4.788   0.517  1.7615  0.1155 -1.4198
  947WAT      O 3051   4.010   2.959   2.637 -0.4180  0.3182  0.1865
  947WAT     H1 3052   4.091   3.010   2.630 -0.6310  0.6098 -0.2576
  947WAT     H2 3053   3.962   2.981   2.557 -0.8934  0.0757  0.4034
  948WAT      O 3054   0.062   1.655   1.188  0.4527  0.0234 -0.2730
  948WAT     H1 3055   0.117   1.605   1.128 -2.1632 -0.2801 -2.6542
  948WAT     H2 3056   0.076   1.615   1.274  2.3852 -1.2876 -1.1364
  949WAT      O 3057   1.069   3.666   1.538 -0.4919 -0.7286  0.5489
  949WAT     H1 3058   1.093   3.692   1.450 -1.9851 -0.4330  0.2043
  949WAT     H2 3059   1.009   3.735   1.569 -0.9871 -1.4656  1.2952
  950WAT      O 3060   3.991   0.240   1.682 -0.1876  0.1896 -0.0918
  950WAT     H1 3061   4.078   0.201   1.678  0.7643  2.2096 -0.0139
  950WAT     H2 3062   3.960   0.239   1.591 -0.0878 -0.4914 -0.1259
  951WAT      O 3063   1.163   0.429   4.569 -0.2306  0.0133 -0.4857
  951WAT     H1 3064   1.210   0.442   4.486  0.0583  1.0647 -0.1724
  951WAT     H2 3065   1.205   0.490   4.630  0.1903 -1.3932  0.7037
  952WAT      O 3066   2.896   1.481   0.284 -0.2949  0.0362  0.0525
  952WAT     H1 3067   2.916   1.572   0.307 -1.7271  0.5516 -0.6046
  952WAT     H2 3068   2.849   1.446   0.360 -0.4246  0.0891 -0.0036
  953WAT      O 3069   3.169   0.549   3.596  0.2190 -0.2370  0.2109
  953WAT     H1 3070   3.206   0.479   3.543 -2.9889 -0.9084 -1.4008
  953WAT     H2 3071   3.129   0.609   3.533  0.4659  1.5986  1.7041
  954WAT      O 3072   3.938   4.422   2.288 -0.0250 -0.1299 -0.2398
  954WAT     H1 3073   4.000   4.466   2.231 -1.8179  0.8478 -1.5549
  954WAT     H2 3074   3.889   4.493   2.330 -0.2942 -0.8621  0.7402
  955WAT      O 3075   3.621   4.605   3.015  0.6565 -0.3965 -0.1079
  955WAT     H1 3076   3.603   4.689   3.058  0.0017 -1.0038  0.8559
  955WAT     H2 3077   3.691   4.565   3.068 -1.3027 -1.8933  1.4950
  956WAT      O 3078   4.181   4.373   2.757 -0.1205  0.2024 -0.7544
  956WAT     H1 3079   4.212   4.288   2.788 -1.2617 -0.1803 -0.6054
  956WAT     H2 3080   4.199   4.432   2.830  0.0151 -0.0583 -0.5716
  957WAT      O 3081   1.550   1.349   0.704  0.2305  0.4340 -0.2031
  957WAT     H1 3082   1.570   1.259   0.679 -2.8772 -0.7878  1.0745
  957WAT     H2 3083   1.574   1.402   0.628 -2.2588 -2.1381 -3.0838
  958WAT      O 3084   0.667   2.812   0.745  0.1664 -0.0034 -0.7714
  958WAT     H1 3085   0.676   2.805   0.840  0.1094  0.9232 -0.6972
  958WAT     H2 3086   0.731   2.878   0.719 -1.5329  1.5873 -1.0686
  959WAT      O 3087   0.598   1.439   4.389 -0.3994  0.3404 -0.0096
  959WAT     H1 3088   0.631   1.356   4.422 -0.8750  0.0943 -0.1416
  959WAT     H2 3089   0.504   1.424   4.376 -0.4886  0.8927 -0.0433
  960WAT      O 3090   3.969   1.901   0.916  0.0640 -0.0305 -0.0759
  960WAT     H1 3091   3.987   1.815   0.954 -1.7065 -0.7449 -0.7141
  960WAT     H2 3092   3.959   1.884   0.822 -1.7591  0.5776 -0.0287
  961WAT      O 3093   3.117   2.103   4.715 -0.1996 -0.3399 -0.1122
  961WAT     H1 3094   3.120   2.077   4.623 -1.7916 -0.9838 -0.0096
  961WAT     H2 3095   3.085   2.026   4.761  2.0126 -0.5449  1.2310
  962WAT      O 3096   3.042   4.321   3.929  0.4652 -0.5195 -0.0863
  962WAT     H1 3097   2.992   4.358   4.002  1.1747 -1.6793  1.0213
  962WAT     H2 3098   3.128   4.363   3.935  0.4436 -0.4139 -0.4448
  963WAT      O 3099   0.340   3.613   3.847  0.4029  0.0223  0.0674
  963WAT     H1 3100   0.289   3.693   3.857  1.3191  0.6499 -0.2301
  963WAT     H2 3101   0.427   3.635   3.880  0.7016 -0.8156 -0.1298
  964WAT      O 3102   0.347   4.688   0.433  0.3971  0.1160 -0.4387
  964WAT     H1 3103   0.358   4.782   0.449  1.4690 -0.1855  0.8385
  964WAT     H2 3104   0.317   4.653   0.517  1.0658 -0.8199 -0.5742
  965WAT      O 3105   2.260   4.663   1.469 -0.1561 -0.5386 -0.5232
  965WAT     H1 3106   2.199   4.694   1.535  0.6035  0.6332 -0.3445
  965WAT     H2 3107   2.221   4.687   1.386  0.6385  1.4332 -0.3828
  966WAT      O 3108   0.782   3.459   0.638 -0.6714  0.0087  0.2225
  966WAT     H1 3109   0.793   3.376   0.683  0.6194  0.1618  0.2202
  966WAT     H2 3110   0.713   3.443   0.574  2.0085 -2.2467 -2.4232
  967WAT      O 3111   2.043   4.838   4.386  0.0566 -0.2362  0.1131
  967WAT     H1 3112   2.129   4.850   4.347 -0.3530 -0.0989 -0.7759
  967WAT     H2 3113   1.982   4.867   4.319 -0.6245  2.8891  1.8703
  968WAT      O 3114   4.300   2.245   2.240 -0.6189  0.2525 -0.1431
  968WAT     H1 3115   4.237   2.316   2.246 -0.3357  0.4646  0.3913
  968WAT     H2 3116   4.298   2.204   2.326 -0.3908 -0.0499 -0.2810
  969WAT      O 3117   3.347   0.285   3.938 -0.1898 -0.0635 -0.0256
  969WAT     H1 3118   3.439   0.302   3.958  0.5660 -1.7572 -1.7458
  969WAT     H2 3119   3.306   0.269   4.023  1.2871 -0.0361  0.7100
  970WAT      O 3120   0.735   2.445   1.263  0.1768 -0.4734 -0.2330
  970WAT     H1 3121   0.728   2.526   1.211  0.3988 -0.1656  0.2024
  970WAT     H2 3122   0.645   2.426   1.290  0.1450 -0.2603 -0.1801
  971WAT      O 3123   1.436   0.016   0.385  0.0382  0.6564 -0.0238
  971WAT     H1 3124   1.437   0.011   0.290  0.0076  0.2370 -0.0048
  971WAT     H2 3125   1.383  -0.059   0.412  2.2361 -0.8016  0.4267
  972WAT      O 3126   0.942   0.313   4.751  0.4875  0.3697 -0.2095
  972WAT     H1 3127   0.979   0.345   4.833  1.3135  0.8328 -0.7336
  972WAT     H2 3128   1.016   0.270   4.707  0.2165  0.6274 -0.9460
  973WAT      O 3129   3.925   2.814   4.030 -0.4867 -0.1292  0.2419
  973WAT     H1 3130   3.888   2.835   4.116 -0.5863 -0.1641  0.2079
  973WAT     H2 3131   3.865   2.855   3.968  1.7348  3.5018  0.2090
  974WAT      O 3132   0.196   1.818   0.593 -0.1794  0.1598 -0.4452
  974WAT     H1 3133   0.283   1.827   0.555  0.5316 -2.9935  0.1712
  974WAT     H2 3134   0.189   1.891   0.655  1.8496  0.7273 -0.8186
  975WAT      O 3135   2.246   2.674   3.721  0.2367 -0.2729 -0.8789
  975WAT     H1 3136   2.268   2.701   3.632  2.6173  0.9737  0.0145
  975WAT     H2 3137   2.281   2.743   3.777 -0.3186 -1.5088  1.1053
  976WAT      O 3138   4.044   0.707   3.348 -0.6026  0.0613  0.8350
  976WAT     H1 3139   3.953   0.717   3.376 -0.6336  0.7499  0.4984
  976WAT     H2 3140   4.057   0.612   3.342 -1.8240 -0.0565 -0.7666
  977WAT      O 3141   1.299   3.047   3.218 -0.3495 -0.1895 -0.0556
  977WAT     H1 3142   1.238   3.101   3.168  1.2334 -0.9030 -3.0065
  977WAT     H2 3143   1.373   3.105   3.236  0.6857 -0.8768 -1.8844
  978WAT      O 3144   3.015   0.318   0.080 -0.3620  0.0535  0.6626
  978WAT     H1 3145   3.084   0.256   0.056 -0.4710  0.2971 -0.3042
  978WAT     H2 3146   2.952   0.265   0.128  0.0970 -0.3452  0.8372
  979WAT      O 3147   1.203   1.424   4.176 -0.1516 -0.4532  0.0185
  979WAT     H1 3148   1.269   1.356   4.159 -1.4162 -1.8034  0.3482
  979WAT     H2 3149   1.161   1.438   4.091 -0.3621 -0.5869  0.1004
  980WAT      O 3150   0.283   3.285   3.950 -0.3153 -0.0255 -0.1418
  980WAT     H1 3151   0.259   3.341   3.876 -0.8419 -0.7161 -0.4944
  980WAT     H2 3152   0.200   3.249   3.981  0.1027 -1.2544 -0.4218
  981WAT      O 3153   0.398   3.789   1.492 -0.0731  0.0694 -0.1635
  981WAT     H1 3154   0.329   3.728   1.469 -0.7215  0.5154  0.5541
  981WAT     H2 3155   0.410   3.843   1.414  0.2943 -0.7586 -0.6929
  982WAT      O 3156   4.355   0.924   1.497 -0.4278  0.0394  0.0307
  982WAT     H1 3157   4.262   0.914   1.477 -0.2370 -0.1362 -0.7963
  982WAT     H2 3158   4.388   0.983   1.429 -0.1123  0.8226  0.8407
  983WAT      O 3159   0.014   2.084   4.825 -0.2308  0.1166 -0.3997
  983WAT     H1 3160  -0.071   2.126   4.812 -0.5378 -0.8701 -1.8610
  983WAT     H2 3161  -0.004   1.991   4.814  0.8035 -0.2279  0.6744
  984WAT      O 3162   2.967   0.005   1.617 -0.4945  0.2964 -0.0631
  984WAT     H1 3163   2.955  -0.077   1.664  0.2967 -0.2301 -0.7327
  984WAT     H2 3164   2.958  -0.019   1.524  2.6459  0.3232 -0.4938
  985WAT      O 3165   3.690   2.478   2.410  0.3233 -0.1665  0.4589
  985WAT     H1 3166   3.702   2.486   2.316 -0.2777  2.0866  0.5173
  985WAT     H2 3167   3.774   2.446   2.442  1.1029  0.6575 -0.6860
  986WAT      O 3168   3.276   1.133   2.542 -0.0055  0.1629 -0.0294
  986WAT     H1 3169   3.312   1.221   2.553  1.6115 -0.4619  0.0463
  986WAT     H2 3170   3.323   1.098   2.466 -2.6359  0.3156 -1.8640
  987WAT      O 3171   1.390   4.857   4.527 -0.6015 -0.1942 -0.1781
  987WAT     H1 3172   1.476   4.892   4.548 -0.6688 -1.4517  2.6217
  987WAT     H2 3173   1.383   4.776   4.578 -2.6148 -1.2987 -2.0114
  988WAT      O 3174   1.418   0.299   2.740  0.4577 -0.0104  0.0615
  988WAT     H1 3175   1.407   0.390   2.766 -3.4562  0.0476 -1.0470
  988WAT     H2 3176   1.338   0.279   2.689  2.6519 -3.0857 -2.6386
  989WAT      O 3177   4.290   1.791   5.139 -0.0602 -0.2998 -0.2066
  989WAT     H1 3178   4.355   1.778   5.070 -0.7288  3.1023 -1.6831
  989WAT     H2 3179   4.207   1.763   5.100 -0.3500  1.0849 -0.6374
  990WAT      O 3180   0.787   3.833   1.172 -0.2562 -0.2298  0.6846
  990WAT     H1 3181   0.831   3.910   1.134 -1.1989 -0.0198 -0.0339
  990WAT     H2 3182   0.798   3.843   1.267  1.3529 -0.2712  0.5226
  991WAT      O 3183   1.601   2.951   1.299  0.0173 -0.8688  0.0595
  991WAT     H1 3184   1.524   2.997   1.332 -0.3781 -1.1735 -0.4287
  991WAT     H2 3185   1.568   2.898   1.226  1.0063  0.4248 -1.3883
  992WAT      O 3186   0.574   2.016   1.446 -0.5832 -0.2366 -0.2508
  992WAT     H1 3187   0.531   2.026   1.361 -1.6360 -1.5479  0.0967
  992WAT     H2 3188   0.520   1.953   1.494  0.6472 -0.4396  0.9552
  993WAT      O 3189   4.159   2.403   3.967 -0.4880 -0.1123 -0.6101
  993WAT     H1 3190   4.231   2.423   3.907 -0.8698  2.7733 -0.2621
  993WAT     H2 3191   4.168   2.310   3.986  4.0007  0.3348  0.5404
  994WAT      O 3192   2.655   2.465   2.012  0.1123  0.1408  0.1080
  994WAT     H1 3193   2.727   2.452   2.073 -0.1980 -0.5592  0.3347
  994WAT     H2 3194   2.596   2.391   2.028 -0.3168  0.3303 -0.5501
  995WAT      O 3195   2.748   2.574   4.296  0.1109 -0.1639 -0.4325
  995WAT     H1 3196   2.737   2.554   4.203 -0.8171 -1.9275  0.0136
  995WAT     H2 3197   2.706   2.501   4.341  0.8723  0.4696  1.3849
  996WAT      O 3198   2.147   2.346   2.282 -0.2276  0.1282  0.3855
  996WAT     H1 3199   2.069   2.311   2.326 -1.2535  2.6605  0.7646
  996WAT     H2 3200   2.131   2.333   2.189 -0.7455 -0.0595  0.4998
  997WAT      O 3201   3.350   2.365   0.046  0.0900 -0.5608 -0.2577
  997WAT     H1 3202   3.337   2.279   0.086 -1.2941 -0.7440 -1.0135
  997WAT     H2 3203   3.308   2.426   0.106 -0.8148 -0.6849 -0.7371
  998WAT      O 3204   4.482   1.115   3.140 -0.1068  0.2786  0.1867
  998WAT     H1 3205   4.572   1.145   3.126 -0.3721  1.3288  0.6544
  998WAT     H2 3206   4.434   1.148   3.064  0.2127 -1.7573 -0.9573
  999WAT      O 3207   4.058   3.428   2.515  0.1532 -0.1404  0.4144
  999WAT     H1 3208   4.058   3.491   2.587  0.7950  0.0257  0.2748
  999WAT     H2 3209   4.026   3.478   2.440 -1.5015 -0.5739  0.7846
 1000WAT      O 3210   1.104   4.004   3.751 -0.4221  0.0991 -0.1990
 1000WAT     H1 3211   1.111   3.953   3.670  0.1468  0.0519 -0.1242
 1000WAT     H2 3212   1.118   3.940   3.821 -0.1495  0.2753 -0.0902
 1001WAT      O 3213   0.011   2.513   1.171 -0.6768 -0.6683 -0.6186
 1001WAT     H1 3214   0.072   2.441   1.186 -2.2715 -2.3297 -1.6377
 1001WAT     H2 3215  -0.034   2.524   1.255  0.6279  0.2500 -0.0031
 1002WAT      O 3216   0.341   1.554   0.767  0.4439 -0.4268 -0.6110
 1002WAT     H1 3217   0.311   1.472   0.728 -1.5728  0.3295 -0.7271
 1002WAT     H2 3218   0.339   1.538   0.861 -1.5823 -0.0120 -0.5556
 1003WAT      O 3219   2.011   3.371   2.390 -0.5415  0.1786  0.2930
 1003WAT     H1 3220   2.002   3.279   2.366 -0.3554  0.3415 -0.4099
 1003WAT     H2 3221   1.960   3.419   2.325 -0.8232  0.5577  0.7898
 1004WAT      O 3222   1.976   4.234   2.876  0.2633  0.8000  0.0058
 1004WAT     H1 3223   2.070   4.228   2.891  0.1018  2.0793  1.8905
 1004WAT     H2 3224   1.963   4.198   2.788  2.3379 -0.5648  0.1786
 1005WAT      O 3225   3.834   3.373   2.861 -0.2960  0.9112  0.0037
 1005WAT     H1 3226   3.789   3.427   2.797 -3.3002 -0.4125  0.8259
 1005WAT     H2 3227   3.790   3.288   2.857  1.3059 -0.1086  1.8211
 1006WAT      O 3228   3.425   4.280   1.558  0.0417  0.4714  0.4083
 1006WAT     H1 3229   3.398   4.340   1.627 -1.0588  1.1073 -0.5539
 1006WAT     H2 3230   3.405   4.326   1.477  0.6852 -0.5437 -0.3465
 1007WAT      O 3231   0.534   1.007   4.183 -0.2789 -1.0456 -0.2596
 1007WAT     H1 3232   0.513   1.075   4.119 -0.8134 -1.9879 -1.1092
 1007WAT     H2 3233   0.547   1.055   4.265  1.6001  0.3271 -1.2764
 1008WAT      O 3234   1.421   2.522   0.492 -0.2677 -0.2664 -0.3303
 1008WAT     H1 3235   1.505   2.556   0.523 -0.2329  0.3117 -1.0367
 1008WAT     H2 3236   1.369   2.512   0.571 -0.1031  0.9545 -0.0448
 1009WAT      O 3237   1.569   1.967   4.326  0.6716 -0.3571 -0.0718
 1009WAT     H1 3238   1.598   1.959   4.236 -1.0632 -0.1996 -0.6923
 1009WAT     H2 3239   1.502   1.899   4.336  0.3755  0.0531  0.8818
 1010WAT      O 3240   1.623   1.428   5.057 -0.2244 -0.5714 -0.2706
 1010WAT     H1 3241   1.677   1.503   5.083 -0.7287 -0.0510 -0.6899
 1010WAT     H2 3242   1.549   1.467   5.009  0.3479 -1.4471 -1.9356
 1011WAT      O 3243   2.224   1.129   4.369 -0.1075 -0.1432 -0.0662
 1011WAT     H1 3244   2.233   1.177   4.286 -1.5283  1.2728  0.5700
 1011WAT     H2 3245   2.267   1.045   4.352  0.1810  0.3557 -2.0342
 1012WAT      O 3246   3.194   1.543   4.802  0.7596  0.3318 -0.8866
 1012WAT     H1 3247   3.153   1.457   4.809 -0.5527  1.0400  1.0714
 1012WAT     H2 3248   3.169   1.588   4.883  2.9866  1.9022 -0.9696
 1013WAT      O 3249   4.459   3.080   4.562  0.5167  0.3457  0.3721
 1013WAT     H1 3250   4.465   3.014   4.631  2.2711  0.2741  0.1937
 1013WAT     H2 3251   4.496   3.036   4.485 -0.0981  0.9078 -0.2616
 1014WAT      O 3252   1.172   1.651   0.273  0.0155 -0.0223  0.2828
 1014WAT     H1 3253   1.171   1.638   0.178 -3.0914  0.4654  0.1396
 1014WAT     H2 3254   1.160   1.563   0.309  0.4289 -0.1166  0.1915
 1015WAT      O 3255   0.987   3.604   3.789 -0.3690  0.3847  0.1595
 1015WAT     H1 3256   1.037   3.646   3.859 -1.0211  1.3433  0.0585
 1015WAT     H2 3257   0.978   3.513   3.818  0.4198  0.4760  0.7296
 1016WAT      O 3258   3.508   2.243   5.139 -0.7389 -0.0744  0.2164
 1016WAT     H1 3259   3.494   2.299   5.063 -1.9172 -0.4518  0.1485
 1016WAT     H2 3260   3.453   2.280   5.208 -1.5092 -1.1139  0.1800
 1017WAT      O 3261   0.331   4.981   0.480  0.1773 -0.1864 -0.3507
 1017WAT     H1 3262   0.266   5.004   0.415 -2.1970 -0.4543  1.7704
 1017WAT     H2 3263   0.363   5.065   0.514 -0.7857 -0.0346  0.1927
 1018WAT      O 3264   0.601   0.840   1.996  0.2313  0.1800 -0.5583
 1018WAT     H1 3265   0.671   0.892   1.957 -0.2606  0.4804 -1.0663
 1018WAT     H2 3266   0.639   0.804   2.076  0.6891  1.0630 -0.3669
 1019WAT      O 3267   0.013   4.615   4.518  0.2183 -0.5862 -0.3185
 1019WAT     H1 3268   0.025   4.700   4.561 -1.8619 -0.9634  1.1726
 1019WAT     H2 3269   0.080   4.559   4.557  1.3250  0.2287 -0.9927
 1020WAT      O 3270   0.170   1.320   1.041 -0.4935 -0.1379  0.2325
 1020WAT     H1 3271   0.134   1.312   0.953 -2.1682  1.4521  0.7124
 1020WAT     H2 3272   0.254   1.365   1.029  0.8649 -2.7843 -0.7890
 1021WAT      O 3273   3.706   3.950   2.988 -0.0000 -0.1196 -0.1189
 1021WAT     H1 3274   3.753   3.884   3.040  0.4166  1.0006  0.9759
 1021WAT     H2 3275   3.642   3.900   2.939 -0.4139 -1.2453  1.4827
 1022WAT      O 3276   1.205   1.033   4.182 -0.2007  0.2542 -0.3046
 1022WAT     H1 3277   1.190   0.939   4.183 -1.2294  0.4078 -0.3525
 1022WAT     H2 3278   1.160   1.065   4.260  0.3084  0.6870 -0.1820
 1023WAT      O 3279   0.944   3.345   1.678  0.0399 -0.4772  0.3826
 1023WAT     H1 3280   0.958   3.426   1.727 -1.3076  0.1163 -0.1504
 1023WAT     H2 3281   0.872   3.302   1.722 -0.5410 -0.4154 -0.4841
 1024WAT      O 3282   0.292   1.664   4.520  0.1664 -0.2495 -0.9930
 1024WAT     H1 3283   0.237   1.738   4.542  1.1842  0.3272 -0.3121
 1024WAT     H2 3284   0.373   1.703   4.488  1.8243 -0.9408  1.9861
 1025WAT      O 3285   0.723   2.224   3.477  0.2201 -0.0438 -0.5974
 1025WAT     H1 3286   0.631   2.207   3.455  0.3991 -1.5988 -0.2477
 1025WAT     H2 3287   0.771   2.150   3.440  1.1201 -0.1477  0.7217
 1026WAT      O 3288   2.495   4.500   4.978 -0.1796 -0.3287 -0.9488
 1026WAT     H1 3289   2.414   4.466   4.940 -0.5658  0.1084 -0.5296
 1026WAT     H2 3290   2.501   4.589   4.943 -1.0201  0.4183  0.6934
 1027WAT      O 3291   0.477   4.334   5.261  0.6560 -0.2617 -0.0725
 1027WAT     H1 3292   0.515   4.402   5.206 -0.2841 -0.4820 -1.0259
 1027WAT     H2 3293   0.458   4.262   5.200 -1.2381 -0.1718  0.3618
 1028WAT      O 3294   3.436   4.241   3.820  0.4999 -0.0945  0.1863
 1028WAT     H1 3295   3.519   4.287   3.804  0.1256  0.1007 -1.3572
 1028WAT     H2 3296   3.430   4.178   3.748 -1.0753  0.4561 -0.2048
 1029WAT      O 3297   3.139   2.262   2.382 -0.0678 -0.2323  0.1383
 1029WAT     H1 3298   3.160   2.229   2.295  0.6531 -1.2976  0.6845
 1029WAT     H2 3299   3.154   2.356   2.377  0.3479 -0.3402 -0.7774
 1030WAT      O 3300   3.625   5.132   3.391 -0.0377 -0.1448 -0.1071
 1030WAT     H1 3301   3.647   5.206   3.447 -0.9582  1.0711 -1.3072
 1030WAT     H2 3302   3.537   5.106   3.419 -0.3787  0.2747 -0.7698
 1031WAT      O 3303   0.775   2.686   4.961 -0.5233  0.1693 -0.7557
 1031WAT     H1 3304   0.779   2.758   5.024 -0.6917  0.7722 -1.4311
 1031WAT     H2 3305   0.813   2.611   5.008 -0.4838  0.6558 -0.0033
 1032WAT      O 3306   4.462   1.661   3.879 -0.0269  0.8320  0.4559
 1032WAT     H1 3307   4.504   1.710   3.808  0.5100 -0.7976 -0.4116
 1032WAT     H2 3308   4.532   1.605   3.914 -0.9556 -0.4344  0.3715
 1033WAT      O 3309   2.362   4.843   5.248 -0.0679  0.6047  0.5053
 1033WAT     H1 3310   2.418   4.918   5.266  1.1193  1.0879 -3.9828
 1033WAT     H2 3311   2.424   4.772   5.229 -1.0627 -0.2047  0.2384
 1034WAT      O 3312   1.452   3.468   4.677  0.4855 -0.6565  0.8764
 1034WAT     H1 3313   1.368   3.431   4.703 -0.1303 -0.2194 -0.4150
 1034WAT     H2 3314   1.469   3.535   4.744 -1.5959  1.2060 -0.3087
 1035WAT      O 3315   3.786   0.253   0.386  0.2850  0.1766  0.1924
 1035WAT     H1 3316   3.725   0.254   0.312 -0.9065 -0.8094  1.0982
 1035WAT     H2 3317   3.847   0.182   0.366  1.0451  1.0367 -0.6251
 1036WAT      O 3318   0.409   1.889   1.615  0.1259 -0.8631  0.1689
 1036WAT     H1 3319   0.437   1.912   1.703  1.5724  0.2843 -0.5390
 1036WAT     H2 3320   0.415   1.793   1.612 -1.2367 -1.0395  1.6762
 1037WAT      O 3321   1.104   0.761   3.937  0.2633  0.4334 -0.2663
 1037WAT     H1 3322   1.124   0.682   3.987  0.5651  0.3552 -0.5152
 1037WAT     H2 3323   1.020   0.742   3.894 -0.4419  0.8100  0.8776
 1038WAT      O 3324   2.739   5.011   1.730  0.3058 -0.1499 -0.3755
 1038WAT     H1 3325   2.688   5.051   1.660 -0.4018  1.3761  0.9481
 1038WAT     H2 3326   2.755   4.922   1.700  2.2302  1.1160 -3.6107
 1039WAT      O 3327   0.007   2.734   2.677 -0.3659 -0.3584  0.3428
 1039WAT     H1 3328   0.060   2.800   2.722  0.1938 -1.0487  0.7093
 1039WAT     H2 3329  -0.049   2.785   2.618 -1.6881  0.6520  2.3557
 1040WAT      O 3330   4.403   4.429   3.553  0.0623 -0.6120 -0.1973
 1040WAT     H1 3331   4.459   4.490   3.603 -1.5583  0.9771 -0.2289
 1040WAT     H2 3332   4.433   4.438   3.463 -0.0207 -0.0032 -0.1703
 1041WAT      O 3333   3.681   1.055   3.133 -0.1313  0.1614 -0.0946
 1041WAT     H1 3334   3.740   0.986   3.103 -1.0692  0.3200 -2.5218
 1041WAT     H2 3335   3.603   1.046   3.079  0.0442  3.6084 -1.1755
 1042WAT      O 3336   3.359   4.596   0.165 -0.0807 -0.5056  0.1956
 1042WAT     H1 3337   3.437   4.544   0.143 -1.9580 -3.3394 -0.2275
 1042WAT     H2 3338   3.364   4.606   0.260  0.3032 -1.6044  0.3139
 1043WAT      O 3339   4.285   0.024   2.473  0.1685 -0.7090  0.3008
 1043WAT     H1 3340   4.252   0.034   2.384  1.5569  1.1194 -0.0657
 1043WAT     H2 3341   4.380   0.029   2.464  0.3118  0.2721  1.9722
 1044WAT      O 3342   1.215   1.138   5.018 -0.0435 -0.0023  0.0864
 1044WAT     H1 3343   1.301   1.130   4.977 -0.1417  1.1329 -0.3716
 1044WAT     H2 3344   1.175   1.214   4.975 -0.5508  0.6094  1.5879
 1045WAT      O 3345   4.310   4.052   0.421 -0.1556  0.1214 -0.4534
 1045WAT     H1 3346   4.242   4.000   0.379 -1.0274  1.8452 -1.2329
 1045WAT     H2 3347   4.313   4.134   0.371  1.2670  0.7901  0.6555
 1046WAT      O 3348   2.867   1.424   1.545 -0.4587 -0.4033  0.0405
 1046WAT     H1 3349   2.842   1.460   1.630 -0.8364 -0.5540 -0.0054
 1046WAT     H2 3350   2.813   1.472   1.482 -0.7188 -0.8115 -0.0496
 1047WAT      O 3351   1.699   1.284   1.770  0.2972  0.3051  0.0329
 1047WAT     H1 3352   1.623   1.248   1.724  0.6312 -0.1461 -0.1694
 1047WAT     H2 3353   1.774   1.249   1.722  0.6292  1.3355 -0.2192
 1048WAT      O 3354   1.782   1.494   4.203 -0.2480 -0.1325 -0.2003
 1048WAT     H1 3355   1.841   1.442   4.148 -1.2326  0.0915 -1.4872
 1048WAT     H2 3356   1.715   1.432   4.231  0.7252 -0.4771  1.5684
 1049WAT      O 3357   3.488   4.405   4.334  0.1614 -0.1711  0.6369
 1049WAT     H1 3358   3.454   4.391   4.246  0.8122 -2.1237  0.6360
 1049WAT     H2 3359   3.435   4.347   4.389 -0.4489  1.2588  1.6012
 1050WAT      O 3360   2.885   2.288   4.015  0.2459  0.4293 -0.3146
 1050WAT     H1 3361   2.793   2.314   4.018  0.1615  0.1103 -0.1314
 1050WAT     H2 3362   2.926   2.336   4.087  0.1676  0.3700 -0.2290
 1051WAT      O 3363   0.166   4.600   2.502  0.3983 -0.6105  0.0298
 1051WAT     H1 3364   0.095   4.664   2.501 -1.9755 -2.8941  2.8815
 1051WAT     H2 3365   0.166   4.563   2.414  0.5490  1.8510 -1.0936
 1052WAT      O 3366   1.169   3.068   4.855  0.0667 -0.2301 -0.0490
 1052WAT     H1 3367   1.218   3.103   4.930  1.4537  0.0554 -1.0385
 1052WAT     H2 3368   1.235   3.056   4.787 -1.6015  3.4753 -2.6901
 1053WAT      O 3369   3.816   1.309   5.044 -0.5812  0.1730  0.1296
 1053WAT     H1 3370   3.782   1.221   5.058  0.8563 -0.7205 -1.6352
 1053WAT     H2 3371   3.810   1.322   4.950  1.1392  1.1408  0.1189
 1054WAT      O 3372   3.854   4.732   0.237  0.3637 -0.1145 -0.0801
 1054WAT     H1 3373   3.792   4.801   0.262  0.2475  0.0981 -0.9234
 1054WAT     H2 3374   3.938   4.760   0.273  0.1578  0.0735  0.2568
 1055WAT      O 3375   0.818   0.458   3.880  0.2241 -0.0573  0.1361
 1055WAT     H1 3376   0.844   0.539   3.836  0.3072  1.2461  2.4189
 1055WAT     H2 3377   0.898   0.408   3.888  0.0108 -0.8783 -2.1391
 1056WAT      O 3378   3.557   3.414   2.339  0.3811 -0.1422 -0.5163
 1056WAT     H1 3379   3.544   3.409   2.434  1.3016  1.4523 -0.2705
 1056WAT     H2 3380   3.589   3.502   2.324  1.0919 -0.6505 -2.2258
 1057WAT      O 3381   1.414   3.571   1.964 -0.1226 -0.3476 -0.3894
 1057WAT     H1 3382   1.372   3.635   2.022 -0.9005  1.1754 -2.5241
 1057WAT     H2 3383   1.347   3.505   1.949  0.1025 -0.7802  0.4759
 1058WAT      O 3384   2.113   1.892   4.076 -0.3415  0.8049 -0.2943
 1058WAT     H1 3385   2.042   1.827   4.081  1.7763 -2.0702 -2.9443
 1058WAT     H2 3386   2.118   1.929   4.164 -2.0771 -2.3326  1.3212
 1059WAT      O 3387   3.841   3.493   0.224 -0.0879 -0.4432  0.3918
 1059WAT     H1 3388   3.812   3.422   0.167  2.4801 -0.2775 -1.2941
 1059WAT     H2 3389   3.814   3.467   0.312 -0.8696 -2.5567 -0.4308
 1060WAT      O 3390   1.350   0.698   3.077  0.3339  0.4138 -0.3453
 1060WAT     H1 3391   1.403   0.754   3.020 -2.0497  1.4059 -1.7400
 1060WAT     H2 3392   1.281   0.664   3.020 -0.1161 -1.4507  1.2082
 1061WAT      O 3393   0.250   1.149   4.157  0.4001 -0.0674 -0.8599
 1061WAT     H1 3394   0.171   1.197   4.136  0.5375  0.1557 -0.8704
 1061WAT     H2 3395   0.320   1.196   4.111  0.5471 -0.2204 -0.7943
 1062WAT      O 3396   2.710   2.071   0.765  0.0257 -0.1824  0.1026
 1062WAT     H1 3397   2.787   2.117   0.797 -0.5035  0.2893  0.7154
 1062WAT     H2 3398   2.639   2.134   0.773 -0.1070  0.0220 -2.2149
 1063WAT      O 3399   0.915   4.858   4.643 -0.4165  0.0800 -0.3074
 1063WAT     H1 3400   0.880   4.773   4.616 -0.7475 -0.1844  0.8829
 1063WAT     H2 3401   0.837   4.913   4.654 -0.4610 -0.3338  1.7655
 1064WAT      O 3402   1.055   1.498   0.959  0.1936  0.1992 -0.9653
 1064WAT     H1 3403   1.012   1.429   1.010 -2.2051  1.8330 -0.6332
 1064WAT     H2 3404   1.040   1.578   1.009  5.2012  0.8374  0.0745
 1065WAT      O 3405   1.104   1.583   1.485 -0.0487 -0.0909  0.0896
 1065WAT     H1 3406   1.052   1.602   1.563 -0.0502  1.5167 -0.2747
 1065WAT     H2 3407   1.041   1.580   1.413  0.3223  2.2920 -0.4232
 1066WAT      O 3408   3.709   0.549   0.452 -0.2092  0.0450 -0.1357
 1066WAT     H1 3409   3.731   0.460   0.424  2.1747  0.2822  0.7396
 1066WAT     H2 3410   3.619   0.562   0.422 -0.4352 -2.4449 -0.7715
 1067WAT      O 3411   3.465   5.104   4.971 -0.1457 -0.4262 -0.3809
 1067WAT     H1 3412   3.550   5.132   5.005 -0.6057  2.6493 -1.4080
 1067WAT     H2 3413   3.416   5.075   5.048  0.6105  1.2856  0.7988
 1068WAT      O 3414   1.027   3.234   3.522 -0.6093 -0.7236  0.4236
 1068WAT     H1 3415   0.942   3.253   3.561 -0.5405 -1.7183  1.1031
 1068WAT     H2 3416   1.010   3.227   3.428 -1.5075 -1.9738  0.6432
 1069WAT      O 3417   1.678   1.196   5.227  0.0648 -0.5976  0.5456
 1069WAT     H1 3418   1.601   1.195   5.285 -0.5467 -1.9276 -0.2351
 1069WAT     H2 3419   1.674   1.282   5.184  0.2646  0.2227  2.0959
 1070WAT      O 3420   2.318   0.879   1.521 -0.1051  0.2726 -0.3983
 1070WAT     H1 3421   2.292   0.875   1.613  2.5506 -1.9865  0.3938
 1070WAT     H2 3422   2.390   0.943   1.519  0.4392 -0.3336 -0.6875
 1071WAT      O 3423   2.928   1.072   0.352  0.6366  0.3232  0.0488
 1071WAT     H1 3424   3.001   1.051   0.410  1.0500  0.1625 -0.5200
 1071WAT     H2 3425   2.962   1.142   0.296  1.0837 -1.1379 -1.6019
 1072WAT      O 3426   1.835   0.386   4.353  0.3439  0.3297  0.0229
 1072WAT     H1 3427   1.911   0.445   4.364 -0.3025  1.2387 -0.2364
 1072WAT     H2 3428   1.792   0.419   4.274 -0.6996  0.2419  0.5508
 1073WAT      O 3429   1.185   1.559   5.272  0.1300 -0.3798 -0.0136
 1073WAT     H1 3430   1.134   1.543   5.192 -2.0190  1.4406  0.8983
 1073WAT     H2 3431   1.247   1.486   5.275 -0.8205 -1.4168 -2.4494
 1074WAT      O 3432   3.269   2.417   1.847 -0.0714  0.1136 -0.1633
 1074WAT     H1 3433   3.216   2.428   1.768 -0.5220 -2.2847 -0.2592
 1074WAT     H2 3434   3.331   2.348   1.824 -0.8649 -1.3442  1.8771
 1075WAT      O 3435   4.077   3.631   5.161 -0.4867  1.0616  0.1672
 1075WAT     H1 3436   3.996   3.626   5.109  0.5484  0.7968 -1.5160
 1075WAT     H2 3437   4.145   3.648   5.096  0.9763  0.1053  1.3953
 1076WAT      O 3438   0.228   1.088   2.165  0.2431  0.0421 -0.8244
 1076WAT     H1 3439   0.163   1.028   2.199  0.5044 -0.6639 -1.5340
 1076WAT     H2 3440   0.309   1.036   2.160  0.7227  0.7368 -0.4891
 1077WAT      O 3441   2.777   4.174   4.218 -0.6103 -0.0282  0.7768
 1077WAT     H1 3442   2.765   4.168   4.123 -0.1843  1.7766  0.5774
 1077WAT     H2 3443   2.808   4.087   4.243  1.1882  0.0065 -1.0435
 1078WAT      O 3444   2.519   1.617   2.662  0.1584  0.6337 -0.1500
 1078WAT     H1 3445   2.450   1.682   2.676 -0.6152  0.0780 -1.2071
 1078WAT     H2 3446   2.474   1.543   2.621  1.2389 -0.0797 -0.0912
 1079WAT      O 3447   4.488   2.423   2.658 -0.8726  0.0867 -0.0552
 1079WAT     H1 3448   4.528   2.390   2.578  0.9987 -0.0028  0.8745
 1079WAT     H2 3449   4.524   2.511   2.669 -2.4177  0.7702 -0.1659
 1080WAT      O 3450   1.013   1.891   3.084 -0.1614  0.1157  0.3765
 1080WAT     H1 3451   0.996   1.826   3.016  0.5129  0.0582  0.2544
 1080WAT     H2 3452   0.954   1.963   3.062  0.6192  0.4486 -0.7872
 1081WAT      O 3453   4.387   0.876   5.220 -0.0510 -0.5104  0.0100
 1081WAT     H1 3454   4.447   0.809   5.251  2.2391  1.5478  0.2945
 1081WAT     H2 3455   4.408   0.886   5.127  2.4414  2.3361  0.7120
 1082WAT      O 3456   2.918   3.807   4.868  0.7811 -0.2294 -0.2500
 1082WAT     H1 3457   2.936   3.810   4.962 -0.8859  0.8722  0.0713
 1082WAT     H2 3458   2.900   3.715   4.850 -0.8202 -0.1866  0.9269
 1083WAT      O 3459   3.134   4.560   0.332 -0.2592  0.1115 -0.6179
 1083WAT     H1 3460   3.136   4.580   0.238  0.5185 -0.0529 -0.6482
 1083WAT     H2 3461   3.152   4.466   0.336 -0.0984  0.1577 -0.2955
 1084WAT      O 3462   0.006   1.575   2.030 -0.3191  1.1606  0.0664
 1084WAT     H1 3463  -0.073   1.579   1.976 -0.0858  1.4638 -0.2571
 1084WAT     H2 3464   0.019   1.666   2.059  1.2464  1.6127 -1.8334
 1085WAT      O 3465   4.394   1.655   4.592  0.0968 -0.2498 -0.3804
 1085WAT     H1 3466   4.340   1.640   4.515 -0.5860  1.0813 -0.2008
 1085WAT     H2 3467   4.422   1.746   4.584  0.7402 -0.3575  0.4929
 1086WAT      O 3468   1.313   4.631   2.571 -0.2748 -0.6861  0.1516
 1086WAT     H1 3469   1.390   4.688   2.572 -1.2277  0.6546 -0.3052
 1086WAT     H2 3470   1.252   4.671   2.632 -0.9762 -1.2167 -0.1812
 1087WAT      O 3471   0.149   4.243   0.385  0.0863 -0.2625 -0.0225
 1087WAT     H1 3472   0.237   4.203   0.379 -0.3303 -1.1132 -0.6887
 1087WAT     H2 3473   0.090   4.168   0.394 -0.7155  0.2083 -1.1924
 1088WAT      O 3474   0.858   3.802   4.423  0.3663  0.0390  0.8311
 1088WAT     H1 3475   0.903   3.799   4.508  0.8481  1.3126  0.6436
 1088WAT     H2 3476   0.869   3.892   4.393  0.7161 -0.5312 -0.8674
 1089WAT      O 3477   2.074   2.284   1.643 -0.2277  0.2371  0.1258
 1089WAT     H1 3478   2.106   2.228   1.572  2.1819  1.3376  0.2555
 1089WAT     H2 3479   2.046   2.222   1.711  0.1029 -0.8269 -0.6816
 1090WAT      O 3480   3.655   4.940   1.929 -0.1459  0.5281  0.1848
 1090WAT     H1 3481   3.745   4.909   1.916 -0.0356 -0.3571  2.5526
 1090WAT     H2 3482   3.653   5.026   1.887  1.2290 -0.2286 -1.5619
 1091WAT      O 3483   0.752   4.722   2.695 -0.0969 -0.0467 -0.2658
 1091WAT     H1 3484   0.689   4.650   2.685  1.7054 -2.1102  1.9164
 1091WAT     H2 3485   0.768   4.752   2.605 -0.3567 -2.9564 -1.4020
 1092WAT      O 3486   0.855   4.837   1.910  0.0632 -0.0675 -0.0804
 1092WAT     H1 3487   0.829   4.789   1.988 -0.2012  1.6910  0.9741
 1092WAT     H2 3488   0.799   4.915   1.910 -0.9278 -0.6677 -2.8147
 1093WAT      O 3489   1.326   1.665   0.714  0.2142 -0.3540  0.5265
 1093WAT     H1 3490   1.266   1.593   0.694  0.6356 -0.4676 -0.3825
 1093WAT     H2 3491   1.352   1.700   0.629  3.1111 -1.6735  0.7411
 1094WAT      O 3492   4.108   1.124   1.259  0.0977 -0.0965  0.1105
 1094WAT     H1 3493   4.196   1.155   1.236  1.3590 -1.1910  2.9245
 1094WAT     H2 3494   4.065   1.201   1.298 -0.4254  0.5688 -1.7027
 1095WAT      O 3495   1.490   1.532   0.226 -0.3191 -0.3579  0.1065
 1095WAT     H1 3496   1.547   1.463   0.193 -0.8854 -0.8661  0.1771
 1095WAT     H2 3497   1.539   1.613   0.210  0.5481 -0.8014  0.4332
 1096WAT      O 3498   2.933   1.169   3.041  0.6829 -0.7370  0.2424
 1096WAT     H1 3499   2.986   1.248   3.031 -1.7568  0.9418 -0.3099
 1096WAT     H2 3500   2.885   1.162   2.958 -0.8520 -1.4546  1.1520
 1097WAT      O 3501   0.705   3.762   0.459  0.3640 -0.5464 -0.6001
 1097WAT     H1 3502   0.726   3.853   0.435 -1.8578 -0.0926 -1.0538
 1097WAT     H2 3503   0.790   3.722   0.476  1.4950  1.3061 -1.5141
 1098WAT      O 3504   2.155   4.084   0.104 -0.4806 -0.0218 -0.3401
 1098WAT     H1 3505   2.149   3.989   0.107  3.9672 -0.6031 -2.3076
 1098WAT     H2 3506   2.194   4.108   0.188 -0.7411 -0.0052 -0.2211
 1099WAT      O 3507   0.083   2.646   4.899 -1.2676  0.3075  0.6321
 1099WAT     H1 3508   0.163   2.603   4.868 -0.4707  3.6240 -2.6109
 1099WAT     H2 3509   0.105   2.677   4.987 -0.6341 -2.5181  1.5568
 1100WAT      O 3510   3.338   0.041   1.935  0.2932 -0.5925 -0.4327
 1100WAT     H1 3511   3.279   0.002   1.870  0.2597  1.9015 -2.0335
 1100WAT     H2 3512   3.426   0.015   1.907  0.1764 -1.2341 -0.2245
 1101WAT      O 3513   4.358   1.519   5.262 -0.3925 -0.2643 -0.6944
 1101WAT     H1 3514   4.287   1.462   5.234  0.1268 -0.2227 -2.2530
 1101WAT     H2 3515   4.318   1.581   5.322 -1.1479 -1.7014  0.3462
 1102WAT      O 3516   1.713   0.857   0.057  0.1391 -0.0162 -0.8008
 1102WAT     H1 3517   1.686   0.863   0.148  1.4838 -0.3524 -0.3553
 1102WAT     H2 3518   1.727   0.948   0.030 -0.3257  0.0874 -0.6961
 1103WAT      O 3519   0.242   0.305   1.721 -0.1385 -0.0898  0.0741
 1103WAT     H1 3520   0.286   0.246   1.783  0.1985 -0.9493 -0.9427
 1103WAT     H2 3521   0.252   0.392   1.759 -0.4344 -0.6481  1.4992
 1104WAT      O 3522   1.265   2.791   0.891  0.1875  0.4794  0.1363
 1104WAT     H1 3523   1.358   2.813   0.890  0.5854 -1.1006 -0.2682
 1104WAT     H2 3524   1.258   2.720   0.954 -0.4368 -0.5763 -1.0652
 1105WAT      O 3525   0.787   1.037   4.052 -0.5455 -0.0296  0.0678
 1105WAT     H1 3526   0.823   1.122   4.078 -0.4184  0.4654 -1.5667
 1105WAT     H2 3527   0.722   1.017   4.119 -1.5103  2.0030 -0.1732
 1106WAT      O 3528   4.482   5.048   0.873  0.5504  0.0729  0.5082
 1106WAT     H1 3529   4.498   5.097   0.954  1.6548 -1.9921  1.6450
 1106WAT     H2 3530   4.531   4.966   0.886  1.2597 -0.0798 -2.5253
 1107WAT      O 3531   2.145   3.636   1.839 -0.2490  0.0756  0.3086
 1107WAT     H1 3532   2.141   3.541   1.832 -1.0599  0.0682  0.6956
 1107WAT     H2 3533   2.133   3.654   1.932 -0.7382  0.5715  0.1600
 1108WAT      O 3534   2.597   4.313   1.072  0.2894 -0.1899  0.1302
 1108WAT     H1 3535   2.602   4.403   1.104  0.8169 -0.4021  0.6521
 1108WAT     H2 3536   2.638   4.316   0.985  0.1055  0.1152  0.0543
 1109WAT      O 3537   4.325   3.750   0.978  0.6232 -0.1142 -0.8202
 1109WAT     H1 3538   4.352   3.708   0.896 -0.8811 -0.8906 -0.9400
 1109WAT     H2 3539   4.270   3.823   0.950  0.0846 -0.3955 -0.5180
 1110WAT      O 3540   4.024   3.590   2.283  0.2703 -0.3885 -0.3035
 1110WAT     H1 3541   3.959   3.660   2.291  0.2866 -0.4907  0.9082
 1110WAT     H2 3542   4.105   3.635   2.259  0.4868  0.1605  1.3031
 1111WAT      O 3543   2.999   3.927   3.859 -0.7330 -0.0085  0.0200
 1111WAT     H1 3544   3.075   3.966   3.901  0.6872 -1.4303 -1.1265
 1111WAT     H2 3545   2.989   3.975   3.777 -1.1112  0.2041  0.1872
 1112WAT      O 3546   1.366   1.527   1.489 -0.0236 -0.3998  0.2902
 1112WAT     H1 3547   1.378   1.475   1.410 -1.3699  1.0411 -0.9235
 1112WAT     H2 3548   1.272   1.538   1.497  0.1589  0.6201  1.3250
 1113WAT      O 3549   2.012   0.087   2.822 -0.0918  0.1585 -0.3115
 1113WAT     H1 3550   2.080   0.025   2.795 -0.6406 -0.5673 -0.0768
 1113WAT     H2 3551   2.046   0.173   2.798 -0.1752 -0.3658 -2.5294
 1114WAT      O 3552   3.404   3.896   1.956 -0.3435  0.3759  0.4948
 1114WAT     H1 3553   3.484   3.938   1.924  0.6662 -2.3037 -0.7649
 1114WAT     H2 3554   3.375   3.841   1.883 -1.1078 -1.7260  2.2776
 1115WAT      O 3555   0.821   3.793   1.976 -0.0228  0.4507  0.5505
 1115WAT     H1 3556   0.865   3.866   1.933 -1.4242  0.9696 -0.0565
 1115WAT     H2 3557   0.749   3.834   2.025 -0.3383 -0.4410  0.8545
 1116WAT      O 3558   2.210   1.023   4.656  0.4728  0.4328 -0.1917
 1116WAT     H1 3559   2.257   1.091   4.608  2.4611 -0.5239  0.2837
 1116WAT     H2 3560   2.139   0.997   4.598  1.1536  1.2155 -1.4242
 1117WAT      O 3561   2.693   2.933   0.045 -0.2677 -0.2236 -0.0033
 1117WAT     H1 3562   2.764   2.910  -0.015  1.2905  2.8680  0.4320
 1117WAT     H2 3563   2.715   2.885   0.126  1.5169  0.8029  0.1836
 1118WAT      O 3564   0.722   2.205   4.809 -0.2786 -0.0444 -0.5094
 1118WAT     H1 3565   0.813   2.207   4.839 -0.2705 -1.0720 -0.4152
 1118WAT     H2 3566   0.691   2.294   4.821  0.3459  0.0363  0.6286
 1119WAT      O 3567   3.101   2.069   2.817 -0.1796  0.0803  0.5150
 1119WAT     H1 3568   3.157   2.006   2.772  0.4628  1.1218 -0.1758
 1119WAT     H2 3569   3.159   2.143   2.836 -0.9937  0.6019  1.0277
 1120WAT      O 3570   4.119   1.799   1.637  0.4388  0.1779 -0.1821
 1120WAT     H1 3571   4.076   1.765   1.715  2.9739 -0.0303  1.2349
 1120WAT     H2 3572   4.047   1.827   1.580 -1.5164  0.6057  2.3248
 1121WAT      O 3573   3.042   3.719   4.309 -0.0762 -0.4809  0.1143
 1121WAT     H1 3574   3.106   3.656   4.275  0.2084 -0.3676  0.4371
 1121WAT     H2 3575   3.069   3.734   4.399  0.5567  0.9853 -0.2813
 1122WAT      O 3576   4.094   3.006   2.939  0.4492 -0.4042  0.5437
 1122WAT     H1 3577   4.026   2.944   2.915  0.4537 -0.1755 -0.0782
 1122WAT     H2 3578   4.046   3.083   2.970  0.4221 -0.3038  0.2583
 1123WAT      O 3579   1.180   1.412   0.741  0.4145 -0.1571  0.1603
 1123WAT     H1 3580   1.199   1.318   0.739  2.7735  0.2565  0.3865
 1123WAT     H2 3581   1.139   1.427   0.826 -0.6365 -1.0556 -0.1646
 1124WAT      O 3582   0.435   0.850   4.654 -0.0873  0.1556  0.1117
 1124WAT     H1 3583   0.433   0.899   4.572 -0.8149 -1.0388 -0.6121
 1124WAT     H2 3584   0.367   0.784   4.644 -0.9840  0.7131  2.1628
 1125WAT      O 3585   1.838   3.620   5.178  0.8197 -0.1418  0.1745
 1125WAT     H1 3586   1.767   3.559   5.201  0.7930  0.0419  0.5776
 1125WAT     H2 3587   1.817   3.701   5.225  0.6423  0.3147 -0.6746
 1126WAT      O 3588   1.386   0.575   2.755 -0.3971  0.2207  0.2049
 1126WAT     H1 3589   1.445   0.650   2.747  0.4448 -0.6053 -2.6128
 1126WAT     H2 3590   1.306   0.611   2.791  0.8310  1.9453  1.3682
 1127WAT      O 3591   1.108   3.445   0.856 -0.2697  0.3889 -0.0930
 1127WAT     H1 3592   1.132   3.515   0.795 -0.9901  1.0477  0.3525
 1127WAT     H2 3593   1.179   3.442   0.919  0.3656 -0.1325 -0.8195
 1128WAT      O 3594   2.422   2.151   4.724 -0.2933  1.3798 -0.4382
 1128WAT     H1 3595   2.479   2.185   4.793  0.2076  0.5538 -0.4419
 1128WAT     H2 3596   2.433   2.214   4.652  1.5317  0.6106 -0.8747
 1129WAT      O 3597   4.394   4.421   2.483  0.3697  0.3689  0.1487
 1129WAT     H1 3598   4.375   4.460   2.397  1.6307 -0.4519 -0.5340
 1129WAT     H2 3599   4.397   4.496   2.542  1.2707  1.1649 -0.8665
 1130WAT      O 3600   2.528   1.125   3.634 -0.7204 -0.4899 -0.0769
 1130WAT     H1 3601   2.581   1.101   3.710  0.4283  0.3219 -0.5771
 1130WAT     H2 3602   2.449   1.072   3.641 -1.1048  0.2916  2.2178
 1131WAT      O 3603   4.029   3.234   0.978 -0.5153  0.1668 -0.0142
 1131WAT     H1 3604   4.018   3.175   0.904  0.7447  1.5348 -1.3720
 1131WAT     H2 3605   3.980   3.194   1.049 -0.0675 -2.2503 -0.9943
 1132WAT      O 3606   0.003   3.112   3.982  0.8269 -0.0526  0.0758
 1132WAT     H1 3607  -0.014   3.132   4.074 -0.0005 -0.5536  0.0406
 1132WAT     H2 3608  -0.049   3.177   3.934 -0.1925 -0.9350 -0.0345
 1133WAT      O 3609   2.860   1.922   2.910  0.2959  0.3030 -0.1604
 1133WAT     H1 3610   2.832   1.838   2.875 -0.1361  0.4868 -0.2607
 1133WAT     H2 3611   2.926   1.953   2.848  2.4154 -1.1649  1.2486
 1134WAT      O 3612   1.513   1.113   2.887 -0.4024  0.5981  0.3206
 1134WAT     H1 3613   1.455   1.037   2.899 -0.3252  0.3018 -1.0349
 1134WAT     H2 3614   1.600   1.075   2.878 -0.3692  0.8508 -0.4092
 1135WAT      O 3615   0.474   3.349   4.402 -0.0160  0.7572  0.0047
 1135WAT     H1 3616   0.452   3.339   4.495  1.5118  3.0295  0.6853
 1135WAT     H2 3617   0.563   3.385   4.402  0.2356  0.2651 -2.3690
 1136WAT      O 3618   0.870   3.973   3.423 -0.0840  0.3370 -0.0713
 1136WAT     H1 3619   0.822   4.019   3.492 -1.2713 -0.6052 -0.2293
 1136WAT     H2 3620   0.841   4.016   3.342 -0.3215  0.0700 -0.1310
 1137WAT      O 3621   3.836   0.165   1.440 -0.0492  0.4012 -0.6797
 1137WAT     H1 3622   3.752   0.122   1.420 -0.6627  0.0456  2.1933
 1137WAT     H2 3623   3.902   0.097   1.424 -0.5586 -0.1232 -0.5876
 1138WAT      O 3624   2.781   0.237   0.826 -0.0645 -0.0824 -0.3017
 1138WAT     H1 3625   2.867   0.248   0.865 -1.1497  1.7281  1.8394
 1138WAT     H2 3626   2.791   0.267   0.735  1.6549 -0.5445 -0.2951
 1139WAT      O 3627   1.781   3.272   5.288  0.6187  0.1354  0.0098
 1139WAT     H1 3628   1.800   3.237   5.375  0.7496  0.4175  0.0939
 1139WAT     H2 3629   1.699   3.229   5.263  0.7499 -0.1876  0.1373
 1140WAT      O 3630   2.399   1.636   2.055  0.2557 -0.4916 -0.1263
 1140WAT     H1 3631   2.481   1.681   2.039 -0.4357  0.4534 -1.1455
 1140WAT     H2 3632   2.403   1.557   2.001  2.1124 -2.6081  2.7933
 1141WAT      O 3633   3.467   3.492   3.312  0.1154  0.7187  0.0515
 1141WAT     H1 3634   3.549   3.529   3.278  0.2939  0.7091  0.4662
 1141WAT     H2 3635   3.444   3.549   3.385  1.0150 -0.6497  1.4569
 1142WAT      O 3636   0.765   1.937   1.178 -0.0486 -0.4716 -0.5757
 1142WAT     H1 3637   0.709   1.947   1.255 -0.2210 -0.4325 -0.7044
 1142WAT     H2 3638   0.790   2.026   1.155 -0.4596 -0.4374 -0.9012
 1143WAT      O 3639   3.232   3.784   5.236  0.2941  0.0663  0.2357
 1143WAT     H1 3640   3.312   3.731   5.232 -0.9916 -2.1359  1.6431
 1143WAT     H2 3641   3.219   3.800   5.330 -0.7258  0.7305  0.0031
 1144WAT      O 3642   1.784   2.505   3.075 -0.1465 -1.0941  0.5661
 1144WAT     H1 3643   1.702   2.456   3.078  1.0651 -3.2855 -0.1587
 1144WAT     H2 3644   1.814   2.498   2.984 -0.0468  1.3092  0.3441
 1145WAT      O 3645   1.158   1.856   1.475 -0.2199 -0.1344 -0.2603
 1145WAT     H1 3646   1.168   1.864   1.570  3.1455 -0.5657 -0.4679
 1145WAT     H2 3647   1.167   1.763   1.457 -1.7137 -0.1747 -0.9942
 1146WAT      O 3648   2.335   1.760   2.791  0.0048 -0.3254 -0.1436
 1146WAT     H1 3649   2.353   1.804   2.874  0.8845  1.2902 -1.1302
 1146WAT     H2 3650   2.251   1.716   2.805  0.6655 -1.0138  1.9313
 1147WAT      O 3651   4.156   3.970   0.866  0.2946  0.6479  0.5730
 1147WAT     H1 3652   4.067   3.970   0.831  0.5840 -0.2974 -0.2276
 1147WAT     H2 3653   4.209   4.008   0.796  0.7174 -0.1585  0.4421
 1148WAT      O 3654   1.779   4.474   3.938  0.2030  0.0013  0.2798
 1148WAT     H1 3655   1.839   4.526   3.991  2.0539 -0.6314 -1.0600
 1148WAT     H2 3656   1.768   4.525   3.857 -0.8041 -0.0570  0.3733
 1149WAT      O 3657   4.262   4.590   4.667 -0.1912 -0.7409 -0.1172
 1149WAT     H1 3658   4.247   4.496   4.663 -2.5111 -0.4936  0.7504
 1149WAT     H2 3659   4.347   4.604   4.625  1.2006 -3.4241  1.5549
 1150WAT      O 3660   2.242   4.534   3.031 -0.1811  0.0973 -0.4058
 1150WAT     H1 3661   2.224   4.535   2.937 -0.5615 -1.4244 -0.3711
 1150WAT     H2 3662   2.166   4.490   3.070  1.2641 -1.9334  0.2732
 1151WAT      O 3663   1.434   1.163   3.302 -0.1754 -0.1314  0.2182
 1151WAT     H1 3664   1.478   1.216   3.236 -1.0472  1.4367  0.8508
 1151WAT     H2 3665   1.401   1.087   3.253  1.2562 -0.2253 -0.6642
 1152WAT      O 3666   1.688   2.046   3.064 -0.0569  0.6821 -0.1975
 1152WAT     H1 3667   1.768   2.054   3.116  0.6625 -0.0334 -1.1368
 1152WAT     H2 3668   1.634   2.120   3.091  0.5623  0.7049  1.0701
 1153WAT      O 3669   2.092   3.233   2.866  0.1928 -0.1909 -0.2037
 1153WAT     H1 3670   2.005   3.233   2.827  0.2869  3.9040 -0.8621
 1153WAT     H2 3671   2.147   3.278   2.801  2.3790 -1.0019  0.9982
 1154WAT      O 3672   2.603   1.418   1.160 -0.2957 -0.4367  0.0772
 1154WAT     H1 3673   2.691   1.400   1.130  0.7421  1.6989  1.5475
 1154WAT     H2 3674   2.546   1.396   1.086  1.6310 -0.0613 -1.5774
 1155WAT      O 3675   0.568   2.287   2.994  0.5952  0.1279 -0.0242
 1155WAT     H1 3676   0.577   2.382   2.999 -2.2065  0.5275 -0.6121
 1155WAT     H2 3677   0.623   2.261   2.920  0.6323  1.4486 -0.4727
 1156WAT      O 3678   1.261   0.936   0.093  0.4133 -0.0308  0.4027
 1156WAT     H1 3679   1.306   0.858   0.060  0.7992  0.7080 -0.8662
 1156WAT     H2 3680   1.232   0.911   0.181  1.4623 -1.2424  0.4366
 1157WAT      O 3681   3.481   1.510   4.147  0.2796  0.1406 -0.4237
 1157WAT     H1 3682   3.510   1.594   4.112 -1.7884  0.5122 -1.4321
 1157WAT     H2 3683   3.466   1.526   4.241 -0.1957  0.9452 -0.6317
 1158WAT      O 3684   2.935   1.853   5.177 -0.5604 -0.2587  0.1757
 1158WAT     H1 3685   2.861   1.822   5.229 -0.5569 -0.3358  0.1338
 1158WAT     H2 3686   2.953   1.782   5.116 -2.2939  0.8782 -1.7989
 1159WAT      O 3687   1.716   5.028   0.291 -0.1331  0.0097 -0.3810
 1159WAT     H1 3688   1.786   5.000   0.232  1.9951 -1.6222  2.6479
 1159WAT     H2 3689   1.761   5.072   0.363 -2.0886 -1.4285  1.8767
 1160WAT      O 3690   3.647   3.188   1.864  0.3534  0.2894  0.1747
 1160WAT     H1 3691   3.656   3.127   1.937 -0.1711  0.4753  0.3981
 1160WAT     H2 3692   3.732   3.185   1.820 -0.2533 -2.1052 -1.0087
 1161WAT      O 3693   4.004   1.670   2.934  0.1003  0.2186  0.2552
 1161WAT     H1 3694   3.945   1.629   2.871  1.2003 -2.5305  0.8619
 1161WAT     H2 3695   4.090   1.668   2.892  0.0651  3.2300 -0.1986
 1162WAT      O 3696   4.464   4.174   1.274  0.1135 -0.7582  0.2684
 1162WAT     H1 3697   4.414   4.145   1.197  0.2372 -0.3631  0.0345
 1162WAT     H2 3698   4.397   4.196   1.339  0.0209 -2.0194  0.6301
 1163WAT      O 3699   1.872   2.458   1.626 -0.4233 -0.3072  0.6619
 1163WAT     H1 3700   1.959   2.418   1.624  0.5090  1.6078 -1.3878
 1163WAT     H2 3701   1.820   2.400   1.683  1.5339 -2.7785  0.1063
 1164WAT      O 3702   3.264   3.621   0.638 -0.5810  0.6457 -0.5021
 1164WAT     H1 3703   3.315   3.589   0.564 -0.6680 -0.2470 -0.1956
 1164WAT     H2 3704   3.173   3.605   0.613 -0.5938 -0.2021  0.0080
 1165WAT      O 3705   2.633   2.320   1.354  0.0433  0.5003 -0.1209
 1165WAT     H1 3706   2.635   2.270   1.272  0.9184  0.9024 -0.3611
 1165WAT     H2 3707   2.653   2.255   1.422  1.2936  0.5163 -0.4410
 1166WAT      O 3708   1.524   4.996   0.872 -0.3269 -0.3015  0.0798
 1166WAT     H1 3709   1.528   4.915   0.822 -2.3505  0.0516 -0.7646
 1166WAT     H2 3710   1.509   5.064   0.805  1.3484  0.7910  0.7563
 1167WAT      O 3711   2.989   4.027   4.715 -0.6600  0.2001  0.0918
 1167WAT     H1 3712   2.958   3.938   4.732 -1.1695  0.3702  0.0651
 1167WAT     H2 3713   2.995   4.033   4.620  1.0079 -0.3499  0.1305
 1168WAT      O 3714   0.165   2.746   1.629 -0.6432 -0.5917 -0.0243
 1168WAT     H1 3715   0.208   2.690   1.564  2.1596  0.8579  0.4074
 1168WAT     H2 3716   0.227   2.749   1.702 -2.3040  0.3073  1.4044
 1169WAT      O 3717   0.284   2.390   3.995 -0.1579 -0.1005 -0.3264
 1169WAT     H1 3718   0.262   2.463   4.053 -0.8856 -0.2041 -0.4626
 1169WAT     H2 3719   0.370   2.412   3.959  0.0606  0.2182  0.3806
 1170WAT      O 3720   1.836   4.651   2.997  0.0220 -0.1060 -0.1135
 1170WAT     H1 3721   1.835   4.714   3.069 -1.1073 -1.2433  0.9132
 1170WAT     H2 3722   1.867   4.570   3.037 -0.0316 -0.6052 -1.0579
 1171WAT      O 3723   1.083   0.739   0.610  0.1083 -0.0114  0.2027
 1171WAT     H1 3724   1.176   0.715   0.614 -0.2194 -1.3454  3.5597
 1171WAT     H2 3725   1.038   0.655   0.599 -0.7429  0.6263 -1.4049
 1172WAT      O 3726   0.462   3.033   0.894  0.1794  0.3790  0.4304
 1172WAT     H1 3727   0.397   3.093   0.932 -1.8229 -0.9458 -0.7617
 1172WAT     H2 3728   0.467   3.059   0.802  0.4473 -0.2792  0.2548
 1173WAT      O 3729   3.504   1.003   4.882 -0.0864  0.3917 -0.1389
 1173WAT     H1 3730   3.498   1.027   4.974  2.8608 -0.7402  0.4663
 1173WAT     H2 3731   3.504   0.907   4.882  2.1860  0.3051 -0.9787
 1174WAT      O 3732   3.178   1.801   3.228  0.6800 -0.4067  0.6082
 1174WAT     H1 3733   3.211   1.731   3.172  1.4463  0.0901  0.4200
 1174WAT     H2 3734   3.257   1.840   3.266  0.2389  0.1144  0.9971
 1175WAT      O 3735   3.620   0.552   4.229 -0.4073  0.4559  0.5170
 1175WAT     H1 3736   3.538   0.581   4.270  0.2354 -0.0664  2.2826
 1175WAT     H2 3737   3.670   0.633   4.217 -1.1674  0.7798 -0.5858
 1176WAT      O 3738   2.206   0.224   0.696 -0.3917 -0.0209  0.3357
 1176WAT     H1 3739   2.270   0.205   0.764  0.7660 -1.4039 -1.0621
 1176WAT     H2 3740   2.146   0.288   0.736 -0.6176 -1.8051  3.0793
 1177WAT      O 3741   4.506   2.281   2.893 -0.5888 -0.1139  0.2760
 1177WAT     H1 3742   4.518   2.300   2.800  1.6999 -2.3404  0.0089
 1177WAT     H2 3743   4.546   2.356   2.937 -1.7146  0.9760 -0.4882
 1178WAT      O 3744   1.373   4.401   0.216  0.4951  0.5224 -0.2847
 1178WAT     H1 3745   1.289   4.376   0.176 -1.1267  1.7221  2.1117
 1178WAT     H2 3746   1.416   4.453   0.149 -0.5351 -0.3864 -1.7088
 1179WAT      O 3747   0.709   3.462   4.360  0.0035 -0.3389 -0.4711
 1179WAT     H1 3748   0.729   3.551   4.390 -0.9769 -0.3089  0.1044
 1179WAT     H2 3749   0.777   3.407   4.400  1.1800  0.2484 -1.5758
 1180WAT      O 3750   0.998   2.207   4.824 -0.3497  0.3251 -0.0616
 1180WAT     H1 3751   1.015   2.146   4.895 -2.0654 -0.9613 -0.6688
 1180WAT     H2 3752   1.048   2.285   4.846  0.8180 -0.7973  1.4575
 1181WAT      O 3753   2.150   4.287   5.202  0.3067 -0.0909  0.2579
 1181WAT     H1 3754   2.150   4.225   5.275 -4.0187 -0.9180 -0.2329
 1181WAT     H2 3755   2.198   4.242   5.132 -1.5341 -2.4062  0.3767
 1182WAT      O 3756   3.763   1.639   3.047 -0.1210  0.0417 -0.5498
 1182WAT     H1 3757   3.703   1.700   3.003 -0.2911  0.7666  0.6431
 1182WAT     H2 3758   3.849   1.660   3.011 -0.1684  1.0508 -0.1191
 1183WAT      O 3759   2.249   4.171   1.706 -0.2051  0.2210 -0.1914
 1183WAT     H1 3760   2.318   4.154   1.643  0.0918  1.3387 -0.1924
 1183WAT     H2 3761   2.294   4.178   1.790 -0.6364 -1.6328  0.2499
 1184WAT      O 3762   2.543   4.628   1.076 -0.2276  0.0001  0.6650
 1184WAT     H1 3763   2.588   4.687   1.016 -2.1597  1.1964  0.3100
 1184WAT     H2 3764   2.568   4.658   1.163  2.5733 -1.7318  0.5680
 1185WAT      O 3765   3.030   1.705   1.692 -0.2170  0.4790  0.1312
 1185WAT     H1 3766   2.982   1.722   1.773  0.2029  0.9501  0.2860
 1185WAT     H2 3767   3.122   1.702   1.718  0.0246  1.8155 -0.4904
 1186WAT      O 3768   1.958   3.230   3.412 -0.3855  0.2161  0.0169
 1186WAT     H1 3769   1.908   3.208   3.491 -0.6653  0.1035 -0.1917
 1186WAT     H2 3770   2.037   3.176   3.419  0.4804  1.5390  1.1400
 1187WAT      O 3771   3.032   2.784   0.864  0.3863 -0.3453 -0.5803
 1187WAT     H1 3772   3.036   2.782   0.769 -1.0365 -0.2683 -0.6638
 1187WAT     H2 3773   2.963   2.847   0.884  1.2383  0.2727  0.5360
 1188WAT      O 3774   1.266   1.404   3.148 -0.6443  0.2588 -0.0975
 1188WAT     H1 3775   1.280   1.338   3.079  0.9294 -0.9079  1.2484
 1188WAT     H2 3776   1.208   1.361   3.210  0.0054  0.3034  0.5542
 1189WAT      O 3777   2.894   0.454   4.881  0.4057  0.1405 -0.1492
 1189WAT     H1 3778   2.867   0.458   4.973  1.6082 -0.1011  0.2371
 1189WAT     H2 3779   2.949   0.375   4.877  0.1093 -0.0212 -1.1509
 1190WAT      O 3780   3.586   0.775   3.266 -0.2473  0.0233  0.0269
 1190WAT     H1 3781   3.504   0.728   3.252 -0.2343 -0.1803  0.6144
 1190WAT     H2 3782   3.560   0.865   3.281 -0.1709  0.6526 -3.0310
 1191WAT      O 3783   3.022   0.946   5.235  0.0777  0.2121  0.0501
 1191WAT     H1 3784   2.930   0.951   5.261 -0.0284 -0.5600 -0.1560
 1191WAT     H2 3785   3.025   0.875   5.172  0.6006  1.0940 -0.9419
 1192WAT      O 3786   0.742   3.276   5.277 -0.0285 -0.0205 -0.0293
 1192WAT     H1 3787   0.796   3.250   5.202 -0.5388 -1.7948  0.1810
 1192WAT     H2 3788   0.695   3.353   5.247  2.1959  1.2751 -0.4027
 1193WAT      O 3789   0.294   3.037   1.751  0.8072  0.3491 -0.7356
 1193WAT     H1 3790   0.375   3.086   1.740  1.2597 -0.1618  0.2307
 1193WAT     H2 3791   0.321   2.950   1.779 -0.1096  0.9055  2.2377
 1194WAT      O 3792   0.248   1.475   2.550 -0.2380  0.0437  0.1096
 1194WAT     H1 3793   0.199   1.405   2.507 -0.4749  0.0631  0.3428
 1194WAT     H2 3794   0.180   1.528   2.592 -0.0191  0.1146  0.3707
 1195WAT      O 3795   2.132   1.547   0.180 -0.2025  0.7513 -0.0859
 1195WAT     H1 3796   2.148   1.559   0.273 -0.1322  1.4458 -0.1804
 1195WAT     H2 3797   2.209   1.585   0.137 -0.9165  1.8245 -0.4653
 1196WAT      O 3798   2.683   1.135   4.752  0.2596  0.0304 -0.6126
 1196WAT     H1 3799   2.760   1.133   4.808  0.7469 -3.0036 -1.2168
 1196WAT     H2 3800   2.716   1.164   4.666  0.0211  2.0315 -0.0701
 1197WAT      O 3801   0.784   2.605   2.383  0.1257  0.6821  0.1324
 1197WAT     H1 3802   0.764   2.522   2.425 -0.9524  0.9438  0.1756
 1197WAT     H2 3803   0.841   2.651   2.445  1.0142 -0.1550 -0.0492
 1198WAT      O 3804   0.258   2.064   3.755  0.0082  0.6259 -0.4036
 1198WAT     H1 3805   0.308   2.013   3.692 -0.5970 -1.0848  0.4358
 1198WAT     H2 3806   0.306   2.052   3.838 -1.8214 -1.2846  0.4829
 1199WAT      O 3807   4.356   4.877   2.246 -0.1143 -0.2870  0.4134
 1199WAT     H1 3808   4.436   4.891   2.296 -0.3346  0.7267  0.4992
 1199WAT     H2 3809   4.299   4.828   2.304  0.3742 -0.8529  0.4195
 1200WAT      O 3810   4.377   0.648   2.179 -0.3949  0.1763  0.2762
 1200WAT     H1 3811   4.346   0.562   2.206 -0.1721 -0.6486 -1.9020
 1200WAT     H2 3812   4.432   0.631   2.103 -0.5459  2.2696 -0.3740
 1201WAT      O 3813   4.034   1.466   4.854 -0.0810  0.0248 -0.3633
 1201WAT     H1 3814   4.125   1.493   4.848 -0.4583  1.6615  0.7052
 1201WAT     H2 3815   4.035   1.392   4.915  0.3490  1.3056  1.2663
 1202WAT      O 3816   2.359   2.156   2.405  0.1091  0.8051 -0.2279
 1202WAT     H1 3817   2.277   2.156   2.356 -0.7663 -1.6727  1.0701
 1202WAT     H2 3818   2.332   2.168   2.496  1.1762 -0.0186  0.2254
 1203WAT      O 3819   3.817   4.279   0.067 -0.0450  0.7734  0.5148
 1203WAT     H1 3820   3.872   4.267   0.145 -0.5660  1.0279  0.9255
 1203WAT     H2 3821   3.763   4.200   0.064  0.2195  0.5997  0.2034
 1204WAT      O 3822   1.610   0.148   2.862 -0.9306 -0.1533  0.0644
 1204WAT     H1 3823   1.654   0.229   2.886 -0.6095 -0.7377  1.5738
 1204WAT     H2 3824   1.526   0.176   2.824  0.0657  0.9155 -1.4711
 1205WAT      O 3825   1.251   1.837   5.033  0.0808 -0.2925  0.5605
 1205WAT     H1 3826   1.316   1.899   5.000 -0.8313  1.3530  1.6741
 1205WAT     H2 3827   1.268   1.832   5.127 -0.1107 -1.4655  0.5513
 1206WAT      O 3828   4.318   1.111   0.031  0.1119 -0.2715  0.1704
 1206WAT     H1 3829   4.231   1.095   0.068  0.1654  0.3385  0.5719
 1206WAT     H2 3830   4.349   1.024   0.004  0.1452 -0.7798  1.7375
 1207WAT      O 3831   3.832   4.195   0.900 -0.0088 -0.3873  0.7881
 1207WAT     H1 3832   3.875   4.279   0.884 -0.9195  0.4099  2.2976
 1207WAT     H2 3833   3.849   4.144   0.821  0.8169  1.1021 -0.0437
 1208WAT      O 3834   0.981   0.903   3.645  0.1381 -0.0382 -0.1316
 1208WAT     H1 3835   0.964   0.943   3.731 -1.2697 -0.9185  0.0434
 1208WAT     H2 3836   0.909   0.935   3.590  1.5108  1.2249 -1.2722
 1209WAT      O 3837   0.591   1.347   0.626 -0.1994 -0.0202 -0.4514
 1209WAT     H1 3838   0.635   1.266   0.653  0.5028 -0.2032 -2.0650
 1209WAT     H2 3839   0.623   1.413   0.688  0.2405 -0.6987  0.0669
 1210WAT      O 3840   4.378   3.896   1.675  0.9684  0.2889  0.8683
 1210WAT     H1 3841   4.406   3.824   1.731  0.5140  0.2243  1.0236
 1210WAT     H2 3842   4.444   3.902   1.606  0.8142 -0.5191  0.6433
 1211WAT      O 3843   1.470   1.678   1.110 -0.0418  0.2954  0.3091
 1211WAT     H1 3844   1.392   1.707   1.158  0.5852 -2.8079  3.6583
 1211WAT     H2 3845   1.435   1.624   1.039 -1.0248 -0.0325  1.0073
 1212WAT      O 3846   3.305   0.097   0.624 -0.4204 -0.5623  0.0123
 1212WAT     H1 3847   3.291   0.106   0.718 -1.1902  0.5698 -0.1921
 1212WAT     H2 3848   3.283   0.006   0.605 -0.1281 -0.8328  0.9490
 1213WAT      O 3849   1.815   2.233   1.855 -0.4589 -0.1550  0.0829
 1213WAT     H1 3850   1.880   2.184   1.906  0.2859  2.1184  1.4796
 1213WAT     H2 3851   1.800   2.179   1.778  1.4719 -1.8005  0.7504
 1214WAT      O 3852   1.655   2.889   4.164 -0.2076  0.0456 -0.1818
 1214WAT     H1 3853   1.614   2.947   4.228 -0.2815 -0.2512  0.0402
 1214WAT     H2 3854   1.694   2.819   4.216 -1.8894 -1.2207 -0.5624
 1215WAT      O 3855   2.145   1.249   2.396  0.1309  0.2122 -0.5973
 1215WAT     H1 3856   2.193   1.331   2.404  0.1316  0.3280 -1.6235
 1215WAT     H2 3857   2.061   1.266   2.440  0.3920  0.5378 -0.2182
 1216WAT      O 3858   2.373   4.398   3.407  0.6330 -0.4811 -0.2692
 1216WAT     H1 3859   2.382   4.314   3.364  1.3249 -0.7042  0.2859
 1216WAT     H2 3860   2.281   4.422   3.395  0.8118 -0.5291 -1.8448
 1217WAT      O 3861   3.588   1.129   1.344  0.3141 -0.3124  0.0235
 1217WAT     H1 3862   3.548   1.062   1.289  0.0438 -1.6620  1.7623
 1217WAT     H2 3863   3.663   1.160   1.294  1.1044 -2.7244 -0.4242
 1218WAT      O 3864   0.117   4.695   2.811  0.5921 -0.1793 -0.0152
 1218WAT     H1 3865   0.201   4.657   2.839 -0.5283 -1.2438  2.0778
 1218WAT     H2 3866   0.098   4.651   2.728  1.4083 -0.9918  0.2098
 1219WAT      O 3867   1.355   0.709   0.601  0.1121  0.2240 -0.2617
 1219WAT     H1 3868   1.398   0.773   0.545 -0.1048  0.0498 -0.6290
 1219WAT     H2 3869   1.365   0.626   0.555 -3.5939  0.6197 -2.1790
 1220WAT      O 3870   4.316   1.362   1.129 -0.0991 -0.0211 -0.0272
 1220WAT     H1 3871   4.325   1.350   1.035 -1.8983  2.8798 -0.6812
 1220WAT     H2 3872   4.403   1.389   1.158 -0.1534  1.6913 -1.3698
 1221WAT      O 3873   1.446   1.011   2.315  0.2332 -0.1713  0.2500
 1221WAT     H1 3874   1.471   1.081   2.254 -1.9531  1.5369  1.1487
 1221WAT     H2 3875   1.478   0.931   2.274  1.4077  1.1844 -1.6656
 1222WAT      O 3876   1.276   2.553   1.018 -1.2776 -0.1990  0.1643
 1222WAT     H1 3877   1.309   2.466   0.993  1.0943  0.5888  0.3458
 1222WAT     H2 3878   1.305   2.564   1.108 -1.4468  0.8467  0.0958
 1223WAT      O 3879   3.934   4.150   2.243  0.5891 -0.3754 -0.2450
 1223WAT     H1 3880   3.936   4.246   2.250  2.8291 -0.1286 -2.7614
 1223WAT     H2 3881   3.860   4.132   2.186  0.0296 -0.1746  0.4078
 1224WAT      O 3882   2.441   3.628   4.584  0.6934 -0.4191 -0.0094
 1224WAT     H1 3883   2.446   3.715   4.545  2.9164 -0.3394  0.3146
 1224WAT     H2 3884   2.461   3.643   4.677  0.1630 -1.1834  0.2399
 1225WAT      O 3885   3.464   3.013   1.775 -0.7339  0.3463 -0.9142
 1225WAT     H1 3886   3.506   2.927   1.779 -1.7527 -0.1495  0.3385
 1225WAT     H2 3887   3.533   3.075   1.797 -0.8425 -0.5637  2.8311
 1226WAT      O 3888   0.199   0.312   5.025 -0.4483 -0.6451 -0.0783
 1226WAT     H1 3889   0.208   0.320   4.930 -0.7030  0.4372 -0.0263
 1226WAT     H2 3890   0.166   0.398   5.053  1.4809 -0.2703  1.2266
 1227WAT      O 3891   0.085   4.484   4.274  0.4458 -0.2341  0.1982
 1227WAT     H1 3892   0.078   4.542   4.350 -0.0876 -1.3853  1.0603
 1227WAT     H2 3893   0.013   4.421   4.285  2.4710 -2.6100  0.6547
 1228WAT      O 3894   3.378   0.796   1.348 -0.7696 -0.4057 -0.5201
 1228WAT     H1 3895   3.428   0.714   1.344 -0.0159  0.0166 -0.0882
 1228WAT     H2 3896   3.289   0.769   1.372 -0.9225 -1.2274 -1.9006
 1229WAT      O 3897   3.680   3.635   3.258  0.5725  0.0220  0.0674
 1229WAT     H1 3898   3.605   3.684   3.292 -0.1302 -1.6429  0.9941
 1229WAT     H2 3899   3.677   3.652   3.163 -0.4411  0.6887  0.1910
 1230WAT      O 3900   0.609   5.122   0.423 -0.1018  0.3323 -0.1313
 1230WAT     H1 3901   0.578   5.067   0.495  1.1868 -0.8590 -0.4392
 1230WAT     H2 3902   0.588   5.211   0.450  0.0788 -0.1116  1.5813
 1231WAT      O 3903   3.413   0.597   2.223  0.1277  0.5514  0.0161
 1231WAT     H1 3904   3.426   0.503   2.208  0.5172  0.5204  0.5117
 1231WAT     H2 3905   3.402   0.634   2.135 -1.0124 -0.0895 -0.1291
 1232WAT      O 3906   3.090   2.418   2.907  0.1599 -0.2006  0.1124
 1232WAT     H1 3907   3.179   2.383   2.907  0.4486  0.4881 -0.8239
 1232WAT     H2 3908   3.096   2.500   2.956  0.0414 -0.1444  0.0323
 1233WAT      O 3909   1.974   4.936   2.082 -0.1980 -0.1782  0.1760
 1233WAT     H1 3910   2.018   4.935   2.167 -0.7364 -3.7765  0.5703
 1233WAT     H2 3911   2.044   4.920   2.019 -0.1185  0.2730  0.1436
 1234WAT      O 3912   1.292   3.573   4.327  0.5964 -0.1236 -0.0355
 1234WAT     H1 3913   1.250   3.584   4.412  1.5066 -0.3155  0.4427
 1234WAT     H2 3914   1.296   3.662   4.291 -0.3289 -0.1132 -0.1637
 1235WAT      O 3915   2.361   1.420   2.906  0.1722 -0.1812 -0.4006
 1235WAT     H1 3916   2.349   1.499   2.959 -0.1313 -0.4425 -0.0681
 1235WAT     H2 3917   2.381   1.351   2.970 -1.0174 -0.6740 -0.5159
 1236WAT      O 3918   2.444   0.517   3.531  0.7283  0.2103 -0.0830
 1236WAT     H1 3919   2.452   0.513   3.626 -0.4700  0.9845  0.0786
 1236WAT     H2 3920   2.400   0.436   3.506  2.8852 -0.9589 -0.2356
 1237WAT      O 3921   2.597   3.200   4.693  0.1031  0.6916  0.1862
 1237WAT     H1 3922   2.611   3.285   4.735  1.9090 -0.1920  1.5198
 1237WAT     H2 3923   2.637   3.208   4.607  1.0241  0.9631  0.6283
 1238WAT      O 3924   0.646   4.165   0.131 -0.0887  0.3079 -0.2236
 1238WAT     H1 3925   0.610   4.204   0.052  1.0940  0.4807 -0.6892
 1238WAT     H2 3926   0.617   4.223   0.202 -3.2488 -1.1645 -0.1484
 1239WAT      O 3927   2.741   1.719   4.813 -0.7917  0.1617  0.1125
 1239WAT     H1 3928   2.740   1.624   4.815 -1.0761  0.1633  2.0474
 1239WAT     H2 3929   2.658   1.743   4.772 -0.2148 -0.3947 -1.4407
 1240WAT      O 3930   0.629   1.276   0.251  0.2419  0.5950  0.5491
 1240WAT     H1 3931   0.614   1.345   0.316 -1.1047 -1.6667  2.8684
 1240WAT     H2 3932   0.709   1.233   0.280  0.4312  0.4511 -0.1687
 1241WAT      O 3933   2.217   0.799   1.275 -1.0290  0.2566 -0.0741
 1241WAT     H1 3934   2.297   0.805   1.222 -2.0147  2.5886 -1.4412
 1241WAT     H2 3935   2.247   0.816   1.364  0.0021  1.5314 -0.6197
 1242WAT      O 3936   0.696   0.414   5.055 -0.4005  0.3880 -0.4209
 1242WAT     H1 3937   0.761   0.398   5.124 -0.4307  1.8114 -0.0510
 1242WAT     H2 3938   0.615   0.375   5.089  0.2853 -1.7261 -1.0382
 1243WAT      O 3939   3.606   0.379   4.017  0.1250  0.0738  0.2085
 1243WAT     H1 3940   3.627   0.309   4.079  0.5415  1.2985  1.5025
 1243WAT     H2 3941   3.607   0.459   4.070  0.0864  1.1176 -1.3096
 1244WAT      O 3942   3.687   0.208   3.539 -0.7677  0.0748 -0.2922
 1244WAT     H1 3943   3.690   0.260   3.620  0.5764  0.4912 -0.5884
 1244WAT     H2 3944   3.605   0.234   3.497 -0.9741  0.6197  0.4195
 1245WAT      O 3945   1.976   1.287   0.124  0.2663 -0.0279 -0.2837
 1245WAT     H1 3946   2.050   1.313   0.069  0.1443  1.4410  0.2053
 1245WAT     H2 3947   2.010   1.293   0.214  0.0578 -1.0477 -0.1321
 1246WAT      O 3948   1.949   2.677   4.884  0.4371  0.7169  0.0901
 1246WAT     H1 3949   1.889   2.703   4.955 -1.1033  0.8783 -1.2166
 1246WAT     H2 3950   1.945   2.582   4.883 -1.3252  0.7515 -1.1767
 1247WAT      O 3951   2.058   3.031   2.409 -0.1700  0.2567  0.3368
 1247WAT     H1 3952   2.115   2.959   2.436 -1.1122 -0.9174 -0.6811
 1247WAT     H2 3953   2.022   3.065   2.491  0.0041 -0.6812  0.8174
 1248WAT      O 3954   1.880   0.789   1.082  0.0406 -0.2384 -0.4072
 1248WAT     H1 3955   1.950   0.725   1.067  0.7657  0.5541 -0.4626
 1248WAT     H2 3956   1.925   0.869   1.109 -0.7589  0.6212 -1.4934
 1249WAT      O 3957   0.054   1.350   1.275  0.1577  0.9274 -0.2813
 1249WAT     H1 3958   0.109   1.339   1.198  0.3379 -1.2268  0.1036
 1249WAT     H2 3959   0.111   1.389   1.340  0.2814  1.8187 -0.9084
 1250WAT      O 3960   0.946   2.681   4.269  0.2863 -0.5488 -0.1907
 1250WAT     H1 3961   0.967   2.760   4.320 -0.1164 -0.9192  0.5498
 1250WAT     H2 3962   0.969   2.705   4.179  1.1660  0.0552  0.1728
 1251WAT      O 3963   1.503   2.208   0.175 -0.3396 -0.1182 -0.1444
 1251WAT     H1 3964   1.504   2.174   0.264 -1.2445  1.5439  0.5590
 1251WAT     H2 3965   1.447   2.148   0.127 -1.0508 -0.2393  0.7917
 1252WAT      O 3966   4.269   4.266   0.676  0.4196  0.6385  0.2560
 1252WAT     H1 3967   4.273   4.347   0.624  0.1922  0.9259  0.6774
 1252WAT     H2 3968   4.229   4.202   0.616 -1.6366  1.4688  0.6609
 1253WAT      O 3969   2.136   0.071   3.563  0.1175 -0.0510 -0.3253
 1253WAT     H1 3970   2.151   0.011   3.490  0.7168 -0.4465  0.1060
 1253WAT     H2 3971   2.221   0.112   3.578  0.3441 -0.9151  0.9545
 1254WAT      O 3972   4.376   0.011   2.832 -0.5452 -0.3578 -0.2346
 1254WAT     H1 3973   4.312   0.076   2.803 -0.7731  0.0202  1.0334
 1254WAT     H2 3974   4.422   0.053   2.904  2.9471  0.3534 -2.6753
 1255WAT      O 3975   2.584   3.873   0.217 -0.5734 -0.4207  0.1062
 1255WAT     H1 3976   2.672   3.838   0.201 -0.1199  0.1556  1.2095
 1255WAT     H2 3977   2.595   3.931   0.293 -1.5145  1.2557 -0.9894
 1256WAT      O 3978   0.309   3.632   2.249 -0.0298  0.5290  0.4536
 1256WAT     H1 3979   0.218   3.610   2.228  0.0559  1.8871 -1.7127
 1256WAT     H2 3980   0.303   3.699   2.317 -0.6319  0.2150  0.7124
 1257WAT      O 3981   2.194   1.073   3.798  0.2384 -0.2097  0.0374
 1257WAT     H1 3982   2.213   1.061   3.705  0.6408  0.5877  0.0115
 1257WAT     H2 3983   2.107   1.033   3.809  0.2208 -0.3881 -0.6588
 1258WAT      O 3984   4.424   3.854   3.348  0.2912  0.1322  0.3302
 1258WAT     H1 3985   4.399   3.889   3.263 -1.2988 -0.4957  0.5023
 1258WAT     H2 3986   4.402   3.924   3.410 -3.5652 -1.2180  0.7578
 1259WAT      O 3987   4.037   4.329   1.720  0.3412  0.3521 -0.0817
 1259WAT     H1 3988   4.112   4.370   1.764  0.8293 -0.2908 -0.2880
 1259WAT     H2 3989   3.996   4.401   1.672  0.0420  0.9753  1.0793
 1260WAT      O 3990   0.128   2.088   3.294 -0.5671  0.7618  0.1009
 1260WAT     H1 3991   0.148   2.021   3.228  2.1778  2.1610 -0.6291
 1260WAT     H2 3992   0.052   2.135   3.258 -3.3381 -2.4741  1.1674
 1261WAT      O 3993   2.851   4.267   5.001  0.5522  0.2351  0.5678
 1261WAT     H1 3994   2.809   4.353   4.993 -0.4752 -0.2597  0.3849
 1261WAT     H2 3995   2.902   4.257   4.921  3.1986  1.9324  1.9172
 1262WAT      O 3996   2.685   1.108   2.137 -0.0120 -0.2791 -0.3590
 1262WAT     H1 3997   2.641   1.098   2.052  0.9714  1.4007 -1.1226
 1262WAT     H2 3998   2.700   1.018   2.166  1.0593 -0.9700 -2.7458
 1263WAT      O 3999   0.029   3.390   4.119 -0.2803 -0.5281  0.2436
 1263WAT     H1 4000  -0.023   3.422   4.046 -0.3953  1.3540  1.0717
 1263WAT     H2 4001   0.013   3.453   4.189  0.3746 -1.8663  1.6715
 1264WAT      O 4002   1.373   4.341   4.241  0.0355 -0.5795  0.1474
 1264WAT     H1 4003   1.401   4.342   4.150  0.8016 -0.2375  0.3810
 1264WAT     H2 4004   1.452   4.362   4.291 -0.1015 -1.9051  0.9615
 1265WAT      O 4005   4.282   4.165   2.456  0.1020  0.6013  0.0132
 1265WAT     H1 4006   4.311   4.088   2.406  2.3717  0.4013  1.5133
 1265WAT     H2 4007   4.315   4.240   2.407  0.3985  0.4871  0.0344
 1266WAT      O 4008   2.964   2.168   4.426 -0.0554 -0.1082 -0.1093
 1266WAT     H1 4009   2.885   2.114   4.422 -0.6290  0.7719 -1.9476
 1266WAT     H2 4010   3.036   2.105   4.429 -0.7636 -0.9449 -0.0671
 1267WAT      O 4011   0.071   0.929   1.911  0.4979  1.0173 -0.1133
 1267WAT     H1 4012   0.007   0.989   1.949  1.4292  2.0044 -0.0615
 1267WAT     H2 4013   0.029   0.898   1.830 -1.1178 -0.3976  1.1824
 1268WAT      O 4014   2.623   3.485   2.936  0.0378  0.5251 -0.6678
 1268WAT     H1 4015   2.571   3.414   2.898  2.6147 -2.5006  0.9632
 1268WAT     H2 4016   2.583   3.501   3.022 -0.1784  0.6566 -0.7901
 1269WAT      O 4017   0.538   4.411   2.694  0.3387  0.4763  0.2999
 1269WAT     H1 4018   0.491   4.494   2.677 -2.1580 -1.2911 -2.5205
 1269WAT     H2 4019   0.468   4.348   2.711  2.0699 -1.3850  0.7681
 1270WAT      O 4020   4.465   0.309   2.651  0.1297  1.1484 -0.2058
 1270WAT     H1 4021   4.426   0.245   2.710 -1.0948  0.9820 -1.1698
 1270WAT     H2 4022   4.445   0.394   2.691 -1.6617  1.0938 -0.8970
 1271WAT      O 4023   2.437   0.466   1.039 -0.0890 -0.0358  0.2426
 1271WAT     H1 4024   2.402   0.401   1.099 -2.9691 -0.1912 -1.4110
 1271WAT     H2 4025   2.532   0.454   1.043 -0.4059 -3.1031  1.3442
 1272WAT      O 4026   3.799   3.694   0.537 -0.1101 -0.2208  0.3680
 1272WAT     H1 4027   3.768   3.608   0.566 -2.0193  0.6399  1.0482
 1272WAT     H2 4028   3.846   3.730   0.612  0.9202 -0.7415 -0.0055
 1273WAT      O 4029   0.349   1.340   0.385 -0.2795 -0.1621 -0.3668
 1273WAT     H1 4030   0.259   1.374   0.392 -0.2245  0.2382 -1.4156
 1273WAT     H2 4031   0.404   1.418   0.393  0.0370 -0.5164  1.2290
 1274WAT      O 4032   0.257   1.269   2.793  0.1011 -0.2226 -0.5618
 1274WAT     H1 4033   0.325   1.302   2.851 -0.3222  1.4568 -0.9697
 1274WAT     H2 4034   0.294   1.279   2.705 -0.3222 -0.1325 -0.7326
 1275WAT      O 4035   0.988   4.272   0.709  0.2638  0.2741  0.5956
 1275WAT     H1 4036   0.967   4.189   0.751 -0.0850  0.6029  1.0869
 1275WAT     H2 4037   1.081   4.266   0.688  0.8469  0.6862  2.8185
 1276WAT      O 4038   4.267   2.393   4.459 -0.0339  0.2003  0.3468
 1276WAT     H1 4039   4.319   2.316   4.485  0.3650  0.4014  0.1528
 1276WAT     H2 4040   4.257   2.442   4.541 -0.6885 -0.2876  0.5671
 1277WAT      O 4041   1.281   0.969   2.504 -0.5630  0.3206  0.0587
 1277WAT     H1 4042   1.358   0.973   2.447 -1.2755  2.2827 -0.8839
 1277WAT     H2 4043   1.254   1.061   2.513 -0.3889  0.1494  3.7595
 1278WAT      O 4044   3.269   4.934   0.575  0.0277  0.5904  0.4106
 1278WAT     H1 4045   3.271   4.898   0.664 -1.9858 -0.0772  0.2323
 1278WAT     H2 4046   3.183   4.910   0.541  0.0700  2.3354 -1.1069
 1279WAT      O 4047   2.379   3.880   4.518 -0.0465  0.4353  0.9119
 1279WAT     H1 4048   2.321   3.954   4.500  0.4094  1.0144  1.7311
 1279WAT     H2 4049   2.381   3.875   4.614  0.6728 -0.0395  0.8734
 1280WAT      O 4050   3.807   2.610   0.227  0.5785  0.7112 -0.3749
 1280WAT     H1 4051   3.887   2.557   0.227  1.3946  1.8915  0.7469
 1280WAT     H2 4052   3.828   2.685   0.171  0.1349  0.8570 -0.3501
 1281WAT      O 4053   2.318   2.033   1.297 -0.0967 -0.1854 -0.4911
 1281WAT     H1 4054   2.289   1.963   1.239 -1.7028  0.3659 -0.4014
 1281WAT     H2 4055   2.362   2.096   1.238  1.0910 -1.0886 -0.6110
 1282WAT      O 4056   4.468   2.734   5.200 -0.1287  0.4081 -0.3653
 1282WAT     H1 4057   4.559   2.745   5.170  0.2303  1.4534  0.9895
 1282WAT     H2 4058   4.416   2.782   5.136  0.3265  0.2101 -0.8909
 1283WAT      O 4059   0.583   0.557   3.728 -0.3120  0.3402  0.4116
 1283WAT     H1 4060   0.656   0.511   3.771 -0.6905 -0.0451  0.6452
 1283WAT     H2 4061   0.540   0.605   3.798  0.5601  1.7096  0.0326
 1284WAT      O 4062   2.987   1.748   0.324 -0.4007 -0.1360 -0.4580
 1284WAT     H1 4063   2.977   1.843   0.323 -1.6304 -0.2203  0.6097
 1284WAT     H2 4064   3.018   1.728   0.412  1.4397 -0.6188 -1.1816
 1285WAT      O 4065   1.596   3.799   4.008  0.2775  0.3171  0.0418
 1285WAT     H1 4066   1.590   3.879   4.060 -0.8191 -0.1085  0.6135
 1285WAT     H2 4067   1.570   3.826   3.920 -0.7504  0.4727  0.3799
 1286WAT      O 4068   4.097   3.199   3.889 -0.4527  0.1530  0.0050
 1286WAT     H1 4069   4.152   3.122   3.874  0.4666  0.5655  1.1502
 1286WAT     H2 4070   4.008   3.167   3.874  0.0644 -0.5097 -1.9121
 1287WAT      O 4071   2.218   5.005   4.651 -0.0878 -0.2476  0.0244
 1287WAT     H1 4072   2.284   5.054   4.601 -2.4283  1.1029 -1.9926
 1287WAT     H2 4073   2.193   4.932   4.593 -2.5753  1.1108 -0.7686
 1288WAT      O 4074   0.876   1.824   0.790 -0.5956  0.1448 -0.0385
 1288WAT     H1 4075   0.883   1.796   0.699  1.3483 -1.6171  0.5748
 1288WAT     H2 4076   0.966   1.827   0.821 -1.0382  2.8366  1.2715
 1289WAT      O 4077   3.847   1.758   2.429 -0.1022 -0.1193 -0.5935
 1289WAT     H1 4078   3.911   1.735   2.361  3.4368  1.5035  1.8710
 1289WAT     H2 4079   3.830   1.851   2.414 -1.9805 -0.4988 -1.1441
 1290WAT      O 4080   1.203   2.065   3.112 -0.4726 -0.4577 -0.3663
 1290WAT     H1 4081   1.174   1.974   3.117  1.8012 -1.1541  2.0471
 1290WAT     H2 4082   1.180   2.103   3.197  1.8660  0.0842  0.1059
 1291WAT      O 4083   0.332   2.824   0.480  0.3618 -0.4114 -0.1377
 1291WAT     H1 4084   0.365   2.756   0.539  0.2794 -0.0477  0.3334
 1291WAT     H2 4085   0.285   2.885   0.537 -0.0474 -0.2560 -0.6326
 1292WAT      O 4086   3.347   1.623   2.687 -0.4847 -0.0213 -0.3721
 1292WAT     H1 4087   3.436   1.658   2.694  0.5072 -2.5284  0.4881
 1292WAT     H2 4088   3.293   1.699   2.665  1.6273  1.8702  0.6041
 1293WAT      O 4089   4.322   4.003   1.945 -0.2059 -0.1834  0.5065
 1293WAT     H1 4090   4.412   4.005   1.977  0.1335  0.3442 -0.4296
 1293WAT     H2 4091   4.330   4.012   1.850 -1.1332 -2.5188  0.1561
 1294WAT      O 4092   0.410   1.601   2.981 -0.7683  0.0305 -0.0464
 1294WAT     H1 4093   0.366   1.524   3.015  2.1897 -1.7891 -0.0056
 1294WAT     H2 4094   0.421   1.584   2.887 -2.7909  1.9050 -0.7255
 1295WAT      O 4095   4.331   0.310   1.436 -0.3331 -0.9962 -0.2183
 1295WAT     H1 4096   4.268   0.369   1.396 -1.2267 -1.0481  1.0386
 1295WAT     H2 4097   4.396   0.368   1.475  0.1683 -0.9312 -1.1210
 1296WAT      O 4098   4.345   2.978   2.079 -0.1589  0.6264  0.1802
 1296WAT     H1 4099   4.306   2.926   2.149 -1.3455  0.4284 -0.5801
 1296WAT     H2 4100   4.270   3.006   2.026  0.5514  2.1550 -0.0857
 1297WAT      O 4101   4.148   3.305   4.585 -0.3180  0.2470 -0.3768
 1297WAT     H1 4102   4.131   3.366   4.657  0.7297 -0.6392  0.6647
 1297WAT     H2 4103   4.237   3.326   4.556 -0.0906 -0.5071 -0.2619
 1298WAT      O 4104   1.932   2.793   0.167  0.3836 -0.0547 -0.6491
 1298WAT     H1 4105   1.864   2.726   0.161  1.8769 -1.4875 -3.4965
 1298WAT     H2 4106   1.974   2.776   0.252  0.1614 -2.2258 -0.9178
 1299WAT      O 4107   1.978   1.047   4.095 -0.1370 -0.3435 -0.1067
 1299WAT     H1 4108   2.015   1.087   4.016 -2.1845 -0.6113 -1.2735
 1299WAT     H2 4109   1.994   0.954   4.084 -0.3727 -0.3754 -0.1873
 1300WAT      O 4110   4.394   4.341   1.009 -0.1175 -0.0242 -0.1519
 1300WAT     H1 4111   4.323   4.393   0.973 -1.5885 -1.9434 -0.1622
 1300WAT     H2 4112   4.363   4.250   1.004  2.3229 -0.9399 -0.1431
 1301WAT      O 4113   2.516   5.075   3.456  0.1112 -0.6005  0.1772
 1301WAT     H1 4114   2.582   5.119   3.509  1.2369  0.7446 -2.1858
 1301WAT     H2 4115   2.547   4.985   3.448  0.8980 -0.3467  0.2918
 1302WAT      O 4116   2.678   0.010   2.119  0.4897  0.1683  0.0122
 1302WAT     H1 4117   2.621  -0.042   2.175  1.3826  1.9237  2.7366
 1302WAT     H2 4118   2.620   0.077   2.082 -0.1915 -1.2597 -1.6586
 1303WAT      O 4119   1.395   3.683   0.461 -0.2113 -0.3144  0.0785
 1303WAT     H1 4120   1.455   3.753   0.486 -0.4711  0.1049 -0.4413
 1303WAT     H2 4121   1.451   3.614   0.425  0.0225 -0.2680  0.3560
 1304WAT      O 4122   3.560   3.438   0.331  0.0385  0.2056 -0.2765
 1304WAT     H1 4123   3.517   3.398   0.406 -1.4823  0.1506 -1.1505
 1304WAT     H2 4124   3.564   3.532   0.352  1.2067 -0.0158  0.6040
 1305WAT      O 4125   0.850   1.368   3.497  0.3801  0.0274  0.7825
 1305WAT     H1 4126   0.815   1.453   3.468  0.3471 -0.5397 -0.9465
 1305WAT     H2 4127   0.776   1.326   3.541 -0.1651  0.1838  0.0489
 1306WAT      O 4128   4.418   3.783   3.968 -0.0325 -0.6698  0.0708
 1306WAT     H1 4129   4.328   3.787   4.001 -1.0402 -1.1789 -2.3854
 1306WAT     H2 4130   4.431   3.691   3.947  0.5730 -0.3799 -0.8442
 1307WAT      O 4131   0.330   4.671   3.378  0.1801 -0.4479 -0.1061
 1307WAT     H1 4132   0.422   4.675   3.355  0.3196  1.3762  0.5677
 1307WAT     H2 4133   0.288   4.735   3.320 -0.4844 -0.4932  0.3139
 1308WAT      O 4134   4.215   1.506   4.426  0.0363  0.4390 -0.3392
 1308WAT     H1 4135   4.160   1.479   4.353  0.3250  1.3285 -0.9109
 1308WAT     H2 4136   4.298   1.459   4.412 -1.2699 -2.8642  1.8869
 1309WAT      O 4137   1.317   4.442   1.616 -0.0789  0.1345 -0.0338
 1309WAT     H1 4138   1.334   4.421   1.708 -1.2758  0.3633  0.2651
 1309WAT     H2 4139   1.244   4.503   1.619  0.5627  0.9824 -1.1007
 1310WAT      O 4140   3.947   0.063   4.932 -0.2853  0.0130  0.5840
 1310WAT     H1 4141   3.926   0.128   4.999  1.1501 -0.3891  1.4891
 1310WAT     H2 4142   4.024   0.017   4.968 -0.4346 -1.2510 -0.6468
 1311WAT      O 4143   0.292   4.963   4.483  0.3584 -0.1312  0.1333
 1311WAT     H1 4144   0.230   4.891   4.495  0.8970 -0.4290  1.2049
 1311WAT     H2 4145   0.274   4.995   4.394  0.1253 -1.5784 -0.3661
 1312WAT      O 4146   1.172   4.112   5.035 -0.4628  0.4459 -0.3145
 1312WAT     H1 4147   1.222   4.193   5.026 -0.5175  0.5144 -0.0085
 1312WAT     H2 4148   1.114   4.128   5.109 -0.3958  0.0845 -0.1851
 1313WAT      O 4149   3.092   5.016   4.541  0.1485 -0.6384  0.1003
 1313WAT     H1 4150   3.154   5.074   4.586 -1.2732  1.9084 -0.9877
 1313WAT     H2 4151   3.108   4.929   4.579  1.4745  0.6758  2.8514
 1314WAT      O 4152   2.961   3.053   5.185 -0.2071  0.4213  0.4716
 1314WAT     H1 4153   2.977   3.049   5.279  0.6370 -0.7019  0.3078
 1314WAT     H2 4154   3.038   3.096   5.149  0.6872 -1.4296  0.0661
 1315WAT      O 4155   2.436   3.488   3.761  0.4456 -0.4463 -0.0378
 1315WAT     H1 4156   2.476   3.563   3.718 -1.8647  1.6813  1.2266
 1315WAT     H2 4157   2.369   3.458   3.700 -0.1675  0.0383  0.3778
 1316WAT      O 4158   1.644   4.248   0.190 -0.1654  0.2780 -0.1054
 1316WAT     H1 4159   1.737   4.231   0.171 -0.0078 -0.2285  1.0307
 1316WAT     H2 4160   1.597   4.184   0.137  0.1096  0.7253 -0.9113
 1317WAT      O 4161   2.318   0.528   1.745 -0.4985 -0.4355 -0.7119
 1317WAT     H1 4162   2.288   0.514   1.655  1.0002 -3.4565 -0.8768
 1317WAT     H2 4163   2.410   0.502   1.743 -0.3825 -0.4127  1.6770
 1318WAT      O 4164   1.191   0.626   0.219  0.0678 -0.3351  0.1242
 1318WAT     H1 4165   1.248   0.667   0.154 -3.6180  1.3872 -2.4342
 1318WAT     H2 4166   1.169   0.696   0.280  0.9434 -1.0901  1.3469
 1319WAT      O 4167   0.345   0.388   4.786  0.0651 -0.4775 -0.0268
 1319WAT     H1 4168   0.260   0.416   4.753  0.0186  1.2490  1.4357
 1319WAT     H2 4169   0.395   0.469   4.797  2.6613 -1.5476 -2.6519
 1320WAT      O 4170   3.894   3.131   1.726 -0.0491 -0.4685  0.0224
 1320WAT     H1 4171   3.960   3.085   1.778 -0.4808 -0.3747  0.6597
 1320WAT     H2 4172   3.926   3.124   1.636  0.4624 -1.0444  0.2412
 1321WAT      O 4173   4.417   3.388   1.661  0.3594 -0.5365 -0.2966
 1321WAT     H1 4174   4.476   3.408   1.734  0.0414 -0.9557  0.0802
 1321WAT     H2 4175   4.472   3.346   1.596  0.6037 -0.3528 -0.2081
 1322WAT      O 4176   3.860   4.356   1.477 -0.4187  0.3089 -0.5875
 1322WAT     H1 4177   3.866   4.368   1.572  0.2650  1.4453 -0.7669
 1322WAT     H2 4178   3.899   4.270   1.462 -1.4875 -0.3542  0.2609
 1323WAT      O 4179   1.123   4.240   1.037 -0.4414  0.3809 -0.1310
 1323WAT     H1 4180   1.212   4.230   1.005 -0.4129  0.6263 -0.1319
 1323WAT     H2 4181   1.084   4.153   1.028  0.0456  0.0729  0.6333
 1324WAT      O 4182   2.692   0.339   1.250 -0.2429  0.0111  0.4258
 1324WAT     H1 4183   2.688   0.404   1.180 -2.3317  0.9011  1.2728
 1324WAT     H2 4184   2.696   0.255   1.205  2.1288  0.6367 -0.6958
 1325WAT      O 4185   3.323   3.022   4.941 -0.1843  0.0281 -0.1166
 1325WAT     H1 4186   3.301   2.988   5.028  1.0124 -0.3307  0.0727
 1325WAT     H2 4187   3.403   3.073   4.956 -0.2513  0.3776 -0.9277
 1326WAT      O 4188   1.814   3.348   1.848  0.2382 -0.8656 -0.0522
 1326WAT     H1 4189   1.847   3.281   1.908  0.9537 -0.7635 -0.3295
 1326WAT     H2 4190   1.814   3.306   1.762  0.0488 -0.7252 -0.1224
 1327WAT      O 4191   0.195   4.814   4.905  0.7698 -0.1635  0.3432
 1327WAT     H1 4192   0.237   4.768   4.978  1.2721  0.3155  0.3630
 1327WAT     H2 4193   0.261   4.878   4.876 -0.5797  1.8848  1.5647
 1328WAT      O 4194   2.246   1.614   0.445  0.1678  0.0535  0.2737
 1328WAT     H1 4195   2.291   1.695   0.470  0.4113  0.3834 -1.1537
 1328WAT     H2 4196   2.293   1.545   0.492  1.8105  0.4624 -0.6871
 1329WAT      O 4197   4.444   3.273   0.084  0.2190 -0.0101  0.1058
 1329WAT     H1 4198   4.487   3.293   0.001 -0.1078 -0.0746 -0.0795
 1329WAT     H2 4199   4.355   3.248   0.060 -1.2256  3.9095  0.7369
 1330WAT      O 4200   1.025   3.388   0.443  0.5147  0.2371 -0.2201
 1330WAT     H1 4201   0.975   3.378   0.524  1.5997  0.4928  0.5038
 1330WAT     H2 4202   0.991   3.469   0.404 -0.2866 -0.0973 -0.2304
 1331WAT      O 4203   4.116   2.452   2.237 -0.7701  0.0091 -0.1758
 1331WAT     H1 4204   4.144   2.452   2.146 -1.3719  1.4599 -0.3825
 1331WAT     H2 4205   4.075   2.538   2.250  1.0838  0.6684  1.9935
 1332WAT      O 4206   3.297   0.773   2.415  0.0193  0.0565 -0.4680
 1332WAT     H1 4207   3.279   0.859   2.378  1.4709  1.0632  0.9710
 1332WAT     H2 4208   3.300   0.714   2.340 -0.4018  1.3798 -1.5602
 1333WAT      O 4209   3.182   3.090   4.407  0.1478  0.1381  0.4985
 1333WAT     H1 4210   3.215   3.056   4.490 -2.1975 -2.1099  0.6527
 1333WAT     H2 4211   3.251   3.069   4.344  0.4173 -1.5562  1.2935
 1334WAT      O 4212   3.421   1.809   0.372  0.4375  0.5482  0.5401
 1334WAT     H1 4213   3.500   1.757   0.379  0.0139 -0.3154 -0.7049
 1334WAT     H2 4214   3.412   1.852   0.457  0.7620 -1.4586  1.6433
 1335WAT      O 4215   2.675   1.386   2.782  0.4258  0.3221 -0.0221
 1335WAT     H1 4216   2.582   1.365   2.783  0.7767 -1.3592  0.2939
 1335WAT     H2 4217   2.698   1.397   2.874  0.2615  2.2275 -0.1720
 1336WAT      O 4218   4.011   2.954   1.238  0.2149 -0.5371 -0.3538
 1336WAT     H1 4219   3.945   2.981   1.174  0.3539  0.1004 -0.2432
 1336WAT     H2 4220   4.094   2.984   1.201  0.1080  1.8055  1.0603
 1337WAT      O 4221   2.688   0.066   0.380 -0.0621  0.3585 -0.5336
 1337WAT     H1 4222   2.600   0.078   0.344 -0.3915  1.2666  0.4962
 1337WAT     H2 4223   2.695  -0.029   0.395 -1.1566  0.3488  0.0286
 1338WAT      O 4224   0.726   3.648   2.774 -0.5653 -0.3983  0.5774
 1338WAT     H1 4225   0.675   3.675   2.697 -0.9009  0.8632  1.2265
 1338WAT     H2 4226   0.691   3.700   2.846  0.5902 -0.6578  1.3558
 1339WAT      O 4227   3.143   3.350   5.243  0.2581 -0.2276 -0.0733
 1339WAT     H1 4228   3.234   3.348   5.215 -0.1606  0.3027 -1.5812
 1339WAT     H2 4229   3.096   3.387   5.169 -1.1141  0.0667  0.8965
 1340WAT      O 4230   1.033   0.692   3.256 -0.0859  0.1336  0.6880
 1340WAT     H1 4231   1.124   0.720   3.245 -0.0187  0.4696  1.9858
 1340WAT     H2 4232   1.037   0.596   3.247  0.4886  0.0930  1.2630
 1341WAT      O 4233   2.935   4.412   4.144 -0.1652 -0.1306 -0.8595
 1341WAT     H1 4234   3.009   4.397   4.204  0.3621  1.2366 -1.1396
 1341WAT     H2 4235   2.870   4.347   4.170  0.2213  0.1495  0.9320
 1342WAT      O 4236   1.226   2.514   4.663  0.0191 -0.3271  0.7086
 1342WAT     H1 4237   1.291   2.447   4.644 -0.2560 -0.1389 -1.1396
 1342WAT     H2 4238   1.196   2.495   4.752  0.7819 -1.9317  0.6520
 1343WAT      O 4239   3.645   1.446   2.905 -0.2399 -0.5329 -0.1748
 1343WAT     H1 4240   3.687   1.472   2.987  1.0941  0.6243 -1.1666
 1343WAT     H2 4241   3.717   1.410   2.853 -0.7607  0.1428 -1.3867
 1344WAT      O 4242   1.492   4.275   1.281  0.8127 -0.0068  0.7865
 1344WAT     H1 4243   1.439   4.317   1.214  1.8113  0.5243  0.3092
 1344WAT     H2 4244   1.524   4.195   1.240 -0.4784 -0.9060  1.4460
 1345WAT      O 4245   3.381   4.460   1.366  0.3711 -0.0882  0.3228
 1345WAT     H1 4246   3.471   4.451   1.335  0.3667 -0.6148  0.4424
 1345WAT     H2 4247   3.328   4.461   1.287  0.3553 -1.4765  0.2911
 1346WAT      O 4248   2.567   3.181   0.519 -0.6802 -0.0738 -0.1475
 1346WAT     H1 4249   2.511   3.180   0.442 -1.1786  1.4079  0.1551
 1346WAT     H2 4250   2.526   3.119   0.579 -1.0542 -0.2445 -0.5753
 1347WAT      O 4251   2.273   3.257   4.804  0.2200 -0.4340 -0.2683
 1347WAT     H1 4252   2.243   3.311   4.877 -0.3986 -0.0855 -0.7660
 1347WAT     H2 4253   2.305   3.321   4.739  1.1186 -0.7561 -0.1579
 1348WAT      O 4254   4.403   3.293   0.348  0.6731  0.4909 -1.4672
 1348WAT     H1 4255   4.396   3.261   0.258  2.1472  0.0751 -1.4541
 1348WAT     H2 4256   4.425   3.215   0.399 -0.7529  0.5969 -0.6222
 1349WAT      O 4257   3.245   1.200   2.923 -0.0236  0.2950 -0.3985
 1349WAT     H1 4258   3.204   1.193   2.837  0.3280 -0.5974 -0.5084
 1349WAT     H2 4259   3.266   1.293   2.932 -2.8042  0.9514  0.0330
 1350WAT      O 4260   0.131   2.970   3.796 -0.8586 -0.6747 -0.4938
 1350WAT     H1 4261   0.071   3.000   3.864 -1.7549  1.3964 -2.0731
 1350WAT     H2 4262   0.080   2.905   3.747 -0.7969 -0.9667 -0.1753
 1351WAT      O 4263   3.362   4.410   2.267 -0.1700  0.8858 -0.2312
 1351WAT     H1 4264   3.450   4.442   2.250 -0.1371  1.0101  0.1561
 1351WAT     H2 4265   3.339   4.359   2.189 -0.3282  2.0593 -0.9775
 1352WAT      O 4266   1.599   0.404   3.005 -0.3201  0.0630  0.4407
 1352WAT     H1 4267   1.692   0.379   3.004 -0.2340  0.3417 -1.6076
 1352WAT     H2 4268   1.599   0.497   2.982 -1.1732 -0.2696 -0.9931
 1353WAT      O 4269   3.680   4.012   1.812  0.5695 -0.3034  0.2760
 1353WAT     H1 4270   3.684   4.043   1.722 -0.5186  0.6459  0.5428
 1353WAT     H2 4271   3.749   4.061   1.857  0.2297  0.2101  0.2449
 1354WAT      O 4272   2.068   0.507   4.359  0.2435 -0.3609 -0.5693
 1354WAT     H1 4273   2.146   0.462   4.328  1.0491  0.4698  0.1937
 1354WAT     H2 4274   2.101   0.586   4.402 -1.1412  1.2687 -2.3458
 1355WAT      O 4275   2.639   2.128   1.148 -0.3677  0.5097 -0.0945
 1355WAT     H1 4276   2.687   2.047   1.162 -3.0487 -0.8813  1.9798
 1355WAT     H2 4277   2.573   2.105   1.083  0.1854  1.7043 -1.1191
 1356WAT      O 4278   1.036   1.289   0.172 -0.1938 -0.1239  0.0847
 1356WAT     H1 4279   1.043   1.219   0.107  0.6744  0.2163 -0.2049
 1356WAT     H2 4280   1.127   1.311   0.193 -0.4604  0.7017  0.4043
 1357WAT      O 4281   3.284   1.709   1.781  0.4827 -0.5848 -0.1220
 1357WAT     H1 4282   3.338   1.743   1.852  1.5060 -0.3474 -0.9878
 1357WAT     H2 4283   3.318   1.620   1.766  0.2606 -0.6404 -0.3030
 1358WAT      O 4284   2.718   4.535   4.411  0.0199  0.4645  0.5482
 1358WAT     H1 4285   2.753   4.448   4.428  0.3023  0.2778 -0.8746
 1358WAT     H2 4286   2.625   4.521   4.394 -0.0500  0.5219  0.8714
 1359WAT      O 4287   3.821   4.045   3.843  0.0591  0.3776 -0.0000
 1359WAT     H1 4288   3.765   4.109   3.887  1.1536  0.4724  1.3420
 1359WAT     H2 4289   3.761   3.975   3.816 -0.8076  0.8167  0.7183
 1360WAT      O 4290   4.243   3.755   4.314 -0.0704 -0.0232  0.1572
 1360WAT     H1 4291   4.233   3.707   4.233  1.7728 -0.5566  0.2044
 1360WAT     H2 4292   4.211   3.844   4.294  1.2582  0.1246 -1.4358
 1361WAT      O 4293   1.570   1.573   3.062 -0.0190 -0.1910  0.6135
 1361WAT     H1 4294   1.641   1.553   3.002 -0.2048 -0.6605  0.5485
 1361WAT     H2 4295   1.550   1.665   3.046 -1.1874 -0.7176 -1.2464
 1362WAT      O 4296   2.140   1.764   2.016 -0.6838  0.2048  0.2327
 1362WAT     H1 4297   2.147   1.816   1.937 -0.7665  1.1181  0.8099
 1362WAT     H2 4298   2.230   1.739   2.038 -0.6810 -0.2319 -0.2538
 1363WAT      O 4299   2.948   3.382   3.714 -0.2325 -0.0500 -0.1169
 1363WAT     H1 4300   2.859   3.405   3.742 -0.5522  1.3110 -2.0178
 1363WAT     H2 4301   3.000   3.459   3.737 -0.1523  0.3414 -1.4879
 1364WAT      O 4302   3.792   0.696   3.436 -0.1035 -0.1218 -0.3435
 1364WAT     H1 4303   3.778   0.645   3.516  1.0564  0.1031  0.0129
 1364WAT     H2 4304   3.703   0.711   3.402 -0.6086 -0.3333  0.8295
 1365WAT      O 4305   4.227   0.850   2.991  0.4574 -0.6015 -0.2770
 1365WAT     H1 4306   4.296   0.849   3.058  0.6379  2.2849 -0.3119
 1365WAT     H2 4307   4.272   0.878   2.911 -1.0088  4.2781  0.3032
 1366WAT      O 4308   1.089   4.486   5.050 -0.2083 -0.1808 -0.1460
 1366WAT     H1 4309   1.107   4.522   5.137  1.4763  0.0681 -0.5496
 1366WAT     H2 4310   0.998   4.508   5.033 -0.0406  1.4102  0.8114
 1367WAT      O 4311   1.909   3.278   1.094 -0.7659 -0.4231 -0.3521
 1367WAT     H1 4312   1.941   3.279   1.184  0.3037  0.0033 -0.7291
 1367WAT     H2 4313   1.886   3.370   1.076  2.6811  0.3135 -1.7526
 1368WAT      O 4314   1.961   2.694   2.023 -0.3986  0.0158  0.6983
 1368WAT     H1 4315   1.897   2.624   2.019 -1.6989  1.2065 -1.0683
 1368WAT     H2 4316   1.913   2.769   2.058  0.6678  0.3183  1.5600
 1369WAT      O 4317   4.194   2.931   4.782  0.3781 -0.0647  1.0356
 1369WAT     H1 4318   4.220   2.974   4.701  2.0391  1.2189  2.1655
 1369WAT     H2 4319   4.134   2.862   4.755  0.1994  0.8877 -1.1765
 1370WAT      O 4320   2.633   3.891   1.151  0.1426  0.7076 -0.0482
 1370WAT     H1 4321   2.677   3.813   1.115  0.1331 -0.4929  2.3486
 1370WAT     H2 4322   2.541   3.878   1.130  0.2960  0.7222 -0.7537
 1371WAT      O 4323   0.726   5.073   1.952 -0.4350  0.3278  0.4548
 1371WAT     H1 4324   0.694   5.138   1.889 -1.6083 -0.9934 -0.3842
 1371WAT     H2 4325   0.649   5.054   2.006 -0.6515 -1.6342 -0.4668
 1372WAT      O 4326   3.633   3.186   0.218 -0.4225  0.0571 -0.2207
 1372WAT     H1 4327   3.641   3.132   0.296 -0.5248 -0.1089 -0.3243
 1372WAT     H2 4328   3.601   3.270   0.251 -1.0750 -0.2098 -0.1541
 1373WAT      O 4329   1.800   0.888   2.359  0.5672  0.6569 -0.7125
 1373WAT     H1 4330   1.711   0.907   2.328 -0.1794 -1.8641 -0.2934
 1373WAT     H2 4331   1.856   0.911   2.284 -0.6068  0.6086 -1.6380
 1374WAT      O 4332   0.646   0.269   1.052 -0.2769  0.1335 -0.0504
 1374WAT     H1 4333   0.555   0.271   1.081  0.1371  1.3562  1.2732
 1374WAT     H2 4334   0.696   0.251   1.131  0.7451  1.1324 -0.4463
 1375WAT      O 4335   1.096   0.410   0.883  0.3491 -0.3416 -0.4430
 1375WAT     H1 4336   1.152   0.371   0.815  0.8262  3.4639 -2.5118
 1375WAT     H2 4337   1.007   0.402   0.848  0.1872 -1.3870  0.1674
 1376WAT      O 4338   1.667   1.649   0.766  0.2825  0.2713 -0.1803
 1376WAT     H1 4339   1.684   1.647   0.672 -3.9624 -1.2767 -1.1240
 1376WAT     H2 4340   1.673   1.557   0.793 -1.6849  0.2126  0.2388
 1377WAT      O 4341   1.681   2.435   5.122  0.1839 -0.2269  0.1276
 1377WAT     H1 4342   1.673   2.343   5.095 -1.1593 -0.3626  0.8885
 1377WAT     H2 4343   1.639   2.484   5.052  2.5492  0.0271 -1.2260
 1378WAT      O 4344   2.555   2.707   5.235  0.0288  0.2127 -0.5885
 1378WAT     H1 4345   2.572   2.787   5.285  1.1128  0.3025 -1.0773
 1378WAT     H2 4346   2.539   2.737   5.146  0.9659 -0.1427 -0.8852
 1379WAT      O 4347   2.650   2.954   0.338 -0.0189  0.5367 -0.4140
 1379WAT     H1 4348   2.574   2.905   0.305 -0.1755 -0.2912  1.0803
 1379WAT     H2 4349   2.613   3.020   0.396  0.4091 -1.5480  2.4651
 1380WAT      O 4350   0.153   1.209   0.035 -0.4179 -0.4909 -0.0552
 1380WAT     H1 4351   0.234   1.194   0.082  1.1165  3.2886 -1.0974
 1380WAT     H2 4352   0.147   1.137  -0.028  3.0290 -0.1318 -0.9789
 1381WAT      O 4353   2.704   0.028   3.630 -0.4181  0.0865 -0.1524
 1381WAT     H1 4354   2.758   0.016   3.552 -0.1274  2.5010 -0.3841
 1381WAT     H2 4355   2.686   0.122   3.633 -0.4521  0.0692  2.6933
 1382WAT      O 4356   0.214   1.469   1.460  0.2637  0.0055 -0.1537
 1382WAT     H1 4357   0.196   1.560   1.486 -0.1167 -0.4264  1.2016
 1382WAT     H2 4358   0.309   1.461   1.463  0.2910  0.3277 -0.1149
 1383WAT      O 4359   2.244   3.314   2.579  0.4997 -0.4058 -0.7810
 1383WAT     H1 4360   2.299   3.392   2.586 -0.5346  0.1926  1.8947
 1383WAT     H2 4361   2.176   3.339   2.517 -0.4585  1.3234  0.8528
 1384WAT      O 4362   4.252   3.006   3.780 -0.4731  0.0682  0.7127
 1384WAT     H1 4363   4.321   2.942   3.765 -2.0213 -1.6157  0.3956
 1384WAT     H2 4364   4.204   3.010   3.697  0.5561  2.9830  0.1255
 1385WAT      O 4365   1.586   3.040   4.400  0.2820  0.0783  0.3224
 1385WAT     H1 4366   1.560   3.129   4.425  0.3709  0.0086  0.6698
 1385WAT     H2 4367   1.680   3.037   4.416  0.0748 -0.4692  1.5255
 1386WAT      O 4368   3.607   2.561   4.407  0.4503  0.0019 -0.6697
 1386WAT     H1 4369   3.680   2.609   4.446 -0.1136 -0.3339  0.8621
 1386WAT     H2 4370   3.539   2.561   4.474 -0.6165 -0.5130 -1.7077
 1387WAT      O 4371   3.242   2.735   3.606  0.0657 -0.0129  0.4332
 1387WAT     H1 4372   3.179   2.688   3.550 -1.5505  1.6469  0.7776
 1387WAT     H2 4373   3.226   2.701   3.694  0.0794 -0.0159  0.4345
 1388WAT      O 4374   4.001   3.031   5.247  0.3717  0.1464 -0.0234
 1388WAT     H1 4375   3.946   2.953   5.238  1.1961 -0.5554  0.7767
 1388WAT     H2 4376   4.019   3.058   5.158  1.4862 -1.6152 -0.3801
 1389WAT      O 4377   4.456   0.580   3.601  0.1414  0.1916 -0.4909
 1389WAT     H1 4378   4.535   0.634   3.603 -1.2597  2.3706 -0.3082
 1389WAT     H2 4379   4.444   0.561   3.508  1.4695 -1.1324 -0.4159
 1390WAT      O 4380   3.885   2.313   0.129  0.0861  0.1396 -1.0518
 1390WAT     H1 4381   3.912   2.344   0.042  0.9256 -0.0328 -0.8579
 1390WAT     H2 4382   3.812   2.253   0.111  0.6639 -0.3855 -1.6957
 1391WAT      O 4383   3.545   1.513   4.953  0.5339  0.5716  0.5403
 1391WAT     H1 4384   3.510   1.465   4.878  0.6252  0.1084  0.7901
 1391WAT     H2 4385   3.626   1.551   4.920  0.4374  0.5931  0.3254
 1392WAT      O 4386   2.378   2.866   1.575 -0.0875 -0.2483  0.0641
 1392WAT     H1 4387   2.290   2.831   1.563 -0.6736  1.1394  0.1686
 1392WAT     H2 4388   2.423   2.845   1.493 -1.0484  0.5325 -0.6857
 1393WAT      O 4389   4.008   1.766   3.751 -0.3963  0.7579  0.1711
 1393WAT     H1 4390   3.934   1.825   3.738 -0.3290  0.9524  0.6665
 1393WAT     H2 4391   4.076   1.821   3.791  0.2698  0.7551 -0.9168
 1394WAT      O 4392   1.733   3.343   3.291  0.0303  0.2669 -0.6825
 1394WAT     H1 4393   1.818   3.299   3.300 -0.8100 -1.1713  0.9155
 1394WAT     H2 4394   1.713   3.373   3.380 -0.2503  2.4205 -1.4089
 1395WAT      O 4395   0.910   2.689   0.434  0.1597 -0.0941 -0.4250
 1395WAT     H1 4396   0.981   2.641   0.392  1.1542  1.2487 -0.3648
 1395WAT     H2 4397   0.858   2.724   0.361 -1.2011 -2.0437 -0.4799
 1396WAT      O 4398   1.307   2.292   1.521  0.0817 -0.6610  0.0291
 1396WAT     H1 4399   1.381   2.353   1.520  0.0956 -0.6738  0.2288
 1396WAT     H2 4400   1.331   2.227   1.587  0.4846 -1.4074 -0.8338
 1397WAT      O 4401   1.847   2.719   4.596  0.4782  0.0770  0.3860
 1397WAT     H1 4402   1.825   2.766   4.677  1.6017  0.6129  0.3946
 1397WAT     H2 4403   1.938   2.691   4.609  0.7021  0.2593 -0.7279
 1398WAT      O 4404   1.071   3.435   2.209 -0.4115  0.5828  0.0403
 1398WAT     H1 4405   1.057   3.527   2.232 -0.6311  0.4458  0.4541
 1398WAT     H2 4406   1.036   3.386   2.283 -0.3533  0.1617 -0.2090
 1399WAT      O 4407   1.769   1.640   1.974 -0.1052 -0.4339 -0.0137
 1399WAT     H1 4408   1.731   1.706   2.032  0.5229  0.7024 -0.8483
 1399WAT     H2 4409   1.724   1.559   1.997  1.2583 -0.4559  3.2883
 1400WAT      O 4410   2.364   0.687   4.949  0.4767  0.2702  0.0392
 1400WAT     H1 4411   2.320   0.772   4.954  0.2088  0.1307  0.0773
 1400WAT     H2 4412   2.430   0.698   4.881  1.3615  0.9306  0.9715
 1401WAT      O 4413   4.298   2.127   2.505  0.4044 -0.3481  0.8897
 1401WAT     H1 4414   4.259   2.207   2.539  1.2785  0.7465 -0.5683
 1401WAT     H2 4415   4.330   2.080   2.582 -1.7511 -0.2059  1.9093
 1402WAT      O 4416   1.966   3.747   2.823  0.0616 -0.0774 -0.0466
 1402WAT     H1 4417   1.915   3.671   2.851 -1.7400  0.6589 -1.1737
 1402WAT     H2 4418   1.926   3.822   2.867  0.6241  0.4510 -0.4073
 1403WAT      O 4419   1.111   2.095   3.366 -0.1975  0.3014 -0.0816
 1403WAT     H1 4420   1.072   2.163   3.421 -2.0044  0.8660 -1.9321
 1403WAT     H2 4421   1.071   2.013   3.396 -0.8708  0.5565 -0.2703
 1404WAT      O 4422   0.539   0.651   1.722  0.2048 -0.3114  0.0416
 1404WAT     H1 4423   0.539   0.713   1.795 -0.0982 -0.5945  0.2832
 1404WAT     H2 4424   0.630   0.624   1.714  0.4818  0.7483 -0.5649
 1405WAT      O 4425   0.053   4.878   3.005  0.5369 -0.2761 -0.3627
 1405WAT     H1 4426   0.094   4.964   3.006 -1.2415  0.6172 -0.6164
 1405WAT     H2 4427   0.070   4.844   2.917  0.9029 -0.0269 -0.3931
 1406WAT      O 4428   1.343   4.204   4.601  0.6975  0.3948  0.2304
 1406WAT     H1 4429   1.289   4.258   4.659 -0.7792  0.0601 -0.7680
 1406WAT     H2 4430   1.280   4.153   4.551  1.9826 -0.3804 -0.6535
 1407WAT      O 4431   1.673   0.924   4.103  0.1088  0.2458  0.6523
 1407WAT     H1 4432   1.756   0.971   4.110 -0.6654  1.6531  0.7514
 1407WAT     H2 4433   1.697   0.832   4.114  1.7281  0.5623  0.0731
 1408WAT      O 4434   1.422   0.778   4.093 -0.0878 -0.2222 -0.3093
 1408WAT     H1 4435   1.349   0.815   4.141  0.1320  0.8779 -0.7922
 1408WAT     H2 4436   1.497   0.785   4.152 -0.0424  0.1389 -0.4076
 1409WAT      O 4437   3.497   1.228   3.382  0.7215  0.0480  0.2993
 1409WAT     H1 4438   3.442   1.228   3.304  2.4619  1.9477 -1.0488
 1409WAT     H2 4439   3.498   1.137   3.412 -1.3379 -0.4078 -0.8741
 1410WAT      O 4440   3.009   0.374   0.504 -0.1915 -0.2445 -0.6824
 1410WAT     H1 4441   3.049   0.315   0.441 -0.3574 -0.1063 -0.9187
 1410WAT     H2 4442   2.933   0.326   0.538 -1.8296  0.7422 -2.7061
 1411WAT      O 4443   0.486   0.759   4.275 -0.5044 -0.2140  0.0864
 1411WAT     H1 4444   0.485   0.845   4.233  0.0156  0.2299  0.9563
 1411WAT     H2 4445   0.552   0.710   4.227 -1.5005 -0.4862 -1.0628
 1412WAT      O 4446   3.654   4.061   0.129  0.0658 -0.0103  0.2305
 1412WAT     H1 4447   3.586   4.112   0.172  0.8314  0.6188  0.7357
 1412WAT     H2 4448   3.691   4.006   0.198 -0.2444 -0.6904 -0.1435
 1413WAT      O 4449   3.935   3.767   0.764 -0.3581  0.2584 -0.2172
 1413WAT     H1 4450   3.980   3.700   0.815 -1.8598 -0.9412 -0.4084
 1413WAT     H2 4451   3.847   3.770   0.800 -0.6881  1.2309 -1.0579
 1414WAT      O 4452   3.932   4.532   5.231 -0.0657 -0.3131 -0.1601
 1414WAT     H1 4453   3.938   4.507   5.139 -1.3372  1.3129 -0.7363
 1414WAT     H2 4454   3.902   4.452   5.275  0.3832 -1.0692 -1.1718
 1415WAT      O 4455   3.434   0.553   0.333  0.0850  0.2342  0.1455
 1415WAT     H1 4456   3.392   0.515   0.410 -1.5714  0.7659 -0.4679
 1415WAT     H2 4457   3.399   0.503   0.259 -1.6006  2.3880 -0.6149
 1416WAT      O 4458   2.618   0.932   4.222 -0.0150 -0.1634  0.5183
 1416WAT     H1 4459   2.559   0.899   4.154  0.2476 -1.5782  0.9522
 1416WAT     H2 4460   2.644   1.019   4.191 -2.8244  0.8186  0.6353
 1417WAT      O 4461   3.625   2.117   0.638 -0.7808  0.0755 -0.2245
 1417WAT     H1 4462   3.585   2.189   0.686 -1.0739  0.0187 -0.3840
 1417WAT     H2 4463   3.710   2.104   0.681 -1.4749 -0.6831  0.9740
 1418WAT      O 4464   0.706   4.059   0.436 -0.0588 -0.9261  0.1578
 1418WAT     H1 4465   0.706   4.083   0.344 -4.0980 -2.0272 -0.3158
 1418WAT     H2 4466   0.682   4.140   0.482 -1.1416 -1.0833 -0.1129
 1419WAT      O 4467   0.345   0.410   3.093 -0.6784 -0.6518  0.1774
 1419WAT     H1 4468   0.294   0.366   3.161 -0.0899 -1.6296  0.0038
 1419WAT     H2 4469   0.317   0.368   3.012  1.0285 -1.8561  0.1619
 1420WAT      O 4470   1.726   2.760   2.857 -0.1101 -0.4390  0.1832
 1420WAT     H1 4471   1.732   2.839   2.911  0.7621  1.1443 -2.0934
 1420WAT     H2 4472   1.638   2.726   2.875 -1.4587  2.3707 -0.4215
 1421WAT      O 4473   1.268   5.003   4.064 -0.0850 -0.3743  0.2358
 1421WAT     H1 4474   1.314   4.950   4.129 -0.7064 -1.5168 -0.2367
 1421WAT     H2 4475   1.222   4.940   4.009  0.2178  0.5713 -1.1723
 1422WAT      O 4476   4.053   1.660   1.065 -0.0537  0.4588 -0.3993
 1422WAT     H1 4477   4.099   1.600   1.124  0.2357  1.7601  0.7548
 1422WAT     H2 4478   3.982   1.608   1.028 -0.5199 -0.2906  1.4504
 1423WAT      O 4479   0.588   4.172   4.252  0.1083  0.1835  0.7828
 1423WAT     H1 4480   0.570   4.098   4.310  0.2373 -0.6132 -0.1694
 1423WAT     H2 4481   0.504   4.191   4.211  0.1533  0.3273  0.7597
 1424WAT      O 4482   4.050   4.146   0.230  0.0563  0.6007  0.7371
 1424WAT     H1 4483   4.054   4.207   0.157 -0.6710 -0.1933  0.0115
 1424WAT     H2 4484   4.114   4.078   0.207 -0.2425  0.3015  0.7832
 1425WAT      O 4485   2.258   2.983   4.578 -0.1365  0.5792  0.2986
 1425WAT     H1 4486   2.330   2.975   4.515 -1.5398  1.2228 -1.4942
 1425WAT     H2 4487   2.254   2.898   4.621  0.4134 -0.1675 -1.0617
 1426WAT      O 4488   3.119   0.222   4.896 -0.6298 -0.0203  0.0991
 1426WAT     H1 4489   3.168   0.240   4.815 -1.5088  0.2396 -0.3932
 1426WAT     H2 4490   3.107   0.127   4.896 -0.0827 -0.0938  0.2571
 1427WAT      O 4491   0.811   2.225   2.119 -0.3619  0.1667 -0.4186
 1427WAT     H1 4492   0.825   2.167   2.044  1.5298 -0.5392  0.4276
 1427WAT     H2 4493   0.852   2.308   2.093  0.7833 -0.2447 -0.0010
 1428WAT      O 4494   4.419   0.413   5.038 -0.1499  0.3370  0.2152
 1428WAT     H1 4495   4.344   0.472   5.032 -0.9517 -0.6519  0.2334
 1428WAT     H2 4496   4.493   0.470   5.058 -0.9556  1.2934  0.5397
 1429WAT      O 4497   2.042   2.505   4.637 -0.0036 -0.2604 -0.0580
 1429WAT     H1 4498   2.128   2.528   4.674 -0.5011 -0.3451  1.1854
 1429WAT     H2 4499   1.993   2.469   4.710 -0.6036 -1.6603 -1.0964
 1430WAT      O 4500   0.695   0.817   0.228 -0.3297  0.3380 -0.4083
 1430WAT     H1 4501   0.626   0.875   0.258  1.0064  2.0836 -0.5567
 1430WAT     H2 4502   0.773   0.845   0.277  0.1834 -1.9817  0.2411
 1431WAT      O 4503   3.453   1.834   3.486 -0.5483  0.6531 -0.5613
 1431WAT     H1 4504   3.488   1.780   3.414 -0.7993  0.6159 -0.6542
 1431WAT     H2 4505   3.358   1.828   3.476 -0.7202 -1.7497  1.4880
 1432WAT      O 4506   0.465   2.355   2.307 -0.2373 -0.3067 -0.2394
 1432WAT     H1 4507   0.556   2.379   2.324 -0.0495 -0.1394 -1.3767
 1432WAT     H2 4508   0.415   2.395   2.378  0.5017  0.2109 -0.0079
 1433WAT      O 4509   1.606   3.531   0.997  0.1802  0.7783  0.2204
 1433WAT     H1 4510   1.687   3.530   1.047  0.3570 -0.2397 -0.0656
 1433WAT     H2 4511   1.572   3.620   1.009  0.2124  0.5746  2.1177
 1434WAT      O 4512   2.589   0.471   2.887  0.5024 -0.1438  0.0889
 1434WAT     H1 4513   2.503   0.509   2.868  0.3540 -0.8081 -0.5912
 1434WAT     H2 4514   2.572   0.378   2.901  1.0252 -0.1717  0.6027
 1435WAT      O 4515   4.455   2.843   1.037 -0.4024  0.1175  0.4639
 1435WAT     H1 4516   4.515   2.869   0.966  0.7200 -1.4976  0.7726
 1435WAT     H2 4517   4.394   2.783   0.996 -0.2655 -0.1709  0.6804
 1436WAT      O 4518   1.460   1.510   1.909  0.5869 -0.0097 -0.2135
 1436WAT     H1 4519   1.401   1.585   1.896 -0.2469 -0.7316 -0.7886
 1436WAT     H2 4520   1.531   1.525   1.847  0.3220  0.2045 -0.4705
 1437WAT      O 4521   4.315   0.378   1.965  0.6068  0.2070  0.2335
 1437WAT     H1 4522   4.386   0.379   2.029  1.9233  2.1857 -1.1150
 1437WAT     H2 4523   4.356   0.345   1.885 -0.0706  1.0332 -0.4691
 1438WAT      O 4524   0.708   0.849   0.645 -0.1814 -0.0994  0.3304
 1438WAT     H1 4525   0.672   0.934   0.670 -0.6376  0.3894 -1.8265
 1438WAT     H2 4526   0.635   0.802   0.605  0.9506  0.0552 -2.0889
 1439WAT      O 4527   1.848   5.117   3.601 -0.7409 -0.5253 -0.0588
 1439WAT     H1 4528   1.943   5.120   3.612 -0.8481 -1.0145  1.1746
 1439WAT     H2 4529   1.833   5.043   3.542 -0.3063  0.2727 -1.2072
 1440WAT      O 4530   0.592   4.850   0.918 -0.1186 -0.5181 -0.0685
 1440WAT     H1 4531   0.559   4.813   1.000 -0.9980 -0.0164 -0.1880
 1440WAT     H2 4532   0.521   4.906   0.887  0.0486 -1.0137 -1.3826
 1441WAT      O 4533   2.234   3.402   1.011  0.2987  0.4558  0.3015
 1441WAT     H1 4534   2.314   3.410   0.960 -0.2291 -0.1839 -0.6505
 1441WAT     H2 4535   2.253   3.334   1.075  0.6205  0.5334  0.2885
 1442WAT      O 4536   1.029   0.025   1.923  0.3563 -0.0376 -0.3757
 1442WAT     H1 4537   1.089  -0.045   1.949  0.2826 -0.8715 -2.2960
 1442WAT     H2 4538   0.942  -0.006   1.949  0.5486  0.4099  0.8631
 1443WAT      O 4539   1.541   2.381   2.983 -0.3042 -0.1242  0.1846
 1443WAT     H1 4540   1.498   2.324   3.046 -0.3421  1.0261  1.2340
 1443WAT     H2 4541   1.521   2.342   2.898 -1.1016 -1.1410  0.8134
 1444WAT      O 4542   4.224   3.080   0.114 -0.0158  0.2564 -0.0035
 1444WAT     H1 4543   4.277   3.001   0.121  0.8133  0.4576 -2.8494
 1444WAT     H2 4544   4.170   3.066   0.036  0.1650  2.4760 -0.5892
 1445WAT      O 4545   2.096   2.744   4.127 -0.1696  0.1171  0.2568
 1445WAT     H1 4546   2.155   2.726   4.201  1.5476 -1.9311 -1.4867
 1445WAT     H2 4547   2.100   2.838   4.116  1.3989  0.2194  1.3225
 1446WAT      O 4548   0.696   3.428   4.729 -0.1700 -0.0460 -0.7042
 1446WAT     H1 4549   0.632   3.371   4.687 -2.3668  0.4754  1.7157
 1446WAT     H2 4550   0.693   3.403   4.822 -0.2366  3.0858  0.2263
 1447WAT      O 4551   3.842   0.535   5.288 -0.5545 -0.1590 -0.4728
 1447WAT     H1 4552   3.813   0.473   5.221 -1.1824 -1.2055  0.7169
 1447WAT     H2 4553   3.937   0.528   5.288 -0.5849 -0.5661 -0.8786
 1448WAT      O 4554   2.045   2.241   1.134  0.6226  0.2313 -0.3449
 1448WAT     H1 4555   1.996   2.283   1.205  0.1141 -0.4946 -0.2632
 1448WAT     H2 4556   1.998   2.160   1.117  1.2145  0.0125 -0.9634
 1449WAT      O 4557   2.968   0.602   0.345 -0.0035  0.0574  0.1899
 1449WAT     H1 4558   2.973   0.531   0.409 -2.3136  0.0466  0.4313
 1449WAT     H2 4559   3.015   0.675   0.386  0.6217 -0.6836  0.8236
 1450WAT      O 4560   2.662   2.491   3.705 -0.5310  0.1329 -0.1195
 1450WAT     H1 4561   2.595   2.553   3.735 -0.1019  0.8064 -0.5298
 1450WAT     H2 4562   2.662   2.422   3.772 -1.1697  0.4648  0.2315
 1451WAT      O 4563   3.809   0.435   2.875 -0.5127  0.3570  0.7230
 1451WAT     H1 4564   3.862   0.355   2.870 -0.3210  0.4681  0.9884
 1451WAT     H2 4565   3.833   0.474   2.959  1.6793  2.3087 -0.6940
 1452WAT      O 4566   4.341   1.956   3.920  0.2120 -0.2881  0.8060
 1452WAT     H1 4567   4.342   1.982   3.827 -2.4160 -0.5108  0.6190
 1452WAT     H2 4568   4.385   1.871   3.921 -3.0359 -2.2175 -1.0556
 1453WAT      O 4569   3.163   1.828   1.179  0.0775  0.2551  0.0946
 1453WAT     H1 4570   3.223   1.763   1.142 -1.2020 -0.9374  0.0246
 1453WAT     H2 4571   3.115   1.862   1.104 -0.5285 -0.0651  0.3326
 1454WAT      O 4572   2.787   0.295   2.503 -0.2410  0.1819 -0.5943
 1454WAT     H1 4573   2.749   0.316   2.418 -0.9644 -0.7204 -0.5024
 1454WAT     H2 4574   2.882   0.305   2.490 -0.4188  1.5259 -1.0784
 1455WAT      O 4575   3.108   0.509   1.409 -0.4465  0.1491 -0.3391
 1455WAT     H1 4576   3.138   0.545   1.326  2.5279 -0.0121  0.5597
 1455WAT     H2 4577   3.100   0.415   1.393  0.1828  0.1098 -0.4437
 1456WAT      O 4578   4.451   0.637   4.832  0.1693 -0.4383  0.0336
 1456WAT     H1 4579   4.543   0.638   4.860 -0.1572 -1.4884  1.2240
 1456WAT     H2 4580   4.452   0.678   4.746  1.5883  0.6278  0.5197
 1457WAT      O 4581   2.027   1.664   0.755  0.3082  0.2894  0.0582
 1457WAT     H1 4582   2.025   1.572   0.732  0.3209  0.1210  0.7071
 1457WAT     H2 4583   2.002   1.710   0.675 -0.2260 -0.3011 -0.1230
 1458WAT      O 4584   0.901   0.553   3.022  0.5201 -0.4210  0.0181
 1458WAT     H1 4585   0.805   0.557   3.019  0.5313 -0.0516 -0.0017
 1458WAT     H2 4586   0.923   0.463   2.999  0.1633 -0.5992  0.3592
 1459WAT      O 4587   2.564   0.742   3.075 -0.5287  0.5316 -0.0842
 1459WAT     H1 4588   2.610   0.683   3.135 -1.6320  0.0907  0.3541
 1459WAT     H2 4589   2.485   0.694   3.050 -0.0272  0.6249 -2.0558
 1460WAT      O 4590   1.489   2.132   3.941  0.0566  0.7060  0.0640
 1460WAT     H1 4591   1.507   2.219   3.908  2.2548  0.5582  0.7045
 1460WAT     H2 4592   1.520   2.073   3.872 -2.2040  0.3564 -0.7519
 1461WAT      O 4593   1.902   2.097   3.216  0.1499  0.8271 -0.1950
 1461WAT     H1 4594   1.983   2.050   3.236 -1.0047 -1.0512  0.3213
 1461WAT     H2 4595   1.917   2.186   3.248  1.4903  0.1400  1.2221
 1462WAT      O 4596   4.113   0.438   3.452 -0.0234  0.0766 -0.6099
 1462WAT     H1 4597   4.049   0.382   3.407 -0.7325  0.5140 -0.1596
 1462WAT     H2 4598   4.089   0.433   3.544 -0.5848  1.7237 -0.6385
 1463WAT      O 4599   3.438   0.692   2.617 -0.1792 -0.2794  0.2076
 1463WAT     H1 4600   3.506   0.625   2.609 -1.1335 -1.2789  0.2449
 1463WAT     H2 4601   3.402   0.701   2.529  0.8971  1.2462 -0.1059
 1464WAT      O 4602   1.978   4.097   1.631 -0.4441  0.4167 -0.0874
 1464WAT     H1 4603   2.068   4.122   1.650 -0.1556 -0.0520 -0.7859
 1464WAT     H2 4604   1.924   4.153   1.688  0.1613  2.4369 -1.3898
 1465WAT      O 4605   4.332   3.949   3.776 -0.2259 -0.1835  0.2361
 1465WAT     H1 4606   4.263   3.893   3.739  1.9685 -1.7682 -1.7449
 1465WAT     H2 4607   4.383   3.890   3.832  0.9752  0.3093 -0.3117
 1466WAT      O 4608   0.152   4.185   1.905  0.8771 -0.2729  0.0677
 1466WAT     H1 4609   0.192   4.247   1.843  1.0993  0.0359  0.5143
 1466WAT     H2 4610   0.064   4.219   1.918  0.8421 -0.3171 -0.0515
 1467WAT      O 4611   0.631   1.322   3.652  0.3320 -0.1988  0.0015
 1467WAT     H1 4612   0.624   1.229   3.676 -1.4823 -0.0661  0.1907
 1467WAT     H2 4613   0.621   1.369   3.735 -0.8167  0.1773 -0.3327
 1468WAT      O 4614   1.055   3.125   2.375  0.5009  0.4244  0.1085
 1468WAT     H1 4615   0.976   3.178   2.383 -0.0241 -0.4840  1.3036
 1468WAT     H2 4616   1.075   3.099   2.465  0.3710 -1.8981 -0.4664
 1469WAT      O 4617   1.503   3.112   2.811 -0.5820  0.0866 -0.1824
 1469WAT     H1 4618   1.440   3.056   2.857  0.6835 -0.5644  0.8297
 1469WAT     H2 4619   1.559   3.145   2.881  0.0655  0.8222 -1.0427
 1470WAT      O 4620   4.325   2.516   3.206 -0.6310  0.1620 -0.5505
 1470WAT     H1 4621   4.405   2.501   3.256 -0.6533  0.3371 -0.4621
 1470WAT     H2 4622   4.284   2.430   3.199 -1.1170  0.2842  0.5591
 1471WAT      O 4623   2.189   3.954   2.907 -0.3066 -0.0089  0.1802
 1471WAT     H1 4624   2.119   3.954   2.842  0.2260  0.8217 -0.4047
 1471WAT     H2 4625   2.208   4.046   2.923  0.6530 -0.2199  0.3331
 1472WAT      O 4626   3.808   3.437   0.655 -0.0312 -0.3781 -0.0204
 1472WAT     H1 4627   3.823   3.345   0.634 -1.6647 -0.9634  1.1911
 1472WAT     H2 4628   3.799   3.439   0.750  0.5051  1.1389  0.0293
 1473WAT      O 4629   2.901   4.597   3.344 -0.2305  0.0146  0.0460
 1473WAT     H1 4630   2.871   4.601   3.435 -0.9757  1.4232 -0.2258
 1473WAT     H2 4631   2.871   4.680   3.306  0.6582 -0.2583 -1.3046
 1474WAT      O 4632   2.959   2.885   1.343  0.3829  0.5722 -0.0905
 1474WAT     H1 4633   3.046   2.844   1.340  0.6028  1.0240  0.0338
 1474WAT     H2 4634   2.977   2.979   1.346 -0.1228  0.6881 -0.6170
 1475WAT      O 4635   1.515   3.600   3.114 -0.0720  0.1024  0.8189
 1475WAT     H1 4636   1.429   3.576   3.080 -0.6121  0.6037  1.7897
 1475WAT     H2 4637   1.512   3.571   3.205  0.3836  1.1221  1.1616
 1476WAT      O 4638   4.431   2.342   3.511  0.7956 -0.1719  0.8416
 1476WAT     H1 4639   4.480   2.408   3.462  1.6308 -1.2186  0.2194
 1476WAT     H2 4640   4.491   2.314   3.580  0.7435 -0.7931  0.6471
 1477WAT      O 4641   2.910   3.747   4.080  0.3727 -0.0916  0.0035
 1477WAT     H1 4642   2.945   3.831   4.048  0.0111  0.2395  0.4556
 1477WAT     H2 4643   2.939   3.743   4.171  0.0489 -0.2676  0.0990
 1478WAT      O 4644   0.418   2.791   1.444  0.3260  0.2863 -0.3068
 1478WAT     H1 4645   0.437   2.795   1.537  0.3648 -0.6921 -0.2577
 1478WAT     H2 4646   0.477   2.855   1.405 -1.7530  2.8990  0.5904
 1479WAT      O 4647   3.026   1.334   1.192 -0.0982 -0.2425  0.0246
 1479WAT     H1 4648   3.007   1.416   1.238  1.4485 -1.6007  3.4606
 1479WAT     H2 4649   3.117   1.342   1.165  0.3535 -1.0980  1.2034
 1480WAT      O 4650   4.435   3.212   3.160  0.0681  0.8684 -0.1366
 1480WAT     H1 4651   4.465   3.197   3.071  0.3354 -1.5833  0.2759
 1480WAT     H2 4652   4.497   3.163   3.215 -1.3517  0.4729  1.1970
 1481WAT      O 4653   1.635   0.679   0.419 -0.0496 -0.5809 -0.1724
 1481WAT     H1 4654   1.636   0.615   0.348 -0.4309 -1.4506  0.5867
 1481WAT     H2 4655   1.567   0.741   0.395 -0.3197 -0.9860 -0.4677
 1482WAT      O 4656   2.551   2.616   0.342 -0.0897  0.4460  0.2010
 1482WAT     H1 4657   2.522   2.707   0.334 -1.7689  0.0536  1.4024
 1482WAT     H2 4658   2.644   2.619   0.318  0.0680  2.5771  0.8492
 1483WAT      O 4659   3.553   4.762   5.003 -0.4482 -0.3256  0.2833
 1483WAT     H1 4660   3.574   4.749   5.096  1.3324 -1.7123 -0.2317
 1483WAT     H2 4661   3.578   4.852   4.985  0.5482 -0.4698  0.8553
 1484WAT      O 4662   0.033   2.127   0.996  0.0038 -0.1264  0.0593
 1484WAT     H1 4663   0.064   2.052   0.946 -1.1974  0.4054 -1.5732
 1484WAT     H2 4664   0.088   2.200   0.966  0.1975 -0.0575  0.5654
 1485WAT      O 4665   2.618   4.828   3.488 -0.7957 -0.1032  0.1507
 1485WAT     H1 4666   2.682   4.837   3.559 -0.3944  0.6054 -0.2925
 1485WAT     H2 4667   2.609   4.733   3.477  1.4408 -0.2617 -0.8601
 1486WAT      O 4668   2.945   4.901   4.308 -0.4717  0.0305 -0.1224
 1486WAT     H1 4669   2.992   4.956   4.370  0.0770 -1.6657  1.0272
 1486WAT     H2 4670   2.919   4.961   4.238 -0.0514  1.7634  1.1399
 1487WAT      O 4671   4.448   0.091   0.471 -0.4088  0.1139  0.3789
 1487WAT     H1 4672   4.382   0.060   0.533  0.6523 -2.2031  0.4944
 1487WAT     H2 4673   4.509   0.142   0.525  0.2810 -1.5389  1.2740
 1488WAT      O 4674   2.812   4.494   0.232  0.3186 -0.7031 -0.5677
 1488WAT     H1 4675   2.822   4.445   0.150  0.7394 -0.3897 -0.7037
 1488WAT     H2 4676   2.724   4.469   0.263  0.3637 -1.2251 -0.8412
 1489WAT      O 4677   0.846   4.891   1.010  0.3396 -0.3307 -0.2033
 1489WAT     H1 4678   0.858   4.796   1.015  0.3994 -0.2890  0.4927
 1489WAT     H2 4679   0.764   4.903   0.962  0.6085 -0.7201 -0.7666
 1490WAT      O 4680   1.072   1.347   3.318  0.3182  0.1088  0.0865
 1490WAT     H1 4681   1.023   1.329   3.399  2.3898  0.4828  1.5003
 1490WAT     H2 4682   1.009   1.392   3.262 -1.2697 -0.3904  1.3873
 1491WAT      O 4683   1.432   0.256   4.814  0.1423  0.0974  0.5761
 1491WAT     H1 4684   1.457   0.306   4.736  0.2002 -1.8027 -0.7273
 1491WAT     H2 4685   1.456   0.311   4.888 -0.6255  2.3158 -0.7428
 1492WAT      O 4686   1.557   3.486   0.358 -0.0328  0.1422 -0.0586
 1492WAT     H1 4687   1.627   3.462   0.419  0.2120  0.6795 -0.1279
 1492WAT     H2 4688   1.496   3.412   0.362 -0.4258  0.5157  1.4554
 1493WAT      O 4689   3.405   2.509   2.804 -0.5904  0.5878  0.0780
 1493WAT     H1 4690   3.334   2.573   2.799 -2.6600 -1.5873 -0.7077
 1493WAT     H2 4691   3.437   2.501   2.714  1.4198  2.2440  0.5747
 1494WAT      O 4692   3.493   3.718   0.375 -0.0687  0.2234 -0.1303
 1494WAT     H1 4693   3.535   3.771   0.443  1.7869  1.0231 -1.7703
 1494WAT     H2 4694   3.439   3.780   0.326  0.9657  0.3519 -1.1651
 1495WAT      O 4695   2.837   0.312   2.843 -0.2657  0.1519 -0.1180
 1495WAT     H1 4696   2.804   0.390   2.888  0.2961  0.0347  0.5254
 1495WAT     H2 4697   2.904   0.346   2.783 -1.6465  0.4109 -1.5661
 1496WAT      O 4698   1.376   3.709   1.609  0.5859  0.1280  0.0522
 1496WAT     H1 4699   1.429   3.630   1.597  2.0321  0.9437  0.8616
 1496WAT     H2 4700   1.286   3.679   1.594  1.1728 -1.4790 -0.5069
 1497WAT      O 4701   0.576   2.530   2.623  0.3842 -0.1913  0.3358
 1497WAT     H1 4702   0.498   2.486   2.588  0.6798  0.6003 -1.4701
 1497WAT     H2 4703   0.581   2.612   2.573  1.9948  0.0884  0.8959
 1498WAT      O 4704   1.137   2.438   4.931 -0.0289 -0.7199  0.4183
 1498WAT     H1 4705   1.054   2.486   4.937 -0.6578 -1.8384  0.9561
 1498WAT     H2 4706   1.175   2.446   5.019  0.6924  0.1901  0.0475
 1499WAT      O 4707   2.605   2.545   0.722  0.1492  0.1609  0.0070
 1499WAT     H1 4708   2.599   2.638   0.698 -0.7161  0.4086  1.0972
 1499WAT     H2 4709   2.690   2.538   0.766  0.8247  0.1294 -1.2546
 1500WAT      O 4710   1.715   0.785   1.331 -0.1204 -0.7616  0.1588
 1500WAT     H1 4711   1.746   0.816   1.245 -0.8318  0.7749  0.4140
 1500WAT     H2 4712   1.770   0.832   1.394 -2.3420  1.4367  0.6008
 1501WAT      O 4713   2.280   0.140   4.056 -0.0631  0.2104  0.1909
 1501WAT     H1 4714   2.235   0.073   4.106  0.0484 -0.3542 -0.4575
 1501WAT     H2 4715   2.373   0.119   4.064  0.0451  0.8646  0.7995
 1502WAT      O 4716   3.735   2.251   4.484  0.0440 -0.2645  0.3685
 1502WAT     H1 4717   3.684   2.226   4.407  0.3461 -0.2061  0.1449
 1502WAT     H2 4718   3.802   2.311   4.449 -1.3732  1.8497  1.0393
 1503WAT      O 4719   2.490   2.401   2.762 -0.1921  0.3266 -0.2358
 1503WAT     H1 4720   2.540   2.354   2.829  0.1618  0.0998 -0.6564
 1503WAT     H2 4721   2.506   2.493   2.782 -2.4387  0.3796  1.7984
 1504WAT      O 4722   0.912   4.809   5.285 -0.0273  0.6765  0.3000
 1504WAT     H1 4723   0.970   4.883   5.267  2.5805 -1.4086 -0.4303
 1504WAT     H2 4724   0.905   4.762   5.202 -1.6928  0.0934  0.7235
 1505WAT      O 4725   0.020   4.526   1.389 -0.3263  0.7571 -0.3792
 1505WAT     H1 4726  -0.050   4.543   1.326 -0.2809  2.1048 -0.0945
 1505WAT     H2 4727   0.017   4.601   1.449 -0.6195 -0.6610  1.4514
 1506WAT      O 4728   2.441   1.868   4.948 -0.7559 -0.1023  0.7777
 1506WAT     H1 4729   2.368   1.928   4.961 -0.7880  0.2660 -0.9222
 1506WAT     H2 4730   2.517   1.924   4.933 -0.9202 -0.4206 -1.5721
 1507WAT      O 4731   1.381   1.069   3.665 -0.1640  0.2090 -0.1453
 1507WAT     H1 4732   1.321   1.034   3.731 -0.4927 -1.4759 -1.2710
 1507WAT     H2 4733   1.464   1.081   3.712 -0.3762 -0.9685  0.5795
 1508WAT      O 4734   0.458   4.478   2.319  0.1608 -0.0243 -0.2512
 1508WAT     H1 4735   0.526   4.523   2.269 -0.9957  1.2262 -0.7664
 1508WAT     H2 4736   0.475   4.501   2.410  1.8017 -1.6520 -0.1019
 1509WAT      O 4737   4.211   2.281   0.726  0.2497 -0.2962  0.1865
 1509WAT     H1 4738   4.177   2.370   0.725  2.6403  0.6911  0.5373
 1509WAT     H2 4739   4.217   2.259   0.820 -1.1284 -1.2018  0.0962
 1510WAT      O 4740   1.860   2.793   4.332  0.3799 -0.0960 -0.6588
 1510WAT     H1 4741   1.898   2.879   4.352  1.9329 -0.9963  0.5120
 1510WAT     H2 4742   1.855   2.749   4.417  0.4321 -1.4727 -1.3488
 1511WAT      O 4743   0.005   0.390   0.821  0.0383 -1.1252 -0.4057
 1511WAT     H1 4744  -0.038   0.467   0.784  1.2427  0.2703  1.0060
 1511WAT     H2 4745   0.091   0.388   0.779 -0.0779 -1.8751 -0.6270
 1512WAT      O 4746   2.756   4.243   0.403 -0.1174  0.2240  0.6846
 1512WAT     H1 4747   2.798   4.220   0.320  0.3644 -0.1914  1.0346
 1512WAT     H2 4748   2.699   4.317   0.382 -2.9614 -2.2260 -0.8327
 1513WAT      O 4749   3.009   1.647   1.968 -0.3914  1.0726  0.3139
 1513WAT     H1 4750   3.033   1.739   1.978  0.2111  0.8472  1.0227
 1513WAT     H2 4751   3.056   1.602   2.038 -2.5004  0.5290  1.4707
 1514WAT      O 4752   3.426   2.745   3.350  0.4695  0.8635  0.0254
 1514WAT     H1 4753   3.481   2.823   3.357 -0.5014  1.7081 -1.2931
 1514WAT     H2 4754   3.398   2.728   3.440  0.8834  1.9017  0.3740
 1515WAT      O 4755   4.061   3.384   2.131  0.0827  0.2792  0.5320
 1515WAT     H1 4756   4.152   3.407   2.113 -0.3993  0.3828 -2.3105
 1515WAT     H2 4757   4.025   3.459   2.177  0.3810  2.2625 -2.2519
 1516WAT      O 4758   4.427   3.211   1.022 -0.3527  0.2676 -0.4166
 1516WAT     H1 4759   4.350   3.267   1.023 -0.2745  0.3732  0.3557
 1516WAT     H2 4760   4.420   3.161   0.940 -0.1081  1.8286 -1.4496
 1517WAT      O 4761   3.221   0.593   1.174 -0.1789  0.5400  0.3843
 1517WAT     H1 4762   3.146   0.608   1.117  0.2630 -2.1305 -1.1156
 1517WAT     H2 4763   3.297   0.605   1.116  0.2991 -1.5451  0.4963
 1518WAT      O 4764   0.511   3.672   3.605 -0.7512  0.0182  0.0420
 1518WAT     H1 4765   0.434   3.676   3.662 -0.8959 -1.2632 -0.0300
 1518WAT     H2 4766   0.573   3.616   3.653  0.8387  2.3164  0.8773
 1519WAT      O 4767   1.085   4.797   4.889  0.0345 -0.1145 -0.4678
 1519WAT     H1 4768   1.172   4.834   4.871 -0.8227  1.1178 -2.3501
 1519WAT     H2 4769   1.026   4.845   4.831 -2.2516  0.4854  2.1856
 1520WAT      O 4770   0.085   2.314   1.920 -0.0802  0.1087 -0.2325
 1520WAT     H1 4771   0.094   2.408   1.940  3.2332 -0.3833  1.2680
 1520WAT     H2 4772   0.056   2.275   2.002 -1.6930 -0.2130 -0.9238
 1521WAT      O 4773   2.936   0.571   2.136  0.0431 -0.0122 -0.3783
 1521WAT     H1 4774   2.882   0.507   2.182 -0.0605  0.1017 -0.3406
 1521WAT     H2 4775   2.973   0.626   2.204 -2.3745  1.9735 -0.5175
 1522WAT      O 4776   0.490   0.053   5.266  0.2601 -0.2230  0.0652
 1522WAT     H1 4777   0.463  -0.014   5.203 -1.2726 -0.3042  0.7561
 1522WAT     H2 4778   0.547   0.006   5.327 -1.0519 -1.0276  0.7278
 1523WAT      O 4779   3.327   1.714   3.995 -0.0144  0.6551  0.1508
 1523WAT     H1 4780   3.375   1.771   3.935  2.0536 -0.8845  0.2663
 1523WAT     H2 4781   3.353   1.625   3.972 -1.1728 -0.1402  1.6560
 1524WAT      O 4782   4.429   1.416   4.297 -0.4526  0.3778 -0.5785
 1524WAT     H1 4783   4.450   1.351   4.364 -0.2545  0.5756 -0.4479
 1524WAT     H2 4784   4.471   1.382   4.218 -1.4060 -0.2974 -0.8164
 1525WAT      O 4785   3.455   2.396   4.946 -0.1624  0.3024 -0.4671
 1525WAT     H1 4786   3.490   2.414   4.859  0.3229  0.8554 -0.1656
 1525WAT     H2 4787   3.360   2.401   4.936 -0.3154 -2.6418 -1.6294
 1526WAT      O 4788   1.492   4.562   0.006 -0.1083  0.0998  0.0858
 1526WAT     H1 4789   1.581   4.546  -0.027  0.8844  1.7858  1.6994
 1526WAT     H2 4790   1.461   4.637  -0.045  0.5270  1.2408  1.2949
 1527WAT      O 4791   0.846   1.317   4.155  0.2630 -0.4352  0.2295
 1527WAT     H1 4792   0.880   1.341   4.242  0.4494  0.6387 -0.1213
 1527WAT     H2 4793   0.916   1.343   4.095 -0.2435 -0.3172 -0.3143
 1528WAT      O 4794   4.250   1.677   2.802 -0.4371 -0.3901 -0.0431
 1528WAT     H1 4795   4.285   1.721   2.725 -0.6383 -1.6374 -0.8814
 1528WAT     H2 4796   4.301   1.596   2.809 -0.8026 -0.5642  0.8051
 1529WAT      O 4797   2.521   3.967   3.125  0.4774  0.2947 -0.1068
 1529WAT     H1 4798   2.487   3.918   3.050 -2.0933 -0.0818  1.2049
 1529WAT     H2 4799   2.563   3.901   3.180 -0.0591  0.0934  0.0699
 1530WAT      O 4800   4.156   4.424   3.968  0.3296 -0.0031 -0.0436
 1530WAT     H1 4801   4.182   4.400   4.057  2.4098 -1.6447 -1.0311
 1530WAT     H2 4802   4.211   4.370   3.911  0.4376  2.3840 -2.3747
 1531WAT      O 4803   2.051   1.319   1.011  0.1205  0.4726 -0.3206
 1531WAT     H1 4804   2.080   1.244   0.959  1.3230  1.1067 -0.6252
 1531WAT     H2 4805   2.050   1.392   0.949 -0.8800  0.7436  0.0044
 1532WAT      O 4806   0.753   1.147   0.727 -0.2692 -0.4654  0.4711
 1532WAT     H1 4807   0.840   1.145   0.688 -0.0942  1.4190  0.6827
 1532WAT     H2 4808   0.761   1.091   0.805  0.2001 -1.8175 -0.5196
 1533WAT      O 4809   2.791   3.089   3.684  0.7478 -0.2989  0.8640
 1533WAT     H1 4810   2.837   3.168   3.712  1.4684  0.4472 -2.0758
 1533WAT     H2 4811   2.699   3.113   3.683  0.9835  0.5918 -0.1965
 1534WAT      O 4812   0.890   3.936   4.773 -0.0968 -0.2634  0.5226
 1534WAT     H1 4813   0.828   4.008   4.785 -0.2353 -0.2455 -0.2419
 1534WAT     H2 4814   0.835   3.861   4.750  0.1257 -0.3604  0.3064
 1535WAT      O 4815   4.029   5.124   3.435  0.2790  0.3877 -0.4076
 1535WAT     H1 4816   4.010   5.188   3.503  0.1052 -0.0866 -0.0032
 1535WAT     H2 4817   4.015   5.039   3.477 -0.6644  0.0967 -1.2837
 1536WAT      O 4818   2.913   5.056   3.397  0.5112  0.1016 -0.1541
 1536WAT     H1 4819   2.879   4.978   3.353  0.9342 -0.5893  0.7110
 1536WAT     H2 4820   3.008   5.045   3.397  0.5953  0.7520 -0.2596
 1537WAT      O 4821   4.276   4.478   1.542  0.4428  0.6380  0.2192
 1537WAT     H1 4822   4.302   4.531   1.466 -0.3405 -0.5998 -0.9683
 1537WAT     H2 4823   4.240   4.542   1.604  1.5169  1.7329 -0.2424
 1538WAT      O 4824   4.340   1.271   5.101 -0.2350  0.9056  0.3752
 1538WAT     H1 4825   4.422   1.319   5.112 -1.0954  1.9660  3.3532
 1538WAT     H2 4826   4.352   1.191   5.152 -0.4986  0.2782 -0.5301
 1539WAT      O 4827   4.483   1.847   2.012 -0.1102  0.2222 -0.1889
 1539WAT     H1 4828   4.402   1.889   1.983  0.1644  1.3042  0.5225
 1539WAT     H2 4829   4.550   1.913   1.999  0.1671  0.4517  1.9593
 1540WAT      O 4830   3.859   4.247   1.933 -0.5907 -0.1206  0.5851
 1540WAT     H1 4831   3.816   4.261   1.848 -2.0189  1.2721  1.4901
 1540WAT     H2 4832   3.951   4.270   1.916 -0.3945 -1.8676 -1.0549
 1541WAT      O 4833   2.467   1.215   4.892  0.2990 -0.1480  0.3704
 1541WAT     H1 4834   2.547   1.176   4.855 -0.2866 -0.6917 -0.3588
 1541WAT     H2 4835   2.446   1.287   4.832  0.5288  0.3426  0.8647
 1542WAT      O 4836   0.100   4.737   0.222 -0.1636 -0.8972  0.0284
 1542WAT     H1 4837   0.183   4.733   0.176 -0.5888  1.4276 -1.0889
 1542WAT     H2 4838   0.124   4.744   0.314  0.8223 -1.6730 -0.1587
 1543WAT      O 4839   1.619   3.478   3.570  0.0027 -0.4479  0.4252
 1543WAT     H1 4840   1.626   3.520   3.655  0.6717 -0.6808  0.4866
 1543WAT     H2 4841   1.556   3.532   3.521  0.7316  0.5266  0.5532
 1544WAT      O 4842   0.635   4.267   0.857 -0.0333  0.7641 -0.1679
 1544WAT     H1 4843   0.565   4.291   0.919  0.2998 -0.7254  0.8285
 1544WAT     H2 4844   0.716   4.279   0.906  0.2947  0.4467 -0.6258
 1545WAT      O 4845   1.985   1.160   2.132  0.2583  0.1379  0.1583
 1545WAT     H1 4846   2.018   1.206   2.209 -0.2294  3.2171 -1.2818
 1545WAT     H2 4847   2.060   1.158   2.072 -0.1929  0.6656 -0.4423
 1546WAT      O 4848   2.327   0.314   3.272 -0.3630  0.2661 -0.4784
 1546WAT     H1 4849   2.281   0.325   3.355 -0.0563 -0.0242 -0.2637
 1546WAT     H2 4850   2.320   0.221   3.253 -0.6207  0.3691 -0.8934
 1547WAT      O 4851   4.196   4.418   4.257  0.0800  0.2012 -0.2034
 1547WAT     H1 4852   4.236   4.499   4.288 -0.0891 -0.3947  1.6638
 1547WAT     H2 4853   4.249   4.349   4.294  0.0491 -0.5847 -1.5397
 1548WAT      O 4854   1.698   4.695   1.158 -0.1665 -0.5114  0.1126
 1548WAT     H1 4855   1.716   4.709   1.065  0.9991 -1.6691  0.1369
 1548WAT     H2 4856   1.700   4.600   1.169 -1.4849 -0.4631  1.1136
 1549WAT      O 4857   4.247   2.267   3.225  0.4264 -0.2443 -0.4800
 1549WAT     H1 4858   4.254   2.272   3.320  0.2934 -0.8114 -0.4368
 1549WAT     H2 4859   4.289   2.184   3.202 -0.7833 -0.8032 -0.7762
 1550WAT      O 4860   2.915   4.096   0.184  0.6203  0.1019 -0.1063
 1550WAT     H1 4861   2.965   4.094   0.102  1.4562 -1.3058  0.3952
 1550WAT     H2 4862   2.972   4.053   0.248 -0.4638  0.1825  0.9574
 1551WAT      O 4863   2.103   0.282   2.241 -0.5505 -0.2336  0.2008
 1551WAT     H1 4864   2.078   0.189   2.245  0.6266 -0.7948 -2.7141
 1551WAT     H2 4865   2.157   0.296   2.318 -1.3506 -1.7526  1.0853
 1552WAT      O 4866   4.062   0.538   0.405  0.4102  0.0844  0.6661
 1552WAT     H1 4867   4.060   0.477   0.478 -1.7333  0.5985  1.1061
 1552WAT     H2 4868   3.977   0.581   0.407  0.7210  0.9446 -1.4452
 1553WAT      O 4869   3.391   4.647   1.878 -0.0526 -0.9968 -0.1980
 1553WAT     H1 4870   3.341   4.700   1.816 -0.5723 -0.0112  1.0135
 1553WAT     H2 4871   3.389   4.697   1.960 -0.7358 -2.9760  1.0741
 1554WAT      O 4872   3.587   4.017   2.260  0.0800 -0.8383 -0.5142
 1554WAT     H1 4873   3.497   4.041   2.281  0.4268 -0.4479  0.5816
 1554WAT     H2 4874   3.631   4.100   2.243  0.9448 -0.7035  1.9321
 1555WAT      O 4875   1.878   1.055   5.137  0.0476  0.3320 -0.6599
 1555WAT     H1 4876   1.810   1.024   5.077  0.4850 -0.8554 -0.5761
 1555WAT     H2 4877   1.841   1.134   5.177 -0.2609  1.1484 -2.4614
 1556WAT      O 4878   3.837   4.716   0.963 -0.0521  0.3435  0.4703
 1556WAT     H1 4879   3.869   4.695   1.051  0.3447 -0.3612  0.1668
 1556WAT     H2 4880   3.896   4.785   0.932 -0.4098  0.8475  0.8801
 1557WAT      O 4881   4.454   1.637   0.946 -0.2267 -0.4039  0.0154
 1557WAT     H1 4882   4.475   1.649   1.039 -0.9743  1.3949 -0.0045
 1557WAT     H2 4883   4.368   1.596   0.946  0.6543 -2.3344  0.0870
 1558WAT      O 4884   1.010   3.475   1.153 -0.0411 -0.6001  0.1891
 1558WAT     H1 4885   0.925   3.481   1.197 -0.6132 -0.6722 -0.8589
 1558WAT     H2 4886   0.988   3.480   1.060  1.3268  1.9148 -0.0713
 1559WAT      O 4887   1.534   4.981   3.430  0.2914  0.4321  0.2919
 1559WAT     H1 4888   1.614   4.929   3.428  0.4773  0.7174  0.3003
 1559WAT     H2 4889   1.547   5.048   3.363 -0.6906 -0.6066 -1.0101
 1560WAT      O 4890   1.342   4.604   3.247  0.2623  0.3516  0.2337
 1560WAT     H1 4891   1.338   4.668   3.175  1.5845  0.7333  0.4749
 1560WAT     H2 4892   1.423   4.625   3.293 -0.2131 -0.3400  1.4320
 1561WAT      O 4893   1.375   3.103   1.129 -0.2110 -0.2897  0.4075
 1561WAT     H1 4894   1.363   3.018   1.173 -0.8279 -1.5073 -1.9763
 1561WAT     H2 4895   1.296   3.152   1.151 -0.7913 -1.1040  0.1599
 1562WAT      O 4896   3.536   3.430   0.009  0.0701  0.4952 -0.0868
 1562WAT     H1 4897   3.514   3.447   0.101  0.5291 -1.9500  0.5569
 1562WAT     H2 4898   3.598   3.499  -0.013 -0.1362  1.2104  1.4037
 1563WAT      O 4899   3.657   3.084   0.493 -0.0942  0.4050 -0.0811
 1563WAT     H1 4900   3.590   3.122   0.549 -1.5151  0.0048 -1.4552
 1563WAT     H2 4901   3.632   2.992   0.485  2.7853 -0.7814  2.4674
 1564WAT      O 4902   2.447   4.197   0.186  0.2348  0.0471  0.8299
 1564WAT     H1 4903   2.421   4.125   0.244 -0.3098 -0.4183  0.0169
 1564WAT     H2 4904   2.542   4.185   0.175  0.0982 -0.7398  0.4431
 1565WAT      O 4905   0.380   4.049   0.283  0.0112  0.0273 -0.3612
 1565WAT     H1 4906   0.449   4.106   0.319 -0.8712  0.3164  0.9365
 1565WAT     H2 4907   0.350   3.998   0.358 -0.3363 -0.9878 -1.1813
 1566WAT      O 4908   3.433   2.080   4.481  0.2424 -0.0591 -0.6526
 1566WAT     H1 4909   3.508   2.023   4.497  0.9084  0.5669 -1.4226
 1566WAT     H2 4910   3.467   2.147   4.422 -0.4020  1.3830  0.5628
 1567WAT      O 4911   2.866   3.601   2.818  0.2396  0.1562 -0.2440
 1567WAT     H1 4912   2.839   3.655   2.744  0.4756 -0.3826 -0.7326
 1567WAT     H2 4913   2.789   3.547   2.837 -0.7588  2.1126  1.6287
 1568WAT      O 4914   4.088   3.527   0.328  0.0756  0.3446 -0.5843
 1568WAT     H1 4915   4.101   3.435   0.308 -0.7878  0.1854 -0.4688
 1568WAT     H2 4916   3.999   3.546   0.297  0.8596  1.5973 -2.2571
 1569WAT      O 4917   1.505   2.324   2.420 -0.6836 -0.0770  0.2172
 1569WAT     H1 4918   1.419   2.317   2.462 -1.7183 -0.7731 -1.8951
 1569WAT     H2 4919   1.514   2.417   2.401  0.4620  0.5256  3.1133
 1570WAT      O 4920   0.615   4.286   3.172 -0.0133  0.0650 -0.2577
 1570WAT     H1 4921   0.628   4.375   3.206  0.9771 -0.0524 -0.2813
 1570WAT     H2 4922   0.576   4.238   3.245 -0.5072  0.5111 -0.2285
 1571WAT      O 4923   2.077   3.633   2.107  0.5816 -0.5802 -0.2828
 1571WAT     H1 4924   2.097   3.704   2.167 -0.2689  0.1986 -0.8861
 1571WAT     H2 4925   2.000   3.590   2.145  0.7835 -0.8591 -0.1852
 1572WAT      O 4926   2.997   3.383   0.857  0.0701 -0.8678 -0.3155
 1572WAT     H1 4927   3.010   3.296   0.894 -0.9695 -1.0951 -0.4695
 1572WAT     H2 4928   3.050   3.441   0.912  1.0114 -1.6283 -0.3974
 1573WAT      O 4929   3.123   4.497   2.176 -0.5228  0.3022 -0.3651
 1573WAT     H1 4930   3.107   4.589   2.196 -1.4459  0.0280  0.2137
 1573WAT     H2 4931   3.203   4.476   2.225 -0.6531  0.6333 -0.0030
 1574WAT      O 4932   2.545   3.697   3.606  0.4206  0.6433  0.1342
 1574WAT     H1 4933   2.571   3.776   3.653 -0.4847  1.4223 -0.6550
 1574WAT     H2 4934   2.471   3.723   3.553 -0.9679 -1.1246  1.0739
 1575WAT      O 4935   2.080   1.660   3.158 -0.1458  0.2332 -0.5772
 1575WAT     H1 4936   1.994   1.702   3.162  0.5858  1.8386 -0.7672
 1575WAT     H2 4937   2.097   1.647   3.065  0.5133  1.5164 -0.6630
 1576WAT      O 4938   2.665   0.826   3.564  0.1185  0.4615 -0.4227
 1576WAT     H1 4939   2.624   0.857   3.484  0.1494  3.6731  0.6390
 1576WAT     H2 4940   2.752   0.868   3.565  1.1965 -1.6607  0.0568
 1577WAT      O 4941   4.211   0.916   4.599 -0.2201 -0.0287  0.0966
 1577WAT     H1 4942   4.169   0.887   4.679 -0.2172 -1.7299 -0.4697
 1577WAT     H2 4943   4.140   0.927   4.536 -0.3525  2.3403  0.5500
 1578WAT      O 4944   2.432   3.854   1.416 -0.3937 -0.1688 -0.3092
 1578WAT     H1 4945   2.367   3.840   1.485  0.4362 -0.5656  0.3988
 1578WAT     H2 4946   2.383   3.899   1.347 -1.3364 -0.1395  0.3555
 1579WAT      O 4947   3.309   4.418   1.749  0.2288  0.0315  0.0476
 1579WAT     H1 4948   3.218   4.447   1.739  0.4407  0.2075 -1.8592
 1579WAT     H2 4949   3.355   4.493   1.786 -0.6025 -0.5000  2.3177
 1580WAT      O 4950   1.923   4.627   4.132 -0.1458  0.7648  0.5050
 1580WAT     H1 4951   1.939   4.595   4.220 -1.4018  1.5194  1.0440
 1580WAT     H2 4952   1.931   4.722   4.139 -0.9050  0.8827 -0.0315
 1581WAT      O 4953   2.442   1.873   4.402 -0.0641 -0.3549 -0.2653
 1581WAT     H1 4954   2.443   1.796   4.346 -2.1105  0.1056 -1.0025
 1581WAT     H2 4955   2.478   1.943   4.348 -0.7064 -0.2267 -0.5383
 1582WAT      O 4956   3.430   1.935   0.596 -0.1812  0.3465  0.1463
 1582WAT     H1 4957   3.512   1.979   0.620 -0.9646  1.6662  0.4813
 1582WAT     H2 4958   3.370   1.958   0.667 -1.0874  0.1133 -0.5420
 1583WAT      O 4959   1.646   2.028   5.182 -0.2317  0.1297  0.5311
 1583WAT     H1 4960   1.563   1.986   5.160  0.4755 -1.0348  0.0216
 1583WAT     H2 4961   1.657   2.012   5.275  0.8782 -2.4760  0.0457
 1584WAT      O 4962   2.492   0.383   0.611 -0.0322 -0.3162 -0.3126
 1584WAT     H1 4963   2.485   0.338   0.696  0.5717  1.1613  0.5501
 1584WAT     H2 4964   2.402   0.409   0.591  0.1055  1.2409  0.9737
 1585WAT      O 4965   0.616   2.472   0.941  0.0005 -0.2477 -0.1388
 1585WAT     H1 4966   0.583   2.536   1.004 -0.1590  0.4759 -0.9336
 1585WAT     H2 4967   0.700   2.507   0.913 -0.6491  0.2861 -1.5095
 1586WAT      O 4968   1.185   4.025   4.044 -0.0473  0.1245 -0.2721
 1586WAT     H1 4969   1.131   4.100   4.068 -1.4100 -0.0766 -2.4283
 1586WAT     H2 4970   1.266   4.063   4.012  0.5608  0.4912  1.5654
 1587WAT      O 4971   0.851   0.341   0.750  0.3536 -0.5585  0.5313
 1587WAT     H1 4972   0.778   0.401   0.734  0.0537 -0.9392  0.4623
 1587WAT     H2 4973   0.809   0.258   0.773  0.7572 -1.0187 -0.3624
 1588WAT      O 4974   1.002   5.123   3.757 -0.5839  0.4177 -0.0645
 1588WAT     H1 4975   0.940   5.127   3.830  1.5691  0.1131  1.8901
 1588WAT     H2 4976   0.999   5.211   3.718 -1.0112  0.9273  1.0685
 1589WAT      O 4977   2.351   0.749   0.386 -0.0327 -0.6343  0.3527
 1589WAT     H1 4978   2.412   0.731   0.314 -0.2183  0.2295 -0.0338
 1589WAT     H2 4979   2.276   0.789   0.344 -0.2049 -0.2481  1.0195
 1590WAT      O 4980   3.886   2.004   0.286  0.3722 -0.3339 -0.0028
 1590WAT     H1 4981   3.962   2.061   0.303  1.6269 -2.2628  1.1701
 1590WAT     H2 4982   3.811   2.063   0.292  1.7044  1.5406 -0.6265
 1591WAT      O 4983   4.123   0.054   4.055 -0.2070 -0.2566 -0.1120
 1591WAT     H1 4984   4.059   0.118   4.087  1.5398  1.8207 -0.5434
 1591WAT     H2 4985   4.080   0.012   3.981 -2.7488 -2.2512  2.2737
 1592WAT      O 4986   0.800   1.981   3.363  0.4018  0.0174 -0.2670
 1592WAT     H1 4987   0.805   1.968   3.269 -0.2017 -0.9789 -0.1795
 1592WAT     H2 4988   0.786   1.893   3.399  1.1913  0.3021  0.7964
 1593WAT      O 4989   4.281   2.900   3.149  0.2348 -0.6828 -0.5479
 1593WAT     H1 4990   4.342   2.847   3.099 -0.1972  0.3389 -2.2452
 1593WAT     H2 4991   4.220   2.935   3.084  0.0969  1.3453  0.5707
 1594WAT      O 4992   2.683   1.897   0.554 -0.5134 -0.0899 -0.0247
 1594WAT     H1 4993   2.703   1.945   0.634  0.5765 -1.6891  0.7172
 1594WAT     H2 4994   2.591   1.916   0.537 -1.0103 -0.3669  2.1085
 1595WAT      O 4995   1.793   1.591   1.411 -0.3914 -0.0274 -0.0116
 1595WAT     H1 4996   1.865   1.608   1.351 -0.3244 -1.6506 -0.4227
 1595WAT     H2 4997   1.835   1.562   1.492 -0.5230  1.2471  0.5513
 1596WAT      O 4998   3.651   2.517   2.938  0.4126 -0.3685 -0.3639
 1596WAT     H1 4999   3.659   2.597   2.991  2.1822  0.4062 -1.7264
 1596WAT     H2 5000   3.569   2.530   2.890 -1.6749 -1.4268  2.5506
 1597WAT      O 5001   3.632   4.493   1.882  0.4869 -0.0427  0.2103
 1597WAT     H1 5002   3.539   4.519   1.884 -0.2871 -2.5392  0.1892
 1597WAT     H2 5003   3.677   4.561   1.932 -1.2943  1.3926 -0.0060
 1598WAT      O 5004   3.962   1.803   3.448 -0.2716 -0.5966  0.0833
 1598WAT     H1 5005   3.930   1.807   3.538  2.0812 -1.1200  1.0211
 1598WAT     H2 5006   4.002   1.716   3.440  0.8819 -0.0074 -0.9418
 1599WAT      O 5007   0.962   4.270   4.067 -0.0707 -0.4183  0.2627
 1599WAT     H1 5008   0.979   4.300   3.977  0.8014  1.8496  1.1128
 1599WAT     H2 5009   0.867   4.262   4.073 -0.2102  0.5054 -0.5496
 1600WAT      O 5010   1.658   1.930   4.069 -0.7639  0.1583 -0.0393
 1600WAT     H1 5011   1.599   1.988   4.022  0.4066  0.4136 -1.2515
 1600WAT     H2 5012   1.670   1.855   4.011 -0.3932 -0.1911  0.4719
 1601WAT      O 5013   2.406   1.409   2.477  0.6824 -0.1127  0.3229
 1601WAT     H1 5014   2.459   1.353   2.420 -0.9419 -1.3327 -0.0762
 1601WAT     H2 5015   2.354   1.461   2.416  1.7116  1.4190  0.7017
 1602WAT      O 5016   1.603   0.480   1.265  0.5895 -0.5318  0.1996
 1602WAT     H1 5017   1.616   0.574   1.280  1.2806 -0.5920  0.0234
 1602WAT     H2 5018   1.515   0.463   1.297 -0.4568  0.6295 -1.8355
 1603WAT      O 5019   3.827   3.019   0.988  0.0750  0.4626  0.4813
 1603WAT     H1 5020   3.849   3.046   0.899  0.1479  2.0313  0.9494
 1603WAT     H2 5021   3.731   3.014   0.989  0.0938 -0.0877  0.1899
 1604WAT      O 5022   0.409   4.074   3.546  0.0336  0.1891 -0.0497
 1604WAT     H1 5023   0.315   4.059   3.547 -0.0889  0.4481 -2.2451
 1604WAT     H2 5024   0.446   3.997   3.588 -1.1539  0.1864  1.0426
 1605WAT      O 5025   1.907   4.069   0.369  0.1040  0.3559 -0.2854
 1605WAT     H1 5026   1.856   4.061   0.449 -1.8250  0.6446 -1.4149
 1605WAT     H2 5027   1.887   3.988   0.320  1.8789 -0.1915 -0.1653
 1606WAT      O 5028   3.968   1.319   1.937 -0.4240 -0.1879  0.0194
 1606WAT     H1 5029   4.030   1.345   2.004 -0.6443  1.6483 -0.4389
 1606WAT     H2 5030   4.008   1.243   1.895  0.4240 -0.4219  1.1976
 1607WAT      O 5031   0.619   1.108   4.691  0.5495  0.2036  0.4364
 1607WAT     H1 5032   0.592   1.096   4.782  0.2392  0.9271  0.4414
 1607WAT     H2 5033   0.544   1.149   4.649  0.8492  0.2566 -0.0550
 1608WAT      O 5034   3.961   1.471   2.290  0.4541 -0.1385  0.1652
 1608WAT     H1 5035   3.996   1.547   2.244  0.6973 -0.4655 -0.1992
 1608WAT     H2 5036   3.868   1.470   2.269  0.6559 -0.5723 -0.7350
 1609WAT      O 5037   4.406   3.858   3.075 -0.3290  0.0007  0.2711
 1609WAT     H1 5038   4.353   3.887   3.001 -0.5603 -0.7159  0.1547
 1609WAT     H2 5039   4.494   3.845   3.040 -0.3473  0.0411  0.2112
 1610WAT      O 5040   2.444   1.714   4.161  0.2978 -0.0695 -0.4100
 1610WAT     H1 5041   2.490   1.634   4.133  0.3484  0.1291 -0.9140
 1610WAT     H2 5042   2.423   1.758   4.079 -0.7673 -0.1410 -0.1794
 1611WAT      O 5043   1.687   1.353   0.178  0.6971  0.2059  0.1485
 1611WAT     H1 5044   1.731   1.288   0.123 -0.1846  0.0109 -0.3423
 1611WAT     H2 5045   1.759   1.399   0.222  1.3331 -1.7853  1.3446
 1612WAT      O 5046   4.269   0.997   0.816 -0.1742  0.1353 -0.2451
 1612WAT     H1 5047   4.264   0.919   0.760 -2.2605 -0.8214  1.1267
 1612WAT     H2 5048   4.235   1.068   0.762  0.2141 -0.2230 -0.9833
 1613WAT      O 5049   0.162   2.150   4.114  0.4462  0.1691  0.1973
 1613WAT     H1 5050   0.219   2.213   4.070  0.3679 -0.2626 -0.5529
 1613WAT     H2 5051   0.157   2.077   4.053 -0.5218 -0.0060  0.4751
 1614WAT      O 5052   0.528   2.448   0.315 -0.5665 -0.1777  0.2625
 1614WAT     H1 5053   0.444   2.493   0.308 -0.7633 -0.2660  1.6876
 1614WAT     H2 5054   0.563   2.477   0.399  1.1043  0.2912 -0.5432
 1615WAT      O 5055   2.993   1.159   4.280 -0.0652 -0.6067 -0.0021
 1615WAT     H1 5056   3.068   1.116   4.239  0.6592 -2.4607  2.9458
 1615WAT     H2 5057   3.031   1.220   4.343 -0.8811 -2.1400  2.1180
 1616WAT      O 5058   2.449   3.851   2.892  0.0430 -0.0827 -0.0290
 1616WAT     H1 5059   2.479   3.782   2.833 -0.3102 -0.4216  0.1839
 1616WAT     H2 5060   2.360   3.871   2.863  0.0865  0.1672  0.0104
 1617WAT      O 5061   2.382   3.412   0.584  0.4058 -0.5103 -0.3116
 1617WAT     H1 5062   2.454   3.350   0.595  0.5866 -0.1069  0.9342
 1617WAT     H2 5063   2.364   3.444   0.673 -1.6018 -0.9216 -0.5176
 1618WAT      O 5064   1.943   3.073   1.815  0.1845 -0.9835 -0.0518
 1618WAT     H1 5065   1.916   3.068   1.907  1.9922 -2.6341  0.4650
 1618WAT     H2 5066   1.996   2.994   1.802  0.5104 -0.4457 -2.3507
 1619WAT      O 5067   1.578   4.093   3.212 -0.1212 -0.1578 -0.5917
 1619WAT     H1 5068   1.501   4.151   3.209  0.0054  0.0439  0.0135
 1619WAT     H2 5069   1.550   4.015   3.165 -0.3237  0.3533 -1.3486
 1620WAT      O 5070   3.523   4.452   4.904 -0.1486  0.6771  0.4401
 1620WAT     H1 5071   3.550   4.514   4.837  1.1694 -0.1177  0.2082
 1620WAT     H2 5072   3.597   4.449   4.965  0.1820 -1.2290  0.0242
 1621WAT      O 5073   4.438   3.591   3.323  0.2933 -0.1604  0.3386
 1621WAT     H1 5074   4.368   3.553   3.377 -0.8425  1.0604 -0.2457
 1621WAT     H2 5075   4.417   3.684   3.318 -0.2614 -0.3507 -3.0614
 1622WAT      O 5076   0.433   2.378   5.187  0.0421  0.1702 -0.2130
 1622WAT     H1 5077   0.339   2.380   5.169 -0.1098 -0.1644  0.4932
 1622WAT     H2 5078   0.441   2.321   5.264  0.7423  0.8501  0.2291
 1623WAT      O 5079   0.381   1.247   2.546  0.0418  0.4379  0.2963
 1623WAT     H1 5080   0.350   1.292   2.468  0.7068  0.4980  0.0566
 1623WAT     H2 5081   0.472   1.275   2.556 -0.0919  0.5814  1.2092
 1624WAT      O 5082   3.123   1.135   1.997  0.2216  0.3197 -0.3630
 1624WAT     H1 5083   3.035   1.123   1.963  0.1386 -0.2633  0.0500
 1624WAT     H2 5084   3.110   1.164   2.088  0.4513  0.4296 -0.3634
 1625WAT      O 5085   1.764   2.552   2.431  0.9010  0.2337 -0.3313
 1625WAT     H1 5086   1.788   2.644   2.445  0.1737  0.1287  1.9074
 1625WAT     H2 5087   1.688   2.556   2.372  0.0699  1.1675  0.7646
 1626WAT      O 5088   2.431   4.780   1.654  0.1357  0.0641 -0.0172
 1626WAT     H1 5089   2.367   4.759   1.723  1.2755  0.9103  1.3528
 1626WAT     H2 5090   2.380   4.777   1.573 -1.7592  1.1451  1.0603
 1627WAT      O 5091   1.181   3.251   1.260  0.5186  0.9998 -0.0799
 1627WAT     H1 5092   1.191   3.282   1.350 -2.7651 -1.7492  1.4848
 1627WAT     H2 5093   1.121   3.313   1.220 -0.1530  0.7900  0.5756
 1628WAT      O 5094   1.740   3.199   2.221 -0.3301 -0.3870  0.1217
 1628WAT     H1 5095   1.773   3.112   2.243 -1.2775 -0.7243  0.2739
 1628WAT     H2 5096   1.795   3.229   2.149 -0.2134 -1.2585 -0.1594
 1629WAT      O 5097   2.932   1.227   0.687 -0.0398  0.2309 -0.1180
 1629WAT     H1 5098   2.993   1.172   0.637 -0.6681 -0.6964  0.0990
 1629WAT     H2 5099   2.873   1.164   0.730  0.3287  1.0048  1.6033
 1630WAT      O 5100   3.740   4.362   4.401 -0.3923 -0.2514  0.6283
 1630WAT     H1 5101   3.763   4.420   4.473  0.1150 -1.4754  1.4940
 1630WAT     H2 5102   3.648   4.381   4.383 -0.1019  1.1725  0.5112
 1631WAT      O 5103   3.343   3.516   5.121 -0.2457 -0.2430 -0.1271
 1631WAT     H1 5104   3.381   3.502   5.034  0.2809  1.5754 -0.2453
 1631WAT     H2 5105   3.417   3.516   5.181 -0.0152  2.5756 -0.2607
 1632WAT      O 5106   0.524   3.824   1.091  0.0422 -0.2979 -0.3505
 1632WAT     H1 5107   0.618   3.825   1.110 -0.0964 -0.9991  0.4049
 1632WAT     H2 5108   0.503   3.731   1.083 -1.3261 -0.4468  3.3280
 1633WAT      O 5109   3.139   0.183   0.328  0.1692 -0.0957  0.3677
 1633WAT     H1 5110   3.183   0.100   0.344 -1.0031 -0.4439  2.0763
 1633WAT     H2 5111   3.057   0.159   0.286 -0.5206  0.0915  1.5542
 1634WAT      O 5112   2.081   4.290   1.996  0.3092 -0.5110 -0.3863
 1634WAT     H1 5113   1.995   4.299   2.037 -0.4215 -0.1680 -1.9094
 1634WAT     H2 5114   2.104   4.198   2.008  1.0271 -0.0515  2.4169
 1635WAT      O 5115   3.529   2.437   4.180  0.1197 -0.0684  0.0448
 1635WAT     H1 5116   3.550   2.473   4.266  0.2293 -0.2648  0.1017
 1635WAT     H2 5117   3.438   2.464   4.164 -0.1432 -0.6406  0.5417
 1636WAT      O 5118   0.639   4.819   0.123 -0.4778  0.6721  0.3118
 1636WAT     H1 5119   0.676   4.775   0.199 -0.2843  1.9126  0.9554
 1636WAT     H2 5120   0.708   4.812   0.056 -0.7075 -0.5472  0.1630
 1637WAT      O 5121   3.656   0.936   0.571  0.1766  0.5065 -0.1256
 1637WAT     H1 5122   3.660   0.859   0.627 -0.4577 -0.8141 -1.7809
 1637WAT     H2 5123   3.737   0.983   0.589  1.9494 -1.9947 -0.9697
 1638WAT      O 5124   0.659   3.332   2.680  0.5008 -0.2112  0.2584
 1638WAT     H1 5125   0.620   3.338   2.767  0.1042 -0.9367  0.1472
 1638WAT     H2 5126   0.672   3.423   2.653 -1.1071  0.0785  0.3204
 1639WAT      O 5127   1.674   0.658   0.946  0.3494 -0.0060  0.0665
 1639WAT     H1 5128   1.743   0.697   1.000  1.2237  1.2406 -1.7887
 1639WAT     H2 5129   1.690   0.696   0.859 -0.8989 -1.9681 -1.0769
 1640WAT      O 5130   4.073   2.634   0.021  0.3079 -0.3828 -0.1625
 1640WAT     H1 5131   4.083   2.613  -0.071  2.0867  1.6786 -0.5168
 1640WAT     H2 5132   4.005   2.703   0.023 -0.0912 -0.7754  0.1395
 1641WAT      O 5133   2.877   5.038   2.006  0.0304  0.3880 -0.4506
 1641WAT     H1 5134   2.863   5.034   1.911  0.1652  0.3632 -0.4707
 1641WAT     H2 5135   2.801   5.085   2.039 -0.0078  0.4151 -0.5745
 1642WAT      O 5136   3.500   0.705   4.929 -0.4212 -0.2270 -0.6249
 1642WAT     H1 5137   3.467   0.712   5.018  1.8714 -0.6197  0.3318
 1642WAT     H2 5138   3.490   0.612   4.906  0.5153 -0.4674 -0.1050
 1643WAT      O 5139   3.093   0.563   3.120 -0.5087 -0.3063 -0.1202
 1643WAT     H1 5140   3.026   0.498   3.142 -2.0393  1.3029  0.1521
 1643WAT     H2 5141   3.071   0.590   3.031  0.1342 -0.1584 -0.2356
 1644WAT      O 5142   1.767   2.531   2.045  0.1682 -0.4029  0.2920
 1644WAT     H1 5143   1.739   2.572   1.963  0.5272  0.2311  0.4721
 1644WAT     H2 5144   1.686   2.515   2.093  0.0269  0.4144  0.3530
 1645WAT      O 5145   0.623   2.613   0.107  0.4178  0.5689  0.7176
 1645WAT     H1 5146   0.565   2.570   0.169 -0.0891 -0.4827 -0.4275
 1645WAT     H2 5147   0.679   2.542   0.074 -0.8639  0.5790 -1.6998
 1646WAT      O 5148   0.930   3.672   0.594 -0.2555 -0.1841 -0.2488
 1646WAT     H1 5149   0.887   3.589   0.612 -0.1428  0.1829  1.9408
 1646WAT     H2 5150   1.020   3.660   0.624 -0.3298  0.8241  0.4128
 1647WAT      O 5151   0.926   2.181   0.918  0.3908 -0.3684  0.0733
 1647WAT     H1 5152   0.861   2.113   0.903  0.9246 -1.1019  1.0067
 1647WAT     H2 5153   0.906   2.215   1.005  0.1000  0.7244 -0.3964
 1648WAT      O 5154   1.831   3.960   2.951 -0.6439  0.3133  0.5563
 1648WAT     H1 5155   1.826   4.055   2.937 -0.7798  0.2454  0.1280
 1648WAT     H2 5156   1.743   3.936   2.980 -1.1940  0.0330 -1.2004
 1649WAT      O 5157   2.672   0.094   4.234  0.4784 -0.5987 -0.4433
 1649WAT     H1 5158   2.624   0.083   4.152 -0.4616  1.3182 -0.2028
 1649WAT     H2 5159   2.704   0.184   4.231 -0.3544 -0.1690  1.6683
 1650WAT      O 5160   4.430   0.479   4.534  0.1123 -0.4559 -0.7768
 1650WAT     H1 5161   4.473   0.541   4.475 -0.4397  1.0373  0.3327
 1650WAT     H2 5162   4.337   0.497   4.524  0.0482  0.5799  1.2985
 1651WAT      O 5163   3.717   0.979   0.159 -0.4779  0.3164 -0.4277
 1651WAT     H1 5164   3.683   0.900   0.201 -0.7351  0.7046  0.1123
 1651WAT     H2 5165   3.793   0.949   0.109 -0.9368 -0.3697 -0.7256
 1652WAT      O 5166   2.906   2.948   0.420  0.0273 -0.2459 -0.0436
 1652WAT     H1 5167   2.931   2.991   0.338  0.6800 -1.7888 -0.6973
 1652WAT     H2 5168   2.811   2.936   0.413 -0.1833  1.1373  0.2001
 1653WAT      O 5169   1.112   0.262   4.959  0.6968  0.1726  0.2012
 1653WAT     H1 5170   1.164   0.319   5.016  0.7807 -0.9902  1.3231
 1653WAT     H2 5171   1.103   0.180   5.008 -1.7506  0.1358 -0.1982
 1654WAT      O 5172   1.397   2.239   5.093  0.4979 -0.0416 -0.4539
 1654WAT     H1 5173   1.469   2.209   5.037  2.1839  0.6834  1.2027
 1654WAT     H2 5174   1.400   2.179   5.169  0.7006  1.2280  0.5735
 1655WAT      O 5175   2.508   2.012   4.163 -0.4094 -0.1775 -0.6654
 1655WAT     H1 5176   2.509   1.995   4.069  0.9147 -0.9051 -0.5476
 1655WAT     H2 5177   2.587   1.969   4.196  0.1896  1.6703  0.4981
 1656WAT      O 5178   1.611   3.875   2.149  0.4670 -0.0879  0.0080
 1656WAT     H1 5179   1.587   3.878   2.056  3.8225 -0.3998 -1.0010
 1656WAT     H2 5180   1.668   3.799   2.156  1.7364  0.9734  1.9310
 1657WAT      O 5181   3.546   2.828   1.431 -0.9362  0.0896 -0.4262
 1657WAT     H1 5182   3.545   2.853   1.339  1.0654 -0.3771 -0.6236
 1657WAT     H2 5183   3.503   2.900   1.477 -2.5255  0.0390 -1.7632
 1658WAT      O 5184   1.803   2.456   3.719 -0.0766  0.4566 -0.4308
 1658WAT     H1 5185   1.870   2.524   3.730  1.5277 -1.2441  1.0051
 1658WAT     H2 5186   1.820   2.419   3.633 -0.6243  1.4850 -0.9995
 1659WAT      O 5187   0.823   0.675   2.202 -0.1479  0.3679 -0.5164
 1659WAT     H1 5188   0.864   0.593   2.176  2.6765  1.7131 -0.6303
 1659WAT     H2 5189   0.886   0.717   2.261 -2.5976  1.3652  1.5965
 1660WAT      O 5190   2.514   3.108   2.083 -0.0982  0.2391  0.4282
 1660WAT     H1 5191   2.512   3.023   2.039  1.6160 -0.3979  1.4739
 1660WAT     H2 5192   2.519   3.171   2.011 -3.0577 -0.3458 -0.4395
 1661WAT      O 5193   0.245   2.341   1.226 -0.2585  0.6026 -0.5355
 1661WAT     H1 5194   0.215   2.251   1.215 -0.4700  0.5498  0.3614
 1661WAT     H2 5195   0.323   2.334   1.282 -1.3520  1.0928  1.1226
 1662WAT      O 5196   3.035   1.411   2.979  0.1626  0.1590  0.6002
 1662WAT     H1 5197   2.955   1.442   3.021  0.2641 -0.7159  1.4572
 1662WAT     H2 5198   3.039   1.461   2.897 -0.3178  1.5156  1.3559
 1663WAT      O 5199   3.614   2.839   1.133  0.2726  0.0292 -0.0631
 1663WAT     H1 5200   3.625   2.872   1.044  0.0887  1.4625  0.4128
 1663WAT     H2 5201   3.521   2.854   1.153  0.6342  1.1713  0.8886
 1664WAT      O 5202   3.244   0.285   1.794 -0.0967 -0.0770  0.0408
 1664WAT     H1 5203   3.177   0.349   1.770 -0.0421  0.5799  1.5072
 1664WAT     H2 5204   3.199   0.226   1.855  0.1826 -0.7018 -0.3555
 1665WAT      O 5205   2.062   0.803   4.808 -0.2514 -0.2908  0.0031
 1665WAT     H1 5206   2.145   0.850   4.817 -1.2426  1.1518  2.3707
 1665WAT     H2 5207   2.083   0.729   4.751  2.2553  0.9317 -0.8087
 1666WAT      O 5208   4.443   1.100   1.321 -0.2022  0.0499  0.5100
 1666WAT     H1 5209   4.461   1.188   1.288 -0.7873  0.2332  0.6685
 1666WAT     H2 5210   4.400   1.055   1.248  1.9489 -0.8049 -0.3347
 1667WAT      O 5211   3.527   1.836   2.351  0.4600  0.3434 -0.1697
 1667WAT     H1 5212   3.432   1.845   2.359  0.0248 -3.2444  0.3071
 1667WAT     H2 5213   3.559   1.831   2.441  0.8632 -0.2399 -0.3397
 1668WAT      O 5214   3.186   1.937   3.542  0.2767  0.1613  0.2974
 1668WAT     H1 5215   3.207   1.968   3.630 -0.4498 -0.2260  0.6181
 1668WAT     H2 5216   3.217   2.007   3.484 -0.2534  0.9371  0.9296
 1669WAT      O 5217   3.345   0.650   0.885 -0.7919 -0.8286  0.5076
 1669WAT     H1 5218   3.289   0.610   0.819 -0.5113  0.3095 -0.4444
 1669WAT     H2 5219   3.304   0.734   0.905 -0.4516 -0.8224  1.2195
 1670WAT      O 5220   1.581   3.463   5.145 -0.3483 -0.2216  0.3764
 1670WAT     H1 5221   1.517   3.509   5.199 -0.6200 -1.5090  1.1888
 1670WAT     H2 5222   1.572   3.371   5.170  0.4717 -0.6721 -0.8981
 1671WAT      O 5223   2.210   2.739   2.168 -0.0661 -0.4584 -0.1214
 1671WAT     H1 5224   2.235   2.695   2.087 -1.1453 -1.7381  0.2128
 1671WAT     H2 5225   2.115   2.727   2.174  0.0871 -1.0649  1.6980
 1672WAT      O 5226   1.771   4.488   1.539 -0.4572 -0.2786  0.0277
 1672WAT     H1 5227   1.705   4.544   1.580  1.2676  2.2571 -0.4553
 1672WAT     H2 5228   1.792   4.423   1.606  0.7244  2.4236  2.5350
 1673WAT      O 5229   1.551   2.251   1.871  0.4211 -0.3096 -0.2950
 1673WAT     H1 5230   1.642   2.222   1.877 -0.0885 -2.1006 -0.5211
 1673WAT     H2 5231   1.513   2.226   1.955  0.3850  1.4480  0.2326
 1674WAT      O 5232   1.014   2.581   1.120 -0.6506  0.2574 -0.1000
 1674WAT     H1 5233   1.101   2.569   1.081  0.1371  0.9353  1.3748
 1674WAT     H2 5234   1.022   2.544   1.208 -2.2173 -0.7204 -0.3242
 1675WAT      O 5235   2.234   2.064   2.900 -0.0340 -0.7976 -0.1309
 1675WAT     H1 5236   2.164   1.999   2.912 -1.9354  1.4004  1.8577
 1675WAT     H2 5237   2.291   2.053   2.976  0.6077 -1.2435 -0.6753
 1676WAT      O 5238   2.135   3.325   0.559 -0.8021 -0.0493 -0.1025
 1676WAT     H1 5239   2.156   3.232   0.558 -0.2605  0.0453 -1.9596
 1676WAT     H2 5240   2.220   3.369   0.567 -0.6485  0.2784 -2.7063
 1677WAT      O 5241   4.280   2.116   3.688 -0.1366  0.1698 -0.5773
 1677WAT     H1 5242   4.272   2.174   3.612 -0.2377  1.4811  0.3991
 1677WAT     H2 5243   4.190   2.094   3.711 -0.2188  1.1313  0.1301
 1678WAT      O 5244   0.595   1.099   2.833  0.2383 -0.0034 -0.4279
 1678WAT     H1 5245   0.650   1.154   2.888  0.5952 -1.4256  0.6922
 1678WAT     H2 5246   0.551   1.040   2.895 -2.3694  0.8763 -1.2781
 1679WAT      O 5247   0.958   1.611   1.696  0.2053  0.9544 -0.1600
 1679WAT     H1 5248   1.006   1.581   1.773  0.7862  0.7540 -0.5945
 1679WAT     H2 5249   0.869   1.581   1.710  0.5720 -0.1459 -0.1312
 1680WAT      O 5250   0.012   1.388   2.274 -0.6592  0.0447  0.3614
 1680WAT     H1 5251  -0.003   1.428   2.189 -1.4106 -3.0027 -1.1098
 1680WAT     H2 5252   0.104   1.362   2.273 -0.7977 -0.4614  0.2191
 1681WAT      O 5253   2.229   0.494   0.124 -0.2578  0.1626 -0.0242
 1681WAT     H1 5254   2.203   0.586   0.120  0.1831  0.2595 -0.9036
 1681WAT     H2 5255   2.298   0.486   0.059 -0.1729 -0.7597  0.1657
 1682WAT      O 5256   0.160   2.049   1.242  0.1920 -0.4795  0.2310
 1682WAT     H1 5257   0.140   2.099   1.321  0.9936  0.1228  0.0633
 1682WAT     H2 5258   0.081   2.058   1.188 -0.7183 -1.6465  1.3140
 1683WAT      O 5259   4.439   5.010   1.392  0.3299 -0.1333 -0.2484
 1683WAT     H1 5260   4.366   4.951   1.411 -0.0451 -0.1328 -1.5506
 1683WAT     H2 5261   4.506   4.954   1.353  0.8331 -0.0438  0.4642
 1684WAT      O 5262   2.264   3.733   1.599  0.0033  0.9322 -0.0100
 1684WAT     H1 5263   2.174   3.739   1.568 -0.3975 -0.5627  0.8190
 1684WAT     H2 5264   2.258   3.691   1.684  1.6244 -1.1751 -0.8387
 1685WAT      O 5265   1.993   2.801   1.062  0.2138 -0.5568  0.7241
 1685WAT     H1 5266   1.948   2.861   1.121  3.3327  0.6093  2.1133
 1685WAT     H2 5267   2.020   2.728   1.119  1.3183 -0.5113  0.2723
 1686WAT      O 5268   3.639   3.552   4.445 -0.3730 -0.0350 -0.2024
 1686WAT     H1 5269   3.683   3.479   4.400  1.0654  1.7695 -1.9113
 1686WAT     H2 5270   3.546   3.532   4.436 -0.0394 -2.3890  0.7454
 1687WAT      O 5271   4.014   0.912   0.929 -0.5025 -0.1224  0.0436
 1687WAT     H1 5272   4.100   0.954   0.930 -0.2050 -0.6904 -1.0053
 1687WAT     H2 5273   3.957   0.974   0.976  0.8573 -0.6456  2.5309
 1688WAT      O 5274   0.643   3.730   1.614 -0.2057  0.2469 -0.2904
 1688WAT     H1 5275   0.551   3.756   1.607 -0.1375  0.4102 -0.5800
 1688WAT     H2 5276   0.651   3.696   1.703 -0.1938  1.5894  0.2441
 1689WAT      O 5277   4.291   4.928   4.436 -0.3797 -0.5505 -0.3640
 1689WAT     H1 5278   4.311   5.016   4.468  1.0445 -0.5025 -1.3194
 1689WAT     H2 5279   4.221   4.897   4.494  0.8111  0.2492  1.5983
 1690WAT      O 5280   3.926   1.289   0.054  0.1656 -0.1288  0.1134
 1690WAT     H1 5281   3.955   1.375   0.084 -5.1462  1.7489  0.9120
 1690WAT     H2 5282   3.906   1.301  -0.039 -0.7984 -0.3698  0.2712
 1691WAT      O 5283   2.127   0.903   0.323 -0.0492  0.1343  0.3287
 1691WAT     H1 5284   2.052   0.849   0.348  0.2545  0.2280  1.5008
 1691WAT     H2 5285   2.101   0.943   0.240 -0.9429 -0.5165  0.2811
 1692WAT      O 5286   3.278   2.254   3.149 -0.3182 -0.1550 -0.1046
 1692WAT     H1 5287   3.294   2.255   3.054  1.3031 -1.0207  0.1272
 1692WAT     H2 5288   3.331   2.326   3.183 -0.7348  0.0206  0.1699
 1693WAT      O 5289   0.820   4.166   3.655  0.3988 -0.0571 -0.1652
 1693WAT     H1 5290   0.772   4.095   3.699 -0.1556 -0.5236 -1.4656
 1693WAT     H2 5291   0.910   4.157   3.686  0.0031 -0.2759  0.9652
 1694WAT      O 5292   3.774   3.373   3.201 -0.3560  0.0361 -0.2481
 1694WAT     H1 5293   3.766   3.468   3.201  0.3148  0.0997  0.3799
 1694WAT     H2 5294   3.756   3.348   3.110  1.4299  0.9525 -0.9059
 1695WAT      O 5295   3.251   0.588   3.869  0.3412  0.1367  0.4867
 1695WAT     H1 5296   3.261   0.576   3.775  0.1098  0.3631  0.4341
 1695WAT     H2 5297   3.247   0.499   3.904 -0.8036  0.0442  0.1556
 1696WAT      O 5298   3.398   2.874   4.312  0.2351 -0.4094 -0.2303
 1696WAT     H1 5299   3.441   2.948   4.271  0.5565 -1.0314 -1.0551
 1696WAT     H2 5300   3.384   2.812   4.240 -1.0045 -0.7018  0.2319
 1697WAT      O 5301   0.800   1.677   2.389 -0.1128 -0.5183 -0.0046
 1697WAT     H1 5302   0.792   1.608   2.323  0.6609 -1.1280  0.5217
 1697WAT     H2 5303   0.710   1.694   2.416 -0.2694 -1.9068  0.4382
 1698WAT      O 5304   3.509   4.332   0.521  0.3722 -0.3027  0.2885
 1698WAT     H1 5305   3.416   4.318   0.540  0.4510  0.8811  1.7454
 1698WAT     H2 5306   3.546   4.243   0.518 -0.9373 -0.8457 -1.2706
 1699WAT      O 5307   1.046   2.314   1.864 -0.0873  0.0352 -0.1369
 1699WAT     H1 5308   1.033   2.268   1.781  2.4290 -0.3424 -0.3888
 1699WAT     H2 5309   1.034   2.406   1.842 -0.8329 -0.1578 -0.5846
 1700WAT      O 5310   0.338   4.474   3.908  0.3320  0.0125 -0.1207
 1700WAT     H1 5311   0.268   4.533   3.935  1.0436  0.0696  1.7564
 1700WAT     H2 5312   0.418   4.524   3.922  0.8916 -1.0258  0.4777
 1701WAT      O 5313   4.194   0.389   2.921 -0.4044  0.0944  0.0599
 1701WAT     H1 5314   4.267   0.397   2.983  0.8488  1.2606 -1.4848
 1701WAT     H2 5315   4.133   0.329   2.964  1.4074 -0.8626  1.4601
 1702WAT      O 5316   0.787   1.936   0.428  0.4054 -0.3637 -0.5481
 1702WAT     H1 5317   0.813   1.967   0.341  2.5627  0.0099  0.1638
 1702WAT     H2 5318   0.765   2.015   0.477 -1.3686 -0.6153 -0.8742
 1703WAT      O 5319   3.115   4.215   2.825 -0.1682 -0.2116 -0.1695
 1703WAT     H1 5320   3.081   4.304   2.814  0.7239  0.1772  0.1369
 1703WAT     H2 5321   3.036   4.161   2.834 -0.7573  0.3735 -1.4824
 1704WAT      O 5322   4.169   1.573   1.429 -0.7026  0.3081 -0.1281
 1704WAT     H1 5323   4.159   1.592   1.523 -0.2470  0.8866 -0.1883
 1704WAT     H2 5324   4.250   1.523   1.424 -0.4948  0.6507 -0.2534
 1705WAT      O 5325   0.017   4.881   2.005 -0.2978  0.1886  0.4590
 1705WAT     H1 5326  -0.067   4.888   2.051 -0.6299  0.6293 -0.1862
 1705WAT     H2 5327  -0.007   4.875   1.913  0.3324 -1.2737  0.3605
 1706WAT      O 5328   3.522   0.697   4.596 -0.2831  0.7294 -0.0283
 1706WAT     H1 5329   3.580   0.771   4.578 -0.4190  0.6789 -0.7014
 1706WAT     H2 5330   3.435   0.737   4.603 -0.5565  0.5002 -1.6997
 1707WAT      O 5331   0.961   2.644   1.869 -0.5103  0.6644  0.0075
 1707WAT     H1 5332   1.006   2.635   1.954 -0.7405  0.3133  0.0943
 1707WAT     H2 5333   0.868   2.649   1.892 -0.5774  0.4981 -0.2321
 1708WAT      O 5334   2.303   0.421   4.661 -0.2993 -0.1862  0.3530
 1708WAT     H1 5335   2.367   0.350   4.666 -0.7435 -0.5221  1.6537
 1708WAT     H2 5336   2.348   0.497   4.697 -0.3209 -0.1905  0.3894
 1709WAT      O 5337   2.008   2.726   5.173  0.5698  0.0435  0.3021
 1709WAT     H1 5338   2.095   2.735   5.134 -0.9674  0.4777 -3.3591
 1709WAT     H2 5339   1.974   2.816   5.175 -0.1405 -0.2296  0.9206
 1710WAT      O 5340   2.267   0.104   1.089  0.6545  0.3882  0.3200
 1710WAT     H1 5341   2.231   0.046   1.156 -1.1281  1.3703  0.2873
 1710WAT     H2 5342   2.299   0.046   1.021  1.6904 -0.6112  1.6033
 1711WAT      O 5343   1.445   3.550   2.433  0.1247 -0.8357 -0.4799
 1711WAT     H1 5344   1.527   3.513   2.402  0.6695  1.0584 -1.4592
 1711WAT     H2 5345   1.393   3.563   2.353  0.7218  2.1881 -0.5163
 1712WAT      O 5346   2.624   0.663   0.737 -0.3633  0.3727 -0.0742
 1712WAT     H1 5347   2.593   0.736   0.682 -0.1736 -0.5189 -1.3951
 1712WAT     H2 5348   2.575   0.587   0.706  2.7940 -1.0463 -2.0292
 1713WAT      O 5349   0.716   4.155   4.763  0.7952  0.2620 -0.4140
 1713WAT     H1 5350   0.639   4.167   4.707 -0.4571  0.6077  1.2874
 1713WAT     H2 5351   0.768   4.234   4.750 -0.6182  1.4169  0.5307
 1714WAT      O 5352   3.282   1.772   5.229 -0.5925  0.6519  0.3403
 1714WAT     H1 5353   3.280   1.781   5.324  1.1954  3.4126  0.2116
 1714WAT     H2 5354   3.374   1.781   5.206 -0.9974  0.0492 -1.6905
 1715WAT      O 5355   0.544   2.981   3.402 -0.1980  0.1664  0.8187
 1715WAT     H1 5356   0.599   2.968   3.325 -1.6755  2.2330 -0.6965
 1715WAT     H2 5357   0.516   3.072   3.397 -3.5239 -0.6489  1.6174
 1716WAT      O 5358   4.051   4.036   3.971 -0.6697 -0.3229 -0.6553
 1716WAT     H1 5359   4.072   4.128   3.985  0.9492 -0.7671  0.0373
 1716WAT     H2 5360   3.958   4.036   3.948 -1.2314  1.3108  1.3241
 1717WAT      O 5361   1.839   1.917   4.387 -0.4372  0.7430  0.1758
 1717WAT     H1 5362   1.829   1.875   4.473 -0.0317  1.2153  0.4594
 1717WAT     H2 5363   1.757   1.965   4.374  0.0431  1.8262  0.9545
 1718WAT      O 5364   3.672   2.454   3.265 -0.2045 -0.2750  0.2997
 1718WAT     H1 5365   3.669   2.362   3.290 -0.0074  0.2118  2.2854
 1718WAT     H2 5366   3.765   2.476   3.264 -0.2217 -0.1949 -0.6451
 1719WAT      O 5367   3.819   2.731   0.580 -0.0786 -0.3946 -0.5652
 1719WAT     H1 5368   3.774   2.807   0.542  0.4754  1.2670  1.8330
 1719WAT     H2 5369   3.912   2.757   0.581 -0.1707  0.1717  2.7361
 1720WAT      O 5370   1.319   3.348   0.482  0.5029  0.1777  0.0018
 1720WAT     H1 5371   1.226   3.329   0.490  0.0789 -0.2650 -3.9156
 1720WAT     H2 5372   1.324   3.443   0.473  0.2343  0.1093 -1.0124
 1721WAT      O 5373   4.432   4.803   4.037 -0.1647  0.5150  0.0044
 1721WAT     H1 5374   4.342   4.771   4.025  0.1660 -0.4367 -0.0597
 1721WAT     H2 5375   4.422   4.896   4.054 -1.1759  0.4021  0.1143
 1722WAT      O 5376   3.597   0.085   2.774 -0.4806 -0.2132  0.2701
 1722WAT     H1 5377   3.688   0.061   2.790  0.0291  0.3265 -1.5724
 1722WAT     H2 5378   3.550   0.002   2.778  0.7971 -1.2521 -3.0924
 1723WAT      O 5379   3.135   4.818   5.155 -0.2042  0.3962  0.0893
 1723WAT     H1 5380   3.120   4.909   5.182  1.4636  0.5894  0.4844
 1723WAT     H2 5381   3.131   4.768   5.236  1.3344  0.4910  0.2562
 1724WAT      O 5382   0.021   0.072   1.085  0.2345 -0.2072  0.1332
 1724WAT     H1 5383  -0.011   0.162   1.087 -0.5216 -0.4686  0.4057
 1724WAT     H2 5384   0.005   0.040   1.174  0.0895 -0.7439 -0.0818
 1725WAT      O 5385   3.381   2.647   1.552 -0.1344  0.1488 -0.2680
 1725WAT     H1 5386   3.384   2.555   1.527  2.3332 -0.0222  0.3849
 1725WAT     H2 5387   3.448   2.689   1.498 -0.6458  1.4050  0.0368
 1726WAT      O 5388   3.643   3.647   2.992 -0.1148 -0.5268 -0.2861
 1726WAT     H1 5389   3.633   3.559   2.955 -0.5471 -0.8439  0.5669
 1726WAT     H2 5390   3.599   3.705   2.929  2.3051 -0.5615 -2.1748
 1727WAT      O 5391   2.227   0.405   3.021  1.0057  0.0112 -0.2557
 1727WAT     H1 5392   2.239   0.399   3.116  1.1187  0.1509 -0.2613
 1727WAT     H2 5393   2.199   0.495   3.006  2.6435  0.5024 -0.5284
 1728WAT      O 5394   0.307   0.134   3.889 -0.3353  0.1926 -0.2542
 1728WAT     H1 5395   0.401   0.124   3.905 -0.3596 -0.0536 -0.2495
 1728WAT     H2 5396   0.274   0.181   3.965 -0.1280  0.7435 -0.5052
 1729WAT      O 5397   4.332   0.818   0.229 -1.0916 -0.4213  0.2205
 1729WAT     H1 5398   4.302   0.731   0.202 -1.2334 -0.5260  0.7208
 1729WAT     H2 5399   4.423   0.822   0.198 -0.5183 -1.4018  1.6715
 1730WAT      O 5400   3.304   3.435   3.065  0.3357  0.7008 -0.0798
 1730WAT     H1 5401   3.382   3.440   3.009  0.3053  0.0449 -0.1938
 1730WAT     H2 5402   3.337   3.403   3.149 -0.1770 -2.7411 -1.0321
 1731WAT      O 5403   2.024   2.159   0.507 -0.2289 -0.2426 -0.1846
 1731WAT     H1 5404   1.947   2.106   0.483  0.2421 -0.5114 -1.1461
 1731WAT     H2 5405   2.048   2.203   0.426 -0.1843  0.9139  0.4416
 1732WAT      O 5406   1.884   2.044   2.231  0.6472 -0.0906  0.4600
 1732WAT     H1 5407   1.840   2.126   2.255  1.5426  0.7545 -0.6507
 1732WAT     H2 5408   1.816   1.977   2.239 -0.5108  0.9814  0.0043
 1733WAT      O 5409   2.596   4.960   2.385  0.2129 -0.0589  0.2731
 1733WAT     H1 5410   2.527   5.012   2.427  0.1731 -0.7257  1.0590
 1733WAT     H2 5411   2.559   4.873   2.377  1.0088 -0.4603  0.8345
 1734WAT      O 5412   3.995   4.796   5.157 -0.0349  0.4046  0.2046
 1734WAT     H1 5413   4.088   4.819   5.163 -0.7072  3.1391  1.7922
 1734WAT     H2 5414   3.988   4.715   5.207  1.6224 -0.5865 -1.0125
 1735WAT      O 5415   2.919   0.343   3.155  0.2344  0.0104  0.0328
 1735WAT     H1 5416   2.930   0.275   3.088  0.3713  0.7281 -0.6894
 1735WAT     H2 5417   2.824   0.348   3.167 -0.0196  1.6680 -2.0464
 1736WAT      O 5418   0.808   1.727   1.955  0.1023 -0.1006 -0.4069
 1736WAT     H1 5419   0.750   1.704   1.882  0.8635  0.4455 -1.2069
 1736WAT     H2 5420   0.858   1.801   1.922  0.9779 -0.3169  0.4163
 1737WAT      O 5421   4.516   2.777   3.689 -0.1520  0.0330  0.1587
 1737WAT     H1 5422   4.450   2.737   3.633 -0.1574 -0.7548  0.7157
 1737WAT     H2 5423   4.522   2.719   3.765  1.0477  0.1744  0.2010
 1738WAT      O 5424   0.647   2.931   4.039  0.1761 -0.3885 -0.0330
 1738WAT     H1 5425   0.601   3.003   3.995 -0.0770 -1.2447 -1.2477
 1738WAT     H2 5426   0.674   2.873   3.967 -0.1828 -1.8179  0.9330
 1739WAT      O 5427   2.288   3.580   1.290 -0.8089  0.3676  0.5794
 1739WAT     H1 5428   2.304   3.675   1.292 -3.5525  0.9236  0.2971
 1739WAT     H2 5429   2.226   3.568   1.219 -1.0867 -1.5703  1.1026
 1740WAT      O 5430   1.447   4.561   1.376 -0.2481  0.3181  0.1922
 1740WAT     H1 5431   1.537   4.584   1.396 -0.1949 -0.0768  0.4352
 1740WAT     H2 5432   1.419   4.509   1.451 -0.5315  0.0591 -0.0883
 1741WAT      O 5433   0.538   4.927   4.620  0.1482 -0.2145  0.7239
 1741WAT     H1 5434   0.599   4.994   4.590  0.4417 -0.3829  0.9401
 1741WAT     H2 5435   0.461   4.938   4.564  0.3786 -0.0087  0.4442
 1742WAT      O 5436   2.628   1.829   0.834 -0.1668  0.5794  0.3862
 1742WAT     H1 5437   2.533   1.831   0.851 -0.0562 -0.5119  1.2105
 1742WAT     H2 5438   2.651   1.920   0.818 -1.1752  1.0001  1.2105
 1743WAT      O 5439   0.820   0.269   3.038  0.2192  0.3963 -0.0743
 1743WAT     H1 5440   0.809   0.243   2.947 -0.8439  0.2394  0.0823
 1743WAT     H2 5441   0.737   0.312   3.061  0.1265 -0.3581  1.0769
 1744WAT      O 5442   2.471   3.014   2.327 -0.1337  0.3342  0.1860
 1744WAT     H1 5443   2.521   3.090   2.357 -2.6216  2.1808 -0.0884
 1744WAT     H2 5444   2.441   3.037   2.239  0.0829 -1.5148 -0.4158
 1745WAT      O 5445   0.881   2.782   4.616  0.2954  0.5417  0.2238
 1745WAT     H1 5446   0.891   2.862   4.667  0.3160  1.0972 -0.6334
 1745WAT     H2 5447   0.969   2.759   4.588  0.5823 -0.9626  2.1813
 1746WAT      O 5448   2.627   4.566   0.670 -0.1070 -0.6011  0.1662
 1746WAT     H1 5449   2.668   4.486   0.701  0.9315  1.2800  4.3370
 1746WAT     H2 5450   2.697   4.631   0.670 -1.2024  0.7170 -1.7531
 1747WAT      O 5451   2.830   1.662   2.796  0.0065  0.1613  0.0724
 1747WAT     H1 5452   2.777   1.585   2.772  1.1869 -0.7018  0.1209
 1747WAT     H2 5453   2.915   1.644   2.757  0.7293  0.7490  1.3330
 1748WAT      O 5454   2.015   1.303   4.497  0.1173  0.2764  0.5933
 1748WAT     H1 5455   1.987   1.340   4.413 -0.2930 -1.3343 -0.0088
 1748WAT     H2 5456   2.049   1.216   4.475 -1.7402 -0.9683  2.3022
 1749WAT      O 5457   3.420   3.246   2.584  0.0968 -0.3663  0.6054
 1749WAT     H1 5458   3.360   3.252   2.510  0.6553  1.4537  0.2622
 1749WAT     H2 5459   3.365   3.261   2.661 -0.2948 -1.1827  0.4965
 1750WAT      O 5460   3.597   4.622   1.080 -0.2554 -0.1720 -0.7897
 1750WAT     H1 5461   3.658   4.625   1.007 -0.3597  0.4764 -0.8575
 1750WAT     H2 5462   3.638   4.563   1.143  0.5979  0.4760 -0.7073
 1751WAT      O 5463   0.988   3.153   2.641  0.4077 -0.6290 -0.2216
 1751WAT     H1 5464   1.033   3.106   2.711 -1.8833 -0.5498  1.3817
 1751WAT     H2 5465   1.049   3.224   2.617  2.2372 -2.0656 -0.0206
 1752WAT      O 5466   3.648   1.735   2.123 -0.0263  0.2182  0.0176
 1752WAT     H1 5467   3.631   1.770   2.211  0.6236  1.0532 -0.1784
 1752WAT     H2 5468   3.577   1.771   2.069  0.6490  1.2819 -0.1873
 1753WAT      O 5469   3.928   4.477   0.844 -0.0239 -0.0703  0.6148
 1753WAT     H1 5470   3.885   4.556   0.875 -0.3781 -0.8344  2.1541
 1753WAT     H2 5471   3.890   4.461   0.758 -1.4681  0.2977  1.1568
 1754WAT      O 5472   4.034   3.953   4.226 -0.2033 -0.0436  0.6416
 1754WAT     H1 5473   4.042   4.006   4.146 -0.0201  1.1142  1.3993
 1754WAT     H2 5474   3.998   3.870   4.196 -1.1754  0.7476 -0.5111
 1755WAT      O 5475   0.657   1.225   5.177 -0.6774  0.5490 -0.3295
 1755WAT     H1 5476   0.679   1.198   5.266 -0.3811 -0.4214 -0.6902
 1755WAT     H2 5477   0.701   1.309   5.166 -0.2029  0.3800  0.2340
 1756WAT      O 5478   3.926   2.807   2.845  0.9117  0.9016  0.1119
 1756WAT     H1 5479   3.967   2.836   2.764  1.9088 -1.1419 -0.1603
 1756WAT     H2 5480   3.930   2.712   2.842  2.0693  0.7590  3.1040
 1757WAT      O 5481   3.503   1.650   4.403  0.2031 -0.2809  0.3797
 1757WAT     H1 5482   3.543   1.714   4.345  0.6250  1.0580  2.0650
 1757WAT     H2 5483   3.447   1.701   4.461 -1.4167 -1.7406  0.2122
 1758WAT      O 5484   1.342   0.336   3.339 -0.1828  0.3584  0.5968
 1758WAT     H1 5485   1.359   0.269   3.272 -0.1057  2.0182 -1.1406
 1758WAT     H2 5486   1.336   0.287   3.421 -0.1253 -1.7622 -0.5862
 1759WAT      O 5487   4.494   2.377   4.162 -0.1670  0.0484  0.0727
 1759WAT     H1 5488   4.430   2.306   4.168  0.6664 -0.5859  2.3082
 1759WAT     H2 5489   4.561   2.354   4.226  1.1160  1.8861 -0.5518
 1760WAT      O 5490   2.235   4.028   2.494  0.4968 -0.7309  0.1005
 1760WAT     H1 5491   2.320   4.051   2.531  0.5440 -0.3535 -0.2451
 1760WAT     H2 5492   2.247   4.032   2.400 -0.4511  1.4553  0.0105
 1761WAT      O 5493   2.995   0.134   1.942 -0.1078  0.9880 -0.0129
 1761WAT     H1 5494   2.945   0.057   1.970 -0.2805  0.5566 -1.4410
 1761WAT     H2 5495   3.015   0.180   2.024  0.4457 -0.8288  0.9311
 1762WAT      O 5496   1.430   3.107   2.532 -0.2903  0.4899 -0.5827
 1762WAT     H1 5497   1.466   3.070   2.612 -0.3059  1.2243 -0.2204
 1762WAT     H2 5498   1.404   3.031   2.480  2.5706 -0.1179 -1.2810
 1763WAT      O 5499   1.282   3.926   5.226  0.1667  0.0939  0.1009
 1763WAT     H1 5500   1.250   3.973   5.149 -0.6171 -0.0673  0.3249
 1763WAT     H2 5501   1.253   3.835   5.212 -1.4677  0.3686  1.3664
 1764WAT      O 5502   0.836   0.921   4.349 -0.0691  0.2677 -0.8914
 1764WAT     H1 5503   0.824   0.856   4.419  0.3821  1.6802  0.5807
 1764WAT     H2 5504   0.862   0.870   4.273  0.0555 -1.2975  0.1512
 1765WAT      O 5505   1.499   4.416   4.543 -0.0567 -0.5228  0.7379
 1765WAT     H1 5506   1.433   4.349   4.528  1.1357 -1.8012  0.9197
 1765WAT     H2 5507   1.582   4.368   4.545  0.9439  1.0638  0.0291
 1766WAT      O 5508   0.586   2.563   3.005  0.4348  0.0131 -0.0730
 1766WAT     H1 5509   0.591   2.556   3.101  1.3828 -0.6878 -0.1608
 1766WAT     H2 5510   0.523   2.633   2.990 -0.3240 -0.3998  1.0557
 1767WAT      O 5511   2.226   4.878   4.139 -0.0896  0.3723  0.5617
 1767WAT     H1 5512   2.275   4.834   4.069 -0.3592 -0.2291  0.7484
 1767WAT     H2 5513   2.294   4.915   4.195  0.1804 -0.8748  1.0886
 1768WAT      O 5514   2.233   1.995   4.576 -0.4162  0.7929 -0.3492
 1768WAT     H1 5515   2.298   2.042   4.629  1.3592  0.9818 -2.5734
 1768WAT     H2 5516   2.151   2.010   4.622  0.9536  1.2080  2.1570
 1769WAT      O 5517   1.617   4.992   4.528  0.3602  0.1062 -0.0922
 1769WAT     H1 5518   1.713   4.992   4.527  0.5469 -1.7882  3.0908
 1769WAT     H2 5519   1.594   5.042   4.606 -1.2017 -0.0224 -0.4509
 1770WAT      O 5520   2.504   1.486   3.995 -0.0420  0.1344  0.9830
 1770WAT     H1 5521   2.595   1.457   3.987  0.0267  0.3569  0.9615
 1770WAT     H2 5522   2.479   1.510   3.906  0.0772  0.6691  1.0923
 1771WAT      O 5523   1.033   1.922   4.652 -0.3357 -0.2911 -0.2967
 1771WAT     H1 5524   1.100   1.984   4.625 -0.6330  1.0700  1.8374
 1771WAT     H2 5525   0.951   1.959   4.619 -0.6102  0.9825  1.6347
 1772WAT      O 5526   0.454   2.075   1.862 -0.3215  0.4805 -0.4864
 1772WAT     H1 5527   0.508   2.123   1.799 -0.0858  1.4727  0.4586
 1772WAT     H2 5528   0.508   2.067   1.940 -0.8548 -0.1593 -0.1657
 1773WAT      O 5529   0.453   4.963   2.451 -0.6813  0.0028  0.6271
 1773WAT     H1 5530   0.438   4.957   2.545 -0.1438 -1.0712  0.6616
 1773WAT     H2 5531   0.544   4.934   2.440 -0.7045  0.2283 -0.2151
 1774WAT      O 5532   2.173   0.731   0.823  0.2553  0.6114  0.3428
 1774WAT     H1 5533   2.138   0.695   0.904 -0.3104  0.5582  0.0804
 1774WAT     H2 5534   2.261   0.760   0.846  0.5575 -0.5274  0.6643
 1775WAT      O 5535   1.312   0.044   1.106 -0.0058  0.0163 -0.2336
 1775WAT     H1 5536   1.317  -0.050   1.120 -1.1973  0.1282  1.2392
 1775WAT     H2 5537   1.221   0.066   1.125  0.8070  1.8170  2.0527
 1776WAT      O 5538   0.743   3.809   3.103 -0.1192 -0.2889 -0.2735
 1776WAT     H1 5539   0.724   3.719   3.125 -1.3426  0.0094 -0.0550
 1776WAT     H2 5540   0.839   3.813   3.098 -0.0232 -1.3986  0.4804
 1777WAT      O 5541   1.514   5.062   0.114  0.0132 -0.1887  0.0739
 1777WAT     H1 5542   1.501   4.986   0.057 -1.1750 -0.8109  1.1353
 1777WAT     H2 5543   1.596   5.044   0.160  0.2933 -0.3015 -0.4545
 1778WAT      O 5544   0.194   2.870   2.058  0.6099 -0.1481 -0.2574
 1778WAT     H1 5545   0.167   2.805   2.123  2.1930 -1.5875 -0.9615
 1778WAT     H2 5546   0.125   2.867   1.991 -0.1710  0.1345  0.5099
 1779WAT      O 5547   0.502   1.967   0.650 -0.5553  0.2368  0.5494
 1779WAT     H1 5548   0.411   1.998   0.648 -1.0814 -1.1855  1.1956
 1779WAT     H2 5549   0.536   1.990   0.563 -1.7241  0.2451  0.0702
 1780WAT      O 5550   0.964   1.425   0.575 -0.0945  0.3873  0.1813
 1780WAT     H1 5551   0.939   1.516   0.558 -2.2898  0.4515  2.9003
 1780WAT     H2 5552   1.035   1.432   0.639 -0.2248  0.2194  0.3460
 1781WAT      O 5553   0.549   1.730   3.558  0.5623 -0.2171  0.5095
 1781WAT     H1 5554   0.497   1.658   3.522 -0.6030  1.1829 -0.7242
 1781WAT     H2 5555   0.633   1.724   3.513 -0.6052  1.0379 -2.0083
 1782WAT      O 5556   3.598   5.071   3.122  0.1868 -0.6913  0.4961
 1782WAT     H1 5557   3.644   5.128   3.061 -2.0670  0.5396 -0.1515
 1782WAT     H2 5558   3.617   5.108   3.208 -1.0940  0.9955  0.0938
 1783WAT      O 5559   0.228   2.954   2.538 -0.1327 -0.0713 -0.0533
 1783WAT     H1 5560   0.179   3.001   2.605  0.2653 -1.2989  1.1538
 1783WAT     H2 5561   0.241   3.018   2.468 -1.5803  0.9011  0.5200
 1784WAT      O 5562   2.335   4.149   3.229 -0.2869  0.8688  0.3337
 1784WAT     H1 5563   2.345   4.103   3.312  2.2306 -0.1977 -0.4637
 1784WAT     H2 5564   2.366   4.086   3.163 -0.8710  2.1864 -1.2664
 1785WAT      O 5565   2.964   2.536   3.174  0.0153 -1.0491  0.4292
 1785WAT     H1 5566   3.050   2.544   3.132 -0.0455 -0.0827  0.4749
 1785WAT     H2 5567   2.965   2.449   3.213  1.3051 -0.7617  1.1094
 1786WAT      O 5568   3.931   1.937   0.608 -0.4305 -0.1674 -0.1408
 1786WAT     H1 5569   3.956   2.028   0.625 -0.7425 -0.4108  1.9369
 1786WAT     H2 5570   3.900   1.937   0.517 -0.3951  1.7890 -0.1978
 1787WAT      O 5571   1.310   1.569   2.909  0.3094  0.4819  0.0626
 1787WAT     H1 5572   1.303   1.474   2.897  0.2552  0.4242  0.5299
 1787WAT     H2 5573   1.345   1.579   2.998  0.2998  0.9003  0.0205
 1788WAT      O 5574   2.073   0.327   3.417  0.5309 -0.3829  0.0048
 1788WAT     H1 5575   2.055   0.278   3.496 -2.2095  1.1765  0.4678
 1788WAT     H2 5576   2.020   0.285   3.349 -0.5424  0.8540  0.0368
 1789WAT      O 5577   3.440   2.870   3.108  0.2404  0.2397  0.2477
 1789WAT     H1 5578   3.504   2.860   3.037  0.3957  0.5829  0.3362
 1789WAT     H2 5579   3.463   2.802   3.171  0.5859  0.4287  0.3283
 1790WAT      O 5580   4.182   1.331   3.767 -0.4340 -0.1640 -0.7582
 1790WAT     H1 5581   4.100   1.379   3.779 -2.1535 -3.3146  1.6826
 1790WAT     H2 5582   4.248   1.399   3.756 -3.0168  2.6014 -0.5391
 1791WAT      O 5583   1.957   2.003   1.187 -0.2400 -0.1303  0.4533
 1791WAT     H1 5584   1.874   1.970   1.221 -0.9911  1.1098 -0.1117
 1791WAT     H2 5585   1.997   1.927   1.144 -1.9746 -0.3361 -0.9215
 1792WAT      O 5586   0.687   3.914   3.749  0.5102 -0.1553 -0.2763
 1792WAT     H1 5587   0.655   3.916   3.659  1.8948  0.5684 -0.7798
 1792WAT     H2 5588   0.736   3.832   3.756  0.6081 -0.0968 -0.2661
 1793WAT      O 5589   0.233   2.718   5.132  0.1786  0.0897  0.3239
 1793WAT     H1 5590   0.254   2.757   5.218 -0.4370 -1.0076  0.9930
 1793WAT     H2 5591   0.318   2.691   5.097  0.3090 -0.8036  1.2736
 1794WAT      O 5592   3.306   3.237   3.992  0.6516 -0.7778  0.0803
 1794WAT     H1 5593   3.317   3.320   3.946  1.2238 -1.2791 -0.7113
 1794WAT     H2 5594   3.212   3.217   3.984  0.7796 -0.9801 -1.1171
 1795WAT      O 5595   0.018   4.574   5.130  0.1802  0.2901  0.2886
 1795WAT     H1 5596  -0.035   4.619   5.196  0.0557  2.4569 -1.1727
 1795WAT     H2 5597   0.103   4.562   5.171 -0.0924  0.9851  1.0784
 1796WAT      O 5598   2.607   2.767   1.014 -0.1613  0.2586 -0.2574
 1796WAT     H1 5599   2.530   2.722   1.051  0.3651 -0.4441  0.0131
 1796WAT     H2 5600   2.570   2.825   0.947 -0.9597  0.1817  0.0988
 1797WAT      O 5601   3.490   3.066   3.878 -0.2801  0.0458  0.1473
 1797WAT     H1 5602   3.431   3.133   3.912 -1.5323 -1.0514  0.2102
 1797WAT     H2 5603   3.472   2.988   3.932 -0.6631 -1.0552 -1.4877
 1798WAT      O 5604   2.414   0.822   0.937  0.6905 -0.0283 -0.2933
 1798WAT     H1 5605   2.445   0.736   0.907 -0.4104 -0.4477 -0.2666
 1798WAT     H2 5606   2.456   0.834   1.022  0.0210 -1.0277  0.1902
 1799WAT      O 5607   2.901   1.296   4.892  0.0084  0.0544  0.1386
 1799WAT     H1 5608   2.940   1.306   4.979  1.2715  2.6483 -0.6321
 1799WAT     H2 5609   2.976   1.287   4.833 -0.7382  0.3678 -0.8832
 1800WAT      O 5610   0.801   2.294   4.344 -0.4650  0.2842  0.4224
 1800WAT     H1 5611   0.712   2.316   4.372 -0.1881  1.1777  0.6531
 1800WAT     H2 5612   0.790   2.253   4.259 -1.2312 -1.3932  1.2977
 1801WAT      O 5613   1.251   3.268   3.672 -0.0517 -0.2573 -0.5456
 1801WAT     H1 5614   1.175   3.251   3.616 -0.0665 -0.4043 -0.4820
 1801WAT     H2 5615   1.325   3.274   3.611  0.1054 -1.4933 -0.5044
 1802WAT      O 5616   0.444   0.338   5.193  0.0701 -0.7354 -0.7498
 1802WAT     H1 5617   0.469   0.262   5.245  0.4690 -0.2254 -0.1729
 1802WAT     H2 5618   0.382   0.304   5.129 -0.1828 -1.4481 -0.1464
 1803WAT      O 5619   3.535   0.864   3.854  0.2001 -0.6333 -0.3748
 1803WAT     H1 5620   3.533   0.769   3.863 -0.4764 -0.5887  0.0582
 1803WAT     H2 5621   3.618   0.883   3.811  0.7766 -1.3430  0.4027
 1804WAT      O 5622   2.338   3.710   3.441  0.8916 -0.0954 -0.3263
 1804WAT     H1 5623   2.268   3.725   3.505  0.6340 -1.4822 -0.2571
 1804WAT     H2 5624   2.315   3.627   3.399  1.3178  0.5584 -1.8972
 1805WAT      O 5625   3.033   4.432   5.218 -0.0204 -0.1796  0.1972
 1805WAT     H1 5626   2.977   4.356   5.231  1.4014 -1.4340 -0.6355
 1805WAT     H2 5627   3.096   4.404   5.152 -0.1737  2.1432 -1.0369
 1806WAT      O 5628   1.891   1.504   1.675 -0.2530 -0.1802 -0.1233
 1806WAT     H1 5629   1.979   1.526   1.705  0.5655 -1.9493 -1.0715
 1806WAT     H2 5630   1.883   1.410   1.692 -1.9934 -0.0454 -0.0214
 1807WAT      O 5631   2.421   3.767   1.865  0.2425  0.0952  0.5143
 1807WAT     H1 5632   2.397   3.727   1.948 -1.7911 -0.7119 -0.3833
 1807WAT     H2 5633   2.385   3.707   1.799  0.4440  1.4933 -0.9142
 1808WAT      O 5634   1.051   0.021   5.093 -0.1151 -0.4820 -0.2381
 1808WAT     H1 5635   0.971  -0.017   5.130 -0.9357  0.0874 -1.3582
 1808WAT     H2 5636   1.101   0.050   5.169 -0.3639 -2.0172  0.5431
 1809WAT      O 5637   4.360   3.518   0.173  0.0021  0.0990  0.4795
 1809WAT     H1 5638   4.265   3.528   0.166 -0.1376  2.1157  3.5041
 1809WAT     H2 5639   4.373   3.454   0.242  0.9780 -1.9034 -1.4243
 1810WAT      O 5640   0.117   3.894   4.909  0.1301 -0.8959  0.0614
 1810WAT     H1 5641   0.205   3.930   4.915  0.3183 -1.3145 -0.0889
 1810WAT     H2 5642   0.125   3.805   4.945 -0.5006 -0.5135  1.2105
 1811WAT      O 5643   0.356   0.088   0.597  0.0674  0.4837 -0.3199
 1811WAT     H1 5644   0.431   0.148   0.599  0.3924  0.0975 -0.7563
 1811WAT     H2 5645   0.286   0.139   0.556  0.0814  0.8518  0.1024
 1812WAT      O 5646   3.573   0.684   1.792  0.3936 -0.4309  0.2061
 1812WAT     H1 5647   3.520   0.760   1.769  0.3468 -0.8331 -1.0726
 1812WAT     H2 5648   3.510   0.619   1.824  0.3945 -0.0752  0.9492
 1813WAT      O 5649   2.298   4.770   4.532  0.2010  0.6573  0.0534
 1813WAT     H1 5650   2.301   4.682   4.495 -2.7041  0.9998 -1.3281
 1813WAT     H2 5651   2.390   4.794   4.545  1.1795 -1.6111 -1.8799
 1814WAT      O 5652   3.910   0.258   3.338  0.6041  0.8897  0.1716
 1814WAT     H1 5653   3.822   0.279   3.307  0.1271  0.1235  0.9406
 1814WAT     H2 5654   3.896   0.187   3.401  2.1260 -2.3679 -2.8269
 1815WAT      O 5655   4.444   1.245   0.228 -0.5433  0.1397 -0.0199
 1815WAT     H1 5656   4.384   1.198   0.171  0.7288  0.1530 -1.4073
 1815WAT     H2 5657   4.528   1.243   0.183 -0.5218  4.3361 -0.5596
 1816WAT      O 5658   0.272   3.752   4.158  0.4869 -0.4432 -0.2744
 1816WAT     H1 5659   0.316   3.667   4.147  0.8574 -0.2107 -0.6157
 1816WAT     H2 5660   0.240   3.773   4.070 -3.3624 -2.2167  0.4781
 1817WAT      O 5661   3.239   4.616   0.592  0.8752  0.3831  0.2738
 1817WAT     H1 5662   3.210   4.654   0.509  2.3698  3.4380  1.0235
 1817WAT     H2 5663   3.237   4.521   0.577 -2.0631  0.6908 -2.1031
 1818WAT      O 5664   2.867   4.488   1.025  0.1643  0.4657  0.5285
 1818WAT     H1 5665   2.785   4.486   0.977  0.2946 -0.0244  0.3130
 1818WAT     H2 5666   2.882   4.581   1.044 -0.3079  0.5803  0.3515
 1819WAT      O 5667   4.349   3.434   1.311 -0.1638  0.3414 -0.5667
 1819WAT     H1 5668   4.307   3.398   1.232 -0.2954 -0.3485 -0.1924
 1819WAT     H2 5669   4.388   3.358   1.353 -1.0265  0.5253  0.6017
 1820WAT      O 5670   1.142   2.783   0.141 -0.6334  0.2828 -0.2574
 1820WAT     H1 5671   1.148   2.704   0.087  0.2603 -1.7316  2.4759
 1820WAT     H2 5672   1.057   2.775   0.186  0.3648 -0.4104  1.6552
 1821WAT      O 5673   4.325   0.563   2.471  0.1321  0.1549 -0.0114
 1821WAT     H1 5674   4.383   0.639   2.463 -1.4581  1.4031 -0.1838
 1821WAT     H2 5675   4.282   0.574   2.556 -0.0240 -0.6198  0.0183
 1822WAT      O 5676   1.550   2.633   2.267  0.2020 -0.7386  0.0715
 1822WAT     H1 5677   1.536   2.717   2.223 -0.5268 -0.3650  0.9945
 1822WAT     H2 5678   1.511   2.568   2.208  0.5825 -0.4134 -0.5472
 1823WAT      O 5679   1.134   4.606   0.001  0.2408 -0.8244  0.8226
 1823WAT     H1 5680   1.063   4.665   0.028 -0.1277 -0.2803 -1.1562
 1823WAT     H2 5681   1.119   4.527   0.052 -1.6930 -0.6527  0.6200
 1824WAT      O 5682   3.850   2.314   0.894 -0.0538 -0.0537  0.1416
 1824WAT     H1 5683   3.828   2.345   0.982 -0.4837 -0.5496  0.2117
 1824WAT     H2 5684   3.920   2.373   0.865 -0.6762  0.8203  0.3709
 1825WAT      O 5685   2.253   1.043   3.535 -0.7388  0.2263 -0.2778
 1825WAT     H1 5686   2.184   1.060   3.471  0.2119 -1.1442 -1.7598
 1825WAT     H2 5687   2.282   0.953   3.516  1.9060  0.9742 -0.2340
 1826WAT      O 5688   0.887   0.987   0.326  0.2023  0.0880  0.3430
 1826WAT     H1 5689   0.886   1.057   0.392 -2.2734 -0.4351  0.9759
 1826WAT     H2 5690   0.861   1.031   0.245  2.9075  0.6608 -0.3318
 1827WAT      O 5691   0.065   3.237   5.136  0.1530 -0.0581 -0.0601
 1827WAT     H1 5692   0.004   3.166   5.114 -0.1250 -0.2111  1.0881
 1827WAT     H2 5693   0.127   3.196   5.197 -0.7491  0.9451  1.6172
 1828WAT      O 5694   2.873   2.208   3.004 -0.2150 -0.2320 -0.1851
 1828WAT     H1 5695   2.892   2.121   2.970 -0.2108  0.7255 -2.8264
 1828WAT     H2 5696   2.947   2.261   2.975  0.0558  0.6152  1.8439
 1829WAT      O 5697   4.164   4.279   5.281 -0.3731  0.2810 -0.0248
 1829WAT     H1 5698   4.178   4.319   5.195  0.0519  0.1124 -0.0379
 1829WAT     H2 5699   4.205   4.340   5.342 -2.1100  1.2396  0.2392
 1830WAT      O 5700   0.286   2.106   4.378 -0.8982  0.4468 -0.3954
 1830WAT     H1 5701   0.246   2.098   4.292  1.0550 -0.5506 -1.2868
 1830WAT     H2 5702   0.282   2.199   4.398 -1.5648  0.6665 -1.4598
 1831WAT      O 5703   0.776   3.203   1.299  0.1359 -0.0144  0.5676
 1831WAT     H1 5704   0.778   3.297   1.311 -0.8848  0.1155 -0.1441
 1831WAT     H2 5705   0.804   3.189   1.208  0.6956 -0.4381  0.7931
 1832WAT      O 5706   1.711   4.953   5.143 -0.1291  0.4160 -0.0748
 1832WAT     H1 5707   1.653   4.885   5.109 -0.8481  0.1941  1.5188
 1832WAT     H2 5708   1.791   4.944   5.092 -1.0339 -0.1137 -1.4367
 1833WAT      O 5709   3.321   4.062   4.961 -0.1978  0.0838  0.7230
 1833WAT     H1 5710   3.395   4.090   4.908  0.4752 -1.4147  0.8250
 1833WAT     H2 5711   3.276   3.996   4.908  0.3048 -1.2087  1.8526
 1834WAT      O 5712   0.061   1.259   4.755  0.0596 -0.3606 -0.1378
 1834WAT     H1 5713   0.049   1.262   4.849  1.0946  0.6635 -0.0091
 1834WAT     H2 5714   0.052   1.350   4.727 -0.4479 -0.6810 -1.0650
 1835WAT      O 5715   4.074   2.727   1.895 -0.3320 -0.0666  0.0884
 1835WAT     H1 5716   3.980   2.711   1.907  0.0261 -1.2355  1.6086
 1835WAT     H2 5717   4.082   2.822   1.896 -1.2529  0.0508  2.5110
 1836WAT      O 5718   3.024   0.364   2.400  0.2617  0.5804 -0.1724
 1836WAT     H1 5719   3.070   0.445   2.378 -1.0511  0.8631 -2.0817
 1836WAT     H2 5720   3.065   0.298   2.343  0.2406  0.2228  0.2213
 1837WAT      O 5721   1.056   5.035   2.485  0.3690 -0.1741  0.2462
 1837WAT     H1 5722   1.094   5.037   2.397  0.3550  2.7717  0.1986
 1837WAT     H2 5723   0.963   5.019   2.471  0.1060  1.7533 -0.4643
 1838WAT      O 5724   1.605   0.275   0.359  0.3500 -0.1194  0.3164
 1838WAT     H1 5725   1.580   0.183   0.371  1.5324 -0.2282  2.4373
 1838WAT     H2 5726   1.647   0.277   0.273  0.3911 -1.5811  0.2646
 1839WAT      O 5727   0.250   3.298   3.358  0.3419 -0.6858  0.4690
 1839WAT     H1 5728   0.248   3.273   3.450  0.5187 -1.0272  0.3780
 1839WAT     H2 5729   0.204   3.383   3.356  0.8823 -0.3729  0.9644
 1840WAT      O 5730   1.654   3.303   1.231 -0.8946  0.2490  0.1249
 1840WAT     H1 5731   1.657   3.227   1.172  1.2042  0.7869 -0.5477
 1840WAT     H2 5732   1.589   3.280   1.297  0.4972 -2.6969  0.6357
 1841WAT      O 5733   1.418   3.394   2.895 -0.2301  0.2192  0.1746
 1841WAT     H1 5734   1.404   3.374   2.802 -0.3290 -0.4817  0.3320
 1841WAT     H2 5735   1.377   3.321   2.941  0.2401  0.3182  0.7612
 1842WAT      O 5736   0.181   4.158   4.523 -0.2507  0.6249 -0.2967
 1842WAT     H1 5737   0.232   4.220   4.471 -1.0946  0.1774 -1.7264
 1842WAT     H2 5738   0.209   4.072   4.493 -2.1573  0.3622 -1.5415
 1843WAT      O 5739   4.190   0.938   2.024  0.5068  0.2007  0.1952
 1843WAT     H1 5740   4.164   0.891   2.103 -0.8252  0.3768 -0.1081
 1843WAT     H2 5741   4.247   0.877   1.977  0.3984 -0.3365  0.7551
 1844WAT      O 5742   3.231   0.168   5.256 -0.3766  0.5413  0.1116
 1844WAT     H1 5743   3.294   0.183   5.185  1.5734  0.1261  1.6541
 1844WAT     H2 5744   3.211   0.075   5.251 -0.7524  0.6445 -0.2970
 1845WAT      O 5745   3.686   5.060   4.366 -0.0085  0.0734  0.0405
 1845WAT     H1 5746   3.750   4.992   4.389  0.3176  0.7826  1.3034
 1845WAT     H2 5747   3.714   5.137   4.415 -1.1274  0.7556 -0.3631
 1846WAT      O 5748   0.312   3.210   2.443 -0.1979 -0.4110  0.2985
 1846WAT     H1 5749   0.253   3.242   2.511  0.8986  0.9967  0.6447
 1846WAT     H2 5750   0.280   3.251   2.363  0.3185  0.4175  0.4987
 1847WAT      O 5751   3.867   4.467   0.300  0.7963 -0.0369  0.1005
 1847WAT     H1 5752   3.823   4.550   0.283 -0.5868 -0.7072  0.2711
 1847WAT     H2 5753   3.939   4.464   0.237 -0.5678  0.2325 -1.5296
 1848WAT      O 5754   3.021   0.329   0.964 -0.0883 -0.1047  0.3173
 1848WAT     H1 5755   3.029   0.419   0.994 -0.2261  0.0059  0.0197
 1848WAT     H2 5756   3.100   0.314   0.912 -1.1903  0.6141 -1.6414
 1849WAT      O 5757   2.155   4.985   2.708  0.3600  0.2797  0.1779
 1849WAT     H1 5758   2.205   4.918   2.754 -0.2987 -0.4925 -0.2070
 1849WAT     H2 5759   2.216   5.019   2.642  0.7606  0.2045  0.5054
 1850WAT      O 5760   3.359   2.215   0.931 -0.3459 -0.2241 -0.2254
 1850WAT     H1 5761   3.441   2.253   0.898 -0.2703 -0.5417 -0.4024
 1850WAT     H2 5762   3.308   2.291   0.960  0.2374 -0.0562  0.4016
 1851WAT      O 5763   3.542   1.199   2.374  0.0409  0.3249 -0.2975
 1851WAT     H1 5764   3.578   1.147   2.445 -2.3779  0.3508  1.0655
 1851WAT     H2 5765   3.584   1.285   2.383 -0.4006  0.4078  1.3102
 1852WAT      O 5766   1.587   0.485   1.940  0.4867  0.0242  0.3950
 1852WAT     H1 5767   1.674   0.525   1.944  0.5229 -0.0530  0.3758
 1852WAT     H2 5768   1.529   0.556   1.912  0.9536 -0.5676 -2.3306
 1853WAT      O 5769   2.645   4.853   0.521  0.3827 -0.6995  0.5052
 1853WAT     H1 5770   2.596   4.845   0.439  0.3196 -1.0660  0.5738
 1853WAT     H2 5771   2.721   4.795   0.509  0.5248 -0.5351  0.5976
 1854WAT      O 5772   4.221   2.472   0.190  0.6478 -0.3342  0.4516
 1854WAT     H1 5773   4.183   2.518   0.115 -1.1440 -1.2215  0.7538
 1854WAT     H2 5774   4.257   2.391   0.153 -0.1728 -0.7388  0.5131
 1855WAT      O 5775   3.697   1.673   0.424 -0.1847  0.0534  0.0720
 1855WAT     H1 5776   3.787   1.670   0.392 -0.5204  1.4817 -1.1111
 1855WAT     H2 5777   3.651   1.608   0.372  0.4035 -1.8207  1.7346
 1856WAT      O 5778   0.206   2.449   2.988 -0.5475  0.2632 -0.1644
 1856WAT     H1 5779   0.235   2.525   2.939 -0.0022  0.8674  1.0514
 1856WAT     H2 5780   0.259   2.450   3.068 -2.1161 -0.0880  0.9297
 1857WAT      O 5781   2.144   4.332   4.081  0.3731 -0.2267  0.3018
 1857WAT     H1 5782   2.205   4.405   4.080  0.9388 -0.6967 -0.1520
 1857WAT     H2 5783   2.143   4.299   3.991 -0.6915 -0.1163  0.2591
 1858WAT      O 5784   4.324   4.562   2.271  0.2175  0.2653 -0.3837
 1858WAT     H1 5785   4.242   4.568   2.222  0.6303  0.1074 -1.1077
 1858WAT     H2 5786   4.369   4.645   2.252 -0.0143  0.5939  0.4618
 1859WAT      O 5787   1.852   4.834   4.758 -0.4310  0.4455  0.2351
 1859WAT     H1 5788   1.867   4.899   4.689  0.7049  0.1576  0.1980
 1859WAT     H2 5789   1.885   4.876   4.838  0.9604 -0.3163  0.0982
 1860WAT      O 5790   1.671   2.491   4.591 -0.1132 -0.0077 -0.4564
 1860WAT     H1 5791   1.755   2.537   4.601 -0.1263 -0.3441  1.6961
 1860WAT     H2 5792   1.606   2.560   4.586  0.0888  0.2468  0.3200
 1861WAT      O 5793   0.337   4.243   4.160  0.1943  0.2541  0.1023
 1861WAT     H1 5794   0.260   4.299   4.149  1.1546  1.3558 -1.3358
 1861WAT     H2 5795   0.318   4.166   4.106  0.2342  0.6774 -0.5244
 1862WAT      O 5796   0.838   0.798   3.926 -0.5126  0.2038  0.1714
 1862WAT     H1 5797   0.830   0.879   3.977  0.3609  0.4904 -0.1361
 1862WAT     H2 5798   0.785   0.735   3.975 -2.7356  1.3860 -0.5598
 1863WAT      O 5799   4.343   0.518   3.335 -0.0418  0.1237  0.0508
 1863WAT     H1 5800   4.288   0.485   3.406 -1.4520 -1.3978 -1.6622
 1863WAT     H2 5801   4.288   0.582   3.290  0.7557  0.9039  0.1572
 1864WAT      O 5802   0.647   2.609   3.749  0.4730 -0.1105 -0.1805
 1864WAT     H1 5803   0.684   2.693   3.776 -0.1254  0.0086  0.2927
 1864WAT     H2 5804   0.672   2.599   3.657  0.7541  0.4668 -0.1682
 1865WAT      O 5805   2.920   3.601   2.526 -0.0073 -0.2422 -0.0618
 1865WAT     H1 5806   2.945   3.510   2.509 -1.4870 -0.9374  1.1407
 1865WAT     H2 5807   2.824   3.599   2.527 -0.0911  0.7752  2.4748
 1866WAT      O 5808   1.608   0.646   3.649 -0.2180  0.1960 -0.2667
 1866WAT     H1 5809   1.549   0.636   3.724 -1.3381  1.0937 -1.0079
 1866WAT     H2 5810   1.590   0.569   3.595 -0.6758  0.4407 -0.4657
 1867WAT      O 5811   0.197   4.860   3.228  0.0701  0.2114  0.2020
 1867WAT     H1 5812   0.243   4.942   3.245 -0.7143  0.7976 -0.4353
 1867WAT     H2 5813   0.152   4.874   3.144 -1.5768 -0.1931  0.9697
 1868WAT      O 5814   3.853   1.599   0.878  0.5306 -0.4952  0.2083
 1868WAT     H1 5815   3.798   1.652   0.820 -0.1178 -1.1238  0.2305
 1868WAT     H2 5816   3.888   1.530   0.821  0.7666 -0.4850  0.3396
 1869WAT      O 5817   0.618   2.574   1.545  0.3921 -0.5054 -0.6256
 1869WAT     H1 5818   0.684   2.643   1.544 -0.3324  0.2554  0.8925
 1869WAT     H2 5819   0.587   2.572   1.635 -1.1136 -1.3706 -1.1247
 1870WAT      O 5820   4.006   1.049   3.523 -0.4877 -0.3432 -0.4829
 1870WAT     H1 5821   4.035   0.996   3.449  0.4421  0.8133 -0.9901
 1870WAT     H2 5822   3.933   1.100   3.488  0.8623  1.2748 -1.1105
 1871WAT      O 5823   0.337   2.280   0.950  0.2273  0.0723 -0.1893
 1871WAT     H1 5824   0.427   2.275   0.980  0.7959  2.2991 -1.3264
 1871WAT     H2 5825   0.306   2.366   0.979 -0.9115  0.1035 -1.3934
 1872WAT      O 5826   0.988   4.317   2.199  0.3331  0.4958  0.7207
 1872WAT     H1 5827   1.076   4.292   2.170 -0.2803  0.3239 -1.1492
 1872WAT     H2 5828   0.992   4.413   2.206  0.3969  0.5976 -0.4506
 1873WAT      O 5829   1.669   4.318   4.249 -0.4562 -0.0557  0.1198
 1873WAT     H1 5830   1.737   4.383   4.229 -1.9492  0.9981 -1.8189
 1873WAT     H2 5831   1.718   4.236   4.262  1.2330  0.7606 -0.7574
 1874WAT      O 5832   3.263   4.875   4.743 -0.6169 -0.8707 -0.2335
 1874WAT     H1 5833   3.259   4.807   4.809 -2.0181 -0.2889  0.3260
 1874WAT     H2 5834   3.264   4.828   4.660 -0.3385 -1.5795  0.1614
 1875WAT      O 5835   2.735   3.238   4.067 -0.0474 -0.0086 -0.3125
 1875WAT     H1 5836   2.748   3.261   3.975 -1.4330 -0.3346 -0.6233
 1875WAT     H2 5837   2.823   3.227   4.102  0.5374  1.5658 -1.2112
 1876WAT      O 5838   2.976   1.865   2.423 -0.1284 -0.0400  0.1474
 1876WAT     H1 5839   2.957   1.956   2.400  2.2000 -0.0247 -2.2106
 1876WAT     H2 5840   2.894   1.819   2.406 -1.1434  1.4785  0.6900
 1877WAT      O 5841   1.857   2.998   2.915  0.1692 -0.3377 -0.4418
 1877WAT     H1 5842   1.949   3.014   2.937  1.0030 -2.5931 -1.8919
 1877WAT     H2 5843   1.840   3.055   2.840  1.3632 -1.9741 -2.0377
 1878WAT      O 5844   2.411   0.285   1.530 -0.0097 -0.2220  0.1401
 1878WAT     H1 5845   2.434   0.194   1.509 -1.7420 -0.5562 -0.5014
 1878WAT     H2 5846   2.399   0.327   1.445  0.0848  0.4301  0.4419
 1879WAT      O 5847   4.126   0.448   4.859 -0.5533 -0.1941 -0.0299
 1879WAT     H1 5848   4.103   0.465   4.951 -1.0027 -0.1734 -0.1418
 1879WAT     H2 5849   4.049   0.403   4.824 -0.2453 -0.5038 -0.3093
 1880WAT      O 5850   3.578   0.990   3.545 -0.4860 -0.2161 -0.7927
 1880WAT     H1 5851   3.640   0.970   3.615  0.9781  1.8517 -1.3971
 1880WAT     H2 5852   3.492   0.977   3.585  0.2987 -1.2924  0.6643
 1881WAT      O 5853   0.309   0.938   0.501  0.2540 -0.1757 -0.1338
 1881WAT     H1 5854   0.319   0.859   0.449  1.7623 -0.3158  0.3196
 1881WAT     H2 5855   0.217   0.962   0.492  0.0778 -1.2374 -1.3375
 1882WAT      O 5856   3.397   1.728   1.043  0.4143 -0.0818  0.0043
 1882WAT     H1 5857   3.404   1.819   1.016  1.2096  0.1196  0.8575
 1882WAT     H2 5858   3.486   1.702   1.064  0.0930 -0.8341  0.4760
 1883WAT      O 5859   1.914   0.231   4.889  0.1056 -0.0468  0.2043
 1883WAT     H1 5860   1.852   0.205   4.957 -1.8482  0.5666 -1.2667
 1883WAT     H2 5861   1.860   0.248   4.812  2.0882  0.7511 -1.0931
 1884WAT      O 5862   2.394   4.540   4.347  0.7227 -0.5735 -0.4744
 1884WAT     H1 5863   2.325   4.476   4.366  0.1589  0.3658  0.7762
 1884WAT     H2 5864   2.369   4.578   4.263 -0.1489 -0.4298 -0.1604
 1885WAT      O 5865   1.590   0.761   2.788 -0.2911  0.1566  0.6054
 1885WAT     H1 5866   1.666   0.800   2.831 -0.2742 -1.7698  2.5004
 1885WAT     H2 5867   1.625   0.723   2.708  0.1887  1.6210  0.0955
 1886WAT      O 5868   0.383   2.679   3.673  0.0399  0.1756 -0.2621
 1886WAT     H1 5869   0.333   2.598   3.681  0.1842  0.1339  0.2581
 1886WAT     H2 5870   0.472   2.651   3.653  0.1930  0.1802  0.3916
 1887WAT      O 5871   2.842   4.035   3.399  0.3185 -0.3143 -0.4531
 1887WAT     H1 5872   2.809   4.105   3.342  0.2433  1.1751  1.3420
 1887WAT     H2 5873   2.766   3.980   3.416 -0.1174  0.3639 -0.1923
 1888WAT      O 5874   0.405   0.141   4.826 -0.5260 -0.4549  0.2364
 1888WAT     H1 5875   0.396   0.102   4.739 -1.7395 -0.7853  0.4978
 1888WAT     H2 5876   0.382   0.233   4.813  1.7693  0.1097 -0.2646
 1889WAT      O 5877   0.983   3.965   1.569 -0.2090  0.0121  0.3072
 1889WAT     H1 5878   1.059   4.005   1.611 -0.0335 -0.0831  0.0790
 1889WAT     H2 5879   0.942   4.036   1.520 -0.3482  0.0967  0.5478
 1890WAT      O 5880   2.289   1.216   1.142 -0.2590 -0.1110  0.3937
 1890WAT     H1 5881   2.235   1.281   1.096 -1.9522 -0.5271  1.7065
 1890WAT     H2 5882   2.323   1.160   1.072 -0.0181  1.2490 -0.6192
 1891WAT      O 5883   3.872   1.249   3.020 -0.1271 -0.0953 -0.7847
 1891WAT     H1 5884   3.935   1.222   3.087  0.8258  0.0918 -1.5900
 1891WAT     H2 5885   3.787   1.224   3.056  0.5162 -1.8924 -0.3971
 1892WAT      O 5886   1.378   2.195   3.441 -0.2716 -0.5887  0.3780
 1892WAT     H1 5887   1.315   2.125   3.452 -2.7084  1.5637  1.1168
 1892WAT     H2 5888   1.379   2.241   3.525  0.6849  0.6962 -0.2822
 1893WAT      O 5889   0.681   4.442   4.423 -0.6847  0.4168  0.1768
 1893WAT     H1 5890   0.624   4.369   4.397  0.4453 -0.6886  0.6703
 1893WAT     H2 5891   0.738   4.455   4.347  0.3330 -0.4836  0.7613
 1894WAT      O 5892   2.148   4.176   4.774 -0.5466  0.4569 -0.5522
 1894WAT     H1 5893   2.220   4.149   4.831 -0.5013  1.4669 -0.1015
 1894WAT     H2 5894   2.071   4.177   4.832 -0.6164  0.8892 -0.6441
 1895WAT      O 5895   1.684   1.510   0.511 -0.3361 -0.4064  0.6095
 1895WAT     H1 5896   1.609   1.551   0.468 -0.8960 -0.2506  1.6972
 1895WAT     H2 5897   1.760   1.536   0.458 -1.0232 -0.4041 -0.3886
 1896WAT      O 5898   3.506   4.618   0.464  0.6030 -0.2217  0.1491
 1896WAT     H1 5899   3.509   4.525   0.442 -1.7471 -0.2093 -0.5021
 1896WAT     H2 5900   3.436   4.625   0.529 -0.9186  1.3088 -1.5059
 1897WAT      O 5901   2.216   1.647   4.923 -0.1169 -0.2138 -0.0769
 1897WAT     H1 5902   2.301   1.619   4.957  0.8605  2.3533 -0.2595
 1897WAT     H2 5903   2.226   1.646   4.828  0.0406  1.0023 -0.0821
 1898WAT      O 5904   1.717   0.746   0.675 -0.1710  0.6775 -0.4573
 1898WAT     H1 5905   1.794   0.694   0.700 -0.2694  0.4139 -0.6854
 1898WAT     H2 5906   1.689   0.707   0.592 -2.3827 -1.2952  1.0520
 1899WAT      O 5907   2.645   3.107   1.023 -0.8379 -0.6408 -0.0503
 1899WAT     H1 5908   2.605   3.134   1.106 -0.4202 -0.0370 -0.0412
 1899WAT     H2 5909   2.729   3.068   1.049  0.1688  1.2164 -0.2733
 1900WAT      O 5910   1.543   3.909   2.408 -0.1601 -0.2986 -0.3561
 1900WAT     H1 5911   1.529   4.003   2.404 -0.1611 -0.2190  0.9940
 1900WAT     H2 5912   1.566   3.884   2.318 -0.8693  0.8594 -0.8782
 1901WAT      O 5913   1.358   3.914   4.931  0.0179  1.1083  0.2839
 1901WAT     H1 5914   1.361   3.870   4.846 -0.7037 -0.0308  0.8117
 1901WAT     H2 5915   1.423   3.984   4.925  0.4249  0.6447 -0.9793
 1902WAT      O 5916   2.355   1.786   3.913  0.4341  0.5656  0.1764
 1902WAT     H1 5917   2.293   1.834   3.968 -0.3711 -0.9823  0.6837
 1902WAT     H2 5918   2.301   1.751   3.843  0.9446  0.1356 -0.0027
 1903WAT      O 5919   2.644   3.468   0.325 -0.3994  0.2373 -0.5417
 1903WAT     H1 5920   2.666   3.393   0.380  2.6061  0.6180 -1.0463
 1903WAT     H2 5921   2.641   3.542   0.386  1.6088  0.4469 -0.6431
 1904WAT      O 5922   1.161   0.198   1.450  0.1430 -0.2698  0.0656
 1904WAT     H1 5923   1.088   0.140   1.426  0.2777 -0.8966  1.0788
 1904WAT     H2 5924   1.144   0.279   1.402 -1.4559 -0.2572  0.5791
 1905WAT      O 5925   1.524   4.138   4.905  0.1427  0.0929  0.2363
 1905WAT     H1 5926   1.493   4.196   4.975  2.4472 -0.8333  2.1641
 1905WAT     H2 5927   1.501   4.183   4.824 -1.8975  1.6218  1.5666
 1906WAT      O 5928   1.531   3.796   1.830 -0.1052 -0.4254  0.1407
 1906WAT     H1 5929   1.520   3.718   1.885  0.1792 -0.8825 -0.4411
 1906WAT     H2 5930   1.482   3.777   1.751 -0.9237  0.4375  0.4161
 1907WAT      O 5931   0.351   5.008   4.849  0.1725 -0.7583 -0.3054
 1907WAT     H1 5932   0.342   5.103   4.864 -0.6081 -0.9076  0.2913
 1907WAT     H2 5933   0.411   5.001   4.775 -0.5576  0.2475 -1.0301
 1908WAT      O 5934   0.548   0.843   4.898  0.2358 -0.2915 -0.2883
 1908WAT     H1 5935   0.513   0.841   4.809 -1.2924 -0.4726  0.2807
 1908WAT     H2 5936   0.553   0.936   4.920 -1.0887 -0.2813  0.0456
 1909WAT      O 5937   2.751   4.018   5.215  0.0588  0.4329  0.9995
 1909WAT     H1 5938   2.827   4.042   5.162 -0.2640 -1.0678 -0.1882
 1909WAT     H2 5939   2.786   3.959   5.282 -0.0889 -0.4235  0.3248
 1910WAT      O 5940   2.802   5.032   0.005  0.1561 -0.0558  0.3242
 1910WAT     H1 5941   2.711   5.058  -0.012 -0.0725 -1.7330 -1.3441
 1910WAT     H2 5942   2.800   4.937   0.013  1.8215 -0.1838 -0.2281
 1911WAT      O 5943   1.702   4.244   3.844  0.4332  0.4670  0.1011
 1911WAT     H1 5944   1.608   4.248   3.824  0.4825  0.5725 -0.1054
 1911WAT     H2 5945   1.715   4.313   3.908 -0.0649 -0.9825  1.8735
 1912WAT      O 5946   1.539   4.814   3.089 -0.5116  0.1501 -0.0063
 1912WAT     H1 5947   1.557   4.757   3.164 -0.7667 -0.2485 -0.2492
 1912WAT     H2 5948   1.617   4.869   3.082 -0.5669  0.3286  0.6770
 1913WAT      O 5949   4.094   1.234   0.414 -0.1487  0.2806 -0.0256
 1913WAT     H1 5950   4.001   1.253   0.425 -0.3967 -0.0561 -1.3452
 1913WAT     H2 5951   4.135   1.320   0.404 -0.6494  0.3781 -1.5930
 1914WAT      O 5952   2.509   4.502   1.461 -0.5278  0.3935 -0.1600
 1914WAT     H1 5953   2.494   4.410   1.485 -0.3680  0.3333 -0.2982
 1914WAT     H2 5954   2.427   4.546   1.485 -0.6397  0.1985 -0.1824
 1915WAT      O 5955   1.939   4.742   0.568 -0.5251  0.0570 -0.0455
 1915WAT     H1 5956   1.880   4.740   0.493  0.0232 -0.8142 -0.4610
 1915WAT     H2 5957   1.970   4.833   0.571 -0.9430  0.2199 -0.5508
 1916WAT      O 5958   3.929   2.515   4.752 -0.0945 -0.1331 -0.1173
 1916WAT     H1 5959   3.836   2.529   4.738 -0.4299  2.8248  3.5020
 1916WAT     H2 5960   3.936   2.423   4.777 -2.3306 -0.0452  1.0491
 1917WAT      O 5961   2.915   4.770   4.991 -0.0626  0.2199  0.0712
 1917WAT     H1 5962   2.993   4.785   5.046 -1.1587  1.0198  1.4630
 1917WAT     H2 5963   2.936   4.812   4.908  1.4372 -0.5668  0.0179
 1918WAT      O 5964   2.321   1.545   0.780 -0.2889  0.4360  0.6014
 1918WAT     H1 5965   2.407   1.522   0.746  1.5002  1.9152  3.6779
 1918WAT     H2 5966   2.262   1.480   0.742  2.3332 -1.3348 -0.7498
 1919WAT      O 5967   3.229   3.183   1.969 -0.3621  0.1134  0.3950
 1919WAT     H1 5968   3.168   3.126   2.016 -1.0326  1.9319  1.8650
 1919WAT     H2 5969   3.309   3.180   2.020 -0.3227  0.2770  0.3455
 1920WAT      O 5970   0.675   1.651   4.794 -0.8281  0.3959  0.1223
 1920WAT     H1 5971   0.737   1.683   4.859  0.5117 -0.1820 -0.8167
 1920WAT     H2 5972   0.632   1.576   4.837 -1.1558  1.0224  0.9095
 1921WAT      O 5973   1.146   1.821   0.889 -0.0305 -0.5914  0.5916
 1921WAT     H1 5974   1.165   1.800   0.980 -1.1614 -1.7946  0.5721
 1921WAT     H2 5975   1.208   1.770   0.838 -0.1985 -0.8679  0.6616
 1922WAT      O 5976   0.291   5.076   3.403 -0.2498  0.2146  0.0927
 1922WAT     H1 5977   0.278   5.169   3.383  0.4520 -0.0247 -1.6646
 1922WAT     H2 5978   0.385   5.062   3.392 -0.0251 -0.3382  2.2183
 1923WAT      O 5979   4.036   4.861   3.809  0.0268 -0.6115  0.4177
 1923WAT     H1 5980   3.949   4.830   3.834  0.2231 -1.2343  0.3562
 1923WAT     H2 5981   4.095   4.820   3.873  0.4469 -1.5293 -0.5156
 1924WAT      O 5982   0.041   4.327   0.141 -0.3533 -0.5561  0.0862
 1924WAT     H1 5983  -0.053   4.329   0.159 -0.2403 -2.0501  0.9508
 1924WAT     H2 5984   0.081   4.302   0.224  0.7726 -0.5331 -0.4304
 1925WAT      O 5985   3.308   3.904   4.412  0.7997  1.2110  0.0611
 1925WAT     H1 5986   3.376   3.952   4.460  2.4540 -0.0384 -0.9586
 1925WAT     H2 5987   3.270   3.844   4.477  1.8504  0.7223  0.2344
 1926WAT      O 5988   0.612   1.890   2.977 -0.2058  0.1346  0.2828
 1926WAT     H1 5989   0.605   1.827   2.905  4.6477 -0.4678 -0.0465
 1926WAT     H2 5990   0.677   1.953   2.947 -1.7821  2.9043  2.2966
 1927WAT      O 5991   4.085   4.703   2.184  0.1451 -0.3618  0.0420
 1927WAT     H1 5992   4.047   4.713   2.097  1.6873  0.1036 -0.6047
 1927WAT     H2 5993   4.047   4.774   2.235  0.8670  0.6925 -0.8580
 1928WAT      O 5994   3.689   4.246   2.149 -0.0429 -0.0922  0.0118
 1928WAT     H1 5995   3.671   4.330   2.190 -0.7150  0.0400 -0.5411
 1928WAT     H2 5996   3.750   4.267   2.078 -0.6517  0.0196 -0.4851
 1929WAT      O 5997   3.724   0.370   5.076  0.1764 -0.7036  0.1966
 1929WAT     H1 5998   3.771   0.403   5.000 -0.8995  1.1089  0.2666
 1929WAT     H2 5999   3.704   0.279   5.053 -0.9311  0.0425 -2.1358
 1930WAT      O 6000   3.621   3.688   0.098  0.7604 -0.6162 -0.2430
 1930WAT     H1 6001   3.619   3.685   0.194 -0.3416  0.1087 -0.2284
 1930WAT     H2 6002   3.701   3.737   0.077 -0.1881  1.2970  0.3895
 1931WAT      O 6003   3.127   4.631   0.053 -0.6158 -0.2444  0.2393
 1931WAT     H1 6004   3.220   4.626   0.073 -0.8270 -0.5388  1.2010
 1931WAT     H2 6005   3.111   4.558  -0.006 -0.2180 -0.1182 -0.0275
 1932WAT      O 6006   3.263   3.820   3.322 -0.1962  0.0374  0.3019
 1932WAT     H1 6007   3.303   3.865   3.247 -1.1708  0.2592 -0.0938
 1932WAT     H2 6008   3.183   3.868   3.339 -0.2799 -0.3780  1.1247
 1933WAT      O 6009   1.721   4.728   0.354  0.1620 -0.6136 -0.1202
 1933WAT     H1 6010   1.755   4.748   0.267  1.2695 -1.0922  0.1824
 1933WAT     H2 6011   1.722   4.633   0.360 -2.1181 -0.7005 -0.4091
 1934WAT      O 6012   1.232   2.857   2.139 -0.3252  0.5332  0.2366
 1934WAT     H1 6013   1.275   2.815   2.064  0.2508  1.0635  0.2599
 1934WAT     H2 6014   1.282   2.937   2.152  0.7158 -0.3773  2.3003
 1935WAT      O 6015   2.398   0.930   4.025  0.0489 -0.5509 -0.1900
 1935WAT     H1 6016   2.343   1.007   4.012  1.0678  0.4821  1.2492
 1935WAT     H2 6017   2.425   0.904   3.937 -0.9382  0.2589 -0.7522
 1936WAT      O 6018   2.824   4.676   3.641  0.1128  0.2415 -0.2449
 1936WAT     H1 6019   2.790   4.739   3.706  1.9054  0.8333  0.1768
 1936WAT     H2 6020   2.856   4.603   3.694  4.2423  1.9275 -0.0205
 1937WAT      O 6021   2.987   0.941   4.897  0.3663 -0.1341 -0.3323
 1937WAT     H1 6022   2.955   0.855   4.871 -0.2881  0.0441 -0.1334
 1937WAT     H2 6023   3.068   0.953   4.846 -0.4794 -0.1180 -1.7232
 1938WAT      O 6024   0.098   0.530   3.308  0.3725  0.1405 -0.6982
 1938WAT     H1 6025   0.130   0.445   3.276 -3.1212 -1.1634 -1.1129
 1938WAT     H2 6026   0.004   0.527   3.294 -0.1862  3.2127  1.4822
 1939WAT      O 6027   1.246   0.884   3.492 -0.4496  0.0223  0.0414
 1939WAT     H1 6028   1.170   0.894   3.550 -1.8290 -0.8479 -1.5328
 1939WAT     H2 6029   1.316   0.933   3.536 -2.2098  1.8421  1.0139
 1940WAT      O 6030   1.023   3.725   2.186  0.3187 -0.2284 -0.3792
 1940WAT     H1 6031   0.942   3.716   2.135 -0.5494 -0.0549  0.9311
 1940WAT     H2 6032   0.994   3.729   2.277  1.5473  2.8953  0.0013
 1941WAT      O 6033   0.643   4.557   3.399  0.8334  0.1928  0.3608
 1941WAT     H1 6034   0.585   4.541   3.474  0.8931  3.6260  1.3420
 1941WAT     H2 6035   0.728   4.526   3.428  0.6037  0.3654  1.2663
 1942WAT      O 6036   0.099   1.390   3.201 -0.4691  0.6916  0.5477
 1942WAT     H1 6037   0.079   1.483   3.196 -0.1911  0.7523  0.5755
 1942WAT     H2 6038   0.055   1.360   3.281  0.1336  0.9703  0.9852
 1943WAT      O 6039   2.838   0.958   1.037 -0.1871 -0.1727  0.2309
 1943WAT     H1 6040   2.814   0.963   1.130  0.2895  2.7620  0.3101
 1943WAT     H2 6041   2.927   0.992   1.034  0.1278 -1.0644 -1.2192
 1944WAT      O 6042   3.942   3.171   2.459 -0.1102 -0.1555 -0.4308
 1944WAT     H1 6043   3.966   3.257   2.492  2.0420 -0.8385 -0.0518
 1944WAT     H2 6044   3.860   3.150   2.503 -0.4630  1.5083 -0.2320
 1945WAT      O 6045   1.119   2.386   2.351 -0.1842 -0.0673  0.2499
 1945WAT     H1 6046   1.101   2.353   2.263  0.5764  0.4701 -0.1200
 1945WAT     H2 6047   1.182   2.324   2.388  0.8965  0.6802 -0.2772
 1946WAT      O 6048   2.965   2.655   1.133 -0.3845  0.0631 -0.3776
 1946WAT     H1 6049   3.028   2.692   1.196 -0.6809 -0.0625 -0.0018
 1946WAT     H2 6050   3.017   2.638   1.055  0.2682 -0.9032  0.2424
 1947WAT      O 6051   3.590   4.881   0.003 -0.5312 -0.0605  0.3389
 1947WAT     H1 6052   3.596   4.894   0.098 -0.8777  0.9256  0.2400
 1947WAT     H2 6053   3.603   4.787  -0.009 -0.3966 -0.1866  1.3553
 1948WAT      O 6054   2.018   3.806   0.122 -0.6765 -0.2482 -0.2060
 1948WAT     H1 6055   1.939   3.849   0.154  0.6020  0.9489  1.5865
 1948WAT     H2 6056   1.996   3.713   0.119 -1.0983 -0.4927  4.0784
 1949WAT      O 6057   0.219   0.278   1.457  0.1415  0.1171 -0.0006
 1949WAT     H1 6058   0.308   0.280   1.423  0.2737  1.0043  0.3616
 1949WAT     H2 6059   0.229   0.293   1.551 -0.3330 -0.6804  0.1895
 1950WAT      O 6060   3.737   3.371   3.536 -0.2621 -0.1578  0.2173
 1950WAT     H1 6061   3.655   3.340   3.574 -0.1183 -0.7844  0.0200
 1950WAT     H2 6062   3.771   3.296   3.488  0.7607 -0.1045  0.8374
 1951WAT      O 6063   3.022   4.323   1.927  0.2573  0.2210  0.0803
 1951WAT     H1 6064   3.018   4.229   1.945  1.2460  0.3488  1.0836
 1951WAT     H2 6065   3.004   4.364   2.012 -0.6922  0.9580 -0.4594
 1952WAT      O 6066   1.847   1.803   3.202 -0.0638 -0.1496  0.4136
 1952WAT     H1 6067   1.812   1.773   3.286 -0.4510  0.0955  0.3415
 1952WAT     H2 6068   1.898   1.881   3.222 -2.3599  1.5167  0.0964
 1953WAT      O 6069   0.600   0.573   1.242 -0.6529 -0.1142  0.2656
 1953WAT     H1 6070   0.675   0.554   1.186  0.6092 -0.8490  2.1091
 1953WAT     H2 6071   0.628   0.648   1.295 -1.5551  0.1376  0.4115
 1954WAT      O 6072   0.273   3.399   3.684 -0.5879 -0.4016  0.1171
 1954WAT     H1 6073   0.300   3.448   3.762  1.3392 -2.8977  1.1729
 1954WAT     H2 6074   0.263   3.466   3.616  1.5505  1.5215  1.5219
 1955WAT      O 6075   1.199   1.731   1.188 -0.0131  0.0963 -0.2844
 1955WAT     H1 6076   1.200   1.813   1.237 -0.2808 -0.3276  0.4429
 1955WAT     H2 6077   1.115   1.691   1.210  0.0852 -0.3392 -0.6895
 1956WAT      O 6078   3.993   4.691   4.877 -0.4071 -0.0521 -0.5031
 1956WAT     H1 6079   3.958   4.716   4.962 -1.4097  0.0710 -0.9415
 1956WAT     H2 6080   4.067   4.634   4.898  0.1426  0.9782  0.4577
 1957WAT      O 6081   2.334   2.553   0.575  0.5887 -0.4207 -0.5544
 1957WAT     H1 6082   2.425   2.546   0.602  0.4323  0.0644  0.1338
 1957WAT     H2 6083   2.319   2.647   0.565  0.1713 -0.4987 -0.6901
 1958WAT      O 6084   1.621   5.009   3.756  0.0234  0.4168  0.3989
 1958WAT     H1 6085   1.589   4.978   3.672 -0.9639  0.0887  0.8757
 1958WAT     H2 6086   1.705   5.049   3.737  1.2503 -2.3058 -0.2967
 1959WAT      O 6087   0.513   3.042   5.122 -0.2490  0.0304 -0.1360
 1959WAT     H1 6088   0.555   2.976   5.178 -0.0822  0.3357  0.1072
 1959WAT     H2 6089   0.462   2.992   5.059 -0.8547 -0.3170  0.6171
 1960WAT      O 6090   2.716   4.130   1.437 -0.8838 -0.1712 -0.0377
 1960WAT     H1 6091   2.711   4.112   1.343 -1.1156 -0.5897  0.0532
 1960WAT     H2 6092   2.761   4.215   1.443 -0.2797 -0.4560 -0.4940
 1961WAT      O 6093   2.898   1.482   0.608 -0.4059 -0.2943 -0.2793
 1961WAT     H1 6094   2.917   1.389   0.624 -0.1716 -0.4238 -1.2233
 1961WAT     H2 6095   2.894   1.521   0.695  0.5131 -0.9962  0.0978
 1962WAT      O 6096   2.335   3.487   0.308 -0.2859  0.3470 -0.2726
 1962WAT     H1 6097   2.364   3.469   0.397 -1.1270 -0.6963 -0.1971
 1962WAT     H2 6098   2.327   3.583   0.304  0.4785  0.4491  0.5333
 1963WAT      O 6099   3.543   2.295   3.741 -0.0391 -0.4592  0.7350
 1963WAT     H1 6100   3.571   2.237   3.670  0.0557  0.9443 -0.4214
 1963WAT     H2 6101   3.475   2.349   3.702 -1.4782 -1.0280  2.3334
 1964WAT      O 6102   0.787   4.766   4.246 -0.5600  0.4213 -0.3664
 1964WAT     H1 6103   0.803   4.671   4.246  3.5545  0.8783  2.1318
 1964WAT     H2 6104   0.832   4.797   4.167  0.2392  0.4997  0.1124
 1965WAT      O 6105   1.592   1.543   1.671  0.4344  0.1709 -0.2160
 1965WAT     H1 6106   1.670   1.497   1.703  0.3456  0.7751  0.8902
 1965WAT     H2 6107   1.560   1.488   1.600 -0.1793 -1.9827  1.6124
 1966WAT      O 6108   1.887   0.252   3.981 -0.0709  0.4512 -0.2753
 1966WAT     H1 6109   1.977   0.228   3.957 -0.6865 -0.4229 -1.8352
 1966WAT     H2 6110   1.848   0.284   3.900 -1.0020  1.4158  0.5289
 1967WAT      O 6111   1.122   4.291   3.663 -0.1734 -0.3602  0.4355
 1967WAT     H1 6112   1.208   4.308   3.624 -0.3552  0.2040  0.2676
 1967WAT     H2 6113   1.119   4.196   3.673 -0.7021 -0.6909 -2.2643
 1968WAT      O 6114   1.067   0.393   3.352  0.1956 -0.1756  0.2563
 1968WAT     H1 6115   1.033   0.325   3.293 -0.8959  0.7886 -0.2725
 1968WAT     H2 6116   1.160   0.397   3.333  0.1062 -0.8916 -0.3669
 1969WAT      O 6117   3.371   4.341   4.078  0.7606 -0.0069  0.0181
 1969WAT     H1 6118   3.343   4.316   3.990  0.3713  2.1072 -0.5031
 1969WAT     H2 6119   3.462   4.368   4.068  0.4893  0.9614  0.1055
 1970WAT      O 6120   1.199   2.557   2.043  0.0979  0.6833  0.7324
 1970WAT     H1 6121   1.248   2.557   1.961 -1.4539  1.3694 -0.2446
 1970WAT     H2 6122   1.248   2.497   2.100  2.9798  2.5776  0.4400
 1971WAT      O 6123   1.403   0.955   1.534  0.0334 -0.1338  0.2616
 1971WAT     H1 6124   1.429   0.909   1.613 -1.4955  1.5879  1.8705
 1971WAT     H2 6125   1.326   1.005   1.560 -0.3249  0.7510 -2.2466
 1972WAT      O 6126   3.457   4.931   1.276 -0.4732 -0.3049 -0.6296
 1972WAT     H1 6127   3.457   4.861   1.341 -1.7684 -0.8602 -1.1899
 1972WAT     H2 6128   3.415   4.892   1.199  1.0956  0.2925 -1.8619
 1973WAT      O 6129   2.122   3.113   3.172 -0.0371 -0.2337  0.4976
 1973WAT     H1 6130   2.068   3.060   3.229  0.0207  0.1014  0.8667
 1973WAT     H2 6131   2.155   3.052   3.106 -0.5098 -0.5198  0.5278
 1974WAT      O 6132   2.463   2.008   1.551  0.1780 -0.3181 -0.0799
 1974WAT     H1 6133   2.424   2.022   1.464  2.2679 -0.9296 -1.1761
 1974WAT     H2 6134   2.420   1.930   1.584  0.9251 -1.4251 -1.5913
 1975WAT      O 6135   3.079   4.885   0.230  0.0295 -0.2666 -0.2451
 1975WAT     H1 6136   2.999   4.863   0.181 -0.8262  0.1111  0.9247
 1975WAT     H2 6137   3.078   4.825   0.305  0.1432  0.6065  0.4769
 1976WAT      O 6138   2.056   1.014   0.069  0.2378  0.5054 -0.4141
 1976WAT     H1 6139   1.999   0.974   0.004  0.1853 -2.1390  1.1129
 1976WAT     H2 6140   2.026   1.104   0.076 -1.4500  0.1254 -2.1348
 1977WAT      O 6141   3.929   4.562   1.290 -0.2078 -0.1634  0.0653
 1977WAT     H1 6142   3.895   4.502   1.356  0.2024  0.1131  0.5377
 1977WAT     H2 6143   3.881   4.644   1.304  0.2512  0.0568  0.3693
 1978WAT      O 6144   4.476   1.293   2.549  0.5110  0.1360  0.4472
 1978WAT     H1 6145   4.504   1.383   2.531  0.1794 -0.3478 -2.9822
 1978WAT     H2 6146   4.391   1.303   2.591 -0.1814  1.4614 -1.1655
 1979WAT      O 6147   2.094   0.945   0.600  0.1445 -0.1802  0.0217
 1979WAT     H1 6148   2.080   0.857   0.635  0.4967 -0.0778  0.4271
 1979WAT     H2 6149   2.125   0.931   0.510 -0.6479 -0.4481 -0.2178
 1980WAT      O 6150   0.584   0.564   4.853  0.1461 -0.0632 -0.6230
 1980WAT     H1 6151   0.579   0.648   4.900 -0.8940 -0.5274  0.1492
 1980WAT     H2 6152   0.628   0.505   4.915  0.5667 -0.1769 -1.0286
 1981WAT      O 6153   3.017   4.258   3.170  0.3057  0.0702  0.2948
 1981WAT     H1 6154   3.110   4.279   3.167  0.1653  0.6352 -0.0843
 1981WAT     H2 6155   2.975   4.326   3.119 -0.4361  0.4746  1.4154
 1982WAT      O 6156   0.083   1.857   3.431  0.0801  0.2083 -0.3885
 1982WAT     H1 6157   0.152   1.813   3.481 -0.1323  1.7149  1.3346
 1982WAT     H2 6158   0.098   1.951   3.446 -1.5641  0.6203 -1.0536
 1983WAT      O 6159   0.368   0.074   2.798 -0.1443  0.5430 -0.1547
 1983WAT     H1 6160   0.408   0.043   2.879  0.2003 -0.8499 -0.8270
 1983WAT     H2 6161   0.353   0.167   2.813  1.4916  0.6823  0.8794
 1984WAT      O 6162   3.761   0.671   1.606  0.3574  0.0027  0.1005
 1984WAT     H1 6163   3.685   0.675   1.664  0.6115 -0.7406  0.5041
 1984WAT     H2 6164   3.805   0.589   1.631  0.4439 -0.3593 -1.1748
 1985WAT      O 6165   2.534   2.554   1.787  0.5820  0.1451  0.7344
 1985WAT     H1 6166   2.444   2.522   1.779  0.8672 -0.4048 -0.5793
 1985WAT     H2 6167   2.565   2.518   1.870 -0.0611 -0.5639  0.6800
 1986WAT      O 6168   3.890   0.822   2.683 -0.5682  0.1737 -0.0347
 1986WAT     H1 6169   3.894   0.728   2.697 -0.9404  0.2956  0.9863
 1986WAT     H2 6170   3.810   0.849   2.728 -0.8757  0.8692 -0.9797
 1987WAT      O 6171   0.185   0.755   0.781  0.1746  0.5196 -0.2554
 1987WAT     H1 6172   0.148   0.725   0.864 -1.4739 -0.5211 -1.3314
 1987WAT     H2 6173   0.166   0.849   0.780 -0.3195  0.4350  0.2865
 1988WAT      O 6174   0.764   4.712   0.329 -0.0362 -0.2029 -0.1197
 1988WAT     H1 6175   0.808   4.652   0.390 -0.1099 -1.3830 -1.1854
 1988WAT     H2 6176   0.780   4.799   0.365  2.9839 -0.5816 -0.3458
 1989WAT      O 6177   2.293   4.388   0.523 -0.5572  0.2692 -0.5843
 1989WAT     H1 6178   2.321   4.454   0.586  0.9384 -0.0216 -0.8919
 1989WAT     H2 6179   2.264   4.314   0.577 -0.7649  0.5995 -0.2427
 1990WAT      O 6180   3.011   3.208   4.181  0.1517 -0.2775 -0.0340
 1990WAT     H1 6181   3.011   3.300   4.154  0.3158 -0.2712 -0.0175
 1990WAT     H2 6182   3.091   3.198   4.232  1.4755 -1.0113 -2.1024
 1991WAT      O 6183   4.017   3.263   3.015  0.0800  0.8448 -0.9930
 1991WAT     H1 6184   4.033   3.326   3.085 -1.0134  1.1240 -0.9618
 1991WAT     H2 6185   3.941   3.299   2.968 -1.7527 -1.3044  0.1121
 1992WAT      O 6186   1.740   4.236   2.382  0.2057  0.5371 -0.5206
 1992WAT     H1 6187   1.807   4.195   2.438 -0.9577  1.0008  1.3172
 1992WAT     H2 6188   1.705   4.308   2.435 -0.5865  1.3680 -2.0979
 1993WAT      O 6189   3.165   1.846   2.653  0.1151 -0.5577 -0.1461
 1993WAT     H1 6190   3.211   1.903   2.591  0.9634 -1.7454 -0.6442
 1993WAT     H2 6191   3.083   1.823   2.609 -0.4693  0.6253  0.2617
 1994WAT      O 6192   1.600   2.229   1.436 -0.4310  0.6871 -0.3919
 1994WAT     H1 6193   1.641   2.220   1.350 -2.7914 -0.7877 -1.4450
 1994WAT     H2 6194   1.523   2.173   1.432 -1.0190  1.1472  2.4628
 1995WAT      O 6195   2.045   2.513   0.583  0.4032  0.6472 -0.0783
 1995WAT     H1 6196   2.139   2.531   0.585  0.2239  1.7910 -0.8226
 1995WAT     H2 6197   2.033   2.460   0.505  0.1511  2.4686 -1.3298
 1996WAT      O 6198   1.726   3.545   2.617  0.7819 -0.7056  0.2135
 1996WAT     H1 6199   1.734   3.589   2.702 -0.0604  1.7750 -0.8689
 1996WAT     H2 6200   1.649   3.489   2.627 -1.4132  2.0385  0.2715
 1997WAT      O 6201   3.297   0.433   2.506 -0.5148  0.3524  0.5642
 1997WAT     H1 6202   3.275   0.343   2.482 -0.8460  0.7621 -0.7581
 1997WAT     H2 6203   3.390   0.431   2.526  0.4941  0.3604 -3.2449
 1998WAT      O 6204   2.459   3.013   4.832  0.0312  0.3568  0.6241
 1998WAT     H1 6205   2.371   3.050   4.845 -0.1787  0.9640 -1.9545
 1998WAT     H2 6206   2.508   3.084   4.790  1.3324 -0.4654  0.7064
 1999WAT      O 6207   2.283   0.073   5.040 -0.2445  0.0828  0.4815
 1999WAT     H1 6208   2.252   0.158   5.072  0.7666  0.5179  0.3348
 1999WAT     H2 6209   2.215   0.045   4.979 -0.7221  0.6594  0.7333
 2000WAT      O 6210   1.279   4.733   2.153  0.4391 -0.0038 -0.3745
 2000WAT     H1 6211   1.336   4.708   2.081  0.8237  0.6676 -0.3141
 2000WAT     H2 6212   1.334   4.789   2.209 -0.2803  0.6895 -0.3331
 2001WAT      O 6213   4.386   1.895   1.632  0.0267  0.4301  0.4754
 2001WAT     H1 6214   4.359   1.961   1.696 -0.4669 -0.2196  0.9446
 2001WAT     H2 6215   4.304   1.855   1.603  0.0317  2.0112 -2.0437
 2002WAT      O 6216   3.080   1.507   2.219  0.1811 -1.0138  0.4584
 2002WAT     H1 6217   3.012   1.503   2.286 -2.1769 -0.9603 -1.7694
 2002WAT     H2 6218   3.106   1.416   2.206  0.0695 -1.1114  0.9087
 2003WAT      O 6219   2.477   0.588   1.339  0.0232 -0.0271  0.6357
 2003WAT     H1 6220   2.471   0.507   1.288  2.1066  0.1124  0.0670
 2003WAT     H2 6221   2.391   0.598   1.377 -1.2510 -0.8879 -1.7696
 2004WAT      O 6222   3.444   0.235   1.314 -0.2283 -0.2647 -0.1869
 2004WAT     H1 6223   3.429   0.327   1.296  0.0687  0.0616  1.1122
 2004WAT     H2 6224   3.479   0.233   1.404 -0.5035 -1.6507 -0.0786
 2005WAT      O 6225   1.256   3.198   2.195 -0.6364 -0.6355 -0.0490
 2005WAT     H1 6226   1.182   3.146   2.228 -1.4434  0.5620  0.1060
 2005WAT     H2 6227   1.227   3.289   2.204  1.5156 -0.0314  1.5765
 2006WAT      O 6228   0.713   1.014   3.246 -0.2078  0.0258  0.0971
 2006WAT     H1 6229   0.640   0.957   3.273 -0.4625  0.1271 -0.3618
 2006WAT     H2 6230   0.786   0.987   3.301 -0.1715 -1.1310 -0.5036
 2007WAT      O 6231   4.318   0.894   3.950 -1.0318 -0.0428  0.3474
 2007WAT     H1 6232   4.278   0.834   3.887 -0.4051 -0.8797  0.7201
 2007WAT     H2 6233   4.402   0.853   3.971  0.5240  2.1479 -1.1606
 2008WAT      O 6234   4.314   2.804   2.519  0.3160  0.9410  0.6156
 2008WAT     H1 6235   4.280   2.889   2.546 -0.8865  0.6534  0.0848
 2008WAT     H2 6236   4.293   2.799   2.426  1.0145  0.3515  0.4814
 2009WAT      O 6237   4.210   2.834   4.023  0.1715 -0.0433  0.0919
 2009WAT     H1 6238   4.125   2.792   4.008  1.8485 -3.2857 -1.5151
 2009WAT     H2 6239   4.220   2.894   3.949 -0.5744  0.1183  0.1140
 2010WAT      O 6240   0.243   2.059   0.716  0.6299  0.1290  0.0862
 2010WAT     H1 6241   0.267   2.109   0.794  0.0203  0.2046  0.2326
 2010WAT     H2 6242   0.186   2.117   0.667  1.2599  0.1946 -0.5745
 2011WAT      O 6243   0.320   2.218   3.463 -0.1600  0.2552 -0.1830
 2011WAT     H1 6244   0.264   2.174   3.399  0.6455  0.0051 -0.7246
 2011WAT     H2 6245   0.374   2.148   3.500 -1.5788  0.1314  1.8326
 2012WAT      O 6246   4.104   1.928   4.277  0.3241 -0.0290 -0.1961
 2012WAT     H1 6247   4.192   1.960   4.259  0.9678  0.0099  2.5103
 2012WAT     H2 6248   4.051   2.008   4.286  0.7013  0.0953  1.0881
 2013WAT      O 6249   3.048   4.078   5.243  0.0462 -0.0738  0.1589
 2013WAT     H1 6250   3.036   3.998   5.191 -1.5549  1.0054 -1.2639
 2013WAT     H2 6251   3.142   4.096   5.237  0.4152 -1.7422  0.3784
 2014WAT      O 6252   0.958   3.307   4.681 -0.0948  0.5420  0.0104
 2014WAT     H1 6253   0.864   3.308   4.700 -0.0214  2.2205  0.4839
 2014WAT     H2 6254   0.964   3.285   4.588 -0.8445 -1.0568  0.3014
 2015WAT      O 6255   1.437   1.250   2.658  0.2861 -0.2326  0.0301
 2015WAT     H1 6256   1.362   1.295   2.697  0.0976 -1.3775  1.0461
 2015WAT     H2 6257   1.491   1.225   2.733  1.3717  0.0180 -0.6475
 2016WAT      O 6258   3.678   3.391   1.153 -0.3881  0.1233 -0.3599
 2016WAT     H1 6259   3.628   3.438   1.219  0.1561 -0.8113  0.7530
 2016WAT     H2 6260   3.752   3.353   1.201 -0.6227 -1.5701 -1.2529
 2017WAT      O 6261   1.384   1.539   4.929  0.0591  0.4021 -0.2064
 2017WAT     H1 6262   1.379   1.572   4.840 -2.5432  1.2355  0.1504
 2017WAT     H2 6263   1.323   1.594   4.978 -1.3861 -2.3290  1.3076
 2018WAT      O 6264   4.025   3.883   3.550  0.2324  0.2097  0.2017
 2018WAT     H1 6265   3.948   3.909   3.499 -0.0449  0.7182  0.8771
 2018WAT     H2 6266   4.051   3.962   3.597  1.1419  0.0282  0.0308
 2019WAT      O 6267   0.698   0.265   2.109 -0.1222 -0.3699  0.1737
 2019WAT     H1 6268   0.659   0.237   2.026 -1.9595  1.5885  0.2638
 2019WAT     H2 6269   0.695   0.188   2.165 -1.8275 -0.9101 -0.5966
 2020WAT      O 6270   1.902   0.470   0.214 -0.1636 -0.8237 -0.0266
 2020WAT     H1 6271   1.981   0.439   0.170 -0.2759 -1.2447  0.0711
 2020WAT     H2 6272   1.830   0.422   0.174 -0.4022 -0.2618 -0.2871
 2021WAT      O 6273   2.870   2.000   4.047 -0.1551  0.0219 -0.1490
 2021WAT     H1 6274   2.867   2.095   4.061  2.4440  0.0925  0.5492
 2021WAT     H2 6275   2.807   1.985   3.977  0.2480  2.4846 -1.1763
 2022WAT      O 6276   1.609   4.487   2.233 -0.4888 -1.3775 -0.1859
 2022WAT     H1 6277   1.619   4.429   2.309  1.5319 -0.2971  0.4324
 2022WAT     H2 6278   1.555   4.559   2.265 -0.2521 -1.2844  0.0040
 2023WAT      O 6279   3.783   4.597   4.168  0.0090 -0.6780  0.2763
 2023WAT     H1 6280   3.808   4.519   4.218 -0.4692 -1.0476 -0.0507
 2023WAT     H2 6281   3.856   4.658   4.181  0.5110 -1.2776  0.3187
 2024WAT      O 6282   1.430   1.134   4.482 -0.2590  0.0604 -0.1569
 2024WAT     H1 6283   1.515   1.142   4.440  0.6774  1.1708  1.8016
 2024WAT     H2 6284   1.417   1.040   4.494  0.1038 -0.1874 -1.5566
 2025WAT      O 6285   2.536   4.956   1.357 -0.2093 -0.1850 -0.2407
 2025WAT     H1 6286   2.464   4.946   1.294 -1.2058  0.8265  0.6824
 2025WAT     H2 6287   2.596   4.884   1.337  0.3423  0.9942 -3.3837
 2026WAT      O 6288   4.328   4.133   3.532 -0.2157 -0.0229  0.2608
 2026WAT     H1 6289   4.379   4.202   3.574 -0.3339  0.1705  0.0836
 2026WAT     H2 6290   4.346   4.055   3.585 -0.0415  0.1303  0.4289
 2027WAT      O 6291   0.762   1.551   1.090 -0.0619 -0.2162  0.1473
 2027WAT     H1 6292   0.679   1.585   1.056  0.7264  1.3225 -0.3488
 2027WAT     H2 6293   0.791   1.488   1.024 -0.1844  0.2694 -0.3799
 2028WAT      O 6294   0.827   4.607   2.315  0.1598  0.1523 -0.1099
 2028WAT     H1 6295   0.801   4.536   2.374  1.8348  0.0949  0.6192
 2028WAT     H2 6296   0.918   4.586   2.293  0.7317  2.1375  0.2275
 2029WAT      O 6297   0.754   2.976   2.601  0.2553  0.0165  0.7127
 2029WAT     H1 6298   0.683   3.035   2.576  0.4261 -0.0208  0.1223
 2029WAT     H2 6299   0.805   3.026   2.665  0.9794  0.9052 -0.5280
 2030WAT      O 6300   0.638   0.067   2.300  0.3242  0.1264 -0.8292
 2030WAT     H1 6301   0.708   0.010   2.330 -0.6283 -0.4186  0.4355
 2030WAT     H2 6302   0.591   0.092   2.379 -1.0349  0.3020 -1.6526
 2031WAT      O 6303   3.200   3.813   0.206 -0.3586  0.1370 -0.8378
 2031WAT     H1 6304   3.168   3.724   0.216 -0.0090 -0.1892 -2.3846
 2031WAT     H2 6305   3.171   3.858   0.285  0.1947 -1.5458  0.3838
 2032WAT      O 6306   2.468   0.930   5.145  0.8669 -0.0420  0.7774
 2032WAT     H1 6307   2.382   0.943   5.105  1.6450 -0.3814 -1.1176
 2032WAT     H2 6308   2.502   1.019   5.157  0.7250  0.0570  0.4474
 2033WAT      O 6309   0.064   4.593   4.020 -0.0266 -0.4097 -0.5529
 2033WAT     H1 6310   0.094   4.563   4.107  0.3459 -0.3963 -0.6733
 2033WAT     H2 6311   0.016   4.674   4.038  0.2271 -0.2944 -0.3760
 2034WAT      O 6312   0.074   0.667   0.554 -0.1055 -0.2801 -0.6005
 2034WAT     H1 6313   0.153   0.671   0.608 -0.8411 -1.0489  0.5770
 2034WAT     H2 6314   0.002   0.680   0.616 -0.9478 -0.3469 -1.5309
 2035WAT      O 6315   1.802   0.637   4.542 -0.3447 -0.1297  0.4789
 2035WAT     H1 6316   1.792   0.664   4.633 -0.7283  0.5714  0.2311
 2035WAT     H2 6317   1.782   0.543   4.542 -1.6605  0.1397  0.8975
 2036WAT      O 6318   0.982   2.124   1.576 -0.4242  0.4031  0.4434
 2036WAT     H1 6319   0.927   2.200   1.554 -0.4506  0.4600  0.7089
 2036WAT     H2 6320   1.019   2.097   1.492 -1.1341  0.1491  0.2039
 2037WAT      O 6321   1.449   4.764   5.121 -0.5945  0.7549 -0.3907
 2037WAT     H1 6322   1.495   4.781   5.039  2.2233  0.1626  0.9620
 2037WAT     H2 6323   1.425   4.851   5.154  0.4539  1.1622 -0.6761
 2038WAT      O 6324   2.251   2.494   1.487  0.1356 -0.2840  0.2094
 2038WAT     H1 6325   2.219   2.584   1.485 -0.0865 -0.3515  0.5980
 2038WAT     H2 6326   2.256   2.473   1.581 -2.8063 -1.7391  0.1575
 2039WAT      O 6327   0.765   4.621   1.698 -0.3626 -0.1036  0.0143
 2039WAT     H1 6328   0.852   4.584   1.684  0.2307  1.2038  0.0861
 2039WAT     H2 6329   0.757   4.626   1.793 -0.2850  0.3000 -0.0002
 2040WAT      O 6330   4.129   3.614   3.019 -0.5127  0.1231  0.2025
 2040WAT     H1 6331   4.086   3.554   3.080 -0.5062 -2.0490 -1.7883
 2040WAT     H2 6332   4.223   3.596   3.029 -0.4361  0.5622  0.3180
 2041WAT      O 6333   0.411   4.833   3.571 -0.0491  0.7393  0.8272
 2041WAT     H1 6334   0.369   4.766   3.517 -1.7491  1.0827  1.6807
 2041WAT     H2 6335   0.481   4.867   3.515  0.2654 -1.0728  0.0284
 2042WAT      O 6336   4.252   0.554   0.182  0.1623  0.2446 -0.2747
 2042WAT     H1 6337   4.316   0.486   0.205 -0.3332  0.2276  1.1119
 2042WAT     H2 6338   4.196   0.561   0.259  0.5822  2.6806 -0.1244
 2043WAT      O 6339   2.972   4.824   4.733 -0.1979  0.3388 -0.3190
 2043WAT     H1 6340   2.909   4.814   4.661 -1.3781 -1.6427  0.8867
 2043WAT     H2 6341   3.017   4.740   4.737  1.8969  1.3985 -0.5240
 2044WAT      O 6342   3.656   1.428   3.916  0.2767  0.3120  0.3551
 2044WAT     H1 6343   3.677   1.505   3.969  0.9068 -0.3297  1.0691
 2044WAT     H2 6344   3.564   1.439   3.893 -0.3051  0.1671  2.3958
 2045WAT      O 6345   3.085   4.095   4.390 -0.1052  0.2314 -0.4017
 2045WAT     H1 6346   3.153   4.028   4.389 -1.0735 -0.8357 -2.8867
 2045WAT     H2 6347   3.120   4.166   4.336 -0.0856  0.6677  0.1708
 2046WAT      O 6348   2.944   3.250   0.483 -0.7365 -0.4185 -0.1588
 2046WAT     H1 6349   2.887   3.186   0.526 -0.9393 -0.7214 -0.8736
 2046WAT     H2 6350   2.925   3.240   0.390  1.6251 -1.6404 -0.5823
 2047WAT      O 6351   2.791   1.168   1.588 -0.1936 -0.2993  0.1729
 2047WAT     H1 6352   2.861   1.132   1.533  0.5316 -1.5946  1.8264
 2047WAT     H2 6353   2.798   1.263   1.578 -1.6712 -0.4635 -3.7786
 2048WAT      O 6354   3.670   2.698   5.048  0.1304 -0.2881  0.0080
 2048WAT     H1 6355   3.632   2.636   5.110 -0.9138  0.8272  0.5189
 2048WAT     H2 6356   3.611   2.694   4.972  0.3567 -0.2876 -0.1695
 2049WAT      O 6357   1.684   1.807   1.532  0.0851 -0.1664  0.1245
 2049WAT     H1 6358   1.592   1.798   1.557  0.1418 -0.3915  0.2533
 2049WAT     H2 6359   1.712   1.718   1.512  0.0221  0.0228 -0.8279
 2050WAT      O 6360   1.312   2.953   1.357  0.5469  0.0139 -0.6232
 2050WAT     H1 6361   1.288   2.861   1.347  0.2843  0.1275 -1.0793
 2050WAT     H2 6362   1.266   2.982   1.436  0.3268 -0.1464 -0.6942
 2051WAT      O 6363   0.840   5.124   5.235 -0.0053 -0.2336 -0.5663
 2051WAT     H1 6364   0.775   5.110   5.166 -1.0365  0.7371  0.1534
 2051WAT     H2 6365   0.790   5.114   5.316  1.1237 -1.1089  0.0569
 2052WAT      O 6366   4.389   1.684   4.276  0.1679 -0.1668  0.0704
 2052WAT     H1 6367   4.331   1.711   4.205 -0.1418 -0.8439  0.0529
 2052WAT     H2 6368   4.382   1.588   4.277  0.4097 -0.1833  0.8133
 2053WAT      O 6369   4.098   1.967   2.859 -0.3735 -0.4127 -0.1144
 2053WAT     H1 6370   4.080   1.924   2.776  1.0824  2.9143 -2.3638
 2053WAT     H2 6371   4.177   1.924   2.892 -0.2573 -0.9706 -1.0996
 2054WAT      O 6372   1.368   0.091   4.208  0.1443  0.3963 -0.1592
 2054WAT     H1 6373   1.316   0.029   4.156 -0.9121  1.4857 -0.4295
 2054WAT     H2 6374   1.325   0.092   4.293 -0.0325  1.0060 -0.2568
 2055WAT      O 6375   4.409   3.667   1.968  0.0990  0.4438 -0.9863
 2055WAT     H1 6376   4.427   3.720   2.045 -0.6761 -0.2876 -0.2817
 2055WAT     H2 6377   4.488   3.673   1.915  0.9011  0.4144  0.1803
 2056WAT      O 6378   4.199   1.544   2.473 -0.0824 -0.1419  0.5711
 2056WAT     H1 6379   4.154   1.574   2.552 -0.3038 -1.3111  0.9044
 2056WAT     H2 6380   4.131   1.540   2.407 -0.1095 -0.1992  0.6028
 2057WAT      O 6381   3.364   4.263   2.706  0.3006 -0.1662 -0.3778
 2057WAT     H1 6382   3.297   4.209   2.749 -0.5121  1.1792  0.0919
 2057WAT     H2 6383   3.341   4.260   2.614 -0.7119  0.6583 -0.1694
 2058WAT      O 6384   1.106   3.992   0.299 -0.1172 -0.2279  0.3063
 2058WAT     H1 6385   1.078   3.992   0.390  1.8537 -0.2636  0.9600
 2058WAT     H2 6386   1.028   4.019   0.250 -1.3135 -0.5250  1.9468
 2059WAT      O 6387   3.700   0.180   0.652 -0.2647  0.3589  0.3745
 2059WAT     H1 6388   3.700   0.087   0.675 -0.6403  0.3607  0.3883
 2059WAT     H2 6389   3.711   0.181   0.557  1.2985  0.3521  0.5167
 2060WAT      O 6390   2.610   2.395   3.961  0.1038  0.3401  0.1850
 2060WAT     H1 6391   2.559   2.475   3.976 -0.5633  0.3360 -1.7687
 2060WAT     H2 6392   2.588   2.339   4.035  0.2207  1.7521  1.3514
 2061WAT      O 6393   2.714   2.097   2.695 -0.6703  0.6705 -0.4251
 2061WAT     H1 6394   2.687   2.186   2.672  2.2487  1.6456 -0.4057
 2061WAT     H2 6395   2.703   2.093   2.790 -0.7767  0.9894 -0.4232
 2062WAT      O 6396   0.575   3.447   5.151  0.0665 -0.4515  0.0522
 2062WAT     H1 6397   0.503   3.484   5.202  0.3679  0.5800 -0.2394
 2062WAT     H2 6398   0.533   3.394   5.084 -0.4461  0.4038 -0.3161
 2063WAT      O 6399   2.564   2.835   0.684 -0.1038 -0.4311 -0.0062
 2063WAT     H1 6400   2.505   2.873   0.749  0.4811 -0.3180  0.4735
 2063WAT     H2 6401   2.515   2.836   0.602 -0.9506 -0.8042  0.4813
 2064WAT      O 6402   3.875   1.515   3.256  0.1536  0.0866 -0.2811
 2064WAT     H1 6403   3.821   1.442   3.286 -0.6275 -0.7356 -3.3631
 2064WAT     H2 6404   3.826   1.554   3.184  2.6196  0.7250 -1.7618
 2065WAT      O 6405   2.586   3.111   5.045  0.3930  0.3313 -0.0679
 2065WAT     H1 6406   2.642   3.035   5.060  0.9917  0.4279 -1.6369
 2065WAT     H2 6407   2.540   3.091   4.963 -0.4722  1.0718  0.2171
 2066WAT      O 6408   1.401   4.011   4.342  0.2307  0.1686 -0.2239
 2066WAT     H1 6409   1.314   4.016   4.382  0.8207 -1.0725  1.2990
 2066WAT     H2 6410   1.457   4.062   4.401  0.4543  1.5959 -1.5936
 2067WAT      O 6411   0.220   1.545   1.763 -0.1670  0.1132  0.7724
 2067WAT     H1 6412   0.180   1.632   1.763 -1.0570 -0.2370 -1.2369
 2067WAT     H2 6413   0.147   1.485   1.747  0.9517 -0.6190 -2.2247
 2068WAT      O 6414   0.598   0.024   3.252 -0.4025  0.7053  0.0412
 2068WAT     H1 6415   0.592   0.100   3.310  1.7557  1.4049 -0.5474
 2068WAT     H2 6416   0.670  -0.028   3.288 -0.8914 -0.3154 -0.4106
 2069WAT      O 6417   1.826   4.851   1.340 -0.5572  0.1641 -0.4489
 2069WAT     H1 6418   1.780   4.837   1.422  2.3674 -1.7169  1.0579
 2069WAT     H2 6419   1.768   4.813   1.273 -1.3811 -1.7190  1.2478
 2070WAT      O 6420   1.266   3.864   0.845  0.1247 -0.1152  0.1167
 2070WAT     H1 6421   1.180   3.860   0.886  1.1481 -0.2384  2.3910
 2070WAT     H2 6422   1.282   3.957   0.830 -0.0600 -0.0297  0.4489
 2071WAT      O 6423   2.045   2.159   4.684 -0.4438 -0.1601 -0.2675
 2071WAT     H1 6424   2.099   2.226   4.641 -0.0721  0.6838  1.4218
 2071WAT     H2 6425   1.965   2.205   4.707 -0.3693 -0.4143  0.5092
 2072WAT      O 6426   1.722   3.195   1.610  0.0211 -0.6614 -0.2547
 2072WAT     H1 6427   1.646   3.190   1.668  0.5907 -0.2580  0.5411
 2072WAT     H2 6428   1.755   3.106   1.606 -0.2124 -0.7504 -0.2328
 2073WAT      O 6429   2.987   3.833   5.139  0.2290 -0.0785  0.3691
 2073WAT     H1 6430   3.066   3.813   5.189  0.7061 -1.8279 -1.0013
 2073WAT     H2 6431   2.915   3.813   5.199  0.8001 -1.3704  0.6474
 2074WAT      O 6432   1.238   4.278   0.611 -0.0180 -0.1350 -0.2224
 2074WAT     H1 6433   1.263   4.360   0.569 -2.1598 -0.0893 -1.5962
 2074WAT     H2 6434   1.240   4.213   0.540  1.0295 -1.1656  0.7092
 2075WAT      O 6435   2.602   4.539   3.454  1.1040 -0.0296  0.7424
 2075WAT     H1 6436   2.519   4.491   3.454  0.7905  0.4888  1.8715
 2075WAT     H2 6437   2.664   4.478   3.413 -0.0005 -0.0766 -0.9466
 2076WAT      O 6438   3.471   1.161   5.128  0.1830 -0.2540 -0.3406
 2076WAT     H1 6439   3.401   1.138   5.189  0.5207  1.6465  0.8217
 2076WAT     H2 6440   3.463   1.255   5.116  2.1408 -0.0910 -0.6683
 2077WAT      O 6441   3.743   4.214   3.514  0.1014  0.4839 -0.0875
 2077WAT     H1 6442   3.751   4.120   3.529 -1.1142  0.4437  0.4369
 2077WAT     H2 6443   3.831   4.242   3.491  0.8161 -0.5281  1.2563
 2078WAT      O 6444   0.772   0.542   1.710  0.1475  0.0972  0.3337
 2078WAT     H1 6445   0.843   0.573   1.655  1.4092 -0.8195  1.3981
 2078WAT     H2 6446   0.810   0.473   1.763 -1.8751 -1.4000 -0.0204
 2079WAT      O 6447   0.549   0.367   1.637 -0.2122 -0.4228 -0.1587
 2079WAT     H1 6448   0.573   0.459   1.647  2.2976 -0.7912 -1.9263
 2079WAT     H2 6449   0.498   0.364   1.556 -1.8266 -0.4165  0.8046
 2080WAT      O 6450   3.755   2.432   1.103  0.0715 -0.0059  0.4926
 2080WAT     H1 6451   3.777   2.514   1.147  1.1227 -0.8312  1.5696
 2080WAT     H2 6452   3.782   2.364   1.165  0.4273 -1.1903 -0.9148
 2081WAT      O 6453   2.515   5.129   5.155  0.7807 -0.2978  0.4194
 2081WAT     H1 6454   2.555   5.052   5.115  0.6936 -0.4112  0.5486
 2081WAT     H2 6455   2.424   5.128   5.126  1.1704  0.6709 -0.9261
 2082WAT      O 6456   1.274   1.569   4.682 -0.3991  1.1291 -1.1948
 2082WAT     H1 6457   1.181   1.592   4.683 -0.9927 -1.0680 -0.2540
 2082WAT     H2 6458   1.278   1.486   4.635  0.9120  0.5779 -0.1704
 2083WAT      O 6459   1.574   2.071   2.618 -1.2855 -0.2346 -0.0843
 2083WAT     H1 6460   1.649   2.082   2.677 -2.1803  0.3117  0.9981
 2083WAT     H2 6461   1.574   1.977   2.596 -0.0846 -0.1712 -0.4044
 2084WAT      O 6462   0.384   0.061   4.553 -1.0190  0.3516  0.6812
 2084WAT     H1 6463   0.374  -0.030   4.526 -0.8800  0.3859  0.5110
 2084WAT     H2 6464   0.299   0.086   4.587 -1.4623  0.5688 -0.5299
 2085WAT      O 6465   2.132   3.121   3.623 -0.0357  0.6049  0.1310
 2085WAT     H1 6466   2.215   3.116   3.576  1.0443 -2.1290  2.0815
 2085WAT     H2 6467   2.154   3.168   3.704 -0.6196  0.6724  0.2506
 2086WAT      O 6468   2.047   3.120   4.674  0.6452  0.0043 -0.3765
 2086WAT     H1 6469   2.140   3.103   4.656  0.5913 -1.6187  0.6789
 2086WAT     H2 6470   2.047   3.166   4.758  0.4955  0.1857 -0.4755
 2087WAT      O 6471   2.699   0.356   2.225 -0.6823 -0.0320 -0.0932
 2087WAT     H1 6472   2.750   0.369   2.145 -1.9262 -1.2239 -1.1349
 2087WAT     H2 6473   2.613   0.326   2.194 -1.2819 -0.2721  1.6840
 2088WAT      O 6474   0.974   0.967   2.419 -0.5229  0.4816 -0.2096
 2088WAT     H1 6475   1.050   0.934   2.372  1.0301  1.8166  1.2260
 2088WAT     H2 6476   0.961   0.904   2.490 -1.8889 -0.6807 -1.4339
 2089WAT      O 6477   3.005   5.084   1.345 -0.0869  0.4615 -0.3331
 2089WAT     H1 6478   2.994   5.123   1.258  0.7289 -0.1346 -0.7179
 2089WAT     H2 6479   3.097   5.099   1.366  0.1966 -1.0350 -0.3999
 2090WAT      O 6480   1.874   3.668   0.756 -0.3064  0.3493 -0.3142
 2090WAT     H1 6481   1.867   3.635   0.667  0.1774 -1.6135  0.3403
 2090WAT     H2 6482   1.924   3.602   0.803 -1.3783  0.8482  1.6648
 2091WAT      O 6483   1.334   1.350   5.137 -0.2254 -0.0679  0.6832
 2091WAT     H1 6484   1.352   1.259   5.117  0.0603 -0.0466  0.8457
 2091WAT     H2 6485   1.335   1.394   5.052 -2.3410 -0.5457  0.3537
 2092WAT      O 6486   0.864   2.587   0.883  0.4904 -0.0801  0.2541
 2092WAT     H1 6487   0.884   2.679   0.864 -1.0171  0.0854 -0.7109
 2092WAT     H2 6488   0.909   2.570   0.966  3.2962  0.6249 -0.9975
 2093WAT      O 6489   3.757   1.028   2.177 -0.2715  0.0492 -0.3030
 2093WAT     H1 6490   3.722   0.949   2.217  1.5048 -0.1213  1.0934
 2093WAT     H2 6491   3.849   1.029   2.204 -0.6624  3.6051  1.4747
 2094WAT      O 6492   3.993   2.186   0.627  0.2723 -0.5399 -0.4488
 2094WAT     H1 6493   3.954   2.267   0.593 -0.3926 -1.4566 -1.9917
 2094WAT     H2 6494   4.082   2.211   0.651  0.0321  0.6869 -0.7481
 2095WAT      O 6495   3.640   2.978   3.383 -0.4251  0.0353 -0.1701
 2095WAT     H1 6496   3.726   3.019   3.388  0.7397 -2.2227 -0.3143
 2095WAT     H2 6497   3.578   3.051   3.379  1.4469  1.7196  0.2367
 2096WAT      O 6498   1.645   0.370   1.004 -0.0138  0.1739  0.1941
 2096WAT     H1 6499   1.658   0.464   0.996  0.5402  0.1075  0.2843
 2096WAT     H2 6500   1.633   0.356   1.098  1.1179  0.0151  0.3350
 2097WAT      O 6501   0.285   0.090   1.042 -0.1749 -0.2413  0.2136
 2097WAT     H1 6502   0.189   0.087   1.043 -0.1942  0.3577  1.9440
 2097WAT     H2 6503   0.311   0.040   1.119  0.9302 -0.3579 -0.2178
 2098WAT      O 6504   3.779   3.443   0.914 -0.1186  0.4272  0.1108
 2098WAT     H1 6505   3.745   3.412   0.998 -2.2247  1.8834 -0.1120
 2098WAT     H2 6506   3.863   3.484   0.935  0.8422 -1.8554  0.9831
 2099WAT      O 6507   3.611   3.161   2.863  0.1181 -0.0327  0.4648
 2099WAT     H1 6508   3.627   3.082   2.812 -1.6140 -0.0837 -0.0503
 2099WAT     H2 6509   3.628   3.135   2.954  1.4150 -0.4465  0.1264
 2100WAT      O 6510   3.673   4.816   3.269  0.0898 -0.3048  0.2255
 2100WAT     H1 6511   3.714   4.902   3.264 -0.6456  0.2896  2.7244
 2100WAT     H2 6512   3.742   4.759   3.305  0.2149 -0.5006 -0.3120
 2101WAT      O 6513   2.650   3.497   2.499 -0.1338 -0.2012  0.0372
 2101WAT     H1 6514   2.586   3.519   2.566 -0.1230 -0.9205  0.2931
 2101WAT     H2 6515   2.634   3.404   2.481 -0.4394  0.0853 -1.2802
 2102WAT      O 6516   2.810   2.681   0.274 -0.5994  0.0933  0.0148
 2102WAT     H1 6517   2.848   2.696   0.361  0.3422  0.3218 -0.4300
 2102WAT     H2 6518   2.859   2.607   0.239 -0.6333  0.3187 -0.5216
 2103WAT      O 6519   2.181   4.712   2.324 -0.1676  0.2490 -0.1720
 2103WAT     H1 6520   2.158   4.631   2.278  0.8685 -0.8098  1.0813
 2103WAT     H2 6521   2.261   4.690   2.372  0.2409  2.0894  0.0608
 2104WAT      O 6522   1.395   3.639   3.659  0.0609  0.9675  0.3261
 2104WAT     H1 6523   1.300   3.651   3.657  0.0754  1.0360 -0.0475
 2104WAT     H2 6524   1.415   3.620   3.750 -0.6243 -1.5291  0.0263
 2105WAT      O 6525   1.198   4.872   2.748 -0.1943  0.4622  0.3295
 2105WAT     H1 6526   1.196   4.892   2.654 -1.5297 -1.3820 -0.0686
 2105WAT     H2 6527   1.198   4.958   2.790 -1.5867  1.3329 -1.3324
 2106WAT      O 6528   4.149   0.699   1.064  0.6859 -0.3267  0.4944
 2106WAT     H1 6529   4.082   0.660   1.119 -0.3593  0.5496 -0.1162
 2106WAT     H2 6530   4.109   0.780   1.031  1.8712 -0.0185 -0.2494
 2107WAT      O 6531   1.327   1.578   2.382 -0.1299 -0.3533  0.0538
 2107WAT     H1 6532   1.304   1.515   2.313 -0.1887 -0.7274  0.4111
 2107WAT     H2 6533   1.302   1.534   2.463  0.9004 -0.3416  0.3904
 2108WAT      O 6534   1.836   3.450   1.486  0.2446  0.4711 -1.3040
 2108WAT     H1 6535   1.789   3.528   1.516 -1.2332 -0.7159 -0.3713
 2108WAT     H2 6536   1.786   3.376   1.523  0.3908 -0.9918 -3.8089
 2109WAT      O 6537   4.163   3.778   4.025 -0.2614  0.3416  0.0453
 2109WAT     H1 6538   4.117   3.723   3.962  0.9303  0.1879 -0.7126
 2109WAT     H2 6539   4.139   3.868   4.001 -0.9448  0.2283  0.2854
 2110WAT      O 6540   3.690   5.048   0.706 -0.0370 -0.3849 -0.1695
 2110WAT     H1 6541   3.681   5.023   0.614 -0.6228 -3.5404  0.6358
 2110WAT     H2 6542   3.600   5.054   0.738  0.1043  2.2129 -0.0803
 2111WAT      O 6543   1.681   0.496   2.362 -0.0459 -0.5124 -0.4378
 2111WAT     H1 6544   1.776   0.488   2.353  0.0133 -0.1251 -0.1691
 2111WAT     H2 6545   1.660   0.452   2.445 -0.1777 -1.0981 -0.7702
 2112WAT      O 6546   4.226   3.788   0.343  0.2185 -0.3658  0.0155
 2112WAT     H1 6547   4.299   3.768   0.402  0.2229  1.2761  0.6251
 2112WAT     H2 6548   4.160   3.721   0.362  0.5838 -0.3970  1.2355
 2113WAT      O 6549   3.213   3.326   2.311 -0.4110 -0.1427 -0.0485
 2113WAT     H1 6550   3.245   3.412   2.283  1.4574  0.2853  2.9688
 2113WAT     H2 6551   3.256   3.264   2.252  0.3241  0.8408 -0.5705
 2114WAT      O 6552   1.679   0.130   1.802 -0.1766  0.2398 -0.2186
 2114WAT     H1 6553   1.731   0.164   1.875 -0.6504  2.1217 -0.6855
 2114WAT     H2 6554   1.624   0.062   1.840 -0.1646  0.9493  1.1182
 2115WAT      O 6555   4.501   0.138   1.723  0.2263 -0.4081 -0.1043
 2115WAT     H1 6556   4.569   0.189   1.679 -0.6933 -0.3644 -1.5131
 2115WAT     H2 6557   4.513   0.159   1.816  0.4219  1.7291 -0.5599
 2116WAT      O 6558   2.725   0.608   1.492 -0.2474  0.0100 -0.1621
 2116WAT     H1 6559   2.633   0.627   1.476 -0.0757 -0.1137 -1.4138
 2116WAT     H2 6560   2.748   0.543   1.425  0.1182 -1.8699  1.6959
 2117WAT      O 6561   2.404   3.826   0.603  0.3979  0.0013  0.0589
 2117WAT     H1 6562   2.416   3.918   0.581  0.2781  0.5076  1.9582
 2117WAT     H2 6563   2.333   3.797   0.545 -0.0390  1.2854 -0.0787
 2118WAT      O 6564   4.379   1.882   2.950 -0.2030  0.2904 -0.1714
 2118WAT     H1 6565   4.323   1.864   3.025 -0.1272 -0.8150 -0.3616
 2118WAT     H2 6566   4.387   1.798   2.905  0.9192  0.6104 -0.6204
 2119WAT      O 6567   0.742   4.839   3.759  0.0658  0.4494  0.2957
 2119WAT     H1 6568   0.704   4.900   3.696 -2.4717 -1.1986  0.0790
 2119WAT     H2 6569   0.779   4.769   3.705  0.8140  0.6242  0.5794
 2120WAT      O 6570   1.641   1.969   3.755  0.1852 -0.3930  0.1507
 2120WAT     H1 6571   1.700   1.894   3.766  0.3850 -0.6948 -2.4255
 2120WAT     H2 6572   1.654   1.997   3.664 -1.3262  1.5603  0.4630
 2121WAT      O 6573   4.324   1.724   0.310  0.0436  0.6137  0.4345
 2121WAT     H1 6574   4.286   1.776   0.239  1.5706  0.8095 -0.2862
 2121WAT     H2 6575   4.398   1.776   0.341  1.5058 -1.0187 -0.1801
 2122WAT      O 6576   4.473   3.215   1.421  0.0912 -0.2535  0.1282
 2122WAT     H1 6577   4.547   3.218   1.361  0.7968  0.6314  1.0057
 2122WAT     H2 6578   4.492   3.142   1.479  0.8058  0.5939  0.9856
 2123WAT      O 6579   0.874   3.239   4.424  0.3136 -0.0262 -0.0093
 2123WAT     H1 6580   0.858   3.212   4.334 -0.4585  0.1569  0.0711
 2123WAT     H2 6581   0.832   3.171   4.477 -0.0446  0.3597  0.2049
 2124WAT      O 6582   1.431   4.269   2.662  0.4068  0.2875  0.4668
 2124WAT     H1 6583   1.354   4.243   2.713 -1.3610  1.1198 -1.6220
 2124WAT     H2 6584   1.484   4.190   2.657 -1.7399 -1.2209 -0.4293
 2125WAT      O 6585   0.863   3.385   2.925  0.5320  0.2827 -0.6481
 2125WAT     H1 6586   0.894   3.454   2.867  0.0409  0.9599 -0.1265
 2125WAT     H2 6587   0.838   3.314   2.867  0.8467  0.6270 -1.2107
 2126WAT      O 6588   2.319   5.021   1.521 -0.2785 -0.3969  0.4356
 2126WAT     H1 6589   2.409   5.001   1.496 -0.8074 -2.1127 -0.2591
 2126WAT     H2 6590   2.325   5.046   1.613  0.9298 -0.2002  0.3267
 2127WAT      O 6591   3.914   5.013   1.679  0.3255  0.1094 -0.0327
 2127WAT     H1 6592   3.932   4.957   1.754 -0.8513  1.0712  0.9866
 2127WAT     H2 6593   3.993   5.005   1.625  1.8435  0.5830  2.0128
 2128WAT      O 6594   3.602   2.481   0.381 -0.1886  0.1923  0.1827
 2128WAT     H1 6595   3.667   2.540   0.344  0.0868  0.1335  0.5649
 2128WAT     H2 6596   3.646   2.396   0.386 -1.5506 -0.9313 -3.3834
 2129WAT      O 6597   1.889   0.121   4.288  0.6147 -0.2653 -0.4543
 2129WAT     H1 6598   1.892   0.214   4.307  1.0983 -0.9125  3.2779
 2129WAT     H2 6599   1.801   0.107   4.251  0.5911  1.6294 -1.2266
 2130WAT      O 6600   1.843   4.234   1.231 -0.2464 -0.5425 -0.3028
 2130WAT     H1 6601   1.872   4.323   1.254  0.1721 -0.7843  0.1239
 2130WAT     H2 6602   1.769   4.248   1.172 -1.0405  0.1152  0.8041
 2131WAT      O 6603   1.451   1.993   4.948 -0.5179 -0.0641  0.2059
 2131WAT     H1 6604   1.410   2.012   4.863 -0.2421 -0.4925 -0.0251
 2131WAT     H2 6605   1.543   2.016   4.935 -0.9224  2.4936  1.2183
 2132WAT      O 6606   3.399   4.867   2.029 -0.3186  0.1195 -0.4814
 2132WAT     H1 6607   3.374   4.948   2.074 -2.0497  0.7869 -2.4387
 2132WAT     H2 6608   3.487   4.886   1.994 -0.1810  0.6730  0.1383
 2133WAT      O 6609   0.585   1.015   0.396  0.1765 -0.1209  0.1099
 2133WAT     H1 6610   0.611   1.095   0.443  1.0577 -0.3586  0.0312
 2133WAT     H2 6611   0.494   1.001   0.424  0.3308  0.3467  0.9074
 2134WAT      O 6612   1.200   0.596   3.646 -0.1019  0.0932  0.3904
 2134WAT     H1 6613   1.180   0.641   3.564  0.0899  0.0295  0.3081
 2134WAT     H2 6614   1.289   0.623   3.667 -0.2712  0.3836  0.7611
 2135WAT      O 6615   1.846   1.989   0.842  0.5434 -0.2249 -0.2827
 2135WAT     H1 6616   1.934   1.982   0.880  0.1018 -1.7748  0.5498
 2135WAT     H2 6617   1.788   1.951   0.909 -0.9698  2.0625 -0.1998
 2136WAT      O 6618   1.965   3.192   0.825  0.1951 -0.0469  0.2436
 2136WAT     H1 6619   1.880   3.219   0.790  0.6115  1.7501  0.4934
 2136WAT     H2 6620   1.959   3.213   0.919  0.9632  0.2386  0.2294
 2137WAT      O 6621   1.251   3.924   1.292  0.0600  0.4411  0.3292
 2137WAT     H1 6622   1.344   3.941   1.274  0.2705 -0.6736  0.2973
 2137WAT     H2 6623   1.242   3.829   1.286 -1.6099  0.6781 -2.0503
 2138WAT      O 6624   4.426   4.724   0.033  0.2627 -0.0872  0.3556
 2138WAT     H1 6625   4.349   4.769   0.070  1.9046  2.9858  0.3601
 2138WAT     H2 6626   4.484   4.710   0.107  0.3560 -0.9938  0.1168
 2139WAT      O 6627   3.218   5.124   3.139  0.2403 -0.1334 -0.2210
 2139WAT     H1 6628   3.182   5.036   3.155  1.4717 -0.4696  0.9429
 2139WAT     H2 6629   3.301   5.107   3.094  1.0609  0.3255  1.0570
 2140WAT      O 6630   2.467   1.352   2.062  0.4075  0.1542  0.5449
 2140WAT     H1 6631   2.548   1.365   2.111 -0.0176  1.2543  0.9905
 2140WAT     H2 6632   2.493   1.361   1.970  0.6508  1.4682  0.7202
 2141WAT      O 6633   0.914   4.086   0.152  0.3697  0.4781 -0.2118
 2141WAT     H1 6634   0.935   4.091   0.059 -1.7450 -2.0114 -0.9508
 2141WAT     H2 6635   0.820   4.105   0.156  0.0998 -0.9516  1.1865
 2142WAT      O 6636   4.072   3.626   4.586  0.2097  0.8273 -0.5122
 2142WAT     H1 6637   4.101   3.619   4.495 -0.0652  1.3857 -0.6442
 2142WAT     H2 6638   4.131   3.567   4.634 -1.3624 -1.5851 -1.4025
 2143WAT      O 6639   3.380   1.465   2.930  0.3660 -0.1595  0.3857
 2143WAT     H1 6640   3.386   1.503   2.842  0.9213  1.2500  1.0011
 2143WAT     H2 6641   3.471   1.445   2.953  0.1297 -1.4703  0.2690
 2144WAT      O 6642   0.389   2.658   2.289  0.0305 -0.4958  0.3372
 2144WAT     H1 6643   0.377   2.586   2.226  0.9887 -1.6636  1.4196
 2144WAT     H2 6644   0.468   2.702   2.259  0.4720 -1.0357  0.6734
 2145WAT      O 6645   0.476   2.610   5.072  0.9719 -0.2524  0.1353
 2145WAT     H1 6646   0.477   2.531   5.127 -1.5242 -0.6209 -0.2202
 2145WAT     H2 6647   0.450   2.578   4.985  0.0082  0.9061 -0.0352
 2146WAT      O 6648   0.869   0.218   3.691 -0.0478 -0.5945 -0.1079
 2146WAT     H1 6649   0.822   0.273   3.753  1.2270  1.5202 -0.8959
 2146WAT     H2 6650   0.811   0.212   3.615  0.1395  0.3928 -0.3383
 2147WAT      O 6651   3.891   2.508   2.763  0.0388  0.4470 -0.5912
 2147WAT     H1 6652   3.810   2.488   2.810 -0.0173 -0.9506 -1.2460
 2147WAT     H2 6653   3.958   2.510   2.832 -0.3383  0.2751 -0.2121
 2148WAT      O 6654   1.297   4.267   2.171 -0.8973 -0.0702  0.6205
 2148WAT     H1 6655   1.386   4.234   2.174 -0.9030 -0.2097 -0.2787
 2148WAT     H2 6656   1.287   4.318   2.251 -0.3435 -0.8679  1.2020
 2149WAT      O 6657   3.533   4.440   0.768 -0.4323  0.4050 -0.1478
 2149WAT     H1 6658   3.583   4.522   0.766  3.7334 -1.8707  0.7675
 2149WAT     H2 6659   3.530   4.412   0.676  2.0081 -0.3857 -0.0700
 2150WAT      O 6660   3.877   3.785   1.815  0.0475 -0.0126  0.3122
 2150WAT     H1 6661   3.905   3.876   1.802  0.5566 -0.2968 -0.7588
 2150WAT     H2 6662   3.958   3.736   1.821 -0.1887 -0.6555 -1.2884
 2151WAT      O 6663   0.476   4.000   0.888  0.0365 -0.0792  0.2558
 2151WAT     H1 6664   0.506   3.933   0.950  0.5527  0.6409  0.7869
 2151WAT     H2 6665   0.389   4.024   0.919 -0.0246 -0.2801  0.2422
 2152WAT      O 6666   1.938   3.511   0.522  0.4432 -0.6185  0.7859
 2152WAT     H1 6667   1.956   3.522   0.429  1.3279 -0.3955  0.9787
 2152WAT     H2 6668   1.994   3.440   0.550  3.0063  1.6549  1.9178
 2153WAT      O 6669   3.833   0.363   4.839 -0.4634 -0.3238  0.8911
 2153WAT     H1 6670   3.783   0.294   4.795 -0.8261  0.3156  0.2792
 2153WAT     H2 6671   3.846   0.429   4.771  1.3600 -0.5341  0.9897
 2154WAT      O 6672   1.802   1.257   3.814 -0.0276  0.0443  0.3310
 2154WAT     H1 6673   1.869   1.189   3.810  0.2967  0.4126 -0.7465
 2154WAT     H2 6674   1.730   1.223   3.761  0.4285  0.8360 -0.8373
 2155WAT      O 6675   0.289   2.454   3.257  0.3048  0.1217 -0.0232
 2155WAT     H1 6676   0.329   2.375   3.294 -0.2206  0.0541  0.4130
 2155WAT     H2 6677   0.347   2.525   3.285 -1.0123  0.3152  2.5617
 2156WAT      O 6678   2.176   1.359   1.998  0.0514  0.1887  0.2288
 2156WAT     H1 6679   2.266   1.384   2.021  0.2258  0.5211 -0.7625
 2156WAT     H2 6680   2.122   1.400   2.065  0.6596 -0.3027  1.0394
 2157WAT      O 6681   2.363   1.465   3.744  0.0931 -0.6683  0.4642
 2157WAT     H1 6682   2.437   1.460   3.683  1.9260  0.8143  2.3942
 2157WAT     H2 6683   2.322   1.550   3.726  0.1090 -0.6102  0.6893
 2158WAT      O 6684   1.809   4.873   4.228 -0.3113  0.0076  0.5192
 2158WAT     H1 6685   1.751   4.808   4.268 -0.9207 -1.3562 -2.2686
 2158WAT     H2 6686   1.755   4.952   4.222  0.1776  0.6197  3.2486
 2159WAT      O 6687   3.774   1.180   4.532 -0.0844 -0.1756  0.2221
 2159WAT     H1 6688   3.693   1.200   4.486 -0.6678 -1.3012  0.7211
 2159WAT     H2 6689   3.835   1.154   4.463 -0.5466 -0.5571 -0.0550
 2160WAT      O 6690   4.298   4.424   3.196 -0.1593 -0.2716  0.4724
 2160WAT     H1 6691   4.383   4.462   3.173 -0.0229  0.6298  2.3355
 2160WAT     H2 6692   4.243   4.440   3.118  1.0208  0.2015 -0.2854
 2161WAT      O 6693   0.659   4.629   3.143  0.4037  0.0326  0.5063
 2161WAT     H1 6694   0.698   4.715   3.131  2.9969 -0.8495  1.7693
 2161WAT     H2 6695   0.646   4.621   3.238  0.5956 -1.0751  0.4605
 2162WAT      O 6696   4.146   5.068   5.023 -0.3259 -0.0443 -0.0465
 2162WAT     H1 6697   4.178   4.983   5.053  0.6996  0.3354 -0.0283
 2162WAT     H2 6698   4.206   5.132   5.062 -1.6791  0.7739  0.7671
 2163WAT      O 6699   4.229   2.246   2.918  0.4281 -0.4298 -0.3853
 2163WAT     H1 6700   4.324   2.249   2.927  0.5656 -1.2447 -1.3012
 2163WAT     H2 6701   4.213   2.169   2.863 -0.7632 -0.3126 -0.2357
 2164WAT      O 6702   1.721   1.107   4.431 -0.1977  0.0400  0.6123
 2164WAT     H1 6703   1.795   1.048   4.432 -1.1122 -1.1506  1.9422
 2164WAT     H2 6704   1.739   1.169   4.503  1.2132  2.0729 -1.3542
 2165WAT      O 6705   1.657   2.553   1.295  0.0636  0.2897 -0.3358
 2165WAT     H1 6706   1.682   2.566   1.203 -0.8053 -1.3643 -0.8670
 2165WAT     H2 6707   1.610   2.469   1.294  0.6215 -0.0917  1.7437
 2166WAT      O 6708   1.622   0.029   3.233  0.2205 -0.0642  0.4984
 2166WAT     H1 6709   1.658   0.094   3.294 -0.4768 -0.0846  0.9487
 2166WAT     H2 6710   1.684   0.027   3.161  0.3661  0.9560  0.5708
 2167WAT      O 6711   0.332   2.172   1.599  0.5375  0.0013 -0.1953
 2167WAT     H1 6712   0.262   2.161   1.534  1.1619 -0.9321 -0.7243
 2167WAT     H2 6713   0.353   2.083   1.627  2.4817  0.1404 -1.0830
 2168WAT      O 6714   1.190   1.131   0.741  0.2092 -0.0863 -0.0084
 2168WAT     H1 6715   1.107   1.088   0.722  0.5583 -0.4199 -0.8363
 2168WAT     H2 6716   1.237   1.068   0.796 -0.5615  0.6270  1.5375
 2169WAT      O 6717   0.054   4.161   4.915  0.1811 -0.1940 -0.2911
 2169WAT     H1 6718   0.057   4.066   4.926  1.5437 -0.1812 -0.3857
 2169WAT     H2 6719   0.007   4.192   4.992 -2.5881 -1.0813 -1.4848
 2170WAT      O 6720   0.741   3.271   1.849 -0.6261 -0.1225  0.3508
 2170WAT     H1 6721   0.717   3.359   1.880  1.4035  0.9788 -0.9339
 2170WAT     H2 6722   0.801   3.238   1.915 -0.1506  0.1433  0.0569
 2171WAT      O 6723   2.852   5.096   0.783 -0.0687 -0.1435 -0.6018
 2171WAT     H1 6724   2.776   5.077   0.728 -0.5151  1.3606 -0.5392
 2171WAT     H2 6725   2.834   5.182   0.820  1.1181 -0.2934  0.3834
 2172WAT      O 6726   1.122   1.864   0.440  0.4792  0.2212  0.1527
 2172WAT     H1 6727   1.041   1.915   0.436 -0.8360 -1.6162  1.3641
 2172WAT     H2 6728   1.117   1.806   0.365 -0.6934 -1.6607  1.5820
 2173WAT      O 6729   2.202   4.362   0.270 -0.3333  0.0599 -0.4034
 2173WAT     H1 6730   2.239   4.377   0.357 -0.5751 -0.9406 -0.1100
 2173WAT     H2 6731   2.263   4.301   0.228 -0.3616  0.3242 -0.8377
 2174WAT      O 6732   2.548   3.465   0.054 -0.1050  0.7180  0.1477
 2174WAT     H1 6733   2.559   3.472   0.148 -1.1958 -0.0861  0.3617
 2174WAT     H2 6734   2.556   3.371   0.036 -2.3579  0.5302 -0.1717
 2175WAT      O 6735   1.806   2.043   0.395  0.6199  0.1280  0.1569
 2175WAT     H1 6736   1.716   2.070   0.415  0.2902 -1.1501  0.5182
 2175WAT     H2 6737   1.803   2.015   0.303  0.1417 -1.7617  0.7009
 2176WAT      O 6738   2.318   3.309   2.176  0.2944 -0.3793 -0.3719
 2176WAT     H1 6739   2.321   3.234   2.235  3.5493  0.4535  0.7633
 2176WAT     H2 6740   2.358   3.278   2.095  0.0421 -0.3139 -0.5234
 2177WAT      O 6741   1.658   3.471   3.840 -0.0447 -0.3515  0.1773
 2177WAT     H1 6742   1.631   3.490   3.931  0.5874  0.6202  0.1821
 2177WAT     H2 6743   1.675   3.377   3.839 -0.9290 -0.5366  0.8301
 2178WAT      O 6744   1.199   0.318   0.626 -0.3361  0.4024 -0.3388
 2178WAT     H1 6745   1.219   0.246   0.686  1.9493 -0.6497 -2.1682
 2178WAT     H2 6746   1.281   0.367   0.620 -0.5016  0.5325 -2.4264
 2179WAT      O 6747   0.930   2.087   5.075  0.2146 -0.0373 -1.0626
 2179WAT     H1 6748   0.836   2.101   5.079  0.1927 -0.4684 -0.0512
 2179WAT     H2 6749   0.943   1.998   5.105  1.2360  1.1549  2.4402
 2180WAT      O 6750   2.979   1.707   4.625  0.0960  0.0120  0.5486
 2180WAT     H1 6751   3.045   1.705   4.694  1.1744 -1.4290 -0.4836
 2180WAT     H2 6752   2.899   1.737   4.670  1.0286  0.1947  2.1630
 2181WAT      O 6753   0.617   1.767   0.239  0.0019 -0.0727 -0.1399
 2181WAT     H1 6754   0.632   1.678   0.209  2.4157  0.2578 -0.1373
 2181WAT     H2 6755   0.663   1.773   0.323 -1.4136  0.7764  0.6340
 2182WAT      O 6756   3.206   2.063   3.789 -0.1231 -0.4228 -0.5612
 2182WAT     H1 6757   3.292   2.105   3.788 -0.2177  0.0129  2.1546
 2182WAT     H2 6758   3.146   2.131   3.759  0.1316  0.3365  0.5915
 2183WAT      O 6759   2.573   1.243   2.347 -0.5948 -0.0523  0.1029
 2183WAT     H1 6760   2.594   1.191   2.270  1.5110 -0.6641  1.0277
 2183WAT     H2 6761   2.652   1.294   2.364 -2.0771  2.4296  0.0956
 2184WAT      O 6762   4.263   3.068   0.818 -0.3385 -0.1882  0.0592
 2184WAT     H1 6763   4.305   3.146   0.781 -1.3068 -0.2704 -1.3226
 2184WAT     H2 6764   4.172   3.073   0.787 -0.6808 -1.3186  0.8238
 2185WAT      O 6765   0.012   4.977   5.021  0.1447  0.5375  0.5422
 2185WAT     H1 6766   0.078   4.914   4.992  0.4031  0.8255  0.5082
 2185WAT     H2 6767   0.062   5.055   5.045 -0.1538  0.6391  0.8313
 2186WAT      O 6768   1.049   4.446   0.894 -0.0590  0.0806 -0.0364
 2186WAT     H1 6769   1.021   4.392   0.820  0.1433 -1.0799  0.7096
 2186WAT     H2 6770   1.089   4.384   0.955 -0.4099  0.9780  1.1439
 2187WAT      O 6771   2.856   0.853   4.286  0.1210  0.2311  0.0818
 2187WAT     H1 6772   2.843   0.825   4.376 -1.9960  0.4824 -0.0832
 2187WAT     H2 6773   2.769   0.885   4.258  0.4728 -0.6851 -2.3180
 2188WAT      O 6774   1.055   2.889   0.595 -0.7483 -0.1808 -0.0982
 2188WAT     H1 6775   1.020   2.810   0.554  0.2202  0.0108 -1.3534
 2188WAT     H2 6776   1.143   2.898   0.559 -0.3595  0.7533  1.0273
 2189WAT      O 6777   1.912   1.736   4.187 -0.5327 -0.4949 -0.2614
 2189WAT     H1 6778   1.899   1.784   4.269  0.7902 -0.0147 -0.3099
 2189WAT     H2 6779   1.892   1.645   4.210  3.0864 -1.0114  1.5947
 2190WAT      O 6780   0.111   1.035   2.799  0.2453 -0.3156  0.2673
 2190WAT     H1 6781   0.152   1.121   2.810  1.1620 -0.7342  0.2355
 2190WAT     H2 6782   0.085   1.032   2.707  1.0009 -0.3952  0.0470
 2191WAT      O 6783   1.695   3.856   0.832  0.1334  0.2444 -0.4055
 2191WAT     H1 6784   1.625   3.820   0.886  0.2683  1.1339  0.3809
 2191WAT     H2 6785   1.749   3.780   0.810 -1.0055 -0.4402 -0.9474
 2192WAT      O 6786   4.450   3.834   2.465 -0.1489  0.1400  0.1465
 2192WAT     H1 6787   4.471   3.876   2.548 -2.0297  3.0755 -0.7120
 2192WAT     H2 6788   4.375   3.778   2.485 -0.1163  0.2440  0.5659
 2193WAT      O 6789   0.255   1.963   4.618 -0.0178  0.3159 -0.4170
 2193WAT     H1 6790   0.317   1.991   4.685  0.1327 -2.0067  0.5146
 2193WAT     H2 6791   0.275   2.016   4.542  0.9829  1.8106  0.8417
 2194WAT      O 6792   3.133   0.591   0.699 -0.2921  0.4522  0.5255
 2194WAT     H1 6793   3.129   0.670   0.646  0.9252  0.8136  0.9634
 2194WAT     H2 6794   3.130   0.519   0.635 -2.0714  0.7954  0.1601
 2195WAT      O 6795   1.710   0.155   3.458 -0.8350 -0.1614  0.2665
 2195WAT     H1 6796   1.771   0.092   3.498 -2.3849 -1.1039  1.2745
 2195WAT     H2 6797   1.673   0.202   3.532 -0.1370  1.5953 -0.4474
 2196WAT      O 6798   2.409   3.570   2.627 -0.4358 -0.3969 -0.1007
 2196WAT     H1 6799   2.333   3.610   2.583 -0.6004 -1.0928 -0.4703
 2196WAT     H2 6800   2.398   3.592   2.719  0.1123  1.4124 -0.4403
 2197WAT      O 6801   0.981   1.404   4.370  0.1686  0.3745 -0.7899
 2197WAT     H1 6802   0.998   1.458   4.447  0.7292 -1.9384  0.8130
 2197WAT     H2 6803   1.042   1.437   4.304  1.0849  1.1738  0.4017
 2198WAT      O 6804   2.691   0.057   3.135 -0.5337  0.1135 -0.5586
 2198WAT     H1 6805   2.629  -0.015   3.129  0.9648 -1.2515 -0.1531
 2198WAT     H2 6806   2.768   0.027   3.087 -0.1028  1.7123 -0.9287
 2199WAT      O 6807   0.192   3.720   5.273 -0.3352  0.5923  0.4443
 2199WAT     H1 6808   0.242   3.787   5.320 -1.3796 -0.0917  2.6927
 2199WAT     H2 6809   0.236   3.638   5.295 -0.4457  0.3065 -0.3757
 2200WAT      O 6810   1.711   2.703   1.827 -0.5383 -0.3605  0.3484
 2200WAT     H1 6811   1.632   2.748   1.796  0.3471  0.6497 -0.5187
 2200WAT     H2 6812   1.773   2.711   1.755  0.3034 -1.2951  0.9521
 2201WAT      O 6813   1.270   0.019   1.642  0.3589 -0.0667  0.1384
 2201WAT     H1 6814   1.268   0.070   1.560  0.8369 -0.6488 -0.2457
 2201WAT     H2 6815   1.199   0.056   1.694  0.0513  0.3297 -0.5346
 2202WAT      O 6816   3.163   1.366   4.461  0.4609  0.3073 -0.9457
 2202WAT     H1 6817   3.143   1.458   4.446  1.7879  0.8214  0.1491
 2202WAT     H2 6818   3.259   1.362   4.458  0.4704 -0.8200  0.1122
 2203WAT      O 6819   2.022   0.789   4.103 -0.1617  0.5792  0.0075
 2203WAT     H1 6820   1.938   0.748   4.124 -0.1625 -0.0061 -1.0953
 2203WAT     H2 6821   2.078   0.716   4.076  0.1505  1.1723 -0.9959
 2204WAT      O 6822   3.602   5.137   3.901  0.0182  0.1549  0.1204
 2204WAT     H1 6823   3.599   5.077   3.976  1.1928  0.4847  0.4498
 2204WAT     H2 6824   3.561   5.217   3.932  0.0989  0.1362  0.2758
 2205WAT      O 6825   3.183   0.641   4.867  0.2699  0.3303 -0.3831
 2205WAT     H1 6826   3.188   0.662   4.960 -1.2280  0.3319 -0.2804
 2205WAT     H2 6827   3.143   0.554   4.865  1.3401 -0.1678 -1.0000
 2206WAT      O 6828   4.087   2.718   4.658  0.0308  0.0580  0.1655
 2206WAT     H1 6829   4.058   2.629   4.678 -0.3595 -0.0855 -0.9924
 2206WAT     H2 6830   4.119   2.713   4.568  1.9541  0.6271  0.7725
 2207WAT      O 6831   2.500   0.842   1.201  0.0492 -0.1071  0.3091
 2207WAT     H1 6832   2.489   0.765   1.257 -1.5910  0.7921  1.3055
 2207WAT     H2 6833   2.574   0.889   1.239 -1.0364  0.4900  1.8218
 2208WAT      O 6834   3.952   0.246   0.784 -0.2592  0.1089  0.1696
 2208WAT     H1 6835   3.984   0.302   0.713 -1.5951 -0.1223 -0.6640
 2208WAT     H2 6836   3.867   0.215   0.753  0.1016 -1.7984  0.9361
 2209WAT      O 6837   2.162   2.989   2.911 -0.0609 -0.5478 -0.3130
 2209WAT     H1 6838   2.163   2.942   2.828  1.3540  0.6644 -1.0242
 2209WAT     H2 6839   2.148   3.080   2.887 -0.9821 -0.3446  0.8983
 2210WAT      O 6840   1.706   2.797   3.191  0.5032  0.0791  0.6750
 2210WAT     H1 6841   1.666   2.805   3.278 -0.8895 -0.0509  0.0655
 2210WAT     H2 6842   1.723   2.703   3.181 -2.6218 -0.4548 -0.5617
 2211WAT      O 6843   0.065   1.900   0.877  0.4414  0.2656 -0.2160
 2211WAT     H1 6844   0.002   1.832   0.897  0.5314  0.7104  1.8451
 2211WAT     H2 6845   0.036   1.937   0.794 -1.1388 -0.5126 -0.0336
 2212WAT      O 6846   3.183   4.115   1.837  0.3853  0.1286  0.2585
 2212WAT     H1 6847   3.200   4.209   1.838  0.5572  0.0929  0.7777
 2212WAT     H2 6848   3.269   4.074   1.845  0.2472 -0.0677  0.7523
 2213WAT      O 6849   0.071   0.591   0.277 -0.0148  0.3458 -0.1819
 2213WAT     H1 6850   0.087   0.622   0.366 -0.9767  0.8731 -0.1835
 2213WAT     H2 6851   0.026   0.508   0.288  1.1262 -0.2935 -0.1854
 2214WAT      O 6852   2.346   4.698   3.281 -0.4839 -0.0584 -0.1677
 2214WAT     H1 6853   2.361   4.659   3.367 -0.9937 -0.0606 -0.0787
 2214WAT     H2 6854   2.404   4.648   3.222  0.3876  0.4075  0.2796
 2215WAT      O 6855   0.411   2.973   4.880 -0.2002 -0.6658  0.3716
 2215WAT     H1 6856   0.479   2.920   4.837 -0.0327  0.6128 -1.0270
 2215WAT     H2 6857   0.368   3.020   4.808 -0.8877  0.4604  1.4767
 2216WAT      O 6858   0.565   2.570   1.819  0.1179  0.0655  0.0240
 2216WAT     H1 6859   0.520   2.486   1.815 -0.3161  0.2690  0.4362
 2216WAT     H2 6860   0.607   2.571   1.905 -0.0308  0.3421  0.0949
 2217WAT      O 6861   4.448   2.427   1.408 -0.2942  0.0194  0.8446
 2217WAT     H1 6862   4.353   2.423   1.404 -0.3242  1.5309 -1.3460
 2217WAT     H2 6863   4.466   2.481   1.485 -1.1703 -0.2307  1.2425
 2218WAT      O 6864   2.182   3.925   1.958  0.2688  0.0416 -0.5643
 2218WAT     H1 6865   2.118   3.886   1.899  0.5196  1.6601 -1.9689
 2218WAT     H2 6866   2.267   3.895   1.925  0.4231  1.1532 -1.1830
 2219WAT      O 6867   0.411   5.074   0.831 -0.7331 -0.4844 -0.4014
 2219WAT     H1 6868   0.390   5.105   0.743 -0.3067  0.6451 -0.1125
 2219WAT     H2 6869   0.397   5.149   0.888  2.1485 -0.1663  0.0588
 2220WAT      O 6870   3.304   4.342   0.885 -0.1353  0.4489  0.3578
 2220WAT     H1 6871   3.230   4.342   0.825 -0.5469 -0.3890  0.8481
 2220WAT     H2 6872   3.377   4.374   0.833 -0.5176 -0.1179 -0.5451
 2221WAT      O 6873   3.602   1.514   2.412 -0.0738 -0.5814 -0.4317
 2221WAT     H1 6874   3.616   1.608   2.406 -0.8595 -0.4702 -0.6077
 2221WAT     H2 6875   3.617   1.482   2.323  3.3973 -1.1179  0.1902
 2222WAT      O 6876   3.273   3.761   1.639  0.3979 -0.3239 -0.1498
 2222WAT     H1 6877   3.235   3.841   1.604  0.0930 -0.5140 -0.2556
 2222WAT     H2 6878   3.361   3.787   1.668 -0.0641  0.2784  0.7390
 2223WAT      O 6879   2.583   3.445   4.814  0.3808 -1.1634  0.5475
 2223WAT     H1 6880   2.658   3.448   4.873  0.7607  1.4548  0.0206
 2223WAT     H2 6881   2.507   3.463   4.870  0.7286  1.1932  0.3521
 2224WAT      O 6882   3.945   0.828   0.433  0.3139 -0.1957 -0.4724
 2224WAT     H1 6883   3.903   0.828   0.347  0.7979 -2.1683 -0.7734
 2224WAT     H2 6884   3.882   0.872   0.491 -0.7343 -0.2528 -1.5329
 2225WAT      O 6885   3.720   1.181   4.022 -0.2062  0.8748 -0.2074
 2225WAT     H1 6886   3.815   1.178   4.027 -0.2704 -1.2294  0.7487
 2225WAT     H2 6887   3.701   1.263   3.978  1.9956  1.9749  0.7510
 2226WAT      O 6888   1.755   4.151   3.609 -0.2584  0.3841  0.1132
 2226WAT     H1 6889   1.692   4.195   3.553  1.0256 -0.2138 -1.9047
 2226WAT     H2 6890   1.727   4.173   3.698 -3.1563  0.2811 -0.6715
 2227WAT      O 6891   1.822   1.609   2.415  0.9162  0.0401 -0.3947
 2227WAT     H1 6892   1.763   1.565   2.354 -2.2391  1.4021  1.4352
 2227WAT     H2 6893   1.831   1.698   2.381  0.5434  0.3098  0.1994
 2228WAT      O 6894   3.983   0.994   5.045 -0.2242  0.2077 -1.0562
 2228WAT     H1 6895   3.889   1.004   5.033 -0.6295 -2.0809 -0.3152
 2228WAT     H2 6896   3.991   0.942   5.125  1.6065 -0.6277 -1.7266
 2229WAT      O 6897   3.129   2.749   3.858 -0.4586 -0.2150 -0.0159
 2229WAT     H1 6898   3.041   2.730   3.825  0.0602 -0.7597 -1.1357
 2229WAT     H2 6899   3.125   2.840   3.884 -0.6661  0.5809 -2.5375
 2230WAT      O 6900   1.775   1.288   1.067 -0.4420  0.0635  0.3722
 2230WAT     H1 6901   1.868   1.275   1.084 -0.4589  1.2831  1.5810
 2230WAT     H2 6902   1.764   1.383   1.068 -1.3328  0.0530 -1.9959
 2231WAT      O 6903   3.484   5.052   1.583  0.1025 -0.7253 -0.6669
 2231WAT     H1 6904   3.458   5.141   1.605  1.9729 -0.5821  1.2189
 2231WAT     H2 6905   3.543   5.062   1.508 -0.8322 -0.5479 -1.3971
 2232WAT      O 6906   0.029   2.213   3.715  0.3506  0.2003  0.8413
 2232WAT     H1 6907   0.101   2.151   3.727 -0.4886 -0.8900  0.3148
 2232WAT     H2 6908  -0.049   2.159   3.705 -0.6416  1.3722  1.8860
 2233WAT      O 6909   4.288   0.989   0.427  0.1686 -0.4402 -0.6345
 2233WAT     H1 6910   4.293   0.934   0.349  0.3049 -0.2635 -0.7493
 2233WAT     H2 6911   4.229   1.060   0.403 -0.7417 -1.0118 -0.1943
 2234WAT      O 6912   3.928   1.755   0.246  0.2675  0.3073 -0.3801
 2234WAT     H1 6913   3.915   1.844   0.278  0.8363  0.9228 -1.7427
 2234WAT     H2 6914   3.850   1.736   0.194  0.4766  0.3069 -0.6990
 2235WAT      O 6915   3.292   3.609   4.184  0.3705  0.4510 -0.4120
 2235WAT     H1 6916   3.260   3.583   4.098 -1.0396  2.3107 -0.5164
 2235WAT     H2 6917   3.357   3.677   4.166 -0.0841  1.0026 -0.0328
 2236WAT      O 6918   0.259   2.505   0.249 -0.3188  0.1958  0.4699
 2236WAT     H1 6919   0.274   2.416   0.218  0.3526  0.6451 -0.5297
 2236WAT     H2 6920   0.183   2.497   0.307 -0.1439 -1.0532  0.5597
 2237WAT      O 6921   1.314   0.977   3.136  0.3696  0.2325  0.6657
 2237WAT     H1 6922   1.234   0.978   3.083  0.1534  0.1415  0.9923
 2237WAT     H2 6923   1.328   0.885   3.158  0.2846  0.3072  1.0344
 2238WAT      O 6924   2.371   2.233   5.113  0.3600 -0.2951  0.1702
 2238WAT     H1 6925   2.368   2.138   5.124  0.2102 -0.4897 -1.2907
 2238WAT     H2 6926   2.288   2.255   5.071  1.0646  0.2341 -1.0147
 2239WAT      O 6927   2.434   2.955   0.890 -0.8525 -0.0735 -0.1109
 2239WAT     H1 6928   2.343   2.953   0.921 -0.8050 -0.4971  0.0069
 2239WAT     H2 6929   2.473   3.028   0.936 -1.2893  0.4825 -0.6043
 2240WAT      O 6930   0.411   4.531   1.982 -0.2089 -0.0763 -0.8382
 2240WAT     H1 6931   0.448   4.591   1.917 -0.3213 -0.0081 -0.8379
 2240WAT     H2 6932   0.443   4.564   2.066  0.3284 -0.4424 -0.8955
 2241WAT      O 6933   2.672   1.063   2.949  0.3609  0.1136  0.0673
 2241WAT     H1 6934   2.653   1.123   3.021  0.4557 -0.9947  1.0414
 2241WAT     H2 6935   2.589   1.019   2.933  0.5028 -0.1004 -0.0761
 2242WAT      O 6936   3.372   4.549   2.768 -0.5227 -0.4091 -0.7136
 2242WAT     H1 6937   3.418   4.572   2.849 -2.2613 -0.6749  0.4047
 2242WAT     H2 6938   3.389   4.456   2.757 -1.2755 -0.6503  0.0508
 2243WAT      O 6939   2.082   2.977   1.398 -0.0553  0.0572 -0.2071
 2243WAT     H1 6940   1.992   2.978   1.365 -0.2812 -0.3637  0.3648
 2243WAT     H2 6941   2.079   3.029   1.478 -0.6399 -2.7832  1.8090
 2244WAT      O 6942   1.819   1.766   4.995 -0.0119 -0.0497 -0.2160
 2244WAT     H1 6943   1.780   1.790   4.910 -0.4204  0.8415  0.2063
 2244WAT     H2 6944   1.857   1.680   4.980 -1.7919 -0.7923 -0.7781
 2245WAT      O 6945   4.123   3.247   0.312 -0.2684  0.1276  0.3651
 2245WAT     H1 6946   4.137   3.199   0.230 -1.5901 -0.5255  0.4916
 2245WAT     H2 6947   4.208   3.248   0.355  0.5452  0.8553 -1.2032
 2246WAT      O 6948   0.628   1.837   4.107 -0.0075  0.3846 -0.3053
 2246WAT     H1 6949   0.619   1.742   4.111 -0.0582  0.4190  1.0169
 2246WAT     H2 6950   0.638   1.864   4.198 -0.3195  1.6794 -0.6252
 2247WAT      O 6951   4.101   3.971   2.567  0.2872 -0.1735  0.0353
 2247WAT     H1 6952   4.141   4.055   2.545 -0.5504  0.6509  1.5279
 2247WAT     H2 6953   4.010   3.992   2.586  0.4756 -1.1132  2.2058
 2248WAT      O 6954   3.878   0.809   2.377 -0.6467 -0.0880  0.3520
 2248WAT     H1 6955   3.842   0.872   2.439 -0.9382  0.8156 -0.7095
 2248WAT     H2 6956   3.805   0.787   2.319 -0.1684 -0.2695 -0.1918
 2249WAT      O 6957   2.439   0.836   3.740  0.3317  0.1074 -0.3561
 2249WAT     H1 6958   2.425   0.746   3.709 -1.3088  0.0258  0.5379
 2249WAT     H2 6959   2.533   0.850   3.730  0.6226 -1.7167 -0.4847
 2250WAT      O 6960   0.609   0.496   0.661 -0.0126  0.1920 -0.4130
 2250WAT     H1 6961   0.537   0.493   0.723 -1.7100 -1.5502 -2.3283
 2250WAT     H2 6962   0.595   0.577   0.612 -1.0651 -0.4332 -1.1779
 2251WAT      O 6963   2.624   2.267   2.967  0.4065  0.2262  0.7108
 2251WAT     H1 6964   2.576   2.272   3.050 -1.1086 -1.8125  0.0236
 2251WAT     H2 6965   2.712   2.240   2.992  0.6230  1.8165  1.8055
 2252WAT      O 6966   0.882   4.212   1.428 -0.6200  0.3708 -0.1111
 2252WAT     H1 6967   0.797   4.200   1.469  0.1195  1.6248  1.9205
 2252WAT     H2 6968   0.862   4.248   1.341 -2.1543  2.5842  1.0698
 2253WAT      O 6969   1.696   4.856   1.566  0.0532  0.1141  0.0086
 2253WAT     H1 6970   1.645   4.784   1.603 -1.7333  0.5249 -1.5016
 2253WAT     H2 6971   1.731   4.902   1.642 -0.5830 -1.0598  1.0588
 2254WAT      O 6972   3.967   4.171   4.703  0.3740 -0.3693 -0.3389
 2254WAT     H1 6973   3.957   4.092   4.649 -0.7156 -0.7529  0.3943
 2254WAT     H2 6974   3.961   4.140   4.793  0.3212  0.5073 -0.0284
 2255WAT      O 6975   4.494   4.149   0.796  0.0850  0.1153  0.3031
 2255WAT     H1 6976   4.529   4.238   0.790  1.3436 -0.3618  0.3944
 2255WAT     H2 6977   4.401   4.159   0.776  0.2101  1.4501  0.2943
 2256WAT      O 6978   1.604   3.007   0.273 -0.0120 -0.3125 -0.1687
 2256WAT     H1 6979   1.548   3.021   0.349  0.2964 -1.0920  0.2216
 2256WAT     H2 6980   1.545   2.983   0.202 -0.2945  0.3387 -0.1559
 2257WAT      O 6981   2.270   0.961   4.959  0.0640 -0.3826 -0.1610
 2257WAT     H1 6982   2.268   0.958   4.864  0.2234 -0.3713 -0.1648
 2257WAT     H2 6983   2.259   1.053   4.981  3.8558  0.2674 -0.2776
 2258WAT      O 6984   3.528   3.752   1.732  0.4271 -0.0175  0.0507
 2258WAT     H1 6985   3.569   3.667   1.719  1.4998  0.6230 -0.9558
 2258WAT     H2 6986   3.593   3.804   1.778  0.5248  0.8048 -0.9590
 2259WAT      O 6987   1.431   1.773   1.585  0.2842 -0.1388  0.0910
 2259WAT     H1 6988   1.423   1.760   1.679  0.7905 -2.0949 -0.0941
 2259WAT     H2 6989   1.407   1.688   1.547 -2.6289  1.3419 -1.7255
 2260WAT      O 6990   1.837   2.977   3.961  0.5572 -0.5051 -0.2148
 2260WAT     H1 6991   1.898   3.032   4.011  0.9390 -2.7655  1.9752
 2260WAT     H2 6992   1.773   2.948   4.025 -2.0069  0.4807 -2.1356
 2261WAT      O 6993   0.665   2.577   0.542 -0.2595  0.3757  0.1847
 2261WAT     H1 6994   0.667   2.655   0.597  0.5531  0.4561  0.0588
 2261WAT     H2 6995   0.749   2.578   0.496  0.0400 -0.9042  0.6475
 2262WAT      O 6996   0.410   1.001   2.652  0.0015 -0.0270  0.3578
 2262WAT     H1 6997   0.399   1.094   2.630 -1.0354 -0.2345 -0.0393
 2262WAT     H2 6998   0.465   1.002   2.730 -1.4176  1.0183  1.3966
 2263WAT      O 6999   0.179   1.181   3.699  0.0164 -0.1931  0.0374
 2263WAT     H1 7000   0.186   1.276   3.689  0.2122 -0.1934  0.1602
 2263WAT     H2 7001   0.098   1.168   3.748 -1.0047 -0.2033 -1.5954
 2264WAT      O 7002   4.118   0.520   5.247 -0.0649 -0.2906  1.0397
 2264WAT     H1 7003   4.167   0.562   5.176 -0.7993  0.3109  0.8819
 2264WAT     H2 7004   4.152   0.560   5.327 -0.0905 -0.0891  0.9487
 2265WAT      O 7005   2.269   3.804   4.010 -0.1412  0.5000  0.8480
 2265WAT     H1 7006   2.176   3.813   3.986  0.2264  1.3880 -0.3353
 2265WAT     H2 7007   2.268   3.792   4.105 -1.5143 -0.3168  0.7579
 2266WAT      O 7008   3.448   3.788   2.198  0.3447  0.4236  0.1283
 2266WAT     H1 7009   3.405   3.826   2.122 -1.1552  0.6970  1.0640
 2266WAT     H2 7010   3.522   3.846   2.216  0.0650  0.9718 -0.4738
 2267WAT      O 7011   3.669   3.100   3.117  0.1720  0.0943  0.2714
 2267WAT     H1 7012   3.731   3.137   3.180  0.7317 -0.1014 -0.1530
 2267WAT     H2 7013   3.669   3.006   3.136  0.6511 -0.0218 -0.2771
 2268WAT      O 7014   3.198   3.017   3.630  0.7972  0.3512 -0.2323
 2268WAT     H1 7015   3.197   2.923   3.612 -0.7011  0.4280 -0.7128
 2268WAT     H2 7016   3.204   3.057   3.544  0.4293  0.6910 -0.1030
 2269WAT      O 7017   0.047   4.430   0.815 -0.5844 -0.0291 -0.5974
 2269WAT     H1 7018  -0.019   4.416   0.883  0.2337 -0.1793  0.1935
 2269WAT     H2 7019   0.081   4.517   0.833  0.2602 -0.4194 -0.2468
 2270WAT      O 7020   3.162   5.089   1.079 -0.2740  0.1201 -0.0122
 2270WAT     H1 7021   3.195   5.009   1.038  0.0506 -0.6539  1.6859
 2270WAT     H2 7022   3.229   5.155   1.060 -1.2039  0.4230 -2.6240
 2271WAT      O 7023   1.922   2.543   4.176 -0.3613 -0.6508 -0.4141
 2271WAT     H1 7024   1.827   2.536   4.185 -0.2219 -1.8477  0.4190
 2271WAT     H2 7025   1.939   2.636   4.165 -1.5610 -0.3284  0.3484
 2272WAT      O 7026   3.670   2.654   0.847 -0.7585 -0.4745  0.4716
 2272WAT     H1 7027   3.695   2.685   0.760  0.0879  0.7589  1.1147
 2272WAT     H2 7028   3.753   2.632   0.890 -1.2215 -1.8302  0.7081
 2273WAT      O 7029   2.603   4.170   3.589 -0.2590 -0.2756 -0.1445
 2273WAT     H1 7030   2.532   4.111   3.561 -1.0301  0.9798 -0.8999
 2273WAT     H2 7031   2.561   4.231   3.649  0.8943 -1.4785  2.0242
 2274WAT      O 7032   1.933   1.514   4.992  0.2245 -0.5278 -0.9071
 2274WAT     H1 7033   1.940   1.521   5.087 -0.1297  0.7826 -0.9544
 2274WAT     H2 7034   2.023   1.519   4.961  0.4204 -1.8963 -0.6082
 2275WAT      O 7035   3.376   1.036   2.254  0.4805 -0.1382 -0.2744
 2275WAT     H1 7036   3.429   1.108   2.290  0.6414 -0.5362  0.2979
 2275WAT     H2 7037   3.430   0.999   2.184  0.6998 -0.1522 -0.0985
 2276WAT      O 7038   1.502   3.597   0.728 -0.4117  0.0220 -0.3196
 2276WAT     H1 7039   1.557   3.545   0.786 -0.7236 -0.0196 -0.0566
 2276WAT     H2 7040   1.413   3.564   0.744 -0.4826 -0.1028 -0.9385
 2277WAT      O 7041   4.159   2.299   3.514 -0.1442 -0.4386  0.3111
 2277WAT     H1 7042   4.134   2.374   3.567  0.0816  0.6058 -0.9933
 2277WAT     H2 7043   4.252   2.312   3.496  0.9514 -3.0759  3.2012
 2278WAT      O 7044   2.069   0.593   1.048  0.3656 -0.2294 -0.3063
 2278WAT     H1 7045   2.058   0.565   1.139 -0.8910  0.8846 -0.0921
 2278WAT     H2 7046   2.125   0.525   1.009  0.0049 -1.3179  0.9943
 2279WAT      O 7047   2.513   0.270   4.971 -0.8678 -0.1189  0.6574
 2279WAT     H1 7048   2.453   0.197   4.984 -1.4601 -0.0302 -1.2350
 2279WAT     H2 7049   2.495   0.329   5.044 -1.7050 -0.9959  1.1830
 2280WAT      O 7050   0.331   1.168   3.294  0.1538  0.5698  0.1880
 2280WAT     H1 7051   0.281   1.129   3.222 -0.9197  2.4668 -0.1640
 2280WAT     H2 7052   0.317   1.109   3.368  1.1539 -1.3436 -1.0664
 2281WAT      O 7053   2.428   0.177   0.316  0.3464 -0.1797  0.3872
 2281WAT     H1 7054   2.375   0.141   0.245  0.1596 -0.6045  0.7325
 2281WAT     H2 7055   2.367   0.233   0.365  0.7981  1.1515 -0.5235
 2282WAT      O 7056   1.562   2.392   3.865  0.3106 -0.1720  0.2148
 2282WAT     H1 7057   1.534   2.466   3.919 -1.6403 -0.0994 -0.8139
 2282WAT     H2 7058   1.645   2.420   3.827  1.5937 -0.0955  2.8150
 2283WAT      O 7059   1.180   1.397   2.557  0.6288  0.2820 -0.2161
 2283WAT     H1 7060   1.166   1.307   2.586 -0.2393  0.1774 -0.9205
 2283WAT     H2 7061   1.138   1.402   2.471 -1.7440  2.0462  0.9258
 2284WAT      O 7062   1.687   3.978   1.510 -0.0454  0.3008  0.1483
 2284WAT     H1 7063   1.750   4.050   1.508 -0.0308  0.3676  1.6628
 2284WAT     H2 7064   1.601   4.020   1.515 -0.1047  0.2114 -0.1074
 2285WAT      O 7065   0.298   1.655   3.233 -0.2467  0.1070 -0.6863
 2285WAT     H1 7066   0.345   1.638   3.151  1.2027  1.8191 -0.2824
 2285WAT     H2 7067   0.212   1.686   3.204 -0.4932 -1.2374 -1.4884
 2286WAT      O 7068   2.857   3.450   0.147  0.5080 -0.0435 -0.7695
 2286WAT     H1 7069   2.848   3.360   0.116  1.0115 -0.7404  0.9631
 2286WAT     H2 7070   2.781   3.463   0.205  0.6726  0.4902 -0.6658
 2287WAT      O 7071   0.271   2.418   3.651  0.5920 -0.0471 -0.8336
 2287WAT     H1 7072   0.198   2.383   3.702  1.0536 -0.8041 -0.6783
 2287WAT     H2 7073   0.301   2.343   3.598  2.0344 -0.0950  0.0032
 2288WAT      O 7074   1.746   4.683   3.687 -0.6245 -0.0541  0.1371
 2288WAT     H1 7075   1.812   4.662   3.621 -0.8202  0.6451 -0.2877
 2288WAT     H2 7076   1.787   4.749   3.743 -0.8768  0.2089  0.0139
 2289WAT      O 7077   2.701   1.011   2.539 -0.3082 -0.6150 -0.6242
 2289WAT     H1 7078   2.691   1.102   2.512 -1.6357 -0.6182 -0.2010
 2289WAT     H2 7079   2.759   1.014   2.614 -1.8777  0.1251  0.6183
 2290WAT      O 7080   2.838   4.073   1.176 -0.5156 -0.7394  0.4044
 2290WAT     H1 7081   2.879   4.047   1.093 -1.2765 -1.3194  0.2058
 2290WAT     H2 7082   2.759   4.020   1.182 -1.0551  0.1024  0.9643
 2291WAT      O 7083   2.134   4.836   3.130  0.7810  0.8398 -0.0081
 2291WAT     H1 7084   2.146   4.873   3.218 -0.0853  0.8648  0.1064
 2291WAT     H2 7085   2.213   4.783   3.116  1.3431  1.5366  0.4256
 2292WAT      O 7086   3.114   2.730   0.231 -0.0963  0.9732 -0.2404
 2292WAT     H1 7087   3.201   2.762   0.251  0.4923 -0.1681 -0.8699
 2292WAT     H2 7088   3.107   2.647   0.279 -0.1559  0.1973 -1.5304
 2293WAT      O 7089   2.017   3.177   4.066  0.0962 -0.7672  0.1053
 2293WAT     H1 7090   2.035   3.152   4.156  0.6221  1.3544  0.6370
 2293WAT     H2 7091   2.039   3.270   4.061 -0.4718 -0.6757 -2.0664
 2294WAT      O 7092   3.378   5.135   4.705 -0.5449 -0.0362 -0.0242
 2294WAT     H1 7093   3.416   5.154   4.790 -0.3741  1.4352 -0.3915
 2294WAT     H2 7094   3.351   5.044   4.710 -1.1330  0.1942  1.8345
 2295WAT      O 7095   0.991   2.585   1.611 -0.0929 -0.2765 -0.1715
 2295WAT     H1 7096   0.963   2.665   1.567 -0.8870 -0.1406  0.5530
 2295WAT     H2 7097   0.969   2.599   1.703  1.3532 -0.6297  0.2467
 2296WAT      O 7098   2.937   2.508   3.691 -0.2540  0.0186  1.0397
 2296WAT     H1 7099   2.850   2.474   3.672  0.1407 -0.7774  0.6422
 2296WAT     H2 7100   2.932   2.601   3.666 -0.7139 -0.2374  0.1401
 2297WAT      O 7101   3.214   0.347   4.625  0.3658  0.1918 -0.9240
 2297WAT     H1 7102   3.185   0.425   4.579  1.3606 -0.0884 -2.0676
 2297WAT     H2 7103   3.232   0.283   4.556  1.4265 -0.3939 -0.1399
 2298WAT      O 7104   0.806   3.051   0.625 -0.2221  0.0686 -0.1719
 2298WAT     H1 7105   0.886   3.004   0.601  0.1422  0.8980 -0.6261
 2298WAT     H2 7106   0.837   3.135   0.658 -0.9304  1.0447 -1.8305
 2299WAT      O 7107   3.106   4.417   3.479  0.2029 -0.1549  0.1112
 2299WAT     H1 7108   3.198   4.444   3.478  0.1125  0.2171  0.8300
 2299WAT     H2 7109   3.064   4.475   3.415  0.7675 -1.5605 -1.6220
 2300WAT      O 7110   0.149   2.349   5.147  0.5275  1.0401  0.2006
 2300WAT     H1 7111   0.151   2.258   5.119  2.9210  0.8965  0.5940
 2300WAT     H2 7112   0.056   2.371   5.153 -0.0993 -0.9664 -1.1364
 2301WAT      O 7113   2.694   0.468   0.999  0.2670 -0.1226  0.1428
 2301WAT     H1 7114   2.740   0.543   0.962  1.6565 -0.5914  0.8151
 2301WAT     H2 7115   2.719   0.394   0.943  0.5298 -0.4263  0.6528
 2302WAT      O 7116   0.808   0.013   3.931  0.2825 -0.2013 -0.2377
 2302WAT     H1 7117   0.730   0.013   3.876 -0.3904  1.1178  0.6785
 2302WAT     H2 7118   0.781  -0.034   4.010  0.3721  0.3780  0.1392
 2303WAT      O 7119   4.270   3.306   3.344 -0.1926 -0.5254 -0.1650
 2303WAT     H1 7120   4.321   3.275   3.270  0.2537  0.2231 -0.1776
 2303WAT     H2 7121   4.313   3.268   3.421  0.1560 -0.1957 -0.1995
 2304WAT      O 7122   0.767   5.116   4.207 -0.3769 -0.0376  0.3631
 2304WAT     H1 7123   0.695   5.056   4.191  0.4682 -1.0966  0.3814
 2304WAT     H2 7124   0.845   5.060   4.211  0.2287  0.8346  2.1786
 2305WAT      O 7125   3.793   1.145   0.912 -0.1670  0.2921  0.4943
 2305WAT     H1 7126   3.699   1.166   0.914 -0.6009 -1.5363  0.4829
 2305WAT     H2 7127   3.818   1.142   1.004 -0.5560 -0.9739  0.5745
 2306WAT      O 7128   2.364   4.585   0.726 -0.1943  0.4018  0.0149
 2306WAT     H1 7129   2.311   4.623   0.656  0.3825 -2.0131 -1.8680
 2306WAT     H2 7130   2.454   4.607   0.703  0.2169 -2.4086 -1.4930
 2307WAT      O 7131   2.662   2.334   2.338  0.2746  0.8217  0.1072
 2307WAT     H1 7132   2.738   2.356   2.283  1.3589  0.4495  1.3904
 2307WAT     H2 7133   2.599   2.295   2.278  0.6760  2.0833 -1.1788
 2308WAT      O 7134   1.871   4.089   0.068 -0.0733  0.5267  0.5036
 2308WAT     H1 7135   1.849   4.147  -0.005  0.1906  0.4640  0.3749
 2308WAT     H2 7136   1.952   4.126   0.104  1.5404 -1.2081 -1.1595
 2309WAT      O 7137   1.800   4.916   1.807  0.1080  0.0316 -0.0509
 2309WAT     H1 7138   1.847   4.998   1.825  0.7489 -0.5177  0.8889
 2309WAT     H2 7139   1.865   4.848   1.826 -0.7235 -0.7142  0.1521
 2310WAT      O 7140   2.126   4.969   2.343  0.3720  0.4635 -0.1575
 2310WAT     H1 7141   2.139   4.875   2.327 -0.1656  0.7210 -2.4536
 2310WAT     H2 7142   2.214   5.004   2.351  0.5792 -0.2342  0.9446
 2311WAT      O 7143   3.940   3.957   4.506  0.3564 -0.3559 -0.3821
 2311WAT     H1 7144   3.965   3.918   4.422  2.1255 -0.4069  0.1134
 2311WAT     H2 7145   3.899   3.886   4.554 -0.7190 -0.3127 -1.2041
 2312WAT      O 7146   3.394   4.719   1.447  0.1283 -0.2993 -0.5805
 2312WAT     H1 7147   3.403   4.628   1.419 -1.5143 -0.1704 -1.6684
 2312WAT     H2 7148   3.326   4.717   1.514  0.3365  0.0747 -0.3565
 2313WAT      O 7149   3.958   0.559   1.198 -0.4529  0.1379 -0.0513
 2313WAT     H1 7150   3.884   0.617   1.185 -0.8498 -0.3808 -0.1427
 2313WAT     H2 7151   3.966   0.511   1.116 -0.4695 -0.3118  0.2005
 2314WAT      O 7152   0.836   4.903   2.861  0.5012 -0.2103 -0.1372
 2314WAT     H1 7153   0.917   4.920   2.814  0.9783  0.4635  0.8983
 2314WAT     H2 7154   0.794   4.832   2.812  0.6823  0.8542 -1.9052
 2315WAT      O 7155   4.488   1.903   4.546 -0.2018 -0.2013  0.0654
 2315WAT     H1 7156   4.562   1.905   4.607 -0.2333 -1.6964  0.2010
 2315WAT     H2 7157   4.529   1.887   4.461 -0.3411 -0.7635  0.1012
 2316WAT      O 7158   4.136   4.571   0.138 -0.1357  0.2673 -0.2856
 2316WAT     H1 7159   4.057   4.583   0.085 -0.8938  1.7954  1.0728
 2316WAT     H2 7160   4.116   4.617   0.220  1.7566 -0.2667  0.5218
 2317WAT      O 7161   1.195   4.954   3.668 -0.2246 -0.1906 -0.1338
 2317WAT     H1 7162   1.136   5.024   3.696  1.3643  1.4158 -0.6067
 2317WAT     H2 7163   1.220   4.979   3.578 -0.1781 -1.7653 -0.5856
 2318WAT      O 7164   1.092   4.968   2.160  0.0573  0.4897 -0.1360
 2318WAT     H1 7165   1.139   4.891   2.130  2.1285  0.7728  2.0664
 2318WAT     H2 7166   1.157   5.039   2.156 -1.3496  1.8189 -0.6831
 2319WAT      O 7167   4.469   2.795   1.869  0.3351 -0.0674 -0.1630
 2319WAT     H1 7168   4.492   2.855   1.797 -0.5826  1.6867  0.9362
 2319WAT     H2 7169   4.376   2.811   1.884  0.3063 -1.0921  0.8024
 2320WAT      O 7170   2.198   0.713   4.489  0.2401  0.1830  0.0442
 2320WAT     H1 7171   2.223   0.766   4.412 -0.8137  0.4082 -0.1594
 2320WAT     H2 7172   2.278   0.707   4.540  0.5361  1.5106 -0.2194
 2321WAT      O 7173   2.253   2.571   2.371 -0.9618 -0.3363 -0.3395
 2321WAT     H1 7174   2.237   2.633   2.299 -1.0832 -0.9906 -0.8827
 2321WAT     H2 7175   2.205   2.492   2.345  0.8077 -1.3637 -0.6348
 2322WAT      O 7176   2.218   1.816   1.146 -0.9104  0.1058 -0.1639
 2322WAT     H1 7177   2.275   1.742   1.171 -1.1199  0.1839  0.5624
 2322WAT     H2 7178   2.148   1.776   1.094 -0.2098  0.0058 -1.0546
 2323WAT      O 7179   0.924   1.605   0.086 -0.4612 -0.9781  0.3887
 2323WAT     H1 7180   0.849   1.554   0.054  0.0573 -1.6474  0.2105
 2323WAT     H2 7181   1.000   1.549   0.068  0.1619 -0.0032 -0.0985
 2324WAT      O 7182   3.210   4.033   3.968  0.1001  0.0978 -0.2103
 2324WAT     H1 7183   3.272   4.099   3.937  0.2396 -0.1277 -0.4132
 2324WAT     H2 7184   3.263   3.971   4.017  0.0815 -0.2464 -0.6184
 2325WAT      O 7185   1.252   0.225   2.403  0.5077 -0.3075  0.3870
 2325WAT     H1 7186   1.208   0.301   2.366  0.8976 -0.8291 -1.1903
 2325WAT     H2 7187   1.345   0.244   2.392  0.6001 -1.2312 -0.5021
 2326WAT      O 7188   1.952   4.650   3.504  0.5384 -0.1188  0.3811
 2326WAT     H1 7189   2.024   4.678   3.561  0.6943 -0.4764  0.3653
 2326WAT     H2 7190   1.993   4.589   3.442  0.1491 -0.6309  0.6203
 2327WAT      O 7191   1.172   4.033   4.495  0.1488  0.5983  0.1751
 2327WAT     H1 7192   1.152   4.022   4.588 -0.6772  2.9253  0.3204
 2327WAT     H2 7193   1.087   4.036   4.452  0.5184 -1.4324 -0.8680
 2328WAT      O 7194   2.855   4.598   1.513 -0.2770  0.5212  0.2420
 2328WAT     H1 7195   2.793   4.612   1.584 -0.5803  0.4441 -0.0092
 2328WAT     H2 7196   2.915   4.673   1.519  0.8494 -0.4304  1.7643
 2329WAT      O 7197   1.228   4.076   2.010 -0.4032  0.2131  0.7759
 2329WAT     H1 7198   1.299   4.086   1.947  0.4269 -2.1811  1.2430
 2329WAT     H2 7199   1.240   4.149   2.071  1.0225  0.4599  0.2469
 2330WAT      O 7200   3.788   0.601   4.665  0.6011  0.4125 -0.1082
 2330WAT     H1 7201   3.703   0.583   4.625  1.5676 -2.3245 -1.2046
 2330WAT     H2 7202   3.780   0.689   4.700 -3.1406 -0.2353  1.1302
 2331WAT      O 7203   2.723   1.652   0.461  0.2175  0.2678 -0.0789
 2331WAT     H1 7204   2.795   1.613   0.510  1.3333  0.7139 -1.3242
 2331WAT     H2 7205   2.723   1.744   0.486 -1.0408 -0.0526  1.2153
 2332WAT      O 7206   0.406   1.891   4.307 -0.0812 -0.1330  0.1408
 2332WAT     H1 7207   0.496   1.898   4.340  0.4118 -1.1816 -0.8779
 2332WAT     H2 7208   0.361   1.967   4.342  1.3731  0.7517  0.1667
 2333WAT      O 7209   2.302   3.059   0.471 -0.1613  0.7896  0.6724
 2333WAT     H1 7210   2.341   3.127   0.415 -0.1489  0.4459  0.2541
 2333WAT     H2 7211   2.225   3.030   0.422  0.0141  0.2812  0.7015
 2334WAT      O 7212   2.424   5.021   3.795 -0.0197 -0.1268  0.0349
 2334WAT     H1 7213   2.329   5.011   3.787 -0.2435  1.8457 -0.2359
 2334WAT     H2 7214   2.459   4.967   3.724 -0.9042 -1.1434  0.3397
 2335WAT      O 7215   2.992   4.450   2.686 -0.0705  0.2533  0.3163
 2335WAT     H1 7216   2.970   4.399   2.608 -0.3522  1.8230 -0.6863
 2335WAT     H2 7217   3.028   4.532   2.651  1.7697  0.1802  1.8739
 2336WAT      O 7218   0.929   3.135   1.514  0.5756  0.0382  0.2944
 2336WAT     H1 7219   0.917   3.216   1.564  1.2191  0.6258 -0.4931
 2336WAT     H2 7220   0.870   3.144   1.439  1.6810  0.4364 -0.5620
 2337WAT      O 7221   3.736   1.123   1.575  0.6357  0.0629  0.0950
 2337WAT     H1 7222   3.695   1.137   1.490  0.8673 -0.5080 -0.1169
 2337WAT     H2 7223   3.689   1.181   1.635 -0.2503 -0.3279 -0.2092
 2338WAT      O 7224   0.901   0.865   4.996  0.1678 -0.4861 -0.2244
 2338WAT     H1 7225   0.911   0.919   5.074  0.6083 -1.2489  0.2649
 2338WAT     H2 7226   0.856   0.787   5.027  2.3923 -1.8504 -0.2036
 2339WAT      O 7227   1.140   1.947   1.718  0.8738 -1.0024  0.6195
 2339WAT     H1 7228   1.226   1.988   1.729  1.0842 -1.8236  2.3641
 2339WAT     H2 7229   1.089   2.011   1.670  2.0397  0.1084  0.8142
 2340WAT      O 7230   2.917   1.459   4.214  0.2756 -0.3480  0.5033
 2340WAT     H1 7231   2.990   1.423   4.165  1.1323  0.9261  0.7750
 2340WAT     H2 7232   2.957   1.493   4.295 -0.0265  2.9603 -0.5578
 2341WAT      O 7233   0.396   0.005   3.685 -0.2067  0.7253  0.1236
 2341WAT     H1 7234   0.335   0.063   3.730  0.0367  2.0501 -1.1705
 2341WAT     H2 7235   0.344  -0.034   3.615  0.1769  1.1139 -0.3843
 2342WAT      O 7236   0.043   2.050   2.395  0.2352  0.1911 -0.1795
 2342WAT     H1 7237   0.087   1.987   2.453 -2.4003 -2.8865 -1.1846
 2342WAT     H2 7238  -0.046   2.057   2.430 -0.9853 -0.5638 -2.8251
 2343WAT      O 7239   1.532   1.900   1.860 -0.1183  0.1289 -0.4935
 2343WAT     H1 7240   1.582   1.864   1.787 -1.0351 -1.7430 -0.2533
 2343WAT     H2 7241   1.565   1.855   1.937  0.0407  1.2496  0.1161
 2344WAT      O 7242   4.364   4.315   1.737  0.0475  0.3099  0.2537
 2344WAT     H1 7243   4.444   4.304   1.686 -0.1154  1.0837 -0.1929
 2344WAT     H2 7244   4.302   4.354   1.675 -0.8101 -0.6726  0.4783
 2345WAT      O 7245   2.541   3.161   1.539  0.7100  0.4268 -0.4451
 2345WAT     H1 7246   2.512   3.238   1.589 -1.8379 -0.8420  0.1727
 2345WAT     H2 7247   2.471   3.097   1.550  1.6781 -1.1924 -2.8415
 2346WAT      O 7248   1.397   0.001   3.798 -0.5513  0.0802  0.1199
 2346WAT     H1 7249   1.484  -0.038   3.793 -0.8340 -0.4583 -0.8692
 2346WAT     H2 7250   1.341  -0.068   3.832 -0.8063  0.0219 -0.3958
 2347WAT      O 7251   1.927   4.813   3.849  0.1623  0.0684 -0.3485
 2347WAT     H1 7252   1.981   4.892   3.838  0.8086 -0.0897  1.2966
 2347WAT     H2 7253   1.898   4.817   3.940  0.9123 -2.0075  0.0373
 2348WAT      O 7254   2.082   3.667   1.085  0.2589  0.2805 -0.2721
 2348WAT     H1 7255   2.143   3.680   1.012 -0.3411 -0.8182 -0.9993
 2348WAT     H2 7256   2.042   3.582   1.068  0.3285 -0.1467  1.5145
 2349WAT      O 7257   0.070   4.325   1.582  0.0313  0.6183 -0.0904
 2349WAT     H1 7258   0.055   4.397   1.521 -1.4136 -0.3607 -0.9577
 2349WAT     H2 7259   0.163   4.331   1.604  0.3638  1.5901 -1.6224
 2350WAT      O 7260   4.071   3.582   0.878  0.0702  0.2337 -0.1310
 2350WAT     H1 7261   4.097   3.549   0.964  0.1409 -1.9441 -0.9246
 2350WAT     H2 7262   4.154   3.601   0.834  0.0294  2.8253  0.7282
 2351WAT      O 7263   4.390   0.014   0.164 -0.2374  0.5471  0.0178
 2351WAT     H1 7264   4.370   0.018   0.258  0.2484  1.9417  0.0885
 2351WAT     H2 7265   4.462   0.076   0.153  0.6643 -0.6523 -1.0598
 2352WAT      O 7266   3.905   3.177   2.023  0.1377 -0.0211 -0.1562
 2352WAT     H1 7267   3.830   3.168   2.081  1.1292 -1.8269  0.9437
 2352WAT     H2 7268   3.958   3.247   2.062  0.9250 -1.3895  1.3630
 2353WAT      O 7269   2.158   0.693   2.956  0.1408  0.7165  0.0234
 2353WAT     H1 7270   2.202   0.747   2.890 -1.9472  0.7354 -1.4556
 2353WAT     H2 7271   2.165   0.743   3.037  0.2756  2.1022 -0.8111
 2354WAT      O 7272   2.193   3.255   3.855  0.0604 -0.0195 -0.6384
 2354WAT     H1 7273   2.264   3.193   3.867 -0.4932 -0.7584 -1.0506
 2354WAT     H2 7274   2.118   3.214   3.899 -0.1383  0.6926 -0.3009
 2355WAT      O 7275   0.415   4.540   0.227 -0.2548 -0.4254  1.0621
 2355WAT     H1 7276   0.416   4.621   0.175  2.4334 -0.2731  1.1792
 2355WAT     H2 7277   0.386   4.568   0.313 -0.9111  0.1056  0.6767
 2356WAT      O 7278   0.974   2.331   2.940 -0.6465  0.4862  0.2301
 2356WAT     H1 7279   0.941   2.339   2.850 -2.1076 -0.0326  0.7031
 2356WAT     H2 7280   1.068   2.313   2.929 -1.0690 -1.0435 -1.2292
 2357WAT      O 7281   2.208   2.294   0.908  0.1232 -0.0032  0.0536
 2357WAT     H1 7282   2.150   2.274   0.982 -1.1625 -0.2335 -0.9820
 2357WAT     H2 7283   2.267   2.361   0.941 -2.2079  1.9698  0.5152
 2358WAT      O 7284   2.257   2.819   3.500 -0.2532  0.5759 -0.4196
 2358WAT     H1 7285   2.168   2.852   3.489 -0.4580  0.4325  0.6599
 2358WAT     H2 7286   2.309   2.867   3.436 -1.0171  1.0333 -0.7108
 2359WAT      O 7287   0.851   0.970   1.936  0.1101 -0.1867  0.4533
 2359WAT     H1 7288   0.906   0.926   2.001  0.7754  1.9551  1.4249
 2359WAT     H2 7289   0.914   1.003   1.871 -0.2293  0.5695  0.5069
 2360WAT      O 7290   1.565   2.154   0.529  0.2352 -0.6280 -0.1078
 2360WAT     H1 7291   1.565   2.236   0.579 -0.3712 -0.0782 -0.9870
 2360WAT     H2 7292   1.476   2.122   0.537  1.0756 -2.6362  2.4652
 2361WAT      O 7293   1.535   2.841   3.719 -0.6676  0.0219 -0.2390
 2361WAT     H1 7294   1.481   2.909   3.760 -0.5454  0.1746 -0.3309
 2361WAT     H2 7295   1.614   2.837   3.773 -1.1686 -0.8510  0.4447
 2362WAT      O 7296   0.527   2.630   1.152 -0.0122 -0.0433 -0.5197
 2362WAT     H1 7297   0.451   2.605   1.204  0.6768  1.3151  1.2516
 2362WAT     H2 7298   0.531   2.725   1.159  0.8904  0.0611 -1.9938
 2363WAT      O 7299   0.296   1.374   4.439  0.2129 -0.2549  0.5932
 2363WAT     H1 7300   0.218   1.345   4.391  0.6075  1.6902 -1.3626
 2363WAT     H2 7301   0.283   1.468   4.451  2.4809  0.2255 -0.2833
 2364WAT      O 7302   0.444   2.386   1.414  0.3769  0.5632  0.2561
 2364WAT     H1 7303   0.422   2.331   1.489  0.1171  1.1709  0.6380
 2364WAT     H2 7304   0.501   2.454   1.451 -0.7067  1.5579  0.1622
 2365WAT      O 7305   1.440   4.898   2.360  0.2511  0.3911  0.0768
 2365WAT     H1 7306   1.513   4.960   2.356  1.2400 -0.7435 -0.0489
 2365WAT     H2 7307   1.460   4.843   2.436  0.0361 -0.5374 -0.5235
 2366WAT      O 7308   3.654   5.103   1.350 -0.0623  0.2327 -0.2913
 2366WAT     H1 7309   3.588   5.043   1.315  0.3061 -1.3285  1.5185
 2366WAT     H2 7310   3.726   5.098   1.287 -0.2967 -0.7398 -0.4998
 2367WAT      O 7311   1.993   3.787   4.046  0.0962  0.0963 -0.1740
 2367WAT     H1 7312   1.925   3.822   3.989  0.7943  0.6273 -0.6871
 2367WAT     H2 7313   1.945   3.751   4.121 -0.6515  2.8457  0.8021
 2368WAT      O 7314   0.449   5.091   3.027  0.4881  0.4037 -0.3589
 2368WAT     H1 7315   0.496   5.135   3.098 -0.1445  1.6078 -0.6509
 2368WAT     H2 7316   0.505   5.018   3.003  1.9749  1.4964 -0.3767
 2369WAT      O 7317   3.439   2.844   0.076  0.0994 -0.0659 -0.4768
 2369WAT     H1 7318   3.399   2.861  -0.010  0.2755  0.5466 -0.4435
 2369WAT     H2 7319   3.426   2.750   0.090 -1.5632  0.1662 -0.3435
 2370WAT      O 7320   1.010   1.655   2.177  0.1051 -0.3743 -0.0257
 2370WAT     H1 7321   0.968   1.684   2.257  1.1063  0.0633  0.3628
 2370WAT     H2 7322   1.018   1.735   2.124 -0.9949 -0.7477 -0.7781
 2371WAT      O 7323   3.012   4.224   0.908 -0.0543  0.0348 -0.5001
 2371WAT     H1 7324   3.011   4.259   0.819  2.0557  0.5408 -0.3726
 2371WAT     H2 7325   2.970   4.292   0.960 -0.7233  0.0167 -0.9970
 2372WAT      O 7326   4.200   3.745   2.173 -0.0576 -0.5568  0.1850
 2372WAT     H1 7327   4.139   3.797   2.121 -0.1999 -1.4185 -0.5311
 2372WAT     H2 7328   4.284   3.790   2.164 -0.5060  0.4602  0.9225
 2373WAT      O 7329   2.641   3.857   4.520  0.3949 -0.1953 -0.1814
 2373WAT     H1 7330   2.548   3.873   4.505 -0.0957 -2.2481  0.2861
 2373WAT     H2 7331   2.655   3.878   4.613 -0.0415 -1.5372  0.2083
 2374WAT      O 7332   3.338   4.271   4.509 -0.1027  0.2081 -0.4702
 2374WAT     H1 7333   3.313   4.290   4.600  1.0618  0.4345 -0.1742
 2374WAT     H2 7334   3.355   4.177   4.508  0.7486  0.3493 -0.2141
 2375WAT      O 7335   0.439   3.518   4.170 -0.1225  0.5455  0.2227
 2375WAT     H1 7336   0.458   3.498   4.262  0.2158  0.9350  0.2402
 2375WAT     H2 7337   0.381   3.447   4.142  0.4573 -0.0459  0.4952
 2376WAT      O 7338   0.187   4.169   2.978  0.2848  0.2235  0.0666
 2376WAT     H1 7339   0.280   4.179   2.961  0.8695 -0.2678  2.6560
 2376WAT     H2 7340   0.179   4.088   3.028 -1.7124 -0.4199 -1.1439
 2377WAT      O 7341   4.289   3.338   2.356 -0.4437 -0.0078 -0.1720
 2377WAT     H1 7342   4.302   3.424   2.316 -1.1254 -0.1283 -0.6794
 2377WAT     H2 7343   4.209   3.348   2.408 -0.4045 -0.2725 -0.0598
 2378WAT      O 7344   4.324   4.513   0.555  0.6605  0.3044 -0.7187
 2378WAT     H1 7345   4.418   4.492   0.557  0.5337 -0.6264 -2.4620
 2378WAT     H2 7346   4.321   4.608   0.566  1.6844  0.1794  1.0211
 2379WAT      O 7347   0.922   3.587   0.299  0.4210 -0.4686  0.0594
 2379WAT     H1 7348   0.873   3.653   0.250 -0.4317 -1.8886 -1.1080
 2379WAT     H2 7349   1.010   3.623   0.307  0.0542  0.6737 -0.7782
 2380WAT      O 7350   0.358   0.821   2.139 -0.2242 -0.0702  0.0403
 2380WAT     H1 7351   0.430   0.848   2.083  0.0209  0.0215  0.3994
 2380WAT     H2 7352   0.398   0.766   2.206 -0.6114 -0.7167 -0.2530
 2381WAT      O 7353   3.353   1.414   5.132  1.1614 -0.1770 -0.4217
 2381WAT     H1 7354   3.297   1.354   5.083 -0.6577  0.8797  0.2487
 2381WAT     H2 7355   3.392   1.470   5.065 -1.1644  1.1470 -0.7732
 2382WAT      O 7356   0.461   1.480   2.716 -0.0176 -0.6587 -0.0498
 2382WAT     H1 7357   0.387   1.470   2.655  0.7169  1.2088 -1.3162
 2382WAT     H2 7358   0.532   1.429   2.675  0.1289 -0.3695 -0.1589
 2383WAT      O 7359   2.127   1.954   4.323 -0.4454 -0.4596  0.7251
 2383WAT     H1 7360   2.183   1.960   4.400 -0.8627 -0.1182  1.0108
 2383WAT     H2 7361   2.038   1.952   4.359 -0.6582  0.0232  0.2450
 2384WAT      O 7362   3.622   2.451   4.733  0.4454  0.0983 -0.3561
 2384WAT     H1 7363   3.659   2.365   4.755  0.0128 -0.1591 -0.5965
 2384WAT     H2 7364   3.604   2.444   4.639 -1.8625 -0.4460  0.0754
 2385WAT      O 7365   1.834   0.581   1.719 -0.1720 -0.0223  0.3889
 2385WAT     H1 7366   1.747   0.565   1.682  0.2781 -2.5388  0.2822
 2385WAT     H2 7367   1.882   0.623   1.648 -0.6812 -0.5777 -0.2979
 2386WAT      O 7368   2.977   2.428   0.017 -0.5359 -0.2488  0.6468
 2386WAT     H1 7369   2.998   2.399   0.106 -1.2951 -2.4478  0.1922
 2386WAT     H2 7370   2.885   2.453   0.021 -0.9152 -1.4827  0.2863
 2387WAT      O 7371   4.293   4.640   1.318  0.0288  0.1172  0.1728
 2387WAT     H1 7372   4.290   4.725   1.361 -2.0186 -0.3682  1.1238
 2387WAT     H2 7373   4.219   4.642   1.257 -0.7349 -1.3547  1.0061
 2388WAT      O 7374   3.647   2.994   2.065 -0.1630  0.2745  0.0164
 2388WAT     H1 7375   3.618   2.913   2.107  0.3819  0.2805  0.4146
 2388WAT     H2 7376   3.665   3.053   2.138  1.7480 -0.0280 -0.1521
 2389WAT      O 7377   1.694   3.097   3.588 -0.4503  0.2586 -0.2272
 2389WAT     H1 7378   1.690   3.101   3.683 -1.4914  1.8736 -0.2976
 2389WAT     H2 7379   1.609   3.130   3.559 -0.5495 -1.1999 -1.7263
 2390WAT      O 7380   1.843   4.902   3.434  0.2540  0.1494 -0.0628
 2390WAT     H1 7381   1.860   4.892   3.341  3.5413  1.1166  0.3097
 2390WAT     H2 7382   1.887   4.828   3.475 -0.4776  0.1613  0.7959
 2391WAT      O 7383   1.794   1.248   4.658 -0.0463  0.2336 -0.0720
 2391WAT     H1 7384   1.871   1.249   4.601 -0.9509 -0.7936 -1.3726
 2391WAT     H2 7385   1.815   1.184   4.726  0.5174  0.5014  0.0195
 2392WAT      O 7386   2.769   4.518   4.965 -0.1599 -0.1731  0.2102
 2392WAT     H1 7387   2.764   4.500   4.872  1.4456 -1.9756  0.4033
 2392WAT     H2 7388   2.835   4.587   4.973 -0.6686  0.3439 -0.0055
 2393WAT      O 7389   3.017   1.924   0.956  0.2733  0.0745  0.2894
 2393WAT     H1 7390   2.960   2.000   0.949  0.3462 -0.0379 -2.4279
 2393WAT     H2 7391   2.976   1.858   0.900 -0.1224 -2.1884  3.0241
 2394WAT      O 7392   2.547   1.219   0.623 -0.0552 -0.2491 -0.2067
 2394WAT     H1 7393   2.572   1.173   0.543  0.7048 -0.5346  0.1824
 2394WAT     H2 7394   2.599   1.177   0.692  1.2235  1.6066  0.0522
 2395WAT      O 7395   3.398   3.614   2.692 -0.1256 -0.3669  0.2321
 2395WAT     H1 7396   3.310   3.604   2.730  0.4766  2.0444  2.5686
 2395WAT     H2 7397   3.382   3.638   2.601 -1.7755 -2.0657 -0.0050
 2396WAT      O 7398   4.200   4.659   3.350 -0.6060  0.3283  0.0314
 2396WAT     H1 7399   4.268   4.713   3.309  1.0122  0.6603  2.8353
 2396WAT     H2 7400   4.217   4.570   3.318  1.1378  0.4292  0.5654
 2397WAT      O 7401   2.530   0.369   1.961  0.4129 -0.4769  0.3314
 2397WAT     H1 7402   2.551   0.397   1.872 -1.8610  0.4179  0.0165
 2397WAT     H2 7403   2.508   0.276   1.953 -0.9128 -0.1269 -0.2765
 2398WAT      O 7404   1.525   3.147   5.170  0.2935 -0.0627  0.3548
 2398WAT     H1 7405   1.556   3.058   5.186  0.0367  0.0401  1.4940
 2398WAT     H2 7406   1.476   3.141   5.088  0.5209 -0.9047  0.2740
 2399WAT      O 7407   2.664   1.061   0.425 -0.1358  0.3096  0.2564
 2399WAT     H1 7408   2.759   1.065   0.438 -0.2615  1.2626  0.9966
 2399WAT     H2 7409   2.652   1.073   0.331  0.5541 -1.7094 -0.1365
 2400WAT      O 7410   2.357   5.093   0.130 -0.0226 -0.3329  0.2882
 2400WAT     H1 7411   2.307   5.152   0.074 -0.6817 -0.5422  0.6453
 2400WAT     H2 7412   2.300   5.077   0.205  0.7141 -0.3249  0.8595
 2401WAT      O 7413   1.818   0.732   3.519  0.6138  0.6435  0.0740
 2401WAT     H1 7414   1.755   0.696   3.581  2.2102  1.3172  2.2001
 2401WAT     H2 7415   1.901   0.731   3.566  1.6363  2.5391 -1.5570
 2402WAT      O 7416   0.663   0.114   1.525 -0.5286 -0.4785  0.0679
 2402WAT     H1 7417   0.649   0.182   1.591  2.6738  0.4541 -0.0508
 2402WAT     H2 7418   0.591   0.052   1.539 -1.6708  1.2207  2.4000
 2403WAT      O 7419   0.864   2.754   0.182 -0.1476  0.0171 -0.0516
 2403WAT     H1 7420   0.865   2.828   0.123 -3.3815  1.5690  1.5873
 2403WAT     H2 7421   0.801   2.693   0.144 -0.3788 -0.1120  0.5258
 2404WAT      O 7422   4.469   3.725   0.486 -0.1984 -0.5489  0.1570
 2404WAT     H1 7423   4.529   3.798   0.504  0.3638 -0.9690  0.0250
 2404WAT     H2 7424   4.494   3.695   0.399  0.8407 -2.0813  0.9260
 2405WAT      O 7425   3.418   2.490   3.221 -0.3907  0.0711  0.7584
 2405WAT     H1 7426   3.397   2.576   3.255 -0.0852  0.2592  0.4734
 2405WAT     H2 7427   3.513   2.482   3.231 -0.6815 -1.2909  3.2525
 2406WAT      O 7428   2.266   1.537   1.065 -0.4464 -0.0229 -0.4562
 2406WAT     H1 7429   2.355   1.555   1.094 -0.2932  3.1274 -2.3765
 2406WAT     H2 7430   2.276   1.515   0.972 -1.6953  2.7437 -1.3649
 2407WAT      O 7431   3.823   3.501   3.874  0.1504 -0.4438  0.0317
 2407WAT     H1 7432   3.876   3.566   3.829  1.7697  1.0782  3.7516
 2407WAT     H2 7433   3.732   3.527   3.858  0.7157  1.1629 -0.6676
 2408WAT      O 7434   2.272   1.717   4.670 -0.1098  0.0528 -0.6673
 2408WAT     H1 7435   2.349   1.762   4.704 -1.2144  1.4384  0.1026
 2408WAT     H2 7436   2.240   1.773   4.599 -1.3541  0.3663  0.1199
 2409WAT      O 7437   1.879   0.057   0.424  0.4582 -0.3887 -0.6281
 2409WAT     H1 7438   1.852   0.075   0.514  2.8512 -0.3162  0.1198
 2409WAT     H2 7439   1.961   0.104   0.413  0.6878 -1.1479 -2.5705
 2410WAT      O 7440   4.413   3.586   5.184 -0.1133  0.5652  0.7162
 2410WAT     H1 7441   4.370   3.546   5.259  0.3013 -0.0122  0.6496
 2410WAT     H2 7442   4.506   3.565   5.196 -0.0245  0.6160  0.1246
 2411WAT      O 7443   3.108   0.600   0.114 -0.1441  0.0744  0.3272
 2411WAT     H1 7444   3.068   0.624   0.198 -1.6542 -0.2834 -0.2529
 2411WAT     H2 7445   3.088   0.507   0.104 -0.7123  0.3020 -0.8005
 2412WAT      O 7446   4.294   4.773   2.798  0.3426 -0.0958 -0.6792
 2412WAT     H1 7447   4.241   4.850   2.777  1.2076  0.6837 -0.0753
 2412WAT     H2 7448   4.238   4.719   2.855 -0.0024  0.4429 -0.5066
 2413WAT      O 7449   3.067   1.242   2.684 -0.2336 -0.2055  0.6763
 2413WAT     H1 7450   3.014   1.176   2.730  0.5270 -0.7149  0.8364
 2413WAT     H2 7451   3.124   1.191   2.627  2.6948  0.0094  3.1505
 2414WAT      O 7452   1.030   3.545   1.871  0.3936 -1.0033 -0.1680
 2414WAT     H1 7453   0.953   3.564   1.926 -1.0933 -0.8414 -2.1824
 2414WAT     H2 7454   1.068   3.631   1.853  0.0877 -0.9292 -0.4682
 2415WAT      O 7455   0.847   4.391   4.655  0.4533 -0.4472 -0.5586
 2415WAT     H1 7456   0.779   4.422   4.594 -0.2230  1.3437  0.9851
 2415WAT     H2 7457   0.928   4.432   4.624  0.1075  0.4725 -0.2987
 2416WAT      O 7458   3.050   1.608   4.392  0.0750  0.6747 -0.3894
 2416WAT     H1 7459   3.039   1.676   4.325 -0.3717  0.3738 -0.6284
 2416WAT     H2 7460   3.007   1.644   4.470 -2.4476 -0.3255 -1.2037
 2417WAT      O 7461   2.821   3.710   1.748 -0.2150  0.9161  0.2927
 2417WAT     H1 7462   2.825   3.675   1.659  0.7520 -1.5553  1.2281
 2417WAT     H2 7463   2.735   3.752   1.754 -1.5857 -1.5125 -0.9232
 2418WAT      O 7464   4.483   0.842   4.626  0.1173  0.4541 -0.0426
 2418WAT     H1 7465   4.394   0.869   4.602 -0.0640 -0.9862 -1.1354
 2418WAT     H2 7466   4.535   0.923   4.623 -0.8516  1.0635 -0.8436
 2419WAT      O 7467   3.590   0.962   4.207  0.2379  0.2949 -0.2685
 2419WAT     H1 7468   3.520   0.909   4.169  0.3913 -0.3302  0.3041
 2419WAT     H2 7469   3.585   1.045   4.160 -1.2643  0.4762  0.1670
 2420WAT      O 7470   3.793   4.798   3.900  0.0981 -0.3906  0.1251
 2420WAT     H1 7471   3.728   4.815   3.832  0.1617  2.3871  0.6462
 2420WAT     H2 7472   3.774   4.863   3.968  2.5221 -0.4487  0.9486
 2421WAT      O 7473   2.647   0.319   3.256 -0.3581  0.1609  0.2889
 2421WAT     H1 7474   2.646   0.239   3.204  0.1580  0.8810 -0.8833
 2421WAT     H2 7475   2.561   0.358   3.242 -1.3628 -1.0889  2.4152
 2422WAT      O 7476   2.916   1.507   5.267  0.3109 -0.1336  0.7477
 2422WAT     H1 7477   2.882   1.418   5.263 -2.4869  0.7955  1.4183
 2422WAT     H2 7478   2.889   1.539   5.354 -0.6637  2.0117 -0.2690
 2423WAT      O 7479   4.493   4.977   2.679 -0.0411 -0.5605 -0.3408
 2423WAT     H1 7480   4.440   5.032   2.737 -0.3986 -1.5480  0.2991
 2423WAT     H2 7481   4.493   4.891   2.722  1.5844 -0.7301 -0.6382
 2424WAT      O 7482   0.279   4.352   2.699 -0.0396  0.4898 -0.3175
 2424WAT     H1 7483   0.213   4.342   2.631  0.9394  2.0709 -1.6011
 2424WAT     H2 7484   0.246   4.302   2.773 -0.9068 -1.7522 -2.1097
 2425WAT      O 7485   3.661   4.694   4.737  0.5231  0.2671 -0.0437
 2425WAT     H1 7486   3.693   4.777   4.701 -0.0881 -0.0994 -1.4810
 2425WAT     H2 7487   3.655   4.710   4.832 -2.0800  2.7790 -0.5012
 2426WAT      O 7488   2.913   1.731   0.803 -0.1511 -0.1483 -0.4867
 2426WAT     H1 7489   2.826   1.752   0.770 -0.3395 -1.9765 -1.3078
 2426WAT     H2 7490   2.971   1.742   0.727 -0.1983 -2.0112 -0.8375
 2427WAT      O 7491   2.839   2.600   0.848  0.4551 -0.0182  0.1031
 2427WAT     H1 7492   2.879   2.664   0.906 -0.4082 -0.1852  0.9031
 2427WAT     H2 7493   2.906   2.533   0.837  0.8567  0.3310  0.4005
 2428WAT      O 7494   1.130   0.650   2.908  0.5666 -0.4259 -0.4097
 2428WAT     H1 7495   1.046   0.633   2.952  1.0661 -3.6553 -0.4592
 2428WAT     H2 7496   1.105   0.694   2.827 -1.3187 -2.5482 -1.1080
 2429WAT      O 7497   2.688   1.413   4.532  0.1964  0.6256  0.0102
 2429WAT     H1 7498   2.699   1.449   4.619  1.0179 -1.1016  0.6635
 2429WAT     H2 7499   2.593   1.402   4.523 -0.0586  2.5678 -0.1075
 2430WAT      O 7500   2.487   3.628   5.152 -0.2991 -0.3345 -0.0354
 2430WAT     H1 7501   2.473   3.563   5.221 -3.4790 -0.0443 -0.2410
 2430WAT     H2 7502   2.581   3.641   5.151  0.2577 -3.1726  1.6173
 2431WAT      O 7503   2.274   1.280   0.642  0.0793 -0.0477  0.3742
 2431WAT     H1 7504   2.365   1.289   0.672  0.4183 -1.1416 -0.2719
 2431WAT     H2 7505   2.256   1.186   0.648 -1.0510  0.1643  0.5740
 2432WAT      O 7506   4.376   3.482   3.069 -0.3037  0.1567 -0.0900
 2432WAT     H1 7507   4.382   3.530   3.152  0.6899  0.0152 -0.0657
 2432WAT     H2 7508   4.346   3.394   3.094 -1.0758  0.4342 -0.0141
 2433WAT      O 7509   4.235   1.946   0.922  0.0603  0.2817  0.5966
 2433WAT     H1 7510   4.140   1.945   0.933 -0.1166 -0.1765 -0.7427
 2433WAT     H2 7511   4.268   1.897   0.997 -0.8040 -0.0473  0.7742
 2434WAT      O 7512   3.554   1.627   1.717  0.3000 -0.1654 -0.4916
 2434WAT     H1 7513   3.485   1.562   1.702  0.3412 -0.2758 -0.2036
 2434WAT     H2 7514   3.625   1.577   1.758  0.6404 -0.0973 -0.9892
 2435WAT      O 7515   0.544   2.600   3.293 -0.5293 -0.1097  0.7897
 2435WAT     H1 7516   0.595   2.572   3.369 -1.2461  0.4263  1.4843
 2435WAT     H2 7517   0.576   2.688   3.273 -1.2191  0.2555  1.2705
 2436WAT      O 7518   3.786   1.535   1.811  0.2862 -0.3503  0.1338
 2436WAT     H1 7519   3.838   1.458   1.834  0.2163 -0.2159  0.7394
 2436WAT     H2 7520   3.848   1.608   1.815  0.2593 -0.3174 -0.0424
 2437WAT      O 7521   3.606   1.236   4.331  0.3436 -0.0849 -0.7405
 2437WAT     H1 7522   3.618   1.265   4.241 -2.2222 -1.4115 -1.5946
 2437WAT     H2 7523   3.559   1.308   4.374  0.9335  0.2460 -0.6359
 2438WAT      O 7524   0.041   0.160   1.995 -0.2214 -0.4539  0.7413
 2438WAT     H1 7525   0.128   0.189   2.024  0.3230 -1.4956  0.1894
 2438WAT     H2 7526  -0.001   0.127   2.074  1.5710 -4.0749  0.3850
 2439WAT      O 7527   0.191   5.123   1.471 -0.6847  0.0593  0.1361
 2439WAT     H1 7528   0.179   5.216   1.451 -0.3969 -0.0966 -0.7900
 2439WAT     H2 7529   0.104   5.085   1.458 -0.9083  0.2732  0.9664
 2440WAT      O 7530   0.389   1.944   4.007 -0.6160 -0.6448  0.4198
 2440WAT     H1 7531   0.480   1.916   3.996 -0.0313  0.8693  1.0705
 2440WAT     H2 7532   0.362   1.904   4.090 -0.6373 -1.3141  0.0940
 2441WAT      O 7533   0.857   0.165   2.786  0.2856 -0.5445  0.5061
 2441WAT     H1 7534   0.909   0.086   2.805  0.5497 -1.0160 -1.7883
 2441WAT     H2 7535   0.921   0.229   2.755 -0.3175 -0.7948 -1.3955
 2442WAT      O 7536   2.021   3.215   2.083 -0.0767 -0.2172  0.1084
 2442WAT     H1 7537   2.105   3.260   2.079 -0.4558  0.4546 -0.9133
 2442WAT     H2 7538   2.043   3.125   2.108  0.8431  0.1708  0.7327
 2443WAT      O 7539   4.086   2.546   5.030  0.2807 -0.2674  0.1609
 2443WAT     H1 7540   4.018   2.555   4.964 -0.9608 -0.6620  1.3420
 2443WAT     H2 7541   4.167   2.570   4.985 -0.6139  0.0827 -1.3101
 2444WAT      O 7542   1.861   4.756   0.107 -0.2779  0.3088  0.6527
 2444WAT     H1 7543   1.801   4.711   0.047 -1.0634  1.8694  0.2219
 2444WAT     H2 7544   1.939   4.701   0.108 -0.5457 -0.1600 -1.2056
 2445WAT      O 7545   1.007   2.845   0.859  1.0319  0.5002  0.1071
 2445WAT     H1 7546   1.099   2.824   0.877  1.3362 -0.8471 -2.4670
 2445WAT     H2 7547   1.006   2.872   0.767 -1.5377 -3.4733 -1.3408
 2446WAT      O 7548   0.046   1.555   0.637  0.0380  0.5094 -0.0948
 2446WAT     H1 7549   0.077   1.643   0.614 -2.7023  1.5694 -0.1731
 2446WAT     H2 7550   0.005   1.566   0.723 -0.7145 -0.5960 -0.2930
 2447WAT      O 7551   0.719   0.847   3.580 -0.0426  0.0654 -0.3415
 2447WAT     H1 7552   0.706   0.817   3.490  1.6330 -0.5327 -0.4299
 2447WAT     H2 7553   0.692   0.773   3.634 -3.3708  1.2433 -0.1550
 2448WAT      O 7554   4.469   1.547   2.481  0.4656 -1.0020 -0.7421
 2448WAT     H1 7555   4.374   1.537   2.472  0.2782 -1.6386  1.3626
 2448WAT     H2 7556   4.504   1.519   2.397 -1.2123 -0.6640 -1.5903
 2449WAT      O 7557   1.529   2.867   1.682 -0.6724 -0.1848  0.3587
 2449WAT     H1 7558   1.512   2.794   1.623  1.6876 -0.7524  0.2962
 2449WAT     H2 7559   1.589   2.924   1.635  0.4049 -0.0962  1.7588
 2450WAT      O 7560   2.264   2.374   2.606  0.1898  0.4683  0.1222
 2450WAT     H1 7561   2.343   2.400   2.655  0.0105 -0.1457  0.7596
 2450WAT     H2 7562   2.266   2.427   2.527  1.2011  0.5304  0.1775
 2451WAT      O 7563   3.821   1.436   4.296 -0.2496  0.7377  0.1390
 2451WAT     H1 7564   3.775   1.507   4.253  2.4155  2.0965 -0.7313
 2451WAT     H2 7565   3.847   1.472   4.381  2.9216  1.7430 -1.1108
 2452WAT      O 7566   3.192   2.350   4.931 -0.4220 -0.0207  0.2515
 2452WAT     H1 7567   3.201   2.286   4.860 -0.6350  0.9608 -0.6792
 2452WAT     H2 7568   3.148   2.302   5.001 -1.8042 -0.5428 -0.9313
 2453WAT      O 7569   4.216   4.177   2.172  0.1193 -0.1883 -0.2278
 2453WAT     H1 7570   4.123   4.156   2.178 -0.3136  1.1417 -1.7014
 2453WAT     H2 7571   4.258   4.093   2.154 -1.0297 -0.5246 -1.5191
 2454WAT      O 7572   0.628   0.907   2.518  0.5409 -0.0987  0.0801
 2454WAT     H1 7573   0.708   0.954   2.544 -0.1786  1.7961 -0.8917
 2454WAT     H2 7574   0.558   0.969   2.537 -0.4563 -0.7339 -1.3453
 2455WAT      O 7575   4.118   0.645   4.080  0.1333 -0.4402 -0.1212
 2455WAT     H1 7576   4.114   0.613   3.990  0.6432 -0.3322 -0.1823
 2455WAT     H2 7577   4.205   0.682   4.089 -0.2719  0.4856  0.1106
 2456WAT      O 7578   1.529   2.392   1.647  0.0921 -0.5663  0.6488
 2456WAT     H1 7579   1.600   2.355   1.594  1.5495  3.6126 -0.6779
 2456WAT     H2 7580   1.545   2.357   1.735  1.0851 -3.1286 -0.4309
 2457WAT      O 7581   3.557   1.305   1.005 -0.0232 -0.2571 -0.6931
 2457WAT     H1 7582   3.554   1.398   1.026 -0.2735 -0.0783 -1.4700
 2457WAT     H2 7583   3.533   1.301   0.912  0.5617 -1.0431 -0.8177
 2458WAT      O 7584   1.106   0.441   5.247 -0.3194  0.1098 -0.1402
 2458WAT     H1 7585   1.058   0.361   5.268  0.9322 -0.3433  1.1720
 2458WAT     H2 7586   1.061   0.510   5.297  0.1886 -0.2563  0.8382
 2459WAT      O 7587   4.269   1.536   3.153  0.4675  0.1879  0.5760
 2459WAT     H1 7588   4.214   1.527   3.231  0.4736 -2.1857  0.3850
 2459WAT     H2 7589   4.352   1.571   3.186  0.2271 -0.1017  1.5216
 2460WAT      O 7590   2.239   2.219   4.313  0.3816  0.5089  0.3698
 2460WAT     H1 7591   2.205   2.131   4.332  0.4737  0.6383  1.1350
 2460WAT     H2 7592   2.170   2.278   4.343 -0.4385  0.6787 -1.6877
 2461WAT      O 7593   1.452   0.533   2.234 -0.2299 -0.6107  0.2103
 2461WAT     H1 7594   1.542   0.518   2.262 -0.2946  0.1949  0.9220
 2461WAT     H2 7595   1.439   0.474   2.161  0.5888 -1.3988  0.6773
 2462WAT      O 7596   1.131   4.784   3.877 -0.0470 -0.5781  0.1998
 2462WAT     H1 7597   1.199   4.716   3.879  1.6061  1.0013  0.4236
 2462WAT     H2 7598   1.157   4.842   3.805 -2.1477 -0.8279 -0.8512
 2463WAT      O 7599   3.006   3.960   0.983  0.1562 -0.0791 -0.2135
 2463WAT     H1 7600   3.003   4.037   0.927  0.0557 -0.1189 -0.2625
 2463WAT     H2 7601   3.059   3.897   0.934  1.2801  0.3881  0.3607
 2464WAT      O 7602   0.856   2.959   1.907 -0.2670  0.9721  0.2070
 2464WAT     H1 7603   0.859   3.019   1.982 -1.1518  0.0628  1.0005
 2464WAT     H2 7604   0.763   2.946   1.890 -0.1579 -1.3195  1.0333
 2465WAT      O 7605   0.913   4.968   3.520  0.4181  0.0517  0.3352
 2465WAT     H1 7606   1.000   4.928   3.520  0.7555  0.7687  0.0587
 2465WAT     H2 7607   0.909   5.017   3.603 -0.1384 -0.8408  0.8527
 2466WAT      O 7608   3.198   4.964   4.103 -0.0265 -0.4362  0.3021
 2466WAT     H1 7609   3.180   4.925   4.017  0.5965  1.3802 -0.7009
 2466WAT     H2 7610   3.113   4.998   4.132  0.1008  0.5490 -0.4508
 2467WAT      O 7611   0.022   4.019   0.551  0.3157  0.1773  0.0289
 2467WAT     H1 7612  -0.062   4.027   0.506  1.0185  0.3101 -1.3260
 2467WAT     H2 7613   0.011   4.069   0.632 -0.7146  0.7126 -0.4191
 2468WAT      O 7614   0.049   3.544   2.241  0.2158  0.2272 -0.1091
 2468WAT     H1 7615   0.003   3.618   2.202  0.4799  0.6803  0.4268
 2468WAT     H2 7616   0.032   3.552   2.335  3.5333  1.9776  0.5013
 2469WAT      O 7617   3.118   2.240   5.157 -0.7759  0.1668  0.0756
 2469WAT     H1 7618   3.199   2.244   5.207 -0.6843  1.1531 -0.1344
 2469WAT     H2 7619   3.061   2.305   5.198 -1.4589 -0.4910  0.2019
 2470WAT      O 7620   1.401   1.206   1.915 -0.3497  0.0637  0.1639
 2470WAT     H1 7621   1.315   1.232   1.948 -0.2080  1.2380 -0.3388
 2470WAT     H2 7622   1.444   1.289   1.894  0.9049 -0.5029  0.3984
 2471WAT      O 7623   0.045   2.213   0.579  0.1628 -0.1081  0.3761
 2471WAT     H1 7624  -0.006   2.158   0.639  1.8184 -0.7739  1.2283
 2471WAT     H2 7625   0.007   2.300   0.589 -1.1340 -0.6793  0.5919
 2472WAT      O 7626   2.735   3.593   3.442 -0.0124  0.6554 -0.8259
 2472WAT     H1 7627   2.677   3.607   3.517 -1.7984  0.5430 -2.1500
 2472WAT     H2 7628   2.737   3.498   3.430 -0.4289  0.7228 -1.4505
 2473WAT      O 7629   2.977   1.596   1.250  0.0003  0.1602 -0.1773
 2473WAT     H1 7630   2.893   1.615   1.208 -0.6617 -1.5241  0.3063
 2473WAT     H2 7631   3.025   1.679   1.246 -2.9547  2.2337  2.6013
 2474WAT      O 7632   4.442   2.735   2.997 -0.0386  0.5441 -0.1968
 2474WAT     H1 7633   4.423   2.658   3.051 -1.7900  0.8402 -0.3318
 2474WAT     H2 7634   4.531   2.760   3.021  0.3755 -1.2173  0.2267
 2475WAT      O 7635   3.164   2.634   5.287  0.4756  0.2029 -0.2520
 2475WAT     H1 7636   3.139   2.542   5.292 -1.3223  0.6128 -1.0331
 2475WAT     H2 7637   3.149   2.668   5.375 -0.8652  0.2174 -0.4749
 2476WAT      O 7638   3.083   4.717   2.565  0.1757 -0.0069 -0.4721
 2476WAT     H1 7639   3.178   4.708   2.564  0.1934 -0.2456  1.0067
 2476WAT     H2 7640   3.057   4.707   2.473  1.3492 -2.6492 -0.6226
 2477WAT      O 7641   3.778   2.371   1.499 -0.1990 -0.1936  0.2683
 2477WAT     H1 7642   3.770   2.467   1.495 -0.6734 -0.2214  0.4492
 2477WAT     H2 7643   3.839   2.350   1.429  0.5845  0.3117  0.7765
 2478WAT      O 7644   2.004   3.788   3.307  0.6063 -0.0702 -0.0533
 2478WAT     H1 7645   2.011   3.761   3.398 -1.6066 -2.0705 -0.3787
 2478WAT     H2 7646   1.926   3.842   3.303  0.5960 -0.1266 -0.7978
 2479WAT      O 7647   3.403   2.338   3.538 -0.0666  0.4447  0.3624
 2479WAT     H1 7648   3.310   2.331   3.515 -0.4251 -0.0908  1.8665
 2479WAT     H2 7649   3.444   2.374   3.459 -1.1659 -1.4097 -1.1623
 2480WAT      O 7650   3.921   2.197   2.974  0.0312 -0.0207  0.0758
 2480WAT     H1 7651   3.971   2.117   2.959 -0.3444 -0.7582  2.3909
 2480WAT     H2 7652   3.987   2.265   2.982  0.3375  0.0615 -2.3580
 2481WAT      O 7653   2.927   0.816   1.592  0.2113 -0.2347 -0.6510
 2481WAT     H1 7654   2.862   0.838   1.658 -0.1981  0.7378 -1.3470
 2481WAT     H2 7655   2.878   0.771   1.523 -0.2288  2.2908 -2.1481
 2482WAT      O 7656   3.344   4.102   2.320  0.4215 -0.5167  0.3860
 2482WAT     H1 7657   3.348   4.196   2.341 -0.1014 -0.5850  0.8271
 2482WAT     H2 7658   3.264   4.072   2.363 -0.5961 -0.7250 -1.5333
 2483WAT      O 7659   3.011   0.674   2.879 -0.1270 -0.0492 -0.0937
 2483WAT     H1 7660   2.922   0.681   2.843 -0.2022 -0.1764  0.0657
 2483WAT     H2 7661   3.068   0.693   2.804 -0.2881  0.0802 -0.1868
 2484WAT      O 7662   0.554   0.498   2.110  0.8528 -0.2965 -0.1517
 2484WAT     H1 7663   0.604   0.420   2.088 -0.2548 -1.7193  2.0398
 2484WAT     H2 7664   0.613   0.549   2.166  1.3571  0.1707 -1.0888
 2485WAT      O 7665   3.971   2.221   3.348  0.6845  0.7443  0.4772
 2485WAT     H1 7666   3.991   2.296   3.292  0.7742  0.7216  0.4791
 2485WAT     H2 7667   4.026   2.233   3.425  1.4431  0.1530  0.0412
 2486WAT      O 7668   3.504   3.406   2.871  0.2922  0.0358 -0.3790
 2486WAT     H1 7669   3.473   3.424   2.783  1.4360 -0.2725 -0.8630
 2486WAT     H2 7670   3.545   3.320   2.865  1.5054  0.5477  0.1329
 2487WAT      O 7671   1.887   2.082   4.121  0.4164 -0.5815 -0.1141
 2487WAT     H1 7672   1.958   2.018   4.114  1.0638  0.3068 -3.0275
 2487WAT     H2 7673   1.807   2.030   4.114  0.8179 -1.3312  0.6416
 2488WAT      O 7674   2.518   4.918   0.260 -0.0456 -0.5176  0.1635
 2488WAT     H1 7675   2.485   4.988   0.205  2.1827 -0.4702 -1.2559
 2488WAT     H2 7676   2.519   4.841   0.203 -4.1132 -2.3265  2.1679
 2489WAT      O 7677   1.676   0.605   5.071 -0.1231 -0.0600 -0.2987
 2489WAT     H1 7678   1.737   0.582   5.142 -0.6625 -0.0654  0.1680
 2489WAT     H2 7679   1.728   0.595   4.991  0.7890  0.8957  0.1419
 2490WAT      O 7680   1.756   0.388   3.273  0.1021 -0.3614  0.2751
 2490WAT     H1 7681   1.730   0.325   3.340 -0.9948  0.4227  0.6225
 2490WAT     H2 7682   1.673   0.427   3.244  0.6472  0.0016 -0.8477
 2491WAT      O 7683   2.139   1.942   0.645 -0.2578 -0.5543  0.2250
 2491WAT     H1 7684   2.151   1.920   0.552  1.7779 -1.3659  0.6150
 2491WAT     H2 7685   2.158   2.035   0.649  0.9193 -0.7622 -0.0218
 2492WAT      O 7686   1.701   2.815   0.446 -0.1291 -0.0972  0.3405
 2492WAT     H1 7687   1.660   2.854   0.369 -1.2622 -0.4429  0.7341
 2492WAT     H2 7688   1.757   2.746   0.411 -1.1384 -0.6954 -0.1679
 2493WAT      O 7689   3.992   0.646   0.760 -0.2191  0.0769  0.3231
 2493WAT     H1 7690   3.987   0.727   0.811  0.2711  0.2826  0.0464
 2493WAT     H2 7691   4.049   0.667   0.687 -0.5570 -0.3533 -0.0706
 2494WAT      O 7692   3.744   5.074   3.676  0.1461  0.3309 -0.1121
 2494WAT     H1 7693   3.752   5.151   3.619  1.0019  1.4007  1.3941
 2494WAT     H2 7694   3.708   5.108   3.758  0.9855 -0.7726  0.7464
 2495WAT      O 7695   1.915   1.500   3.859  0.5184  0.1146 -0.6568
 2495WAT     H1 7696   2.004   1.472   3.883  0.3215  0.4052  0.4588
 2495WAT     H2 7697   1.868   1.418   3.844  0.5315 -0.1261  0.4640
 2496WAT      O 7698   0.291   4.142   4.767  0.2555 -0.3772 -0.0058
 2496WAT     H1 7699   0.244   4.170   4.689  1.6560 -0.0817 -0.7727
 2496WAT     H2 7700   0.229   4.156   4.839 -0.1387  1.9784 -0.7140
 2497WAT      O 7701   1.630   2.626   0.637 -0.1702 -0.0191  0.2209
 2497WAT     H1 7702   1.715   2.639   0.679  0.2013  0.2374 -0.5765
 2497WAT     H2 7703   1.613   2.709   0.592 -1.4017  0.3501  1.3131
 2498WAT      O 7704   2.822   0.886   3.158 -0.2052 -0.1263 -0.0358
 2498WAT     H1 7705   2.811   0.945   3.084  0.2225  0.2941  0.2326
 2498WAT     H2 7706   2.813   0.798   3.121 -1.3060  0.1160 -0.3583
 2499WAT      O 7707   4.133   2.123   1.260  0.2691 -0.3286  0.2914
 2499WAT     H1 7708   4.207   2.062   1.265 -0.3299 -0.9556  1.9912
 2499WAT     H2 7709   4.119   2.152   1.350 -0.4885  1.1091 -0.2477
 2500WAT      O 7710   3.918   5.028   0.051  0.2808  0.4678 -0.5550
 2500WAT     H1 7711   3.858   4.956   0.033  1.3955 -0.0874 -2.3366
 2500WAT     H2 7712   3.998   5.004   0.006  0.8549  2.6130 -0.7877
 2501WAT      O 7713   4.213   4.314   4.659 -0.3954 -0.2623  0.8478
 2501WAT     H1 7714   4.289   4.258   4.672 -1.5741 -2.5001 -1.0452
 2501WAT     H2 7715   4.138   4.256   4.673 -1.7302  1.3676  0.7603
 2502WAT      O 7716   1.354   2.074   2.782  0.2201  0.6865 -0.1907
 2502WAT     H1 7717   1.430   2.076   2.723  0.4616  0.4540  0.1052
 2502WAT     H2 7718   1.347   1.982   2.808 -0.4724  0.6186 -0.6055
 2503WAT      O 7719   1.630   0.523   0.138 -0.3029 -0.3229 -0.1559
 2503WAT     H1 7720   1.722   0.537   0.114 -0.8472 -0.7122 -2.8688
 2503WAT     H2 7721   1.619   0.428   0.137 -0.9128 -0.2551 -0.7085
 2504WAT      O 7722   2.990   0.958   4.046  0.1668 -0.3895  0.3889
 2504WAT     H1 7723   2.958   0.929   4.131  0.5690 -1.2017  0.2746
 2504WAT     H2 7724   3.047   0.887   4.017  0.4463  0.1196 -0.3214
 2505WAT      O 7725   2.836   3.931   4.325 -0.0129 -1.0994 -0.0835
 2505WAT     H1 7726   2.926   3.903   4.339  0.3244  0.1109  0.3018
 2505WAT     H2 7727   2.786   3.889   4.395  0.6438 -0.0028  1.0822
 2506WAT      O 7728   0.320   0.209   0.139 -0.0017 -0.1219  0.0969
 2506WAT     H1 7729   0.391   0.256   0.183  0.3162  0.6406 -1.1662
 2506WAT     H2 7730   0.365   0.147   0.081 -0.3324  0.3446 -0.6879
 2507WAT      O 7731   3.852   2.555   3.747  0.6544  0.7386 -0.4636
 2507WAT     H1 7732   3.836   2.631   3.691 -4.3493 -0.9478 -1.8534
 2507WAT     H2 7733   3.780   2.556   3.810  1.1872 -2.1109  0.3187
 2508WAT      O 7734   1.232   3.065   5.272  0.0106 -0.5294  0.3730
 2508WAT     H1 7735   1.305   3.028   5.321  0.0410  0.6009  1.2392
 2508WAT     H2 7736   1.254   3.051   5.180 -0.7551 -4.0817  0.5936
 2509WAT      O 7737   3.015   2.122   1.746 -0.0063 -0.7561  0.3039
 2509WAT     H1 7738   3.022   2.148   1.654  3.2895 -1.7396  0.1557
 2509WAT     H2 7739   2.946   2.178   1.781  0.4200  1.5153 -2.1333
 2510WAT      O 7740   0.057   3.536   0.912  0.3612  0.2631  0.1531
 2510WAT     H1 7741  -0.028   3.495   0.898  0.6042  0.0745 -0.9077
 2510WAT     H2 7742   0.119   3.479   0.866  1.0289  0.5098  0.7321
 2511WAT      O 7743   0.971   2.895   3.216 -0.3258 -0.3180  0.1567
 2511WAT     H1 7744   1.009   2.905   3.303 -0.9802 -1.9117  0.6553
 2511WAT     H2 7745   1.018   2.821   3.177  0.2332  0.6139 -1.0291
 2512WAT      O 7746   0.561   3.032   1.452 -0.2520  0.5597 -0.5237
 2512WAT     H1 7747   0.634   3.042   1.391 -0.9154 -0.1861 -1.4585
 2512WAT     H2 7748   0.574   3.102   1.516  1.3945  0.3348 -0.5474
 2513WAT      O 7749   2.715   2.566   4.951 -0.0562 -0.2950 -0.6824
 2513WAT     H1 7750   2.789   2.603   4.998 -0.0672  0.5116 -1.2742
 2513WAT     H2 7751   2.689   2.489   5.002 -0.5684  0.9813  1.0713
 2514WAT      O 7752   2.466   2.561   1.153  0.5363 -0.2545 -0.0734
 2514WAT     H1 7753   2.465   2.617   1.231 -1.1398  0.8415 -0.8456
 2514WAT     H2 7754   2.391   2.503   1.164 -0.1243  0.3604 -1.1517
 2515WAT      O 7755   3.948   2.541   4.090 -0.0626 -0.8854  0.3597
 2515WAT     H1 7756   4.012   2.482   4.050 -0.3506 -0.5637 -0.5955
 2515WAT     H2 7757   3.963   2.626   4.048  0.2123 -0.3088  1.5778
 2516WAT      O 7758   3.576   3.792   4.803 -0.5259  0.1684  0.1574
 2516WAT     H1 7759   3.482   3.781   4.791 -0.4930  0.3710 -0.3013
 2516WAT     H2 7760   3.585   3.819   4.895 -1.0277  1.3570 -0.1267
 2517WAT      O 7761   4.368   2.027   1.385  0.6153 -0.1301 -0.1439
 2517WAT     H1 7762   4.383   2.120   1.402 -1.5149  0.1500  0.5329
 2517WAT     H2 7763   4.403   1.982   1.461 -1.1706  0.4238  1.0576
 2518WAT      O 7764   4.501   4.933   1.695  0.0508  0.4666 -0.0903
 2518WAT     H1 7765   4.550   5.010   1.723  1.3973  0.1949 -1.5584
 2518WAT     H2 7766   4.446   4.964   1.623 -0.7221  0.4050  0.4546
 2519WAT      O 7767   3.321   0.778   0.113  0.1955  0.0165 -0.1325
 2519WAT     H1 7768   3.253   0.711   0.113  0.1802  0.0324 -0.2876
 2519WAT     H2 7769   3.328   0.804   0.205  0.4459 -0.4417 -0.0172
 2520WAT      O 7770   0.201   3.362   1.646 -0.3115  0.0116 -0.0483
 2520WAT     H1 7771   0.268   3.394   1.706 -0.7155 -1.3556  1.1847
 2520WAT     H2 7772   0.249   3.306   1.584  0.2397  2.0989 -1.6067
 2521WAT      O 7773   4.493   1.546   3.537  0.5731  0.7146 -0.1482
 2521WAT     H1 7774   4.414   1.575   3.584  0.4109  0.0893 -0.0180
 2521WAT     H2 7775   4.472   1.457   3.509  1.2511  0.5260 -0.0734
 2522WAT      O 7776   1.956   4.563   4.391 -0.0716  0.0473 -0.1115
 2522WAT     H1 7777   1.959   4.655   4.415  0.3525  0.2036 -0.7564
 2522WAT     H2 7778   2.027   4.523   4.442 -1.0465 -0.1683  1.1350
 2523WAT      O 7779   2.110   0.886   1.744 -0.0607 -0.3108  0.1989
 2523WAT     H1 7780   2.085   0.976   1.726 -1.9462 -1.0164 -1.0427
 2523WAT     H2 7781   2.040   0.852   1.800  0.4031 -1.1280  0.3123
 2524WAT      O 7782   3.686   1.270   2.642 -0.5192 -0.1647 -0.1878
 2524WAT     H1 7783   3.730   1.287   2.559  1.2370 -0.6381  0.5879
 2524WAT     H2 7784   3.665   1.176   2.639  2.4892 -1.0137  1.1071
 2525WAT      O 7785   0.238   2.588   1.425  0.1842  0.0997 -0.1376
 2525WAT     H1 7786   0.318   2.638   1.414 -0.5012  1.5165  0.9176
 2525WAT     H2 7787   0.263   2.497   1.407  2.1213  0.4339  0.6318
 2526WAT      O 7788   3.713   1.259   1.996 -0.1620  0.2697 -0.4799
 2526WAT     H1 7789   3.713   1.199   2.070 -0.1628 -0.3631 -0.9820
 2526WAT     H2 7790   3.805   1.272   1.974 -0.2023 -1.0983 -1.5847
 2527WAT      O 7791   3.840   3.276   5.094 -0.3474 -0.3852 -0.0999
 2527WAT     H1 7792   3.931   3.252   5.076 -0.0569  0.4815  0.1635
 2527WAT     H2 7793   3.834   3.274   5.190 -0.5496 -0.2459 -0.1101
 2528WAT      O 7794   0.034   3.529   2.534  0.2746  0.1862  0.8638
 2528WAT     H1 7795   0.078   3.449   2.562  0.6335 -0.3648 -1.1441
 2528WAT     H2 7796  -0.011   3.560   2.613  0.8622 -1.4812  1.9108
 2529WAT      O 7797   1.564   2.877   5.145  0.4860 -0.1574 -0.4643
 2529WAT     H1 7798   1.559   2.782   5.161 -0.3384 -0.1200 -0.4793
 2529WAT     H2 7799   1.605   2.884   5.059 -0.2622 -0.5365 -0.8642
 2530WAT      O 7800   2.050   3.379   4.573 -0.4087 -0.1300  0.0605
 2530WAT     H1 7801   2.029   3.290   4.601 -1.6555  0.1292  0.0237
 2530WAT     H2 7802   2.145   3.379   4.561 -0.0344 -0.7497  2.5301
 2531WAT      O 7803   2.636   4.485   5.206 -0.3380  0.4058 -0.0618
 2531WAT     H1 7804   2.712   4.529   5.167 -0.8339  0.5931 -0.8204
 2531WAT     H2 7805   2.575   4.471   5.134 -0.5326 -0.8395  0.3169
 2532WAT      O 7806   4.132   0.211   0.314  0.2839 -0.1159  0.2944
 2532WAT     H1 7807   4.146   0.240   0.224  1.7087 -0.7783  0.2724
 2532WAT     H2 7808   4.062   0.146   0.307  0.8645 -0.6865 -0.4586
 2533WAT      O 7809   3.388   3.886   1.351  0.3571 -0.0111  0.6155
 2533WAT     H1 7810   3.416   3.867   1.441 -1.5983  0.7598  1.4483
 2533WAT     H2 7811   3.420   3.974   1.333  0.2921  0.0400  0.7539
 2534WAT      O 7812   1.872   2.414   4.847  0.0716  0.0711  0.6287
 2534WAT     H1 7813   1.799   2.451   4.797  0.3540  1.4895  1.2263
 2534WAT     H2 7814   1.831   2.361   4.914 -0.4285  0.8514  0.9523
 2535WAT      O 7815   2.051   4.581   4.733 -0.1741 -0.9483  0.4256
 2535WAT     H1 7816   1.991   4.655   4.745 -0.3348 -0.8976 -0.6013
 2535WAT     H2 7817   2.129   4.605   4.783 -0.7567 -0.7234  1.2453
 2536WAT      O 7818   1.010   2.223   3.569  0.4923  0.1865 -0.0408
 2536WAT     H1 7819   0.918   2.235   3.546  0.2615 -0.4599  0.5008
 2536WAT     H2 7820   1.034   2.304   3.613  0.0584  0.2054  0.1753
 2537WAT      O 7821   0.919   2.320   3.889 -0.1969 -0.6963 -0.1065
 2537WAT     H1 7822   0.850   2.254   3.887 -1.1554 -0.0808  3.7596
 2537WAT     H2 7823   0.999   2.272   3.912 -0.5591 -0.7639  1.0672
 2538WAT      O 7824   4.093   1.105   0.157  0.0372  0.5184 -0.1823
 2538WAT     H1 7825   4.019   1.152   0.118  1.1666  1.1593 -1.6821
 2538WAT     H2 7826   4.090   1.128   0.250 -0.3332  2.3752 -0.6085
 2539WAT      O 7827   1.162   2.117   3.978  0.3347  0.0226  0.2756
 2539WAT     H1 7828   1.253   2.096   3.998  0.8529  0.3447 -1.5765
 2539WAT     H2 7829   1.155   2.211   3.994  0.8653  0.3629 -1.3924
 2540WAT      O 7830   1.404   2.877   0.107  0.0636 -0.5447 -0.5292
 2540WAT     H1 7831   1.312   2.853   0.092 -0.1345 -0.0015 -0.2188
 2540WAT     H2 7832   1.449   2.849   0.027 -0.1702 -1.8195 -0.2390
 2541WAT      O 7833   1.103   1.345   4.864 -0.0680  0.6321  0.3581
 2541WAT     H1 7834   1.175   1.380   4.812  0.3867 -1.2122 -0.3151
 2541WAT     H2 7835   1.062   1.280   4.807 -1.2432  0.4769  1.3429
 2542WAT      O 7836   3.667   2.981   0.036 -0.4097 -0.1368  0.4354
 2542WAT     H1 7837   3.640   3.047   0.099  1.0300 -1.8295  3.0074
 2542WAT     H2 7838   3.596   2.916   0.037 -1.0382  0.4930 -0.8176
 2543WAT      O 7839   1.237   5.052   3.431  0.2243 -0.1694  0.0242
 2543WAT     H1 7840   1.330   5.068   3.415  0.7856 -1.8045  1.4052
 2543WAT     H2 7841   1.193   5.089   3.354  1.6661  3.6074  0.7994
 2544WAT      O 7842   1.016   1.809   2.508 -0.8769  0.1252  0.5002
 2544WAT     H1 7843   1.050   1.761   2.583 -1.7595  1.7454  2.0092
 2544WAT     H2 7844   0.952   1.749   2.468  0.1369 -1.0313  0.5712
 2545WAT      O 7845   3.300   2.997   2.877  0.1986  0.5523  0.1585
 2545WAT     H1 7846   3.332   2.984   2.966  0.8568 -1.9656 -0.3542
 2545WAT     H2 7847   3.378   3.023   2.828 -0.1300  1.7810  0.2758
 2546WAT      O 7848   3.424   4.285   2.015  0.2629 -0.2421  0.0548
 2546WAT     H1 7849   3.511   4.324   2.003  0.3332 -0.4961 -0.2862
 2546WAT     H2 7850   3.440   4.190   2.016  0.0306 -0.2790  0.3436
 2547WAT      O 7851   1.632   2.121   3.509 -0.7926 -0.2022 -0.2084
 2547WAT     H1 7852   1.693   2.193   3.496 -0.3333 -0.6741 -0.7110
 2547WAT     H2 7853   1.549   2.154   3.473 -0.3147 -0.3112 -1.4663
 2548WAT      O 7854   1.220   1.595   3.329  0.0711  0.2756  0.6790
 2548WAT     H1 7855   1.313   1.617   3.331  0.0056  1.4750 -2.8332
 2548WAT     H2 7856   1.206   1.555   3.243 -2.7142  0.4105  0.9636
 2549WAT      O 7857   2.842   2.023   2.232 -0.3038  0.5638 -0.1630
 2549WAT     H1 7858   2.854   2.071   2.314 -0.3455 -0.0258  0.1962
 2549WAT     H2 7859   2.750   2.038   2.209 -0.5950 -0.1643  0.4854
 2550WAT      O 7860   0.730   4.386   2.491 -0.3244 -0.2605 -0.0080
 2550WAT     H1 7861   0.667   4.379   2.562  1.2653 -1.3115  1.3725
 2550WAT     H2 7862   0.755   4.296   2.472 -0.2644  0.0455 -1.5000
 2551WAT      O 7863   1.441   4.143   4.073  0.4941 -0.0771  0.3952
 2551WAT     H1 7864   1.535   4.128   4.078  0.7200  1.1898  0.3017
 2551WAT     H2 7865   1.411   4.137   4.164  0.3206 -2.3415  0.2398
 2552WAT      O 7866   3.625   2.159   1.523  0.2546  0.7846  0.2947
 2552WAT     H1 7867   3.653   2.108   1.447 -0.1987 -0.2664  0.8073
 2552WAT     H2 7868   3.651   2.249   1.503  1.3818  0.3062 -0.4869
 2553WAT      O 7869   0.096   1.861   4.293 -0.1317 -0.0756 -0.4549
 2553WAT     H1 7870   0.041   1.791   4.258  0.5840 -0.6073 -0.5488
 2553WAT     H2 7871   0.182   1.820   4.306 -0.5201 -0.1756  2.7178
 2554WAT      O 7872   2.956   2.663   5.077  0.5146  0.1348  0.2338
 2554WAT     H1 7873   3.039   2.665   5.031  0.3247  1.3240 -0.0853
 2554WAT     H2 7874   2.979   2.636   5.167  1.2706  0.6934  0.2158
 2555WAT      O 7875   0.901   4.330   1.202 -0.6541  0.3672 -0.1853
 2555WAT     H1 7876   0.956   4.295   1.132  0.1158  1.1573  0.0093
 2555WAT     H2 7877   0.939   4.415   1.222 -2.1939  1.1230 -0.3177
 2556WAT      O 7878   3.005   3.398   5.010 -0.7454 -0.1825  0.0519
 2556WAT     H1 7879   3.033   3.310   4.989  1.9135 -0.5033  3.8216
 2556WAT     H2 7880   3.023   3.449   4.931  3.4618 -1.9670 -0.4075
 2557WAT      O 7881   0.469   0.884   3.373 -0.1467  0.2329  0.0190
 2557WAT     H1 7882   0.391   0.898   3.426 -1.7168 -2.9129 -1.1615
 2557WAT     H2 7883   0.474   0.789   3.363  1.4564  0.5105 -3.3334
 2558WAT      O 7884   4.017   3.104   1.462 -0.0926  0.2240 -0.7273
 2558WAT     H1 7885   3.992   3.054   1.385  1.2367 -1.4734 -0.1249
 2558WAT     H2 7886   4.099   3.064   1.491 -0.3862  1.0035  1.3685
 2559WAT      O 7887   1.938   1.516   5.278 -0.3670  0.2279  0.4588
 2559WAT     H1 7888   2.014   1.544   5.329 -1.6890  0.7479  2.2033
 2559WAT     H2 7889   1.916   1.429   5.313 -0.9109  0.3164  0.3455
 2560WAT      O 7890   1.463   2.448   2.088  0.0951  0.1912 -0.4045
 2560WAT     H1 7891   1.441   2.446   1.995  2.3652  0.0746 -1.0072
 2560WAT     H2 7892   1.487   2.358   2.110 -0.7905  0.1399  0.4157
 2561WAT      O 7893   0.175   0.032   5.095  0.1872  0.0392  0.2376
 2561WAT     H1 7894   0.171   0.124   5.070 -0.1546 -0.0501 -0.0432
 2561WAT     H2 7895   0.263   0.020   5.129  1.0887 -0.1204 -2.0022
 2562WAT      O 7896   2.705   2.357   2.609 -0.1078  0.0059  0.1165
 2562WAT     H1 7897   2.684   2.383   2.519 -0.3992 -2.5775 -0.6488
 2562WAT     H2 7898   2.630   2.385   2.661 -0.2391  0.9364 -0.5624
 2563WAT      O 7899   2.950   0.124   1.142 -0.1014  0.0840  0.0065
 2563WAT     H1 7900   3.017   0.072   1.099  0.3939  0.3170  0.4922
 2563WAT     H2 7901   2.944   0.204   1.090 -1.7114 -0.9240 -1.4571
 2564WAT      O 7902   2.401   0.043   2.731 -0.3688 -0.1901 -0.0432
 2564WAT     H1 7903   2.481   0.095   2.741 -0.5396  0.1609 -0.4498
 2564WAT     H2 7904   2.361   0.045   2.818 -0.9598  1.3468 -0.3114
 2565WAT      O 7905   3.009   0.832   2.001  0.1528  0.2904 -0.3574
 2565WAT     H1 7906   2.939   0.878   1.954  1.3003 -0.0226 -2.4501
 2565WAT     H2 7907   2.988   0.739   1.991  0.9260  0.1872 -1.1386
 2566WAT      O 7908   2.520   4.612   3.737  0.3924 -0.6482  0.3386
 2566WAT     H1 7909   2.586   4.593   3.803  0.9843  1.5914  0.4706
 2566WAT     H2 7910   2.557   4.580   3.655  0.9645 -0.7580  0.6406
 2567WAT      O 7911   2.040   3.474   0.824 -0.3815  0.0640  0.2561
 2567WAT     H1 7912   2.021   3.382   0.806  0.6701 -0.0183 -0.5271
 2567WAT     H2 7913   2.116   3.471   0.883  1.6106  0.4093 -2.1348
 2568WAT      O 7914   3.373   3.117   0.362  0.1394 -0.1310  0.2005
 2568WAT     H1 7915   3.334   3.043   0.409  1.2540 -1.2130 -0.5036
 2568WAT     H2 7916   3.337   3.110   0.274  0.5034 -0.0425  0.0434
 2569WAT      O 7917   1.124   4.929   3.189  0.0578 -0.3020  0.0083
 2569WAT     H1 7918   1.113   4.864   3.259  3.0920  0.8024  1.6982
 2569WAT     H2 7919   1.177   4.885   3.123  0.1000 -0.2837  0.0297
 2570WAT      O 7920   1.079   4.678   4.363  0.5444 -0.1038 -0.3432
 2570WAT     H1 7921   1.026   4.711   4.290  0.6593  1.7612  0.3617
 2570WAT     H2 7922   1.169   4.688   4.333  0.7018  2.7847  0.7917
 2571WAT      O 7923   2.599   1.920   2.496 -0.1971  0.0625  0.0110
 2571WAT     H1 7924   2.665   1.957   2.555  0.6766  0.2862 -1.0681
 2571WAT     H2 7925   2.549   1.996   2.466  1.8184  0.5409 -2.4761
 2572WAT      O 7926   0.090   0.201   3.576  0.4405  0.0139 -0.1170
 2572WAT     H1 7927   0.123   0.202   3.486 -2.4048  0.5765 -1.2795
 2572WAT     H2 7928   0.134   0.274   3.619  0.8112  0.6236 -1.4839
 2573WAT      O 7929   0.053   1.019   0.407  0.2252  0.1785  0.2842
 2573WAT     H1 7930   0.050   1.111   0.380 -1.2324  0.1313  0.2005
 2573WAT     H2 7931  -0.038   0.990   0.403  0.7274 -1.4274 -0.1924
 2574WAT      O 7932   3.126   3.545   0.221 -0.2970  0.2830  0.8902
 2574WAT     H1 7933   3.031   3.548   0.223 -0.2915 -0.0173  1.6305
 2574WAT     H2 7934   3.147   3.512   0.133 -0.8749  0.0995  0.8213
 2575WAT      O 7935   2.350   2.130   3.173  0.0104 -0.6560 -0.0185
 2575WAT     H1 7936   2.383   2.042   3.154  1.4272 -0.3902  1.0968
 2575WAT     H2 7937   2.407   2.163   3.242 -1.2750  0.6795  0.4568
 2576WAT      O 7938   0.596   2.251   1.092  0.3240 -0.4301 -0.2954
 2576WAT     H1 7939   0.651   2.195   1.037  1.5259  0.4885 -0.0663
 2576WAT     H2 7940   0.617   2.340   1.063 -0.3328 -0.0207  0.4707
 2577WAT      O 7941   0.065   1.399   5.010 -0.5028  0.2557  0.1437
 2577WAT     H1 7942   0.037   1.480   4.967 -0.4992  0.9524  1.4030
 2577WAT     H2 7943   0.103   1.428   5.093  3.2496 -0.6453 -1.0276
 2578WAT      O 7944   1.184   3.645   0.701 -0.0306  0.0976  0.1307
 2578WAT     H1 7945   1.240   3.643   0.623 -0.4392 -1.0497 -0.1537
 2578WAT     H2 7946   1.214   3.722   0.750  0.4492  0.6556 -0.9926
 2579WAT      O 7947   3.343   2.593   4.529 -0.4223  0.0875 -0.3973
 2579WAT     H1 7948   3.287   2.516   4.532 -2.5104  1.5319  0.4623
 2579WAT     H2 7949   3.287   2.661   4.490  1.3338  1.1919 -1.1207
 2580WAT      O 7950   2.121   1.181   2.808 -0.7162 -0.1741  0.3296
 2580WAT     H1 7951   2.066   1.236   2.865  0.8032  1.1171  0.6185
 2580WAT     H2 7952   2.194   1.238   2.784  0.4726 -1.8187 -0.0802
 2581WAT      O 7953   4.513   3.201   2.451 -0.6075 -0.0368 -0.7720
 2581WAT     H1 7954   4.441   3.255   2.417 -1.2899 -1.3328 -1.4508
 2581WAT     H2 7955   4.516   3.125   2.392  1.1341 -0.1597 -0.5750
 2582WAT      O 7956   4.336   1.327   0.860 -0.0030  0.0240 -0.3560
 2582WAT     H1 7957   4.308   1.237   0.845 -0.2639  0.2661 -1.3948
 2582WAT     H2 7958   4.329   1.369   0.775 -0.8937  1.3144  0.3213
 2583WAT      O 7959   1.121   2.514   0.024 -0.2323  0.2029  0.6325
 2583WAT     H1 7960   1.093   2.422   0.028 -2.0618  0.6644 -0.2805
 2583WAT     H2 7961   1.185   2.517  -0.047  0.0030 -0.3978  0.8164
 2584WAT      O 7962   3.935   3.370   1.368  0.1974 -0.5294  0.5889
 2584WAT     H1 7963   3.970   3.288   1.402 -1.6212 -0.4852  2.7464
 2584WAT     H2 7964   3.960   3.436   1.432  0.0926  0.3102 -0.2100
 2585WAT      O 7965   4.131   2.525   3.670 -0.2234 -0.1054  0.7539
 2585WAT     H1 7966   4.052   2.542   3.722  0.9218  0.2604  2.4732
 2585WAT     H2 7967   4.199   2.511   3.735  1.3874  0.7752 -0.6646
 2586WAT      O 7968   4.509   1.304   4.054  0.4820 -0.0040  0.3910
 2586WAT     H1 7969   4.566   1.374   4.020  1.9488 -1.2594  0.1567
 2586WAT     H2 7970   4.484   1.254   3.976 -0.3254  0.0800  0.5905
 2587WAT      O 7971   1.482   4.541   3.647 -0.3388 -0.2820 -0.1945
 2587WAT     H1 7972   1.441   4.620   3.611  0.5074 -1.0127 -3.0129
 2587WAT     H2 7973   1.573   4.566   3.659 -0.2214 -0.6012 -0.4098
 2588WAT      O 7974   4.353   4.034   4.468 -0.2919  0.2301  0.3231
 2588WAT     H1 7975   4.370   4.009   4.559 -0.3875  1.1046  0.5908
 2588WAT     H2 7976   4.260   4.016   4.455 -0.4140  0.6672  0.5847
 2589WAT      O 7977   2.755   1.054   5.025  0.1787  0.0595 -0.1079
 2589WAT     H1 7978   2.706   0.973   5.032  0.8693 -0.3579 -0.0314
 2589WAT     H2 7979   2.840   1.028   4.991  0.3567  0.7709 -0.2283
 2590WAT      O 7980   4.059   1.096   1.841  0.3220  0.4134 -0.2994
 2590WAT     H1 7981   3.995   1.042   1.794  2.3883 -1.6562 -0.9852
 2590WAT     H2 7982   4.092   1.038   1.910  0.5439  1.8734  0.8563
 2591WAT      O 7983   1.931   1.906   2.887  0.2276  0.2199 -0.2693
 2591WAT     H1 7984   1.915   1.989   2.842  0.4139  0.6510  0.4602
 2591WAT     H2 7985   1.876   1.910   2.965  1.0042  0.0938  0.2939
 2592WAT      O 7986   2.560   4.693   0.130 -0.1650 -0.4211  0.1258
 2592WAT     H1 7987   2.633   4.662   0.077 -0.0709  1.4585 -0.9506
 2592WAT     H2 7988   2.567   4.645   0.212  3.3775  0.9197  0.7911
 2593WAT      O 7989   3.385   3.278   4.652  0.0551  0.3530 -0.3634
 2593WAT     H1 7990   3.458   3.277   4.589  1.0265  2.3027  0.6399
 2593WAT     H2 7991   3.412   3.220   4.722  0.2987  0.4624 -0.3670
 2594WAT      O 7992   0.109   4.227   3.348 -0.1640 -0.5895 -0.0615
 2594WAT     H1 7993   0.103   4.320   3.370 -2.6364 -0.9860  1.3436
 2594WAT     H2 7994   0.090   4.224   3.254 -1.5006  0.2578  0.1467
 2595WAT      O 7995   1.084   2.896   1.771  0.4633 -0.3444 -0.5559
 2595WAT     H1 7996   1.060   2.804   1.772  0.8054 -0.4977 -2.4168
 2595WAT     H2 7997   1.002   2.944   1.784  0.5242 -0.8697  2.2551
 2596WAT      O 7998   4.228   3.747   2.590 -0.0348 -0.2449 -0.3590
 2596WAT     H1 7999   4.245   3.729   2.682  2.0012 -0.6939 -0.7781
 2596WAT     H2 8000   4.183   3.832   2.590 -0.0088 -0.2077  1.0210
 2597WAT      O 8001   2.583   1.419   3.605  0.3824 -0.2149 -0.1569
 2597WAT     H1 8002   2.669   1.428   3.647  1.3004 -2.1128 -1.4602
 2597WAT     H2 8003   2.569   1.325   3.600 -1.1789  0.0348 -1.1462
 2598WAT      O 8004   4.146   0.940   3.317  0.3644 -0.2803  0.3173
 2598WAT     H1 8005   4.231   0.927   3.274  0.4992  0.6473  0.2901
 2598WAT     H2 8006   4.108   0.852   3.321  1.2080 -0.6686  0.0873
 2599WAT      O 8007   2.173   5.088   1.303  0.1121  0.1720  0.0438
 2599WAT     H1 8008   2.086   5.069   1.337 -0.5806  0.0696 -1.6965
 2599WAT     H2 8009   2.233   5.061   1.374 -1.0911 -2.7062  0.1155
 2600WAT      O 8010   2.632   4.011   0.463 -0.9410 -0.1510 -0.3054
 2600WAT     H1 8011   2.675   4.006   0.549 -0.2804 -0.1410 -0.6249
 2600WAT     H2 8012   2.656   4.097   0.430 -0.5046 -0.4737 -0.8438
 2601WAT      O 8013   3.129   2.410   2.076 -0.0143  0.3429  0.1488
 2601WAT     H1 8014   3.185   2.388   2.001 -0.8060 -2.6843  0.3137
 2601WAT     H2 8015   3.160   2.496   2.104  2.2098  0.3209 -1.8760
 2602WAT      O 8016   2.032   2.376   0.330 -0.3490 -0.0795 -0.5506
 2602WAT     H1 8017   2.107   2.391   0.272 -0.2121  0.3424 -0.2659
 2602WAT     H2 8018   1.959   2.359   0.270  0.0445 -0.8449 -0.8252
 2603WAT      O 8019   2.611   0.964   1.911  0.1930 -0.4079  0.2439
 2603WAT     H1 8020   2.631   0.875   1.882 -1.0563 -0.8044  0.5087
 2603WAT     H2 8021   2.515   0.965   1.919  0.3773  0.0763  3.1316
 2604WAT      O 8022   3.448   0.436   4.737  0.5077 -0.1047 -0.3858
 2604WAT     H1 8023   3.359   0.417   4.707  0.2056  0.0691  0.3654
 2604WAT     H2 8024   3.473   0.515   4.689 -0.5565  1.0747  0.8758
 2605WAT      O 8025   4.362   2.973   2.862 -0.2003 -0.1464  0.4806
 2605WAT     H1 8026   4.373   2.880   2.881 -0.1972 -0.7221 -2.0684
 2605WAT     H2 8027   4.267   2.987   2.868 -0.3353 -0.6314 -0.3386
 2606WAT      O 8028   1.942   4.358   0.321 -0.0533 -0.2234 -0.5827
 2606WAT     H1 8029   1.917   4.267   0.336  1.5450 -0.2129  3.1165
 2606WAT     H2 8030   2.037   4.355   0.308  0.3830  0.9974  1.7843
 2607WAT      O 8031   1.056   3.395   2.600  0.7082 -0.3591 -0.2806
 2607WAT     H1 8032   1.152   3.397   2.598  0.6924  0.6143 -0.5475
 2607WAT     H2 8033   1.030   3.486   2.611 -0.1963 -0.5858 -0.4341
 2608WAT      O 8034   3.026   4.847   0.553 -0.1544 -0.7426  0.7185
 2608WAT     H1 8035   2.997   4.828   0.642 -1.1789 -2.0756  0.1433
 2608WAT     H2 8036   2.967   4.795   0.498  0.5837 -0.0922 -0.7245
 2609WAT      O 8037   3.781   3.872   0.286  0.1282 -0.2144  0.1735
 2609WAT     H1 8038   3.819   3.833   0.208 -0.1580  0.9700 -0.5782
 2609WAT     H2 8039   3.818   3.822   0.358  1.3116 -0.5670 -0.6546
 2610WAT      O 8040   3.711   0.687   0.695  0.1559 -0.0265 -0.3507
 2610WAT     H1 8041   3.804   0.670   0.713  0.6488  1.0929 -1.6478
 2610WAT     H2 8042   3.690   0.628   0.622 -1.2268 -2.9570  2.2052
 2611WAT      O 8043   3.346   1.434   1.694 -0.0378 -0.0481  0.5882
 2611WAT     H1 8044   3.326   1.346   1.726 -2.0244  0.3868  0.7027
 2611WAT     H2 8045   3.269   1.458   1.643  1.9375  0.2849 -2.4772
 2612WAT      O 8046   4.365   3.488   3.936 -0.5797  0.4701 -0.0984
 2612WAT     H1 8047   4.278   3.468   3.970 -0.7080 -1.6086 -1.4689
 2612WAT     H2 8048   4.365   3.452   3.847  1.1331  1.9401 -0.7540
 2613WAT      O 8049   0.225   1.964   1.956  0.5920  0.1881 -0.4902
 2613WAT     H1 8050   0.226   1.964   2.052 -2.0057  0.4805 -0.3929
 2613WAT     H2 8051   0.310   2.002   1.932  2.0710 -1.5045  1.6051
 2614WAT      O 8052   3.500   1.973   5.130 -0.3254 -0.0873  0.0338
 2614WAT     H1 8053   3.501   1.962   5.225  1.0847 -0.4967 -0.0130
 2614WAT     H2 8054   3.504   2.068   5.117  2.1885 -0.0732  0.4170
 2615WAT      O 8055   1.081   4.054   3.067  0.6279  0.0612 -0.5646
 2615WAT     H1 8056   0.995   4.055   3.110  0.2923 -0.3148 -1.1976
 2615WAT     H2 8057   1.092   4.144   3.034  1.3733  0.6534  1.1913
 2616WAT      O 8058   2.640   0.544   4.516  0.0296 -0.0974 -0.3715
 2616WAT     H1 8059   2.707   0.612   4.519  0.6797 -0.7105 -0.6006
 2616WAT     H2 8060   2.681   0.468   4.557 -0.6749 -0.3643 -0.1451
 2617WAT      O 8061   3.498   0.961   1.148  0.0446  0.1008 -0.2220
 2617WAT     H1 8062   3.438   0.908   1.201 -0.1992  1.2721  0.7258
 2617WAT     H2 8063   3.471   0.944   1.057 -1.4269  0.2148  0.1590
 2618WAT      O 8064   1.124   2.643   3.081 -0.1609 -0.0786  0.4019
 2618WAT     H1 8065   1.071   2.682   3.011 -0.7228 -1.4494  0.0492
 2618WAT     H2 8066   1.202   2.610   3.036  0.6983  1.2880  0.8166
 2619WAT      O 8067   1.147   2.973   3.409  0.0393 -0.2293  0.1569
 2619WAT     H1 8068   1.208   2.986   3.336 -0.5364 -1.4315 -0.5553
 2619WAT     H2 8069   1.154   3.054   3.460  0.9966  0.3287 -0.8155
 2620WAT      O 8070   1.450   0.213   3.128 -0.0362 -0.1613  0.3531
 2620WAT     H1 8071   1.507   0.276   3.085  0.2448 -0.6936 -0.0595
 2620WAT     H2 8072   1.506   0.138   3.147 -0.9503 -1.4714 -1.7248
 2621WAT      O 8073   3.656   2.195   4.240 -0.5692  0.1261  0.1111
 2621WAT     H1 8074   3.601   2.252   4.185  0.2294  1.4430  0.6234
 2621WAT     H2 8075   3.738   2.186   4.190 -1.5304 -2.6884 -1.1464
 2622WAT      O 8076   2.589   0.393   1.701  0.5235  0.4159  0.5432
 2622WAT     H1 8077   2.532   0.343   1.643  0.1819  0.4678  0.8361
 2622WAT     H2 8078   2.666   0.414   1.647 -0.0882  1.0429 -0.1064
 2623WAT      O 8079   0.827   1.381   2.446  0.3578 -0.1295 -0.2769
 2623WAT     H1 8080   0.839   1.302   2.394  2.1721  0.1679 -0.3566
 2623WAT     H2 8081   0.915   1.415   2.460 -0.2770  1.1461  0.9110
 2624WAT      O 8082   3.273   1.379   0.091  0.0645 -0.5125 -0.2851
 2624WAT     H1 8083   3.276   1.458   0.145  2.9530  0.1903 -1.3193
 2624WAT     H2 8084   3.308   1.406   0.006 -0.3999 -2.5658 -1.2037
 2625WAT      O 8085   0.209   3.166   3.582  0.0950  0.0473  0.0539
 2625WAT     H1 8086   0.242   3.241   3.632  0.2165  0.4244 -0.5759
 2625WAT     H2 8087   0.207   3.094   3.645  3.5189 -0.4036 -0.1563
 2626WAT      O 8088   0.999   4.237   2.491 -0.2307 -0.0221 -0.1163
 2626WAT     H1 8089   1.005   4.269   2.401  0.7569  0.9834  0.2874
 2626WAT     H2 8090   1.019   4.313   2.545  2.7167 -1.3551  0.8758
 2627WAT      O 8091   1.183   3.454   0.192  0.2016 -0.2310  0.3718
 2627WAT     H1 8092   1.117   3.440   0.124  1.8319  0.1518 -1.3763
 2627WAT     H2 8093   1.135   3.446   0.274 -1.9473 -0.2256 -0.8193
 2628WAT      O 8094   0.898   4.026   0.811  0.3081  0.2369 -0.1139
 2628WAT     H1 8095   0.921   3.952   0.866  1.7695 -0.3786 -1.4793
 2628WAT     H2 8096   0.809   4.007   0.780 -0.0240 -0.0341  0.9701
 2629WAT      O 8097   3.559   3.028   0.919 -0.2700 -0.3110 -0.2237
 2629WAT     H1 8098   3.508   3.021   0.838  0.8344  0.0261 -0.9695
 2629WAT     H2 8099   3.559   3.122   0.940 -0.6521 -0.4100  0.2435
 2630WAT      O 8100   3.710   3.792   4.539 -0.1721  0.3803 -0.8467
 2630WAT     H1 8101   3.682   3.702   4.522  1.2073 -0.8818  2.7232
 2630WAT     H2 8102   3.666   3.815   4.621  1.7704  1.8629 -0.1629
 2631WAT      O 8103   3.010   1.284   0.147  0.2983  0.3046 -0.0844
 2631WAT     H1 8104   3.095   1.316   0.117  0.3489 -0.5078 -0.8444
 2631WAT     H2 8105   2.974   1.357   0.198  2.6062 -0.3265  2.6575
 2632WAT      O 8106   2.119   4.463   1.782 -0.1066 -0.1268  0.1221
 2632WAT     H1 8107   2.080   4.387   1.826 -0.1866  0.3540  0.9005
 2632WAT     H2 8108   2.168   4.425   1.708 -0.4262 -0.9015  0.2952
 2633WAT      O 8109   3.300   3.950   2.932  0.2889  0.0917  0.0068
 2633WAT     H1 8110   3.213   3.986   2.947 -0.2019 -1.1309  0.1967
 2633WAT     H2 8111   3.347   3.967   3.014 -0.3153 -0.7576  0.5367
 2634WAT      O 8112   2.358   3.755   0.123 -0.1346 -0.3693 -0.1999
 2634WAT     H1 8113   2.443   3.795   0.144 -0.5066  0.5127 -0.3157
 2634WAT     H2 8114   2.374   3.705   0.043  0.6005 -1.3732  0.5482
 2635WAT      O 8115   2.465   2.092   0.533  0.4568  0.0931  0.0434
 2635WAT     H1 8116   2.474   2.159   0.465 -0.1336  0.9452  0.7679
 2635WAT     H2 8117   2.412   2.135   0.601 -3.2828 -2.2884 -1.0700
 2636WAT      O 8118   3.467   0.679   5.209 -0.3462  0.0380  0.3206
 2636WAT     H1 8119   3.442   0.587   5.218  2.3467 -0.8603 -0.4102
 2636WAT     H2 8120   3.418   0.723   5.278 -1.1178 -2.0658  1.2204
 2637WAT      O 8121   3.423   1.824   1.973 -0.3479 -0.6981 -0.4450
 2637WAT     H1 8122   3.351   1.822   2.036 -0.3814 -0.4382 -0.4727
 2637WAT     H2 8123   3.416   1.910   1.932  0.2331 -0.5083 -0.1580
 2638WAT      O 8124   4.217   3.768   1.362  0.1712 -0.0641 -0.0948
 2638WAT     H1 8125   4.242   3.697   1.421  1.0028  0.7879  0.6226
 2638WAT     H2 8126   4.220   3.846   1.417  1.5321  0.8511 -1.3983
 2639WAT      O 8127   1.438   0.697   0.077 -0.0293  0.4581  0.0222
 2639WAT     H1 8128   1.471   0.730  -0.006  0.2730  1.2050  0.4327
 2639WAT     H2 8129   1.504   0.634   0.105 -0.4478 -0.2751 -0.6053
 2640WAT      O 8130   2.988   0.650   4.093  0.0299 -0.1714 -0.4739
 2640WAT     H1 8131   2.942   0.666   4.175  0.2464 -1.2755 -0.1283
 2640WAT     H2 8132   3.076   0.686   4.107  0.4503 -1.4434  0.2227
 2641WAT      O 8133   3.599   3.102   4.999  0.8310  0.2434  0.0942
 2641WAT     H1 8134   3.624   3.031   4.940  1.5701  1.2176 -0.8043
 2641WAT     H2 8135   3.682   3.135   5.034  0.4290 -0.0161  1.3270
 2642WAT      O 8136   3.245   5.080   0.329  0.0023  0.3330 -0.1441
 2642WAT     H1 8137   3.185   5.022   0.282 -1.1003  1.3633 -0.0670
 2642WAT     H2 8138   3.260   5.038   0.413  0.1374 -0.3827 -0.5185
 2643WAT      O 8139   0.267   2.912   4.249  0.2158  0.0096 -0.4509
 2643WAT     H1 8140   0.278   3.005   4.271 -0.5870 -0.1571  0.7517
 2643WAT     H2 8141   0.300   2.905   4.159  3.0465  0.8799  0.3952
 2644WAT      O 8142   1.163   1.096   1.604 -0.0975 -0.5828 -0.2463
 2644WAT     H1 8143   1.179   1.150   1.527  1.3890 -0.2504  0.2790
 2644WAT     H2 8144   1.111   1.023   1.571 -0.7095  0.2959 -1.2764
 2645WAT      O 8145   2.285   3.518   4.032  0.2623  0.0705  0.1265
 2645WAT     H1 8146   2.264   3.608   4.008 -1.2181 -0.4869 -0.8347
 2645WAT     H2 8147   2.331   3.483   3.956  0.6028 -0.0626  0.3915
 2646WAT      O 8148   4.311   4.147   3.271 -0.2404  0.1271 -0.0170
 2646WAT     H1 8149   4.304   4.238   3.240  0.3806 -0.5483 -2.3529
 2646WAT     H2 8150   4.305   4.154   3.366 -1.3841  2.4988 -0.1718
 2647WAT      O 8151   1.746   4.424   3.246  0.6572 -0.5439 -0.1620
 2647WAT     H1 8152   1.696   4.377   3.179  0.5962 -0.6113 -0.0701
 2647WAT     H2 8153   1.718   4.384   3.329 -0.6365  0.7477  0.0801
 2648WAT      O 8154   1.535   2.022   1.059  0.2280 -0.3241  0.2287
 2648WAT     H1 8155   1.589   1.975   1.122 -0.1637 -2.4943 -0.9557
 2648WAT     H2 8156   1.528   1.963   0.984 -0.8301  1.3950 -1.1182
 2649WAT      O 8157   0.923   2.553   5.132 -0.4821 -0.6252 -0.1759
 2649WAT     H1 8158   1.002   2.546   5.186  1.0189 -2.9824 -2.4384
 2649WAT     H2 8159   0.853   2.525   5.190  0.3745  0.9094  1.7140
 2650WAT      O 8160   0.687   2.599   2.065 -0.8754  0.1114  0.3287
 2650WAT     H1 8161   0.776   2.572   2.086  0.8764  3.8373 -1.3198
 2650WAT     H2 8162   0.663   2.660   2.135 -0.7264  1.6361 -0.8994
 2651WAT      O 8163   2.148   0.019   4.257 -0.0769 -0.4883 -0.5062
 2651WAT     H1 8164   2.058   0.038   4.284  0.6777  0.3929  1.6505
 2651WAT     H2 8165   2.200   0.035   4.336  1.9067 -1.6114 -1.5159
 2652WAT      O 8166   0.726   4.502   0.110 -0.1555 -0.0352 -0.3480
 2652WAT     H1 8167   0.742   4.573   0.172 -0.0941 -0.0734 -0.3190
 2652WAT     H2 8168   0.656   4.450   0.150 -0.0105 -0.1462 -0.2354
 2653WAT      O 8169   3.039   1.908   1.928  0.1747  0.0299  0.4175
 2653WAT     H1 8170   3.009   1.986   1.880 -0.6022  0.0548  0.9231
 2653WAT     H2 8171   3.088   1.943   2.002  0.6987  0.0082  0.0865
 2654WAT      O 8172   2.620   0.278   3.679 -0.2542  0.6170 -0.1983
 2654WAT     H1 8173   2.638   0.371   3.664 -0.4578  0.7769  0.5215
 2654WAT     H2 8174   2.672   0.255   3.756  1.6807 -0.4837 -1.7445
 2655WAT      O 8175   1.243   3.304   4.694 -0.3459  0.4345 -0.1654
 2655WAT     H1 8176   1.251   3.209   4.682 -0.7953  0.3877 -0.1247
 2655WAT     H2 8177   1.150   3.318   4.711 -0.2257  0.8459  0.1722
 2656WAT      O 8178   0.576   1.012   1.144  0.0513 -0.2851  0.5848
 2656WAT     H1 8179   0.618   1.087   1.185  1.4582 -1.5514  1.5464
 2656WAT     H2 8180   0.538   0.962   1.216  2.0477 -2.2299  0.4224
 2657WAT      O 8181   4.329   2.677   3.524  0.1835 -0.2327  0.4591
 2657WAT     H1 8182   4.259   2.616   3.548 -0.5511 -0.0783 -1.1371
 2657WAT     H2 8183   4.380   2.630   3.459  0.5559  0.2712  0.3806
 2658WAT      O 8184   3.479   0.402   5.220  0.4989  0.2491 -0.0030
 2658WAT     H1 8185   3.569   0.425   5.197  0.8094 -0.2830  0.6341
 2658WAT     H2 8186   3.446   0.354   5.145  1.8632 -2.4432  1.0002
 2659WAT      O 8187   2.280   1.827   0.842 -0.1274  0.5550  0.1777
 2659WAT     H1 8188   2.225   1.868   0.775  0.2101  0.1555 -0.3493
 2659WAT     H2 8189   2.269   1.733   0.828 -0.1330  0.4651  0.7537
 2660WAT      O 8190   4.159   4.717   4.011  0.3965  0.1396 -0.0920
 2660WAT     H1 8191   4.117   4.742   4.093 -0.3342  0.1522 -0.4656
 2660WAT     H2 8192   4.177   4.623   4.021 -0.1178  0.0381 -0.1026
 2661WAT      O 8193   1.881   4.207   4.058 -0.4859 -0.1298  0.1003
 2661WAT     H1 8194   1.877   4.221   3.963  0.1595  1.0338  0.2233
 2661WAT     H2 8195   1.970   4.231   4.082 -1.0878  1.1317  1.2210
 2662WAT      O 8196   3.094   3.983   1.560 -0.0815  0.0107 -0.1718
 2662WAT     H1 8197   3.007   3.998   1.595 -0.8951 -0.0906 -2.0289
 2662WAT     H2 8198   3.151   4.043   1.608 -1.1904  0.1585  0.9746
 2663WAT      O 8199   1.554   4.168   2.191 -0.5692  0.1363 -0.1656
 2663WAT     H1 8200   1.609   4.173   2.269  2.8588  1.2072 -2.4438
 2663WAT     H2 8201   1.594   4.100   2.137 -2.7365 -0.4640 -1.1437
 2664WAT      O 8202   2.684   2.852   4.660 -0.1803  0.3587  0.1907
 2664WAT     H1 8203   2.652   2.892   4.741  1.2489 -0.8546  1.4248
 2664WAT     H2 8204   2.756   2.908   4.632  0.9294 -0.5340  1.1626
 2665WAT      O 8205   1.165   4.914   1.845 -0.3204  0.0927 -0.6632
 2665WAT     H1 8206   1.149   4.891   1.753 -1.0228 -0.8871 -0.3118
 2665WAT     H2 8207   1.080   4.905   1.887  0.0566  0.2413  0.1504
 2666WAT      O 8208   3.365   0.578   3.214 -0.4009 -0.1462  0.3762
 2666WAT     H1 8209   3.273   0.555   3.200 -0.6254  1.8150 -1.9867
 2666WAT     H2 8210   3.412   0.495   3.201 -1.7178 -0.9006  0.1732
 2667WAT      O 8211   3.846   2.781   0.025 -0.5139  0.4501 -0.2677
 2667WAT     H1 8212   3.792   2.740  -0.042  0.0467 -1.3027  0.2978
 2667WAT     H2 8213   3.802   2.863   0.045 -2.8814 -0.8120  0.0215
 2668WAT      O 8214   2.874   2.975   4.455 -0.0640  0.0172 -0.2472
 2668WAT     H1 8215   2.908   2.886   4.444 -1.3301 -0.2639 -2.3259
 2668WAT     H2 8216   2.920   3.026   4.388 -0.3763  0.6346  0.0066
 2669WAT      O 8217   4.506   4.973   0.426  0.5726 -0.1322 -0.0278
 2669WAT     H1 8218   4.515   5.065   0.449  0.2205 -0.3070  0.8289
 2669WAT     H2 8219   4.538   4.968   0.336  0.9757  0.7488  0.0587
 2670WAT      O 8220   3.434   0.295   3.477 -0.2566  0.5266 -0.4499
 2670WAT     H1 8221   3.416   0.289   3.571  0.4007 -1.6340 -0.3890
 2670WAT     H2 8222   3.349   0.318   3.438 -0.1022  3.6040  0.7562
 2671WAT      O 8223   2.074   1.319   4.761 -0.2064  0.2930 -0.1994
 2671WAT     H1 8224   2.069   1.302   4.667 -1.0855  3.3507 -0.8267
 2671WAT     H2 8225   1.983   1.324   4.790  0.0211  0.7581  0.4901
 2672WAT      O 8226   2.867   2.195   0.963  0.0614 -0.1976 -0.1955
 2672WAT     H1 8227   2.785   2.227   1.000 -0.7526 -0.2076 -1.8850
 2672WAT     H2 8228   2.934   2.225   1.024 -0.9941  1.5987  0.1652
 2673WAT      O 8229   3.766   4.215   2.970 -0.1087 -0.1008  0.2889
 2673WAT     H1 8230   3.785   4.222   2.877 -0.5308 -0.3027  0.1861
 2673WAT     H2 8231   3.750   4.122   2.984  0.2006 -0.1081  0.6141
 2674WAT      O 8232   3.050   1.854   4.866 -0.2565 -0.2245 -0.1880
 2674WAT     H1 8233   3.128   1.873   4.918 -1.2912  2.0889  0.6522
 2674WAT     H2 8234   3.013   1.776   4.907  0.3377  0.0470  0.9217
 2675WAT      O 8235   2.229   3.790   0.865  0.4843 -0.3844  0.0167
 2675WAT     H1 8236   2.230   3.763   0.773 -1.4416 -2.6097  0.5287
 2675WAT     H2 8237   2.152   3.846   0.873 -1.1309 -2.5320  0.7076
 2676WAT      O 8238   3.798   1.917   2.937  0.5754  0.0047  0.0877
 2676WAT     H1 8239   3.832   1.984   2.996  1.7341 -1.2482  0.8969
 2676WAT     H2 8240   3.871   1.855   2.926 -0.1866 -0.7064 -1.2832
 2677WAT      O 8241   1.458   4.182   1.532 -0.0536 -0.0157  0.3053
 2677WAT     H1 8242   1.427   4.256   1.583 -2.4340 -1.1313  0.5812
 2677WAT     H2 8243   1.475   4.218   1.445 -1.0250  0.8950  0.4759
 2678WAT      O 8244   1.599   4.856   3.987  0.2237 -0.3391  0.4213
 2678WAT     H1 8245   1.586   4.931   4.045  1.1468 -0.2923  0.5864
 2678WAT     H2 8246   1.621   4.894   3.902  0.2422 -0.4101  0.3934
 2679WAT      O 8247   0.097   4.470   1.146  0.2035  0.2004  0.1437
 2679WAT     H1 8248   0.100   4.455   1.241  0.5516 -0.3469  0.0505
 2679WAT     H2 8249   0.029   4.411   1.115  1.5360 -1.2384 -0.2162
 2680WAT      O 8250   1.391   0.718   3.820 -0.7134 -0.2486 -0.2386
 2680WAT     H1 8251   1.302   0.751   3.826 -0.0832  1.3461  1.2279
 2680WAT     H2 8252   1.426   0.727   3.909  1.4957  0.9745 -1.1449
 2681WAT      O 8253   0.560   2.896   1.114  0.3452  0.2225  0.5063
 2681WAT     H1 8254   0.524   2.906   1.026  0.0659 -2.9984  0.1119
 2681WAT     H2 8255   0.608   2.977   1.130 -1.2433  1.7295 -1.7871
 2682WAT      O 8256   0.178   0.045   2.610  0.3718  0.4099  0.1510
 2682WAT     H1 8257   0.233   0.054   2.688 -0.8528 -1.3764  1.2910
 2682WAT     H2 8258   0.097   0.005   2.642  0.5397 -2.1622 -2.2564
 2683WAT      O 8259   1.321   3.220   3.949 -0.2017  0.4614 -0.1235
 2683WAT     H1 8260   1.285   3.295   3.997  0.7725  0.2807  0.9403
 2683WAT     H2 8261   1.306   3.242   3.857 -0.7828  1.5176  0.1964
 2684WAT      O 8262   1.041   1.191   2.660 -0.0823 -0.4176 -0.3042
 2684WAT     H1 8263   0.986   1.117   2.632 -0.3725 -0.4050  0.2173
 2684WAT     H2 8264   0.984   1.243   2.717 -0.0822  0.5563 -1.1555
 2685WAT      O 8265   3.017   2.487   4.795  0.0939 -0.5988 -0.0889
 2685WAT     H1 8266   3.034   2.581   4.796 -1.6477 -0.2241  1.4415
 2685WAT     H2 8267   3.071   2.452   4.866  0.2035 -0.6321 -0.1891
 2686WAT      O 8268   3.545   0.171   4.188 -0.0383 -0.0146  0.6797
 2686WAT     H1 8269   3.597   0.114   4.243  2.1017  1.5197  0.3583
 2686WAT     H2 8270   3.459   0.174   4.230  0.3927 -1.8441  1.7738
 2687WAT      O 8271   1.021   2.613   3.571 -0.0146  0.1641  0.3194
 2687WAT     H1 8272   1.100   2.659   3.543 -0.6203  0.2275 -1.4362
 2687WAT     H2 8273   1.011   2.542   3.508 -0.8084 -0.4819  1.1407
 2688WAT      O 8274   3.475   4.923   3.718 -0.6398 -0.2236 -0.2061
 2688WAT     H1 8275   3.451   4.987   3.652 -0.4152  0.6308  0.5139
 2688WAT     H2 8276   3.544   4.966   3.769 -2.1217 -0.0425  1.7851
 2689WAT      O 8277   2.471   3.023   4.395 -0.3570 -0.0593 -0.1235
 2689WAT     H1 8278   2.541   2.960   4.379  0.6799  1.5943 -2.5865
 2689WAT     H2 8279   2.490   3.097   4.337 -3.2482  1.1930  0.3175
 2690WAT      O 8280   1.097   4.316   4.305  0.0292  0.4879  0.1961
 2690WAT     H1 8281   1.189   4.334   4.290  0.1208 -0.9607 -1.2189
 2690WAT     H2 8282   1.065   4.280   4.221 -1.4040 -0.5707  1.1399
 2691WAT      O 8283   1.052   1.882   4.061 -0.4173  0.4201 -0.0975
 2691WAT     H1 8284   1.089   1.963   4.027  0.1564  0.1911 -0.0288
 2691WAT     H2 8285   1.022   1.904   4.149 -0.3519  0.5783 -0.1148
 2692WAT      O 8286   1.681   0.928   3.657 -0.0120  0.1818 -0.0429
 2692WAT     H1 8287   1.693   0.842   3.617  0.6557 -0.2602  1.0722
 2692WAT     H2 8288   1.586   0.939   3.664 -0.1305  0.0298 -1.1881
 2693WAT      O 8289   1.006   2.476   3.327  0.3381  0.4685  0.0812
 2693WAT     H1 8290   0.960   2.406   3.283 -0.8440 -0.3481  2.4286
 2693WAT     H2 8291   1.047   2.526   3.257 -0.1269 -1.6004 -1.7695
 2694WAT      O 8292   2.364   4.006   3.478 -0.4646 -0.4816 -0.2149
 2694WAT     H1 8293   2.406   3.934   3.430 -0.1111 -0.7742  0.5253
 2694WAT     H2 8294   2.343   3.970   3.563  0.1844  0.4273  0.3585
 2695WAT      O 8295   0.880   1.254   0.394 -0.2164  0.1664  0.1529
 2695WAT     H1 8296   0.924   1.272   0.311  0.1001 -2.5974 -0.3696
 2695WAT     H2 8297   0.919   1.315   0.456  1.9562  0.0595 -1.0273
 2696WAT      O 8298   2.485   2.218   1.733  0.1192 -0.4702  0.5985
 2696WAT     H1 8299   2.579   2.217   1.748  0.2055  0.2969  0.1874
 2696WAT     H2 8300   2.468   2.144   1.676  0.5125 -0.4612  0.4693
 2697WAT      O 8301   0.606   2.045   0.156 -0.3804 -0.0524 -0.4128
 2697WAT     H1 8302   0.610   1.951   0.176 -0.1735  0.2777  1.1533
 2697WAT     H2 8303   0.694   2.077   0.176 -0.2331  0.3641 -1.6478
 2698WAT      O 8304   3.632   4.616   5.281 -0.3956 -0.0760 -0.4878
 2698WAT     H1 8305   3.683   4.550   5.234  0.2187  0.0516 -0.0149
 2698WAT     H2 8306   3.613   4.575   5.366 -1.0864 -0.1197 -0.6525
 2699WAT      O 8307   1.672   1.807   2.193 -0.0840 -0.5213  0.1219
 2699WAT     H1 8308   1.631   1.726   2.222  1.1431 -0.2769  2.8840
 2699WAT     H2 8309   1.617   1.876   2.230 -0.0240 -0.1067 -0.5404
 2700WAT      O 8310   0.734   3.265   3.881 -0.5225  0.5242  0.1773
 2700WAT     H1 8311   0.651   3.219   3.895 -0.2236 -0.2620 -0.5769
 2700WAT     H2 8312   0.736   3.331   3.950 -1.1760 -0.2955  1.0161
 2701WAT      O 8313   4.498   4.894   3.689  0.0180  0.0610  0.0021
 2701WAT     H1 8314   4.410   4.924   3.668  0.3563  1.0034 -0.1229
 2701WAT     H2 8315   4.539   4.969   3.733  1.3695  0.3532 -1.6290
 2702WAT      O 8316   1.530   4.670   1.649 -0.1484  0.2422 -0.1751
 2702WAT     H1 8317   1.445   4.674   1.605 -0.3276  0.0458  0.1491
 2702WAT     H2 8318   1.509   4.669   1.742  0.1751 -0.5561 -0.1039
 2703WAT      O 8319   0.594   3.838   4.156  0.2400  0.3836  0.9909
 2703WAT     H1 8320   0.636   3.839   4.242  0.1204  1.9600  1.0669
 2703WAT     H2 8321   0.502   3.856   4.175 -0.3189 -1.8352  0.7211
 2704WAT      O 8322   1.761   3.649   4.180 -0.2470  0.4084 -0.3033
 2704WAT     H1 8323   1.698   3.596   4.228  0.7033 -2.6279 -2.1381
 2704WAT     H2 8324   1.707   3.704   4.123 -1.2560  1.2583  1.3912
 2705WAT      O 8325   1.664   3.144   3.849  0.0182 -0.2009  0.3468
 2705WAT     H1 8326   1.730   3.093   3.896  0.3428  0.9899  1.2332
 2705WAT     H2 8327   1.580   3.109   3.880  0.2347  0.0490  1.2524
 2706WAT      O 8328   0.721   2.636   4.450 -0.1649 -0.3188 -0.0427
 2706WAT     H1 8329   0.770   2.686   4.515 -0.9839 -0.2737  0.5544
 2706WAT     H2 8330   0.788   2.589   4.400  0.4116 -2.0285  2.1954
 2707WAT      O 8331   4.471   3.812   2.207 -0.3169 -0.2166 -0.3950
 2707WAT     H1 8332   4.515   3.891   2.176  0.6336 -0.6706 -0.2363
 2707WAT     H2 8333   4.471   3.820   2.302  0.8698 -0.9449 -0.3060
 2708WAT      O 8334   1.690   2.576   1.017  0.2719  0.4171 -0.1984
 2708WAT     H1 8335   1.780   2.567   0.984 -0.0221  0.5381 -1.0387
 2708WAT     H2 8336   1.639   2.516   0.964  0.0204 -0.5120  1.0338
 2709WAT      O 8337   2.022   0.192   4.560  0.2968 -0.6282 -0.5614
 2709WAT     H1 8338   1.984   0.237   4.484  0.8741 -1.4667 -1.3770
 2709WAT     H2 8339   2.102   0.241   4.579 -0.2231  0.0293 -0.0063
 2710WAT      O 8340   2.395   2.521   4.354  0.2505  0.4770  0.3018
 2710WAT     H1 8341   2.451   2.448   4.329 -0.2639 -0.3670  1.4759
 2710WAT     H2 8342   2.308   2.481   4.363  0.0317  1.1523  1.3007
 2711WAT      O 8343   2.410   1.861   3.031 -0.6879  0.2103  0.1294
 2711WAT     H1 8344   2.503   1.881   3.026 -0.6068 -0.1041  0.3280
 2711WAT     H2 8345   2.407   1.766   3.043 -1.0386  0.1927 -0.0795
 2712WAT      O 8346   2.043   2.826   1.799  0.2660  0.0225 -0.1962
 2712WAT     H1 8347   1.999   2.766   1.859  0.1154 -1.4591 -1.7272
 2712WAT     H2 8348   2.130   2.788   1.785  0.2637  0.2799 -0.9841
 2713WAT      O 8349   0.186   2.788   3.071  0.6886 -0.2114  0.0408
 2713WAT     H1 8350   0.272   2.784   3.029  1.5417  4.8099  0.7044
 2713WAT     H2 8351   0.206   2.816   3.161 -1.5907  2.2541 -0.1200
 2714WAT      O 8352   3.694   2.035   2.586  0.0240  0.3475  0.1352
 2714WAT     H1 8353   3.650   2.014   2.668  3.7190 -0.8508  2.0626
 2714WAT     H2 8354   3.731   2.122   2.601 -0.2409  0.6276 -0.7699
 2715WAT      O 8355   1.838   0.384   0.492 -0.5098  0.2199 -0.4658
 2715WAT     H1 8356   1.749   0.355   0.477 -0.7750  0.9457 -0.3478
 2715WAT     H2 8357   1.863   0.429   0.411 -0.0404 -0.4915 -0.7190
 2716WAT      O 8358   3.088   1.080   1.037 -0.4570 -0.3464 -0.1457
 2716WAT     H1 8359   3.080   1.134   0.958 -1.0194  0.1128  0.2141
 2716WAT     H2 8360   3.154   1.124   1.090 -0.2831 -0.4978 -0.2375
 2717WAT      O 8361   1.097   2.228   2.125 -0.4261 -0.2780  0.3793
 2717WAT     H1 8362   1.028   2.166   2.150 -1.3051  1.0507  1.3323
 2717WAT     H2 8363   1.073   2.256   2.037 -1.6010  0.7782  0.9983
 2718WAT      O 8364   2.751   1.668   1.446 -0.0347  0.2357  0.3246
 2718WAT     H1 8365   2.739   1.661   1.351 -3.0804  0.4078  0.5967
 2718WAT     H2 8366   2.794   1.752   1.459 -0.1782  0.5132 -0.8930
 2719WAT      O 8367   3.766   1.021   3.761  0.0526 -0.3879  0.0282
 2719WAT     H1 8368   3.734   1.100   3.804  1.4421  1.8931 -2.7980
 2719WAT     H2 8369   3.861   1.022   3.775  0.3873 -0.2015 -2.0133
 2720WAT      O 8370   0.316   1.785   0.917  0.1267 -0.2500 -0.5190
 2720WAT     H1 8371   0.292   1.709   0.864 -1.4100  0.1846 -0.4914
 2720WAT     H2 8372   0.233   1.821   0.946  0.8672  0.9132  0.2392
 2721WAT      O 8373   0.023   4.029   5.273  0.0142 -0.0528  0.1310
 2721WAT     H1 8374  -0.003   3.958   5.331  0.9587  1.2969  2.3558
 2721WAT     H2 8375  -0.027   4.014   5.193 -0.6650 -2.5379  0.9336
 2722WAT      O 8376   0.960   1.542   4.622 -0.3918  0.0970 -0.3385
 2722WAT     H1 8377   0.890   1.480   4.642  0.4548 -0.9994 -0.6986
 2722WAT     H2 8378   0.919   1.628   4.632 -1.8092 -0.5169 -0.6193
 2723WAT      O 8379   2.684   4.116   3.910 -0.1791 -0.2844 -0.2893
 2723WAT     H1 8380   2.711   4.047   3.849 -2.5492 -0.4436 -1.2878
 2723WAT     H2 8381   2.595   4.092   3.936 -0.1860  1.1607  1.2351
 2724WAT      O 8382   4.459   3.613   2.816  0.2706  0.8783  0.2130
 2724WAT     H1 8383   4.432   3.705   2.812  0.2447  0.9207  1.1450
 2724WAT     H2 8384   4.441   3.587   2.906  0.0633 -0.1107 -0.1055
 2725WAT      O 8385   1.807   4.467   4.687  0.4192  0.0189 -0.9120
 2725WAT     H1 8386   1.822   4.387   4.637  1.5539 -0.4900  0.1796
 2725WAT     H2 8387   1.895   4.497   4.711  0.0777  2.1586 -2.1107
 2726WAT      O 8388   1.770   0.272   1.351  0.5198  0.1040  0.1643
 2726WAT     H1 8389   1.728   0.337   1.295  4.0181  0.2629 -2.6482
 2726WAT     H2 8390   1.725   0.190   1.331 -0.6737  0.7998 -0.0900
 2727WAT      O 8391   3.935   4.944   4.444  0.4572 -0.4216  0.2277
 2727WAT     H1 8392   3.965   4.889   4.516  0.3792 -0.5027  0.1991
 2727WAT     H2 8393   3.938   5.033   4.478 -2.7193 -0.6645  1.4731
 2728WAT      O 8394   3.243   3.139   0.125 -0.1216 -0.4938 -0.0921
 2728WAT     H1 8395   3.321   3.130   0.070 -0.9689 -1.0171 -1.2633
 2728WAT     H2 8396   3.213   3.229   0.110 -0.1384 -0.5189 -0.2153
 2729WAT      O 8397   1.996   1.537   2.116 -0.1568 -0.0160  0.0191
 2729WAT     H1 8398   2.000   1.616   2.063 -0.4264  0.2674  0.4179
 2729WAT     H2 8399   1.908   1.502   2.102 -1.3105  1.6172  2.4625
 2730WAT      O 8400   0.459   4.370   1.370  0.3582 -0.2029 -0.3245
 2730WAT     H1 8401   0.405   4.445   1.394  2.0040  0.8326  0.3159
 2730WAT     H2 8402   0.436   4.302   1.433 -1.5178 -0.4545 -1.2206
 2731WAT      O 8403   0.954   2.335   0.224 -0.4233  0.9623 -0.4272
 2731WAT     H1 8404   1.011   2.410   0.207  0.4704  0.5463  0.6085
 2731WAT     H2 8405   0.938   2.338   0.318 -0.2792 -0.2155 -0.3507
 2732WAT      O 8406   3.658   3.515   1.697  0.3246  0.3554  0.4333
 2732WAT     H1 8407   3.611   3.443   1.737  0.3608 -1.4069 -2.4293
 2732WAT     H2 8408   3.749   3.504   1.727  0.4680 -1.2664 -0.4629
 2733WAT      O 8409   0.962   1.277   1.113 -0.0862  0.4026 -0.3840
 2733WAT     H1 8410   0.870   1.258   1.133  0.5716 -0.6395  2.0892
 2733WAT     H2 8411   1.004   1.191   1.109  1.2596  0.8935  1.5449
 2734WAT      O 8412   3.975   1.310   2.727  0.2309 -0.0037 -0.2972
 2734WAT     H1 8413   3.903   1.279   2.672  1.1879 -2.4212 -0.3113
 2734WAT     H2 8414   3.952   1.281   2.815  1.1323 -0.6947 -0.2849
 2735WAT      O 8415   4.071   0.408   1.366  0.2720  0.4832  0.2249
 2735WAT     H1 8416   4.078   0.459   1.446 -1.5126 -0.3408  0.9594
 2735WAT     H2 8417   4.016   0.461   1.308  0.8049  0.6719 -0.1131
 2736WAT      O 8418   1.426   4.916   1.096 -0.2324  0.7417  0.5709
 2736WAT     H1 8419   1.500   4.923   1.157 -0.9961  0.7033  1.5410
 2736WAT     H2 8420   1.464   4.929   1.010  1.0941 -0.4752  0.9349
 2737WAT      O 8421   3.295   4.209   3.395 -0.0326 -0.1670 -0.2464
 2737WAT     H1 8422   3.383   4.237   3.421  0.0333 -1.8498  1.5756
 2737WAT     H2 8423   3.236   4.270   3.440  0.1623  0.3571 -0.6845
 2738WAT      O 8424   4.388   2.072   4.289  0.2394 -0.1679 -0.5555
 2738WAT     H1 8425   4.379   2.085   4.384  1.6589  0.7617 -0.5167
 2738WAT     H2 8426   4.453   2.003   4.280 -0.7699 -1.1057 -0.8685
 2739WAT      O 8427   2.413   3.843   2.323 -0.6470  0.5594  0.0224
 2739WAT     H1 8428   2.468   3.765   2.330  0.7324  1.6440  2.0295
 2739WAT     H2 8429   2.327   3.815   2.355 -0.6970 -0.5529 -0.9929
 2740WAT      O 8430   4.186   0.174   2.723 -0.9475  0.1657  0.1341
 2740WAT     H1 8431   4.136   0.166   2.642  0.1236  0.1145 -0.5373
 2740WAT     H2 8432   4.171   0.264   2.751 -0.3842  0.5416 -0.7524
 2741WAT      O 8433   3.743   1.512   1.287 -0.0072  0.0905  0.0968
 2741WAT     H1 8434   3.701   1.469   1.362  0.2434  0.0678  0.2257
 2741WAT     H2 8435   3.821   1.554   1.324  1.0452 -1.3392 -0.4381
 2742WAT      O 8436   4.036   3.384   4.082 -0.5618  0.2119 -0.0870
 2742WAT     H1 8437   3.976   3.433   4.026 -0.7185  0.4879  0.3142
 2742WAT     H2 8438   4.069   3.314   4.027  0.4365  1.3519 -1.0043
 2743WAT      O 8439   0.440   4.791   3.856 -0.4459  0.2070 -0.3115
 2743WAT     H1 8440   0.533   4.776   3.870 -0.5202  0.3317  0.3481
 2743WAT     H2 8441   0.430   4.794   3.760  0.1921  0.0110 -0.3867
 2744WAT      O 8442   0.055   0.864   2.290 -0.0467  0.1215  0.0243
 2744WAT     H1 8443   0.140   0.831   2.261  0.6251 -0.2609  2.2263
 2744WAT     H2 8444  -0.008   0.815   2.238  1.0486  0.9324 -2.1890
 2745WAT      O 8445   0.162   3.265   0.421  0.6090  0.1345 -0.1885
 2745WAT     H1 8446   0.172   3.181   0.467 -1.6717 -0.3719 -0.4767
 2745WAT     H2 8447   0.202   3.329   0.479  1.5919 -1.0307  0.4651
 2746WAT      O 8448   3.774   0.736   1.978  0.1617 -0.1304  0.5391
 2746WAT     H1 8449   3.712   0.736   1.905  1.3529  0.9298 -0.5307
 2746WAT     H2 8450   3.826   0.815   1.965 -0.1296  0.5835  3.0423
 2747WAT      O 8451   2.013   3.771   1.482  0.1213 -0.0349 -0.4035
 2747WAT     H1 8452   1.920   3.751   1.476 -0.2767  1.2495  1.0119
 2747WAT     H2 8453   2.021   3.860   1.446  1.3420 -1.2198 -3.4669
 2748WAT      O 8454   1.334   4.947   4.884  0.1546 -0.1739 -0.0598
 2748WAT     H1 8455   1.330   5.031   4.839 -0.5501  0.4336  1.0789
 2748WAT     H2 8456   1.427   4.922   4.880  0.2996  0.4432 -0.7809
 2749WAT      O 8457   4.300   4.841   5.088 -0.1643 -0.5394 -0.0071
 2749WAT     H1 8458   4.312   4.807   5.176 -1.6644  0.3189  0.5775
 2749WAT     H2 8459   4.381   4.888   5.068  0.8976 -2.2326  0.1670
 2750WAT      O 8460   3.072   1.202   2.298  0.0025 -0.5307  0.0966
 2750WAT     H1 8461   3.070   1.106   2.295 -1.3896 -0.5066 -0.3813
 2750WAT     H2 8462   3.095   1.222   2.389  1.3436 -1.2969 -0.0398
 2751WAT      O 8463   0.857   4.734   5.017 -0.1459 -0.7474  0.0272
 2751WAT     H1 8464   0.933   4.738   4.960 -0.2894 -2.4004 -0.3324
 2751WAT     H2 8465   0.817   4.821   5.011  0.9187 -0.3069 -0.8738
 2752WAT      O 8466   1.634   3.626   0.151  0.2187  0.9362  0.2719
 2752WAT     H1 8467   1.630   3.577   0.233 -0.4343 -0.6339 -0.6468
 2752WAT     H2 8468   1.544   3.631   0.121  0.4767  1.2564 -0.4740
 2753WAT      O 8469   0.118   4.749   1.203 -0.0321 -0.0056  0.3862
 2753WAT     H1 8470   0.111   4.661   1.165  2.9409 -0.4596  0.6332
 2753WAT     H2 8471   0.154   4.803   1.133 -2.1820  1.1693  0.1216
 2754WAT      O 8472   1.346   1.794   0.009 -0.6447 -0.0978 -0.3835
 2754WAT     H1 8473   1.425   1.770   0.057 -0.9154  0.1169  0.1771
 2754WAT     H2 8474   1.287   1.720   0.020 -1.3868  0.6771  1.1400
 2755WAT      O 8475   0.313   0.228   2.129 -0.0184  0.4007  0.1942
 2755WAT     H1 8476   0.288   0.310   2.172  1.8938  1.7340 -1.0999
 2755WAT     H2 8477   0.319   0.165   2.200  0.5556  1.9027  1.5286
 2756WAT      O 8478   0.400   2.200   0.082  0.2765 -0.1532  0.0112
 2756WAT     H1 8479   0.320   2.187   0.133  1.1732  1.1527  1.8716
 2756WAT     H2 8480   0.469   2.159   0.134  1.0447  0.0160 -0.8368
 2757WAT      O 8481   3.555   0.125   1.080  0.4428 -0.7989 -0.7496
 2757WAT     H1 8482   3.635   0.173   1.062  0.7288 -0.8383  0.3026
 2757WAT     H2 8483   3.524   0.161   1.164  1.0997 -2.9417  0.4954
 2758WAT      O 8484   3.396   0.215   2.116  0.2473 -0.4936  0.1644
 2758WAT     H1 8485   3.482   0.233   2.078  0.4768  0.0177  0.9002
 2758WAT     H2 8486   3.367   0.135   2.074  0.7153 -0.2127 -0.7077
 2759WAT      O 8487   1.322   1.032   0.957  0.0775 -0.1609  0.3643
 2759WAT     H1 8488   1.398   1.088   0.943 -0.4153  0.3947 -0.1319
 2759WAT     H2 8489   1.359   0.945   0.969  0.8876  0.3059  1.4856
 2760WAT      O 8490   1.413   2.320   0.935 -0.3952 -0.4522  0.5461
 2760WAT     H1 8491   1.480   2.352   0.875 -1.2039  0.2670 -0.0004
 2760WAT     H2 8492   1.361   2.259   0.882 -1.1527  0.2376  0.4715
 2761WAT      O 8493   3.179   2.732   1.291 -0.1227 -0.1458 -0.2314
 2761WAT     H1 8494   3.254   2.777   1.252 -0.4168  1.2412  0.7146
 2761WAT     H2 8495   3.207   2.713   1.381 -0.1025 -1.6726 -0.5358
 2762WAT      O 8496   4.403   0.207   3.285  0.6256 -0.6015  0.4175
 2762WAT     H1 8497   4.493   0.216   3.317  0.4708  0.9853  0.5153
 2762WAT     H2 8498   4.349   0.226   3.362  0.2372  0.5810 -0.1170
 2763WAT      O 8499   4.278   3.921   2.830 -0.0681  0.3131 -0.8431
 2763WAT     H1 8500   4.183   3.916   2.834  0.0337 -1.5551  1.2124
 2763WAT     H2 8501   4.296   3.997   2.775 -2.7503  1.8951  0.2855
 2764WAT      O 8502   0.648   2.467   4.823 -0.5213 -0.8752  0.5049
 2764WAT     H1 8503   0.611   2.514   4.748  0.3065 -0.3880  0.3865
 2764WAT     H2 8504   0.693   2.535   4.873 -1.6358 -1.0732  1.8181
 2765WAT      O 8505   1.892   2.438   2.791 -0.3516  0.2273  0.8230
 2765WAT     H1 8506   1.840   2.505   2.747 -0.5495 -0.0332  0.6558
 2765WAT     H2 8507   1.932   2.389   2.719 -0.6206 -0.1601  0.9400
 2766WAT      O 8508   1.871   3.047   4.466  0.0450 -0.1640  0.1104
 2766WAT     H1 8509   1.882   3.060   4.561 -2.5781  2.5578  0.2173
 2766WAT     H2 8510   1.943   3.097   4.427 -0.6332  1.3848  0.7357
 2767WAT      O 8511   3.945   2.676   0.942  0.3438 -0.0352 -0.3688
 2767WAT     H1 8512   3.993   2.613   0.997 -0.3672 -0.8602 -0.6833
 2767WAT     H2 8513   4.009   2.746   0.926  0.7219  0.0114  1.1210
 2768WAT      O 8514   2.201   0.746   0.062 -0.6449  0.5391  0.1545
 2768WAT     H1 8515   2.158   0.826   0.035 -1.1273  0.2869  0.1716
 2768WAT     H2 8516   2.294   0.768   0.064 -0.9591  2.3496  4.2629
 2769WAT      O 8517   1.498   3.238   3.201  0.2801  0.1377 -0.3547
 2769WAT     H1 8518   1.578   3.286   3.225 -0.3229  0.2268  1.7155
 2769WAT     H2 8519   1.527   3.175   3.136  2.0043  0.3786  0.1189
 2770WAT      O 8520   0.771   4.104   2.864 -0.3833  0.0228  0.2774
 2770WAT     H1 8521   0.810   4.184   2.898 -2.6116  0.3618  2.2981
 2770WAT     H2 8522   0.845   4.045   2.848  1.2281  2.0984 -0.3505
 2771WAT      O 8523   1.787   2.129   2.817  0.0771  0.0537 -0.4096
 2771WAT     H1 8524   1.837   2.203   2.782  2.3094 -0.4258  1.4706
 2771WAT     H2 8525   1.782   2.147   2.911 -0.3161 -1.6445 -0.0813
 2772WAT      O 8526   3.695   4.798   2.573  0.0426 -0.2948 -0.2591
 2772WAT     H1 8527   3.605   4.797   2.605 -0.6593 -1.3199 -2.1366
 2772WAT     H2 8528   3.732   4.878   2.611 -1.6367  0.1424  0.5784
 2773WAT      O 8529   3.700   1.855   1.867  0.4207 -0.0271 -0.2920
 2773WAT     H1 8530   3.638   1.814   1.808 -2.2432 -0.3091  2.4595
 2773WAT     H2 8531   3.703   1.797   1.943 -0.4881  2.7830  2.0851
 2774WAT      O 8532   0.344   0.751   5.116 -0.4737  0.4058 -0.7566
 2774WAT     H1 8533   0.390   0.686   5.169 -0.6309  1.5605  0.8685
 2774WAT     H2 8534   0.407   0.774   5.047  0.8820  0.9398  0.6041
 2775WAT      O 8535   2.454   1.271   1.636 -0.4793 -0.1046  0.4101
 2775WAT     H1 8536   2.437   1.291   1.544  1.0794  0.7625  0.2750
 2775WAT     H2 8537   2.507   1.191   1.634 -1.2893 -0.6516  0.6137
 2776WAT      O 8538   2.486   4.210   4.220 -0.3829 -0.4342  0.4749
 2776WAT     H1 8539   2.580   4.193   4.217  0.2183  2.5517 -1.6350
 2776WAT     H2 8540   2.449   4.154   4.151 -0.1691 -1.4891  1.1969
 2777WAT      O 8541   4.398   2.840   0.144  0.4228  0.4831  0.2342
 2777WAT     H1 8542   4.406   2.788   0.064  0.1565 -0.4694  0.8128
 2777WAT     H2 8543   4.475   2.818   0.195 -0.9855 -1.4742  1.6674
 2778WAT      O 8544   0.228   3.874   2.388  0.0848  0.3402 -0.2824
 2778WAT     H1 8545   0.213   3.968   2.378  0.1561  0.3989  0.1430
 2778WAT     H2 8546   0.228   3.859   2.483 -0.0220 -0.1046 -0.3485
 2779WAT      O 8547   2.825   1.357   1.017  0.3265  0.3833 -0.2486
 2779WAT     H1 8548   2.821   1.452   1.010  0.4079  0.3528 -0.7150
 2779WAT     H2 8549   2.904   1.340   1.069  0.9082  0.5372 -1.0637
 2780WAT      O 8550   2.093   5.035   0.297  0.8047 -0.5053 -0.4302
 2780WAT     H1 8551   2.097   4.948   0.258  0.4198 -0.5430 -0.3930
 2780WAT     H2 8552   2.028   5.082   0.245  2.0568  0.2323 -1.3673
 2781WAT      O 8553   0.635   1.555   4.151  0.1750  0.4761 -0.1067
 2781WAT     H1 8554   0.611   1.521   4.237 -0.2074 -0.5038 -0.5856
 2781WAT     H2 8555   0.700   1.493   4.118 -0.2418  0.4022 -0.8318
 2782WAT      O 8556   2.981   2.033   0.078  0.2934  0.3099 -0.5594
 2782WAT     H1 8557   2.907   2.015   0.135  1.2721  1.0739  1.0463
 2782WAT     H2 8558   2.960   1.990  -0.005 -1.2676 -0.6876  0.3169
 2783WAT      O 8559   0.366   3.095   2.106  0.4232  0.3679  0.2390
 2783WAT     H1 8560   0.293   3.111   2.165  0.1922  1.9143 -0.4021
 2783WAT     H2 8561   0.348   3.009   2.068 -2.3474  1.5955 -1.6016
 2784WAT      O 8562   3.289   0.153   2.504  0.1195  0.1922 -0.0864
 2784WAT     H1 8563   3.345   0.088   2.463  1.0164 -0.3875  1.9618
 2784WAT     H2 8564   3.260   0.113   2.586 -0.5778  1.7596  0.4871
 2785WAT      O 8565   1.568   0.701   4.405 -0.2872 -0.1991  0.1861
 2785WAT     H1 8566   1.522   0.777   4.439  0.7459  0.0900  0.9964
 2785WAT     H2 8567   1.652   0.701   4.451  0.3015 -1.0222 -0.8283
 2786WAT      O 8568   0.183   3.835   3.913 -0.3669 -0.0108 -0.9072
 2786WAT     H1 8569   0.088   3.827   3.927 -0.1719 -3.0698 -0.5079
 2786WAT     H2 8570   0.194   3.922   3.876 -3.0714  1.3041  0.9581
 2787WAT      O 8571   3.250   0.732   4.623 -0.0877  0.0852 -0.1850
 2787WAT     H1 8572   3.263   0.818   4.663  1.2236  0.0483 -0.4928
 2787WAT     H2 8573   3.203   0.682   4.690  0.4854  0.5781  0.6092
 2788WAT      O 8574   3.893   4.962   3.253  0.0692 -0.8582  0.1786
 2788WAT     H1 8575   3.900   5.024   3.326  1.8118 -0.9463  0.1295
 2788WAT     H2 8576   3.942   4.885   3.282  1.2734 -0.6846 -1.2681
 2789WAT      O 8577   2.134   0.865   2.224  0.6081 -0.0570 -0.4558
 2789WAT     H1 8578   2.129   0.792   2.162 -0.0193  0.4871 -1.0697
 2789WAT     H2 8579   2.183   0.933   2.177  1.9519 -0.3763  0.4349
 2790WAT      O 8580   3.820   2.454   0.585 -0.2932 -0.1360  0.3067
 2790WAT     H1 8581   3.731   2.487   0.597 -0.8491 -1.1315 -0.9387
 2790WAT     H2 8582   3.851   2.496   0.505  0.2190 -0.1058  0.5133
 2791WAT      O 8583   4.037   0.226   3.086  0.2381 -0.1495 -0.0751
 2791WAT     H1 8584   4.012   0.237   3.177  2.2972 -0.9566  0.6661
 2791WAT     H2 8585   4.113   0.168   3.089 -0.4819 -1.3519 -2.4291
 2792WAT      O 8586   3.979   4.111   1.115  0.8812  0.4172  0.3013
 2792WAT     H1 8587   4.010   4.201   1.130 -1.1212  1.0170  1.0985
 2792WAT     H2 8588   3.918   4.118   1.042  1.0699 -0.3960  0.0511
 2793WAT      O 8589   0.543   1.804   3.232 -0.4033 -0.0430 -0.3162
 2793WAT     H1 8590   0.560   1.832   3.142  1.0424 -0.7048 -0.2845
 2793WAT     H2 8591   0.463   1.752   3.227  0.8417 -1.9739 -1.6597
 2794WAT      O 8592   2.079   1.868   5.016 -0.3529  0.0705  0.2314
 2794WAT     H1 8593   2.136   1.804   4.974  0.1795  1.8492 -1.9749
 2794WAT     H2 8594   1.993   1.827   5.016  0.2096 -1.1657  0.1350
 2795WAT      O 8595   3.277   4.013   0.485  0.8830  0.1674  0.1949
 2795WAT     H1 8596   3.333   4.023   0.562  0.5146  0.3883  0.4345
 2795WAT     H2 8597   3.236   4.099   0.474  1.8542  0.5121 -0.9747
 2796WAT      O 8598   1.443   0.898   0.395  0.1102  0.0929 -0.2568
 2796WAT     H1 8599   1.513   0.951   0.356 -0.8856  0.3991 -1.7298
 2796WAT     H2 8600   1.365   0.954   0.390 -1.4174 -1.9830 -3.5104
 2797WAT      O 8601   0.639   1.093   3.758 -0.2574 -0.7359  0.2610
 2797WAT     H1 8602   0.545   1.076   3.769 -0.3142 -1.4268 -1.1124
 2797WAT     H2 8603   0.669   1.024   3.699  1.0081 -0.1994  0.2536
 2798WAT      O 8604   2.042   2.340   2.043 -0.8236  0.0652 -0.0293
 2798WAT     H1 8605   1.996   2.257   2.029 -0.3022 -0.7014  2.3135
 2798WAT     H2 8606   1.973   2.406   2.043 -1.4265 -0.5566 -0.4732
 2799WAT      O 8607   4.140   3.632   3.498 -0.4608  0.2789  0.6664
 2799WAT     H1 8608   4.145   3.727   3.498  1.3194  0.4004 -3.3666
 2799WAT     H2 8609   4.047   3.613   3.481 -0.8917  1.2111  1.8348
 2800WAT      O 8610   4.241   0.141   1.628 -0.5649 -0.2371  0.0791
 2800WAT     H1 8611   4.231   0.201   1.555  1.1066 -0.5971 -0.4852
 2800WAT     H2 8612   4.336   0.133   1.640 -0.7834 -1.3853  1.2803
 2801WAT      O 8613   0.457   1.370   1.491  0.1939  0.3575 -0.2410
 2801WAT     H1 8614   0.425   1.311   1.423  0.9998  0.6472 -0.8790
 2801WAT     H2 8615   0.547   1.342   1.507  0.6125  1.4498 -0.6010
 2802WAT      O 8616   2.600   1.512   0.830 -0.2866  0.1733  0.0398
 2802WAT     H1 8617   2.573   1.472   0.748 -0.8352  1.0258 -0.2072
 2802WAT     H2 8618   2.583   1.605   0.818  1.0705  0.5069  0.5586
 2803WAT      O 8619   0.705   2.033   0.853  0.1690 -0.1414  0.3806
 2803WAT     H1 8620   0.621   2.012   0.813 -0.1038  0.1075  0.8132
 2803WAT     H2 8621   0.744   1.948   0.873 -1.1402 -0.3240  2.5707
 2804WAT      O 8622   2.187   2.779   4.763 -0.2066  0.1792  0.2820
 2804WAT     H1 8623   2.212   2.687   4.753 -1.5530 -0.3256  1.3709
 2804WAT     H2 8624   2.105   2.777   4.812 -0.5461  1.9440 -0.1438
 2805WAT      O 8625   4.510   4.177   4.027  0.6153 -0.1283 -0.2318
 2805WAT     H1 8626   4.512   4.252   4.087  1.4739  0.6519 -1.2049
 2805WAT     H2 8627   4.545   4.105   4.079 -1.1606 -0.1380  1.0504
 2806WAT      O 8628   2.281   3.544   2.356  0.1469 -0.3068 -0.2952
 2806WAT     H1 8629   2.263   3.464   2.307 -2.2517 -2.5250  3.6923
 2806WAT     H2 8630   2.197   3.590   2.360  1.3005  2.1296 -1.8228
 2807WAT      O 8631   2.151   0.575   3.357  0.4614  0.0192 -0.2355
 2807WAT     H1 8632   2.075   0.611   3.311 -0.1603 -2.1081 -1.0420
 2807WAT     H2 8633   2.123   0.487   3.383  1.9522 -0.0322  1.3441
 2808WAT      O 8634   3.860   3.247   0.072  0.5246 -0.1017 -0.2181
 2808WAT     H1 8635   3.878   3.160   0.035 -2.4485 -0.4058 -1.2787
 2808WAT     H2 8636   3.793   3.230   0.139  1.4663  1.1661  1.0833
 2809WAT      O 8637   1.607   2.369   0.732 -0.4343 -0.5167 -0.4128
 2809WAT     H1 8638   1.698   2.345   0.717 -0.8972 -0.6863 -3.7629
 2809WAT     H2 8639   1.602   2.462   0.709 -1.0802 -0.4645 -0.0913
 2810WAT      O 8640   2.910   4.515   0.643  0.5592  0.0220  0.1288
 2810WAT     H1 8641   2.888   4.427   0.613  1.4301 -1.2525  2.9280
 2810WAT     H2 8642   2.984   4.503   0.703  0.8277  2.6997  0.4856
 2811WAT      O 8643   0.581   3.899   0.063  0.4953 -0.7573 -0.0629
 2811WAT     H1 8644   0.590   3.993   0.082 -0.6855 -0.6265 -0.0442
 2811WAT     H2 8645   0.497   3.893   0.016  0.7115 -1.7702 -0.3298
 2812WAT      O 8646   1.379   1.793   4.502  0.2581  0.3557  0.5649
 2812WAT     H1 8647   1.370   1.772   4.409  0.9531  1.4901  0.2236
 2812WAT     H2 8648   1.354   1.712   4.547 -1.1552  0.1165 -0.5638
 2813WAT      O 8649   4.059   1.471   4.048  0.2080 -0.2441 -0.8697
 2813WAT     H1 8650   4.097   1.548   4.006 -0.4334 -0.1389 -1.2687
 2813WAT     H2 8651   3.968   1.495   4.064  0.3663 -0.3884  0.3317
 2814WAT      O 8652   3.637   3.566   1.445  0.6452  0.1468  0.3269
 2814WAT     H1 8653   3.640   3.540   1.537 -2.6714  2.0282  1.1530
 2814WAT     H2 8654   3.691   3.645   1.441  0.2526  0.4517  0.8525
 2815WAT      O 8655   0.050   0.694   3.902 -0.0766 -0.5530  0.3154
 2815WAT     H1 8656  -0.001   0.614   3.917 -1.1916  0.1197  0.1952
 2815WAT     H2 8657   0.044   0.708   3.807  0.0561 -0.2848  0.3474
 2816WAT      O 8658   0.805   0.514   1.047  0.1327  0.4753 -0.3000
 2816WAT     H1 8659   0.796   0.591   0.990  0.4179  0.0158 -0.9676
 2816WAT     H2 8660   0.741   0.452   1.013 -0.7114  0.7250  0.7776
 2817WAT      O 8661   3.668   4.687   0.732 -0.5879  0.5790 -0.5462
 2817WAT     H1 8662   3.646   4.768   0.685 -1.2420  0.6531 -0.1275
 2817WAT     H2 8663   3.715   4.718   0.810 -2.8422  0.7656  0.8274
 2818WAT      O 8664   3.030   3.624   3.831 -0.4568 -0.5090  0.8344
 2818WAT     H1 8665   3.034   3.701   3.888 -1.6382 -1.5548  2.4194
 2818WAT     H2 8666   2.980   3.653   3.755 -0.3763  0.4517  1.1338
 2819WAT      O 8667   0.323   2.181   3.052  0.0255 -0.7302  0.7089
 2819WAT     H1 8668   0.251   2.241   3.031 -0.7729 -1.7029  0.6086
 2819WAT     H2 8669   0.402   2.226   3.021 -0.4541  0.6254  1.3665
 2820WAT      O 8670   1.280   4.417   2.411 -0.0520  0.0518  0.3401
 2820WAT     H1 8671   1.286   4.358   2.485  1.3409 -0.9637 -0.5376
 2820WAT     H2 8672   1.299   4.504   2.447  1.3308 -0.5263  1.0576
 2821WAT      O 8673   2.988   3.864   0.523 -0.5237  0.2613 -0.0253
 2821WAT     H1 8674   2.924   3.900   0.584 -0.4229  0.2948  0.0620
 2821WAT     H2 8675   3.072   3.894   0.557 -0.5608  1.6728 -1.1054
 2822WAT      O 8676   2.095   4.513   5.073 -0.0025  0.1102 -0.4429
 2822WAT     H1 8677   2.144   4.515   4.990 -0.5404 -0.2558 -0.7749
 2822WAT     H2 8678   2.117   4.427   5.110 -1.4783 -0.6696 -1.2749
 2823WAT      O 8679   1.315   0.351   2.042 -0.2042  0.0301  0.0606
 2823WAT     H1 8680   1.392   0.327   1.990  0.9167  1.9709  0.6770
 2823WAT     H2 8681   1.265   0.409   1.985  0.8270  1.8459  0.9020
 2824WAT      O 8682   2.709   4.779   2.989  0.2475 -0.6606 -0.5736
 2824WAT     H1 8683   2.746   4.732   2.915 -1.4889 -1.7150 -0.8468
 2824WAT     H2 8684   2.626   4.734   3.006 -0.1217  0.5366  1.0180
 2825WAT      O 8685   0.822   4.494   4.205 -0.4489 -0.3373 -0.3288
 2825WAT     H1 8686   0.756   4.469   4.139 -1.1692  0.7633 -0.0564
 2825WAT     H2 8687   0.900   4.446   4.179 -1.9563 -3.6972  0.7362
 2826WAT      O 8688   0.909   4.545   0.533 -0.1667 -0.0540 -0.0287
 2826WAT     H1 8689   0.901   4.451   0.552 -0.6560 -0.1419 -0.6377
 2826WAT     H2 8690   0.848   4.587   0.593  0.2829 -0.0941  0.4631
 2827WAT      O 8691   3.097   1.822   0.599 -0.5676 -0.4193  0.4481
 2827WAT     H1 8692   3.147   1.894   0.637 -1.1289 -0.9681  2.3514
 2827WAT     H2 8693   3.155   1.746   0.604 -0.7778 -0.5759  0.5772
 2828WAT      O 8694   0.004   4.991   3.436 -0.5468 -0.3869 -0.0714
 2828WAT     H1 8695   0.087   5.034   3.420 -1.3128  1.4804  0.7085
 2828WAT     H2 8696   0.018   4.939   3.515 -0.7020  1.7622  1.4531
 2829WAT      O 8697   3.942   4.087   1.397  0.8318 -0.3832 -0.0514
 2829WAT     H1 8698   3.944   4.072   1.302 -0.0032  0.1461 -0.1602
 2829WAT     H2 8699   4.007   4.026   1.432  1.9124  0.1623 -1.0578
 2830WAT      O 8700   1.241   2.737   3.475  0.1030  0.1125  0.0306
 2830WAT     H1 8701   1.203   2.824   3.466 -1.1384 -0.3824  0.2923
 2830WAT     H2 8702   1.301   2.729   3.401 -2.6961 -0.2839 -2.3611
 2831WAT      O 8703   2.560   4.436   0.343 -0.7380 -0.0358 -0.0825
 2831WAT     H1 8704   2.480   4.418   0.295 -0.9629  0.1043  0.2311
 2831WAT     H2 8705   2.530   4.475   0.426 -0.4372 -1.5167  0.7577
 2832WAT      O 8706   2.297   0.323   1.245 -0.3573 -0.0964  0.0620
 2832WAT     H1 8707   2.315   0.240   1.201  0.8159 -0.0877  0.4868
 2832WAT     H2 8708   2.207   0.315   1.277 -0.1204 -1.3716  0.4543
 2833WAT      O 8709   2.721   1.087   3.869  0.2218  0.3311  0.9368
 2833WAT     H1 8710   2.687   1.155   3.927 -0.8436  1.6076 -1.0373
 2833WAT     H2 8711   2.808   1.117   3.844 -0.0159  0.7137  0.5359
 2834WAT      O 8712   3.633   0.512   2.627 -0.3985  0.4958  0.0591
 2834WAT     H1 8713   3.630   0.416   2.622 -1.1879  0.4697  0.9421
 2834WAT     H2 8714   3.709   0.530   2.683 -0.6830  0.3617  0.4928
 2835WAT      O 8715   3.040   4.546   4.641  0.7435  0.1229 -0.1897
 2835WAT     H1 8716   3.089   4.604   4.583  0.6318  0.5415  0.1304
 2835WAT     H2 8717   3.106   4.487   4.678  0.9049  0.2524 -0.2704
 2836WAT      O 8718   2.291   3.129   1.901  0.3880  0.1084 -0.5786
 2836WAT     H1 8719   2.357   3.067   1.869  0.6140 -0.5005  0.9652
 2836WAT     H2 8720   2.245   3.081   1.971 -0.7612  1.0104 -0.6834
 2837WAT      O 8721   2.239   0.866   4.253 -0.0083 -0.5828  0.1048
 2837WAT     H1 8722   2.295   0.875   4.176 -1.9871 -1.3567 -1.5282
 2837WAT     H2 8723   2.150   0.860   4.217 -1.7871  4.4849  2.5834
 2838WAT      O 8724   0.341   1.652   4.178  0.5303 -0.8137 -0.2981
 2838WAT     H1 8725   0.427   1.632   4.140  0.6384  0.0145 -0.5201
 2838WAT     H2 8726   0.359   1.722   4.241  0.1298 -1.1648  0.2086
 2839WAT      O 8727   2.449   0.828   0.108  0.0231  0.0179 -0.3080
 2839WAT     H1 8728   2.444   0.923   0.100 -0.2495 -0.0578 -1.1354
 2839WAT     H2 8729   2.523   0.803   0.052  2.1525 -0.0011  2.3151
 2840WAT      O 8730   3.844   3.800   0.033 -0.8202 -0.6293  0.4570
 2840WAT     H1 8731   3.840   3.892   0.009 -0.9121 -0.8845 -0.5817
 2840WAT     H2 8732   3.926   3.769  -0.007 -0.8847 -1.0357  0.6353
 2841WAT      O 8733   2.359   0.241   3.583  0.2905  0.1987 -0.1011
 2841WAT     H1 8734   2.330   0.274   3.668  0.0801 -0.6783  0.1693
 2841WAT     H2 8735   2.453   0.230   3.592  0.7608  2.7884 -0.8939
 2842WAT      O 8736   0.085   0.663   1.011 -0.5313  0.0510 -0.2878
 2842WAT     H1 8737   0.003   0.649   1.058  0.4057  0.9921  1.7263
 2842WAT     H2 8738   0.151   0.616   1.063  0.3055 -0.3291 -1.6335
 2843WAT      O 8739   2.731   1.679   2.475  0.7829 -0.0881  0.7662
 2843WAT     H1 8740   2.697   1.767   2.456  2.1201  0.6919  1.7803
 2843WAT     H2 8741   2.684   1.652   2.554  0.6372 -0.1382  0.6637
 2844WAT      O 8742   1.202   2.094   0.906 -0.2451 -0.0050  0.0535
 2844WAT     H1 8743   1.174   2.003   0.895  1.6945 -0.6011 -0.4398
 2844WAT     H2 8744   1.121   2.145   0.900 -1.2112 -1.5831 -1.2068
 2845WAT      O 8745   3.236   2.556   0.726  0.2113 -0.2896 -0.1964
 2845WAT     H1 8746   3.222   2.471   0.683  0.2306  0.0447 -0.8714
 2845WAT     H2 8747   3.180   2.616   0.679  1.9052  0.5461 -1.2538
 2846WAT      O 8748   1.636   1.165   1.270  0.8597 -0.5840  0.4397
 2846WAT     H1 8749   1.709   1.200   1.219  0.7356 -1.0835 -0.0811
 2846WAT     H2 8750   1.589   1.108   1.210  0.7499 -1.2420  1.1320
 2847WAT      O 8751   1.695   4.754   2.340  0.5088 -0.4479 -0.1275
 2847WAT     H1 8752   1.642   4.800   2.275  0.4937 -0.3591 -0.0527
 2847WAT     H2 8753   1.706   4.817   2.411  1.7105 -0.0374 -0.6489
 2848WAT      O 8754   0.568   1.761   2.728 -0.7695 -0.2040 -0.1026
 2848WAT     H1 8755   0.621   1.801   2.659 -0.5460 -0.1726  0.0827
 2848WAT     H2 8756   0.549   1.673   2.696 -0.0975 -0.4276  0.0790
 2849WAT      O 8757   1.539   1.224   1.523 -0.7519 -0.6168  0.4917
 2849WAT     H1 8758   1.479   1.150   1.515 -2.0201  0.5413 -1.2427
 2849WAT     H2 8759   1.575   1.235   1.435  0.2068  0.1998  0.9750
 2850WAT      O 8760   3.099   2.731   2.607  0.4658  0.3602 -0.1807
 2850WAT     H1 8761   3.018   2.764   2.646  0.1601 -0.2415 -0.2844
 2850WAT     H2 8762   3.070   2.677   2.534  0.9822  0.4550 -0.4644
 2851WAT      O 8763   2.167   4.781   5.074 -0.0389  0.0723  0.1213
 2851WAT     H1 8764   2.128   4.700   5.109  1.3517 -1.2675 -1.3016
 2851WAT     H2 8765   2.220   4.815   5.146 -0.6535 -0.2620  0.7444
 2852WAT      O 8766   2.629   3.688   1.540  0.4581  0.2074 -0.3865
 2852WAT     H1 8767   2.620   3.640   1.457  0.3843 -1.1103  0.3510
 2852WAT     H2 8768   2.563   3.756   1.536 -1.3365 -1.4470 -0.3589
 2853WAT      O 8769   0.037   2.954   1.505 -0.3053  0.0199  0.6054
 2853WAT     H1 8770   0.025   2.915   1.418 -0.9331  0.0057  0.6932
 2853WAT     H2 8771   0.082   2.887   1.556  0.0615  0.0258  0.2943
 2854WAT      O 8772   0.968   4.775   1.492 -0.2027 -0.7084 -0.5146
 2854WAT     H1 8773   0.962   4.785   1.397  0.4734  2.2226 -0.3509
 2854WAT     H2 8774   0.885   4.809   1.525 -0.3715 -1.5620 -0.0473
 2855WAT      O 8775   0.832   1.559   3.826  0.1254 -0.2493  0.3701
 2855WAT     H1 8776   0.840   1.653   3.843  0.9332  0.2904 -2.3990
 2855WAT     H2 8777   0.756   1.551   3.769  1.1969 -0.9395 -1.0570
 2856WAT      O 8778   4.327   0.797   4.315  0.8680 -0.5498 -0.3795
 2856WAT     H1 8779   4.243   0.799   4.362  0.8737 -1.7868 -0.2896
 2856WAT     H2 8780   4.352   0.889   4.309 -1.9270  0.1972 -3.0366
 2857WAT      O 8781   0.499   1.278   4.072 -0.0117 -0.1840  0.1242
 2857WAT     H1 8782   0.576   1.294   4.127  0.0004  0.3127 -0.0314
 2857WAT     H2 8783   0.500   1.350   4.008 -0.1660 -0.6151 -0.3680
 2858WAT      O 8784   3.525   1.607   5.258 -0.2900  0.1818 -0.3446
 2858WAT     H1 8785   3.604   1.602   5.204 -0.4801  2.4172 -0.9065
 2858WAT     H2 8786   3.467   1.540   5.222  0.4478  0.1319 -1.4892
 2859WAT      O 8787   4.348   2.069   1.844  0.3367  0.2970 -0.3579
 2859WAT     H1 8788   4.271   2.106   1.888 -0.2608  0.9481 -1.8501
 2859WAT     H2 8789   4.382   2.142   1.792  1.0125 -0.4158 -0.9392
 2860WAT      O 8790   3.380   3.009   1.511  0.0851  0.3922  0.3518
 2860WAT     H1 8791   3.303   3.065   1.526 -1.0416 -1.4598  2.0577
 2860WAT     H2 8792   3.414   2.991   1.599 -0.0922 -2.1400 -0.0107
 2861WAT      O 8793   3.096   0.239   1.366  0.4100 -0.1779  0.4390
 2861WAT     H1 8794   3.064   0.198   1.285 -0.0154 -0.3477  0.6899
 2861WAT     H2 8795   3.135   0.167   1.415  0.2883 -0.1539  0.5714
 2862WAT      O 8796   0.205   0.409   3.702  0.3606 -0.2842  0.0652
 2862WAT     H1 8797   0.214   0.504   3.703  0.6937 -0.3159  0.4344
 2862WAT     H2 8798   0.157   0.388   3.783  0.7361 -0.4689  0.2433
 2863WAT      O 8799   1.661   0.339   2.578 -0.7530 -0.2341 -0.2394
 2863WAT     H1 8800   1.734   0.313   2.634 -0.0911 -0.1186 -1.0330
 2863WAT     H2 8801   1.583   0.319   2.630 -0.1595 -0.1728  0.7006
 2864WAT      O 8802   2.732   4.441   3.811 -0.1832  0.2961 -0.5081
 2864WAT     H1 8803   2.754   4.391   3.890 -0.1134  0.2029 -0.5863
 2864WAT     H2 8804   2.755   4.382   3.739  0.5860  0.7205 -0.6195
 2865WAT      O 8805   0.317   4.531   0.978 -0.9064  0.6103 -0.1195
 2865WAT     H1 8806   0.250   4.485   1.029 -1.0530  0.0335 -0.8192
 2865WAT     H2 8807   0.398   4.517   1.027 -0.5971 -1.9629 -1.2025
 2866WAT      O 8808   1.505   2.632   1.531  0.6841 -0.3826  0.0297
 2866WAT     H1 8809   1.515   2.542   1.562  1.2519 -0.3451 -0.0275
 2866WAT     H2 8810   1.577   2.644   1.469  0.7467  0.1801  0.2044
 2867WAT      O 8811   3.754   3.947   3.493  0.1411  0.3457  0.5339
 2867WAT     H1 8812   3.706   3.949   3.410  1.0866  1.1255 -0.0207
 2867WAT     H2 8813   3.711   3.878   3.544 -0.5714 -0.0291 -0.5335
 2868WAT      O 8814   2.202   2.714   0.224 -0.2671  0.0030 -0.2410
 2868WAT     H1 8815   2.133   2.762   0.177 -1.8469 -0.8034  1.1387
 2868WAT     H2 8816   2.178   2.722   0.316  2.5185  1.1880  0.4803
 2869WAT      O 8817   2.956   2.708   4.411  0.2127 -0.0649 -0.4831
 2869WAT     H1 8818   2.878   2.654   4.398  0.3441  0.1536 -2.5316
 2869WAT     H2 8819   3.024   2.645   4.436 -0.0089 -0.6537 -1.3073
 2870WAT      O 8820   0.099   1.329   0.787 -0.2242  0.2809 -0.0713
 2870WAT     H1 8821   0.173   1.296   0.736 -0.5671 -1.1372  0.3045
 2870WAT     H2 8822   0.046   1.379   0.724  1.7983  2.6790 -0.0278
 2871WAT      O 8823   0.916   1.139   3.817 -0.7421 -0.0796  0.0847
 2871WAT     H1 8824   0.824   1.159   3.797 -0.8922  1.2597  1.8634
 2871WAT     H2 8825   0.912   1.088   3.898  0.1082  1.3159  1.0518
 2872WAT      O 8826   0.701   0.561   4.128  0.1173 -0.2576  0.0577
 2872WAT     H1 8827   0.736   0.517   4.051  1.2140 -0.1407  0.4732
 2872WAT     H2 8828   0.736   0.511   4.202  1.9242  1.6292  0.5635
 2873WAT      O 8829   0.390   1.514   3.456 -0.1639 -0.1326  0.4026
 2873WAT     H1 8830   0.347   1.564   3.386  0.5039 -0.2303 -0.0844
 2873WAT     H2 8831   0.439   1.446   3.411  2.3256  1.3079  0.7498
 2874WAT      O 8832   4.398   3.034   5.150 -0.2370 -0.6831 -0.2249
 2874WAT     H1 8833   4.309   3.002   5.134  0.0808 -1.9686  0.4716
 2874WAT     H2 8834   4.455   2.965   5.118  0.5411  0.2713 -0.9673
 2875WAT      O 8835   0.635   0.580   4.595 -0.3303 -0.1978  0.0388
 2875WAT     H1 8836   0.614   0.568   4.688 -0.3318  0.4722  0.1304
 2875WAT     H2 8837   0.558   0.545   4.549 -0.3552 -0.4783  0.2944
 2876WAT      O 8838   0.059   2.569   0.415  0.4032  0.2910 -0.0089
 2876WAT     H1 8839   0.066   2.561   0.511  1.6799 -1.0165 -0.1576
 2876WAT     H2 8840  -0.034   2.566   0.397  0.1577  0.2292  1.1887
 2877WAT      O 8841   1.448   1.809   2.440 -0.1275 -0.2496  0.3315
 2877WAT     H1 8842   1.417   1.725   2.407 -0.4833  0.1296 -0.3181
 2877WAT     H2 8843   1.487   1.788   2.525 -1.9060 -0.8031  1.0583
 2878WAT      O 8844   4.245   1.250   2.678  0.5717  0.2381  0.5767
 2878WAT     H1 8845   4.202   1.182   2.626  0.1877  1.5757 -0.9355
 2878WAT     H2 8846   4.175   1.314   2.695  0.9243  0.2777  1.9710
 2879WAT      O 8847   1.369   2.367   4.247  0.2552  0.3200  0.0086
 2879WAT     H1 8848   1.312   2.396   4.319 -0.5566 -1.7255  0.2631
 2879WAT     H2 8849   1.315   2.375   4.169  0.3842  0.4754 -0.0651
 2880WAT      O 8850   1.414   0.348   4.145 -0.2456  0.1935  0.2397
 2880WAT     H1 8851   1.378   0.377   4.061 -1.9452  0.0083  0.8654
 2880WAT     H2 8852   1.393   0.255   4.150 -0.8408  0.3606  1.1780
 2881WAT      O 8853   3.924   1.455   3.775  0.1283  0.3645  0.2114
 2881WAT     H1 8854   3.897   1.547   3.770  0.4825  0.6707  2.6120
 2881WAT     H2 8855   3.850   1.412   3.818  0.6107 -0.1352  0.5524
 2882WAT      O 8856   1.433   0.708   1.844 -0.1035 -0.2152  0.2374
 2882WAT     H1 8857   1.482   0.789   1.862  0.1186  0.0851 -1.5957
 2882WAT     H2 8858   1.357   0.713   1.902  0.5608  0.6736  1.0732
 2883WAT      O 8859   2.338   0.040   3.275 -0.3794  0.1055 -0.6811
 2883WAT     H1 8860   2.396   0.028   3.201  1.3933  2.3057  0.2480
 2883WAT     H2 8861   2.392   0.020   3.352 -1.5148  0.0069  0.1263
 2884WAT      O 8862   0.975   0.159   3.218  0.1112 -0.2194 -0.3883
 2884WAT     H1 8863   0.906   0.192   3.160  0.4652 -2.0053 -1.9349
 2884WAT     H2 8864   0.940   0.075   3.249  0.9255 -0.3733  0.1277
 2885WAT      O 8865   1.475   2.193   4.470 -0.5730 -0.6499 -0.4919
 2885WAT     H1 8866   1.526   2.121   4.433  0.5983 -0.0106 -0.1843
 2885WAT     H2 8867   1.433   2.234   4.395  0.4039 -0.4119 -0.9271
 2886WAT      O 8868   4.431   4.671   2.605 -0.0309  0.3926  0.5981
 2886WAT     H1 8869   4.377   4.704   2.532  1.7188  0.5754 -0.6670
 2886WAT     H2 8870   4.396   4.716   2.682 -1.1712  1.1028 -0.2942
 2887WAT      O 8871   3.700   0.033   1.757  0.0805 -0.0631 -0.0056
 2887WAT     H1 8872   3.663   0.087   1.686 -1.7143 -2.0463 -0.6882
 2887WAT     H2 8873   3.758  -0.028   1.712  0.6865  0.1125  0.5365
 2888WAT      O 8874   1.219   1.004   3.873  0.3754 -0.8178  0.0751
 2888WAT     H1 8875   1.170   0.927   3.902  1.6327 -2.1003 -1.0376
 2888WAT     H2 8876   1.197   1.072   3.937 -0.2688 -2.2782  1.4826
 2889WAT      O 8877   2.959   3.795   3.328 -0.1342  0.0962  0.2604
 2889WAT     H1 8878   2.968   3.753   3.242 -1.7196 -0.5584  0.3894
 2889WAT     H2 8879   2.909   3.875   3.311 -0.0746  0.1872  0.5097
 2890WAT      O 8880   3.832   0.207   1.057  0.0193 -0.3395  0.2617
 2890WAT     H1 8881   3.865   0.190   0.969  0.8975 -0.4849  0.6086
 2890WAT     H2 8882   3.793   0.294   1.052 -0.0790 -0.4164 -0.3096
 2891WAT      O 8883   3.657   2.262   2.944 -0.5790 -0.2914 -0.5054
 2891WAT     H1 8884   3.663   2.356   2.955 -0.8368 -0.4151  0.9183
 2891WAT     H2 8885   3.747   2.231   2.954 -0.6885 -0.3143  0.5586
 2892WAT      O 8886   1.777   1.005   2.040  0.2965  0.0540 -0.6000
 2892WAT     H1 8887   1.851   1.047   2.084  0.0418  0.3355 -0.4408
 2892WAT     H2 8888   1.815   0.928   1.998 -0.0073 -2.5420  3.2961
 2893WAT      O 8889   2.388   1.543   0.030  0.1319  0.2938 -0.6247
 2893WAT     H1 8890   2.463   1.543   0.091 -1.2496 -0.6513  1.1807
 2893WAT     H2 8891   2.427   1.557  -0.056  2.5325 -1.4549  0.0754
 2894WAT      O 8892   4.116   0.805   2.243 -0.0311 -0.0545 -0.5509
 2894WAT     H1 8893   4.043   0.768   2.292 -0.3115  0.4278 -0.5939
 2894WAT     H2 8894   4.179   0.734   2.234 -0.4533 -0.4427 -0.4227
 2895WAT      O 8895   2.428   2.916   3.314 -0.4839 -0.2235 -0.7173
 2895WAT     H1 8896   2.446   2.924   3.221  0.1269  1.4863 -0.5015
 2895WAT     H2 8897   2.511   2.887   3.352 -0.3161  0.4172 -0.5722
 2896WAT      O 8898   2.624   1.090   0.144  0.4008  0.2880  0.2318
 2896WAT     H1 8899   2.593   1.129   0.062 -1.7798  0.3432  1.0233
 2896WAT     H2 8900   2.670   1.011   0.116  1.0280  1.0838 -1.1192
 2897WAT      O 8901   2.047   1.599   1.244  0.4995  1.2516 -0.2601
 2897WAT     H1 8902   1.964   1.577   1.202  0.1283  0.0124  1.0388
 2897WAT     H2 8903   2.113   1.589   1.175 -0.4514  2.9719 -1.5107
 2898WAT      O 8904   3.016   4.336   1.206 -0.0710 -0.3293 -0.7545
 2898WAT     H1 8905   2.946   4.280   1.240  0.3190 -0.4081 -0.0561
 2898WAT     H2 8906   2.971   4.399   1.150 -0.8530  0.3372  0.5794
 2899WAT      O 8907   4.317   2.072   5.063 -0.0869  0.2406  0.6912
 2899WAT     H1 8908   4.324   1.983   5.098 -1.9032 -0.5115 -0.6928
 2899WAT     H2 8909   4.407   2.105   5.065  0.4521 -1.1840  2.3211
 2900WAT      O 8910   2.262   1.049   2.552 -0.6058  0.0073 -0.0166
 2900WAT     H1 8911   2.245   1.112   2.482 -0.3642  0.7085  0.5450
 2900WAT     H2 8912   2.179   1.002   2.563 -1.3059  1.3449  0.6591
 2901WAT      O 8913   2.692   0.571   5.181  0.3092  0.1060 -0.3314
 2901WAT     H1 8914   2.725   0.590   5.269  0.5740 -1.3480 -0.0918
 2901WAT     H2 8915   2.724   0.483   5.162 -1.0694 -0.2248 -1.2523
 2902WAT      O 8916   4.018   4.856   1.315  0.3204 -0.0245 -0.1290
 2902WAT     H1 8917   3.924   4.837   1.315  0.6889 -2.5656 -2.9048
 2902WAT     H2 8918   4.025   4.939   1.266 -0.3975 -1.3115 -2.5922
 2903WAT      O 8919   4.205   1.875   0.082  0.5943 -0.1714  0.3718
 2903WAT     H1 8920   4.111   1.858   0.068  0.3868 -0.4324  1.9647
 2903WAT     H2 8921   4.246   1.850  -0.001 -0.9397  1.7232 -1.0410
 2904WAT      O 8922   2.651   0.762   4.999 -0.2279 -0.3449 -0.3072
 2904WAT     H1 8923   2.577   0.818   5.023 -1.1787 -0.8778 -1.8012
 2904WAT     H2 8924   2.648   0.689   5.061 -1.1445 -0.4947 -0.5133
 2905WAT      O 8925   0.424   4.975   5.128 -0.0389  0.2984  0.3850
 2905WAT     H1 8926   0.420   4.973   5.033  1.2515 -1.2793  0.3251
 2905WAT     H2 8927   0.384   4.892   5.156  0.6684  0.2001  1.1525
 2906WAT      O 8928   1.508   5.129   2.622  0.6372 -0.2771 -0.6174
 2906WAT     H1 8929   1.416   5.154   2.629  0.6436 -0.3238 -0.3338
 2906WAT     H2 8930   1.551   5.177   2.693  0.7268 -0.7142 -0.3714
 2907WAT      O 8931   2.932   4.774   2.780  0.2144  0.2498 -0.1525
 2907WAT     H1 8932   2.979   4.773   2.697 -0.5884  0.0196 -0.6053
 2907WAT     H2 8933   2.931   4.866   2.806  0.1190  0.3737 -0.5920
 2908WAT      O 8934   0.116   3.538   1.224 -0.2938 -0.1430  0.2154
 2908WAT     H1 8935   0.024   3.561   1.234 -0.8142 -0.6916 -2.6200
 2908WAT     H2 8936   0.155   3.613   1.179  0.8516  0.3572  1.9398
 2909WAT      O 8937   4.156   3.460   0.600 -0.0050  0.0946  0.2006
 2909WAT     H1 8938   4.115   3.521   0.539 -2.2146 -1.5598 -0.1003
 2909WAT     H2 8939   4.084   3.407   0.633  1.7895 -2.4732  0.3125
 2910WAT      O 8940   3.419   4.872   3.162 -0.6895  0.5031  0.3492
 2910WAT     H1 8941   3.461   4.802   3.210 -1.2077 -0.6474 -0.8114
 2910WAT     H2 8942   3.489   4.935   3.145  0.1057 -0.3971  0.2133
 2911WAT      O 8943   2.324   5.111   1.784 -0.4709 -0.4318 -0.1856
 2911WAT     H1 8944   2.255   5.167   1.751 -0.5351 -0.6900 -0.4993
 2911WAT     H2 8945   2.393   5.171   1.812 -1.3268 -0.1069  1.3257
 2912WAT      O 8946   0.634   4.420   3.728 -0.0119  0.4096 -0.6734
 2912WAT     H1 8947   0.543   4.429   3.701 -0.9419 -1.8776  1.3651
 2912WAT     H2 8948   0.658   4.331   3.704  0.0902 -0.6715  2.8496
 2913WAT      O 8949   0.308   2.295   0.497  0.0431 -0.0694  0.0992
 2913WAT     H1 8950   0.354   2.362   0.547 -0.2652  2.0512 -2.2874
 2913WAT     H2 8951   0.226   2.282   0.544  0.5463  0.4377  1.1569
 2914WAT      O 8952   0.634   4.113   2.618  0.0120  0.1677  0.0131
 2914WAT     H1 8953   0.598   4.025   2.633  0.5508 -0.2014 -0.7970
 2914WAT     H2 8954   0.689   4.130   2.694  0.0950 -0.2957  0.0572
 2915WAT      O 8955   2.648   3.684   0.468  0.2450  0.2839 -0.7126
 2915WAT     H1 8956   2.652   3.704   0.562  1.0666  1.2868 -0.9440
 2915WAT     H2 8957   2.612   3.763   0.428  0.5291  0.1158 -1.3109
 2916WAT      O 8958   2.070   4.798   1.622 -0.1224  0.0635  0.0643
 2916WAT     H1 8959   1.985   4.753   1.620  1.0109 -2.2039 -0.3516
 2916WAT     H2 8960   2.051   4.885   1.587 -2.4244 -0.0663  0.7830
 2917WAT      O 8961   3.122   4.296   4.751 -0.3001  0.7085 -0.1990
 2917WAT     H1 8962   3.049   4.249   4.711  0.8678 -0.4805 -1.0179
 2917WAT     H2 8963   3.152   4.237   4.821  0.1606  0.9758 -0.1707
 2918WAT      O 8964   1.111   0.301   3.668 -0.1250  0.3035  0.1196
 2918WAT     H1 8965   1.092   0.373   3.608  2.0549  1.5935  0.8756
 2918WAT     H2 8966   1.025   0.265   3.690 -1.0572 -1.3141 -4.8861
 2919WAT      O 8967   4.298   4.787   0.551 -0.3252  0.1705  0.5844
 2919WAT     H1 8968   4.358   4.845   0.504  0.1269  0.2600  1.2632
 2919WAT     H2 8969   4.263   4.842   0.622 -0.3993 -0.1973  0.8328
 2920WAT      O 8970   3.247   4.468   1.125 -0.2325 -0.2825 -0.6324
 2920WAT     H1 8971   3.162   4.428   1.146 -1.0392  0.3417 -2.5022
 2920WAT     H2 8972   3.276   4.421   1.047  1.2728 -0.6286  0.1033
 2921WAT      O 8973   2.223   1.274   4.148 -0.0542  0.0100  0.1500
 2921WAT     H1 8974   2.308   1.315   4.167  1.3304 -1.2249 -2.7436
 2921WAT     H2 8975   2.192   1.319   4.070  0.0227 -2.2263 -1.2776
 2922WAT      O 8976   4.128   3.586   1.883 -0.0012 -0.1820  0.6222
 2922WAT     H1 8977   4.116   3.597   1.977  0.3022 -1.0377  0.7634
 2922WAT     H2 8978   4.215   3.624   1.866  0.7573 -1.6727  1.0046
 2923WAT      O 8979   4.365   3.287   3.746  0.2785 -0.1830 -0.2147
 2923WAT     H1 8980   4.298   3.220   3.736 -0.3186  0.5847 -1.4973
 2923WAT     H2 8981   4.431   3.266   3.680  0.1441  0.4111 -0.5483
 2924WAT      O 8982   0.982   1.724   3.316  0.0606 -0.5199  0.3334
 2924WAT     H1 8983   1.004   1.779   3.241  0.9486 -0.7779  0.3988
 2924WAT     H2 8984   1.059   1.669   3.330 -0.2158 -0.6981  1.2406
 2925WAT      O 8985   1.680   1.932   0.632  0.2621 -0.1730 -0.0677
 2925WAT     H1 8986   1.755   1.950   0.689  0.0182 -0.8755  0.4814
 2925WAT     H2 8987   1.663   2.016   0.589 -0.1454  0.6338  1.5829
 2926WAT      O 8988   3.791   1.898   3.705  0.0579  0.1545 -0.2234
 2926WAT     H1 8989   3.737   1.822   3.682  1.2635 -0.3966 -1.3471
 2926WAT     H2 8990   3.744   1.973   3.668  1.0967 -0.5469 -3.1899
 2927WAT      O 8991   0.078   0.502   2.057  0.6361 -0.3101  0.1538
 2927WAT     H1 8992   0.138   0.505   2.131  0.2369  2.4236  0.4777
 2927WAT     H2 8993   0.122   0.553   1.989 -1.3432  2.0702  0.5171
 2928WAT      O 8994   3.645   4.384   3.726 -0.1711 -0.4030  0.8580
 2928WAT     H1 8995   3.718   4.443   3.742 -0.2262 -0.1768  0.3167
 2928WAT     H2 8996   3.668   4.339   3.645 -0.8627  0.0645  0.3772
 2929WAT      O 8997   4.364   2.517   4.943 -0.0959  0.1253  0.1284
 2929WAT     H1 8998   4.441   2.569   4.919 -1.4078  2.5529  0.7754
 2929WAT     H2 8999   4.391   2.466   5.019  0.8820  0.9672  0.3597
 2930WAT      O 9000   1.348   2.936   1.873 -0.1572 -0.1508  0.4211
 2930WAT     H1 9001   1.404   2.909   1.801  0.4933  2.1546 -0.0415
 2930WAT     H2 9002   1.259   2.929   1.839  0.0303 -0.9996  0.1035
 2931WAT      O 9003   4.316   3.411   2.042  0.8434  0.0848  0.8027
 2931WAT     H1 9004   4.387   3.347   2.052 -0.0531 -0.9734  0.5064
 2931WAT     H2 9005   4.361   3.492   2.018  1.8753 -0.8908 -0.7277
 2932WAT      O 9006   3.550   2.765   2.170  0.4284 -0.1702  0.8692
 2932WAT     H1 9007   3.619   2.701   2.155  0.0647 -0.4142  0.2138
 2932WAT     H2 9008   3.471   2.725   2.135  0.6334  1.6567 -2.0472
 2933WAT      O 9009   0.949   4.659   3.670  0.0503  0.0220  0.0067
 2933WAT     H1 9010   0.974   4.574   3.707  3.0166  0.7600 -0.0963
 2933WAT     H2 9011   0.956   4.720   3.743 -0.6193  0.4388 -0.2682
 2934WAT      O 9012   2.952   0.728   1.288 -0.5673 -0.5783 -0.3019
 2934WAT     H1 9013   2.988   0.733   1.199 -1.6041  0.0552 -0.7036
 2934WAT     H2 9014   2.967   0.638   1.315  1.7068 -0.2540 -0.2604
 2935WAT      O 9015   1.024   3.330   3.895 -0.3317 -0.1001  0.2618
 2935WAT     H1 9016   0.952   3.267   3.902  0.5811 -1.0933  1.0878
 2935WAT     H2 9017   1.069   3.305   3.814 -0.1278 -0.3279  0.4470
 2936WAT      O 9018   0.352   1.925   0.352  0.0696 -0.7394 -0.4103
 2936WAT     H1 9019   0.386   2.014   0.365  0.2956 -0.2237 -3.5648
 2936WAT     H2 9020   0.421   1.881   0.302 -1.0480 -1.9019 -0.9755
 2937WAT      O 9021   0.668   1.530   0.795 -0.7445  0.1836  0.3136
 2937WAT     H1 9022   0.621   1.581   0.861  1.2636  0.6287  1.4934
 2937WAT     H2 9023   0.739   1.588   0.766 -0.2871 -0.8116 -0.6253
 2938WAT      O 9024   0.093   4.496   0.566  0.4764  0.8209  0.1700
 2938WAT     H1 9025   0.119   4.426   0.506  0.4917  1.6658 -0.8579
 2938WAT     H2 9026   0.090   4.455   0.652  0.9982 -0.3069 -0.3290
 2939WAT      O 9027   4.029   0.139   3.672  0.2128  0.3443 -0.2698
 2939WAT     H1 9028   4.011   0.212   3.731  0.1742  0.2245 -0.1338
 2939WAT     H2 9029   4.122   0.147   3.651 -0.1695  1.5153 -1.7116
 2940WAT      O 9030   0.356   1.234   1.274  0.1438  0.3230  0.9243
 2940WAT     H1 9031   0.323   1.245   1.185  0.1961  1.2462  1.0110
 2940WAT     H2 9032   0.320   1.150   1.303  1.0812 -0.5801 -0.3799
 2941WAT      O 9033   2.994   0.196   4.490  0.0345  0.0083  0.7512
 2941WAT     H1 9034   3.074   0.152   4.520  0.6718 -0.6672 -1.6403
 2941WAT     H2 9035   2.928   0.127   4.487  0.0088  0.0406  0.5309
 2942WAT      O 9036   0.577   2.386   4.406  0.1882 -0.1805  0.0536
 2942WAT     H1 9037   0.482   2.378   4.400 -0.0678  1.4163  1.1022
 2942WAT     H2 9038   0.591   2.460   4.467  2.0637  0.8764 -1.5261
 2943WAT      O 9039   0.319   1.923   2.950  0.2209  0.1316  0.4989
 2943WAT     H1 9040   0.407   1.886   2.951  0.5719  0.6991 -2.0598
 2943WAT     H2 9041   0.328   2.007   2.996  0.8988 -0.0393  0.6920
 2944WAT      O 9042   3.444   3.217   3.272 -0.5914  0.2336 -0.0302
 2944WAT     H1 9043   3.467   3.304   3.302 -3.2871  1.9246 -2.3566
 2944WAT     H2 9044   3.485   3.209   3.185  0.9181 -1.5414  0.7567
 2945WAT      O 9045   3.730   2.800   3.010  0.0169 -0.0837  0.4233
 2945WAT     H1 9046   3.773   2.797   3.095  1.5109 -1.0583 -0.3166
 2945WAT     H2 9047   3.803   2.807   2.947 -1.0606  1.0623 -0.7606
 2946WAT      O 9048   2.584   1.619   0.218 -0.6235 -0.2585 -0.1661
 2946WAT     H1 9049   2.601   1.650   0.307 -1.6449 -1.2254  0.4053
 2946WAT     H2 9050   2.614   1.528   0.219  1.3605  0.3099 -1.4876
 2947WAT      O 9051   1.646   1.832   4.594 -0.8546 -0.2210  0.1478
 2947WAT     H1 9052   1.559   1.826   4.556 -0.6469 -0.9908 -0.2425
 2947WAT     H2 9053   1.689   1.750   4.568  1.0991  1.4985 -2.4502
 2948WAT      O 9054   3.309   1.118   1.803 -0.2255 -0.1728  0.5789
 2948WAT     H1 9055   3.293   1.026   1.784  0.9689 -0.5597  1.3971
 2948WAT     H2 9056   3.238   1.143   1.862 -0.0962 -0.7891  1.0004
 2949WAT      O 9057   3.451   0.165   1.643  0.1895  0.1814  0.4225
 2949WAT     H1 9058   3.511   0.239   1.654  0.9252 -0.4225  0.4905
 2949WAT     H2 9059   3.377   0.186   1.701  0.1290  1.1201  0.0345
 2950WAT      O 9060   1.017   4.549   1.290  0.6527 -0.5268  0.1991
 2950WAT     H1 9061   1.016   4.563   1.385  0.8971  0.6928  0.0423
 2950WAT     H2 9062   1.089   4.604   1.258 -0.8147  0.8689 -0.9142
 2951WAT      O 9063   2.919   3.689   3.075  0.1518  0.0732 -0.2050
 2951WAT     H1 9064   3.003   3.657   3.107  0.6104  2.1975  0.9314
 2951WAT     H2 9065   2.923   3.678   2.980  1.7224  0.1224 -0.1644
 2952WAT      O 9066   4.224   4.889   1.459 -0.3049 -0.1137 -0.8807
 2952WAT     H1 9067   4.138   4.884   1.418 -1.0538 -2.2805  0.7747
 2952WAT     H2 9068   4.207   4.933   1.543  0.4681  0.6302 -1.1021
 2953WAT      O 9069   0.642   2.821   4.778  0.1202 -0.1770 -0.0674
 2953WAT     H1 9070   0.719   2.825   4.720  0.9780  1.0136  1.0915
 2953WAT     H2 9071   0.673   2.774   4.855 -0.2470  0.4640  0.4852
 2954WAT      O 9072   3.513   3.817   2.836 -0.1193  0.1887  0.1945
 2954WAT     H1 9073   3.483   3.744   2.782  1.1573 -1.5165  1.6661
 2954WAT     H2 9074   3.433   3.864   2.860 -1.1643 -1.6039  0.4058
 2955WAT      O 9075   1.896   1.243   2.523  0.5867 -0.2273  0.2314
 2955WAT     H1 9076   1.881   1.159   2.566  2.3804  0.0324  1.4649
 2955WAT     H2 9077   1.808   1.280   2.512 -0.0747 -1.1602  1.9681
 2956WAT      O 9078   0.492   4.762   2.924 -0.2317 -0.3484  0.3221
 2956WAT     H1 9079   0.567   4.703   2.920 -0.3100 -0.3865 -2.0829
 2956WAT     H2 9080   0.424   4.711   2.968 -0.3011 -2.1128 -1.6705
 2957WAT      O 9081   3.784   2.653   1.479  0.4531  0.5278 -0.2638
 2957WAT     H1 9082   3.791   2.662   1.383  1.5444  0.3870 -0.2138
 2957WAT     H2 9083   3.716   2.715   1.503  0.1025  0.5054 -1.1472
 2958WAT      O 9084   1.163   0.937   2.214 -0.1039 -0.3259 -0.8178
 2958WAT     H1 9085   1.242   0.945   2.267 -1.8298  1.3656  1.7084
 2958WAT     H2 9086   1.141   1.026   2.189 -3.5088 -0.0963  2.3142
 2959WAT      O 9087   1.531   2.832   1.069 -0.0985  0.1763 -0.4718
 2959WAT     H1 9088   1.570   2.846   0.983  0.4965 -1.5079 -0.5036
 2959WAT     H2 9089   1.554   2.743   1.092 -1.7806 -0.0156  0.6638
 2960WAT      O 9090   2.209   2.489   0.073  0.5431 -0.4194 -0.3376
 2960WAT     H1 9091   2.252   2.556   0.126 -1.5401 -1.0676  2.3741
 2960WAT     H2 9092   2.161   2.539   0.006 -0.9277  0.8921  1.5992
 2961WAT      O 9093   0.359   0.700   1.542 -0.3534 -0.3137 -0.0806
 2961WAT     H1 9094   0.315   0.753   1.608  0.7625 -1.3499  1.5575
 2961WAT     H2 9095   0.437   0.666   1.586 -1.3196 -3.8133 -0.7867
 2962WAT      O 9096   2.096   4.470   2.189  0.6731  0.3848 -0.1212
 2962WAT     H1 9097   2.105   4.436   2.100 -0.3440 -0.9725  0.2530
 2962WAT     H2 9098   2.012   4.516   2.189  0.7599  0.5443  0.0848
 2963WAT      O 9099   1.747   4.562   5.216  0.5226  0.3162 -0.5616
 2963WAT     H1 9100   1.802   4.492   5.251  1.2784  1.5228  0.7845
 2963WAT     H2 9101   1.756   4.554   5.121  2.3422 -0.0790 -0.3942
 2964WAT      O 9102   0.199   3.053   1.103  0.1702  0.1701 -0.0210
 2964WAT     H1 9103   0.266   3.005   1.152 -0.0007 -0.5427 -0.4712
 2964WAT     H2 9104   0.149   3.100   1.169  1.4009  1.0790  0.2946
 2965WAT      O 9105   4.141   3.483   3.751 -0.0551 -0.2787  0.5000
 2965WAT     H1 9106   4.124   3.391   3.769  2.3168 -0.8779  0.1052
 2965WAT     H2 9107   4.172   3.485   3.661 -1.2717  1.1141  0.0790
 2966WAT      O 9108   1.249   4.696   1.221  0.4050 -0.2894  0.5126
 2966WAT     H1 9109   1.297   4.738   1.149 -0.7836 -1.8629 -1.3181
 2966WAT     H2 9110   1.316   4.647   1.268  0.8958 -1.2821 -1.1076
 2967WAT      O 9111   1.434   0.284   1.581 -0.1515 -0.4420 -0.3654
 2967WAT     H1 9112   1.448   0.236   1.500 -0.5243 -0.9555 -0.1328
 2967WAT     H2 9113   1.465   0.225   1.650  0.3701  0.0779 -0.1430
 2968WAT      O 9114   2.022   2.752   0.429  0.2068 -0.3536  0.4041
 2968WAT     H1 9115   1.994   2.676   0.480  2.3045 -2.5514 -1.4328
 2968WAT     H2 9116   2.010   2.826   0.488 -0.4832 -2.2807  2.8818
 2969WAT      O 9117   3.724   0.781   5.167 -0.1910  0.2040  0.2950
 2969WAT     H1 9118   3.765   0.732   5.239  0.2176  1.9848  1.3465
 2969WAT     H2 9119   3.632   0.753   5.168 -0.4661  0.9897  2.3024
 2970WAT      O 9120   0.902   5.037   3.268  0.1461  0.0600  0.1499
 2970WAT     H1 9121   0.905   5.026   3.363  0.7493  1.1575  0.2730
 2970WAT     H2 9122   0.984   5.000   3.236 -1.1999 -2.8318 -0.2758
 2971WAT      O 9123   1.002   3.999   2.648 -0.0961 -0.2114 -0.1362
 2971WAT     H1 9124   0.995   4.082   2.601  0.3327 -0.5863 -0.8718
 2971WAT     H2 9125   0.946   3.938   2.600  0.0677 -0.5052  0.0385
 2972WAT      O 9126   2.761   1.367   2.107 -0.4202  0.6328 -0.2069
 2972WAT     H1 9127   2.795   1.277   2.111  0.1091  0.8639  0.5570
 2972WAT     H2 9128   2.804   1.412   2.179  1.8498  2.3879 -2.5122
 2973WAT      O 9129   2.726   3.597   4.575  0.2266  0.3141 -0.0199
 2973WAT     H1 9130   2.683   3.658   4.514  0.6871  0.0058 -0.6536
 2973WAT     H2 9131   2.653   3.553   4.619 -0.1156  0.3067 -0.5806
 2974WAT      O 9132   2.894   1.224   5.182 -0.4123 -0.2972  0.2348
 2974WAT     H1 9133   2.859   1.162   5.117 -2.9677 -1.1644  2.2431
 2974WAT     H2 9134   2.932   1.169   5.250 -1.2922  0.3472  1.2925
 2975WAT      O 9135   2.028   3.563   4.354 -0.3253  0.0635  0.3331
 2975WAT     H1 9136   2.003   3.639   4.406  2.6528  0.3352  1.5707
 2975WAT     H2 9137   2.010   3.488   4.410  0.2532  0.1565  0.6509
 2976WAT      O 9138   4.152   3.032   4.225  0.4891  0.2503 -0.2780
 2976WAT     H1 9139   4.172   2.949   4.181 -1.6528  0.0186 -0.9117
 2976WAT     H2 9140   4.237   3.073   4.238  1.4383 -1.1368 -1.7635
 2977WAT      O 9141   2.742   1.898   4.288 -0.6540  0.5367 -0.0912
 2977WAT     H1 9142   2.794   1.891   4.208 -0.2353  2.4539 -0.0454
 2977WAT     H2 9143   2.718   1.808   4.309  2.6833 -0.5021 -0.0953
 2978WAT      O 9144   4.284   3.358   5.065  0.0493  0.4664 -0.0436
 2978WAT     H1 9145   4.238   3.395   5.140 -1.0301 -0.0982 -0.4044
 2978WAT     H2 9146   4.328   3.432   5.024 -0.6693  1.0454  0.2300
 2979WAT      O 9147   2.403   2.192   3.789 -0.0930  0.4107  0.4985
 2979WAT     H1 9148   2.367   2.234   3.867 -1.1030  1.1265 -0.3143
 2979WAT     H2 9149   2.374   2.248   3.716 -2.2308 -2.0715 -0.7310
 2980WAT      O 9150   3.993   3.958   2.878  0.1116 -0.0599  0.2687
 2980WAT     H1 9151   3.986   4.051   2.903  0.6520  0.0969 -0.1477
 2980WAT     H2 9152   3.907   3.922   2.897  0.1579  0.3172  1.2901
 2981WAT      O 9153   3.022   4.031   3.021  0.2640 -0.5546  0.3456
 2981WAT     H1 9154   2.931   4.001   3.016  0.1089 -0.3042  1.4253
 2981WAT     H2 9155   3.021   4.102   3.085  0.8492  0.9748 -1.2513
 2982WAT      O 9156   2.770   0.811   4.567  0.5660 -0.0484  0.1315
 2982WAT     H1 9157   2.703   0.872   4.597  0.9134 -0.0105  0.8523
 2982WAT     H2 9158   2.814   0.782   4.647  0.0157 -1.7062 -0.1309
 2983WAT      O 9159   1.419   3.200   4.922  0.4394  0.0267  0.1618
 2983WAT     H1 9160   1.463   3.172   4.842  0.6881  0.9600 -0.0388
 2983WAT     H2 9161   1.477   3.267   4.959 -0.5765  0.9381  0.1448
 2984WAT      O 9162   2.733   2.428   0.502 -0.2077 -0.1779  0.1420
 2984WAT     H1 9163   2.678   2.455   0.576 -0.5286 -0.1551 -0.1028
 2984WAT     H2 9164   2.672   2.387   0.441  0.4664 -2.8697  1.1475
 2985WAT      O 9165   3.187   1.758   2.271 -0.0283  0.3088  0.7898
 2985WAT     H1 9166   3.188   1.665   2.249  0.1750  0.3836  0.4699
 2985WAT     H2 9167   3.117   1.767   2.335 -0.6188  0.0823  0.1817
 2986WAT      O 9168   3.463   4.264   2.986  0.2922  0.1149  0.0327
 2986WAT     H1 9169   3.444   4.255   2.893 -1.3632 -0.9883  0.4291
 2986WAT     H2 9170   3.555   4.289   2.990  0.2998  0.5308 -1.8977
 2987WAT      O 9171   0.762   2.363   2.737  0.1949  0.0584  0.2679
 2987WAT     H1 9172   0.698   2.434   2.729 -2.4635 -2.3417 -2.1950
 2987WAT     H2 9173   0.823   2.377   2.665  0.8615  0.8806  0.9814
 2988WAT      O 9174   1.704   1.693   3.956 -0.0909 -0.6099 -0.5357
 2988WAT     H1 9175   1.709   1.677   4.051 -0.2991  1.3767 -0.1602
 2988WAT     H2 9176   1.775   1.639   3.920  1.1129 -0.1034  0.9504
 2989WAT      O 9177   0.280   3.986   0.038  0.1479  0.1172  0.2925
 2989WAT     H1 9178   0.309   4.036   0.115 -0.8526  0.0067  0.7617
 2989WAT     H2 9179   0.192   4.019   0.020 -0.6372 -1.6256  0.7593
 2990WAT      O 9180   0.063   4.779   0.799 -0.2136 -0.2329  0.2230
 2990WAT     H1 9181   0.157   4.758   0.798 -0.4528 -1.3844 -0.8504
 2990WAT     H2 9182   0.038   4.782   0.706 -1.2704 -0.0497  0.4964
 2991WAT      O 9183   1.534   0.025   0.644  0.0679  0.1860  0.1556
 2991WAT     H1 9184   1.483   0.033   0.563 -0.8507 -0.3175  0.6686
 2991WAT     H2 9185   1.612   0.078   0.628 -0.2321  0.3278 -0.9510
 2992WAT      O 9186   3.232   2.295   4.100  0.1514  0.1186  0.1183
 2992WAT     H1 9187   3.212   2.202   4.091 -0.1411  0.3948 -3.1959
 2992WAT     H2 9188   3.156   2.331   4.146 -0.8424 -0.9286 -0.6443
 2993WAT      O 9189   0.330   3.479   5.261  0.7601  0.0733 -0.3601
 2993WAT     H1 9190   0.277   3.478   5.341  1.6354  1.6088  0.2879
 2993WAT     H2 9191   0.335   3.387   5.234 -0.5998 -0.3259  0.6321
 2994WAT      O 9192   3.359   2.972   0.710 -0.3228  0.5980 -0.1003
 2994WAT     H1 9193   3.363   2.946   0.618 -0.9080  0.7986 -0.1861
 2994WAT     H2 9194   3.291   3.039   0.713  0.6369  1.5626  0.2595
 2995WAT      O 9195   1.211   3.715   5.057  0.0303 -0.3738 -0.4495
 2995WAT     H1 9196   1.272   3.762   5.000  0.9493  0.3778  1.0984
 2995WAT     H2 9197   1.257   3.635   5.082 -0.0970 -0.3777 -0.2237
 2996WAT      O 9198   3.777   3.711   4.214 -0.0772 -0.7320  0.0561
 2996WAT     H1 9199   3.755   3.804   4.214  1.9999 -0.1830 -0.8001
 2996WAT     H2 9200   3.746   3.679   4.299  1.8742  1.4760  1.7420
 2997WAT      O 9201   0.809   2.369   1.589  0.0365  0.0955 -0.1174
 2997WAT     H1 9202   0.767   2.399   1.508  1.2378 -0.4989 -0.9786
 2997WAT     H2 9203   0.865   2.442   1.614 -0.4573  0.3436  0.2788
 2998WAT      O 9204   2.896   1.935   3.190  0.0857 -0.1134 -0.3901
 2998WAT     H1 9205   2.910   1.933   3.096  0.2347 -0.3750 -0.3656
 2998WAT     H2 9206   2.979   1.905   3.227 -0.3435 -1.1529 -0.2186
 2999WAT      O 9207   4.194   5.020   1.680 -0.3873  0.6031 -0.1829
 2999WAT     H1 9208   4.180   5.115   1.682  0.5261  0.7557 -0.7236
 2999WAT     H2 9209   4.231   4.999   1.766 -0.2092  0.7985 -0.2119
 3000WAT      O 9210   0.283   4.735   5.157  0.0024 -0.0084  0.2047
 3000WAT     H1 9211   0.321   4.657   5.117 -1.0052 -0.8535  0.8283
 3000WAT     H2 9212   0.322   4.738   5.244 -0.0132  0.1402  0.2063
 3001WAT      O 9213   3.570   3.210   4.483  0.1279  1.1264  0.2327
 3001WAT     H1 9214   3.643   3.154   4.459  0.7209  1.3220  1.4845
 3001WAT     H2 9215   3.507   3.200   4.412  0.5483 -0.5323  0.0634
 3002WAT      O 9216   3.250   4.782   0.811  0.2934 -0.3169  0.0563
 3002WAT     H1 9217   3.156   4.801   0.814  0.6572  2.1885 -1.4904
 3002WAT     H2 9218   3.259   4.716   0.743 -0.2356  0.7328 -1.0725
 3003WAT      O 9219   3.062   3.134   4.920 -0.1602  0.2212 -0.1970
 3003WAT     H1 9220   3.157   3.139   4.910  0.0113  2.1771  1.5805
 3003WAT     H2 9221   3.030   3.108   4.834  1.9552 -0.2007 -0.9218
 3004WAT      O 9222   3.952   4.047   4.941  0.3166 -0.3188 -0.1590
 3004WAT     H1 9223   3.897   4.039   5.019 -1.5781 -1.5992 -1.5331
 3004WAT     H2 9224   3.993   3.961   4.932  0.9281 -0.0139 -0.3078
 3005WAT      O 9225   1.499   4.623   4.061 -0.6471 -0.2721  0.1253
 3005WAT     H1 9226   1.553   4.698   4.037  0.3888 -0.3264  2.0533
 3005WAT     H2 9227   1.560   4.563   4.106 -2.2908 -0.1634  2.7323
 3006WAT      O 9228   4.273   4.090   1.084 -0.2477 -0.3271  0.6615
 3006WAT     H1 9229   4.182   4.104   1.056  0.3272  0.6301 -0.8988
 3006WAT     H2 9230   4.305   4.020   1.027 -0.3150 -1.5047  2.0113
 3007WAT      O 9231   2.824   0.706   0.903  0.7464 -0.1500  0.3412
 3007WAT     H1 9232   2.753   0.678   0.845 -0.0109  0.9404  0.7229
 3007WAT     H2 9233   2.796   0.790   0.937  2.8023  0.9545 -0.5077
 3008WAT      O 9234   2.320   4.131   5.015 -0.1310 -0.0107  0.4014
 3008WAT     H1 9235   2.346   4.054   5.065 -0.0091 -0.3751 -0.2139
 3008WAT     H2 9236   2.403   4.167   4.982 -0.3453 -1.4518 -1.9710
 3009WAT      O 9237   0.527   2.927   3.659 -0.1497 -0.7772 -0.2756
 3009WAT     H1 9238   0.542   2.941   3.565 -0.6067  0.6832 -0.1624
 3009WAT     H2 9239   0.465   2.854   3.663 -0.3216 -0.6896 -1.1267
 3010WAT      O 9240   0.468   0.560   0.069 -0.0721  0.3903 -0.2857
 3010WAT     H1 9241   0.563   0.548   0.069 -0.1502 -1.6332  3.3886
 3010WAT     H2 9242   0.435   0.487   0.017  0.3726 -1.0202  1.3105
 3011WAT      O 9243   4.346   0.950   3.559  0.0614  0.7685 -0.2412
 3011WAT     H1 9244   4.289   0.974   3.486  0.4985  1.6927 -0.2986
 3011WAT     H2 9245   4.423   0.912   3.517 -0.0135  0.5943 -0.2216
 3012WAT      O 9246   1.966   4.408   3.093 -0.0732 -0.1531  0.2095
 3012WAT     H1 9247   1.961   4.356   3.013 -0.5729  0.2290 -0.0142
 3012WAT     H2 9248   1.884   4.390   3.139  0.5872 -1.0523  1.0733
 3013WAT      O 9249   2.782   4.520   4.702 -0.5697  0.4730 -0.2471
 3013WAT     H1 9250   2.874   4.515   4.675 -0.4903 -0.1919  0.1302
 3013WAT     H2 9251   2.737   4.558   4.627  0.1323  1.5225 -0.1468
 3014WAT      O 9252   1.320   4.215   3.146  0.4923 -0.7924  0.0287
 3014WAT     H1 9253   1.270   4.135   3.163  1.0686 -0.7220  2.3875
 3014WAT     H2 9254   1.253   4.284   3.144  0.2430 -1.0003  0.7803
 3015WAT      O 9255   0.902   4.542   3.001  0.2956  0.2084 -0.1374
 3015WAT     H1 9256   0.821   4.560   3.048  0.0838  1.0678 -0.8025
 3015WAT     H2 9257   0.872   4.500   2.920  0.4010  1.6119 -0.9337
 3016WAT      O 9258   1.432   4.521   0.745  0.3077  0.3002 -0.3326
 3016WAT     H1 9259   1.361   4.584   0.738  0.6288  0.5702 -1.2370
 3016WAT     H2 9260   1.445   4.488   0.656  1.1023  0.0209 -0.1244
 3017WAT      O 9261   3.428   3.127   4.238  0.3465 -0.4950  0.1189
 3017WAT     H1 9262   3.349   3.137   4.184 -0.5748 -0.1327  1.4744
 3017WAT     H2 9263   3.493   3.182   4.195  0.0566 -1.2154 -1.3296
 3018WAT      O 9264   3.529   2.889   4.545  0.1221 -0.1264  0.0978
 3018WAT     H1 9265   3.495   2.846   4.467 -1.5191  2.0921 -0.5008
 3018WAT     H2 9266   3.616   2.921   4.518 -0.8901  1.6263 -1.2825
 3019WAT      O 9267   3.297   4.190   5.188  0.4713 -0.0066 -0.2362
 3019WAT     H1 9268   3.314   4.273   5.145  2.2971 -0.3382 -0.2694
 3019WAT     H2 9269   3.301   4.125   5.118 -0.5066 -0.1781 -0.1445
 3020WAT      O 9270   3.394   4.085   3.166 -0.0056  0.2227  0.3375
 3020WAT     H1 9271   3.344   4.123   3.238  0.9317  1.3923  0.3916
 3020WAT     H2 9272   3.417   4.160   3.111 -1.1490 -0.6950 -1.4758
 3021WAT      O 9273   1.321   5.003   5.176 -0.2914  0.1362 -0.2940
 3021WAT     H1 9274   1.274   4.977   5.256  0.6110 -0.5786  0.0164
 3021WAT     H2 9275   1.265   4.972   5.105 -0.0104 -1.2581  0.0752
 3022WAT      O 9276   4.453   3.732   1.234  0.1376 -0.4513 -0.2774
 3022WAT     H1 9277   4.434   3.725   1.140  1.0999 -1.5373 -0.4130
 3022WAT     H2 9278   4.367   3.732   1.276 -0.2965 -0.2904 -1.1351
 3023WAT      O 9279   0.392   3.948   5.087  0.4022 -0.1887 -0.0666
 3023WAT     H1 9280   0.336   3.956   5.164  1.1683 -1.5125  0.6874
 3023WAT     H2 9281   0.420   4.037   5.068 -2.3602  0.6131 -0.8407
 3024WAT      O 9282   4.102   5.028   2.962 -0.2196 -0.1639 -0.2420
 3024WAT     H1 9283   4.079   4.963   3.029 -0.1826 -1.0303 -1.0354
 3024WAT     H2 9284   4.168   5.083   3.004 -0.0622 -0.8012  0.3740
 3025WAT      O 9285   0.485   0.943   3.048  0.2224  0.2943  0.4318
 3025WAT     H1 9286   0.401   0.904   3.069  0.9791 -0.5794  2.0322
 3025WAT     H2 9287   0.508   0.994   3.126 -0.1212  2.9728 -1.0805
 3026WAT      O 9288   1.574   4.868   1.994 -0.4486  0.0631 -0.0373
 3026WAT     H1 9289   1.659   4.853   1.952 -0.6404 -0.8442 -0.1179
 3026WAT     H2 9290   1.558   4.961   1.982  1.7521  0.8576  2.2435
 3027WAT      O 9291   0.046   2.187   2.140  0.2978  0.3661  0.1597
 3027WAT     H1 9292  -0.043   2.208   2.168  0.0866 -0.0296 -0.1983
 3027WAT     H2 9293   0.071   2.111   2.193  0.2229  0.1543 -0.1043
 3028WAT      O 9294   1.640   1.531   2.226  0.1546  0.0187  0.0144
 3028WAT     H1 9295   1.674   1.453   2.183 -1.2222 -1.3153  1.2036
 3028WAT     H2 9296   1.547   1.512   2.240  0.0744  1.2948  1.5462
 3029WAT      O 9297   4.369   2.416   3.801 -0.8775 -0.5757  0.0991
 3029WAT     H1 9298   4.405   2.332   3.773  1.2266  0.1450  0.4749
 3029WAT     H2 9299   4.444   2.465   3.833 -2.0414  1.5047 -0.1780
 3030WAT      O 9300   1.805   2.013   0.124  0.0293  0.9922  0.2282
 3030WAT     H1 9301   1.841   2.085   0.072  1.6793  1.4896  1.9162
 3030WAT     H2 9302   1.841   1.934   0.085  0.1274  1.2555 -0.2192
 3031WAT      O 9303   1.422   5.040   1.833  0.3983  0.0641  0.3715
 3031WAT     H1 9304   1.402   5.098   1.759  1.9337  0.0533 -0.1018
 3031WAT     H2 9305   1.342   4.989   1.845 -0.3574  1.0055 -0.3945
 3032WAT      O 9306   3.543   3.893   0.608 -0.1428  0.5326 -0.0823
 3032WAT     H1 9307   3.600   3.826   0.646 -1.6101 -1.4651 -1.2198
 3032WAT     H2 9308   3.479   3.912   0.676 -0.0951  0.2914  0.0313
 3033WAT      O 9309   2.992   2.377   4.244  0.0057  0.5091 -0.4616
 3033WAT     H1 9310   2.964   2.306   4.302  0.8041 -0.1728 -0.8937
 3033WAT     H2 9311   2.950   2.455   4.280 -1.7757 -0.3311 -0.6093
 3034WAT      O 9312   2.374   5.103   2.108  0.1910  0.3709  0.7245
 3034WAT     H1 9313   2.305   5.156   2.068  1.7337  1.0197 -1.2374
 3034WAT     H2 9314   2.381   5.027   2.051  1.2852  0.4616  0.7254
 3035WAT      O 9315   1.986   0.415   1.880  0.0805  0.3398 -0.1274
 3035WAT     H1 9316   1.972   0.322   1.862 -1.2915  0.5973 -0.5437
 3035WAT     H2 9317   1.928   0.460   1.818 -1.7294  1.3799  2.1743
 3036WAT      O 9318   0.296   2.401   4.373 -0.8689 -0.0391  0.1042
 3036WAT     H1 9319   0.307   2.457   4.296 -0.3850 -2.0393 -1.3601
 3036WAT     H2 9320   0.240   2.452   4.431  0.6570  2.5488 -0.4819
 3037WAT      O 9321   4.395   2.370   5.183  0.1047  0.6862  0.1550
 3037WAT     H1 9322   4.301   2.355   5.189  0.1229  0.7100  0.5753
 3037WAT     H2 9323   4.419   2.405   5.269  0.6735 -0.3213  0.4213
 3038WAT      O 9324   3.250   4.157   1.298 -0.5564  0.1033  0.6631
 3038WAT     H1 9325   3.202   4.236   1.272  0.0936  0.3595  0.2361
 3038WAT     H2 9326   3.301   4.184   1.374  0.0761  0.2428  0.1938
 3039WAT      O 9327   2.737   0.614   0.161 -0.5343  0.1745  0.0729
 3039WAT     H1 9328   2.671   0.557   0.198  0.2678 -2.3745 -2.0791
 3039WAT     H2 9329   2.813   0.604   0.219 -0.1540 -1.6619 -0.6671
 3040WAT      O 9330   0.815   1.336   4.702  0.3686  0.2220 -0.0225
 3040WAT     H1 9331   0.871   1.259   4.713 -0.8875 -0.5759  1.0648
 3040WAT     H2 9332   0.741   1.320   4.760 -0.9299  1.3038 -1.3096
 3041WAT      O 9333   0.004   4.618   3.733 -0.0519 -0.1531  0.3152
 3041WAT     H1 9334  -0.001   4.713   3.722 -0.5370 -0.2167 -0.0398
 3041WAT     H2 9335   0.011   4.605   3.828 -0.4753  0.2200  0.3990
 3042WAT      O 9336   0.368   4.009   3.249  0.0658  0.3675 -0.5037
 3042WAT     H1 9337   0.435   3.979   3.310 -0.5482  0.8935  0.4806
 3042WAT     H2 9338   0.325   4.081   3.296 -0.5715  0.6417 -1.4844
 3043WAT      O 9339   0.464   1.033   0.704 -0.2481  0.4066  0.1922
 3043WAT     H1 9340   0.429   1.117   0.672 -0.4504  0.2717  0.0561
 3043WAT     H2 9341   0.404   0.968   0.670 -0.2380  0.2245  0.5153
 3044WAT      O 9342   3.164   3.031   2.618 -0.4768 -0.1151 -0.1389
 3044WAT     H1 9343   3.226   3.066   2.682  0.8228  1.8801 -2.3245
 3044WAT     H2 9344   3.079   3.033   2.662  0.4631  0.3918  1.7554
 3045WAT      O 9345   2.655   3.715   3.976  0.0511  0.4998  0.5928
 3045WAT     H1 9346   2.736   3.743   4.020 -0.6104  1.8435  1.0225
 3045WAT     H2 9347   2.594   3.697   4.048  0.2866 -1.6873  0.3144
 3046WAT      O 9348   4.486   0.525   2.810 -0.1713 -0.4200 -0.6399
 3046WAT     H1 9349   4.537   0.575   2.874 -1.2473 -0.0425 -0.0587
 3046WAT     H2 9350   4.458   0.589   2.745 -0.9525 -0.3773 -0.2773
 3047WAT      O 9351   2.705   4.558   2.714  0.3694 -0.0050 -0.2466
 3047WAT     H1 9352   2.715   4.485   2.654 -1.5644  0.2428 -0.9582
 3047WAT     H2 9353   2.786   4.608   2.705  1.5057 -1.7356 -0.1384
 3048WAT      O 9354   0.062   4.247   2.551 -0.3022  0.8584 -0.2874
 3048WAT     H1 9355   0.001   4.311   2.516 -2.1324 -1.3188 -1.3583
 3048WAT     H2 9356   0.094   4.200   2.474 -1.1827 -1.2976  0.5852
 3049WAT      O 9357   0.277   2.821   0.896  0.3370 -0.0640  0.6988
 3049WAT     H1 9358   0.183   2.840   0.895  0.4213  0.3501 -0.0921
 3049WAT     H2 9359   0.319   2.907   0.893  0.7434 -0.2408  1.2335
 3050WAT      O 9360   1.244   4.587   4.771 -0.1470 -0.5055  0.6175
 3050WAT     H1 9361   1.193   4.650   4.823 -2.3132 -2.3684  0.9374
 3050WAT     H2 9362   1.181   4.518   4.750  2.3211 -3.1094  1.2064
 3051WAT      O 9363   1.442   0.415   0.527 -0.1709 -0.3601 -0.2687
 3051WAT     H1 9364   1.481   0.358   0.460 -1.2371 -0.6646 -0.6481
 3051WAT     H2 9365   1.517   0.446   0.578  0.8221  0.9225 -2.3769
 3052WAT      O 9366   0.720   2.520   3.498  0.0580  0.0716  0.4973
 3052WAT     H1 9367   0.802   2.550   3.458 -1.4435  1.0805 -2.0304
 3052WAT     H2 9368   0.737   2.429   3.522  1.8541  0.1964 -0.1668
 3053WAT      O 9369   3.514   0.086   2.312 -0.0546 -0.4975  0.0187
 3053WAT     H1 9370   3.461   0.014   2.347  0.9533 -0.6286  1.3268
 3053WAT     H2 9371   3.454   0.132   2.253 -2.4380  0.7378  3.0943
 3054WAT      O 9372   3.277   4.705   4.938  0.3711 -0.1937  0.1177
 3054WAT     H1 9373   3.371   4.721   4.945  0.1936  2.0097 -1.5739
 3054WAT     H2 9374   3.240   4.743   5.018  0.6235  2.3755 -0.9028
 3055WAT      O 9375   1.059   1.025   1.050 -0.3065 -0.2704 -0.1274
 3055WAT     H1 9376   1.138   1.029   0.996  1.1336  2.5884  1.9436
 3055WAT     H2 9377   1.071   0.948   1.104  1.0204  0.0004  0.0069
 3056WAT      O 9378   0.242   1.947   2.539  0.0522  0.2882 -0.1809
 3056WAT     H1 9379   0.235   1.888   2.615  1.0331  0.1124 -0.2078
 3056WAT     H2 9380   0.313   2.007   2.563  0.0791  0.4991 -0.7876
 3057WAT      O 9381   0.331   1.367   3.086 -0.4076 -0.1803  0.4155
 3057WAT     H1 9382   0.250   1.399   3.125 -1.0709 -0.5931 -0.5920
 3057WAT     H2 9383   0.360   1.297   3.144 -0.9127 -0.2161  0.6261
 3058WAT      O 9384   4.279   3.079   2.576  0.2694 -0.2638 -0.1161
 3058WAT     H1 9385   4.337   3.115   2.509  2.9483 -2.6160  0.7536
 3058WAT     H2 9386   4.275   3.147   2.643  2.4077 -0.1486 -0.0428
 3059WAT      O 9387   2.247   4.283   4.354 -0.0656 -0.0973  0.1342
 3059WAT     H1 9388   2.217   4.270   4.264 -0.3072 -0.8760  0.3221
 3059WAT     H2 9389   2.342   4.272   4.349 -0.0048  0.5257 -0.1380
 3060WAT      O 9390   0.253   4.531   4.621  0.0274 -0.2942 -0.4991
 3060WAT     H1 9391   0.325   4.588   4.648  0.4737 -0.4417 -1.3238
 3060WAT     H2 9392   0.223   4.491   4.703  1.8169 -1.2910 -0.2599
 3061WAT      O 9393   3.288   1.102   4.250  0.0203  0.5061  0.5898
 3061WAT     H1 9394   3.371   1.110   4.298  0.0579  2.3989  0.2842
 3061WAT     H2 9395   3.243   1.029   4.293  0.7673  1.0495  2.4014
 3062WAT      O 9396   3.989   4.032   1.753  0.1915  0.4534  0.7225
 3062WAT     H1 9397   3.979   4.126   1.766  0.5523  0.5800  0.1425
 3062WAT     H2 9398   4.037   4.025   1.671 -1.6158 -0.2688 -0.3447
 3063WAT      O 9399   4.060   4.844   3.518  0.0359  0.1602 -0.2569
 3063WAT     H1 9400   4.057   4.805   3.605 -1.3484  0.8668  0.0479
 3063WAT     H2 9401   4.113   4.784   3.466 -0.3209 -1.0286  0.7099
 3064WAT      O 9402   0.350   4.492   3.580  0.2828 -0.1286 -0.7710
 3064WAT     H1 9403   0.330   4.568   3.525 -0.2930 -0.6629 -1.3159
 3064WAT     H2 9404   0.269   4.475   3.628  0.2747 -0.6405 -0.9566
 3065WAT      O 9405   1.811   0.565   4.833  0.1427  0.1898 -0.3936
 3065WAT     H1 9406   1.904   0.576   4.814  1.0066  0.0888  3.0895
 3065WAT     H2 9407   1.791   0.477   4.803  2.0341 -0.9469  1.3785
 3066WAT      O 9408   4.118   2.478   1.102  0.0843 -0.1974 -0.1806
 3066WAT     H1 9409   4.079   2.458   1.187 -0.9058 -1.6066 -0.9415
 3066WAT     H2 9410   4.179   2.406   1.086  0.9039  0.5059 -0.3039
 3067WAT      O 9411   0.150   1.758   0.195  0.2386  0.4175  0.5368
 3067WAT     H1 9412   0.227   1.784   0.246  2.3261 -2.1919 -0.9777
 3067WAT     H2 9413   0.075   1.791   0.245  2.2885  3.2440  2.0093
 3068WAT      O 9414   2.709   4.002   2.846 -0.4831 -0.7738 -0.1850
 3068WAT     H1 9415   2.725   4.092   2.874  0.3243 -0.7481 -0.7172
 3068WAT     H2 9416   2.625   3.979   2.887 -0.5011  0.0790  0.2749
 3069WAT      O 9417   0.627   3.075   2.231  0.1078 -0.2358 -0.3285
 3069WAT     H1 9418   0.534   3.076   2.209 -0.0054 -0.3456  0.1231
 3069WAT     H2 9419   0.631   3.114   2.319  0.8150  2.5466 -1.4821
 3070WAT      O 9420   3.423   2.644   0.991  0.1168 -0.2175  0.2867
 3070WAT     H1 9421   3.500   2.652   0.935 -0.1085  0.6320  0.0909
 3070WAT     H2 9422   3.358   2.702   0.951 -0.7205 -1.1140  0.2943
 3071WAT      O 9423   0.654   5.085   0.149  0.2968  0.2712 -0.1222
 3071WAT     H1 9424   0.631   5.112   0.238 -0.6723 -0.2059 -0.2154
 3071WAT     H2 9425   0.650   4.990   0.152  4.1710 -0.0322  0.3405
 3072WAT      O 9426   2.377   0.548   2.131  0.1097 -0.0484 -0.1787
 3072WAT     H1 9427   2.418   0.478   2.079 -0.5348 -0.1013 -0.6315
 3072WAT     H2 9428   2.300   0.574   2.080  0.2510  0.8906  0.0569
 3073WAT      O 9429   2.907   5.083   4.109  0.4717  0.3444  0.2583
 3073WAT     H1 9430   2.816   5.114   4.113  0.1523 -0.4766 -0.3627
 3073WAT     H2 9431   2.936   5.107   4.021  0.3482 -0.7392 -0.0910
 3074WAT      O 9432   1.307   2.486   5.135  0.0003 -0.0347  0.3211
 3074WAT     H1 9433   1.330   2.394   5.120 -0.7604 -0.2709  0.5665
 3074WAT     H2 9434   1.390   2.527   5.161  0.2249 -0.7723  0.8100
 3075WAT      O 9435   0.565   1.716   3.854 -0.3688 -0.1402  0.2458
 3075WAT     H1 9436   0.613   1.782   3.905 -2.0624  0.9404  0.4965
 3075WAT     H2 9437   0.534   1.763   3.777 -1.1285 -0.7797  0.1551
 3076WAT      O 9438   1.307   2.123   1.160 -0.1129 -0.0261 -0.1763
 3076WAT     H1 9439   1.399   2.099   1.160  0.6026  2.1810  2.7668
 3076WAT     H2 9440   1.287   2.142   1.068  2.5038 -0.0284 -0.8246
 3077WAT      O 9441   2.712   0.711   1.787 -0.1789 -0.2811  0.1491
 3077WAT     H1 9442   2.681   0.645   1.848  1.1276 -0.9099  0.1746
 3077WAT     H2 9443   2.727   0.663   1.705 -0.6700  0.2919 -0.2860
 3078WAT      O 9444   0.519   4.042   1.278 -0.6235 -0.3034 -0.3457
 3078WAT     H1 9445   0.520   3.967   1.219  0.3745 -0.0273 -0.7128
 3078WAT     H2 9446   0.455   4.102   1.241 -0.5977 -0.4877 -0.6880
 3079WAT      O 9447   4.233   1.482   0.373  0.0671  0.1473  0.1974
 3079WAT     H1 9448   4.286   1.560   0.358 -1.7797  1.3370 -0.4789
 3079WAT     H2 9449   4.277   1.413   0.325  0.3321  1.3987 -1.4380
 3080WAT      O 9450   0.074   3.933   1.967  0.5308  0.2309 -0.4771
 3080WAT     H1 9451   0.125   4.014   1.964  1.0817 -0.0313  0.8127
 3080WAT     H2 9452   0.080   3.896   1.879 -2.6654  3.2952 -2.2236
 3081WAT      O 9453   1.478   2.657   2.957  0.1395 -0.0219 -0.2079
 3081WAT     H1 9454   1.533   2.582   2.980 -0.5668 -0.6859 -0.6782
 3081WAT     H2 9455   1.400   2.619   2.918 -0.5587  0.9260  0.2308
 3082WAT      O 9456   1.529   4.828   2.625  0.3010  0.2967  0.2497
 3082WAT     H1 9457   1.518   4.918   2.655  0.2486  0.7543 -1.0876
 3082WAT     H2 9458   1.591   4.790   2.687 -0.9685  0.7170  1.8434
 3083WAT      O 9459   3.508   3.423   1.898  0.1635  0.1537  0.0186
 3083WAT     H1 9460   3.550   3.337   1.895 -0.4253 -0.2843  2.3672
 3083WAT     H2 9461   3.566   3.477   1.951  0.4681  1.2181 -1.3424
 3084WAT      O 9462   4.091   4.640   2.609  0.4537 -0.2333 -0.6089
 3084WAT     H1 9463   4.126   4.558   2.642  0.2279 -0.0833  0.0070
 3084WAT     H2 9464   4.166   4.685   2.571  0.5389 -0.8179 -1.1503
 3085WAT      O 9465   1.959   5.100   1.495  0.7598 -0.2981  0.3026
 3085WAT     H1 9466   1.920   5.179   1.532 -0.3002 -1.3727  1.6131
 3085WAT     H2 9467   1.902   5.077   1.422  0.2294 -0.6033  0.7987
 3086WAT      O 9468   0.552   1.463   4.960  0.0449  0.2627  0.1537
 3086WAT     H1 9469   0.507   1.529   5.013 -1.3268  0.0540 -0.6962
 3086WAT     H2 9470   0.532   1.380   5.003 -1.2797  0.0661 -0.7644
 3087WAT      O 9471   3.043   1.027   1.461 -0.1135 -0.0069  0.4223
 3087WAT     H1 9472   3.013   0.954   1.516 -2.8996  2.8699  3.1145
 3087WAT     H2 9473   3.138   1.026   1.471 -0.3425 -0.6406  4.2547
 3088WAT      O 9474   1.751   2.608   0.248 -0.4634  0.3776  0.5236
 3088WAT     H1 9475   1.660   2.593   0.223 -0.6241  1.2706  0.5539
 3088WAT     H2 9476   1.799   2.534   0.210 -0.8963  0.9717 -1.2688
 3089WAT      O 9477   4.061   2.033   4.976 -0.1466  0.3127 -0.7439
 3089WAT     H1 9478   4.155   2.030   4.992  0.2148  0.7241 -2.5854
 3089WAT     H2 9479   4.024   1.976   5.043  1.4140  0.1387  0.0121
 3090WAT      O 9480   2.660   2.083   4.925  0.3068 -0.5838 -0.8076
 3090WAT     H1 9481   2.737   2.090   4.868  2.0819  2.4356  1.6550
 3090WAT     H2 9482   2.695   2.086   5.014 -2.6015  0.7116  0.4506
 3091WAT      O 9483   0.095   3.278   1.205  0.1851 -0.2635  0.3276
 3091WAT     H1 9484   0.027   3.259   1.141  0.3650  0.0816  0.0331
 3091WAT     H2 9485   0.099   3.373   1.210 -1.8117 -0.1989  2.9639
 3092WAT      O 9486   3.566   2.912   2.392  0.1597 -0.3515  0.1982
 3092WAT     H1 9487   3.546   2.861   2.314 -1.1025 -0.0718  0.3231
 3092WAT     H2 9488   3.485   2.911   2.443  0.5318  0.6541  0.8334
 3093WAT      O 9489   0.412   2.754   2.542 -1.0714 -0.3979  0.5256
 3093WAT     H1 9490   0.406   2.721   2.452 -0.0163 -2.0686  1.0082
 3093WAT     H2 9491   0.370   2.839   2.540  1.7500  1.1242 -2.2992
 3094WAT      O 9492   1.400   3.015   0.736 -0.1697 -0.4797  0.6340
 3094WAT     H1 9493   1.486   2.980   0.760  0.9483  1.1109 -0.7982
 3094WAT     H2 9494   1.399   3.011   0.641 -1.4391  0.1153  0.6082
 3095WAT      O 9495   0.186   1.022   5.127  0.2846  0.0080  0.1680
 3095WAT     H1 9496   0.232   0.940   5.144  0.6939  0.1044 -0.4661
 3095WAT     H2 9497   0.099   0.995   5.097  1.1383 -0.2694 -2.2373
 3096WAT      O 9498   1.882   3.155   5.081 -0.0167 -0.3980  0.1201
 3096WAT     H1 9499   1.860   3.209   5.157  1.7019  0.1518  0.2579
 3096WAT     H2 9500   1.898   3.068   5.117 -1.1775 -0.6318  0.1066
 3097WAT      O 9501   4.346   5.060   4.115 -0.1611  0.2969  0.0384
 3097WAT     H1 9502   4.348   5.063   4.211 -2.3685  0.8742  0.1180
 3097WAT     H2 9503   4.261   5.097   4.091 -0.2576 -1.0921 -2.0903
 3098WAT      O 9504   2.741   2.220   0.161 -0.3889  0.2680 -0.6609
 3098WAT     H1 9505   2.728   2.286   0.093  1.3809 -0.5046 -1.8427
 3098WAT     H2 9506   2.659   2.220   0.211 -0.2199  3.8575 -0.0901
 3099WAT      O 9507   1.925   3.369   2.667  0.5123 -0.1055  0.5120
 3099WAT     H1 9508   1.988   3.388   2.597  0.0744 -1.3709 -0.2591
 3099WAT     H2 9509   1.849   3.422   2.646  0.9663  0.7156  0.9189
 3100WAT      O 9510   0.022   4.576   3.091  0.1903 -0.1057  0.2274
 3100WAT     H1 9511   0.023   4.514   3.018 -0.2755  0.2465 -0.0798
 3100WAT     H2 9512   0.017   4.662   3.050 -0.1464  0.0964  0.6778
 3101WAT      O 9513   2.436   2.826   0.218  0.1920 -0.8372 -0.1154
 3101WAT     H1 9514   2.412   2.884   0.146  1.1022 -1.0235 -0.5739
 3101WAT     H2 9515   2.358   2.772   0.231  0.3317 -1.4485 -1.6091
 3102WAT      O 9516   3.172   4.720   1.265 -0.0235 -0.6061  0.2025
 3102WAT     H1 9517   3.159   4.628   1.240 -2.0918 -1.0766  2.5536
 3102WAT     H2 9518   3.266   4.727   1.282  0.2360 -2.1859 -0.4392
 3103WAT      O 9519   1.020   3.817   0.978  0.3428  0.0384 -0.1770
 3103WAT     H1 9520   0.961   3.742   0.971  2.9950 -2.3984  1.4013
 3103WAT     H2 9521   1.010   3.847   1.069  0.3647  0.6664 -0.3785
 3104WAT      O 9522   0.560   1.393   2.292  0.2358 -0.0462 -0.2080
 3104WAT     H1 9523   0.600   1.461   2.238  1.9933 -1.2904 -0.5369
 3104WAT     H2 9524   0.615   1.387   2.370  0.6499 -1.6707 -0.5811
 3105WAT      O 9525   3.896   2.196   2.172  0.1058  0.1479 -0.5425
 3105WAT     H1 9526   3.932   2.239   2.249  1.1024 -0.6093 -0.5688
 3105WAT     H2 9527   3.838   2.129   2.207 -1.4362  1.4479 -0.5018
 3106WAT      O 9528   3.066   2.789   0.591 -1.1888  0.1889  0.1565
 3106WAT     H1 9529   3.008   2.845   0.540 -1.6775  0.1668  0.6807
 3106WAT     H2 9530   3.037   2.700   0.570 -0.7945  0.1433 -0.2221
 3107WAT      O 9531   3.625   4.434   4.015  0.5337  0.5529  0.3735
 3107WAT     H1 9532   3.676   4.443   3.935  1.3232  0.0984  0.8220
 3107WAT     H2 9533   3.670   4.488   4.080 -0.5639  1.5798  0.3056
 3108WAT      O 9534   1.149   3.723   0.355  0.2189  0.3005 -0.2087
 3108WAT     H1 9535   1.150   3.817   0.339 -1.3435  0.2334 -0.8391
 3108WAT     H2 9536   1.236   3.704   0.389  0.6953  1.9028 -0.4509
 3109WAT      O 9537   3.364   3.876   4.141 -0.2087 -0.6116  0.4442
 3109WAT     H1 9538   3.321   3.876   4.226 -0.5212  0.7638  0.2957
 3109WAT     H2 9539   3.458   3.881   4.162 -0.3478  1.8350  0.7181
 3110WAT      O 9540   1.916   0.488   2.724  0.9494  0.2089 -0.3695
 3110WAT     H1 9541   1.866   0.549   2.670  2.4586  1.6803 -0.2140
 3110WAT     H2 9542   1.913   0.527   2.812  3.0038  0.8282 -0.5192
 3111WAT      O 9543   4.422   1.156   1.670 -0.6398  0.2689  0.2845
 3111WAT     H1 9544   4.417   1.061   1.662  2.4073 -0.1018  1.4561
 3111WAT     H2 9545   4.499   1.180   1.617 -0.3097  1.8424  1.4108
 3112WAT      O 9546   2.902   3.763   3.610 -0.3836  0.7308 -0.5173
 3112WAT     H1 9547   2.874   3.685   3.562  1.6299 -0.0997 -0.4569
 3112WAT     H2 9548   2.952   3.814   3.547  1.0533  0.3489  0.2625
 3113WAT      O 9549   2.757   1.384   3.974  0.1185 -0.3163  0.1866
 3113WAT     H1 9550   2.783   1.384   3.882 -0.5598 -0.1129 -0.0073
 3113WAT     H2 9551   2.834   1.416   4.021  0.6972 -1.0390 -0.2389
 3114WAT      O 9552   2.483   0.550   3.850 -0.1293  0.4710  0.1625
 3114WAT     H1 9553   2.445   0.465   3.874 -0.4123  0.9078  1.2812
 3114WAT     H2 9554   2.535   0.575   3.925  3.3216 -0.5618 -1.6513
 3115WAT      O 9555   0.262   0.688   3.103  0.3439 -0.3074 -0.3671
 3115WAT     H1 9556   0.317   0.615   3.075 -0.1977 -0.6130 -0.6477
 3115WAT     H2 9557   0.207   0.651   3.172  3.8488  1.1631  3.6781
 3116WAT      O 9558   0.442   1.603   1.622  0.1778  0.3872  0.1025
 3116WAT     H1 9559   0.450   1.521   1.573  1.7295  0.3991  0.2748
 3116WAT     H2 9560   0.367   1.590   1.679 -0.0250 -0.6501 -0.3834
 3117WAT      O 9561   4.398   2.067   0.725 -0.3948  0.6942  0.2521
 3117WAT     H1 9562   4.334   2.121   0.680 -1.2093  0.3812  0.9915
 3117WAT     H2 9563   4.352   2.035   0.803  0.9861  1.3064  1.3675
 3118WAT      O 9564   1.983   2.414   3.231  0.0601 -0.1241 -0.2403
 3118WAT     H1 9565   2.056   2.390   3.173  0.9371  0.2381  0.6800
 3118WAT     H2 9566   1.913   2.441   3.172  0.4551 -1.0648 -1.1690
 3119WAT      O 9567   1.885   4.540   2.419  0.4172 -0.4517  0.2724
 3119WAT     H1 9568   1.913   4.564   2.331 -1.4721  0.0206 -0.2599
 3119WAT     H2 9569   1.829   4.613   2.447  0.8000 -0.7000  1.7798
 3120WAT      O 9570   2.644   0.606   3.311  0.0273 -0.1262 -0.0072
 3120WAT     H1 9571   2.589   0.589   3.388  0.8494 -0.0044  0.6117
 3120WAT     H2 9572   2.691   0.524   3.297 -1.1338 -0.6318 -1.2494
 3121WAT      O 9573   3.686   2.184   4.744  0.1378 -0.3269 -0.0581
 3121WAT     H1 9574   3.593   2.166   4.756  0.5597 -1.5566  1.8359
 3121WAT     H2 9575   3.698   2.188   4.649 -1.8437 -0.0179 -0.3374
 3122WAT      O 9576   1.407   2.804   4.395  0.2150  0.2451  0.0007
 3122WAT     H1 9577   1.384   2.800   4.302 -0.8449  0.2579  0.2465
 3122WAT     H2 9578   1.457   2.885   4.404  2.6451 -1.0603 -1.0156
 3123WAT      O 9579   3.141   4.828   3.195  0.2955 -0.1745 -0.1462
 3123WAT     H1 9580   3.237   4.826   3.196  0.3095 -0.5977  2.1498
 3123WAT     H2 9581   3.117   4.753   3.140  1.2915 -0.6902  0.0899
 3124WAT      O 9582   1.896   0.567   1.323 -0.1235 -0.2412 -0.1646
 3124WAT     H1 9583   1.865   0.478   1.342 -0.3528  0.1286  1.2676
 3124WAT     H2 9584   1.831   0.624   1.363 -0.3289  0.6035 -1.6422
 3125WAT      O 9585   2.119   3.365   3.100 -0.3742 -0.1043  0.1444
 3125WAT     H1 9586   2.107   3.350   3.006 -1.1363 -0.4950  0.2927
 3125WAT     H2 9587   2.105   3.278   3.140 -0.3709  0.1179  0.6417
 3126WAT      O 9588   3.728   4.373   3.187 -0.0370 -0.0556 -0.4476
 3126WAT     H1 9589   3.740   4.312   3.114 -1.0323 -2.2919  1.1669
 3126WAT     H2 9590   3.816   4.383   3.224  0.2944  0.3011 -1.2891
 3127WAT      O 9591   0.234   0.318   2.809 -0.3599 -0.5463 -0.0666
 3127WAT     H1 9592   0.281   0.401   2.800 -0.0837 -0.4454  1.8685
 3127WAT     H2 9593   0.152   0.332   2.761 -0.1491  0.6960 -0.1020
 3128WAT      O 9594   3.985   2.678   3.449 -0.1950 -0.0178  0.2331
 3128WAT     H1 9595   3.926   2.726   3.507  1.1138  0.8307  0.8967
 3128WAT     H2 9596   4.005   2.597   3.497  1.6135  1.0880  1.4510
 3129WAT      O 9597   3.304   1.059   4.706  0.2630  0.3526  0.1382
 3129WAT     H1 9598   3.369   1.050   4.777 -0.7251 -0.8213  0.9389
 3129WAT     H2 9599   3.357   1.058   4.626  1.2150 -1.5078  0.7214
 3130WAT      O 9600   3.013   3.466   4.097 -0.0293  0.2601 -0.3249
 3130WAT     H1 9601   3.015   3.497   4.006  0.1106 -0.6792 -0.6616
 3130WAT     H2 9602   2.966   3.534   4.145  0.3156  1.0018 -1.0086
 3131WAT      O 9603   3.958   0.015   0.315  0.1278  0.4798 -0.2887
 3131WAT     H1 9604   3.999  -0.046   0.376  1.3331  0.8462 -0.7046
 3131WAT     H2 9605   3.924  -0.041   0.245  0.3681  0.2092 -0.1926
 3132WAT      O 9606   2.117   1.266   1.464  0.3755  0.4504 -0.4538
 3132WAT     H1 9607   2.201   1.230   1.436 -0.3009 -0.9450 -0.7374
 3132WAT     H2 9608   2.106   1.344   1.410  1.7617  1.0214  0.0298
 3133WAT      O 9609   1.197   4.657   0.786 -0.7893  0.2039  0.1427
 3133WAT     H1 9610   1.201   4.728   0.850  1.4685 -0.2060  0.5686
 3133WAT     H2 9611   1.154   4.585   0.831 -2.4226  1.0311 -0.0452
 3134WAT      O 9612   4.227   1.978   0.452  0.4661 -0.5795 -0.3738
 3134WAT     H1 9613   4.257   1.899   0.407  0.4886 -0.2994 -0.8632
 3134WAT     H2 9614   4.233   2.046   0.385  0.6776 -0.1169  0.1170
 3135WAT      O 9615   2.632   4.800   4.065 -0.0732  0.7517 -0.7114
 3135WAT     H1 9616   2.661   4.871   4.007  1.9876  0.7093  0.1664
 3135WAT     H2 9617   2.710   4.745   4.076 -1.2178 -0.8288 -0.1713
 3136WAT      O 9618   1.442   4.447   0.485 -0.2124  0.0534  0.5015
 3136WAT     H1 9619   1.379   4.448   0.413  0.0195  0.7670  0.2978
 3136WAT     H2 9620   1.527   4.461   0.443 -0.1608  1.3326  0.9775
 3137WAT      O 9621   4.287   1.191   2.937  0.2955 -0.3031 -0.1202
 3137WAT     H1 9622   4.264   1.216   2.848 -1.1219  2.2314  0.8810
 3137WAT     H2 9623   4.208   1.152   2.973 -0.7257  2.8184  1.3689
 3138WAT      O 9624   3.094   1.427   4.012  0.1875  0.1434  0.3647
 3138WAT     H1 9625   3.160   1.363   3.986  0.5229 -0.4636  2.5194
 3138WAT     H2 9626   3.140   1.511   4.011 -0.1052  0.3433 -1.9184
 3139WAT      O 9627   0.977   0.237   4.397  0.0837  0.9443 -0.2586
 3139WAT     H1 9628   1.041   0.298   4.433  1.1089  0.3524 -1.0056
 3139WAT     H2 9629   1.025   0.154   4.390 -1.2039  0.0866  0.5428
 3140WAT      O 9630   3.409   0.870   0.405 -0.2437 -0.0393 -0.0555
 3140WAT     H1 9631   3.465   0.792   0.406 -1.3415 -0.8784 -1.1320
 3140WAT     H2 9632   3.454   0.932   0.463  0.2957 -1.7046  1.3971
 3141WAT      O 9633   4.427   3.798   0.079  0.2028 -0.5972  0.6364
 3141WAT     H1 9634   4.503   3.758   0.037  0.2705 -0.0957  0.2795
 3141WAT     H2 9635   4.368   3.725   0.096 -0.4884 -0.6374 -1.6944
 3142WAT      O 9636   2.157   4.821   0.954 -0.3559 -0.1629  0.1200
 3142WAT     H1 9637   2.169   4.727   0.940  0.4321  0.1879 -1.9516
 3142WAT     H2 9638   2.067   4.838   0.928 -0.2833 -0.2433 -0.1912
 3143WAT      O 9639   1.482   1.764   2.723  0.5571  0.4141 -0.0144
 3143WAT     H1 9640   1.498   1.673   2.698 -1.2748 -0.0900  0.4520
 3143WAT     H2 9641   1.474   1.762   2.819  0.6102  1.0870  0.0120
 3144WAT      O 9642   1.295   4.344   4.959  0.0274 -0.3790  0.7212
 3144WAT     H1 9643   1.221   4.401   4.979 -0.0849 -0.4784  0.5865
 3144WAT     H2 9644   1.370   4.404   4.954  0.2884 -0.4853  2.6123
 3145WAT      O 9645   0.088   1.524   4.672 -0.0130 -0.2026  0.0146
 3145WAT     H1 9646   0.172   1.570   4.667  0.2167 -0.5156  0.8511
 3145WAT     H2 9647   0.026   1.583   4.629  0.4278  0.5287  0.3661
 3146WAT      O 9648   2.002   4.081   0.966 -0.2352  0.0539  0.3963
 3146WAT     H1 9649   1.956   4.022   0.907  2.1769 -1.6165  0.0917
 3146WAT     H2 9650   1.996   4.039   1.052  0.5410 -0.0845  0.3883
 3147WAT      O 9651   2.495   2.797   4.973 -0.0304  0.3495 -0.6164
 3147WAT     H1 9652   2.579   2.754   4.956  1.4122  1.6937  2.2840
 3147WAT     H2 9653   2.490   2.867   4.908  0.3976 -0.5730 -1.6778
 3148WAT      O 9654   0.257   0.580   1.841 -0.3843 -0.4265 -0.7111
 3148WAT     H1 9655   0.344   0.598   1.878 -0.2971 -2.4907  0.1890
 3148WAT     H2 9656   0.229   0.665   1.806  1.3726  0.6239  0.2535
 3149WAT      O 9657   4.518   0.054   2.263  0.4740 -0.5855  0.0330
 3149WAT     H1 9658   4.555  -0.033   2.274 -0.2972 -0.9266  0.0294
 3149WAT     H2 9659   4.583   0.113   2.301  0.7742 -1.2021  0.5008
 3150WAT      O 9660   2.042   1.657   2.887  0.6093 -0.1913 -0.0226
 3150WAT     H1 9661   2.012   1.603   2.815  3.6637 -0.5373 -1.1963
 3150WAT     H2 9662   1.990   1.738   2.880 -0.1037 -0.7511 -1.7471
 3151WAT      O 9663   1.378   3.597   3.914 -0.0933  0.6847  0.2856
 3151WAT     H1 9664   1.407   3.672   3.967 -2.3226  0.1897  2.3918
 3151WAT     H2 9665   1.310   3.556   3.966  1.1007 -2.9563 -0.7376
 3152WAT      O 9666   3.492   2.778   4.006  0.8698  0.0662  0.4978
 3152WAT     H1 9667   3.573   2.734   3.981  0.4030 -1.2415  1.1704
 3152WAT     H2 9668   3.426   2.708   4.006  0.0965  0.7691  1.6367
 3153WAT      O 9669   3.166   2.748   4.883 -0.1416 -0.1178  0.6386
 3153WAT     H1 9670   3.209   2.806   4.820 -1.2016  0.7546  0.6897
 3153WAT     H2 9671   3.237   2.714   4.937  0.8851 -1.4501 -1.4482
 3154WAT      O 9672   3.192   2.297   0.577  0.0445 -0.4369  0.2140
 3154WAT     H1 9673   3.244   2.217   0.563 -0.9337 -0.9954 -0.3092
 3154WAT     H2 9674   3.182   2.335   0.490 -0.8382 -0.6054  0.2331
 3155WAT      O 9675   2.619   0.222   5.271 -0.2762  0.1733 -0.3330
 3155WAT     H1 9676   2.543   0.251   5.322 -0.4761 -1.5284  0.4098
 3155WAT     H2 9677   2.588   0.144   5.225  1.2204 -1.1109  0.6987
 3156WAT      O 9678   3.195   2.016   4.427  0.2652  0.2442  0.3783
 3156WAT     H1 9679   3.287   2.037   4.440  0.0325  0.3699  1.9691
 3156WAT     H2 9680   3.195   1.953   4.355  1.5357  0.6476 -0.0033
 3157WAT      O 9681   4.108   0.836   4.844 -0.0540  0.3281  0.7902
 3157WAT     H1 9682   4.017   0.810   4.828  0.0831 -1.4433  2.5697
 3157WAT     H2 9683   4.104   0.892   4.921  0.1084  2.6961 -0.8153
 3158WAT      O 9684   2.442   3.838   4.785  0.7104 -0.1359  0.1039
 3158WAT     H1 9685   2.388   3.853   4.863 -1.2954  1.1617 -1.4424
 3158WAT     H2 9686   2.520   3.891   4.800 -0.1015  0.9022  0.8091
 3159WAT      O 9687   0.145   4.016   4.216  0.2780 -0.4536 -0.3468
 3159WAT     H1 9688   0.218   3.955   4.207 -0.6053 -1.2437 -2.8958
 3159WAT     H2 9689   0.097   3.985   4.293  1.3477 -1.3141 -0.0077
 3160WAT      O 9690   3.402   3.310   0.542  0.1781 -0.1306  0.1934
 3160WAT     H1 9691   3.383   3.256   0.465  0.2341  1.0647 -0.6816
 3160WAT     H2 9692   3.320   3.312   0.591 -0.5135  0.8211 -0.9457
 3161WAT      O 9693   3.414   5.108   4.309 -0.1433  0.1954 -0.1410
 3161WAT     H1 9694   3.499   5.070   4.329 -0.2611  0.2658  0.5364
 3161WAT     H2 9695   3.362   5.035   4.274 -0.4517 -0.3680  1.3930
 3162WAT      O 9696   1.442   0.498   4.979 -0.0188  0.4071  0.0123
 3162WAT     H1 9697   1.393   0.470   5.056  0.5464 -2.0385 -0.4285
 3162WAT     H2 9698   1.509   0.558   5.013  0.0101 -0.3621  1.3800
 3163WAT      O 9699   0.981   0.308   0.487  0.7186 -0.4497 -0.1712
 3163WAT     H1 9700   1.069   0.298   0.525  1.6113 -1.7728 -2.3558
 3163WAT     H2 9701   0.923   0.313   0.563  2.4229 -2.2317  1.3841
 3164WAT      O 9702   1.076   1.430   2.303 -0.0207  0.4282 -0.0775
 3164WAT     H1 9703   1.053   1.360   2.243  1.7973  0.1971 -0.5548
 3164WAT     H2 9704   1.069   1.510   2.251 -2.0020  0.6624  0.4422
 3165WAT      O 9705   0.337   0.641   1.134  0.0019 -0.4804 -0.1038
 3165WAT     H1 9706   0.287   0.660   1.213 -0.5044  0.7130 -0.6876
 3165WAT     H2 9707   0.424   0.678   1.151 -0.2324  0.1425 -0.2711
 3166WAT      O 9708   4.117   1.226   4.939 -0.3115 -0.0212  0.0497
 3166WAT     H1 9709   4.179   1.251   5.008 -1.4724 -0.1463  1.1845
 3166WAT     H2 9710   4.065   1.155   4.977 -0.4821 -0.6307 -1.2509
 3167WAT      O 9711   2.829   3.166   0.212 -0.3013  0.5080 -0.0961
 3167WAT     H1 9712   2.906   3.111   0.198 -0.9590 -0.9773  1.7261
 3167WAT     H2 9713   2.763   3.132   0.151  0.1887  1.2049 -1.0301
 3168WAT      O 9714   2.577   0.465   0.311  0.3825  0.4968  0.4697
 3168WAT     H1 9715   2.494   0.418   0.310  0.4512  0.3862 -0.2269
 3168WAT     H2 9716   2.612   0.450   0.400  0.0760 -0.1827  0.4812
 3169WAT      O 9717   1.140   1.623   2.697  0.0635 -0.5182 -0.0139
 3169WAT     H1 9718   1.168   1.546   2.648  1.8251 -0.0741  0.2166
 3169WAT     H2 9719   1.211   1.638   2.760 -0.8909  0.4853  0.8647
 3170WAT      O 9720   3.413   2.425   2.253 -0.1944 -0.2794 -0.3923
 3170WAT     H1 9721   3.451   2.437   2.340  0.5335  0.7994 -0.8415
 3170WAT     H2 9722   3.341   2.488   2.249  0.2946  0.2578 -0.8598
 3171WAT      O 9723   0.226   3.579   1.465  0.4355  0.3330 -0.0451
 3171WAT     H1 9724   0.184   3.509   1.516  1.9098 -1.1329 -0.7539
 3171WAT     H2 9725   0.187   3.571   1.378 -1.8377  2.6260  0.6381
 3172WAT      O 9726   3.255   1.623   0.205  0.2173  0.4962 -0.0572
 3172WAT     H1 9727   3.161   1.625   0.226  0.3893  2.7488  0.7798
 3172WAT     H2 9728   3.287   1.708   0.233  3.0412 -1.0803  2.0417
 3173WAT      O 9729   3.926   3.195   0.530  0.6075 -0.1078  0.1693
 3173WAT     H1 9730   3.979   3.211   0.452  0.1590  1.1440  0.1022
 3173WAT     H2 9731   3.842   3.164   0.495  0.3369  0.6445  0.1185
 3174WAT      O 9732   2.336   0.945   1.929 -0.0268 -0.0221  0.2573
 3174WAT     H1 9733   2.295   1.009   1.987  0.4927 -0.5584  1.2336
 3174WAT     H2 9734   2.267   0.921   1.868 -1.1656 -0.8419  1.8088
 3175WAT      O 9735   1.570   1.159   2.141  0.3717 -0.7062 -0.2407
 3175WAT     H1 9736   1.646   1.121   2.097 -0.9715 -2.5004 -1.1404
 3175WAT     H2 9737   1.503   1.164   2.073 -0.2308  1.1897  0.4450
 3176WAT      O 9738   1.961   0.960   2.694 -0.2741  0.2122 -0.0277
 3176WAT     H1 9739   2.026   1.027   2.717  0.0087 -0.3981  0.9896
 3176WAT     H2 9740   2.004   0.908   2.626  0.8053 -0.9048  1.4442
 3177WAT      O 9741   1.830   4.221   1.809 -0.4269 -0.1835 -0.6326
 3177WAT     H1 9742   1.794   4.133   1.813  1.0600 -0.8505 -1.0972
 3177WAT     H2 9743   1.790   4.268   1.882  0.4320 -1.9002  1.0272
 3178WAT      O 9744   2.309   3.392   4.530  0.0276 -0.7710  0.4629
 3178WAT     H1 9745   2.302   3.418   4.438 -1.8341 -0.1285  0.7330
 3178WAT     H2 9746   2.365   3.459   4.570  0.5840 -0.8768 -0.1373
 3179WAT      O 9747   0.933   2.838   1.240  0.0133  0.4302 -0.4541
 3179WAT     H1 9748   0.986   2.781   1.184 -0.6540  1.0923 -1.8244
 3179WAT     H2 9749   0.919   2.917   1.186  2.1310  2.5943  1.8844
 3180WAT      O 9750   3.312   1.113   1.523  0.1211 -0.6737 -0.1878
 3180WAT     H1 9751   3.399   1.079   1.503  1.0094  1.8380 -1.0862
 3180WAT     H2 9752   3.316   1.136   1.616  0.9130  0.5633 -0.4959
 3181WAT      O 9753   2.365   2.263   0.132 -0.0959 -0.1518 -0.2790
 3181WAT     H1 9754   2.302   2.332   0.114  0.6369  0.4154 -0.7257
 3181WAT     H2 9755   2.386   2.227   0.046 -0.5264 -0.9879 -0.0456
 3182WAT      O 9756   2.725   3.308   0.814  0.5453 -0.0538 -0.5461
 3182WAT     H1 9757   2.709   3.234   0.873  0.3799  0.3689 -0.0620
 3182WAT     H2 9758   2.815   3.335   0.832  0.4789  0.1066 -0.4598
 3183WAT      O 9759   0.455   2.039   1.199 -0.1896 -0.5433 -0.1873
 3183WAT     H1 9760   0.371   2.020   1.158  0.3154 -0.9086 -1.0701
 3183WAT     H2 9761   0.494   2.107   1.145  0.3098 -0.7401 -0.0812
 3184WAT      O 9762   4.019   3.598   2.737  0.1303 -0.4928 -0.5723
 3184WAT     H1 9763   4.062   3.587   2.822 -0.6224 -1.9864 -0.3389
 3184WAT     H2 9764   3.928   3.570   2.753 -0.2975  0.2469 -1.6223
 3185WAT      O 9765   1.244   3.834   2.811 -0.2755 -0.2966 -0.3961
 3185WAT     H1 9766   1.255   3.929   2.799  2.6844 -0.3113  1.1937
 3185WAT     H2 9767   1.303   3.795   2.746  1.7892 -0.8238  1.6560
 3186WAT      O 9768   3.149   2.797   1.579  0.0292 -0.5995  0.1512
 3186WAT     H1 9769   3.240   2.770   1.590  0.4055 -0.2242 -1.7733
 3186WAT     H2 9770   3.146   2.887   1.613  1.0100  0.3220 -2.0304
 3187WAT      O 9771   1.046   2.019   3.742 -0.5346  0.1834  0.0776
 3187WAT     H1 9772   1.096   2.046   3.819 -2.1366 -0.8242  1.5279
 3187WAT     H2 9773   1.021   2.101   3.699 -0.3297  0.7839  1.0800
 3188WAT      O 9774   3.169   0.740   1.535  0.3338  0.4177  0.1523
 3188WAT     H1 9775   3.090   0.783   1.567  0.5404  1.4669 -0.6551
 3188WAT     H2 9776   3.145   0.649   1.523  0.3458 -0.1538  3.5607
 3189WAT      O 9777   4.385   3.381   4.500  0.1772  0.1268  0.0316
 3189WAT     H1 9778   4.408   3.474   4.492  0.4086  0.4335  3.2358
 3189WAT     H2 9779   4.462   3.340   4.539 -0.1895 -1.3162 -0.6947
 3190WAT      O 9780   2.439   4.185   2.588  0.1439  0.5729  0.2538
 3190WAT     H1 9781   2.501   4.113   2.589  1.3421  1.3808 -3.2595
 3190WAT     H2 9782   2.477   4.250   2.647  2.1645  0.6219 -1.0087
 3191WAT      O 9783   0.922   0.626   3.680  0.4096 -0.4337 -0.2528
 3191WAT     H1 9784   0.912   0.721   3.690 -0.4935 -0.3036 -2.0182
 3191WAT     H2 9785   1.016   0.612   3.670  0.5738  0.2346  0.2887
 3192WAT      O 9786   4.261   2.627   2.746  0.5709  0.2370  0.0157
 3192WAT     H1 9787   4.348   2.628   2.785  1.0534 -2.5210 -0.7862
 3192WAT     H2 9788   4.272   2.668   2.660  1.0574 -0.0941 -0.0777
 3193WAT      O 9789   0.115   0.558   5.126  0.1127  0.1681 -0.0173
 3193WAT     H1 9790   0.096   0.620   5.196  0.1728  1.6446 -1.2638
 3193WAT     H2 9791   0.151   0.611   5.055 -0.9109 -1.1005 -1.5749
 3194WAT      O 9792   4.130   3.062   3.321  0.0586  0.7147  0.4462
 3194WAT     H1 9793   4.179   2.998   3.270 -2.0524  0.1096 -0.9558
 3194WAT     H2 9794   4.196   3.124   3.352  2.0156 -1.4233  0.8243
 3195WAT      O 9795   3.804   2.789   3.623 -0.3909  0.0532 -0.4136
 3195WAT     H1 9796   3.738   2.820   3.560  0.7859  1.1272 -1.1729
 3195WAT     H2 9797   3.785   2.838   3.703 -2.7841 -2.3470  0.6172
 3196WAT      O 9798   0.021   4.386   2.912  0.4441 -0.3557  0.2444
 3196WAT     H1 9799   0.040   4.293   2.924 -2.0272 -0.9234  0.3649
 3196WAT     H2 9800   0.004   4.396   2.819  1.7064  0.2165  0.0610
 3197WAT      O 9801   1.024   3.939   0.564 -1.3298  0.2483  0.2800
 3197WAT     H1 9802   1.010   3.981   0.649 -0.1243 -0.3881  0.8323
 3197WAT     H2 9803   0.984   3.852   0.574 -1.3506  0.2412  0.1360
 3198WAT      O 9804   0.858   3.577   5.017 -0.6471  0.0905 -0.5319
 3198WAT     H1 9805   0.929   3.516   5.039  0.9217  2.1897  0.5631
 3198WAT     H2 9806   0.784   3.547   5.071 -0.6572 -2.1312 -1.6933
 3199WAT      O 9807   4.034   4.178   0.520  0.1318  0.0464 -0.1533
 3199WAT     H1 9808   3.977   4.253   0.534 -0.4847  0.5544 -4.2083
 3199WAT     H2 9809   4.019   4.152   0.429  2.8677 -2.8541  0.0155
 3200WAT      O 9810   1.462   3.101   2.054  0.3548  0.0573 -0.0747
 3200WAT     H1 9811   1.388   3.146   2.096 -0.4739 -1.4893  0.1961
 3200WAT     H2 9812   1.421   3.045   1.988  1.3934 -0.0138 -0.6775
 3201WAT      O 9813   3.641   2.543   3.919  0.2396 -0.9694  0.3466
 3201WAT     H1 9814   3.673   2.494   3.994  0.5571 -1.4256 -0.0796
 3201WAT     H2 9815   3.549   2.518   3.911 -0.1870  0.1678  1.4329
 3202WAT      O 9816   1.152   4.449   3.138  0.2632 -0.1999 -0.1030
 3202WAT     H1 9817   1.211   4.510   3.182 -0.2492  0.9219 -0.8901
 3202WAT     H2 9818   1.066   4.491   3.144 -0.1925 -1.0767 -0.2792
 3203WAT      O 9819   4.046   4.992   0.592  0.5461 -0.3000  0.1861
 3203WAT     H1 9820   3.998   4.979   0.673  0.7776  0.3788  0.4302
 3203WAT     H2 9821   4.133   5.019   0.619  0.5798  0.0841 -0.2918
 3204WAT      O 9822   3.585   2.342   0.814  0.4620 -1.0230 -0.1415
 3204WAT     H1 9823   3.672   2.345   0.853  1.1682 -0.6979 -1.6918
 3204WAT     H2 9824   3.561   2.433   0.800 -0.8163 -1.0292  1.6710
 3205WAT      O 9825   1.128   0.788   4.247  0.4829 -1.2469  0.6656
 3205WAT     H1 9826   1.115   0.783   4.342 -1.8017 -0.8754  0.4298
 3205WAT     H2 9827   1.058   0.734   4.211  0.3523 -0.1086 -0.8431
 3206WAT      O 9828   2.497   4.164   1.896 -0.3391 -0.4645 -0.1797
 3206WAT     H1 9829   2.566   4.108   1.860 -0.9908 -1.4483  0.0862
 3206WAT     H2 9830   2.467   4.119   1.974 -1.0647  0.1240 -0.1060
 3207WAT      O 9831   1.487   1.855   0.839 -0.2261  0.3024  0.5271
 3207WAT     H1 9832   1.435   1.787   0.796 -1.1835  0.2270  1.7383
 3207WAT     H2 9833   1.558   1.873   0.778 -0.7449 -0.7833 -0.4414
 3208WAT      O 9834   0.543   2.360   0.675  0.4989 -0.2158  0.0412
 3208WAT     H1 9835   0.583   2.440   0.640 -2.8909  1.4274 -0.4730
 3208WAT     H2 9836   0.558   2.365   0.770 -0.8326  1.8294  0.1925
 3209WAT      O 9837   2.613   3.563   4.278  0.1904 -0.3925 -0.3856
 3209WAT     H1 9838   2.604   3.472   4.248  0.3340 -0.5738  0.1050
 3209WAT     H2 9839   2.523   3.596   4.279  0.2271 -0.2261 -1.4604
 3210WAT      O 9840   4.039   0.027   4.585  0.0089 -0.2429  0.3591
 3210WAT     H1 9841   4.110   0.076   4.626 -0.8249  0.3186  1.1532
 3210WAT     H2 9842   3.988  -0.007   4.658 -0.9852  0.0138 -0.2021
 3211WAT      O 9843   0.309   1.267   5.024  0.3023  0.2939 -0.3660
 3211WAT     H1 9844   0.273   1.194   5.074 -0.1261  1.8080  1.6499
 3211WAT     H2 9845   0.232   1.312   4.989  0.5440  0.1309 -1.1338
 3212WAT      O 9846   3.006   3.044   4.667 -0.2408  0.4926 -0.0597
 3212WAT     H1 9847   2.947   3.027   4.594  0.3593  1.0258 -0.6885
 3212WAT     H2 9848   3.092   3.019   4.634 -0.0789 -0.1111  0.7827
 3213WAT      O 9849   2.289   2.395   1.772 -0.0253  0.2972 -0.3840
 3213WAT     H1 9850   2.205   2.350   1.767  0.7683 -1.6774  2.0529
 3213WAT     H2 9851   2.354   2.325   1.772  1.5571  1.6986 -0.7680
 3214WAT      O 9852   1.416   2.308   4.699  1.0949 -0.1682 -0.3339
 3214WAT     H1 9853   1.463   2.296   4.617 -0.1335 -1.0930 -0.9376
 3214WAT     H2 9854   1.377   2.223   4.717  2.2173 -0.2959  1.8071
 3215WAT      O 9855   4.036   4.747   4.255  0.3482  0.0486  0.3359
 3215WAT     H1 9856   3.974   4.809   4.291  0.7390  0.3462  0.5036
 3215WAT     H2 9857   4.086   4.717   4.331  1.5397  1.0807 -0.0051
 3216WAT      O 9858   3.696   4.280   1.704 -0.3860  0.6432 -0.7803
 3216WAT     H1 9859   3.671   4.352   1.762  0.4012  1.4434 -1.4030
 3216WAT     H2 9860   3.633   4.283   1.633 -0.5208  0.5437 -0.6643
 3217WAT      O 9861   2.805   4.294   2.907 -0.1333  0.4208 -0.6972
 3217WAT     H1 9862   2.821   4.339   2.824  2.1548  0.3949 -0.3481
 3217WAT     H2 9863   2.806   4.364   2.973  0.1863  0.2101 -0.4779
 3218WAT      O 9864   0.848   0.933   2.691 -0.7246 -0.5996 -0.2856
 3218WAT     H1 9865   0.848   0.840   2.670 -0.4036 -0.4386 -1.0274
 3218WAT     H2 9866   0.856   0.937   2.787  0.5962 -1.3093 -0.3460
 3219WAT      O 9867   3.135   1.493   1.518 -0.4643 -0.0262 -0.0423
 3219WAT     H1 9868   3.107   1.585   1.524  0.4179  0.4073 -1.8713
 3219WAT     H2 9869   3.054   1.443   1.518 -0.9471  0.6831  1.4932
 3220WAT      O 9870   0.408   3.763   3.094  0.2201 -0.2182  0.0762
 3220WAT     H1 9871   0.378   3.840   3.141 -0.4147 -1.1805  1.3025
 3220WAT     H2 9872   0.466   3.718   3.156  0.8464 -0.5530 -0.7387
 3221WAT      O 9873   0.499   3.280   4.946 -0.2276  0.3544  0.1815
 3221WAT     H1 9874   0.405   3.293   4.935 -0.3622 -0.4300  0.3297
 3221WAT     H2 9875   0.506   3.203   5.002  0.5031 -0.1522 -0.5689
 3222WAT      O 9876   2.093   3.031   0.307  0.5877  0.2959  0.2641
 3222WAT     H1 9877   2.010   3.017   0.262  0.4910 -0.0658  0.5510
 3222WAT     H2 9878   2.134   3.104   0.260  0.8567 -0.5897 -0.8887
 3223WAT      O 9879   2.681   3.738   3.219  0.2628 -0.1673 -0.4640
 3223WAT     H1 9880   2.762   3.736   3.169  0.8463  2.6540  0.2101
 3223WAT     H2 9881   2.702   3.692   3.301  0.6443 -0.8993 -0.9624
 3224WAT      O 9882   1.370   4.774   3.565 -0.4255  0.3749 -0.6612
 3224WAT     H1 9883   1.314   4.827   3.622  2.3123  1.8530  0.8965
 3224WAT     H2 9884   1.407   4.838   3.504 -0.1671 -0.4871 -1.4166
 3225WAT      O 9885   2.985   4.710   2.285 -0.2667 -0.3521  0.0057
 3225WAT     H1 9886   3.008   4.797   2.252  2.5010 -0.9753  0.0280
 3225WAT     H2 9887   2.891   4.702   2.269 -0.2861  1.9789 -1.5293
 3226WAT      O 9888   2.514   0.266   4.663  0.4171 -0.5789  0.4480
 3226WAT     H1 9889   2.501   0.249   4.757  0.5938 -1.5361  0.3106
 3226WAT     H2 9890   2.607   0.287   4.655 -0.0004  1.5875  0.7651
 3227WAT      O 9891   1.648   5.075   2.398  0.2317 -0.9225 -0.0403
 3227WAT     H1 9892   1.608   5.131   2.465 -1.7294 -1.9461 -0.2866
 3227WAT     H2 9893   1.723   5.035   2.442  1.0664  1.0459  0.4565
 3228WAT      O 9894   2.615   1.979   3.177 -0.2242  0.0414  0.8292
 3228WAT     H1 9895   2.704   1.943   3.179 -0.2269 -0.6125 -3.3587
 3228WAT     H2 9896   2.626   2.071   3.200  1.5087 -0.0646  0.5334
 3229WAT      O 9897   4.391   2.177   4.560 -0.0416 -0.0209  0.2560
 3229WAT     H1 9898   4.442   2.097   4.572 -0.2687 -0.1493  0.3888
 3229WAT     H2 9899   4.324   2.173   4.630 -0.1596  0.1986  0.1571
 3230WAT      O 9900   1.273   1.696   1.830 -0.0552  0.3782  0.3002
 3230WAT     H1 9901   1.197   1.641   1.848 -0.7303  0.9988 -0.5410
 3230WAT     H2 9902   1.239   1.767   1.775  1.2680  0.2478 -0.7576
 3231WAT      O 9903   3.137   3.570   0.995  0.0870  0.0455 -0.1992
 3231WAT     H1 9904   3.116   3.646   0.942 -1.5442  0.5859  1.1486
 3231WAT     H2 9905   3.202   3.603   1.058  1.2006 -0.3251 -1.1137
 3232WAT      O 9906   1.643   3.676   4.664  0.1109 -0.8001 -0.0607
 3232WAT     H1 9907   1.736   3.666   4.682  0.2768 -2.0526 -1.4600
 3232WAT     H2 9908   1.622   3.605   4.603 -2.1539 -1.6380  1.5570
 3233WAT      O 9909   1.416   3.857   3.461 -0.0844  0.0656 -0.0531
 3233WAT     H1 9910   1.473   3.833   3.534  0.6305  1.0298 -0.2787
 3233WAT     H2 9911   1.405   3.776   3.412  0.7975 -0.2131  0.1981
 3234WAT      O 9912   1.225   0.793   2.006  0.4969 -0.2111  0.2822
 3234WAT     H1 9913   1.194   0.856   1.941  0.4463  0.1684  0.6696
 3234WAT     H2 9914   1.230   0.843   2.088  2.7379 -0.0763  0.1164
 3235WAT      O 9915   0.780   3.124   4.194  0.3345 -0.4996  0.6481
 3235WAT     H1 9916   0.737   3.085   4.270 -1.5665 -1.3200 -0.7654
 3235WAT     H2 9917   0.767   3.060   4.124 -0.4721  1.4414 -1.0682
 3236WAT      O 9918   3.649   2.201   0.353 -0.3852 -0.2480 -0.8450
 3236WAT     H1 9919   3.560   2.202   0.317 -0.9257  5.0387 -0.2806
 3236WAT     H2 9920   3.637   2.172   0.444 -1.4252 -0.3590 -0.9985
 3237WAT      O 9921   1.889   0.614   2.965 -0.5528 -0.3438  0.3127
 3237WAT     H1 9922   1.895   0.624   3.060  2.2033 -2.1343  0.4293
 3237WAT     H2 9923   1.967   0.657   2.932 -0.1847 -1.8632 -0.9082
 3238WAT      O 9924   3.994   2.480   3.224 -0.1768  0.0012  0.6896
 3238WAT     H1 9925   4.057   2.503   3.156  0.7940 -0.5186  1.3825
 3238WAT     H2 9926   3.998   2.553   3.286  0.7947 -0.6681  1.4396
 3239WAT      O 9927   0.641   4.605   3.936 -0.3196  0.0948  0.1076
 3239WAT     H1 9928   0.659   4.551   3.859 -0.4209 -0.4573  0.4622
 3239WAT     H2 9929   0.720   4.658   3.947 -0.3188  0.1966 -0.3963
 3240WAT      O 9930   1.039   1.129   4.694 -0.4889  0.0797 -0.0334
 3240WAT     H1 9931   1.080   1.162   4.614 -0.4267 -1.1596 -0.5243
 3240WAT     H2 9932   1.026   1.036   4.678  0.8184 -0.4953  1.9252
 3241WAT      O 9933   4.174   1.794   2.004 -0.0362 -0.1653 -0.7847
 3241WAT     H1 9934   4.250   1.755   1.961  0.1362 -0.3484 -0.3217
 3241WAT     H2 9935   4.187   1.888   1.996  1.7965 -0.0766  1.8866
 3242WAT      O 9936   1.671   0.899   5.014 -0.1543  0.5769 -0.0260
 3242WAT     H1 9937   1.609   0.869   5.081  1.6952 -0.6465  1.2237
 3242WAT     H2 9938   1.719   0.821   4.989 -0.3530  1.1465 -2.3678
 3243WAT      O 9939   0.119   2.066   5.110 -0.2075 -0.1812 -0.4134
 3243WAT     H1 9940   0.131   2.059   5.015 -0.0328 -4.4379 -0.2946
 3243WAT     H2 9941   0.195   2.021   5.147 -0.4259  1.1195  1.7849
 3244WAT      O 9942   1.899   1.125   0.681 -0.0271 -0.4954  0.0904
 3244WAT     H1 9943   1.807   1.103   0.672 -0.1986  0.6253 -1.2044
 3244WAT     H2 9944   1.945   1.055   0.634 -0.3430 -0.1193 -0.8071
 3245WAT      O 9945   1.254   2.497   2.823  0.4216 -0.3327 -0.0904
 3245WAT     H1 9946   1.206   2.522   2.743 -1.5267  0.9374  1.3894
 3245WAT     H2 9947   1.222   2.410   2.843  2.0371 -1.2983 -1.4489
 3246WAT      O 9948   3.025   2.979   0.151  0.3881 -0.3687 -0.2341
 3246WAT     H1 9949   3.113   3.015   0.145 -0.5748  2.1572 -0.5284
 3246WAT     H2 9950   3.038   2.886   0.166  3.0883 -0.0613 -0.1920
 3247WAT      O 9951   0.982   1.285   1.713  0.0733 -0.0267 -0.2775
 3247WAT     H1 9952   1.018   1.349   1.775  0.1901  1.8179 -2.1458
 3247WAT     H2 9953   1.057   1.237   1.681  0.4108  1.0649 -1.1756
 3248WAT      O 9954   2.289   2.949   1.187 -0.1069  0.0104  0.3781
 3248WAT     H1 9955   2.231   2.974   1.259 -1.8430 -2.6516  0.0450
 3248WAT     H2 9956   2.238   2.967   1.108  0.4577 -0.2190 -0.0427
 3249WAT      O 9957   2.262   3.042   2.664 -0.2770  0.1644 -0.1815
 3249WAT     H1 9958   2.255   3.117   2.605  0.7596 -0.5957 -1.3250
 3249WAT     H2 9959   2.286   2.969   2.606 -0.0620 -0.7849  1.0746
 3250WAT      O 9960   2.521   0.343   4.293 -0.4603 -0.1449  1.0283
 3250WAT     H1 9961   2.600   0.320   4.244 -1.8651 -2.4590 -0.3081
 3250WAT     H2 9962   2.550   0.411   4.354  2.4178 -0.5096  0.2092
 3251WAT      O 9963   1.972   2.655   3.664 -0.1344 -0.0043 -0.0380
 3251WAT     H1 9964   1.947   2.747   3.656 -0.0748  0.1275  1.0636
 3251WAT     H2 9965   2.067   2.658   3.678 -0.2613 -0.1503  0.9668
 3252WAT      O 9966   3.481   4.983   2.811 -0.4544 -0.2211 -0.0095
 3252WAT     H1 9967   3.395   4.946   2.792  0.1875 -1.2991 -0.9548
 3252WAT     H2 9968   3.507   4.940   2.893 -0.9213  0.3231  0.4345
 3253WAT      O 9969   1.377   1.870   0.314 -0.1840  0.5826  0.0528
 3253WAT     H1 9970   1.335   1.788   0.288  0.2186  0.5150 -0.4110
 3253WAT     H2 9971   1.314   1.913   0.370 -1.0450  0.6611 -0.9420
 3254WAT      O 9972   1.963   3.897   4.778 -0.0355  0.2244  0.2988
 3254WAT     H1 9973   1.889   3.939   4.821  0.2534  0.3369  0.6930
 3254WAT     H2 9974   2.039   3.923   4.830  0.2760  0.0691 -0.0692
 3255WAT      O 9975   1.780   1.598   4.514 -0.1989  0.4606  0.3044
 3255WAT     H1 9976   1.875   1.590   4.523 -0.1466  1.2117  0.5635
 3255WAT     H2 9977   1.758   1.541   4.441  0.3069 -0.5178  0.8854
 3256WAT      O 9978   0.952   0.936   3.369 -0.0167 -0.0979  0.1870
 3256WAT     H1 9979   1.036   0.951   3.414 -0.2411 -1.6507  1.1951
 3256WAT     H2 9980   0.962   0.851   3.328 -1.2504 -0.4841  0.6681
 3257WAT      O 9981   1.818   3.128   2.665  0.5577  0.0972 -0.3484
 3257WAT     H1 9982   1.890   3.189   2.680  1.4760 -1.0596  0.1496
 3257WAT     H2 9983   1.750   3.180   2.623  1.5259  1.3178 -0.4487
 3258WAT      O 9984   4.447   2.569   1.660 -0.1366 -0.1276  0.2174
 3258WAT     H1 9985   4.527   2.620   1.650 -0.1481  0.3910  2.2536
 3258WAT     H2 9986   4.377   2.634   1.661 -0.3553 -0.3641  0.6879
 3259WAT      O 9987   2.132   4.236   3.830 -0.0979  0.1907 -0.0903
 3259WAT     H1 9988   2.073   4.193   3.769  1.4862 -1.6479 -0.4238
 3259WAT     H2 9989   2.182   4.297   3.777  1.7447 -1.8731 -0.9190
 3260WAT      O 9990   0.493   2.605   4.595 -0.5180  0.0399 -0.2795
 3260WAT     H1 9991   0.565   2.648   4.548  0.5525 -0.9568  0.4155
 3260WAT     H2 9992   0.436   2.677   4.621  1.7762  1.2466  1.8142
 3261WAT      O 9993   1.371   3.627   0.090 -0.1942 -0.2630 -0.3089
 3261WAT     H1 9994   1.310   3.701   0.086 -1.1292 -1.0095 -4.2505
 3261WAT     H2 9995   1.314   3.551   0.098  0.1823 -0.8958 -2.8683
 3262WAT      O 9996   1.430   2.008   1.385  0.6905  0.3110  0.0887
 3262WAT     H1 9997   1.357   2.054   1.344 -0.5790 -1.8286 -0.2121
 3262WAT     H2 9998   1.389   1.952   1.451  1.8905 -1.7095 -0.7661
 3263WAT      O 9999   4.026   2.217   4.344  0.0326  0.3942  0.7304
 3263WAT     H110000   3.959   2.277   4.313 -1.9172 -0.4404  2.9660
 3263WAT     H210001   4.077   2.268   4.408  0.7264  0.6625 -0.0253
 3264WAT      O10002   1.072   5.118   2.827 -0.3177 -0.2806 -0.3541
 3264WAT     H110003   1.111   5.144   2.911 -0.5759  0.6760 -0.5199
 3264WAT     H210004   1.136   5.147   2.761 -0.6171 -0.0480 -0.5451
 3265WAT      O10005   2.689   3.956   4.791  0.0529 -0.0503  0.0502
 3265WAT     H110006   2.768   3.926   4.837 -1.4941 -0.9890  2.2669
 3265WAT     H210007   2.699   4.051   4.787  0.2210  0.1080  2.5606
 3266WAT      O10008   1.808   4.279   2.106 -0.2605  0.6578  0.5038
 3266WAT     H110009   1.810   4.301   2.199 -0.9834 -0.1806  0.7223
 3266WAT     H210010   1.745   4.341   2.068 -0.4869  0.5476  0.6979
 3267WAT      O10011   2.230   2.881   5.083  0.0449  0.0059  0.4400
 3267WAT     H110012   2.286   2.823   5.031  1.4022  0.6989  1.0942
 3267WAT     H210013   2.181   2.931   5.017  0.2643 -0.5320 -0.1448
 3268WAT      O10014   0.299   0.877   1.768 -0.1781  0.1397  0.3226
 3268WAT     H110015   0.364   0.943   1.792 -1.1689  2.5509 -2.8817
 3268WAT     H210016   0.226   0.892   1.827  0.9126 -0.5508  1.9257
 3269WAT      O10017   2.491   4.310   3.796  0.1515  0.1326  0.3735
 3269WAT     H110018   2.518   4.249   3.865 -1.2150  0.7875  1.5445
 3269WAT     H210019   2.549   4.385   3.806  0.6151 -0.1912  0.1422
 3270WAT      O10020   1.737   3.724   2.410 -0.0388 -0.4327  0.4430
 3270WAT     H110021   1.734   3.661   2.482  2.2046 -0.7132  0.3801
 3270WAT     H210022   1.664   3.783   2.427  0.3822 -0.4958  2.9548
 3271WAT      O10023   2.417   2.010   1.013 -0.0759  0.0042 -0.2141
 3271WAT     H110024   2.412   2.079   0.947  2.2307 -0.4056 -0.8900
 3271WAT     H210025   2.377   1.934   0.971 -1.3522  0.5221  0.0163
 3272WAT      O10026   3.442   3.455   1.327 -0.0618 -0.4450  0.3922
 3272WAT     H110027   3.397   3.450   1.411  0.4105  2.6200  0.9264
 3272WAT     H210028   3.519   3.509   1.344 -1.0549  2.1138 -2.3516
 3273WAT      O10029   2.848   0.728   4.825 -0.4741  0.3458 -0.1916
 3273WAT     H110030   2.766   0.737   4.874 -0.1852  0.0593  0.3479
 3273WAT     H210031   2.887   0.647   4.857 -0.1211  0.3253 -0.6598
 3274WAT      O10032   4.288   2.248   1.009 -0.5675 -0.3783 -0.0532
 3274WAT     H110033   4.239   2.175   1.048  0.2350 -1.3769 -0.8755
 3274WAT     H210034   4.380   2.221   1.013 -0.4159 -0.4051 -2.3648
 3275WAT      O10035   2.471   3.983   5.228  0.1677 -0.1491 -0.5547
 3275WAT     H110036   2.446   4.045   5.297  0.5501  0.9017 -1.3277
 3275WAT     H210037   2.567   3.983   5.230  0.1870  0.1550 -1.3084
 3276WAT      O10038   2.863   2.368   2.136  0.7007  0.1402  0.2297
 3276WAT     H110039   2.851   2.274   2.152  1.0288  0.2887  1.4588
 3276WAT     H210040   2.953   2.375   2.101  0.5370 -0.0340 -0.2343
 3277WAT      O10041   4.021   1.337   1.414  0.1938  0.2069 -0.4811
 3277WAT     H110042   3.952   1.352   1.479  1.7578  1.4795  0.9707
 3277WAT     H210043   4.083   1.408   1.428  0.6410  0.5066 -3.3948
 3278WAT      O10044   3.044   1.106   3.759 -0.2135  0.0448 -0.1028
 3278WAT     H110045   3.026   1.050   3.835 -0.1959 -3.2487 -2.3050
 3278WAT     H210046   3.085   1.047   3.696  3.7825  3.5811 -1.2089
 3279WAT      O10047   0.153   4.328   3.752 -0.0882  0.1675 -0.8917
 3279WAT     H110048   0.222   4.360   3.810 -1.4527  0.3244  0.7218
 3279WAT     H210049   0.099   4.405   3.734 -0.1992 -0.0733 -1.6559
 3280WAT      O10050   3.010   0.913   2.276  0.0831 -0.0825  0.2964
 3280WAT     H110051   2.918   0.916   2.302  0.5820  1.0163  2.0669
 3280WAT     H210052   3.007   0.916   2.180 -1.7011  0.5533  0.3250
 3281WAT      O10053   0.494   4.000   4.456  0.4775 -0.0294 -0.2607
 3281WAT     H110054   0.419   3.947   4.484  1.1115 -1.7533 -1.6388
 3281WAT     H210055   0.481   4.084   4.499 -0.4708 -1.3452  2.2071
 3282WAT      O10056   2.913   0.079   0.229  0.4324 -0.5314 -0.1221
 3282WAT     H110057   2.907  -0.010   0.195  1.4190 -0.6807  0.0622
 3282WAT     H210058   2.831   0.092   0.276  0.4516 -1.4960  0.1981
 3283WAT      O10059   0.257   4.918   3.997 -0.5985 -0.2120 -0.1256
 3283WAT     H110060   0.330   4.879   3.950 -0.3048  1.6148 -1.2798
 3283WAT     H210061   0.200   4.953   3.929 -0.2489  2.3463  0.7730
 3284WAT      O10062   3.609   0.337   2.022  0.3694 -0.0372  0.0345
 3284WAT     H110063   3.645   0.397   2.086  0.4654 -1.3830  1.2805
 3284WAT     H210064   3.682   0.279   1.999 -0.4027 -1.4618  1.0122
 3285WAT      O10065   2.141   1.554   1.766  0.4015  0.3931  0.1896
 3285WAT     H110066   2.232   1.525   1.780  1.0100  2.1140  0.0840
 3285WAT     H210067   2.111   1.578   1.854 -0.3434 -1.1444  0.3856
 3286WAT      O10068   4.006   0.443   0.971 -0.3898  0.3318  0.3320
 3286WAT     H110069   4.014   0.362   0.923  1.0208  0.5873  0.1023
 3286WAT     H210070   4.017   0.512   0.906  0.1928  0.6901  0.7942
 3287WAT      O10071   0.030   1.040   2.541  0.1106 -0.2325  0.3372
 3287WAT     H110072   0.004   1.132   2.541  1.2639  0.1240  1.0530
 3287WAT     H210073   0.086   1.030   2.463  0.2413 -0.2428  0.4309
 3288WAT      O10074   3.211   2.582   3.067 -0.1820  0.4779 -0.7160
 3288WAT     H110075   3.249   2.656   3.020  1.9622 -0.6091 -0.8213
 3288WAT     H210076   3.278   2.557   3.131 -1.9317  0.2531  1.1339
 3289WAT      O10077   0.232   3.827   2.901 -0.0884 -0.1888 -0.3874
 3289WAT     H110078   0.313   3.794   2.939 -0.0888 -1.8692 -1.6804
 3289WAT     H210079   0.240   3.807   2.807 -1.0561  1.6438 -0.9112
 3290WAT      O10080   1.993   3.913   0.717  0.7734  0.3448 -0.5343
 3290WAT     H110081   1.962   3.824   0.736  1.2220  0.0125 -1.2819
 3290WAT     H210082   1.921   3.953   0.668  0.6350  0.3337 -0.3388
 3291WAT      O10083   0.626   4.121   1.515  0.6108  0.4648 -0.5705
 3291WAT     H110084   0.597   4.119   1.424 -0.6620 -1.5369 -0.1737
 3291WAT     H210085   0.673   4.039   1.528 -0.8685 -0.2181  1.0292
 3292WAT      O10086   3.688   1.763   0.095 -0.2931  0.0397  0.1512
 3292WAT     H110087   3.730   1.765   0.009 -0.5474  1.3253  0.0259
 3292WAT     H210088   3.602   1.724   0.079 -0.5623  0.7860 -0.3080
 3293WAT      O10089   3.108   0.710   3.381 -0.1437  0.1835 -0.4483
 3293WAT     H110090   3.129   0.803   3.374  1.3207 -0.1169 -0.3942
 3293WAT     H210091   3.139   0.673   3.298  1.6884 -0.6521  0.5453
 3294WAT      O10092   0.211   5.080   0.250  0.1670 -0.4637 -0.8172
 3294WAT     H110093   0.167   5.041   0.175 -2.3369  0.0776  0.2766
 3294WAT     H210094   0.239   5.166   0.218 -2.8934  0.7216 -0.6349
 3295WAT      O10095   3.999   2.081   3.781  0.0953 -0.3288  0.5090
 3295WAT     H110096   3.945   2.160   3.790  0.3276  0.1203 -1.5376
 3295WAT     H210097   3.938   2.014   3.750  0.0046 -0.8386  1.7415
 3296WAT      O10098   2.673   4.114   2.378 -0.4844  0.1706  0.2535
 3296WAT     H110099   2.686   4.167   2.300 -0.2409  1.1283  0.9262
 3296WAT     H210100   2.718   4.032   2.359 -0.8491  0.2029 -0.7954
 3297WAT      O10101   3.718   1.054   5.088 -0.3413 -0.1931  0.3454
 3297WAT     H110102   3.704   0.960   5.099 -1.1003  0.0333  1.3552
 3297WAT     H210103   3.636   1.095   5.114 -0.4638  0.6947 -1.3193
 3298WAT      O10104   2.163   2.348   3.043 -0.3533 -0.3767  0.3227
 3298WAT     H110105   2.186   2.368   2.952  1.6574 -0.3199  0.7897
 3298WAT     H210106   2.220   2.274   3.066 -0.0796  0.2547  1.8291
 3299WAT      O10107   1.779   2.237   4.606  0.2094  0.0972  0.2019
 3299WAT     H110108   1.723   2.314   4.601 -0.7511 -0.6162 -0.3316
 3299WAT     H210109   1.806   2.220   4.516  0.7544  0.0523  0.3698
 3300WAT      O10110   3.914   1.719   4.208 -0.7546  0.6163 -0.0807
 3300WAT     H110111   3.989   1.779   4.206 -0.4773  0.2752 -0.1361
 3300WAT     H210112   3.842   1.772   4.242 -0.0314  0.4434  1.8374
 3301WAT      O10113   3.068   4.500   1.685 -0.5110  0.3484 -0.0007
 3301WAT     H110114   3.026   4.465   1.763 -0.0285  0.4551  0.3085
 3301WAT     H210115   2.997   4.507   1.621 -1.3325  2.1327  1.0244
 3302WAT      O10116   1.340   2.922   2.966 -0.5108  0.1360 -0.7294
 3302WAT     H110117   1.330   2.957   3.054  0.7344  0.2400 -0.6064
 3302WAT     H210118   1.381   2.837   2.978  1.6554  1.0372 -1.2641
 3303WAT      O10119   3.787   1.583   5.120 -0.2241 -0.3145 -0.1070
 3303WAT     H110120   3.762   1.629   5.040 -3.4582 -1.7237 -0.0977
 3303WAT     H210121   3.792   1.491   5.094 -0.1082 -0.6533  1.0624
 3304WAT      O10122   0.146   2.158   0.211  0.1547  0.6085  0.2088
 3304WAT     H110123   0.073   2.106   0.176  0.3460 -0.2708  1.0841
 3304WAT     H210124   0.127   2.167   0.304  1.6645 -0.5186  0.6634
 3305WAT      O10125   3.283   1.927   1.483 -0.0488  0.4061  0.4394
 3305WAT     H110126   3.352   1.932   1.549  0.7833 -0.9642 -0.2744
 3305WAT     H210127   3.310   1.855   1.426 -0.6466  1.6711 -1.5264
 3306WAT      O10128   0.539   1.325   3.319 -0.1217  0.3953  0.1918
 3306WAT     H110129   0.460   1.270   3.320 -0.4415  0.8104  2.1963
 3306WAT     H210130   0.602   1.276   3.373  0.7993  0.3654 -0.8861
 3307WAT      O10131   1.432   1.162   0.065  0.0765 -0.3191  0.8506
 3307WAT     H110132   1.369   1.089   0.068 -1.4013  0.6503 -2.1889
 3307WAT     H210133   1.378   1.240   0.077  1.1005  0.4151  0.7316
 3308WAT      O10134   0.451   5.058   1.496 -0.3119  0.3560 -0.4046
 3308WAT     H110135   0.359   5.085   1.497 -0.1892  0.7662  0.5086
 3308WAT     H210136   0.450   4.969   1.531 -0.5425 -0.3411 -2.0486
 3309WAT      O10137   0.595   1.498   0.400  0.3318  0.8969  0.7026
 3309WAT     H110138   0.613   1.437   0.472  0.0978  0.8095  0.6895
 3309WAT     H210139   0.558   1.575   0.443 -2.5021 -0.2294  0.4765
 3310WAT      O10140   2.571   1.999   3.915  0.2058  0.0569  0.3323
 3310WAT     H110141   2.531   1.923   3.873 -0.4629 -0.9022  2.5706
 3310WAT     H210142   2.528   2.074   3.874 -2.0640 -0.8876  0.8464
 3311WAT      O10143   2.260   0.379   4.239  0.5417  0.3929  0.2510
 3311WAT     H110144   2.222   0.296   4.266 -2.0254  1.6866  0.9918
 3311WAT     H210145   2.352   0.374   4.266  0.2494 -1.8481  0.9967
 3312WAT      O10146   3.580   4.415   0.218  0.2269  0.3572 -0.1106
 3312WAT     H110147   3.655   4.419   0.278  0.6379 -0.7696 -0.5183
 3312WAT     H210148   3.540   4.330   0.235 -0.0331  0.2908 -0.9812
 3313WAT      O10149   2.457   0.602   2.485  0.2641  0.8632  0.2006
 3313WAT     H110150   2.542   0.559   2.473 -0.3289 -0.9066  1.7087
 3313WAT     H210151   2.478   0.693   2.504  1.8121  0.4855  0.4382
 3314WAT      O10152   0.077   4.616   1.879 -0.5463  0.4408 -0.4103
 3314WAT     H110153   0.104   4.562   1.953  0.0989  1.8581  0.4253
 3314WAT     H210154   0.010   4.564   1.835 -1.3231 -0.2278  1.4624
 3315WAT      O10155   2.174   4.694   3.672 -0.3590  0.4635 -0.5788
 3315WAT     H110156   2.224   4.614   3.686  0.2133  0.9281  0.1526
 3315WAT     H210157   2.154   4.725   3.761 -2.3275  0.0694 -0.8492
 3316WAT      O10158   0.465   3.747   4.883  0.3408 -0.1474  0.8168
 3316WAT     H110159   0.541   3.770   4.831  0.8200  0.2027  1.6481
 3316WAT     H210160   0.473   3.801   4.962 -2.6112  2.5691 -0.5459
 3317WAT      O10161   2.071   4.190   2.299 -0.1372  0.3332 -0.5625
 3317WAT     H110162   2.064   4.264   2.239 -0.1776 -0.3931 -1.4782
 3317WAT     H210163   2.063   4.229   2.386  0.1651  1.4402 -1.0103
 3318WAT      O10164   1.038   4.449   3.851 -0.2199 -0.3372  0.0072
 3318WAT     H110165   1.119   4.487   3.884 -0.3272  2.1167 -2.2221
 3318WAT     H210166   1.066   4.376   3.796  0.3876 -0.3483  0.3309
 3319WAT      O10167   2.446   0.187   2.255  0.3584 -0.6988 -0.2789
 3319WAT     H110168   2.406   0.112   2.212 -0.5943 -2.0079  2.6207
 3319WAT     H210169   2.375   0.249   2.269  0.8102  0.0548 -1.1442
 3320WAT      O10170   4.221   3.383   1.074 -0.4585  0.2727 -0.2849
 3320WAT     H110171   4.159   3.335   1.019 -0.8132  2.2106 -1.6708
 3320WAT     H210172   4.170   3.456   1.110  0.7996  1.4939 -0.8753
 3321WAT      O10173   3.751   5.075   2.260 -0.4761  0.2761 -0.8064
 3321WAT     H110174   3.689   5.147   2.255 -0.5106  0.2796 -0.3826
 3321WAT     H210175   3.698   4.998   2.278 -0.3884  0.2337 -0.7253
 3322WAT      O10176   3.702   4.094   4.437 -0.0045  0.7252  0.0899
 3322WAT     H110177   3.725   4.187   4.443  0.8738  0.4735  0.9209
 3322WAT     H210178   3.781   4.048   4.465 -0.8047 -0.2484  0.8122
 3323WAT      O10179   2.079   0.747   3.628  0.0058  0.5857  0.1203
 3323WAT     H110180   2.147   0.758   3.561  1.5232  0.8067  1.6254
 3323WAT     H210181   2.120   0.694   3.695 -1.1744  1.0944  1.2809
 3324WAT      O10182   0.137   0.162   4.116  0.1653  0.6293  0.2418
 3324WAT     H110183   0.118   0.233   4.177  0.7727  0.5643  0.5199
 3324WAT     H210184   0.053   0.119   4.100  0.1098  0.2297  1.5497
 3325WAT      O10185   0.526   3.521   1.453 -0.5256 -0.5378  0.1179
 3325WAT     H110186   0.432   3.532   1.469 -0.6100  1.6294 -1.4244
 3325WAT     H210187   0.568   3.593   1.500 -0.0226  0.6622 -2.0456
 3326WAT      O10188   2.158   2.997   0.947  0.3974 -0.2245 -0.1826
 3326WAT     H110189   2.096   2.925   0.958  1.0053 -0.9324 -1.2763
 3326WAT     H210190   2.114   3.057   0.886  0.8833 -0.8657 -1.1848
 3327WAT      O10191   0.779   3.852   1.447 -0.0581  0.6015  0.3260
 3327WAT     H110192   0.865   3.870   1.485  0.9448 -1.0534 -1.0204
 3327WAT     H210193   0.737   3.792   1.509  0.6979 -0.3771 -0.0820
 3328WAT      O10194   0.298   4.629   1.430 -0.0439 -0.0558 -0.2273
 3328WAT     H110195   0.228   4.648   1.493  0.2498  0.5737 -0.0826
 3328WAT     H210196   0.269   4.669   1.348 -0.6288 -1.2546 -0.6158
 3329WAT      O10197   3.917   0.523   1.978  0.3149 -0.0602 -1.0044
 3329WAT     H110198   3.857   0.596   1.994 -1.1086 -1.3404 -0.2181
 3329WAT     H210199   3.947   0.498   2.066  2.2297  0.6799 -1.3898
 3330WAT      O10200   0.469   1.998   3.567  0.6242  0.7241  0.3480
 3330WAT     H110201   0.542   2.023   3.624  0.6322 -0.5618  0.9353
 3330WAT     H210202   0.502   1.923   3.517  0.4304  1.4922 -0.9771
 3331WAT      O10203   1.965   1.775   1.003  0.0704  0.2557  0.2658
 3331WAT     H110204   1.988   1.744   0.916  1.6020  0.0760  0.7156
 3331WAT     H210205   1.870   1.759   1.010  0.3876 -2.2939 -0.3389
 3332WAT      O10206   2.475   2.791   3.881  0.0743  0.4985  0.5273
 3332WAT     H110207   2.532   2.795   3.804  0.3521  0.8656  0.7527
 3332WAT     H210208   2.533   2.799   3.956 -0.1615 -0.1990  0.7967
 3333WAT      O10209   3.052   0.393   2.680  0.1219  0.1212  0.3824
 3333WAT     H110210   3.039   0.364   2.589 -2.4186 -0.7239  0.9254
 3333WAT     H210211   3.124   0.455   2.675  0.7168 -0.6460 -2.0588
 3334WAT      O10212   3.848   0.459   1.730  0.1721  0.3813  0.2960
 3334WAT     H110213   3.886   0.374   1.708 -0.9066 -0.4684  1.6273
 3334WAT     H210214   3.869   0.472   1.822 -1.9568  0.2781  0.8534
 3335WAT      O10215   1.906   2.965   5.267  0.0314  0.1420 -0.3120
 3335WAT     H110216   1.881   2.880   5.303 -2.0434  0.5641 -0.6100
 3335WAT     H210217   1.967   3.001   5.331  0.2039 -1.1665  0.2882
 3336WAT      O10218   4.266   4.196   3.870  0.2901  0.4150 -0.0035
 3336WAT     H110219   4.341   4.209   3.927  2.0350  0.0426 -2.0840
 3336WAT     H210220   4.277   4.108   3.835 -0.4547  0.7773 -1.2381
 3337WAT      O10221   4.482   3.217   1.996  0.1295 -0.3003 -0.4632
 3337WAT     H110222   4.517   3.217   1.907 -1.1566 -0.7942 -0.9897
 3337WAT     H210223   4.442   3.130   2.007  1.7558 -0.9018  1.2215
 3338WAT      O10224   1.009   0.889   1.500  0.4476 -0.4340 -0.2250
 3338WAT     H110225   1.033   0.905   1.409  1.3499 -2.5321 -0.4345
 3338WAT     H210226   1.016   0.793   1.510  1.3333 -0.2014  2.2859
 3339WAT      O10227   2.799   4.370   1.394 -0.4615 -0.0711  0.2397
 3339WAT     H110228   2.821   4.443   1.453 -1.4339 -0.0736  0.6200
 3339WAT     H210229   2.717   4.397   1.352 -1.0536 -1.1142  0.6853
 3340WAT      O10230   2.538   5.069   0.685  0.1998  0.4616 -0.0179
 3340WAT     H110231   2.445   5.083   0.671  0.4171  1.0063 -1.0311
 3340WAT     H210232   2.560   4.995   0.629  0.2359 -0.1527  0.7936
 3341WAT      O10233   0.703   2.183   2.362 -0.0929  0.6433 -0.4633
 3341WAT     H110234   0.616   2.153   2.338  0.9141 -1.1098 -2.2619
 3341WAT     H210235   0.746   2.202   2.278  2.1100 -1.1977  0.1460
 3342WAT      O10236   3.261   4.434   3.093  1.2759  0.2292  0.7261
 3342WAT     H110237   3.307   4.482   3.162  1.8095  0.7484  0.0253
 3342WAT     H210238   3.328   4.378   3.053  0.9037 -0.2963  0.8243
 3343WAT      O10239   1.691   4.473   0.363  0.4775  0.2200  0.0817
 3343WAT     H110240   1.653   4.413   0.299  0.0592 -1.0525  1.4606
 3343WAT     H210241   1.784   4.449   0.367  0.4605  0.1569  0.0975
 3344WAT      O10242   1.888   0.526   0.718 -0.4083 -0.6201 -0.1622
 3344WAT     H110243   1.904   0.460   0.650  2.1837  1.5135 -1.8421
 3344WAT     H210244   1.974   0.541   0.757 -1.2882  0.4644  1.4733
 3345WAT      O10245   2.641   3.684   2.301 -0.0876  0.0826 -0.0668
 3345WAT     H110246   2.714   3.741   2.327 -0.2014  0.8876 -1.4271
 3345WAT     H210247   2.643   3.613   2.365  2.4568 -0.3963 -0.5668
 3346WAT      O10248   1.175   0.627   2.373 -1.0155  0.4468  0.3762
 3346WAT     H110249   1.148   0.554   2.318 -0.8253  0.0564  0.7901
 3346WAT     H210250   1.270   0.633   2.360 -0.8692 -0.0671  1.1507
 3347WAT      O10251   2.540   3.150   3.649  0.0169 -0.2722  0.2788
 3347WAT     H110252   2.476   3.168   3.579 -0.8191  0.0719  1.1136
 3347WAT     H210253   2.490   3.158   3.730  0.3456 -3.2343  0.8739
 3348WAT      O10254   2.231   4.189   0.878 -0.0692  0.0196  0.4039
 3348WAT     H110255   2.209   4.277   0.910 -2.4572  0.0461 -1.1080
 3348WAT     H210256   2.154   4.137   0.898  0.5729 -1.2857 -0.4115
 3349WAT      O10257   0.604   0.579   2.775 -0.0988  0.1855 -0.0765
 3349WAT     H110258   0.610   0.576   2.680 -1.8738  0.6677 -0.2369
 3349WAT     H210259   0.510   0.580   2.793  0.1236 -2.3895  1.7873
 3350WAT      O10260   2.208   0.602   2.387 -0.3023 -0.3088 -0.3955
 3350WAT     H110261   2.279   0.593   2.451 -0.2839  0.0794 -0.3596
 3350WAT     H210262   2.253   0.608   2.302  0.1131  4.7023 -0.0982
 3351WAT      O10263   2.865   0.616   3.500 -0.1170  0.7077 -0.4880
 3351WAT     H110264   2.785   0.642   3.455 -0.1396  2.2935  0.3943
 3351WAT     H210265   2.935   0.654   3.448  0.0099  0.1644 -0.7144
 3352WAT      O10266   0.204   0.651   4.851  0.0983  0.3394 -0.8365
 3352WAT     H110267   0.264   0.712   4.894  1.9008 -1.0681 -1.2255
 3352WAT     H210268   0.221   0.662   4.758  0.1126 -0.4337 -0.9297
 3353WAT      O10269   4.504   1.654   3.257 -0.7733 -0.4378  0.0557
 3353WAT     H110270   4.532   1.651   3.349 -0.8357 -2.8018  0.0430
 3353WAT     H210271   4.509   1.747   3.234  2.3263 -0.0990  1.4994
 3354WAT      O10272   3.406   2.396   1.454  0.0664  0.2768  0.3128
 3354WAT     H110273   3.448   2.313   1.475 -1.1327 -0.4809 -0.2172
 3354WAT     H210274   3.435   2.415   1.365  0.3783  0.4660  0.4509
 3355WAT      O10275   1.740   3.703   1.581  0.0951  0.7300  0.6740
 3355WAT     H110276   1.796   3.708   1.659 -0.5662 -0.2962  1.2300
 3355WAT     H210277   1.688   3.784   1.585  0.9593  1.3061  0.5837
 3356WAT      O10278   3.567   2.926   2.733 -0.5725 -0.3659  0.1528
 3356WAT     H110279   3.491   2.892   2.686 -0.4114  0.5774 -0.8252
 3356WAT     H210280   3.630   2.854   2.732  0.0536  0.0991 -2.5442
 3357WAT      O10281   2.093   5.122   4.856  0.3185  0.5032  0.0259
 3357WAT     H110282   2.121   5.070   4.781 -1.2314 -0.0186 -0.2359
 3357WAT     H210283   2.040   5.193   4.818 -1.8418 -0.6851  0.6627
 3358WAT      O10284   4.373   0.003   4.592  0.5375 -0.1692  0.4196
 3358WAT     H110285   4.361  -0.054   4.667  1.2711 -0.2176  0.5085
 3358WAT     H210286   4.343   0.089   4.621 -1.0832 -0.6065  0.1130
 3359WAT      O10287   1.377   3.389   0.909 -0.2553 -0.4624 -0.3061
 3359WAT     H110288   1.458   3.414   0.954 -0.1678  0.8707 -1.1144
 3359WAT     H210289   1.385   3.295   0.894  1.5480 -0.2216 -1.1020
 3360WAT      O10290   1.247   0.072   2.132 -0.7811 -0.2470  0.2493
 3360WAT     H110291   1.305   0.096   2.205 -0.4852 -0.4179  0.0753
 3360WAT     H210292   1.266   0.137   2.065 -0.1733 -0.7986 -0.1228
 3361WAT      O10293   3.476   2.693   4.815  0.2270 -0.0272 -0.4389
 3361WAT     H110294   3.470   2.743   4.734  1.3171  0.7331 -0.0639
 3361WAT     H210295   3.518   2.611   4.789  1.3021  0.5342 -0.5201
 3362WAT      O10296   4.062   1.162   3.936  0.2126 -0.2100 -0.2552
 3362WAT     H110297   4.055   1.216   4.015  0.7058 -1.0713  0.3968
 3362WAT     H210298   4.105   1.219   3.872 -1.2038  0.8817 -0.2914
 3363WAT      O10299   4.437   1.218   4.501 -0.0017 -0.0763 -0.1663
 3363WAT     H110300   4.521   1.249   4.537  0.3326 -2.0067  0.8842
 3363WAT     H210301   4.374   1.236   4.570  0.2712 -1.9277  0.6486
 3364WAT      O10302   4.016   0.156   2.503  0.4616 -0.5333 -0.1178
 3364WAT     H110303   3.921   0.165   2.502  0.3716 -0.5809  2.1633
 3364WAT     H210304   4.036   0.097   2.431 -1.1407  0.0969 -1.1283
 3365WAT      O10305   4.454   1.763   2.642 -0.2035  0.2648 -0.0287
 3365WAT     H110306   4.468   1.689   2.583  0.8135  0.2876  0.1673
 3365WAT     H210307   4.542   1.795   2.662 -0.5873  0.9541  0.6187
 3366WAT      O10308   1.948   0.027   2.315 -0.4654  0.6153  0.3383
 3366WAT     H110309   1.862  -0.002   2.284 -0.1923  0.3621 -0.1961
 3366WAT     H210310   1.998  -0.054   2.323  0.1226  0.8727 -0.5941
 3367WAT      O10311   2.594   0.093   1.432  0.4025 -0.0287 -0.6624
 3367WAT     H110312   2.586   0.160   1.364 -2.3050  1.2615  0.7727
 3367WAT     H210313   2.575   0.011   1.386 -2.2479  0.8988 -1.4018
 3368WAT      O10314   3.925   4.022   0.703 -0.1989 -0.3611 -0.0320
 3368WAT     H110315   3.935   3.927   0.706  3.0516 -0.0845  1.3011
 3368WAT     H210316   3.946   4.045   0.612 -4.3691 -1.0251 -1.3917
 3369WAT      O10317   1.047   1.473   1.948 -0.4846 -0.2688 -0.0940
 3369WAT     H110318   1.067   1.404   2.011  2.4050 -0.4580 -1.0737
 3369WAT     H210319   0.992   1.535   1.997 -1.1821 -2.0679  1.5064
 3370WAT      O10320   0.092   3.058   3.268  0.6070  0.2168 -0.1740
 3370WAT     H110321   0.105   3.126   3.334  0.1333 -0.0291  0.1789
 3370WAT     H210322   0.176   3.012   3.264  0.6938  0.3465  0.1293
 3371WAT      O10323   4.157   0.264   1.145  0.0185 -0.0901  0.2121
 3371WAT     H110324   4.249   0.288   1.151  0.2035 -0.1717 -1.6674
 3371WAT     H210325   4.110   0.339   1.181  0.7855  0.5151 -0.0164
 3372WAT      O10326   4.252   4.167   3.001  0.6302  0.3882  0.0686
 3372WAT     H110327   4.312   4.110   2.952  1.8589  0.6257  1.2511
 3372WAT     H210328   4.264   4.141   3.092  0.6664  2.0304  0.5633
 3373WAT      O10329   0.520   5.122   3.955 -0.4795  0.7460 -0.6459
 3373WAT     H110330   0.518   5.057   4.025 -0.1489  0.7778 -0.6086
 3373WAT     H210331   0.478   5.078   3.881 -0.3505  0.5277 -0.5896
 3374WAT      O10332   2.483   4.056   0.815 -0.3102 -0.1948  0.3636
 3374WAT     H110333   2.465   3.963   0.824 -3.0779  0.0692 -1.2181
 3374WAT     H210334   2.399   4.098   0.835 -0.0806  1.6958 -2.2214
 3375WAT      O10335   4.332   0.127   3.596  0.0252  0.1467 -0.3444
 3375WAT     H110336   4.318   0.033   3.593 -1.3575  0.3195  0.2303
 3375WAT     H210337   4.421   0.137   3.629  0.3687 -0.9506 -0.8980
 3376WAT      O10338   1.594   2.401   2.684 -0.1081 -0.3466  0.2110
 3376WAT     H110339   1.688   2.388   2.680 -0.0293  0.5186 -1.4339
 3376WAT     H210340   1.559   2.342   2.617 -0.6056  0.3548 -0.1591
 3377WAT      O10341   2.073   4.580   0.087  0.0782 -0.6202 -0.0906
 3377WAT     H110342   2.085   4.512   0.153 -0.8523 -1.3955 -0.7063
 3377WAT     H210343   2.096   4.538   0.004  0.8419  0.2279 -0.3317
 3378WAT      O10344   1.042   1.381   3.960 -0.8375 -0.2436  0.6676
 3378WAT     H110345   1.014   1.331   3.883  2.3511 -1.4552  0.1389
 3378WAT     H210346   1.005   1.468   3.946 -0.9575 -0.6226 -1.9095
 3379WAT      O10347   2.112   2.755   2.765 -0.7246  0.1415  0.0770
 3379WAT     H110348   2.177   2.723   2.703 -0.0760  1.7275 -0.1085
 3379WAT     H210349   2.028   2.743   2.720 -0.3418  0.4487 -0.7378
 3380WAT      O10350   0.900   0.275   5.271  0.4106 -0.4274  0.5205
 3380WAT     H110351   0.939   0.188   5.262 -0.2193 -0.5397 -1.6568
 3380WAT     H210352   0.806   0.259   5.271  0.2437  0.2911 -1.2971
 3381WAT      O10353   0.903   1.459   3.110 -0.2896  0.7121 -0.2743
 3381WAT     H110354   0.808   1.451   3.114 -0.4228  1.7812 -0.9113
 3381WAT     H210355   0.918   1.542   3.065  0.9427 -0.5361 -2.3194
 3382WAT      O10356   1.338   4.147   0.396 -0.6113  0.1520 -0.5730
 3382WAT     H110357   1.311   4.070   0.346 -1.4752  0.1448 -0.1096
 3382WAT     H210358   1.357   4.213   0.330 -2.7783  0.4912 -0.9174
 3383WAT      O10359   1.632   1.064   0.235  1.0773 -0.1550  0.3202
 3383WAT     H110360   1.686   1.121   0.289  0.1722  0.6687  0.3757
 3383WAT     H210361   1.573   1.123   0.188 -1.0569 -1.1008  1.6686
 3384WAT      O10362   4.093   1.063   2.371  0.3834 -0.0235  0.1902
 3384WAT     H110363   4.176   1.101   2.340  0.5997 -0.9030 -0.3620
 3384WAT     H210364   4.086   0.980   2.322  0.1321 -0.8792  1.6232
 3385WAT      O10365   3.266   2.044   1.835 -0.1506 -0.1228 -0.0416
 3385WAT     H110366   3.198   2.108   1.816 -0.6037 -0.1339  1.4006
 3385WAT     H210367   3.221   1.959   1.831  0.5403 -0.4348 -2.3758
 3386WAT      O10368   2.756   0.144   4.899  0.1507  0.1669 -0.8410
 3386WAT     H110369   2.662   0.156   4.911 -0.1478 -1.6666 -1.1430
 3386WAT     H210370   2.793   0.154   4.987 -0.7941 -2.7322 -0.0193
 3387WAT      O10371   3.302   1.718   4.623  0.0240  0.5259 -0.1929
 3387WAT     H110372   3.260   1.663   4.690 -0.5048  1.0531 -0.0831
 3387WAT     H210373   3.232   1.735   4.559  0.7559 -0.7488 -1.3975
 3388WAT      O10374   3.219   2.922   5.181 -0.4696 -1.0324 -0.3775
 3388WAT     H110375   3.227   2.827   5.171  0.7358 -0.8873 -1.0197
 3388WAT     H210376   3.129   2.941   5.154 -1.0043 -2.0730  0.5869
 3389WAT      O10377   3.405   3.481   4.383 -0.6804 -0.1212 -0.6566
 3389WAT     H110378   3.335   3.451   4.441 -0.7683 -1.6468 -1.5118
 3389WAT     H210379   3.361   3.505   4.302 -0.1460 -2.2451 -1.6353
 3390WAT      O10380   1.826   2.337   0.164  0.3296  0.5033 -0.4891
 3390WAT     H110381   1.744   2.289   0.183  0.9857 -0.8939 -1.0094
 3390WAT     H210382   1.878   2.274   0.113  2.1004  1.0389  0.6059
 3391WAT      O10383   2.001   2.191   5.295 -0.7286 -0.2757 -0.3989
 3391WAT     H110384   2.009   2.280   5.262  0.1587  0.3898  1.4837
 3391WAT     H210385   2.068   2.141   5.248  1.5316  0.9733  1.3230
 3392WAT      O10386   2.393   4.316   2.168  0.1664 -0.4691 -0.0411
 3392WAT     H110387   2.328   4.375   2.130  1.2019  0.0144 -1.1298
 3392WAT     H210388   2.396   4.341   2.261  0.3777  1.0158 -0.4164
 3393WAT      O10389   0.173   1.513   4.006 -0.5185 -0.1939  0.0932
 3393WAT     H110390   0.221   1.557   4.076 -0.8979 -0.1358  0.3218
 3393WAT     H210391   0.239   1.494   3.939  0.1224 -1.5460  1.0668
 3394WAT      O10392   4.255   0.632   5.033 -0.7241 -0.0289  0.1048
 3394WAT     H110393   4.182   0.660   4.977 -0.8416 -2.0319 -0.8349
 3394WAT     H210394   4.330   0.625   4.973  0.0646  1.2124  0.9082
 3395WAT      O10395   3.336   5.026   2.428  0.6950 -0.2373 -0.5304
 3395WAT     H110396   3.342   4.958   2.495  0.5495 -0.0699 -0.3457
 3395WAT     H210397   3.244   5.023   2.400  1.0180 -1.0780 -1.5351
 3396WAT      O10398   0.018   0.618   4.336 -0.4155  0.0047 -0.0261
 3396WAT     H110399   0.090   0.675   4.308 -1.5775  1.7906  0.4830
 3396WAT     H210400  -0.061   0.669   4.320 -1.4484 -1.0974  1.3424
 3397WAT      O10401   4.428   4.271   4.362 -0.4239  0.1407  0.1767
 3397WAT     H110402   4.446   4.319   4.443 -1.4325  0.1946  0.3873
 3397WAT     H210403   4.394   4.187   4.391 -1.8794  0.5796 -0.1552
 3398WAT      O10404   1.760   1.104   3.470  0.2976 -0.6057 -0.5305
 3398WAT     H110405   1.728   1.031   3.524 -0.8208  0.2132 -0.0343
 3398WAT     H210406   1.710   1.180   3.502  1.7928  0.4795 -0.6938
 3399WAT      O10407   1.334   2.059   0.027 -0.2889  0.0427 -0.1089
 3399WAT     H110408   1.329   1.963   0.019  0.8460 -0.4584  3.4143
 3399WAT     H210409   1.253   2.090  -0.012 -0.7723 -2.3368 -1.2305
 3400WAT      O10410   0.477   4.790   1.590 -0.0162 -0.1490  0.3626
 3400WAT     H110411   0.417   4.739   1.646 -0.1148 -0.7798 -0.3007
 3400WAT     H210412   0.482   4.740   1.509 -0.0306  0.8527 -0.2780
 3401WAT      O10413   0.499   4.479   4.954 -0.0496 -0.5944 -0.2155
 3401WAT     H110414   0.554   4.518   5.022 -0.8286 -0.6725  0.4627
 3401WAT     H210415   0.500   4.544   4.884  1.1690 -0.7375 -0.3650
 3402WAT      O10416   4.384   3.216   4.267 -0.2844  0.8714  0.4633
 3402WAT     H110417   4.435   3.289   4.231  0.9597  0.1345  0.6686
 3402WAT     H210418   4.374   3.236   4.360 -0.9464  1.3255  0.3052
 3403WAT      O10419   0.093   3.349   4.688 -0.0947  0.3967  0.1503
 3403WAT     H110420   0.014   3.339   4.740  1.1781  0.3352  2.1889
 3403WAT     H210421   0.108   3.444   4.686  0.5589  0.3215  1.0446
 3404WAT      O10422   2.202   0.612   3.817  0.3372 -0.0666 -0.0104
 3404WAT     H110423   2.151   0.540   3.855 -0.6769  0.1694 -0.8832
 3404WAT     H210424   2.292   0.595   3.845 -0.2706 -0.2044  2.0156
 3405WAT      O10425   1.121   2.234   1.325  0.5503  0.4251 -0.5017
 3405WAT     H110426   1.192   2.243   1.388  1.3594  1.1134 -1.4592
 3405WAT     H210427   1.159   2.184   1.253 -0.7195 -1.4251  0.0473
 3406WAT      O10428   2.994   2.373   0.767 -0.4028  0.1955 -0.0529
 3406WAT     H110429   3.030   2.334   0.687 -2.8786 -1.1511 -0.6224
 3406WAT     H210430   2.999   2.303   0.832 -0.3328  0.5838  0.3645
 3407WAT      O10431   0.028   2.524   0.098  0.0895 -0.2709 -0.2092
 3407WAT     H110432   0.117   2.502   0.125  0.0809 -0.5999 -0.4470
 3407WAT     H210433   0.040   2.591   0.030  0.0937  1.0024  0.9999
 3408WAT      O10434   3.256   1.502   3.411 -0.0512  0.1008 -0.5822
 3408WAT     H110435   3.180   1.559   3.418  2.0160  3.0917 -0.9203
 3408WAT     H210436   3.262   1.481   3.318 -0.1640  0.2494 -0.6232
 3409WAT      O10437   4.143   4.356   3.512 -0.2538  0.1906  0.2967
 3409WAT     H110438   4.104   4.286   3.564 -0.9195 -0.6690 -1.3017
 3409WAT     H210439   4.237   4.352   3.533 -0.0489 -2.1537 -0.8196
 3410WAT      O10440   4.209   4.941   1.965 -0.4735 -0.5363 -0.1865
 3410WAT     H110441   4.228   4.896   2.046  0.6963  0.6286  0.2334
 3410WAT     H210442   4.114   4.955   1.966 -0.3619  0.2779  1.4304
 3411WAT      O10443   2.580   4.885   4.600  0.2915 -0.1320 -0.9484
 3411WAT     H110444   2.579   4.976   4.570 -0.2984  0.4205  0.6510
 3411WAT     H210445   2.650   4.844   4.549 -0.2742  0.8711 -2.6136
 3412WAT      O10446   2.897   4.245   0.627 -0.8188 -0.3955 -0.0139
 3412WAT     H110447   2.850   4.210   0.552  0.8857 -0.1019 -1.2942
 3412WAT     H210448   2.987   4.254   0.596 -0.1168 -0.0156  2.0015
 3413WAT      O10449   4.217   1.598   3.655 -0.5615  0.0489  0.1823
 3413WAT     H110450   4.194   1.596   3.562 -0.3242  0.2565  0.1189
 3413WAT     H210451   4.140   1.635   3.697 -0.8256 -0.4140  0.1176
 3414WAT      O10452   2.856   4.503   3.103 -0.3363 -0.4394  0.7243
 3414WAT     H110453   2.923   4.545   3.050 -0.4642 -0.8117  0.2613
 3414WAT     H210454   2.872   4.536   3.192 -1.6452  2.1405  0.1029
 3415WAT      O10455   1.253   2.871   5.025  0.0817  0.1695 -0.9183
 3415WAT     H110456   1.288   2.784   5.042  1.1651  0.6300 -0.7320
 3415WAT     H210457   1.211   2.863   4.939  2.1007 -0.0055 -1.9569
 3416WAT      O10458   1.222   1.172   0.469 -0.4236 -0.6732 -0.0634
 3416WAT     H110459   1.206   1.176   0.563 -0.6577 -3.5269  0.1108
 3416WAT     H210460   1.138   1.144   0.432 -0.4493  0.7952 -1.2010
 3417WAT      O10461   2.396   5.121   2.464  0.0641  0.0283  0.8221
 3417WAT     H110462   2.414   5.202   2.417 -1.4685 -0.8075 -1.3589
 3417WAT     H210463   2.392   5.147   2.556  0.9287  2.1446  0.3216
 3418WAT      O10464   4.475   4.196   4.677  0.1403  0.5059 -0.6843
 3418WAT     H110465   4.509   4.178   4.764 -1.1752  0.3632 -0.1681
 3418WAT     H210466   4.536   4.154   4.617  1.7441  1.6518  0.0832
 3419WAT      O10467   1.928   0.925   4.444 -0.3342 -0.6967  0.0245
 3419WAT     H110468   1.913   0.832   4.456 -1.8124 -0.6321 -1.0358
 3419WAT     H210469   1.948   0.935   4.351 -0.0742  0.0265  0.1472
 3420WAT      O10470   3.194   1.824   4.217  0.2929 -0.3505  0.0545
 3420WAT     H110471   3.174   1.905   4.171  3.9607  0.9555  0.4450
 3420WAT     H210472   3.231   1.767   4.150  0.8842 -0.3767  0.3919
 3421WAT      O10473   0.705   2.846   3.186 -0.1278 -0.3248 -0.5808
 3421WAT     H110474   0.794   2.880   3.192 -0.5655  0.6737  0.5839
 3421WAT     H210475   0.695   2.822   3.094  0.5395  1.8184 -1.2727
 3422WAT      O10476   3.387   1.385   2.554  0.0972 -1.0897  0.4104
 3422WAT     H110477   3.365   1.460   2.609 -1.0670 -0.2476 -1.1270
 3422WAT     H210478   3.458   1.417   2.497  2.1791 -2.3335  2.1511
 3423WAT      O10479   2.669   3.887   2.077  0.4776  0.4154  0.1433
 3423WAT     H110480   2.631   3.799   2.089  2.9372 -1.0627 -1.9317
 3423WAT     H210481   2.605   3.946   2.117 -2.5099 -2.0782 -0.5672
 3424WAT      O10482   2.830   1.954   4.720  0.0498  0.2330  0.0729
 3424WAT     H110483   2.788   1.880   4.765 -1.2838  0.6123 -0.5079
 3424WAT     H210484   2.923   1.944   4.741 -0.1050 -1.5436  0.1126
 3425WAT      O10485   1.450   4.115   1.812 -0.1310 -0.5174  0.1118
 3425WAT     H110486   1.433   4.124   1.719 -0.8680  0.0701  0.2887
 3425WAT     H210487   1.542   4.090   1.818  0.4792  1.3358 -0.7203
 3426WAT      O10488   0.552   4.378   1.101  0.5855  0.0879 -1.1133
 3426WAT     H110489   0.485   4.345   1.161  0.2116  0.2972 -1.4111
 3426WAT     H210490   0.632   4.382   1.154  0.6309 -1.2406 -1.0570
 3427WAT      O10491   1.341   0.201   0.852 -0.1616  0.3467  0.1541
 3427WAT     H110492   1.417   0.258   0.855  0.2657 -0.2220  0.4444
 3427WAT     H210493   1.327   0.176   0.944 -1.2590  1.1667  0.2304
 3428WAT      O10494   1.964   2.915   3.295 -0.3095  0.4350  0.1058
 3428WAT     H110495   1.875   2.901   3.263 -0.4266  2.0661 -0.3302
 3428WAT     H210496   2.008   2.832   3.277 -1.8700 -0.6379  0.8875
 3429WAT      O10497   4.125   1.189   0.696 -0.1599  0.3706 -0.0488
 3429WAT     H110498   4.105   1.163   0.606  0.2387 -0.5954  0.1230
 3429WAT     H210499   4.078   1.271   0.709  0.3380  0.8883 -1.3669
 3430WAT      O10500   4.010   4.266   2.507  0.2442  0.1789 -0.2450
 3430WAT     H110501   3.957   4.329   2.459 -0.0914 -0.6902 -1.0492
 3430WAT     H210502   4.094   4.265   2.461  0.9163  1.3822  0.8869
 3431WAT      O10503   4.227   3.518   4.777  0.3180 -0.0724  0.1304
 3431WAT     H110504   4.253   3.438   4.823  1.4717  1.6418  2.6689
 3431WAT     H210505   4.242   3.588   4.840  1.0281  2.3763 -2.5521
 3432WAT      O10506   1.517   3.798   1.298 -0.3337 -0.2504 -0.3184
 3432WAT     H110507   1.525   3.703   1.312  0.6158 -0.2692 -0.8885
 3432WAT     H210508   1.564   3.837   1.372 -0.3735 -0.2351 -0.3013
 3433WAT      O10509   3.051   2.268   1.155  0.1974 -0.5384 -0.1106
 3433WAT     H110510   3.101   2.200   1.202 -1.1394 -0.7056  1.1486
 3433WAT     H210511   3.116   2.334   1.133  0.7348  0.3328  3.4376
 3434WAT      O10512   0.424   0.607   4.055 -0.5675  0.6628  0.4441
 3434WAT     H110513   0.502   0.561   4.086  0.0593  0.8441 -0.7957
 3434WAT     H210514   0.351   0.558   4.092  0.1019 -0.8078 -0.1186
 3435WAT      O10515   3.580   2.835   0.433 -0.1057  0.0627  0.1468
 3435WAT     H110516   3.562   2.742   0.425  2.5807 -0.4435 -0.8789
 3435WAT     H210517   3.507   2.877   0.386 -0.8220 -1.5702 -0.2525
 3436WAT      O10518   1.859   2.246   0.738  0.1074  0.5899  0.6109
 3436WAT     H110519   1.845   2.157   0.772  0.5115 -0.0814 -0.9097
 3436WAT     H210520   1.918   2.234   0.664  1.6728  2.3422  1.4947
 3437WAT      O10521   0.974   0.544   4.289 -0.1108  0.4077  0.0624
 3437WAT     H110522   0.944   0.547   4.380  2.3362  0.6248  0.9317
 3437WAT     H210523   0.972   0.451   4.266  0.5345  0.2047  0.8094
 3438WAT      O10524   0.930   1.672   2.930  0.0547 -0.5268  0.1491
 3438WAT     H110525   0.996   1.672   2.860 -1.3039 -1.5586 -1.1865
 3438WAT     H210526   0.849   1.648   2.887 -1.1882  0.4686  1.8065
 3439WAT      O10527   0.534   4.190   5.008 -0.2258  0.3350 -0.1421
 3439WAT     H110528   0.578   4.159   4.928 -0.6523  0.9315 -0.6232
 3439WAT     H210529   0.493   4.272   4.982 -0.5954  0.4039  0.6295
 3440WAT      O10530   2.775   0.874   0.112  0.7539  0.2314  0.2307
 3440WAT     H110531   2.759   0.782   0.131  1.0336 -0.1985 -1.4924
 3440WAT     H210532   2.842   0.900   0.175 -0.1563 -0.4126  1.4962
 3441WAT      O10533   0.782   3.274   3.626 -0.3059  0.4212  0.0384
 3441WAT     H110534   0.765   3.259   3.719 -1.1063 -1.1107 -0.3249
 3441WAT     H210535   0.801   3.368   3.620 -0.1216  0.5317  1.7505
 3442WAT      O10536   3.476   2.199   1.788  0.0270  0.3473  0.3649
 3442WAT     H110537   3.412   2.132   1.815  1.9809 -1.4830  0.6922
 3442WAT     H210538   3.503   2.173   1.700  0.8845  0.6444  0.5286
 3443WAT      O10539   0.645   3.387   2.254 -0.1781 -0.2024 -0.9493
 3443WAT     H110540   0.579   3.439   2.300 -1.0805 -1.9257 -0.2156
 3443WAT     H210541   0.595   3.332   2.193  0.4657 -1.9930  0.0607
 3444WAT      O10542   1.920   4.910   0.830  0.6069  0.4236  0.3592
 3444WAT     H110543   1.878   4.825   0.820 -0.0247  0.5924  1.3891
 3444WAT     H210544   1.916   4.949   0.743  2.0166 -1.0689 -0.4369
 3445WAT      O10545   0.805   1.922   1.700 -0.6585  0.3833 -0.0268
 3445WAT     H110546   0.854   1.858   1.648 -0.9609 -0.4471  0.6955
 3445WAT     H210547   0.770   1.983   1.635 -1.1631 -0.7291 -0.8279
 3446WAT      O10548   4.236   4.643   3.659  0.2890 -0.3117  0.7207
 3446WAT     H110549   4.319   4.667   3.702  0.5215 -0.3472  0.2900
 3446WAT     H210550   4.251   4.556   3.623  0.2372 -0.1063  0.1925
 3447WAT      O10551   0.419   1.695   1.291  0.1960  0.4252 -0.0340
 3447WAT     H110552   0.453   1.785   1.288 -0.6168  0.7684  0.8780
 3447WAT     H210553   0.328   1.704   1.316 -0.2118 -0.6009 -1.0456
 3448WAT      O10554   2.712   1.138   0.871  0.3544 -0.2846  0.1860
 3448WAT     H110555   2.741   1.227   0.892  4.5044 -1.2276 -0.6584
 3448WAT     H210556   2.742   1.085   0.944 -0.3502 -1.2721 -0.2136
 3449WAT      O10557   0.370   0.086   1.890  0.0129 -0.1896  0.3442
 3449WAT     H110558   0.371   0.130   1.975 -0.4893  0.3461  0.0792
 3449WAT     H210559   0.290   0.034   1.891  0.8468 -1.5129  0.8492
 3450WAT      O10560   2.550   3.468   1.299 -0.1448 -0.0447  0.1639
 3450WAT     H110561   2.459   3.499   1.294 -0.3147 -0.5505  0.0362
 3450WAT     H210562   2.546   3.377   1.269  0.4553  0.0244 -0.1354
 3451WAT      O10563   4.214   1.770   0.702  0.1616 -0.3485 -0.6527
 3451WAT     H110564   4.210   1.844   0.642  0.2920 -0.9518 -1.4189
 3451WAT     H210565   4.213   1.810   0.789  1.4964  0.6227 -1.0487
 3452WAT      O10566   2.009   2.040   1.798 -0.7148 -0.5988 -0.7348
 3452WAT     H110567   1.978   1.956   1.764 -0.3673 -0.9066 -0.3068
 3452WAT     H210568   2.104   2.030   1.805 -0.8103 -0.7023  0.7122
 3453WAT      O10569   0.618   0.463   3.012 -0.0457  0.3280  0.4417
 3453WAT     H110570   0.591   0.535   2.954 -2.6401 -0.4932  0.4793
 3453WAT     H210571   0.540   0.444   3.064  0.8917 -1.7894  1.1874
 3454WAT      O10572   4.282   4.010   5.027 -0.1812  0.1234 -0.0409
 3454WAT     H110573   4.262   4.102   5.011  0.3183  0.1948 -0.2894
 3454WAT     H210574   4.211   3.979   5.083 -1.9498 -0.1226 -2.2840
 3455WAT      O10575   3.869   3.180   3.343 -0.1141  0.3028  0.3637
 3455WAT     H110576   3.963   3.164   3.335  0.0087  0.6958  0.9720
 3455WAT     H210577   3.853   3.260   3.293 -0.1049  0.3045  0.3635
 3456WAT      O10578   2.774   0.347   4.166  0.0616  0.2763  0.1474
 3456WAT     H110579   2.741   0.407   4.099 -3.4377 -0.8411  0.7070
 3456WAT     H210580   2.823   0.404   4.226 -1.7568  2.3330 -0.1972
 3457WAT      O10581   0.991   2.396   0.739  0.2203 -0.1004 -0.0365
 3457WAT     H110582   0.944   2.462   0.789  0.5646 -1.6822  2.5762
 3457WAT     H210583   0.957   2.313   0.770  1.8599 -1.2242 -1.0414
 3458WAT      O10584   1.588   4.314   3.469 -0.0527  0.0647 -0.5011
 3458WAT     H110585   1.546   4.377   3.527 -0.0081 -0.1594 -0.2234
 3458WAT     H210586   1.515   4.271   3.423 -0.1095 -0.0927 -0.2620
 3459WAT      O10587   2.280   3.761   4.277  0.3907  0.2987 -0.0825
 3459WAT     H110588   2.343   3.799   4.338 -1.6013  1.6136  1.2836
 3459WAT     H210589   2.204   3.739   4.331 -1.3152  1.1365 -1.9754
 3460WAT      O10590   0.397   4.928   2.706 -0.0212  0.0829  0.3011
 3460WAT     H110591   0.428   4.870   2.775  0.1352  0.2986  0.4135
 3460WAT     H210592   0.383   5.012   2.749  0.3903  0.3069  0.0113
 3461WAT      O10593   2.549   1.854   4.661  0.0888  0.1381 -0.2765
 3461WAT     H110594   2.547   1.945   4.690 -1.5871 -0.1254  0.5342
 3461WAT     H210595   2.520   1.857   4.569 -0.0802  0.4036 -0.2121
 3462WAT      O10596   0.308   2.632   4.193 -0.1774  0.3474 -0.3308
 3462WAT     H110597   0.404   2.630   4.198 -0.1919 -0.5821 -0.3105
 3462WAT     H210598   0.285   2.723   4.213  0.6307  0.3083  0.8336
 3463WAT      O10599   3.799   0.825   3.015 -0.0066  0.1987 -0.0761
 3463WAT     H110600   3.745   0.782   3.081  0.9853 -1.2106 -0.1475
 3463WAT     H210601   3.875   0.768   3.005 -0.0857  0.3998 -2.3685
 3464WAT      O10602   2.191   3.021   2.161 -0.2517 -0.1244 -0.1905
 3464WAT     H110603   2.218   2.932   2.139  0.1750  0.1681 -0.8738
 3464WAT     H210604   2.167   3.017   2.254  3.0648 -0.2102  0.7620
 3465WAT      O10605   4.182   0.809   0.595 -0.0118  0.0644  0.0452
 3465WAT     H110606   4.109   0.785   0.538  0.4128 -0.4456 -0.3015
 3465WAT     H210607   4.239   0.862   0.540  0.0578  0.1562  0.2055
 3466WAT      O10608   3.967   4.388   4.995  0.2123  0.3878  0.3613
 3466WAT     H110609   3.913   4.364   4.919 -0.4356  0.5641  0.7501
 3466WAT     H210610   4.041   4.327   4.993  0.2820  0.4944 -0.4957
 3467WAT      O10611   4.066   3.011   3.594  0.2220  0.1880  0.1330
 3467WAT     H110612   3.971   3.000   3.591  0.4327 -2.4568  0.3596
 3467WAT     H210613   4.094   3.005   3.502  0.3154 -1.2463  0.2375
 3468WAT      O10614   0.971   4.394   1.634  0.5419  0.0454  0.0286
 3468WAT     H110615   1.039   4.340   1.674  1.5121  0.3693 -1.1289
 3468WAT     H210616   0.938   4.341   1.561  0.4347  0.3917 -0.1780
 3469WAT      O10617   2.400   1.754   1.722  0.1969 -0.7340  0.2563
 3469WAT     H110618   2.349   1.693   1.668 -0.2240  0.3972 -0.6759
 3469WAT     H210619   2.491   1.735   1.701  0.0431 -0.5153 -0.6300
 3470WAT      O10620   1.959   3.472   0.253  0.0703  0.2808  0.2959
 3470WAT     H110621   2.023   3.406   0.225  1.5972  1.9469 -0.2818
 3470WAT     H210622   1.880   3.450   0.204  1.3146  0.3738 -1.8806
 3471WAT      O10623   2.275   2.388   1.234  0.1810  0.5682 -0.2048
 3471WAT     H110624   2.272   2.397   1.330  2.1418 -0.8948  0.0587
 3471WAT     H210625   2.222   2.311   1.215  2.1449 -0.9162  0.0735
 3472WAT      O10626   0.542   1.129   4.953  0.4365  0.6381 -0.3646
 3472WAT     H110627   0.461   1.180   4.959  0.2930  0.2981  0.7007
 3472WAT     H210628   0.591   1.151   5.032  2.2018  2.1566 -1.7957
 3473WAT      O10629   2.975   2.325   1.426  0.3295  0.0596 -0.7842
 3473WAT     H110630   2.889   2.292   1.451  1.2703 -1.6999  0.3197
 3473WAT     H210631   2.977   2.317   1.331 -1.4895  2.2218 -1.0977
 3474WAT      O10632   0.587   4.881   3.349 -0.5579 -0.5870 -0.1976
 3474WAT     H110633   0.605   4.870   3.255 -2.1728 -0.7754 -0.5105
 3474WAT     H210634   0.673   4.898   3.387  0.0178  0.6236 -1.8654
 3475WAT      O10635   0.521   3.192   1.706  0.1283 -0.5210  0.2146
 3475WAT     H110636   0.502   3.285   1.694 -0.4540 -0.6736 -0.0712
 3475WAT     H210637   0.607   3.191   1.748 -0.1532  0.1671  0.8429
 3476WAT      O10638   0.781   2.377   0.028  0.2028  0.2076 -0.2244
 3476WAT     H110639   0.825   2.357   0.110  0.7121 -0.5024 -0.6674
 3476WAT     H210640   0.764   2.292  -0.012 -1.0255  0.4919 -0.3497
 3477WAT      O10641   0.561   3.144   2.506  0.2820  0.8591 -0.4437
 3477WAT     H110642   0.591   3.223   2.549  0.7506  0.2293  0.4140
 3477WAT     H210643   0.472   3.165   2.477 -0.8714  0.7005  2.5895
 3478WAT      O10644   4.081   0.868   1.555  0.1510  0.7181  0.1560
 3478WAT     H110645   4.029   0.849   1.477 -0.2768  1.2522  0.3078
 3478WAT     H210646   4.017   0.889   1.623  0.5666  3.4390 -0.1930
 3479WAT      O10647   4.005   4.912   2.343  0.2874  0.6429 -0.5287
 3479WAT     H110648   4.030   4.992   2.297 -0.1950  1.2945  0.3044
 3479WAT     H210649   3.910   4.920   2.354  0.5540  1.3534  2.0269
 3480WAT      O10650   3.223   0.540   4.424 -0.2726 -0.4026  0.4820
 3480WAT     H110651   3.267   0.570   4.344  0.1308 -1.3606  0.3335
 3480WAT     H210652   3.219   0.618   4.480 -1.1213  0.4297 -0.7039
 3481WAT      O10653   1.867   0.799   1.890 -0.3701  0.2725  0.7729
 3481WAT     H110654   1.850   0.744   1.813  1.5970  1.2486 -0.4163
 3481WAT     H210655   1.872   0.737   1.962 -1.1243 -0.7914 -0.0455
 3482WAT      O10656   2.855   1.462   2.381 -0.1412 -0.5840 -0.3289
 3482WAT     H110657   2.836   1.386   2.436  0.8493 -1.0564 -0.6252
 3482WAT     H210658   2.801   1.532   2.419  0.2276 -0.9937  1.0136
 3483WAT      O10659   1.281   1.356   0.257  0.3532  0.4594  0.3077
 3483WAT     H110660   1.284   1.309   0.341 -1.1711  0.7682  0.5798
 3483WAT     H210661   1.333   1.435   0.273 -0.2829  0.7347  1.1336
 3484WAT      O10662   4.154   1.265   3.514 -0.3271  0.1233 -0.1422
 3484WAT     H110663   4.151   1.289   3.607 -1.1734  0.9221 -0.3665
 3484WAT     H210664   4.100   1.186   3.508 -0.3490  0.1249  0.0190
 3485WAT      O10665   3.115   1.040   3.392  0.0033  0.2571  0.4506
 3485WAT     H110666   3.143   1.071   3.305  0.8405 -1.2332  0.1610
 3485WAT     H210667   3.024   1.069   3.399 -0.7215 -1.1959 -1.7627
 3486WAT      O10668   3.230   3.307   2.776  0.3603  0.0305 -0.1376
 3486WAT     H110669   3.179   3.388   2.774 -0.9168 -0.6933  1.1452
 3486WAT     H210670   3.249   3.292   2.869  0.8228 -0.9922 -0.3744
 3487WAT      O10671   1.567   2.849   3.435  0.5849  0.0133  0.6435
 3487WAT     H110672   1.569   2.807   3.521 -0.4095  0.4741  0.9090
 3487WAT     H210673   1.620   2.928   3.446 -1.2627  1.2202  1.5077
 3488WAT      O10674   0.062   0.784   3.417  0.4508  0.1232  0.0383
 3488WAT     H110675   0.124   0.813   3.485  0.7111  1.9485 -0.9190
 3488WAT     H210676   0.092   0.697   3.393 -1.1373 -1.7498  3.9820
 3489WAT      O10677   1.583   4.191   0.495 -0.0613  0.3850 -0.2584
 3489WAT     H110678   1.588   4.249   0.419  0.6517 -0.0098 -0.5224
 3489WAT     H210679   1.504   4.139   0.480  1.4593 -1.5649 -2.1346
 3490WAT      O10680   3.649   1.596   1.058 -0.1520  0.6812 -0.6811
 3490WAT     H110681   3.736   1.618   1.024  1.4408 -2.3584  0.9971
 3490WAT     H210682   3.665   1.565   1.147 -2.6326 -1.8030 -0.9544
 3491WAT      O10683   1.117   0.860   0.356 -0.0457  0.5388  0.0992
 3491WAT     H110684   1.042   0.917   0.341  0.8203  2.0086  1.1316
 3491WAT     H210685   1.107   0.828   0.445  0.7783  1.1349  0.4213
 3492WAT      O10686   0.870   1.852   5.279 -0.1575 -0.0477  0.5077
 3492WAT     H110687   0.789   1.841   5.328  0.1813  1.6819  1.5379
 3492WAT     H210688   0.924   1.778   5.306 -1.8152 -1.9910 -1.2148
 3493WAT      O10689   2.297   3.010   4.155 -0.8677 -0.0055 -0.1495
 3493WAT     H110690   2.251   3.053   4.227 -0.2412  1.1693 -0.4292
 3493WAT     H210691   2.353   2.945   4.198 -1.4413 -0.1981  0.3199
 3494WAT      O10692   0.335   1.259   0.682 -0.7359 -0.0887 -0.5952
 3494WAT     H110693   0.308   1.253   0.590  1.5734 -1.5767 -1.2593
 3494WAT     H210694   0.418   1.305   0.679 -0.7874  0.1223  0.8140
 3495WAT      O10695   0.700   4.333   4.006  0.2564  0.0002  0.9983
 3495WAT     H110696   0.660   4.397   3.946  1.4028  0.8247  1.0668
 3495WAT     H210697   0.631   4.270   4.024 -0.7990  1.0046  0.5961
 3496WAT      O10698   4.282   1.502   1.934 -0.2096 -0.5204 -0.1481
 3496WAT     H110699   4.243   1.474   1.851  1.2438 -2.9414 -0.1255
 3496WAT     H210700   4.239   1.447   2.000  1.0513 -1.0814  0.2406
 3497WAT      O10701   4.095   4.826   0.362 -0.4949  0.1366 -0.0523
 3497WAT     H110702   4.053   4.870   0.437 -0.2630 -1.5582  1.1270
 3497WAT     H210703   4.172   4.784   0.399 -0.9922 -1.7001 -0.9997
 3498WAT      O10704   3.728   3.773   3.882 -0.2731  0.2291 -0.2146
 3498WAT     H110705   3.730   3.742   3.973  0.6928 -0.2245 -0.3729
 3498WAT     H210706   3.820   3.777   3.857 -0.4901  1.1911 -0.8998
 3499WAT      O10707   2.170   4.816   0.158 -0.3967 -0.0899 -0.1052
 3499WAT     H110708   2.242   4.854   0.109 -1.3734  1.6812 -0.2404
 3499WAT     H210709   2.151   4.733   0.114  0.1775  0.4335 -1.3535
 3500WAT      O10710   4.179   3.299   1.832 -0.0232 -0.3155  0.4119
 3500WAT     H110711   4.209   3.345   1.910 -1.6362  1.6579 -0.0566
 3500WAT     H210712   4.222   3.344   1.759  0.1807 -1.0730  0.0498
 3501WAT      O10713   1.788   5.136   1.275  0.3091  0.0611 -0.3152
 3501WAT     H110714   1.758   5.047   1.292 -0.9442  0.5977  0.4335
 3501WAT     H210715   1.769   5.151   1.183  1.0910 -0.6370 -0.6031
 3502WAT      O10716   1.805   4.270   0.879 -0.1002  0.1706 -0.0224
 3502WAT     H110717   1.819   4.353   0.926  0.5086  0.8488 -1.3257
 3502WAT     H210718   1.852   4.205   0.931 -0.2627  0.7076  0.8220
 3503WAT      O10719   2.342   3.149   3.451 -0.3529  0.0295  0.2339
 3503WAT     H110720   2.340   3.223   3.392  3.9832 -0.1240 -0.3993
 3503WAT     H210721   2.395   3.083   3.406  0.3220 -1.4027  2.9120
 3504WAT      O10722   0.397   4.270   2.035  0.5116  0.0095  0.7614
 3504WAT     H110723   0.401   4.360   2.002 -1.1405  0.2544  1.1368
 3504WAT     H210724   0.308   4.262   2.070  1.0892 -1.3286  1.9994
 3505WAT      O10725   1.635   1.022   0.699  0.3684 -0.4017  0.1416
 3505WAT     H110726   1.608   1.045   0.788  1.1256  0.1018  0.2536
 3505WAT     H210727   1.659   0.930   0.704  3.0216  0.2545  1.1498
 3506WAT      O10728   2.067   3.499   3.755  0.0404  0.2878  0.0189
 3506WAT     H110729   2.117   3.419   3.770 -2.0463 -1.2613 -0.7607
 3506WAT     H210730   2.023   3.516   3.838 -0.0353  0.2173 -0.0058
 3507WAT      O10731   4.454   2.282   1.704  0.7224  0.1364 -0.1191
 3507WAT     H110732   4.428   2.373   1.695 -2.2769 -0.7345 -1.5133
 3507WAT     H210733   4.503   2.279   1.786  0.1820  2.8296  0.3808
 3508WAT      O10734   3.854   3.364   4.379  0.0095 -0.4847 -0.1146
 3508WAT     H110735   3.888   3.278   4.404  1.8133  0.1074 -0.3934
 3508WAT     H210736   3.915   3.395   4.312 -0.3403  1.2208  0.3297
 3509WAT      O10737   3.084   5.080   4.875 -0.5024  0.6487  0.3623
 3509WAT     H110738   2.993   5.052   4.863 -0.2053  0.3503 -1.4006
 3509WAT     H210739   3.136   5.002   4.854  0.2017  1.2597 -0.2131
 3510WAT      O10740   3.153   0.375   3.389 -0.5798  0.2673 -0.8172
 3510WAT     H110741   3.059   0.386   3.404 -0.1908  2.0534  0.7034
 3510WAT     H210742   3.158   0.328   3.306 -2.8008  0.0257 -0.8992
 3511WAT      O10743   1.741   0.087   5.032 -0.0947  0.3269  0.1904
 3511WAT     H110744   1.760   0.003   5.074 -0.3891 -0.1391 -0.6044
 3511WAT     H210745   1.669   0.124   5.085 -0.0107  0.0502  0.5006
 3512WAT      O10746   1.281   4.810   2.998  0.1314  0.5744 -0.2096
 3512WAT     H110747   1.376   4.816   3.010  0.0002  0.2185  1.0763
 3512WAT     H210748   1.269   4.825   2.904  1.4884  0.2247 -0.4698
 3513WAT      O10749   3.717   4.165   4.066 -0.3242  0.1418  0.3393
 3513WAT     H110750   3.680   4.251   4.047  0.5646  0.0591 -2.3102
 3513WAT     H210751   3.789   4.183   4.127 -0.0202  1.3388 -0.3240
 3514WAT      O10752   1.886   5.025   0.057  0.0615 -0.3644 -0.1250
 3514WAT     H110753   1.804   5.046   0.011 -1.2500 -1.3668  1.6279
 3514WAT     H210754   1.891   4.929   0.052 -0.2896 -0.5311  2.0053
 3515WAT      O10755   3.620   3.948   4.218 -0.3902 -0.1103  0.3180
 3515WAT     H110756   3.634   4.026   4.164 -0.0474  0.2545  0.9180
 3515WAT     H210757   3.625   3.980   4.308  0.9109 -1.0005  0.5968
 3516WAT      O10758   1.748   0.332   4.688  0.5642  0.2065 -0.0937
 3516WAT     H110759   1.658   0.350   4.662 -0.7845 -2.8489  2.0065
 3516WAT     H210760   1.784   0.279   4.617  0.7494  1.3608 -0.8935
 3517WAT      O10761   1.097   0.762   4.508 -0.7718  0.2999 -1.3447
 3517WAT     H110762   1.060   0.808   4.584  1.9320  0.0178  0.2646
 3517WAT     H210763   1.042   0.683   4.500 -1.1768  0.3788  0.2725
 3518WAT      O10764   1.006   3.651   2.722 -0.1528  0.2785  0.1820
 3518WAT     H110765   0.918   3.666   2.757 -0.4520 -2.3602  0.7552
 3518WAT     H210766   1.064   3.698   2.782 -1.0223 -0.0226  1.2986
 3519WAT      O10767   3.636   2.496   5.231  0.1456  0.0412  0.4473
 3519WAT     H110768   3.597   2.457   5.309 -1.0341  0.5054  0.0972
 3519WAT     H210769   3.706   2.435   5.207 -1.4448 -1.7320  0.0992
 3520WAT      O10770   1.809   4.199   4.642 -0.4538  0.2339 -0.6732
 3520WAT     H110771   1.879   4.134   4.636 -0.3165  0.2287  0.6987
 3520WAT     H210772   1.728   4.148   4.631 -0.3310 -0.1373  0.0487
 3521WAT      O10773   1.538   0.794   2.168 -0.4356  0.0080 -0.0307
 3521WAT     H110774   1.468   0.735   2.197  0.3506 -1.3119 -0.6973
 3521WAT     H210775   1.562   0.761   2.081  0.6461  0.7556 -0.0361
 3522WAT      O10776   2.382   2.491   0.883 -0.3142 -0.2725 -0.1829
 3522WAT     H110777   2.427   2.500   0.967 -0.4162  0.4111 -0.1962
 3522WAT     H210778   2.448   2.514   0.818 -0.7698  1.1160 -0.1836
 3523WAT      O10779   3.261   1.185   0.769  0.3822 -0.2668  0.9206
 3523WAT     H110780   3.223   1.250   0.828 -1.7328 -1.9390  1.5201
 3523WAT     H210781   3.348   1.220   0.748  0.5252  1.2512  3.6016
 3524WAT      O10782   1.123   4.737   0.532  0.1778  0.0609  0.3001
 3524WAT     H110783   1.075   4.654   0.527  0.5933 -0.1072 -2.3680
 3524WAT     H210784   1.160   4.738   0.620 -0.3822 -2.2768  0.6265
 3525WAT      O10785   0.130   3.297   2.653  0.0721 -0.6726  0.3797
 3525WAT     H110786   0.095   3.290   2.742  0.2847 -0.7925  0.4556
 3525WAT     H210787   0.075   3.238   2.601 -0.2178 -0.4039  0.3802
 3526WAT      O10788   0.673   3.907   0.718  0.2514 -0.4469  0.3375
 3526WAT     H110789   0.597   3.956   0.749  1.4031  1.0198  0.9581
 3526WAT     H210790   0.674   3.922   0.624 -0.7340 -1.2467  0.1841
 3527WAT      O10791   1.510   0.423   4.600 -0.1682  0.1240 -0.1147
 3527WAT     H110792   1.479   0.415   4.510 -0.3442 -0.4016 -0.0129
 3527WAT     H210793   1.447   0.482   4.642 -0.7312 -0.4993 -0.0558
 3528WAT      O10794   1.598   4.076   2.634 -0.0988  0.0491  0.0447
 3528WAT     H110795   1.670   4.126   2.594 -0.0732  0.4952  0.6398
 3528WAT     H210796   1.622   3.984   2.620  1.1713  0.1739  1.2590
 3529WAT      O10797   2.098   4.449   3.353 -0.4724 -0.4924 -0.3155
 3529WAT     H110798   2.101   4.461   3.258  0.0000 -1.1282 -0.3877
 3529WAT     H210799   2.052   4.366   3.365  0.0933 -0.7705 -0.0257
 3530WAT      O10800   0.661   5.107   1.094 -0.2083  0.1810  0.4051
 3530WAT     H110801   0.748   5.075   1.071 -0.7639 -0.5379 -0.7863
 3530WAT     H210802   0.676   5.196   1.125  0.7792  0.6383 -1.2904
 3531WAT      O10803   1.999   2.720   3.068 -0.6422 -0.3569  0.4641
 3531WAT     H110804   2.065   2.663   3.027  0.7535  0.9371  0.8086
 3531WAT     H210805   1.934   2.734   2.999  0.7089  0.2702 -0.7384
 3532WAT      O10806   2.256   3.248   1.273 -0.3882  0.1055 -0.5115
 3532WAT     H110807   2.265   3.314   1.342 -1.5013  0.2786 -0.5138
 3532WAT     H210808   2.164   3.222   1.277 -0.1710 -0.7807 -1.1203
 3533WAT      O10809   0.271   2.622   2.717 -0.6126  0.2197 -0.1304
 3533WAT     H110810   0.185   2.639   2.680  0.1018 -0.6509 -2.3720
 3533WAT     H210811   0.332   2.661   2.655  0.6525 -0.3988  0.6729
 3534WAT      O10812   0.262   3.584   4.762 -0.0358 -0.0679  0.3128
 3534WAT     H110813   0.336   3.642   4.782  0.5419 -0.4762 -0.5599
 3534WAT     H210814   0.226   3.562   4.847  1.0364 -0.0952  0.7812
 3535WAT      O10815   3.571   1.035   2.589 -0.0892 -0.0186 -0.2700
 3535WAT     H110816   3.581   0.977   2.665 -0.6097 -0.0452 -0.2193
 3535WAT     H210817   3.476   1.041   2.575 -0.0087  0.1696 -0.7772
 3536WAT      O10818   0.940   0.265   2.453  0.1449 -0.0084 -0.4754
 3536WAT     H110819   0.944   0.359   2.435  1.3864  0.4046  1.6023
 3536WAT     H210820   1.022   0.230   2.418  1.3919  0.3736  1.8671
 3537WAT      O10821   1.098   4.736   3.360 -0.7158  0.7102  0.2873
 3537WAT     H110822   1.193   4.723   3.351 -0.7726  1.1653 -1.1507
 3537WAT     H210823   1.075   4.684   3.437  0.5914  0.0469  0.2664
 3538WAT      O10824   3.380   3.633   3.533  0.1959  0.3283  0.1990
 3538WAT     H110825   3.323   3.695   3.488  1.5381 -1.2434 -4.2102
 3538WAT     H210826   3.460   3.682   3.551  1.0819  0.2049 -2.8480
 3539WAT      O10827   0.732   2.686   2.818  0.2117 -0.4137  0.4454
 3539WAT     H110828   0.668   2.647   2.877 -0.7227  2.2232  1.3107
 3539WAT     H210829   0.709   2.653   2.731 -2.5748  0.7180  0.6826
 3540WAT      O10830   2.538   1.474   0.585  0.0311  0.0257 -0.0836
 3540WAT     H110831   2.594   1.512   0.518  1.0586 -1.0020  0.1609
 3540WAT     H210832   2.559   1.380   0.584 -0.6002 -0.1515  1.0298
 3541WAT      O10833   4.216   3.286   2.773 -0.4550  0.4918  0.6505
 3541WAT     H110834   4.199   3.369   2.729  0.3051 -0.6247 -1.9346
 3541WAT     H210835   4.154   3.285   2.847 -1.6765  2.5530 -0.2478
 3542WAT      O10836   2.663   2.797   4.069  0.1713  0.0912  0.0256
 3542WAT     H110837   2.755   2.771   4.065 -0.2693 -1.9432  1.6077
 3542WAT     H210838   2.659   2.857   4.144  0.0238 -0.7853  0.7313
 3543WAT      O10839   2.594   0.195   2.923  0.2420  0.0646  0.4158
 3543WAT     H110840   2.677   0.209   2.877 -0.5157 -0.7584 -1.3126
 3543WAT     H210841   2.607   0.115   2.972  0.0830 -0.8039 -0.9071
 3544WAT      O10842   0.294   0.993   3.541  0.2842 -0.4792  0.0456
 3544WAT     H110843   0.260   1.079   3.566 -2.8132 -1.4891 -0.3126
 3544WAT     H210844   0.354   0.969   3.613 -2.5900 -0.0899  2.7796
 3545WAT      O10845   4.129   3.036   1.908 -0.1915 -0.1938 -0.0692
 3545WAT     H110846   4.051   3.080   1.941 -0.3655  0.8496 -1.7632
 3545WAT     H210847   4.171   3.101   1.851  1.3431 -1.0995 -0.0185
 3546WAT      O10848   1.582   2.623   3.997  0.4210 -0.1346  0.1516
 3546WAT     H110849   1.562   2.691   4.061 -1.0906 -0.6851  0.3146
 3546WAT     H210850   1.639   2.666   3.933 -0.6182  1.3363  0.1617
 3547WAT      O10851   0.734   3.714   4.786  0.2907 -0.0381 -0.2940
 3547WAT     H110852   0.752   3.705   4.880  0.5791  0.1463 -0.3313
 3547WAT     H210853   0.729   3.623   4.754  2.4425 -0.1180 -0.5245
 3548WAT      O10854   1.524   0.216   3.863  0.4671 -0.3266 -0.2807
 3548WAT     H110855   1.458   0.279   3.893 -0.4895 -0.0687 -2.7508
 3548WAT     H210856   1.473   0.148   3.818  1.8096 -0.7037 -1.2802
 3549WAT      O10857   0.356   3.222   5.226  0.0708  0.1231  0.2575
 3549WAT     H110858   0.420   3.160   5.189  0.5251 -0.2239  1.5694
 3549WAT     H210859   0.318   3.175   5.300 -1.0538  0.6835  0.0507
 3550WAT      O10860   1.365   2.083   1.749 -0.1062  0.1951  0.2372
 3550WAT     H110861   1.378   2.161   1.803  0.6716  0.6773 -0.6054
 3550WAT     H210862   1.427   2.019   1.783 -1.2554 -0.3346  1.4028
 3551WAT      O10863   2.425   3.208   0.280  0.3847 -0.0570  0.6168
 3551WAT     H110864   2.396   3.299   0.287 -1.1698 -0.5246  0.6633
 3551WAT     H210865   2.460   3.201   0.192  1.8505  0.9295  1.0868
 3552WAT      O10866   4.386   1.106   1.995  0.0676 -0.3968  0.6032
 3552WAT     H110867   4.373   1.154   1.913  0.9423 -1.8989 -0.4631
 3552WAT     H210868   4.305   1.057   2.007 -0.6361  0.9213  1.4382
 3553WAT      O10869   3.752   4.540   2.783 -0.0729  0.8600 -0.4409
 3553WAT     H110870   3.702   4.574   2.856  1.8551  1.3525  0.7129
 3553WAT     H210871   3.796   4.616   2.746  1.2121  0.2114 -0.2919
 3554WAT      O10872   0.655   4.622   1.408 -0.0839  0.2902 -0.7294
 3554WAT     H110873   0.689   4.629   1.497  0.9030  0.7531 -1.1337
 3554WAT     H210874   0.648   4.528   1.393 -0.3200  0.2082 -0.1460
 3555WAT      O10875   1.338   2.026   0.599 -0.2551 -0.1082 -0.1403
 3555WAT     H110876   1.326   2.013   0.693 -1.7306  0.6497 -0.1996
 3555WAT     H210877   1.259   1.988   0.560  0.9064 -1.5604 -1.1935
 3556WAT      O10878   4.235   4.564   4.937 -0.0120  0.4078  0.0166
 3556WAT     H110879   4.304   4.612   4.985  0.2560  0.1609 -0.1169
 3556WAT     H210880   4.246   4.592   4.846 -0.6071  0.9773  0.1158
 3557WAT      O10881   1.817   4.930   2.555 -0.1895 -0.6029 -0.6054
 3557WAT     H110882   1.908   4.957   2.573 -1.0122  1.3087  1.1391
 3557WAT     H210883   1.789   4.889   2.637 -1.1733 -0.3073 -0.7876
 3558WAT      O10884   0.578   3.348   0.477  0.1888 -0.2511 -0.1626
 3558WAT     H110885   0.515   3.420   0.480 -0.5448 -0.8915  0.2819
 3558WAT     H210886   0.586   3.327   0.384  1.5019  1.3131 -0.4520
 3559WAT      O10887   2.075   2.571   1.185  0.0904 -0.7189 -0.1875
 3559WAT     H110888   2.024   2.518   1.246 -0.3389 -1.5456 -1.2477
 3559WAT     H210889   2.163   2.533   1.188  0.6768  0.6157  1.5288
 3560WAT      O10890   0.692   3.575   3.210  0.3602  0.4837  0.4189
 3560WAT     H110891   0.715   3.486   3.238  0.7533 -0.0435 -1.3847
 3560WAT     H210892   0.606   3.592   3.247 -0.4765 -1.3467 -0.5558
 3561WAT      O10893   1.439   3.759   2.623 -0.0995 -0.5494 -0.1703
 3561WAT     H110894   1.457   3.825   2.556 -0.7362 -0.3656 -0.1619
 3561WAT     H210895   1.442   3.676   2.575 -0.2232 -0.4466 -0.3578
 3562WAT      O10896   1.923   2.341   3.494  0.6006  0.7046 -0.4376
 3562WAT     H110897   1.991   2.384   3.546  1.9877 -1.1703 -0.6068
 3562WAT     H210898   1.941   2.368   3.404  1.6046 -0.3229 -0.5711
 3563WAT      O10899   4.167   5.016   2.676 -0.2523  0.0017 -0.3614
 3563WAT     H110900   4.195   5.087   2.618  0.1363  0.9246  0.8911
 3563WAT     H210901   4.165   5.057   2.763  1.9384 -1.9776  0.7409
 3564WAT      O10902   2.336   0.104   4.450  0.5961 -0.1112 -0.8289
 3564WAT     H110903   2.399   0.090   4.380  0.7269  1.1840 -1.0000
 3564WAT     H210904   2.377   0.170   4.506  0.5977 -1.3155  0.6199
 3565WAT      O10905   3.190   2.062   0.416 -0.2130  0.2178 -0.9193
 3565WAT     H110906   3.184   1.974   0.453  0.9747  1.1602  1.7750
 3565WAT     H210907   3.108   2.105   0.443 -0.4857  0.1544 -1.6345
 3566WAT      O10908   3.784   0.786   4.901  0.2139 -0.2098 -0.0314
 3566WAT     H110909   3.703   0.738   4.918  0.5791 -1.3874 -1.4300
 3566WAT     H210910   3.808   0.822   4.987 -1.4774 -0.2777  0.5212
 3567WAT      O10911   0.245   1.932   2.234  0.5730 -0.1932 -0.6189
 3567WAT     H110912   0.321   1.917   2.291  1.1019  1.7098 -0.7370
 3567WAT     H210913   0.174   1.956   2.295  0.6383  0.0513 -0.6380
 3568WAT      O10914   1.629   3.788   0.570  0.9469 -0.1903 -0.3808
 3568WAT     H110915   1.589   3.712   0.612 -0.5762  0.2759 -0.8954
 3568WAT     H210916   1.663   3.841   0.642 -0.4318 -0.0469  0.1932
 3569WAT      O10917   1.860   0.298   2.953  0.1264  0.1227  0.6956
 3569WAT     H110918   1.894   0.210   2.934  1.1275  0.9183 -1.6450
 3569WAT     H210919   1.935   0.346   2.986 -0.1280  0.4177  0.8482
 3570WAT      O10920   2.189   4.078   4.520 -0.6821  0.5802  0.0584
 3570WAT     H110921   2.159   4.120   4.601  2.3114  1.8607  0.6463
 3570WAT     H210922   2.205   4.151   4.460 -1.4199 -0.2467 -1.1821
 3571WAT      O10923   3.469   1.725   1.480  0.0899  0.2309  0.2219
 3571WAT     H110924   3.507   1.679   1.555  1.0452 -0.1290 -0.4632
 3571WAT     H210925   3.455   1.657   1.415 -2.0801  0.2887  0.5405
 3572WAT      O10926   4.515   3.844   4.650 -0.2299 -0.5650  0.4086
 3572WAT     H110927   4.425   3.857   4.679 -0.5112  0.7430 -0.9467
 3572WAT     H210928   4.567   3.852   4.730 -1.2352 -0.3079  1.0528
 3573WAT      O10929   2.427   3.066   2.973 -0.2465 -0.0603 -0.1199
 3573WAT     H110930   2.464   2.997   3.028  1.5993  0.6138 -0.4703
 3573WAT     H210931   2.336   3.038   2.960 -0.8655 -0.1440  3.3703
 3574WAT      O10932   2.901   1.377   3.339  0.0547  0.4472 -0.6816
 3574WAT     H110933   2.946   1.367   3.423 -0.8978 -1.5142 -0.3361
 3574WAT     H210934   2.854   1.294   3.327  0.1087  0.6777 -3.1285
 3575WAT      O10935   3.935   4.738   2.788  0.6865  0.1125  0.4338
 3575WAT     H110936   3.994   4.715   2.716 -0.2539  2.4894 -1.2291
 3575WAT     H210937   3.911   4.829   2.771 -1.9707 -0.1700  2.0817
 3576WAT      O10938   1.338   1.779   4.209  0.5972  0.0884 -0.3313
 3576WAT     H110939   1.366   1.700   4.163 -0.5240  0.0687 -1.0348
 3576WAT     H210940   1.252   1.799   4.171  0.0693  0.6376  1.0778
 3577WAT      O10941   2.227   3.950   1.263 -0.2765 -0.4967 -0.3459
 3577WAT     H110942   2.140   3.965   1.299 -0.4217 -2.2075  0.1026
 3577WAT     H210943   2.255   4.036   1.231 -1.8273  0.2210  0.1336
 3578WAT      O10944   3.475   5.075   0.894  0.0156  0.1910 -0.2560
 3578WAT     H110945   3.523   5.142   0.943  2.0232 -0.9950 -0.4848
 3578WAT     H210946   3.460   5.005   0.958  0.3424 -0.2635 -0.6704
 3579WAT      O10947   3.544   1.418   1.458 -0.3301 -0.1198  0.0912
 3579WAT     H110948   3.512   1.374   1.380 -0.6848  0.5499 -0.1521
 3579WAT     H210949   3.471   1.413   1.520 -0.6651  0.7753 -0.2085
 3580WAT      O10950   1.835   2.937   2.135  0.3185  0.1171 -0.2467
 3580WAT     H110951   1.744   2.919   2.111  0.9582 -2.1663 -1.2482
 3580WAT     H210952   1.837   2.926   2.230 -0.5486  0.7498 -0.1445
 3581WAT      O10953   3.323   4.791   4.280 -0.4214 -0.4308  0.1732
 3581WAT     H110954   3.282   4.843   4.210 -0.2442 -0.6680 -0.1115
 3581WAT     H210955   3.396   4.748   4.237  0.1139 -0.0348  0.6726
 3582WAT      O10956   0.294   4.806   2.315  0.0032  0.1726 -0.0538
 3582WAT     H110957   0.369   4.854   2.350 -0.4638 -0.3453  1.7643
 3582WAT     H210958   0.332   4.747   2.250  1.1569  0.0616  0.6983
 3583WAT      O10959   1.021   4.967   4.228  1.0681 -0.5689 -0.0749
 3583WAT     H110960   1.100   5.004   4.190  0.0555  0.1041 -1.6523
 3583WAT     H210961   1.044   4.948   4.319  2.4118  1.5379  0.0899
 3584WAT      O10962   3.225   1.976   2.134  0.0960  0.5943  0.4681
 3584WAT     H110963   3.195   1.912   2.198 -1.4529 -0.4293 -1.1819
 3584WAT     H210964   3.290   2.028   2.181 -1.7467  0.6502  3.2059
 3585WAT      O10965   0.174   1.750   1.467 -0.0570 -0.0332  0.4675
 3585WAT     H110966   0.101   1.794   1.424  1.1907  1.1457 -0.5293
 3585WAT     H210967   0.194   1.807   1.542  1.5250  1.1644 -0.7949
 3586WAT      O10968   3.842   4.594   2.466  0.2887 -0.0743 -0.0332
 3586WAT     H110969   3.925   4.633   2.495 -0.1928  1.0451 -0.0846
 3586WAT     H210970   3.776   4.658   2.494 -0.3150  0.4695 -2.4823
 3587WAT      O10971   1.192   3.009   0.340  0.1870 -0.4977  0.6609
 3587WAT     H110972   1.176   2.936   0.280  0.8419 -0.4743  0.4469
 3587WAT     H210973   1.145   3.083   0.301  3.2942  0.4326 -1.7530
 3588WAT      O10974   1.053   2.437   4.291  0.2680 -0.0535 -0.1368
 3588WAT     H110975   1.045   2.532   4.290  0.3054 -0.0529 -1.2886
 3588WAT     H210976   0.963   2.405   4.299  0.1174  0.0812 -1.1114
 3589WAT      O10977   0.659   4.554   5.147  0.4540 -0.0531 -0.3443
 3589WAT     H110978   0.690   4.519   5.231  0.2678  1.6185  0.4651
 3589WAT     H210979   0.730   4.611   5.118 -0.3700  1.0527 -0.2376
 3590WAT      O10980   3.905   2.870   5.031  0.0995  0.9235  0.1035
 3590WAT     H110981   3.834   2.806   5.039  1.0889 -0.2823 -0.4246
 3590WAT     H210982   3.890   2.912   4.947  2.0852 -2.0713 -1.9572
 3591WAT      O10983   3.523   4.179   4.828  0.3110 -0.2301  0.2422
 3591WAT     H110984   3.611   4.183   4.864  0.8634  0.5931 -1.0984
 3591WAT     H210985   3.497   4.270   4.819 -0.6928 -0.4690  0.6296
 3592WAT      O10986   0.792   1.471   5.109  0.5501  0.4634 -0.1667
 3592WAT     H110987   0.762   1.485   5.019 -0.3580  0.2503  0.0890
 3592WAT     H210988   0.887   1.480   5.104  0.9202 -2.7987 -1.7899
 3593WAT      O10989   2.054   0.255   1.333 -0.0746  0.2510 -0.4662
 3593WAT     H110990   1.959   0.257   1.323 -0.0494  0.7636 -0.6416
 3593WAT     H210991   2.076   0.162   1.339 -1.0578  0.0469  4.2405
 3594WAT      O10992   2.992   2.552   0.500  1.0450 -0.0748 -1.0697
 3594WAT     H110993   2.914   2.500   0.518 -0.2795  1.9678 -0.6541
 3594WAT     H210994   3.028   2.512   0.420  0.1977 -1.7036 -0.6917
 3595WAT      O10995   3.149   1.236   5.093 -0.0490 -0.0043 -0.2097
 3595WAT     H110996   3.174   1.144   5.100 -1.0363 -0.2860 -0.1656
 3595WAT     H210997   3.096   1.252   5.172 -1.0332  0.2063 -0.8972
 3596WAT      O10998   1.568   4.955   1.350 -0.0962  0.2161  0.2324
 3596WAT     H110999   1.536   5.036   1.391 -0.2729 -0.2820  1.0955
 3596WAT     H211000   1.610   4.907   1.421  3.0768  1.0392 -0.9478
 3597WAT      O11001   3.560   1.509   0.238 -0.5813  0.3930  0.4506
 3597WAT     H111002   3.502   1.564   0.186  1.0985  1.1455 -0.7299
 3597WAT     H211003   3.563   1.426   0.192 -1.3163  0.0620  0.9686
 3598WAT      O11004   0.104   2.818   0.298 -0.1933 -0.3084  0.6047
 3598WAT     H111005   0.099   2.722   0.299  0.4591 -0.4170 -1.3223
 3598WAT     H211006   0.179   2.839   0.353 -0.7289 -0.8432  1.5654
 3599WAT      O11007   1.344   0.202   3.563  0.2549 -0.3505 -0.3538
 3599WAT     H111008   1.357   0.116   3.604  0.7213  0.0989  0.4802
 3599WAT     H211009   1.287   0.249   3.625  1.3682  0.5165  0.0508
 3600WAT      O11010   3.082   4.646   3.007 -0.0658 -0.1928  0.1413
 3600WAT     H111011   3.139   4.575   2.980  1.3092  0.5982  0.8600
 3600WAT     H211012   3.050   4.684   2.925  0.3423 -0.7155 -0.2666
 3601WAT      O11013   4.270   2.116   0.201 -0.3606 -0.0758 -0.2461
 3601WAT     H111014   4.234   2.035   0.166  0.3553  0.0832 -1.3929
 3601WAT     H211015   4.361   2.117   0.172  0.0756  0.4079  1.0502
 3602WAT      O11016   4.235   4.827   2.502  0.1329 -1.2351  0.2044
 3602WAT     H111017   4.221   4.901   2.561 -0.0090 -0.8302 -0.3334
 3602WAT     H211018   4.162   4.831   2.441 -0.9946 -2.9961  1.3593
 3603WAT      O11019   0.067   3.601   4.277  0.1947  0.2259 -0.4725
 3603WAT     H111020   0.038   3.630   4.363  1.4986 -2.1526  0.8691
 3603WAT     H211021   0.156   3.635   4.269  0.2045  0.1464 -0.7317
 3604WAT      O11022   3.818   1.306   0.428 -0.0857 -0.0983 -0.2439
 3604WAT     H111023   3.766   1.263   0.361 -0.3791  0.8983 -0.6830
 3604WAT     H211024   3.789   1.397   0.425 -3.0653 -0.6116  3.9148
 3605WAT      O11025   2.071   2.096   1.441 -0.2579  0.6856  0.4002
 3605WAT     H111026   2.006   2.100   1.371 -2.3343 -0.1088  2.1672
 3605WAT     H211027   2.146   2.052   1.401 -0.9512  1.2357 -1.6101
 3606WAT      O11028   2.095   4.613   2.810  0.0619 -0.2349  0.3647
 3606WAT     H111029   2.085   4.634   2.717 -0.1246 -0.1742  0.3993
 3606WAT     H211030   2.007   4.622   2.846  0.2634  0.4864  0.7011
 3607WAT      O11031   0.392   1.092   0.976  0.6289  0.0896 -0.3117
 3607WAT     H111032   0.450   1.055   1.042  0.6399  0.6237 -0.0156
 3607WAT     H211033   0.430   1.065   0.892  0.8051 -0.3057 -0.1055
 3608WAT      O11034   2.925   2.737   4.136 -0.4789 -0.0101 -0.2378
 3608WAT     H111035   2.962   2.810   4.086  0.1499 -0.4490 -0.4254
 3608WAT     H211036   2.969   2.742   4.221 -0.3909 -0.2107 -0.2719
 3609WAT      O11037   0.253   0.455   0.714 -0.6438  0.0150 -0.6432
 3609WAT     H111038   0.245   0.546   0.743 -1.6949 -0.5494  1.0220
 3609WAT     H211039   0.342   0.430   0.739 -0.8829  0.1342  0.3881
 3610WAT      O11040   2.413   0.465   5.152  0.3581  0.0422  0.0163
 3610WAT     H111041   2.496   0.503   5.181  0.8316 -1.0497  0.1308
 3610WAT     H211042   2.377   0.530   5.091  0.1683  1.5938  1.6873
 3611WAT      O11043   2.519   3.169   1.264  0.2005 -0.3576 -0.0757
 3611WAT     H111044   2.536   3.179   1.358  1.2063 -0.8316 -0.1932
 3611WAT     H211045   2.424   3.177   1.256  0.2882  2.1896  0.6499
 3612WAT      O11046   3.052   1.536   2.700  0.7250 -0.2240 -0.2263
 3612WAT     H111047   3.072   1.442   2.702  0.9426 -0.2018 -0.9736
 3612WAT     H211048   3.138   1.579   2.708  0.5948 -0.0846  0.4338
 3613WAT      O11049   2.109   2.274   5.013 -0.2891  0.1521 -0.0828
 3613WAT     H111050   2.053   2.349   5.031 -0.4857 -0.0331  0.0709
 3613WAT     H211051   2.079   2.242   4.928 -0.2662  0.1894 -0.1055
 3614WAT      O11052   2.625   2.834   3.673 -0.2658 -0.8095  0.1986
 3614WAT     H111053   2.610   2.796   3.587 -3.9730 -0.3436  0.4945
 3614WAT     H211054   2.657   2.922   3.655  1.5994 -1.5907 -0.5759
 3615WAT      O11055   1.592   1.510   2.640  0.0256  0.6603 -0.0294
 3615WAT     H111056   1.557   1.430   2.603 -0.7962  1.5127 -1.1686
 3615WAT     H211057   1.665   1.534   2.582  0.5055  0.5520  0.5166
 3616WAT      O11058   3.513   0.963   4.471  0.0000  0.1265 -0.1396
 3616WAT     H111059   3.540   0.962   4.379 -1.0871  2.1880 -0.5272
 3616WAT     H211060   3.595   0.964   4.520  0.6071  0.5398 -1.1408
 3617WAT      O11061   0.527   2.144   0.429 -0.1497  0.1249 -0.4915
 3617WAT     H111062   0.584   2.202   0.378  1.3723 -0.1958  0.7546
 3617WAT     H211063   0.450   2.197   0.449  0.3530  1.0695 -0.9874
 3618WAT      O11064   3.687   2.710   2.654 -0.4564  0.5852 -0.2379
 3618WAT     H111065   3.733   2.631   2.684 -1.7759 -0.7100 -1.4836
 3618WAT     H211066   3.738   2.739   2.579 -1.6191 -0.8839 -1.6558
 3619WAT      O11067   1.449   4.368   0.976  0.3783  0.2040 -0.2330
 3619WAT     H111068   1.454   4.432   0.905  1.6413 -0.9531 -1.2474
 3619WAT     H211069   1.406   4.292   0.937  2.8785 -1.2046 -0.4335
 3620WAT      O11070   1.369   2.575   1.810  0.0776  0.1573 -0.5246
 3620WAT     H111071   1.456   2.572   1.770  0.1848 -0.1847 -0.2741
 3620WAT     H211072   1.309   2.584   1.736  0.2804 -0.3849 -0.7626
 3621WAT      O11073   2.451   4.040   2.129  0.0306  0.2051 -0.1162
 3621WAT     H111074   2.413   3.976   2.190 -0.0624 -0.6937 -1.0876
 3621WAT     H211075   2.440   4.125   2.173 -0.0806 -0.4065  1.0840
 3622WAT      O11076   0.526   0.682   0.492 -0.6045  0.3317  0.5578
 3622WAT     H111077   0.472   0.738   0.435  0.5360  2.9012  1.8396
 3622WAT     H211078   0.582   0.634   0.432 -0.4954  1.8058 -0.5766
 3623WAT      O11079   2.413   4.040   3.981 -0.3413 -0.5312 -0.3503
 3623WAT     H111080   2.367   3.956   3.986 -0.7156 -0.6739 -3.8644
 3623WAT     H211081   2.349   4.099   3.940  0.3247  1.1839  0.9861
 3624WAT      O11082   3.594   1.914   3.939  0.0320  0.0495  0.6157
 3624WAT     H111083   3.642   1.960   3.870 -0.7173  0.6949  0.5083
 3624WAT     H211084   3.539   1.981   3.979 -0.3168 -0.5410  1.1523
 3625WAT      O11085   1.992   0.986   3.426 -0.0281  0.1763 -0.2058
 3625WAT     H111086   1.921   1.046   3.446  0.4857  1.2668 -1.4941
 3625WAT     H211087   1.949   0.905   3.401 -0.7512  0.2718  0.6674
 3626WAT      O11088   1.230   2.250   2.925 -0.4860 -0.0013  0.4289
 3626WAT     H111089   1.274   2.197   2.859  0.4146  1.4223 -0.1645
 3626WAT     H211090   1.213   2.189   2.997  2.3730 -0.6810  0.6558
 3627WAT      O11091   2.079   4.743   1.263 -0.0099  0.4913  0.3250
 3627WAT     H111092   2.061   4.762   1.171 -0.8029 -0.0653  0.3502
 3627WAT     H211093   2.009   4.787   1.311 -0.0714  0.1057  0.5981
 3628WAT      O11094   1.427   2.239   3.186 -0.6294 -0.6882 -0.2173
 3628WAT     H111095   1.404   2.247   3.278 -1.1810 -0.5530 -0.3628
 3628WAT     H211096   1.362   2.178   3.150 -0.4370 -0.7177 -0.5238
 3629WAT      O11097   1.815   2.872   2.635 -0.7677  0.1750  0.4818
 3629WAT     H111098   1.787   2.820   2.711 -1.7617  0.4221  0.2962
 3629WAT     H211099   1.804   2.963   2.664  0.6898  0.3067  0.7048
 3630WAT      O11100   3.892   3.585   3.409  0.0462 -0.1322  0.6650
 3630WAT     H111101   3.838   3.525   3.461 -1.1490 -0.7851 -1.1952
 3630WAT     H211102   3.829   3.628   3.350  1.3783  0.0103 -0.7168
 3631WAT      O11103   0.564   2.464   3.987  0.2145 -0.0965  0.4463
 3631WAT     H111104   0.565   2.543   4.040 -0.1159  0.1746  0.0625
 3631WAT     H211105   0.607   2.490   3.905  2.3736 -1.0095  1.2432
 3632WAT      O11106   0.405   0.455   0.333  0.9876  0.2111  0.2201
 3632WAT     H111107   0.393   0.507   0.254  2.5966 -0.2910 -0.4049
 3632WAT     H211108   0.371   0.509   0.403  1.1204  1.4109 -0.6114
 3633WAT      O11109   3.823   2.966   4.783  0.7794  0.1661 -0.4053
 3633WAT     H111110   3.782   3.043   4.742 -2.9115 -2.6414 -2.6633
 3633WAT     H211111   3.887   2.936   4.718  1.6629  0.8149  0.1387
 3634WAT      O11112   2.882   2.365   1.808  0.3063  0.3299  0.3290
 3634WAT     H111113   2.930   2.439   1.770 -1.4799  0.5887 -1.5978
 3634WAT     H211114   2.826   2.405   1.875 -1.9815  1.1419 -1.9068
 3635WAT      O11115   3.935   2.242   4.844 -0.0714  0.4681 -0.2857
 3635WAT     H111116   3.968   2.168   4.895  0.3739  1.0658  0.2981
 3635WAT     H211117   3.850   2.212   4.812  0.0630 -0.2666  0.0120
 3636WAT      O11118   4.068   4.771   4.611 -0.0757  0.6709 -0.3531
 3636WAT     H111119   4.140   4.708   4.612 -1.7152 -1.2936 -0.1151
 3636WAT     H211120   4.035   4.771   4.701 -0.9598  0.8254 -0.6669
 3637WAT      O11121   4.366   1.061   4.301 -0.2617 -0.0547  0.7978
 3637WAT     H111122   4.294   1.108   4.260  1.9121  2.7457 -0.1173
 3637WAT     H211123   4.382   1.108   4.383 -1.1750 -2.3943  2.4310
 3638WAT      O11124   0.060   0.771   2.929 -0.1221 -0.2697  0.3376
 3638WAT     H111125   0.066   0.841   2.863 -1.0431 -0.6316 -0.1545
 3638WAT     H211126   0.142   0.776   2.977 -0.0353  0.9324  0.0850
 3639WAT      O11127   3.850   4.549   1.712  0.3628  0.1189  0.0162
 3639WAT     H111128   3.874   4.632   1.752 -1.6092 -0.0937  1.8118
 3639WAT     H211129   3.757   4.537   1.734 -0.1006 -1.3873 -2.3002
 3640WAT      O11130   1.532   0.957   1.906  0.3119 -0.3637  0.1850
 3640WAT     H111131   1.485   1.036   1.932  1.8335 -0.4704  3.9432
 3640WAT     H211132   1.624   0.977   1.923  0.8998 -2.4353 -0.2820
 3641WAT      O11133   3.582   0.399   1.624 -0.2781 -0.5250 -0.3582
 3641WAT     H111134   3.667   0.427   1.659  0.6725 -2.2576 -1.1339
 3641WAT     H211135   3.518   0.446   1.676  1.1497  0.3922  0.6514
 3642WAT      O11136   3.198   2.435   0.994 -0.4032  0.3125  0.0025
 3642WAT     H111137   3.146   2.454   0.916 -0.3106  1.0822  0.1222
 3642WAT     H211138   3.272   2.494   0.989 -1.0116  1.2311  1.2683
 3643WAT      O11139   3.791   0.776   4.227 -0.1129  0.1554  0.2569
 3643WAT     H111140   3.861   0.823   4.182 -1.2068 -0.5087 -2.3194
 3643WAT     H211141   3.719   0.839   4.232 -0.3289 -0.0821  0.1689
 3644WAT      O11142   1.805   2.301   2.344 -0.0376 -0.2859  0.2003
 3644WAT     H111143   1.789   2.392   2.367  0.5701  0.6941 -2.8104
 3644WAT     H211144   1.717   2.264   2.332 -0.3927  1.0403 -2.1474
 3645WAT      O11145   0.116   5.137   3.754  0.1123  0.1829 -0.2458
 3645WAT     H111146   0.171   5.172   3.823 -1.4981  0.0590  1.1730
 3645WAT     H211147   0.110   5.207   3.690  0.9119  0.6361  0.1574
 3646WAT      O11148   3.129   3.373   1.808 -0.3177  0.4425  0.0304
 3646WAT     H111149   3.164   3.314   1.875 -1.4921  0.4822  0.7072
 3646WAT     H211150   3.163   3.459   1.831 -0.7264  0.4583  0.6093
 3647WAT      O11151   3.117   3.463   0.484  0.2688 -0.3305  0.0502
 3647WAT     H111152   3.132   3.489   0.393  1.8687 -2.0175 -0.2195
 3647WAT     H211153   3.040   3.407   0.480  0.7441 -0.9679 -0.3991
 3648WAT      O11154   4.194   1.276   4.184  0.2660 -0.1414  0.0523
 3648WAT     H111155   4.141   1.336   4.132  0.0125 -0.5447 -0.1490
 3648WAT     H211156   4.282   1.314   4.180  0.2763 -0.2454 -0.7792
 3649WAT      O11157   1.704   3.584   1.937 -0.0888  0.3105 -0.2893
 3649WAT     H111158   1.736   3.513   1.882  0.8843  1.5197 -1.3354
 3649WAT     H211159   1.614   3.558   1.960 -0.0072 -0.8944 -1.2315
 3650WAT      O11160   2.058   3.538   5.008 -0.4341  0.2010  1.0713
 3650WAT     H111161   1.967   3.559   4.986 -0.0515  0.9738  0.1386
 3650WAT     H211162   2.060   3.537   5.104 -1.8755 -1.9500  1.1391
 3651WAT      O11163   0.870   2.103   4.523 -0.0337  0.3029 -0.5865
 3651WAT     H111164   0.858   2.139   4.611  0.2611  0.2507 -0.5220
 3651WAT     H211165   0.855   2.177   4.465 -0.5899  0.2560 -0.5126
 3652WAT      O11166   0.858   2.847   1.506  0.0200  0.1457  0.1386
 3652WAT     H111167   0.863   2.835   1.412  0.1463 -1.0942  0.2858
 3652WAT     H211168   0.891   2.936   1.521  3.6527 -0.9295 -0.6408
 3653WAT      O11169   4.343   1.175   2.272  0.0238 -0.0844  0.2418
 3653WAT     H111170   4.414   1.236   2.296 -0.7129  1.2241 -0.7968
 3653WAT     H211171   4.377   1.128   2.196 -0.1381  0.4071 -0.1390
 3654WAT      O11172   2.050   1.658   4.536 -0.3358  0.4786 -0.3163
 3654WAT     H111173   2.091   1.660   4.449 -1.7452 -0.6772 -1.0719
 3654WAT     H211174   2.123   1.651   4.597  0.6631  0.6108 -1.4580
 3655WAT      O11175   4.000   3.779   4.853 -0.1678  0.2000 -0.1819
 3655WAT     H111176   4.019   3.748   4.764  1.0914  0.4307 -0.0077
 3655WAT     H211177   3.936   3.717   4.887 -0.8513  0.2468 -1.3341
 3656WAT      O11178   3.569   2.055   3.615  0.2472 -0.1348  0.0305
 3656WAT     H111179   3.627   2.095   3.550 -1.3568  0.3213 -1.1979
 3656WAT     H211180   3.513   1.997   3.564 -0.6761 -0.2167  1.0992
 3657WAT      O11181   2.071   3.857   5.136 -0.0757  0.1363  0.2827
 3657WAT     H111182   2.071   3.843   5.231  0.7945 -0.3327  0.2307
 3657WAT     H211183   1.982   3.837   5.109 -0.0331 -0.8843  0.8495
 3658WAT      O11184   0.279   0.058   2.360 -0.2472  0.3730  0.4487
 3658WAT     H111185   0.331  -0.018   2.384  1.0664  0.7907 -0.8867
 3658WAT     H211186   0.229   0.079   2.438  1.4233 -0.2147  1.7313
 3659WAT      O11187   3.507   0.009   0.187 -0.3470 -0.3712  0.0691
 3659WAT     H111188   3.426   0.006   0.239 -0.6764  0.9410 -0.3194
 3659WAT     H211189   3.532   0.102   0.188  0.3895 -0.5478 -0.9795
 3660WAT      O11190   2.292   1.109   2.146 -0.2026 -0.0215 -0.4655
 3660WAT     H111191   2.368   1.167   2.145 -0.3451  0.1778 -0.0202
 3660WAT     H211192   2.238   1.141   2.219 -1.7192  1.1015 -2.0010
 3661WAT      O11193   0.204   1.461   3.656 -0.3419  0.1891 -0.0574
 3661WAT     H111194   0.128   1.504   3.615 -0.0944  1.4996  0.8013
 3661WAT     H211195   0.274   1.470   3.591 -0.5216  0.3296 -0.2333
 3662WAT      O11196   3.147   3.584   2.814  0.2767 -0.1020 -0.7045
 3662WAT     H111197   3.148   3.579   2.909  1.4453 -1.0615 -0.7422
 3662WAT     H211198   3.054   3.579   2.791  0.0217 -0.4961  0.3596
 3663WAT      O11199   0.644   0.268   0.165 -0.7912 -0.3858  0.2635
 3663WAT     H111200   0.687   0.183   0.179 -0.6206 -0.2161  0.7840
 3663WAT     H211201   0.700   0.331   0.210 -0.4041  0.1401 -0.9269
 3664WAT      O11202   1.122   0.989   1.841 -0.1643  0.1859 -0.4943
 3664WAT     H111203   1.103   1.051   1.911  2.4883 -1.3767  1.8332
 3664WAT     H211204   1.143   1.044   1.766 -0.1174  2.0554  0.8087
 3665WAT      O11205   4.013   3.532   1.162 -0.6307  0.3397 -0.5827
 3665WAT     H111206   3.994   3.623   1.180  1.8266  0.9923 -0.9166
 3665WAT     H211207   3.973   3.483   1.234  0.1033  1.9136  0.9436
 3666WAT      O11208   2.991   4.327   2.405 -0.2511  0.2791  0.6318
 3666WAT     H111209   3.032   4.374   2.332  0.6688  0.2160  1.0935
 3666WAT     H211210   3.049   4.253   2.421 -0.8771 -0.1658  0.9105
 3667WAT      O11211   2.343   4.597   1.870 -0.4414  0.0479  0.7058
 3667WAT     H111212   2.412   4.535   1.846 -0.8178  0.1569 -0.7702
 3667WAT     H211213   2.266   4.565   1.824 -0.2900  2.4532 -1.4659
 3668WAT      O11214   1.891   4.229   4.902 -0.3307 -0.0351  0.0163
 3668WAT     H111215   1.837   4.152   4.923  0.1192 -0.3377  0.0818
 3668WAT     H211216   1.865   4.253   4.813 -1.7960  0.8640  0.6493
 3669WAT      O11217   2.981   0.429   3.899 -0.6247  0.0526  0.1755
 3669WAT     H111218   2.990   0.513   3.944  0.6077  0.2114 -0.3463
 3669WAT     H211219   2.916   0.446   3.830  0.0180  0.7374 -0.2757
 3670WAT      O11220   0.949   2.788   2.555 -0.0447 -0.0591  0.2629
 3670WAT     H111221   0.979   2.826   2.472  1.2198 -2.0863 -0.3033
 3670WAT     H211222   0.878   2.845   2.584 -0.0404  1.1195 -1.8557
 3671WAT      O11223   3.292   3.564   2.215 -0.3365  1.1701 -0.0507
 3671WAT     H111224   3.316   3.543   2.124 -0.3988  1.0769 -0.0463
 3671WAT     H211225   3.329   3.651   2.231 -0.5213  1.2858 -0.2411
 3672WAT      O11226   2.943   3.560   4.725  0.5602  0.3932 -0.0912
 3672WAT     H111227   2.957   3.475   4.682 -0.4145  0.1645  0.0052
 3672WAT     H211228   2.859   3.590   4.690  0.1807  0.6166  0.9675
 3673WAT      O11229   3.333   4.566   3.476 -0.7567  0.7503  0.1287
 3673WAT     H111230   3.410   4.509   3.477 -0.5020  1.0258 -1.5416
 3673WAT     H211231   3.369   4.655   3.481 -1.1078  0.8418  1.6454
 3674WAT      O11232   4.214   2.727   1.666  0.7223 -0.5149  0.8240
 3674WAT     H111233   4.168   2.705   1.747 -0.9655  0.0818  0.0736
 3674WAT     H211234   4.149   2.711   1.597  1.9472 -0.4962 -0.3724
 3675WAT      O11235   1.829   3.698   3.762 -0.1137 -0.8439 -0.5465
 3675WAT     H111236   1.806   3.648   3.840  1.2673  0.0713  0.4997
 3675WAT     H211237   1.836   3.633   3.693 -2.8767 -1.5131 -0.3201
 3676WAT      O11238   4.502   2.887   0.756  0.3564 -0.2332  0.2554
 3676WAT     H111239   4.527   2.959   0.698  0.8238  0.4856  1.3299
 3676WAT     H211240   4.406   2.889   0.755  0.3405  1.2028  1.1976
 3677WAT      O11241   4.447   3.230   4.880  0.1058 -0.1182 -0.1309
 3677WAT     H111242   4.398   3.234   4.962 -0.2567 -0.3281 -0.3315
 3677WAT     H211243   4.472   3.138   4.872  0.2309 -0.0776 -0.2025
 3678WAT      O11244   2.434   1.086   0.927 -0.0646 -0.5641  0.5801
 3678WAT     H111245   2.515   1.117   0.886 -0.6241 -0.0739 -0.2001
 3678WAT     H211246   2.439   0.991   0.920  0.2548 -0.5206  0.1339
 3679WAT      O11247   0.172   3.315   2.192 -0.3790  0.5322  0.5451
 3679WAT     H111248   0.102   3.379   2.204 -0.4404  0.6743 -0.4615
 3679WAT     H211249   0.128   3.235   2.163 -0.3726 -0.2032  2.4294
 3680WAT      O11250   2.579   3.622   1.041  0.1283  0.4778  0.3393
 3680WAT     H111251   2.513   3.691   1.049  3.0563  3.4146  1.0988
 3680WAT     H211252   2.583   3.584   1.129 -0.5358  0.2152  0.2684
 3681WAT      O11253   2.914   4.652   1.868 -0.4621  0.3177  0.5714
 3681WAT     H111254   2.975   4.723   1.887  1.1096 -0.8665  0.1596
 3681WAT     H211255   2.861   4.685   1.795  0.3323  1.0142  0.2950
 3682WAT      O11256   2.848   4.042   1.641 -0.3946 -0.2120  0.7855
 3682WAT     H111257   2.795   4.061   1.563 -0.8416  0.1028  1.1610
 3682WAT     H211258   2.788   3.996   1.700  0.4151 -2.0393  0.2621
 3683WAT      O11259   0.709   4.683   4.515  0.0334 -0.4684 -0.0273
 3683WAT     H111260   0.678   4.603   4.472 -3.6181  0.7568  0.0455
 3683WAT     H211261   0.707   4.749   4.446  2.0828 -0.1288  0.1633
 3684WAT      O11262   1.777   2.943   1.616 -0.1828 -0.0008  0.3877
 3684WAT     H111263   1.809   2.872   1.561  1.2595  1.1166 -0.2958
 3684WAT     H211264   1.851   2.964   1.673 -0.5434  1.0107  0.5085
 3685WAT      O11265   2.637   2.808   4.404  0.3987 -0.0037  0.1890
 3685WAT     H111266   2.658   2.717   4.384 -0.6267 -0.4475  1.0599
 3685WAT     H211267   2.667   2.820   4.494  0.5433  0.5344  0.0739
 3686WAT      O11268   3.758   0.396   4.381  0.5254  0.0277 -0.3683
 3686WAT     H111269   3.790   0.455   4.449 -1.4855 -0.7354  1.3339
 3686WAT     H211270   3.711   0.453   4.320 -0.5656  0.3375  0.7336
 3687WAT      O11271   0.384   0.343   3.508 -0.2279 -0.7607 -0.0669
 3687WAT     H111272   0.332   0.321   3.431  0.4272 -0.8338 -0.4948
 3687WAT     H211273   0.320   0.372   3.573 -0.8048 -0.9176 -0.5607
 3688WAT      O11274   1.740   3.621   2.949  0.1519 -0.3542  0.3349
 3688WAT     H111275   1.799   3.605   3.023 -0.5906  0.7441  1.2051
 3688WAT     H211276   1.652   3.610   2.986 -0.2367  0.4295 -0.3185
 3689WAT      O11277   2.956   0.890   0.743  0.0745 -0.5969  0.3818
 3689WAT     H111278   2.960   0.850   0.830 -0.1006 -2.3630 -0.3782
 3689WAT     H211279   2.890   0.839   0.696  0.1424  0.3383 -0.7937
 3690WAT      O11280   0.468   4.199   2.396 -0.3029  0.0995 -0.2029
 3690WAT     H111281   0.517   4.205   2.478 -0.2598  1.0778 -0.2936
 3690WAT     H211282   0.477   4.285   2.356  0.4404 -0.6395 -1.6918
 3691WAT      O11283   1.209   3.523   3.233  0.3700 -0.1379 -0.0284
 3691WAT     H111284   1.201   3.531   3.138  1.2810 -1.3367 -0.2182
 3691WAT     H211285   1.164   3.441   3.254 -1.0805  0.8163  0.7744
 3692WAT      O11286   2.151   2.525   3.436  0.0451 -0.1048  0.1292
 3692WAT     H111287   2.086   2.504   3.369  0.6091 -0.2964 -0.3736
 3692WAT     H211288   2.158   2.621   3.435  1.6795 -0.1699 -1.7229
 3693WAT      O11289   0.754   0.994   1.459 -0.0067 -0.4433 -0.2131
 3693WAT     H111290   0.683   0.935   1.483  0.2825 -1.6203 -2.0325
 3693WAT     H211291   0.833   0.950   1.489  0.0420  0.6124  1.3263
 3694WAT      O11292   0.002   0.323   4.759 -0.1311 -0.3989  0.1320
 3694WAT     H111293  -0.033   0.391   4.701  1.9442  2.5002  2.0233
 3694WAT     H211294  -0.064   0.315   4.828  0.1508  0.6583  0.5451
 3695WAT      O11295   3.730   2.398   1.773  0.1886  0.6268 -0.5148
 3695WAT     H111296   3.746   2.304   1.778  0.1641  0.6224 -0.5209
 3695WAT     H211297   3.731   2.418   1.679 -0.7102  0.4709 -0.5625
 3696WAT      O11298   1.306   3.041   4.604 -0.3470 -0.5443  0.1742
 3696WAT     H111299   1.247   3.012   4.534  0.9101 -0.8096 -0.8242
 3696WAT     H211300   1.389   3.059   4.559  0.0725  0.7227  1.3969
 3697WAT      O11301   1.192   0.175   4.715 -0.1945 -0.0816  0.0885
 3697WAT     H111302   1.136   0.167   4.792  0.6274  0.4555  0.7667
 3697WAT     H211303   1.271   0.220   4.748  0.6818 -0.9264 -0.8043
 3698WAT      O11304   3.008   2.246   3.771  0.4133  0.1547 -0.1076
 3698WAT     H111305   3.005   2.340   3.756  0.7936  0.4091  1.2421
 3698WAT     H211306   2.967   2.235   3.857  1.7800 -0.7270  0.4548
 3699WAT      O11307   3.283   2.969   4.655  0.2571 -0.2051  0.1073
 3699WAT     H111308   3.368   2.945   4.616  0.9908  0.8640  0.9953
 3699WAT     H211309   3.302   2.983   4.747 -0.6693  1.1284  0.1126
 3700WAT      O11310   0.639   0.505   2.510  0.0147 -0.3832  0.1956
 3700WAT     H111311   0.631   0.582   2.453  1.1595 -0.2639  0.1775
 3700WAT     H211312   0.555   0.460   2.501 -0.6008  0.7499  0.0442
 3701WAT      O11313   2.518   4.602   3.042 -0.3284 -0.2300  0.1515
 3701WAT     H111314   2.429   4.568   3.031 -0.0497 -0.7400 -0.6398
 3701WAT     H211315   2.564   4.533   3.089 -0.7608  0.7323  2.0680
 3702WAT      O11316   0.115   4.074   3.580  0.0088 -0.3083  0.0200
 3702WAT     H111317   0.112   4.129   3.658 -0.2836 -0.0045 -0.2004
 3702WAT     H211318   0.107   4.136   3.507  2.7699 -0.2958 -0.3765
 3703WAT      O11319   1.630   0.434   0.703 -0.1166  0.2657 -0.2557
 3703WAT     H111320   1.719   0.469   0.700 -0.2610  0.8402  1.1579
 3703WAT     H211321   1.600   0.453   0.792 -1.6545  0.0934 -0.7017
 3704WAT      O11322   3.760   3.841   2.029 -0.1452  0.0784 -0.1143
 3704WAT     H111323   3.781   3.805   1.942  3.3760  1.7423 -0.1066
 3704WAT     H211324   3.739   3.933   2.012 -2.0457 -0.1829  0.6035
 3705WAT      O11325   3.836   4.370   0.564 -0.4990 -0.3960  0.0335
 3705WAT     H111326   3.754   4.329   0.536 -1.5440  1.0564  0.8472
 3705WAT     H211327   3.848   4.444   0.504 -1.1751  0.9274  1.4401
 3706WAT      O11328   4.365   2.014   3.286  0.1068 -0.1018 -0.0569
 3706WAT     H111329   4.323   1.948   3.232  0.1040  1.0705 -1.5449
 3706WAT     H211330   4.411   1.964   3.354 -0.9859 -1.5374 -0.3306
 3707WAT      O11331   3.503   3.489   0.762 -0.0225  0.4716 -0.0454
 3707WAT     H111332   3.499   3.416   0.700 -1.8952 -0.2675  0.8730
 3707WAT     H211333   3.466   3.563   0.713 -1.0789  0.0006  0.0029
 3708WAT      O11334   3.134   0.435   5.084 -0.1403 -1.0003 -0.3984
 3708WAT     H111335   3.119   0.415   5.177 -0.5192  1.5022  0.1337
 3708WAT     H211336   3.123   0.350   5.040 -3.8719 -1.6679  1.3952
 3709WAT      O11337   0.228   0.447   4.488  0.3924  0.6786 -0.1460
 3709WAT     H111338   0.292   0.379   4.467  0.4711 -0.0920  2.2774
 3709WAT     H211339   0.143   0.403   4.484  0.0476  1.4207 -2.2311
 3710WAT      O11340   2.871   3.736   0.069 -0.1603  0.0581  0.2066
 3710WAT     H111341   2.929   3.733   0.144 -1.0118 -1.4142  0.8486
 3710WAT     H211342   2.816   3.658   0.078 -0.4711 -0.0029 -1.7866
 3711WAT      O11343   2.548   0.923   4.668  0.0950 -0.2431 -0.3601
 3711WAT     H111344   2.594   0.986   4.724  1.0471 -1.4912  0.3013
 3711WAT     H211345   2.513   0.976   4.596 -0.2057  1.2263  0.8218
 3712WAT      O11346   1.997   4.998   0.576  0.1793  0.1092 -0.2581
 3712WAT     H111347   1.968   5.034   0.492  0.7741  0.0523 -0.4957
 3712WAT     H211348   2.088   5.027   0.584 -0.0871  0.7243  0.7124
 3713WAT      O11349   2.063   0.844   2.479 -0.5777 -0.1961 -0.4175
 3713WAT     H111350   2.092   0.753   2.486 -1.6564 -0.5229  0.0821
 3713WAT     H211351   2.069   0.864   2.386 -0.2996 -0.7742 -0.5307
 3714WAT      O11352   1.501   2.512   0.226  0.2929 -0.3266  0.0190
 3714WAT     H111353   1.513   2.417   0.218  0.2749 -0.5350  2.0082
 3714WAT     H211354   1.485   2.526   0.320  1.7983  1.8122  0.0206
 3715WAT      O11355   0.205   0.719   4.592  0.2578 -0.7401 -0.2352
 3715WAT     H111356   0.192   0.637   4.545  0.1272  0.2505 -1.9942
 3715WAT     H211357   0.120   0.763   4.588  1.0439  0.7281 -1.8365
 3716WAT      O11358   2.675   4.792   0.922  0.2472  0.0613  0.6259
 3716WAT     H111359   2.654   4.804   0.829  0.6612  0.0480  0.5299
 3716WAT     H211360   2.623   4.860   0.966 -2.3215 -1.7986  0.7080
 3717WAT      O11361   1.814   2.682   1.484  0.9831  0.4285  0.1007
 3717WAT     H111362   1.839   2.607   1.537 -0.2023  0.6473  1.0212
 3717WAT     H211363   1.773   2.644   1.406  2.2099  0.1121 -0.4008
 3718WAT      O11364   0.450   1.480   3.865 -0.1833  0.0272 -0.1155
 3718WAT     H111365   0.505   1.558   3.874 -1.1620  0.6037  1.1301
 3718WAT     H211366   0.407   1.491   3.781  1.0877 -0.1154 -0.8115
 3719WAT      O11367   0.980   5.138   1.411 -0.7614 -0.2122 -0.7936
 3719WAT     H111368   0.890   5.138   1.444 -0.8454 -0.3556 -1.0240
 3719WAT     H211369   1.016   5.053   1.439 -0.7885 -0.2755 -0.9519
 3720WAT      O11370   4.355   3.284   0.697 -0.2930 -0.0968  0.1292
 3720WAT     H111371   4.301   3.361   0.679 -2.8369 -1.5326  1.2456
 3720WAT     H211372   4.399   3.266   0.614 -0.8630  1.6180 -0.5858
 3721WAT      O11373   0.346   4.363   4.429 -0.5452 -0.3433  0.3175
 3721WAT     H111374   0.308   4.450   4.441 -1.0163 -0.6335  1.0101
 3721WAT     H211375   0.337   4.345   4.336  0.3821  0.7186  0.0029
 3722WAT      O11376   0.161   3.814   3.486 -0.0716 -0.7300  0.0298
 3722WAT     H111377   0.168   3.899   3.528 -1.4770 -0.1837 -0.8020
 3722WAT     H211378   0.091   3.823   3.422 -2.2866 -3.2774  1.8647
 3723WAT      O11379   0.879   4.622   1.026  0.0945 -0.3866  0.2761
 3723WAT     H111380   0.883   4.599   1.119  0.1476 -1.5132  0.0129
 3723WAT     H211381   0.930   4.554   0.983  0.0169  0.0929 -0.5895
 3724WAT      O11382   1.346   1.431   2.160 -0.1047 -0.3769 -0.1370
 3724WAT     H111383   1.283   1.358   2.164 -0.1342 -0.3827 -0.6463
 3724WAT     H211384   1.364   1.442   2.067 -0.2229  0.3738 -0.0760
 3725WAT      O11385   1.606   1.285   3.118 -0.0520  0.2747 -0.2053
 3725WAT     H111386   1.582   1.247   3.034 -2.4735  1.8259 -0.3021
 3725WAT     H211387   1.589   1.379   3.109  1.2889  0.7433  1.4820
 3726WAT      O11388   3.062   2.443   4.514 -0.2955 -0.2346  0.2832
 3726WAT     H111389   3.012   2.365   4.492  0.1459 -0.3293 -0.3942
 3726WAT     H211390   3.048   2.454   4.608 -1.1694 -0.5497  0.1964
 3727WAT      O11391   0.584   1.757   5.187  0.5558 -0.1498  0.1294
 3727WAT     H111392   0.661   1.764   5.131  1.5045  0.6716  1.4714
 3727WAT     H211393   0.589   1.670   5.224 -0.0047 -0.6488 -0.9158
 3728WAT      O11394   1.333   2.614   1.282 -0.0933 -0.3625 -0.0209
 3728WAT     H111395   1.386   2.653   1.351 -1.6591  0.5574  0.7117
 3728WAT     H211396   1.254   2.583   1.327 -1.9765  1.8337 -1.5954
 3729WAT      O11397   3.733   4.022   5.159  0.2661 -0.1228 -0.4343
 3729WAT     H111398   3.694   3.956   5.102  0.3396  0.1075 -0.7539
 3729WAT     H211399   3.690   4.008   5.243 -2.4538  1.7433 -1.3619
 3730WAT      O11400   1.161   1.968   2.318  0.2369 -0.4375  0.0941
 3730WAT     H111401   1.142   1.921   2.237  2.0855 -0.6965 -0.2425
 3730WAT     H211402   1.105   1.926   2.384 -0.3435 -1.0877 -0.7917
 3731WAT      O11403   0.340   0.559   2.742  0.1476  0.1962  0.3802
 3731WAT     H111404   0.313   0.648   2.720 -0.1003 -0.0273 -0.2262
 3731WAT     H211405   0.356   0.516   2.658  2.1823  0.2387  0.6952
 3732WAT      O11406   3.861   2.461   4.332 -0.6136 -0.3086  0.0521
 3732WAT     H111407   3.891   2.489   4.246  0.3615  0.7617  0.7140
 3732WAT     H211408   3.767   2.445   4.320 -0.7434  0.9865 -0.9333
 3733WAT      O11409   4.080   1.753   4.490  0.2577 -0.6714 -0.2354
 3733WAT     H111410   4.067   1.815   4.418 -1.1724 -1.4909 -0.7290
 3733WAT     H211411   4.132   1.683   4.453 -0.8548 -1.3115 -0.6363
 3734WAT      O11412   1.405   3.093   0.469 -0.2998 -0.2450  0.0924
 3734WAT     H111413   1.335   3.062   0.413  1.8106 -1.3258 -2.1269
 3734WAT     H211414   1.391   3.188   0.475 -2.3302 -0.5168  0.3861
 3735WAT      O11415   3.988   0.610   4.327  0.0607 -0.2803  0.2054
 3735WAT     H111416   3.910   0.665   4.331  0.2789 -0.0073  1.0835
 3735WAT     H211417   4.020   0.620   4.238 -0.6083  0.0252 -0.0047
 3736WAT      O11418   1.461   3.235   1.729 -0.3672  0.3938 -0.1282
 3736WAT     H111419   1.421   3.309   1.775  1.1823  0.0470  1.9158
 3736WAT     H211420   1.387   3.187   1.692 -1.7788  0.5455  2.2972
 3737WAT      O11421   1.878   5.054   4.575  0.2951  0.0550  0.8580
 3737WAT     H111422   1.946   5.120   4.589  1.2994 -0.7574 -0.0153
 3737WAT     H211423   1.911   5.000   4.503 -0.7956 -1.0112  1.1148
 3738WAT      O11424   0.519   1.681   2.449 -0.2481 -0.3945  0.2107
 3738WAT     H111425   0.448   1.736   2.483  1.0853  1.4159  0.2102
 3738WAT     H211426   0.497   1.670   2.356  0.1261  1.3194 -0.1191
 3739WAT      O11427   3.274   3.269   1.121  0.5431 -0.3521 -0.3452
 3739WAT     H111428   3.303   3.344   1.173  0.0149  1.1541 -2.1438
 3739WAT     H211429   3.329   3.271   1.043 -0.2384 -1.1672 -0.9408
 3740WAT      O11430   0.968   3.308   5.040 -0.1495 -0.2197  0.2259
 3740WAT     H111431   0.955   3.221   5.001 -0.1659  0.0683 -0.4182
 3740WAT     H211432   0.993   3.290   5.131  1.0805 -0.9256 -0.2433
 3741WAT      O11433   3.198   4.568   3.946  0.0180  0.1446  0.8516
 3741WAT     H111434   3.208   4.605   4.034  2.5291 -0.8962  1.0750
 3741WAT     H211435   3.272   4.602   3.897 -0.6141 -0.3575 -0.5036
 3742WAT      O11436   0.257   0.766   2.600 -0.0046 -0.2232 -0.2783
 3742WAT     H111437   0.286   0.858   2.600  1.4745 -0.4968 -4.4935
 3742WAT     H211438   0.163   0.771   2.584 -0.2362  0.4818  1.0555
 3743WAT      O11439   3.441   1.004   3.012 -0.4101 -0.2578  0.0831
 3743WAT     H111440   3.412   0.917   2.983 -1.4321  0.4484 -1.0991
 3743WAT     H211441   3.385   1.065   2.964 -1.9744  1.0353  3.2724
 3744WAT      O11442   0.907   3.033   1.045 -0.6152 -0.2141  0.1964
 3744WAT     H111443   0.934   2.970   0.978 -2.2605 -1.8206  0.9578
 3744WAT     H211444   0.846   3.092   1.000  1.2898  1.2095 -0.6360
 3745WAT      O11445   1.359   2.020   4.640 -0.1376  0.5850  0.1403
 3745WAT     H111446   1.370   1.941   4.587  0.5412  0.3144  0.6616
 3745WAT     H211447   1.411   2.086   4.594  0.2224  0.4247  0.3110
 3746WAT      O11448   3.130   1.070   0.536  0.2061  0.1643  0.1847
 3746WAT     H111449   3.164   1.113   0.614  0.8415 -0.2438  0.1417
 3746WAT     H211450   3.184   1.103   0.465 -1.3851  1.7498 -0.3477
 3747WAT      O11451   2.583   0.129   1.822  0.0917  0.5762  0.1874
 3747WAT     H111452   2.637   0.196   1.781 -0.4995  1.3330  0.6121
 3747WAT     H211453   2.614   0.046   1.785  0.1588  1.1614 -1.1103
 3748WAT      O11454   1.657   1.925   1.281 -0.2556  0.5434 -0.2792
 3748WAT     H111455   1.572   1.960   1.308 -1.4812 -2.0860 -0.3821
 3748WAT     H211456   1.674   1.853   1.342  1.0612 -0.0608 -1.2985
 3749WAT      O11457   3.214   5.064   1.700 -0.4799  0.0407 -0.0237
 3749WAT     H111458   3.146   5.112   1.654 -0.4474 -0.3266 -0.4541
 3749WAT     H211459   3.281   5.046   1.634 -0.7900 -1.1732 -0.0236
 3750WAT      O11460   3.428   0.460   1.863  0.7124  0.4630  0.2554
 3750WAT     H111461   3.361   0.392   1.856  0.1535  1.0622 -0.3977
 3750WAT     H211462   3.498   0.419   1.914  0.1801 -0.4329  0.2983
 3751WAT      O11463   3.513   1.361   0.725  0.0245 -0.5238 -0.1964
 3751WAT     H111464   3.521   1.450   0.759 -1.5538 -0.7759  0.9499
 3751WAT     H211465   3.484   1.373   0.634 -1.4914  0.1643  0.3440
 3752WAT      O11466   1.280   0.842   4.813 -0.5923  0.4598  0.6565
 3752WAT     H111467   1.187   0.867   4.813 -0.8421 -0.3085 -1.4669
 3752WAT     H211468   1.326   0.920   4.842 -1.8699  0.9426  1.4764
 3753WAT      O11469   3.144   0.757   2.661  0.7347  0.0034 -0.2460
 3753WAT     H111470   3.219   0.761   2.720  1.0119  0.8162 -0.6334
 3753WAT     H211471   3.177   0.791   2.578  0.1552 -0.4215 -0.6603
 3754WAT      O11472   0.211   4.476   5.290  0.1377 -0.5214  0.2176
 3754WAT     H111473   0.296   4.433   5.306 -0.6348 -1.5120  2.0293
 3754WAT     H211474   0.153   4.436   5.355 -2.0638 -0.8399 -1.8567
 3755WAT      O11475   4.196   2.815   0.323 -0.0867  0.2750 -0.0655
 3755WAT     H111476   4.130   2.766   0.275 -0.2863 -1.4322  1.8133
 3755WAT     H211477   4.260   2.839   0.257 -0.7177 -1.3050 -1.3340
 3756WAT      O11478   3.752   3.475   2.630  0.0994  0.4605  0.5164
 3756WAT     H111479   3.752   3.396   2.576  1.2009  0.0296  1.1094
 3756WAT     H211480   3.746   3.547   2.567  2.0190 -0.0131 -0.2682
 3757WAT      O11481   3.333   2.247   2.894 -0.0705  0.0869 -0.4750
 3757WAT     H111482   3.362   2.329   2.853 -1.3574  0.3231 -0.9517
 3757WAT     H211483   3.411   2.191   2.891  1.1492  1.6106  0.7822
 3758WAT      O11484   2.854   0.223   1.730 -0.5463 -0.1955  0.1552
 3758WAT     H111485   2.889   0.144   1.689  0.8108 -0.0354  0.9766
 3758WAT     H211486   2.889   0.223   1.819 -1.1788  0.9162  0.4315
 3759WAT      O11487   2.397   1.633   1.279  0.3577 -0.1830 -0.2103
 3759WAT     H111488   2.353   1.662   1.359  0.0593 -1.0739 -0.0367
 3759WAT     H211489   2.411   1.539   1.292 -1.7555 -0.8537 -2.1188
 3760WAT      O11490   3.829   2.282   3.796 -0.2361  0.0192  0.6201
 3760WAT     H111491   3.738   2.272   3.769 -0.2641  0.6269  0.4853
 3760WAT     H211492   3.852   2.371   3.771 -0.0153  0.3229  1.8488
 3761WAT      O11493   2.521   3.247   2.780  0.1959 -0.6063  0.1635
 3761WAT     H111494   2.497   3.186   2.849 -1.2261 -0.8462 -0.5194
 3761WAT     H211495   2.468   3.221   2.705 -0.2466  1.2989 -0.2343
 3762WAT      O11496   3.281   2.867   0.441 -0.0277  0.1047  0.4858
 3762WAT     H111497   3.303   2.775   0.457  0.0567  0.0503  0.0712
 3762WAT     H211498   3.198   2.880   0.488 -0.3227 -0.3330  0.0941
 3763WAT      O11499   2.809   4.784   4.492 -0.0782  0.4162  0.2632
 3763WAT     H111500   2.858   4.821   4.418 -0.5618  0.0425 -0.2453
 3763WAT     H211501   2.760   4.711   4.455  0.4625 -0.4181  1.1626
 3764WAT      O11502   0.769   4.970   4.976  0.6306  1.0445 -0.0523
 3764WAT     H111503   0.681   4.969   4.937  0.1045  0.6070  1.0930
 3764WAT     H211504   0.802   5.058   4.958 -1.0939  2.1284  1.7212
 3765WAT      O11505   3.085   2.584   3.431  1.5418  0.2802 -0.2157
 3765WAT     H111506   3.033   2.582   3.351  0.0033  0.5469  0.7380
 3765WAT     H211507   3.091   2.493   3.459  3.1171  0.0378 -1.2447
 3766WAT      O11508   2.427   1.464   4.476  0.1463  0.1228 -0.6700
 3766WAT     H111509   2.359   1.528   4.455 -1.3463 -1.7622 -2.0468
 3766WAT     H211510   2.452   1.428   4.391  2.5828  0.4170 -0.1472
 3767WAT      O11511   1.265   3.980   1.629 -0.6691 -0.3409 -0.5249
 3767WAT     H111512   1.314   3.898   1.627 -1.2896 -0.8238  1.7003
 3767WAT     H211513   1.306   4.033   1.560  0.7767 -1.9108 -0.9665
 3768WAT      O11514   2.003   5.065   4.005 -0.0467  0.2437  0.1614
 3768WAT     H111515   2.079   5.054   4.062 -0.1997  1.1081  0.5354
 3768WAT     H211516   1.928   5.037   4.059 -0.1997  1.1322  0.4126
 3769WAT      O11517   3.259   1.986   4.982  0.0160 -0.4958 -0.0404
 3769WAT     H111518   3.210   2.058   5.022  1.4675 -0.3491  1.5740
 3769WAT     H211519   3.295   1.937   5.056  0.0648 -2.2156 -1.1276
 3770WAT      O11520   0.806   3.765   0.131 -0.4314 -0.0948  0.1548
 3770WAT     H111521   0.726   3.804   0.095 -0.6507 -0.5179  0.1767
 3770WAT     H211522   0.875   3.828   0.109 -0.5062 -0.4691 -1.2845
 3771WAT      O11523   0.157   3.161   0.832  0.1391  0.8043 -0.9102
 3771WAT     H111524   0.154   3.131   0.922  0.5420 -0.6676 -1.3622
 3771WAT     H211525   0.192   3.250   0.837  2.7944 -0.2035  0.1875
 3772WAT      O11526   0.441   4.299   3.393  0.4260 -0.4146  0.2601
 3772WAT     H111527   0.402   4.365   3.449 -0.0937 -1.8266  1.6246
 3772WAT     H211528   0.448   4.221   3.448  0.2781 -1.7454 -1.5155
 3773WAT      O11529   1.246   0.066   2.625  0.1601 -0.2874  0.5420
 3773WAT     H111530   1.243   0.144   2.571 -0.0484 -0.3169  0.5101
 3773WAT     H211531   1.187   0.004   2.582  0.5578 -0.5733  0.3961
 3774WAT      O11532   2.579   4.226   5.005  0.4051  0.4639 -0.4479
 3774WAT     H111533   2.670   4.202   5.020 -0.0181 -0.1031  1.4592
 3774WAT     H211534   2.575   4.320   5.024 -0.1479 -0.2237  4.0195
 3775WAT      O11535   0.388   1.480   1.120  0.0399 -0.2967 -0.3560
 3775WAT     H111536   0.402   1.417   1.191 -0.1370  0.2921  0.2127
 3775WAT     H211537   0.402   1.566   1.161 -1.8475  0.1619 -0.5630
 3776WAT      O11538   2.603   5.114   4.453  0.2332 -0.0037 -0.3678
 3776WAT     H111539   2.658   5.163   4.513 -1.9311  2.2966 -0.0935
 3776WAT     H211540   2.623   5.150   4.367 -3.2205  3.5979  0.0860
 3777WAT      O11541   1.314   2.801   4.140  0.0549 -0.0573 -0.1034
 3777WAT     H111542   1.224   2.834   4.130 -0.6844 -1.8258  0.3253
 3777WAT     H211543   1.315   2.721   4.088  1.5413  0.1819 -0.4639
 3778WAT      O11544   4.047   1.717   5.052 -0.2501 -0.2010  0.2788
 3778WAT     H111545   3.957   1.713   5.085 -0.3142 -1.0663  0.0311
 3778WAT     H211546   4.055   1.639   4.996  0.2092  0.6186 -0.8297
 3779WAT      O11547   0.777   3.550   3.631  0.2565 -0.1263  0.3692
 3779WAT     H111548   0.812   3.584   3.549 -0.5557 -0.1884 -0.0066
 3779WAT     H211549   0.836   3.585   3.698 -0.1363  1.4202 -0.0733
 3780WAT      O11550   0.542   3.353   2.923  0.7426 -0.4638  0.2727
 3780WAT     H111551   0.473   3.293   2.952 -0.1252 -0.4586 -1.6578
 3780WAT     H211552   0.592   3.372   3.003 -0.6257 -1.5771  1.4467
 3781WAT      O11553   0.282   4.904   1.042  0.2739  0.6141 -0.1974
 3781WAT     H111554   0.330   4.942   0.968 -1.1894  0.4506 -1.2687
 3781WAT     H211555   0.326   4.940   1.119  0.8595  2.0503 -1.1420
 3782WAT      O11556   2.673   2.367   4.449 -0.3731 -0.3907 -0.2309
 3782WAT     H111557   2.670   2.275   4.475 -4.1866 -0.3622  0.0133
 3782WAT     H211558   2.699   2.414   4.528 -2.4168 -1.0567  0.9267
 3783WAT      O11559   3.328   3.771   2.466  0.3846  0.3740  0.4642
 3783WAT     H111560   3.374   3.757   2.383 -2.0652  1.3636 -1.1814
 3783WAT     H211561   3.384   3.830   2.515  2.0844 -0.5390 -0.3045
 3784WAT      O11562   0.437   3.598   3.347 -0.3175 -0.4186  0.2715
 3784WAT     H111563   0.425   3.601   3.442  0.1829  0.1302  0.3254
 3784WAT     H211564   0.348   3.590   3.312 -0.4528 -1.3856  0.8053
 3785WAT      O11565   2.806   1.492   3.092 -0.0750 -0.1356  0.3208
 3785WAT     H111566   2.731   1.551   3.100  1.2011  1.4929  0.9267
 3785WAT     H211567   2.817   1.457   3.181  0.8098  0.8823  0.6392
 3786WAT      O11568   2.295   2.836   2.466  0.3168  0.3167  0.0380
 3786WAT     H111569   2.298   2.740   2.459  1.3623  0.3655 -0.3875
 3786WAT     H211570   2.363   2.866   2.406 -1.2728  1.4123 -1.3098
 3787WAT      O11571   2.209   3.754   3.111 -0.2885  0.0395  0.1584
 3787WAT     H111572   2.149   3.775   3.182 -2.1219 -1.0088 -0.9889
 3787WAT     H211573   2.198   3.824   3.048  0.6877  0.5135  0.4945
 3788WAT      O11574   2.836   4.267   4.490 -0.4615  0.6042  0.3079
 3788WAT     H111575   2.927   4.255   4.462 -0.2792  0.7231  0.8400
 3788WAT     H211576   2.785   4.260   4.409  0.0797  1.1764 -0.0927
 3789WAT      O11577   0.069   0.331   2.409  0.1833 -0.5082  0.5954
 3789WAT     H111578   0.004   0.373   2.352 -1.3515 -1.6517  1.4300
 3789WAT     H211579   0.030   0.335   2.497  2.1314  0.4755  1.4637
 3790WAT      O11580   0.436   1.733   2.159  0.2667  0.0683 -0.4039
 3790WAT     H111581   0.424   1.704   2.069  1.3074  0.2362 -0.6006
 3790WAT     H211582   0.358   1.786   2.177  0.5246  0.8594 -1.5342
 3791WAT      O11583   0.668   1.125   4.411  0.0954 -0.1954  0.0150
 3791WAT     H111584   0.713   1.041   4.405 -0.4977 -0.5993  0.9986
 3791WAT     H211585   0.658   1.141   4.505 -1.2943  0.1540 -0.1718
 3792WAT      O11586   1.978   0.357   5.245  0.0217  0.0068  0.3738
 3792WAT     H111587   2.048   0.355   5.180  1.3659 -0.8378  1.7619
 3792WAT     H211588   1.957   0.450   5.256  0.5639  0.2319 -0.4426
 3793WAT      O11589   1.188   3.102   1.561 -0.4962  0.6229  0.4547
 3793WAT     H111590   1.168   3.075   1.651  1.1443 -1.9340  0.1522
 3793WAT     H211591   1.102   3.104   1.518 -0.9914 -3.5582  0.7948
 3794WAT      O11592   3.349   0.319   0.187 -0.4794 -0.1384  0.6298
 3794WAT     H111593   3.345   0.321   0.092 -1.3001  1.5877  0.6596
 3794WAT     H211594   3.277   0.262   0.213 -2.3396  1.8663  0.2274
 3795WAT      O11595   0.293   2.896   3.316 -0.0693 -0.1115  0.1024
 3795WAT     H111596   0.384   2.922   3.330  0.2897 -0.2098 -1.8162
 3795WAT     H211597   0.280   2.822   3.375  1.7369 -1.3480 -0.9515
 3796WAT      O11598   0.406   3.362   2.070  0.2671 -0.6238  0.3074
 3796WAT     H111599   0.320   3.394   2.098  1.1736  0.3108  2.2041
 3796WAT     H211600   0.398   3.266   2.072 -1.0546 -0.5593 -0.7131
 3797WAT      O11601   2.698   3.887   3.776  0.3144 -0.0963  0.1433
 3797WAT     H111602   2.691   3.822   3.845  0.5773 -1.5925 -1.1733
 3797WAT     H211603   2.787   3.879   3.743 -0.2443 -0.5704 -1.3921
 3798WAT      O11604   0.340   2.523   4.811 -0.3896  0.0788  0.0614
 3798WAT     H111605   0.323   2.429   4.810  2.6310 -0.6438  2.7056
 3798WAT     H211606   0.400   2.538   4.738  2.4519 -0.9732  2.0064
 3799WAT      O11607   2.545   0.026   3.993 -0.4694 -0.4978  0.0721
 3799WAT     H111608   2.618   0.068   3.947 -1.3172 -0.7332 -1.5495
 3799WAT     H211609   2.505  -0.032   3.928 -0.7960 -2.0283  1.5708
 3800WAT      O11610   2.733   1.619   4.330 -0.1909  0.2771 -0.3755
 3800WAT     H111611   2.785   1.572   4.264 -1.5740 -1.8043 -0.0806
 3800WAT     H211612   2.729   1.559   4.405 -0.7469  1.5382  0.6338
 3801WAT      O11613   3.898   1.008   0.711  0.2826  0.2043  1.2104
 3801WAT     H111614   3.955   0.955   0.765  0.6759  1.8891  2.5302
 3801WAT     H211615   3.860   1.072   0.771  0.7363  2.1649 -0.4488
 3802WAT      O11616   2.500   3.591   2.096  0.2217 -0.0690  0.2569
 3802WAT     H111617   2.568   3.633   2.149 -0.4643  1.4733 -0.0488
 3802WAT     H211618   2.430   3.571   2.159 -0.5719  1.7177 -0.0102
 3803WAT      O11619   0.351   4.061   3.870  0.3339 -0.2768  0.4208
 3803WAT     H111620   0.434   4.045   3.914  0.0663  1.8309  1.8700
 3803WAT     H211621   0.376   4.100   3.786  0.9111  1.7801  1.4606
 3804WAT      O11622   2.201   1.678   1.480  0.6133  0.0384 -0.0751
 3804WAT     H111623   2.149   1.683   1.399  1.1536  0.4776 -0.4005
 3804WAT     H211624   2.139   1.645   1.546 -0.2960  1.2543 -0.2858
 3805WAT      O11625   3.738   0.893   4.618  0.1786  0.0825  0.0100
 3805WAT     H111626   3.758   0.882   4.711 -0.9240  0.3701  0.3073
 3805WAT     H211627   3.786   0.971   4.593  0.5541 -0.0453  0.3243
 3806WAT      O11628   0.125   1.794   5.232 -0.2983  0.0207 -0.3569
 3806WAT     H111629   0.141   1.772   5.324 -0.7732 -0.0849 -0.2976
 3806WAT     H211630   0.201   1.846   5.207  0.1219 -0.4450 -0.0730
 3807WAT      O11631   2.229   1.306   5.270  0.4027 -0.1804  0.3747
 3807WAT     H111632   2.228   1.299   5.174 -0.7955  0.8815  0.2843
 3807WAT     H211633   2.289   1.378   5.288 -0.2408  0.3814  0.3353
 3808WAT      O11634   3.618   1.676   3.650 -0.4000  0.4956 -0.2531
 3808WAT     H111635   3.553   1.741   3.624 -1.8692 -0.1370  1.5693
 3808WAT     H211636   3.577   1.592   3.629 -0.3785  0.0766  1.2607
 3809WAT      O11637   2.432   1.349   1.366 -0.0135 -0.8296  0.3758
 3809WAT     H111638   2.392   1.290   1.301 -0.7080  1.0531 -1.0124
 3809WAT     H211639   2.521   1.362   1.334 -0.4291  0.2864 -0.3759
 3810WAT      O11640   0.915   3.003   4.780 -0.2425 -0.5438  0.0293
 3810WAT     H111641   1.005   3.031   4.796 -0.6582  0.9165 -0.0616
 3810WAT     H211642   0.879   2.986   4.867  0.2829 -1.6949  0.0314
 3811WAT      O11643   2.235   0.854   3.185 -0.4349 -0.4176 -0.3519
 3811WAT     H111644   2.231   0.869   3.279  1.6497 -1.9307  0.0356
 3811WAT     H211645   2.213   0.939   3.146 -0.8625  0.3479  1.4876
 3812WAT      O11646   2.408   4.795   4.825  0.4548 -0.2265  0.4711
 3812WAT     H111647   2.342   4.861   4.847 -1.7914 -2.4449  0.8620
 3812WAT     H211648   2.463   4.837   4.759 -1.7473  1.5359 -0.3550
 3813WAT      O11649   0.832   4.986   2.247 -0.0485  0.1467  0.1710
 3813WAT     H111650   0.770   5.002   2.176 -1.3297  0.7630  1.3884
 3813WAT     H211651   0.916   4.978   2.203 -0.7596  0.7732 -1.3954
 3814WAT      O11652   2.120   1.938   3.258 -0.2419  0.1233  0.5534
 3814WAT     H111653   2.109   1.850   3.222 -2.5175  0.3861  0.4603
 3814WAT     H211654   2.209   1.963   3.234  0.0489 -1.6873 -0.4319
 3815WAT      O11655   4.161   4.652   1.736  0.1876  0.4315 -0.1029
 3815WAT     H111656   4.101   4.665   1.809 -1.4868  0.6332 -1.4614
 3815WAT     H211657   4.150   4.730   1.681  0.1293 -0.4715 -1.4217
 3816WAT      O11658   0.382   0.408   2.519  0.4586  0.1614 -0.6144
 3816WAT     H111659   0.411   0.316   2.517 -0.4645 -0.1364 -0.5560
 3816WAT     H211660   0.308   0.411   2.459  1.0405  1.0781 -1.3143
 3817WAT      O11661   3.048   2.605   1.735  0.2803  0.3241 -0.5748
 3817WAT     H111662   3.079   2.682   1.686  0.4392 -0.5966 -1.9823
 3817WAT     H211663   3.085   2.531   1.688  1.3171 -0.6199  1.5931
 3818WAT      O11664   0.733   0.857   4.609 -0.2252 -0.4511 -0.4637
 3818WAT     H111665   0.679   0.929   4.644 -0.3060 -1.3606  1.4206
 3818WAT     H211666   0.677   0.780   4.616  0.2126 -0.8808 -1.5339
 3819WAT      O11667   1.672   2.421   4.215 -0.5366  0.1004  0.0851
 3819WAT     H111668   1.593   2.381   4.252 -0.4555 -1.0206 -0.8997
 3819WAT     H211669   1.640   2.473   4.141 -0.2440 -1.5101 -1.2168
 3820WAT      O11670   2.940   3.311   4.621 -0.0629  0.3111 -0.1514
 3820WAT     H111671   2.884   3.316   4.544  0.3505  0.7613 -0.4332
 3820WAT     H211672   2.951   3.217   4.637 -0.3192  0.2160 -0.5142
 3821WAT      O11673   4.087   3.958   3.306  0.4941  0.0768 -0.4908
 3821WAT     H111674   4.088   3.900   3.382  0.9105  0.3581 -0.2791
 3821WAT     H211675   4.146   4.030   3.330 -0.9400  1.2279 -0.2530
 3822WAT      O11676   0.492   4.245   4.624  0.5594  0.7933 -0.0512
 3822WAT     H111677   0.418   4.247   4.684  0.6692 -0.6118  0.1487
 3822WAT     H211678   0.467   4.307   4.554 -0.7230  0.4637  0.0877
 3823WAT      O11679   2.741   4.331   2.550  0.3396 -0.0430 -0.3366
 3823WAT     H111680   2.689   4.262   2.510  2.0747 -0.7220 -1.5186
 3823WAT     H211681   2.821   4.335   2.497  1.0365  1.6766  0.7675
 3824WAT      O11682   3.965   1.744   1.841  0.0628 -0.3731  0.0309
 3824WAT     H111683   3.911   1.819   1.864 -0.8513 -1.2668  0.8659
 3824WAT     H211684   4.042   1.751   1.898 -0.3815 -0.4836  0.6495
 3825WAT      O11685   2.713   1.202   4.162  0.3022  0.5067 -0.3215
 3825WAT     H111686   2.792   1.207   4.216 -0.7154  1.3476  1.1602
 3825WAT     H211687   2.733   1.255   4.085  1.6492 -0.4036 -0.6338
 3826WAT      O11688   2.862   4.735   0.090  0.6792 -0.4740  0.6021
 3826WAT     H111689   2.853   4.688   0.173  0.2934 -1.8892 -0.2059
 3826WAT     H211690   2.941   4.698   0.050  0.9287  0.2815  0.3783
 3827WAT      O11691   2.439   1.419   3.320 -0.1783  0.4722 -0.0363
 3827WAT     H111692   2.481   1.456   3.399 -0.7569  2.4832 -0.6013
 3827WAT     H211693   2.461   1.326   3.322 -0.7901  0.2892  2.9077
 3828WAT      O11694   3.522   3.288   0.964 -0.1909  0.1319  0.3220
 3828WAT     H111695   3.565   3.331   1.038  1.4897  1.7193 -1.4639
 3828WAT     H211696   3.507   3.359   0.901 -0.3826 -1.3509 -1.3707
 3829WAT      O11697   4.481   1.654   5.053 -0.0418  0.0288 -0.2315
 3829WAT     H111698   4.556   1.680   5.107 -0.4728  1.2967 -0.2102
 3829WAT     H211699   4.427   1.600   5.111  0.0150  0.5252  0.2938
 3830WAT      O11700   1.175   2.402   4.036  0.3872 -0.2756 -0.6207
 3830WAT     H111701   1.124   2.433   4.111  2.3681 -1.9361  1.5415
 3830WAT     H211702   1.202   2.483   3.992 -2.3103  0.7045 -0.7104
 3831WAT      O11703   1.085   1.750   4.853  0.3317 -0.0570 -0.0572
 3831WAT     H111704   1.147   1.799   4.906  1.3540 -1.5009  0.1198
 3831WAT     H211705   1.078   1.801   4.772  0.4782  0.9690  0.5605
 3832WAT      O11706   3.869   2.350   5.132 -0.1803 -0.1482  0.9520
 3832WAT     H111707   3.864   2.293   5.056 -0.6968  0.3649  0.5996
 3832WAT     H211708   3.933   2.418   5.108 -2.0535  1.3708  0.0451
 3833WAT      O11709   1.957   1.211   1.673  0.4131  0.5850 -0.5458
 3833WAT     H111710   2.001   1.210   1.588  1.7007 -1.0782  0.0773
 3833WAT     H211711   2.027   1.196   1.736 -0.8585 -0.8383  0.5963
 3834WAT      O11712   4.417   0.131   3.935  0.0751 -0.4881  0.0973
 3834WAT     H111713   4.341   0.107   3.989 -0.5642 -0.0431 -0.5785
 3834WAT     H211714   4.442   0.049   3.892  2.6345 -1.6801  3.4150
 3835WAT      O11715   3.761   4.821   3.608  0.1077 -0.4844  0.1228
 3835WAT     H111716   3.848   4.792   3.580  0.1941 -0.7809  0.6837
 3835WAT     H211717   3.769   4.916   3.615  0.0915 -0.4009 -0.8141
 3836WAT      O11718   3.978   1.975   3.202 -0.1090 -0.6617 -0.3213
 3836WAT     H111719   3.995   2.067   3.224  0.0470 -0.6100 -0.6640
 3836WAT     H211720   3.964   1.933   3.287  1.3760 -0.6345 -0.0476
 3837WAT      O11721   0.506   3.921   2.342 -0.1431 -0.2522  0.0044
 3837WAT     H111722   0.539   4.007   2.370  0.6704 -0.3252 -0.6817
 3837WAT     H211723   0.411   3.928   2.349 -0.1067  0.8221 -0.3564
 3838WAT      O11724   0.159   3.388   0.180 -0.1602 -0.8479 -0.5285
 3838WAT     H111725   0.146   3.346   0.264 -1.2050 -2.9675 -1.6659
 3838WAT     H211726   0.071   3.394   0.143  0.4133 -1.3532 -2.0662
 3839WAT      O11727   2.001   0.715   1.543 -0.0768 -0.3137  0.3966
 3839WAT     H111728   1.977   0.782   1.479 -0.1545 -0.3629  0.3738
 3839WAT     H211729   2.045   0.763   1.613  0.4276 -0.3194  0.0904
 3840WAT      O11730   3.381   4.109   1.038  0.3831 -0.3538 -0.0305
 3840WAT     H111731   3.287   4.127   1.030  0.5612  0.0541 -1.3361
 3840WAT     H211732   3.416   4.183   1.087 -0.2724 -1.5135  2.3588
 3841WAT      O11733   0.526   1.335   1.980 -0.2962  0.7347  0.3998
 3841WAT     H111734   0.592   1.276   1.944  0.3402  1.9791 -0.5501
 3841WAT     H211735   0.542   1.335   2.075 -1.8506 -2.4090  0.7954
 3842WAT      O11736   0.884   1.193   2.256  0.0274  0.3317  0.1147
 3842WAT     H111737   0.947   1.197   2.184 -0.6558 -0.7740 -0.5841
 3842WAT     H211738   0.906   1.113   2.303 -0.1535  0.5281  0.5439
 3843WAT      O11739   0.620   1.689   4.520 -0.3780  0.0486 -0.3725
 3843WAT     H111740   0.637   1.680   4.614 -0.1740 -0.6459 -0.4676
 3843WAT     H211741   0.638   1.602   4.484 -2.1794 -0.1880 -0.7948
 3844WAT      O11742   0.509   3.142   3.888 -0.3668 -0.4558  0.6506
 3844WAT     H111743   0.429   3.192   3.901 -0.6498 -0.0076 -2.1542
 3844WAT     H211744   0.485   3.075   3.824  2.0455  1.5021 -2.6022
 3845WAT      O11745   2.279   4.414   3.673 -0.5218  0.1710  0.2391
 3845WAT     H111746   2.352   4.392   3.731 -1.1265  0.5637  1.1658
 3845WAT     H211747   2.306   4.379   3.587  1.0681  0.9431  0.3825
 3846WAT      O11748   2.034   1.364   0.724  0.5143  0.2076 -0.4686
 3846WAT     H111749   1.976   1.287   0.722  1.3672 -0.4818  0.3447
 3846WAT     H211750   2.106   1.341   0.665  0.8393  0.3316 -0.1223
 3847WAT      O11751   4.411   2.472   0.892  0.0020  0.7761 -0.0081
 3847WAT     H111752   4.338   2.419   0.925  0.2326 -0.3691 -1.2612
 3847WAT     H211753   4.468   2.483   0.968 -0.9522  0.8041  0.7265
 3848WAT      O11754   1.229   3.421   4.991 -0.1799 -0.7370  0.1701
 3848WAT     H111755   1.269   3.357   4.931 -1.0197 -1.1591  0.0430
 3848WAT     H211756   1.142   3.386   5.008 -1.2905  1.1637 -1.1726
 3849WAT      O11757   3.311   0.134   4.496  0.0356  0.1281  0.3808
 3849WAT     H111758   3.336   0.061   4.439  0.1407 -0.2065  0.8447
 3849WAT     H211759   3.334   0.104   4.584 -1.4931  0.0283  0.7696
 3850WAT      O11760   1.924   2.388   1.349  0.1855  0.0777  0.2329
 3850WAT     H111761   1.832   2.408   1.364  0.2020 -0.4898  1.1737
 3850WAT     H211762   1.957   2.360   1.434  0.5735 -2.2953 -0.6066
 3851WAT      O11763   3.423   4.031   1.623 -0.0399 -0.1068  0.8928
 3851WAT     H111764   3.519   4.035   1.617  0.0695 -0.6583  2.0773
 3851WAT     H211765   3.395   4.120   1.604  0.4800 -0.5227 -2.5605
 3852WAT      O11766   2.387   4.771   2.089 -0.3725 -0.1576 -0.1842
 3852WAT     H111767   2.303   4.803   2.121  0.3059  0.3882  1.1445
 3852WAT     H211768   2.365   4.707   2.021 -1.8001  1.7546 -1.6322
 3853WAT      O11769   0.110   2.742   2.308  0.2831 -0.2471 -0.3024
 3853WAT     H111770   0.090   2.776   2.395 -0.3283  1.2476 -1.0070
 3853WAT     H211771   0.192   2.694   2.320  0.2986  0.0746  1.0515
 3854WAT      O11772   1.922   2.486   0.940  0.5568  0.3636  0.0156
 3854WAT     H111773   1.946   2.415   0.881  0.9128  0.8269 -0.4031
 3854WAT     H211774   1.984   2.479   1.013 -1.1952 -1.5234  1.4331
 3855WAT      O11775   4.224   2.847   5.049  0.1750 -0.0618  0.0345
 3855WAT     H111776   4.210   2.871   4.958  1.1253  1.1244  0.1718
 3855WAT     H211777   4.157   2.781   5.067  0.1225 -0.4779 -1.5727
 3856WAT      O11778   0.474   3.744   1.883 -0.1437 -0.0262  0.1595
 3856WAT     H111779   0.457   3.835   1.859 -0.2086 -0.0315  0.1824
 3856WAT     H211780   0.494   3.748   1.977 -0.6422 -0.0919  0.2752
 3857WAT      O11781   3.492   3.946   2.575 -0.1072 -0.0507  0.0759
 3857WAT     H111782   3.532   3.924   2.659 -0.3705 -2.4024 -0.3478
 3857WAT     H211783   3.560   3.992   2.527  0.3766  0.4265  1.1852
 3858WAT      O11784   3.948   1.702   1.333  0.0900  0.2443  0.8749
 3858WAT     H111785   4.006   1.637   1.372  0.1891  0.3051  0.8287
 3858WAT     H211786   3.981   1.714   1.244 -1.3408 -1.3885  0.0656
 3859WAT      O11787   0.817   0.029   2.528 -0.2974  0.1345  0.2894
 3859WAT     H111788   0.844   0.109   2.482 -1.3885 -0.0503 -0.7635
 3859WAT     H211789   0.787   0.060   2.614  0.6178  0.6686  0.4250
 3860WAT      O11790   0.157   0.633   1.369 -0.0543 -0.0348 -0.1189
 3860WAT     H111791   0.080   0.620   1.423 -0.8169  1.8845 -0.6527
 3860WAT     H211792   0.229   0.642   1.431 -0.5471 -0.1000  0.4711
 3861WAT      O11793   3.610   1.721   2.715 -0.0408  0.3774 -0.4648
 3861WAT     H111794   3.683   1.735   2.655 -0.7484  0.6133 -1.2998
 3861WAT     H211795   3.637   1.647   2.769  1.5806  1.6160  0.5033
 3862WAT      O11796   1.628   3.033   3.088 -0.4133  0.5076  0.1614
 3862WAT     H111797   1.709   3.060   3.047 -1.2683 -0.4124 -2.3291
 3862WAT     H211798   1.638   2.938   3.101 -1.3988  0.2014 -1.0826
 3863WAT      O11799   1.977   3.815   4.502 -0.5807  0.5106 -0.0382
 3863WAT     H111800   2.032   3.891   4.483  0.2841  0.0830  0.6840
 3863WAT     H211801   1.971   3.813   4.598 -1.7562  0.4706 -0.0935
 3864WAT      O11802   2.459   4.700   2.715 -0.0440 -0.3518 -0.3063
 3864WAT     H111803   2.534   4.640   2.720  0.4321 -0.0576 -2.5916
 3864WAT     H211804   2.452   4.721   2.622 -1.8180  1.1222  0.1045
 3865WAT      O11805   1.065   4.642   2.810  0.0743 -0.1459 -0.4069
 3865WAT     H111806   1.070   4.738   2.806 -1.5002 -0.0435 -0.3775
 3865WAT     H211807   1.055   4.623   2.903  1.9479 -0.4744 -0.2203
 3866WAT      O11808   4.299   4.670   4.363 -0.3923  0.1830  0.0457
 3866WAT     H111809   4.305   4.764   4.374 -0.3244  0.2915 -0.8822
 3866WAT     H211810   4.389   4.638   4.374 -0.2711  0.3264 -0.5170
 3867WAT      O11811   3.853   1.562   4.542  0.2989 -0.1826 -0.4202
 3867WAT     H111812   3.816   1.646   4.567 -0.2332  0.4285 -2.9925
 3867WAT     H211813   3.945   1.567   4.566 -0.3104 -0.0720  2.1495
 3868WAT      O11814   2.515   0.894   3.312  0.6240 -0.6170 -0.2172
 3868WAT     H111815   2.438   0.842   3.337  1.6756 -1.4657  1.4547
 3868WAT     H211816   2.554   0.847   3.239  0.2434 -0.8483 -0.2745
 3869WAT      O11817   0.143   3.087   0.138 -0.0086 -0.2331  0.2852
 3869WAT     H111818   0.100   3.168   0.162 -0.9653 -1.2553  2.3044
 3869WAT     H211819   0.075   3.020   0.144  1.1729 -1.4693  0.6485
 3870WAT      O11820   0.281   5.071   4.215 -0.1361  0.1455  0.1091
 3870WAT     H111821   0.238   5.140   4.165 -0.2583 -0.0765 -0.0913
 3870WAT     H211822   0.276   4.993   4.159 -2.3262 -0.7114  1.3811
 3871WAT      O11823   2.654   1.359   0.233 -0.0827 -0.4660 -0.2629
 3871WAT     H111824   2.573   1.311   0.221 -0.0089 -0.5554 -0.4157
 3871WAT     H211825   2.723   1.293   0.219  0.0229 -0.2687 -0.7060
 3872WAT      O11826   2.445   2.009   2.106 -0.3080  0.5461  0.0114
 3872WAT     H111827   2.506   1.936   2.112  1.4993  2.0761  1.4489
 3872WAT     H211828   2.381   1.992   2.175 -0.3861 -0.0712 -0.2036
 3873WAT      O11829   3.708   2.037   1.265 -0.0262 -0.2754 -0.6029
 3873WAT     H111830   3.704   1.942   1.256 -0.0994 -0.2242 -1.1651
 3873WAT     H211831   3.654   2.070   1.194  0.7997  0.2049 -1.0249
 3874WAT      O11832   2.781   0.491   3.725  0.3332  0.4135  0.3449
 3874WAT     H111833   2.747   0.559   3.782 -0.2798  0.7658 -0.4269
 3874WAT     H211834   2.802   0.536   3.643  0.9949 -0.1218  0.2035
 3875WAT      O11835   3.477   2.882   3.657 -0.5286 -0.9782 -0.5613
 3875WAT     H111836   3.458   2.942   3.728  0.2982 -0.9505 -0.3540
 3875WAT     H211837   3.403   2.821   3.656 -0.3089 -1.2793  0.6422
 3876WAT      O11838   3.012   0.227   3.675  0.1793  0.0726  0.0086
 3876WAT     H111839   2.987   0.310   3.716 -0.8289 -0.8076  1.2128
 3876WAT     H211840   2.964   0.226   3.592  0.3571  0.7697 -0.1137
 3877WAT      O11841   4.228   1.261   4.682  0.1843  0.8580 -0.3572
 3877WAT     H111842   4.196   1.240   4.770 -0.6159 -0.3671 -0.9101
 3877WAT     H211843   4.167   1.216   4.623  1.2804  0.8424 -1.5252
 3878WAT      O11844   2.391   2.785   4.283 -0.5918  0.3083  0.1194
 3878WAT     H111845   2.480   2.806   4.310 -0.1753  1.2763 -1.8231
 3878WAT     H211846   2.377   2.697   4.317  1.9789 -0.8142 -1.3792
 3879WAT      O11847   2.776   0.343   4.635  0.2587  0.2105 -0.5670
 3879WAT     H111848   2.814   0.382   4.714 -1.5250 -1.1999  1.1132
 3879WAT     H211849   2.834   0.270   4.614 -0.5827 -1.0130  1.0788
 3880WAT      O11850   0.635   3.006   4.388 -0.1343  0.1447  0.0987
 3880WAT     H111851   0.565   2.943   4.367 -1.5521  2.3154 -2.2754
 3880WAT     H211852   0.624   3.023   4.482  0.2608 -2.9270  0.8391
 3881WAT      O11853   4.101   3.124   2.259  0.3180  0.1345 -0.1852
 3881WAT     H111854   4.144   3.209   2.253  2.0084 -0.5022  1.5246
 3881WAT     H211855   4.057   3.126   2.344 -1.1695 -0.0652 -0.9282
 3882WAT      O11856   1.407   0.748   0.929  0.6650 -0.5892 -0.1621
 3882WAT     H111857   1.383   0.731   0.838  1.3983  1.0772 -0.6982
 3882WAT     H211858   1.482   0.692   0.945  0.9494 -0.3988 -0.8053
 3883WAT      O11859   0.413   2.779   2.929 -0.2611 -0.2266  0.4515
 3883WAT     H111860   0.401   2.724   2.851  0.0960 -1.3037  1.1480
 3883WAT     H211861   0.426   2.867   2.893  0.4060 -0.7799 -0.7349
 3884WAT      O11862   2.318   3.883   3.721 -0.4286  0.0457 -0.2018
 3884WAT     H111863   2.371   3.867   3.799  1.4325 -0.4907 -1.5029
 3884WAT     H211864   2.229   3.891   3.754  0.4079  0.9175  2.1005
 3885WAT      O11865   2.731   3.320   4.426 -0.2260 -0.3905 -0.2152
 3885WAT     H111866   2.650   3.294   4.382  1.0479 -0.2586 -2.8653
 3885WAT     H211867   2.724   3.415   4.437 -0.3901 -0.3650 -0.5368
 3886WAT      O11868   3.468   1.978   0.115 -0.3334 -0.5340 -0.1052
 3886WAT     H111869   3.476   1.922   0.193 -2.2506 -0.5846  0.1226
 3886WAT     H211870   3.386   2.026   0.129  0.2196  0.8182 -1.2665
 3887WAT      O11871   0.663   0.267   4.650 -0.1422  0.2912 -0.3380
 3887WAT     H111872   0.582   0.266   4.701 -1.0088  0.0190 -1.6692
 3887WAT     H211873   0.731   0.288   4.714 -1.2199  0.2717  0.8613
 3888WAT      O11874   0.224   4.134   1.216  0.2192  0.1439  0.3710
 3888WAT     H111875   0.150   4.180   1.255 -0.1460  0.1567 -0.3260
 3888WAT     H211876   0.209   4.138   1.122  0.2955 -1.1884  0.2751
 3889WAT      O11877   4.354   0.161   5.139  0.7735  0.7067  0.3530
 3889WAT     H111878   4.380   0.246   5.103  0.9424  0.3898 -0.2794
 3889WAT     H211879   4.405   0.153   5.220  1.0230  1.0493  0.2319
 3890WAT      O11880   1.193   3.392   1.528  0.2018 -0.0046 -0.5167
 3890WAT     H111881   1.140   3.471   1.539  2.8229  1.5342  2.5658
 3890WAT     H211882   1.156   3.329   1.590  0.2112 -0.0055 -0.5120
 3891WAT      O11883   3.224   4.777   1.693  0.0670 -0.2441  0.1893
 3891WAT     H111884   3.221   4.872   1.706 -0.5851 -0.3567  0.9309
 3891WAT     H211885   3.138   4.747   1.721 -1.2457 -0.6303 -3.6683
 3892WAT      O11886   4.375   1.857   1.135  0.5837 -0.0609 -0.4258
 3892WAT     H111887   4.436   1.802   1.184  0.2159 -0.5031 -0.4465
 3892WAT     H211888   4.378   1.942   1.178  0.1087 -0.5013  0.5003
 3893WAT      O11889   1.650   2.292   1.140  0.1632 -0.7867  0.0662
 3893WAT     H111890   1.575   2.251   1.099  0.6932 -1.7819  0.0758
 3893WAT     H211891   1.726   2.244   1.107  0.6556 -1.1646  1.6540
 3894WAT      O11892   1.667   4.444   1.136  0.0438  0.4722 -0.2334
 3894WAT     H111893   1.629   4.416   1.219  0.9033  2.5059  0.9066
 3894WAT     H211894   1.595   4.434   1.073 -0.5483 -1.3440  0.6422
 3895WAT      O11895   2.177   4.967   3.376 -0.1416  0.2739  0.0243
 3895WAT     H111896   2.245   4.913   3.416 -0.4477 -1.4307 -1.6091
 3895WAT     H211897   2.225   5.028   3.319  0.0900 -0.0169 -0.0939
 3896WAT      O11898   3.495   1.633   0.784 -0.5137  0.3582  0.2425
 3896WAT     H111899   3.563   1.691   0.751 -1.1573  0.5375 -0.8077
 3896WAT     H211900   3.491   1.652   0.878  2.8075 -1.6654  0.9381
 3897WAT      O11901   3.455   4.529   4.617 -0.1846 -0.3776  0.1234
 3897WAT     H111902   3.519   4.490   4.557 -1.2656 -0.3187 -1.1047
 3897WAT     H211903   3.500   4.606   4.652 -0.4702  1.2997 -2.8505
 3898WAT      O11904   0.973   2.963   0.015 -0.0763  0.2514 -0.4163
 3898WAT     H111905   1.065   2.972  -0.009  0.2404 -1.1152  0.1990
 3898WAT     H211906   0.960   3.027   0.085  0.6334 -0.1402  0.0855
 3899WAT      O11907   3.281   2.561   4.046 -0.0435  0.0843  0.1018
 3899WAT     H111908   3.221   2.618   3.998  0.3342 -1.0070 -1.7340
 3899WAT     H211909   3.239   2.475   4.044  1.2218 -0.5347 -0.5833
 3900WAT      O11910   1.630   3.125   1.011  0.0281 -0.6970 -0.1458
 3900WAT     H111911   1.671   3.044   0.981 -0.8925 -0.7068 -1.4388
 3900WAT     H211912   1.543   3.098   1.041 -0.7277 -0.0651 -1.6545
 3901WAT      O11913   3.531   1.421   3.550 -0.7546  0.0059 -0.4303
 3901WAT     H111914   3.457   1.467   3.509 -1.0408 -0.6341 -0.6371
 3901WAT     H211915   3.548   1.346   3.493  0.5998  0.5952 -0.8220
 3902WAT      O11916   0.214   0.948   0.182 -0.3128  0.7037 -0.6909
 3902WAT     H111917   0.145   0.949   0.248  0.5116 -0.5916  0.2450
 3902WAT     H211918   0.256   1.034   0.189 -0.5280  0.7470  0.1630
 3903WAT      O11919   2.318   0.761   3.447  0.2544  0.3842 -0.5860
 3903WAT     H111920   2.272   0.707   3.382  0.7160  0.8192 -1.2824
 3903WAT     H211921   2.383   0.701   3.485 -1.1299 -0.3663  0.7245
 3904WAT      O11922   4.272   4.014   0.107 -0.5973 -0.0451 -0.3332
 3904WAT     H111923   4.302   3.925   0.125  0.7250  0.1579 -1.3979
 3904WAT     H211924   4.352   4.064   0.091 -1.3789  1.0519 -0.9601
 3905WAT      O11925   1.757   2.740   3.835  0.1878 -0.5507  0.1405
 3905WAT     H111926   1.808   2.717   3.757  1.3913  1.8313  0.1097
 3905WAT     H211927   1.804   2.815   3.872 -2.5908  0.9515  0.8733
 3906WAT      O11928   3.418   2.089   4.757 -0.4442  0.0533 -0.1853
 3906WAT     H111929   3.339   2.060   4.803 -0.6832 -1.5747 -1.4989
 3906WAT     H211930   3.395   2.079   4.664  0.8136  0.9636 -0.6064
 3907WAT      O11931   2.191   4.401   1.158 -0.1221  0.2018  0.1385
 3907WAT     H111932   2.210   4.477   1.104 -0.0378  0.0730 -0.0124
 3907WAT     H211933   2.106   4.420   1.198 -0.3785  0.1151 -0.3591
 3908WAT      O11934   1.239   2.547   0.686 -0.2308 -0.6713  0.1830
 3908WAT     H111935   1.235   2.619   0.749  1.4522 -0.7761  0.4687
 3908WAT     H211936   1.162   2.493   0.706 -1.0488  0.5876  0.5184
 3909WAT      O11937   0.066   3.930   1.500  0.2775 -0.0834 -0.0894
 3909WAT     H111938   0.119   4.009   1.513  0.4440 -0.1607 -0.3033
 3909WAT     H211939   0.046   3.930   1.407 -0.7445  0.3645  0.1072
 3910WAT      O11940   3.971   1.851   4.733 -0.0204 -0.7471  0.3640
 3910WAT     H111941   4.010   1.799   4.663  0.1146  1.9655 -1.7427
 3910WAT     H211942   4.039   1.914   4.758 -0.6861 -0.4977  1.6803
 3911WAT      O11943   2.378   3.806   1.092  0.3309  0.2067 -0.0953
 3911WAT     H111944   2.320   3.794   1.016  0.2046 -0.7855  0.1424
 3911WAT     H211945   2.328   3.862   1.151  0.5669  1.2818 -0.8711
 3912WAT      O11946   4.053   4.172   3.710  0.4932  0.2529  0.2810
 3912WAT     H111947   3.979   4.167   3.770 -0.8519 -3.1730 -1.3972
 3912WAT     H211948   4.130   4.171   3.766 -0.7124 -1.2088  2.0160
 3913WAT      O11949   4.158   1.356   2.136  0.7297 -0.2285  0.1109
 3913WAT     H111950   4.233   1.320   2.184 -0.4278 -2.5424  0.3133
 3913WAT     H211951   4.095   1.378   2.204  0.0922 -1.0829 -0.1908
 3914WAT      O11952   3.817   2.674   1.211 -0.2891 -0.4062 -0.1360
 3914WAT     H111953   3.892   2.728   1.188 -0.3683 -0.7130 -1.1309
 3914WAT     H211954   3.741   2.720   1.175 -0.2569 -1.6896 -1.9497
 3915WAT      O11955   3.436   2.572   2.530  0.1672 -0.2882 -0.2408
 3915WAT     H111956   3.509   2.533   2.482  1.1075  0.2956  0.6989
 3915WAT     H211957   3.477   2.627   2.596 -1.1153 -0.6263  0.8704
 3916WAT      O11958   2.265   3.403   1.500 -0.0328  0.0923 -0.2072
 3916WAT     H111959   2.325   3.432   1.569 -0.0586  1.4965 -0.7439
 3916WAT     H211960   2.256   3.479   1.443 -0.5874 -0.8156 -1.3647
 3917WAT      O11961   3.998   0.471   2.248 -0.3561 -0.3701  0.4097
 3917WAT     H111962   3.928   0.418   2.288 -0.5854 -0.7058 -0.4132
 3917WAT     H211963   4.076   0.449   2.299 -0.4147 -1.6441 -0.0103
 3918WAT      O11964   4.209   1.829   3.148  0.0921 -0.5178 -0.1391
 3918WAT     H111965   4.126   1.871   3.170 -0.5022 -1.8163  0.2286
 3918WAT     H211966   4.184   1.739   3.126  1.2893 -0.6424 -1.0554
 3919WAT      O11967   1.636   2.221   4.967 -0.2477 -0.4308  0.2829
 3919WAT     H111968   1.661   2.158   5.034 -1.2595 -1.8979 -0.6661
 3919WAT     H211969   1.656   2.178   4.884 -0.5595  0.6723 -0.3926
 3920WAT      O11970   0.171   1.155   1.598  0.4287 -0.0369 -0.0776
 3920WAT     H111971   0.210   1.242   1.585  0.9659 -0.0434  1.3370
 3920WAT     H211972   0.207   1.125   1.681 -0.8815 -1.0003  0.1710
 3921WAT      O11973   2.259   2.330   3.598 -0.5115  0.4601 -0.0147
 3921WAT     H111974   2.220   2.390   3.534 -1.3427  1.4424  1.3500
 3921WAT     H211975   2.297   2.260   3.545 -1.0407  1.2992 -1.5794
 3922WAT      O11976   2.753   0.872   2.253 -0.2806 -0.2446 -0.2837
 3922WAT     H111977   2.711   0.878   2.339  0.9315 -0.4618  0.3521
 3922WAT     H211978   2.746   0.779   2.230  2.3475 -0.9029  1.1909
 3923WAT      O11979   3.416   2.585   1.994 -0.1027 -0.2405  0.4416
 3923WAT     H111980   3.353   2.545   1.934 -0.5881  1.2883 -0.1026
 3923WAT     H211981   3.423   2.522   2.066 -2.5319 -0.3271  0.7029
 3924WAT      O11982   2.162   3.363   1.841  0.0378 -0.1035  0.7365
 3924WAT     H111983   2.076   3.323   1.847  0.9110 -2.0788  0.8109
 3924WAT     H211984   2.223   3.292   1.859  1.8058  0.5368 -2.0883
 3925WAT      O11985   2.964   0.443   4.356  0.2083 -0.0630 -0.3578
 3925WAT     H111986   3.058   0.464   4.359 -0.4350  3.3730  0.3869
 3925WAT     H211987   2.953   0.373   4.421  2.0686  0.4675  0.6234
 3926WAT      O11988   4.316   2.483   0.449 -0.4950  0.1346 -0.1245
 3926WAT     H111989   4.270   2.494   0.365  1.3021 -1.1006 -1.3456
 3926WAT     H211990   4.287   2.397   0.481  1.4949 -1.0937 -1.3669
 3927WAT      O11991   1.982   4.027   1.366  0.0067  0.4245 -0.5808
 3927WAT     H111992   2.009   4.067   1.448 -1.2282 -1.0593  0.5939
 3927WAT     H211993   1.936   4.096   1.319 -0.3945  0.9288  0.5344
 3928WAT      O11994   2.698   4.274   0.085 -0.0505  0.0943  0.0007
 3928WAT     H111995   2.713   4.195   0.033 -0.3139  0.1106 -0.0988
 3928WAT     H211996   2.643   4.330   0.030 -0.8476 -0.1493  0.5237
 3929WAT      O11997   1.434   3.828   4.695 -0.2640 -0.1483 -0.3969
 3929WAT     H111998   1.514   3.777   4.678 -0.3703 -0.4926  0.1092
 3929WAT     H211999   1.364   3.775   4.657 -0.5363 -1.0522  1.2515
 3930WAT      O12000   1.002   0.599   1.498 -0.1451  0.0413 -0.7319
 3930WAT     H112001   1.081   0.552   1.525 -0.9845 -0.9928  0.0120
 3930WAT     H212002   0.963   0.545   1.430 -1.0783 -0.3321  0.0733
 3931WAT      O12003   2.797   4.305   1.758  0.7341 -0.3996 -0.9304
 3931WAT     H112004   2.842   4.244   1.700  0.9189 -1.3639  0.1903
 3931WAT     H212005   2.853   4.311   1.836 -0.1984 -0.2607 -0.2497
 3932WAT      O12006   4.089   2.219   1.529  0.6002 -0.2542 -0.0126
 3932WAT     H112007   4.101   2.239   1.622  0.1584 -1.4427  0.3170
 3932WAT     H212008   4.011   2.164   1.526 -1.1102  2.0725 -1.4179
 3933WAT      O12009   1.452   0.799   1.326  0.1351 -0.3192  0.0772
 3933WAT     H112010   1.423   0.866   1.389 -0.1392  1.8119 -2.1803
 3933WAT     H212011   1.547   0.802   1.331  0.1142 -0.2396  0.4667
 3934WAT      O12012   3.635   2.153   2.027  0.0346 -0.0999  0.3248
 3934WAT     H112013   3.597   2.167   1.940  1.8414 -0.7023 -0.6287
 3934WAT     H212014   3.719   2.200   2.024 -0.4856  1.0827  2.2806
 3935WAT      O12015   3.658   4.928   0.284 -0.4065 -0.0980  0.3254
 3935WAT     H112016   3.602   5.005   0.271 -1.6819 -1.1055 -0.5046
 3935WAT     H212017   3.615   4.878   0.353  0.0402 -0.3890  0.3991
 3936WAT      O12018   2.021   0.981   1.215 -0.1804 -0.4209 -0.7182
 3936WAT     H112019   2.050   1.018   1.132  0.6085  0.7991  0.0777
 3936WAT     H212020   2.097   0.934   1.248 -0.0765  0.1814 -0.0847
 3937WAT      O12021   1.686   4.016   4.139  0.5318  0.2924  0.1963
 3937WAT     H112022   1.747   4.072   4.092 -0.5151  1.5784  0.3147
 3937WAT     H212023   1.727   4.000   4.224  1.3647 -0.1049 -0.2730
 3938WAT      O12024   0.419   2.073   4.830  0.0060 -0.5491  0.1260
 3938WAT     H112025   0.421   2.040   4.920 -0.9133  2.0356  1.1754
 3938WAT     H212026   0.506   2.111   4.817  0.0804 -0.7713 -0.0349
 3939WAT      O12027   3.704   0.398   1.360  0.1112 -0.0283 -0.4265
 3939WAT     H112028   3.772   0.332   1.358 -0.2101 -0.3523 -1.5855
 3939WAT     H212029   3.697   0.424   1.452  1.6846 -0.0800 -0.2736
 3940WAT      O12030   4.037   0.941   4.414 -0.0058 -0.1266  0.4086
 3940WAT     H112031   4.012   1.027   4.379  0.1834 -0.2883 -0.1412
 3940WAT     H212032   4.031   0.882   4.339 -1.6922 -0.9329  1.1371
 3941WAT      O12033   2.406   1.832   0.432  0.2802 -0.3362 -0.1589
 3941WAT     H112034   2.425   1.913   0.479  1.6983 -1.2448  0.8910
 3941WAT     H212035   2.404   1.858   0.340  1.0263  0.8251  0.1352
 3942WAT      O12036   3.435   1.372   0.471  0.0047 -0.1826 -0.1143
 3942WAT     H112037   3.484   1.409   0.398  0.9915 -0.7685  0.2186
 3942WAT     H212038   3.358   1.331   0.430 -1.2936  2.3802 -0.4618
 3943WAT      O12039   0.219   4.043   0.927  0.3982 -0.1232  0.1260
 3943WAT     H112040   0.140   4.074   0.882 -0.3526 -1.0112  0.7904
 3943WAT     H212041   0.209   3.948   0.930 -0.5728 -0.0421  3.8414
 3944WAT      O12042   4.423   3.022   0.399  0.4335 -0.0351 -0.5889
 3944WAT     H112043   4.486   2.972   0.347  0.8520  0.1955 -0.3113
 3944WAT     H212044   4.340   2.976   0.387  0.6081 -0.2204 -1.1307
 3945WAT      O12045   2.617   1.652   2.984  0.3202  0.3695 -0.1425
 3945WAT     H112046   2.554   1.613   2.924  1.5027 -0.3370 -0.9772
 3945WAT     H212047   2.694   1.670   2.929  1.3394 -0.0691  1.1083
 3946WAT      O12048   1.682   4.641   0.781 -0.0796 -0.0356 -0.4217
 3946WAT     H112049   1.605   4.585   0.783  1.4321 -2.2308 -0.1751
 3946WAT     H212050   1.665   4.703   0.709 -1.7558 -0.8910 -0.8065
 3947WAT      O12051   1.143   2.548   0.400 -0.5379  0.0739  0.0544
 3947WAT     H112052   1.192   2.559   0.482 -0.9281 -0.2832  0.3397
 3947WAT     H212053   1.211   2.529   0.335  0.1150  3.2389 -0.3361
 3948WAT      O12054   2.665   2.429   1.007 -0.0313 -0.0860  0.3205
 3948WAT     H112055   2.747   2.476   0.995 -0.2495  0.2498  0.1373
 3948WAT     H212056   2.612   2.486   1.062 -0.4990  0.1246 -0.3378
 3949WAT      O12057   3.544   1.952   2.848  0.8358 -0.3291  0.9257
 3949WAT     H112058   3.633   1.958   2.883  0.8488 -0.4778  0.9222
 3949WAT     H212059   3.539   1.863   2.812  1.0653  0.0714 -0.1228
 3950WAT      O12060   1.655   1.241   2.415  0.4883 -0.4104 -0.1612
 3950WAT     H112061   1.581   1.236   2.476 -0.2769  0.3663 -0.9910
 3950WAT     H212062   1.631   1.181   2.344  0.5989 -0.0733 -0.4861
 3951WAT      O12063   0.025   2.853   4.375 -0.2860  0.3792  0.5492
 3951WAT     H112064   0.105   2.892   4.340 -0.0139 -0.0584  0.6792
 3951WAT     H212065  -0.021   2.821   4.298  0.6414 -1.2097  0.6117
 3952WAT      O12066   2.093   3.161   1.589  0.5547 -0.3734  0.0297
 3952WAT     H112067   2.047   3.170   1.673  0.4084 -2.2666  0.1933
 3952WAT     H212068   2.153   3.236   1.587 -1.1645  1.0870  0.6766
 3953WAT      O12069   1.276   4.801   0.095 -0.5491 -0.0827 -0.1208
 3953WAT     H112070   1.233   4.725   0.055  0.7584 -1.1411  0.4355
 3953WAT     H212071   1.361   4.769   0.124  0.1414  1.6680 -0.0830
 3954WAT      O12072   1.225   3.590   2.940  0.4980  0.4444 -0.2500
 3954WAT     H112073   1.250   3.668   2.891 -0.6324 -0.6456 -2.7049
 3954WAT     H212074   1.278   3.520   2.904  1.3458 -0.0469  1.7839
 3955WAT      O12075   1.264   3.801   4.179 -0.3822 -0.2308 -0.1744
 3955WAT     H112076   1.322   3.842   4.242  0.8916 -1.0944 -0.7584
 3955WAT     H212077   1.233   3.874   4.125  0.0487  0.2569  0.2252
 3956WAT      O12078   3.353   3.978   3.636  0.3440 -0.0409  0.2664
 3956WAT     H112079   3.277   3.984   3.693 -0.2801 -2.1438 -0.2552
 3956WAT     H212080   3.318   3.989   3.548  0.8590  0.2131  0.0840
 3957WAT      O12081   3.863   3.476   4.712 -0.7476  0.3742  0.0469
 3957WAT     H112082   3.925   3.531   4.664  1.3651 -0.1701  1.9693
 3957WAT     H212083   3.806   3.439   4.645  0.0400  2.0791 -1.6540
 3958WAT      O12084   4.438   4.322   1.993  0.1695  0.4824 -0.3389
 3958WAT     H112085   4.404   4.331   1.904 -0.0346 -0.2940 -0.3486
 3958WAT     H212086   4.366   4.285   2.043  0.2196  1.1026  0.2026
 3959WAT      O12087   0.699   0.347   4.405  0.2029  0.7684  0.0103
 3959WAT     H112088   0.780   0.302   4.379  3.4566  5.2710  1.1868
 3959WAT     H212089   0.682   0.316   4.494 -0.2841 -1.1663 -0.6933
 3960WAT      O12090   3.881   1.569   2.699 -0.5758 -0.2919  0.0877
 3960WAT     H112091   3.835   1.558   2.616 -0.1453 -0.8868 -0.0792
 3960WAT     H212092   3.902   1.480   2.727 -0.8346 -0.0996  0.9064
 3961WAT      O12093   0.713   3.263   0.988 -0.4283  0.3015 -0.2472
 3961WAT     H112094   0.694   3.352   0.959 -1.7231  0.9839  2.3507
 3961WAT     H212095   0.627   3.222   1.000  0.1400 -1.2636 -1.2300
 3962WAT      O12096   3.162   4.959   3.414  0.4803  0.5290  0.0775
 3962WAT     H112097   3.150   4.914   3.331  0.0159  0.5103  0.1506
 3962WAT     H212098   3.188   4.890   3.476 -0.2220  0.3609  0.1880
 3963WAT      O12099   1.874   0.198   1.608 -0.3721  0.1914 -0.1464
 3963WAT     H112100   1.848   0.253   1.534 -1.5206 -0.6422 -0.3965
 3963WAT     H212101   1.794   0.191   1.661  0.6393  1.4503  1.6331
 3964WAT      O12102   2.579   4.429   1.866 -0.5379 -0.1562  0.0448
 3964WAT     H112103   2.661   4.416   1.817 -0.6529  0.2764 -0.2666
 3964WAT     H212104   2.542   4.341   1.874 -0.4425 -0.2537 -0.5211
 3965WAT      O12105   2.842   1.440   3.705 -0.1412 -0.6506  0.6875
 3965WAT     H112106   2.841   1.535   3.700 -1.5334 -0.6918 -0.4017
 3965WAT     H212107   2.927   1.416   3.667 -0.6123  0.1107 -0.9517
 3966WAT      O12108   0.564   3.867   2.873  0.3711  0.3262 -0.3843
 3966WAT     H112109   0.503   3.844   2.943  0.8240 -0.6738 -0.3055
 3966WAT     H212110   0.642   3.897   2.919  1.4152 -2.1863 -0.3546
 3967WAT      O12111   0.776   0.593   0.071  0.2818  0.6522  0.1856
 3967WAT     H112112   0.784   0.680   0.110  1.6714  0.3136  0.7625
 3967WAT     H212113   0.836   0.539   0.124 -1.1955 -0.8504  0.4047
 3968WAT      O12114   0.991   2.786   2.853  0.1527  0.7016  0.3341
 3968WAT     H112115   1.003   2.753   2.764  2.4290 -0.3215  0.9585
 3968WAT     H212116   0.899   2.767   2.873  0.1149 -0.8377 -1.0779
 3969WAT      O12117   1.520   0.535   3.241  0.0448  0.2915  0.2438
 3969WAT     H112118   1.485   0.608   3.190 -1.0275 -0.0953  0.3932
 3969WAT     H212119   1.452   0.467   3.236  2.3998 -2.1290 -2.8183
 3970WAT      O12120   0.700   0.098   0.820 -0.1111  0.4688  0.3732
 3970WAT     H112121   0.640   0.023   0.816 -0.7436  0.7666  2.7447
 3970WAT     H212122   0.692   0.130   0.910  0.7459  2.9089 -0.3496
 3971WAT      O12123   2.801   1.288   2.573 -0.1810  0.7830 -0.6239
 3971WAT     H112124   2.753   1.326   2.646  0.2752 -0.0752  0.1471
 3971WAT     H212125   2.890   1.322   2.582  0.5674 -1.3171  0.8142
 3972WAT      O12126   0.063   2.794   1.280 -0.0325  0.3396  0.0849
 3972WAT     H112127   0.031   2.802   1.190 -0.1950  0.2044  0.1297
 3972WAT     H212128   0.111   2.712   1.281 -1.5112 -0.5564  0.5549
 3973WAT      O12129   4.149   2.262   5.264  0.4419  0.2426  1.0568
 3973WAT     H112130   4.107   2.211   5.333  1.8789  0.5946  2.2624
 3973WAT     H212131   4.187   2.197   5.206 -0.6024 -0.0601  0.6963
 3974WAT      O12132   1.811   3.517   1.176  0.3532  0.1566  0.3014
 3974WAT     H112133   1.765   3.440   1.210 -1.2498  0.1003 -1.7538
 3974WAT     H212134   1.851   3.558   1.253 -2.1613 -0.4836  2.0650
 3975WAT      O12135   1.455   3.215   1.380 -0.2685  0.1955  0.0981
 3975WAT     H112136   1.395   3.184   1.312 -0.0873 -0.2043  0.1234
 3975WAT     H212137   1.424   3.174   1.460 -0.3673  0.5204  0.2277
 3976WAT      O12138   3.094   4.854   1.946 -0.3565 -0.1930 -0.2417
 3976WAT     H112139   3.071   4.945   1.964  0.2592 -0.0400 -0.2091
 3976WAT     H212140   3.164   4.835   2.008  1.3952  0.1536 -1.9984
 3977WAT      O12141   2.214   1.223   4.990 -0.0859  0.5144 -0.4383
 3977WAT     H112142   2.307   1.227   4.969  0.0845 -1.5398 -0.3082
 3977WAT     H212143   2.171   1.265   4.915  0.9073  1.1896 -0.6549
 3978WAT      O12144   4.301   3.682   0.715 -0.0443 -0.2207 -0.9387
 3978WAT     H112145   4.377   3.726   0.679  0.5552 -0.6047 -0.1628
 3978WAT     H212146   4.286   3.608   0.657 -0.8154  0.7460 -2.0168
 3979WAT      O12147   3.034   2.569   2.400  0.2501 -0.3648  0.0214
 3979WAT     H112148   2.986   2.524   2.330 -0.5329  0.6539 -0.1254
 3979WAT     H212149   3.017   2.516   2.478 -2.7338  0.8749  0.3869
 3980WAT      O12150   2.486   1.339   4.236 -0.0597  0.0253  0.0614
 3980WAT     H112151   2.570   1.294   4.244  0.2036  0.5444  0.2663
 3980WAT     H212152   2.498   1.399   4.163 -0.0837  0.4630  0.4129
 3981WAT      O12153   1.165   0.100   0.047 -0.1845  0.3689  0.2141
 3981WAT     H112154   1.246   0.049   0.053 -0.4374 -0.0359  0.2326
 3981WAT     H212155   1.131   0.100   0.137 -0.5096  0.0318  0.0927
 3982WAT      O12156   3.689   3.167   2.557  0.6456 -0.2615  0.5253
 3982WAT     H112157   3.683   3.073   2.539 -0.8046  0.1200 -1.2361
 3982WAT     H212158   3.598   3.197   2.557  0.9623  0.9243  2.6070
 3983WAT      O12159   3.615   4.482   2.236  0.5049  0.0038  0.1206
 3983WAT     H112160   3.650   4.530   2.161 -2.6474  2.0742 -0.2155
 3983WAT     H212161   3.661   4.518   2.312 -0.1503  2.0061 -0.3657
 3984WAT      O12162   1.058   0.283   1.142  0.1019  0.0709 -0.3376
 3984WAT     H112163   1.068   0.327   1.058 -1.0484  0.6657 -0.1782
 3984WAT     H212164   1.026   0.196   1.120  1.8647 -0.5386 -0.6206
 3985WAT      O12165   1.138   3.734   3.612 -0.0080 -0.0939 -0.0569
 3985WAT     H112166   1.099   3.710   3.529  0.1626 -1.2523  0.1898
 3985WAT     H212167   1.088   3.685   3.678  0.2623  0.3192  0.4694
 3986WAT      O12168   0.766   1.234   1.900  0.7565 -0.5712  0.1290
 3986WAT     H112169   0.849   1.253   1.856  0.3597  0.5860 -0.1473
 3986WAT     H212170   0.779   1.148   1.940  1.7486 -0.8417 -0.7335
 3987WAT      O12171   0.874   0.134   0.282  0.4111 -0.0847 -0.2966
 3987WAT     H112172   0.909   0.182   0.357  0.9452  1.6509 -1.6034
 3987WAT     H212173   0.922   0.051   0.282  1.6254  0.6013  0.3047
 3988WAT      O12174   1.080   1.895   2.042  0.0027  0.0563  0.2075
 3988WAT     H112175   1.153   1.922   1.986 -0.0655 -0.4636 -0.1504
 3988WAT     H212176   1.002   1.928   1.997  0.0795  2.1870  1.5086
 3989WAT      O12177   3.970   4.605   3.615  0.1877 -0.1615  0.4148
 3989WAT     H112178   4.064   4.587   3.613 -0.4227 -4.6595 -0.6330
 3989WAT     H212179   3.940   4.568   3.698 -0.6812  1.6607  0.9667
 3990WAT      O12180   1.604   4.437   2.515 -0.1681  0.3298 -0.4940
 3990WAT     H112181   1.527   4.390   2.547 -0.3487  0.8778 -0.1071
 3990WAT     H212182   1.660   4.447   2.591  1.2035 -1.7309 -1.1436
 3991WAT      O12183   0.601   2.810   5.215  0.5514 -0.3107 -1.0232
 3991WAT     H112184   0.561   2.746   5.156  0.7414 -1.6604  0.2792
 3991WAT     H212185   0.599   2.769   5.301  1.8522  0.9048 -0.3728
 3992WAT      O12186   2.795   2.926   0.806  0.2737 -0.0547  0.0765
 3992WAT     H112187   2.749   2.980   0.871  0.7443  0.9313 -0.3847
 3992WAT     H212188   2.725   2.892   0.750 -0.0270  0.1659  0.3150
 3993WAT      O12189   1.522   4.024   1.149  0.3415 -0.1765 -0.1044
 3993WAT     H112190   1.540   4.016   1.055 -0.5060  0.2969 -0.3148
 3993WAT     H212191   1.518   3.933   1.180  0.6155 -0.3377 -0.5299
 3994WAT      O12192   0.134   3.573   5.015  0.1243  0.6815 -0.3638
 3994WAT     H112193   0.163   3.482   5.025 -3.3649 -0.4480  1.2841
 3994WAT     H212194   0.187   3.623   5.076  1.5782 -0.3412 -0.7335
 3995WAT      O12195   3.112   4.735   3.612 -0.0339 -0.0120  0.6711
 3995WAT     H112196   3.017   4.721   3.605 -0.0434  0.5392 -0.9266
 3995WAT     H212197   3.149   4.648   3.626 -0.7026 -0.4279 -0.0491
 3996WAT      O12198   3.854   2.765   4.329 -0.6030  0.3294 -0.3171
 3996WAT     H112199   3.855   2.670   4.327  1.8807  0.2923 -1.8033
 3996WAT     H212200   3.939   2.790   4.364 -1.7849  2.0729  1.5662
 3997WAT      O12201   0.195   3.764   0.851  0.1291  0.0895 -0.1988
 3997WAT     H112202   0.147   3.776   0.769  1.2531  0.5501 -0.8091
 3997WAT     H212203   0.155   3.688   0.891 -0.2131 -0.3587 -1.3508
 3998WAT      O12204   1.071   1.257   3.635  0.3379  0.1141 -0.0772
 3998WAT     H112205   1.041   1.196   3.702 -1.9443  0.4259 -0.7243
 3998WAT     H212206   0.992   1.280   3.587  1.6923  0.9482 -2.0274
 3999WAT      O12207   0.633   1.478   3.099  0.0352  0.2219  0.3969
 3999WAT     H112208   0.585   1.535   3.039 -0.5429 -1.8849 -1.2615
 3999WAT     H212209   0.573   1.463   3.172 -0.6906 -0.0686 -0.2518
 4000WAT      O12210   3.808   4.534   4.588  0.2257 -0.3633 -0.1337
 4000WAT     H112211   3.897   4.567   4.583 -0.3105  0.9408 -2.2801
 4000WAT     H212212   3.764   4.593   4.649  0.1108  0.9411 -1.4197
 4001WAT      O12213   0.913   2.323   0.493 -0.1133 -0.0446 -0.4004
 4001WAT     H112214   0.861   2.261   0.542 -1.2383 -0.7969 -2.4313
 4001WAT     H212215   0.980   2.353   0.555 -2.1370  0.0055  1.9143
 4002WAT      O12216   1.660   3.898   3.693  0.2151  0.5829  0.0401
 4002WAT     H112217   1.708   3.980   3.682 -0.3673  0.9099 -0.1205
 4002WAT     H212218   1.727   3.832   3.707  0.7390  0.9413 -0.7310
 4003WAT      O12219   2.432   2.562   4.046  0.0020 -0.3804  0.0254
 4003WAT     H112220   2.428   2.612   4.128 -2.5768 -0.3145 -0.0416
 4003WAT     H212221   2.399   2.623   3.980 -0.3468 -1.2159 -0.5925
 4004WAT      O12222   1.709   4.436   2.766 -0.6426 -0.0557  0.7474
 4004WAT     H112223   1.747   4.377   2.832  0.0659  0.1140  0.5046
 4004WAT     H212224   1.628   4.468   2.806 -0.5049 -0.3899  1.3072
 4005WAT      O12225   2.127   0.160   0.449 -0.1978 -0.2867  0.0318
 4005WAT     H112226   2.144   0.200   0.534  1.4489 -2.2975  0.7307
 4005WAT     H212227   2.195   0.195   0.392 -1.4208  1.2155 -0.5819
   4.51832   5.13780   5.29504
