Generic title
12227
    1ILE      N    1   1.380   1.295   3.528 -0.1499  0.1756 -0.1726
    1ILE     H1    2   1.397   1.228   3.602 -0.8435  1.8401  1.5874
    1ILE     H2    3   1.412   1.251   3.443 -2.7814 -0.3913 -0.9626
    1ILE     H3    4   1.280   1.291   3.520 -0.1503 -1.9237  0.2530
    1ILE     CA    5   1.432   1.427   3.563 -0.8330 -0.2194 -0.2129
    1ILE     HA    6   1.413   1.494   3.478 -1.7628  1.9968  1.6320
    1ILE     CB    7   1.362   1.498   3.682 -0.5713  0.3003  0.6574
    1ILE     HB    8   1.256   1.504   3.657 -0.6293 -3.2749 -0.4361
    1ILE    CG2    9   1.399   1.423   3.813 -0.5928  0.3141  0.3607
    1ILE   HG21   10   1.508   1.418   3.817 -0.6393  0.0528  1.3886
    1ILE   HG22   11   1.341   1.456   3.899 -0.9502  2.3363 -0.6075
    1ILE   HG23   12   1.378   1.318   3.790  1.0943  0.1313 -0.5606
    1ILE    CG1   13   1.408   1.641   3.705 -0.9180  0.4916  0.4161
    1ILE   HG12   14   1.394   1.699   3.613 -0.1917  0.8470  0.5239
    1ILE   HG13   15   1.514   1.641   3.728 -1.5851 -0.2785  4.1980
    1ILE    CD1   16   1.339   1.727   3.812 -0.4899 -1.2019 -0.1534
    1ILE   HD11   17   1.369   1.705   3.914 -0.4978 -1.4511 -0.2029
    1ILE   HD12   18   1.363   1.832   3.795  2.3667 -1.9267 -1.2062
    1ILE   HD13   19   1.230   1.720   3.816 -0.7986  2.3483  2.0432
    1ILE      C   20   1.588   1.417   3.573  0.5834  0.8589 -1.0716
    1ILE      O   21   1.643   1.318   3.626  0.2373 -0.0798  0.1490
    2LEU      N   22   1.657   1.524   3.532 -0.2839  0.2461  0.9848
    2LEU      H   23   1.603   1.602   3.499 -0.0428 -0.0919 -0.2674
    2LEU     CA   24   1.804   1.542   3.528 -0.1341 -0.4805  0.5495
    2LEU     HA   25   1.839   1.494   3.619  1.0987 -0.3202  0.1769
    2LEU     CB   26   1.861   1.460   3.411  0.2541 -0.2413  0.4874
    2LEU    HB2   27   1.817   1.360   3.416  1.1943 -0.6744  0.3882
    2LEU    HB3   28   1.842   1.503   3.313 -1.8979  0.6478  1.2364
    2LEU     CG   29   2.020   1.438   3.422  0.2515 -0.4565 -0.6208
    2LEU     HG   30   2.069   1.535   3.426  0.4884 -0.6158  0.7087
    2LEU    CD1   31   2.064   1.376   3.555  0.0156 -0.2011  0.0636
    2LEU   HD11   32   1.988   1.299   3.571 -0.3550 -0.0769 -1.0371
    2LEU   HD12   33   2.167   1.345   3.542  0.3021  0.9361 -0.4834
    2LEU   HD13   34   2.058   1.455   3.630 -1.7408  0.2440 -0.4839
    2LEU    CD2   35   2.075   1.357   3.309 -1.0166 -0.2317  0.3265
    2LEU   HD21   36   2.030   1.394   3.217  2.6638  1.6748 -0.9335
    2LEU   HD22   37   2.183   1.371   3.296 -1.2872  0.2860 -1.7420
    2LEU   HD23   38   2.053   1.251   3.326 -1.0779 -0.5337 -1.4440
    2LEU      C   39   1.860   1.684   3.534  0.1310 -0.6503 -0.2048
    2LEU      O   40   1.786   1.785   3.509  0.3088  0.3684 -0.2516
    3ARG      N   41   1.985   1.699   3.581 -0.4136  0.0528 -0.6332
    3ARG      H   42   2.020   1.613   3.622  0.9134  1.5298  1.5629
    3ARG     CA   43   2.058   1.827   3.588 -0.5056 -0.8035 -0.1191
    3ARG     HA   44   2.037   1.882   3.496 -0.9304 -2.5177 -1.0906
    3ARG     CB   45   2.009   1.912   3.712 -0.5561  0.1475 -0.0375
    3ARG    HB2   46   1.902   1.924   3.694 -0.5388 -2.4169 -2.4910
    3ARG    HB3   47   2.035   1.866   3.808  1.0346  0.4181 -0.3011
    3ARG     CG   48   2.073   2.052   3.713  0.2816 -0.2762 -0.9723
    3ARG    HG2   49   2.177   2.043   3.745 -0.6380  1.6086  3.2535
    3ARG    HG3   50   2.055   2.091   3.613 -0.3341  0.9613 -0.4031
    3ARG     CD   51   2.002   2.146   3.815  0.6287 -0.5877 -0.2410
    3ARG    HD2   52   1.899   2.163   3.783  1.2539 -0.3515 -2.3294
    3ARG    HD3   53   2.005   2.087   3.906  0.8441  0.5849  0.5361
    3ARG     NE   54   2.081   2.268   3.830 -0.1685 -0.3235 -0.0996
    3ARG     HE   55   2.166   2.273   3.776  0.4363  1.3786  0.9131
    3ARG     CZ   56   2.042   2.378   3.894 -0.3268  0.2139 -0.1737
    3ARG    NH1   57   1.926   2.391   3.951 -0.3724 -0.0870 -0.3947
    3ARG   HH11   58   1.859   2.317   3.962 -1.9251  1.5220  1.8308
    3ARG   HH12   59   1.901   2.481   3.990  0.1429  0.0424 -0.3565
    3ARG    NH2   60   2.125   2.479   3.903 -0.0041 -0.1603 -0.0376
    3ARG   HH21   61   2.223   2.456   3.890  0.6225  0.1354  3.1985
    3ARG   HH22   62   2.090   2.564   3.944  1.1148  1.1805 -1.7153
    3ARG      C   63   2.208   1.813   3.596 -0.1031 -0.0620  0.2592
    3ARG      O   64   2.252   1.730   3.671 -0.2240  0.5358  0.1310
    4TRP      N   65   2.283   1.896   3.521 -0.0023  0.5840  0.6081
    4TRP      H   66   2.240   1.967   3.463 -1.1268 -0.7387 -0.2454
    4TRP     CA   67   2.429   1.914   3.540  0.2064 -0.0944  0.0377
    4TRP     HA   68   2.462   1.878   3.637 -1.5761 -1.3084  0.2467
    4TRP     CB   69   2.497   1.816   3.436 -0.3560  0.3088 -0.6587
    4TRP    HB2   70   2.425   1.738   3.412 -0.7089  0.8057 -1.2473
    4TRP    HB3   71   2.494   1.865   3.339 -1.0399  0.0233 -0.7932
    4TRP     CG   72   2.621   1.737   3.468 -0.6650 -0.2607  0.2462
    4TRP    CD1   73   2.698   1.681   3.374 -0.0532  0.7905 -0.3968
    4TRP    HD1   74   2.679   1.674   3.268  1.5803  1.0429 -0.7347
    4TRP    NE1   75   2.814   1.629   3.431 -0.0105 -0.1538  0.0391
    4TRP    HE1   76   2.888   1.595   3.371 -0.4488  0.1482 -0.6836
    4TRP    CE2   77   2.822   1.656   3.567 -0.6762 -0.2298 -0.6162
    4TRP    CZ2   78   2.912   1.618   3.670  0.7186  0.3970 -0.5072
    4TRP    HZ2   79   2.998   1.556   3.652  1.8805  1.8448 -0.1668
    4TRP    CH2   80   2.895   1.679   3.794  0.3235 -0.0966  0.3587
    4TRP    HH2   81   2.969   1.665   3.871  0.5896  0.1133  0.1431
    4TRP    CZ3   82   2.787   1.756   3.823 -0.0636  0.1732  0.5462
    4TRP    HZ3   83   2.782   1.786   3.927 -0.3355 -1.1309  0.9199
    4TRP    CE3   84   2.687   1.777   3.724 -0.3777 -0.2972  0.2661
    4TRP    HE3   85   2.605   1.840   3.755  1.1823  2.0378 -0.1198
    4TRP    CD2   86   2.702   1.725   3.594  0.2569 -0.0175 -0.0294
    4TRP      C   87   2.460   2.067   3.527  0.2920  0.1910  0.4182
    4TRP      O   88   2.368   2.153   3.535 -0.1613  0.1148  0.0030
    5PRO      N   89   2.586   2.112   3.515 -0.8951  0.1563  0.2666
    5PRO     CD   90   2.705   2.038   3.482 -0.6948 -0.3464  0.4668
    5PRO    HD2   91   2.696   1.978   3.392  0.6243  1.7599 -1.1629
    5PRO    HD3   92   2.733   1.975   3.566 -0.6983 -1.8069 -0.5977
    5PRO     CG   93   2.819   2.137   3.457 -0.0110 -0.6507 -0.1492
    5PRO    HG2   94   2.809   2.173   3.354 -2.0923  1.8851  0.8169
    5PRO    HG3   95   2.924   2.108   3.458  0.6295  1.3720 -1.3820
    5PRO     CB   96   2.774   2.247   3.555 -0.6601  0.8307 -0.2899
    5PRO    HB2   97   2.823   2.342   3.533  2.2658 -0.6493 -0.6643
    5PRO    HB3   98   2.805   2.212   3.653 -0.9937 -1.0313 -0.8152
    5PRO     CA   99   2.628   2.248   3.529 -0.0433  0.0548  0.1823
    5PRO     HA  100   2.574   2.307   3.603  0.0566 -0.3235  0.5602
    5PRO      C  101   2.599   2.329   3.401  0.0118  0.2945 -0.0238
    5PRO      O  102   2.589   2.266   3.296 -0.3267 -0.0565  0.1065
    6TRP      N  103   2.589   2.464   3.415  0.0161 -0.2289  0.1055
    6TRP      H  104   2.581   2.497   3.510  0.3867  0.7447 -0.1853
    6TRP     CA  105   2.587   2.561   3.304 -0.6652 -0.0973  0.0714
    6TRP     HA  106   2.628   2.506   3.220  0.0230 -1.1680  1.0888
    6TRP     CB  107   2.444   2.605   3.269  0.0667  0.7443 -0.4991
    6TRP    HB2  108   2.394   2.509   3.253  0.7460  0.2665  0.1213
    6TRP    HB3  109   2.407   2.665   3.352  1.3077  0.7341  0.0814
    6TRP     CG  110   2.407   2.679   3.146  0.0086 -0.7228  0.2948
    6TRP    CD1  111   2.304   2.766   3.132  0.4061  0.2849 -0.6235
    6TRP    HD1  112   2.236   2.789   3.213  0.5325 -0.2283 -0.3681
    6TRP    NE1  113   2.304   2.826   3.014 -0.2398  0.0034  0.0620
    6TRP    HE1  114   2.243   2.904   2.995  0.3952  0.0776 -1.8611
    6TRP    CE2  115   2.403   2.768   2.933 -0.1227 -0.2633 -0.3700
    6TRP    CZ2  116   2.429   2.792   2.799  0.1940 -0.3159  0.6962
    6TRP    HZ2  117   2.370   2.855   2.734 -0.6063 -1.1969  0.5449
    6TRP    CH2  118   2.533   2.714   2.747  0.1409 -1.2821  0.0598
    6TRP    HH2  119   2.554   2.721   2.641 -1.3645  0.3865 -0.1764
    6TRP    CZ3  120   2.627   2.641   2.825 -0.4359 -0.2242 -0.3710
    6TRP    HZ3  121   2.720   2.610   2.779 -0.3540  1.3951 -1.3941
    6TRP    CE3  122   2.591   2.614   2.959  0.4835  0.7608  0.4669
    6TRP    HE3  123   2.643   2.546   3.026 -0.6784 -0.8964 -0.2385
    6TRP    CD2  124   2.472   2.675   3.016 -0.3167  0.4563  0.3433
    6TRP      C  125   2.673   2.682   3.342 -0.2411 -0.3074 -0.1870
    6TRP      O  126   2.685   2.718   3.464 -0.3905  0.1154  0.6506
    7TRP      N  127   2.715   2.750   3.235 -0.0628  0.6873 -0.1099
    7TRP      H  128   2.697   2.707   3.145 -0.8439 -0.0729  0.3878
    7TRP     CA  129   2.782   2.871   3.242  0.0306 -0.0717 -0.0851
    7TRP     HA  130   2.734   2.925   3.322 -1.3873  1.5688 -1.9488
    7TRP     CB  131   2.924   2.851   3.278 -0.5046 -0.1173 -0.2901
    7TRP    HB2  132   2.930   2.780   3.361 -2.9299  0.4989  0.4983
    7TRP    HB3  133   2.981   2.798   3.202  0.5601  1.8875 -0.9541
    7TRP     CG  134   3.004   2.968   3.343  0.9882  0.1698  0.7038
    7TRP    CD1  135   3.139   2.969   3.353  0.8572  0.0505 -0.8602
    7TRP    HD1  136   3.200   2.883   3.332 -2.2872 -3.0113  1.4285
    7TRP    NE1  137   3.181   3.090   3.389  0.2604 -0.1579  0.3315
    7TRP    HE1  138   3.277   3.122   3.395 -0.6545  2.6460  1.9841
    7TRP    CE2  139   3.079   3.175   3.419  0.1768 -0.1753  0.4822
    7TRP    CZ2  140   3.078   3.309   3.456  0.1210  0.9066  0.1680
    7TRP    HZ2  141   3.170   3.358   3.486  0.0250 -0.4105  2.8965
    7TRP    CH2  142   2.953   3.379   3.457 -0.1626 -0.2030 -0.0428
    7TRP    HH2  143   2.950   3.484   3.481 -0.6801 -0.3231  0.4246
    7TRP    CZ3  144   2.839   3.311   3.425  0.2046 -0.0833 -0.1720
    7TRP    HZ3  145   2.741   3.355   3.421 -1.0819 -2.7462 -0.5097
    7TRP    CE3  146   2.841   3.172   3.398  0.1205  0.4819 -0.3749
    7TRP    HE3  147   2.743   3.130   3.383 -0.3475  1.0148  1.0722
    7TRP    CD2  148   2.963   3.099   3.390  0.0759  0.4374  0.9095
    7TRP      C  149   2.744   2.944   3.107  0.4206  0.5757  0.1327
    7TRP      O  150   2.621   2.957   3.091  0.5154 -0.1834  0.0793
    8PRO      N  151   2.825   2.999   3.015  0.7548  0.0200  0.7179
    8PRO     CD  152   2.947   3.069   3.056 -0.1746  0.1420 -0.5742
    8PRO    HD2  153   3.026   2.995   3.041  0.6753  0.7587  0.6920
    8PRO    HD3  154   2.947   3.118   3.153  0.1770 -1.0581  0.0456
    8PRO     CG  155   2.969   3.187   2.958 -0.1154 -0.3404 -0.1841
    8PRO    HG2  156   3.045   3.157   2.886  1.2426  1.3542  0.4917
    8PRO    HG3  157   3.003   3.275   3.012  0.0882 -1.2095  1.1384
    8PRO     CB  158   2.834   3.203   2.897 -0.1720 -0.4452  0.6248
    8PRO    HB2  159   2.838   3.242   2.795  1.0229 -3.5269 -0.6135
    8PRO    HB3  160   2.762   3.262   2.954 -2.3622 -0.4225 -1.9764
    8PRO     CA  161   2.775   3.064   2.890 -1.0319  0.2867  0.0756
    8PRO     HA  162   2.667   3.079   2.897 -1.1372 -1.2448  3.8471
    8PRO      C  163   2.812   3.003   2.758  0.1539  0.6117 -0.8460
    8PRO      O  164   2.900   2.914   2.760  0.2407  0.2582 -0.0230
    9TRP      N  165   2.753   3.051   2.649  0.4177  0.2564 -0.1798
    9TRP      H  166   2.671   3.110   2.656 -0.3362 -0.6883 -0.8115
    9TRP     CA  167   2.799   3.021   2.516 -0.4892 -0.0285 -0.2505
    9TRP     HA  168   2.908   3.024   2.521 -0.4968 -0.5398  0.2231
    9TRP     CB  169   2.768   2.877   2.476  0.6987  0.0081 -0.3947
    9TRP    HB2  170   2.788   2.808   2.558  0.2330  1.5018  1.0421
    9TRP    HB3  171   2.659   2.875   2.474  0.5821  2.6605  0.2377
    9TRP     CG  172   2.815   2.830   2.339  1.4533 -0.4000 -0.4764
    9TRP    CD1  173   2.740   2.765   2.244  0.2506 -0.1206  1.0915
    9TRP    HD1  174   2.639   2.734   2.266 -0.2931  2.4223  2.6459
    9TRP    NE1  175   2.810   2.758   2.127  0.5103  0.4946 -0.0767
    9TRP    HE1  176   2.780   2.719   2.039  1.6121  0.5669 -0.5111
    9TRP    CE2  177   2.942   2.797   2.139 -0.9090  0.1381  0.2363
    9TRP    CZ2  178   3.052   2.801   2.056  1.2632 -0.3764  0.8735
    9TRP    HZ2  179   3.039   2.766   1.954 -0.9156  0.7296  0.7033
    9TRP    CH2  180   3.176   2.845   2.098 -0.4807 -0.2177 -0.8841
    9TRP    HH2  181   3.255   2.857   2.025  1.4665 -2.0515  0.7940
    9TRP    CZ3  182   3.185   2.902   2.232 -0.0432  0.7948 -0.2803
    9TRP    HZ3  183   3.273   2.949   2.273  0.3075  0.6787 -0.8908
    9TRP    CE3  184   3.073   2.894   2.311  0.0343  0.0765 -0.7112
    9TRP    HE3  185   3.076   2.934   2.411  0.4243 -1.5523 -0.0373
    9TRP    CD2  186   2.948   2.839   2.270  0.2295 -1.1528 -0.1691
    9TRP      C  187   2.759   3.124   2.413 -0.1964 -1.1392  0.6203
    9TRP      O  188   2.649   3.184   2.429 -0.2117 -0.0264  0.1394
   10ARG      N  189   2.843   3.147   2.312 -0.4498  0.3205 -0.0766
   10ARG      H  190   2.929   3.094   2.308  0.4209  1.7348 -0.9325
   10ARG     CA  191   2.808   3.228   2.194 -0.5153  0.3011 -0.7225
   10ARG     HA  192   2.700   3.233   2.180 -1.0793 -2.2359  1.8355
   10ARG     CB  193   2.871   3.371   2.217  0.0458  0.5505 -0.0392
   10ARG    HB2  194   2.836   3.412   2.312 -0.1545 -2.5478  1.3618
   10ARG    HB3  195   2.978   3.357   2.235  0.2676  1.2359 -0.7717
   10ARG     CG  196   2.850   3.462   2.104 -0.0286 -0.8661  0.2803
   10ARG    HG2  197   2.896   3.424   2.012 -0.8815  1.7317 -1.2979
   10ARG    HG3  198   2.745   3.487   2.093  0.0177 -0.9576 -0.3963
   10ARG     CD  199   2.918   3.601   2.133 -0.1271 -0.3652 -0.7585
   10ARG    HD2  200   2.867   3.653   2.215 -0.3311 -2.9158  0.8504
   10ARG    HD3  201   3.022   3.577   2.154 -0.0599 -0.2498 -0.9563
   10ARG     NE  202   2.903   3.680   2.018 -0.2017 -0.5384  0.2391
   10ARG     HE  203   2.840   3.654   1.943  0.3612 -0.5502 -0.2336
   10ARG     CZ  204   2.974   3.783   1.983 -0.0982 -0.1508  0.1898
   10ARG    NH1  205   3.047   3.845   2.067  0.7066 -0.4009  0.4802
   10ARG   HH11  206   3.058   3.805   2.159  1.2952 -1.4101 -0.0109
   10ARG   HH12  207   3.104   3.918   2.027  1.9906 -1.2611  0.6751
   10ARG    NH2  208   2.955   3.837   1.864 -0.1110  0.1335 -0.4732
   10ARG   HH21  209   2.889   3.790   1.803  0.2359 -1.7730  0.5664
   10ARG   HH22  210   2.979   3.935   1.860  0.4725 -0.0308 -1.7710
   10ARG      C  211   2.872   3.172   2.066 -1.1448  0.7003 -0.0270
   10ARG      O  212   2.994   3.137   2.076  0.5509  0.4654 -0.6198
   11ARG      N  213   2.796   3.156   1.958 -0.2770 -0.2836  0.1175
   11ARG      H  214   2.700   3.176   1.984  0.1414 -0.3081  1.7982
   11ARG     CA  215   2.834   3.127   1.816  0.1717 -0.0023 -0.2560
   11ARG     HA  216   2.938   3.094   1.822  0.3749  0.8304  2.3575
   11ARG     CB  217   2.750   3.003   1.769  0.4897 -0.2808  0.1873
   11ARG    HB2  218   2.772   2.936   1.852  1.7321 -1.6067 -1.1435
   11ARG    HB3  219   2.649   3.044   1.767  1.7456  3.2305 -2.4908
   11ARG     CG  220   2.786   2.949   1.633 -0.1965  0.6666  0.3296
   11ARG    HG2  221   2.766   3.032   1.564 -0.7052  0.5862  0.3769
   11ARG    HG3  222   2.894   2.938   1.635 -0.2668 -0.0310  0.4836
   11ARG     CD  223   2.700   2.830   1.591 -0.1920 -0.3525  0.3094
   11ARG    HD2  224   2.725   2.749   1.660  0.0966 -0.9489 -0.4751
   11ARG    HD3  225   2.593   2.847   1.605 -0.0486 -0.9686  2.4226
   11ARG     NE  226   2.735   2.783   1.458  0.0129  0.3685 -0.1380
   11ARG     HE  227   2.780   2.849   1.395 -1.2694  0.9195 -0.5193
   11ARG     CZ  228   2.721   2.665   1.401  0.0153 -0.0031 -0.3831
   11ARG    NH1  229   2.679   2.558   1.467  0.6350  0.3154  0.5838
   11ARG   HH11  230   2.634   2.566   1.557 -2.4672 -0.6802 -0.7404
   11ARG   HH12  231   2.676   2.469   1.421 -0.3324  0.8312 -0.4261
   11ARG    NH2  232   2.776   2.642   1.290  0.1652  0.6355 -0.2580
   11ARG   HH21  233   2.826   2.716   1.242  1.1335  1.1290  1.4256
   11ARG   HH22  234   2.786   2.548   1.255 -1.1314  0.5222 -0.3564
   11ARG      C  235   2.823   3.252   1.721  0.5336 -0.2431 -0.4732
   11ARG      O  236   2.751   3.342   1.760 -0.3671 -0.3116  0.0457
   12LYS      N  237   2.893   3.252   1.607 -0.3349  0.3651 -0.6062
   12LYS      H  238   2.952   3.173   1.586 -1.5321 -0.5611 -0.5660
   12LYS     CA  239   2.887   3.353   1.493  0.3084  0.1607 -0.8056
   12LYS     HA  240   2.784   3.387   1.498 -0.0133 -0.9271  2.7072
   12LYS     CB  241   2.992   3.468   1.500  0.3411  0.1778 -0.8919
   12LYS    HB2  242   2.989   3.502   1.604 -4.1191  1.0753 -1.1016
   12LYS    HB3  243   3.094   3.434   1.486  0.0942 -1.3361  0.5969
   12LYS     CG  244   2.939   3.591   1.424  0.3275  0.0225  0.6382
   12LYS    HG2  245   2.941   3.568   1.317 -1.0806  1.0139  0.3698
   12LYS    HG3  246   2.835   3.607   1.451 -0.2420 -0.9804 -0.8188
   12LYS     CD  247   3.025   3.713   1.452  0.2223 -0.0277 -0.0994
   12LYS    HD2  248   3.007   3.736   1.557 -3.1935  1.9783 -0.9872
   12LYS    HD3  249   3.130   3.697   1.426  1.0385  1.1210  2.1968
   12LYS     CE  250   2.966   3.827   1.362  0.0636  0.3729 -0.7789
   12LYS    HE2  251   2.947   3.783   1.264 -0.6170 -0.0800 -0.4522
   12LYS    HE3  252   2.864   3.836   1.399  0.8023 -1.6764  2.0899
   12LYS     NZ  253   3.037   3.954   1.370  0.4749 -0.2585 -0.0041
   12LYS    HZ1  254   3.120   3.960   1.312 -0.2823 -0.2038 -1.1075
   12LYS    HZ2  255   2.978   4.030   1.341  0.9558  0.3174  0.4789
   12LYS    HZ3  256   3.077   3.970   1.462  3.8944 -0.1544 -1.3768
   12LYS      C  257   2.902   3.293   1.359  0.0321 -0.0478  0.5364
   12LYS      O  258   2.982   3.203   1.339 -0.3124  0.3714  0.7512
   13NHE      N  259   2.816   3.336   1.269 -0.2057 -0.4468 -0.0157
   13NHE    HN1  260   2.744   3.405   1.289 -1.5130 -1.3129 -1.4887
   13NHE    HN2  261   2.820   3.291   1.179  0.4168 -0.0650 -0.1871
   14Cl-    Cl-  262   3.929   0.163   0.118  0.0761 -0.5163 -0.2090
   15Cl-    Cl-  263   2.671   4.044   2.899  0.1850 -0.1081  0.0931
   16Cl-    Cl-  264   2.981   1.401   3.256  0.3359 -0.4284  0.4457
   17Cl-    Cl-  265   4.505   4.358   1.697  0.3761 -0.0604 -0.4507
   18Cl-    Cl-  266   1.318   5.122   2.742  0.1086  0.4829  0.2614
   19WAT      O  267   3.132   3.690   3.356 -0.2108  0.0587 -0.1137
   19WAT     H1  268   3.220   3.665   3.383 -0.5669  0.8702  1.9697
   19WAT     H2  269   3.114   3.636   3.279  2.2313  0.1619 -0.8285
   20WAT      O  270   2.913   0.991   1.136  0.1433  0.2972 -0.3221
   20WAT     H1  271   2.983   1.055   1.123  2.0223 -1.4408  0.6758
   20WAT     H2  272   2.885   0.968   1.047  0.8742  0.9817 -0.7434
   21WAT      O  273   2.751   2.913   4.055  0.3973 -0.5390  0.0937
   21WAT     H1  274   2.812   2.983   4.031  1.2069 -0.1753  2.8221
   21WAT     H2  275   2.665   2.946   4.030  0.6831  1.7776  1.7821
   22WAT      O  276   0.041   4.832   1.863  0.7008 -0.4256 -0.1825
   22WAT     H1  277   0.123   4.815   1.909  0.6422 -1.5034 -0.4497
   22WAT     H2  278  -0.018   4.762   1.892  0.1173 -0.1179 -0.5925
   23WAT      O  279   3.774   0.638   0.651  0.0336  0.0277  0.3544
   23WAT     H1  280   3.700   0.620   0.594  1.2910 -0.4263 -1.1945
   23WAT     H2  281   3.816   0.553   0.665 -0.0540  0.1788  1.7074
   24WAT      O  282   3.492   1.719   0.621  0.0428 -0.1978 -0.6118
   24WAT     H1  283   3.545   1.748   0.695  1.7883  1.4952 -2.4220
   24WAT     H2  284   3.527   1.634   0.598 -0.2398 -0.5500  0.2020
   25WAT      O  285   1.078   1.960   2.296  0.4242  0.3785  0.1574
   25WAT     H1  286   1.143   1.900   2.332  2.2680  1.7940 -0.6567
   25WAT     H2  287   1.117   2.047   2.306 -1.5811  1.3490  0.0856
   26WAT      O  288   3.843   4.072   3.045 -0.2255 -0.0756  0.2424
   26WAT     H1  289   3.914   4.012   3.066 -0.8173 -0.3393  1.6098
   26WAT     H2  290   3.877   4.125   2.973  0.7676 -1.2164 -0.1726
   27WAT      O  291   1.901   1.306   2.418 -0.6993 -0.0481  0.3684
   27WAT     H1  292   1.891   1.273   2.507 -1.7274 -0.6729  0.0389
   27WAT     H2  293   1.964   1.246   2.377 -0.4669  0.0540  0.5718
   28WAT      O  294   3.471   3.628   0.166  0.0536  0.4521 -0.1409
   28WAT     H1  295   3.393   3.603   0.116 -0.8405  2.5249  0.1198
   28WAT     H2  296   3.465   3.723   0.173  1.2095  0.4145  2.1899
   29WAT      O  297   2.503   3.280   1.487  0.0507  0.0968 -0.4159
   29WAT     H1  298   2.536   3.199   1.447 -0.0959 -0.7749  1.1406
   29WAT     H2  299   2.411   3.283   1.463  0.1508  0.0243 -0.8177
   30WAT      O  300   4.168   2.441   1.384  0.2895 -0.0736  0.4799
   30WAT     H1  301   4.237   2.493   1.425  0.1505 -0.3553  1.0773
   30WAT     H2  302   4.195   2.434   1.293  0.4595  0.7970  0.4493
   31WAT      O  303   4.127   0.982   2.499 -0.2560 -0.1860 -0.5240
   31WAT     H1  304   4.219   0.960   2.484 -0.3486 -1.7844  0.8164
   31WAT     H2  305   4.124   1.008   2.591 -1.0301  0.6646 -0.7766
   32WAT      O  306   1.147   3.637   1.945 -0.4001  0.4550  0.1677
   32WAT     H1  307   1.218   3.659   1.884  0.0772  0.1016  0.5809
   32WAT     H2  308   1.192   3.613   2.026 -1.0572  1.8340  0.9786
   33WAT      O  309   2.121   1.918   0.732  0.5528 -0.2096 -0.3589
   33WAT     H1  310   2.118   1.894   0.640  0.2260 -1.1497 -0.1123
   33WAT     H2  311   2.111   1.835   0.779 -2.0298  0.4900  0.5212
   34WAT      O  312   4.563   0.819   2.292  0.1291  0.2710  0.0541
   34WAT     H1  313   4.508   0.871   2.233 -0.3162 -0.7920 -0.4773
   34WAT     H2  314   4.521   0.828   2.378 -1.7489 -1.6445 -0.5751
   35WAT      O  315   1.059   1.398   4.984 -0.6641  0.1126 -0.5036
   35WAT     H1  316   1.056   1.302   4.984 -1.5092  0.0086  2.8968
   35WAT     H2  317   1.122   1.420   4.916  1.5205 -2.9796  0.3035
   36WAT      O  318   0.676   2.707   1.610 -0.3332 -0.0332 -0.3979
   36WAT     H1  319   0.702   2.681   1.698  0.2465  2.2709  0.1845
   36WAT     H2  320   0.618   2.638   1.581 -1.8470 -0.1097  2.4377
   37WAT      O  321   3.454   5.167   4.587 -0.2183 -0.1017 -0.3209
   37WAT     H1  322   3.408   5.143   4.668  2.3616 -2.6781  0.5465
   37WAT     H2  323   3.445   5.089   4.531  2.1574 -0.3249 -0.4927
   38WAT      O  324   0.173   3.740   4.551  0.0780  0.1969  0.4417
   38WAT     H1  325   0.177   3.674   4.620 -1.4089 -0.7472 -0.3334
   38WAT     H2  326   0.197   3.822   4.596 -2.3052 -0.0931  2.5085
   39WAT      O  327   4.214   0.576   3.363  0.1442 -0.0689 -0.4272
   39WAT     H1  328   4.185   0.667   3.373 -0.2930 -0.3072  0.6769
   39WAT     H2  329   4.135   0.524   3.379  0.6754 -0.6738  0.3055
   40WAT      O  330   2.131   0.204   1.337 -0.4314 -0.1682 -0.0018
   40WAT     H1  331   2.153   0.185   1.246  0.7858  1.6672 -0.1511
   40WAT     H2  332   2.193   0.152   1.388  0.4245  0.5417 -0.2977
   41WAT      O  333   4.157   3.021   1.560  0.2589 -0.0571  0.4818
   41WAT     H1  334   4.067   3.013   1.593  0.7823 -2.1355  1.5750
   41WAT     H2  335   4.168   3.115   1.544 -2.6828  0.0746 -1.4783
   42WAT      O  336   1.532   5.126   1.855  0.5794  0.3638  0.0328
   42WAT     H1  337   1.506   5.092   1.769  2.6434 -1.0591 -0.1129
   42WAT     H2  338   1.468   5.091   1.916 -0.2823  0.4876 -0.7879
   43WAT      O  339   2.564   3.190   0.745 -0.3130  0.3977 -0.3072
   43WAT     H1  340   2.536   3.190   0.653  0.0386  1.3054 -0.4335
   43WAT     H2  341   2.504   3.131   0.789 -1.6006  1.2939 -0.8025
   44WAT      O  342   1.411   4.405   0.367 -0.6417  0.1367 -0.5508
   44WAT     H1  343   1.424   4.361   0.451 -2.5572  1.0253  0.2645
   44WAT     H2  344   1.463   4.486   0.374  1.5628 -1.1035 -1.4259
   45WAT      O  345   0.292   4.430   2.578  0.1304  0.0131 -0.1231
   45WAT     H1  346   0.308   4.521   2.553  0.8492  0.2964  1.3045
   45WAT     H2  347   0.359   4.380   2.532  0.3821  0.3261 -0.0974
   46WAT      O  348   0.984   1.898   5.044 -0.5051 -0.5994 -0.1678
   46WAT     H1  349   1.030   1.827   4.999 -0.9529 -1.0807  0.1324
   46WAT     H2  350   0.988   1.971   4.982 -0.8514 -1.1610 -0.8666
   47WAT      O  351   2.785   2.993   4.833 -0.2715 -0.1709 -0.5152
   47WAT     H1  352   2.816   3.081   4.813 -0.0183 -0.1532 -0.0490
   47WAT     H2  353   2.843   2.936   4.783 -0.3586 -0.0845 -0.7203
   48WAT      O  354   3.429   1.231   0.774 -0.3519 -0.0674 -0.1511
   48WAT     H1  355   3.456   1.249   0.864 -0.1489 -0.4050 -0.1433
   48WAT     H2  356   3.461   1.143   0.757 -0.7198 -0.1499 -0.4266
   49WAT      O  357   0.629   1.214   4.583  0.2591 -0.2156 -0.2340
   49WAT     H1  358   0.625   1.254   4.670  0.2185  1.1497 -0.8444
   49WAT     H2  359   0.537   1.202   4.558  0.2464 -1.9601  0.4727
   50WAT      O  360   2.817   2.539   3.865 -0.1594 -0.0597 -0.1232
   50WAT     H1  361   2.843   2.618   3.817  1.2023 -0.1514  0.4082
   50WAT     H2  362   2.885   2.475   3.843 -1.6670 -1.3691 -1.1750
   51WAT      O  363   0.425   3.497   4.803  0.0596 -0.0366 -0.7485
   51WAT     H1  364   0.488   3.547   4.751 -0.1465 -0.2424 -1.2033
   51WAT     H2  365   0.400   3.556   4.874  0.5974  0.1270 -0.6909
   52WAT      O  366   0.975   0.612   5.073 -0.1234 -0.4971  0.6462
   52WAT     H1  367   0.959   0.533   5.124 -1.0951 -0.1966  0.8274
   52WAT     H2  368   0.891   0.657   5.070 -0.2438 -0.7377 -1.6454
   53WAT      O  369   1.425   4.593   3.477 -0.2932  0.2141 -0.0210
   53WAT     H1  370   1.330   4.603   3.474 -0.5058 -1.4287  0.5362
   53WAT     H2  371   1.457   4.657   3.414 -1.8095  0.3417 -0.7133
   54WAT      O  372   0.854   2.960   0.600 -0.1654  0.1430 -0.1983
   54WAT     H1  373   0.914   2.920   0.538  0.3220 -0.5819  0.7088
   54WAT     H2  374   0.898   3.041   0.628 -0.1307  0.1855 -0.3763
   55WAT      O  375   0.123   3.006   4.286 -0.1868 -0.0261 -0.2501
   55WAT     H1  376   0.212   3.024   4.255  0.1207  3.8552  2.1623
   55WAT     H2  377   0.134   2.991   4.380 -2.0271 -0.3052 -0.0520
   56WAT      O  378   1.582   4.992   4.780  0.6571 -0.4842 -0.3863
   56WAT     H1  379   1.563   5.034   4.696  0.4914  1.2955  0.4973
   56WAT     H2  380   1.571   4.898   4.763  0.1892 -0.1322 -2.2227
   57WAT      O  381   1.513   3.697   3.313 -0.5545 -0.1951 -0.2246
   57WAT     H1  382   1.424   3.731   3.307 -1.3873 -2.2387 -0.5441
   57WAT     H2  383   1.548   3.735   3.394 -1.7992  0.4583  0.0389
   58WAT      O  384   1.937   1.091   5.182 -0.0824  0.1403 -0.4318
   58WAT     H1  385   2.028   1.069   5.205 -0.2977 -1.1244 -0.7157
   58WAT     H2  386   1.890   1.089   5.266 -0.0832 -0.4185 -0.4448
   59WAT      O  387   2.675   1.426   3.824  0.2670  0.1887 -0.1308
   59WAT     H1  388   2.714   1.506   3.789  0.0271  1.0318  1.4169
   59WAT     H2  389   2.580   1.441   3.818  0.2047 -0.4605 -0.8632
   60WAT      O  390   1.522   4.317   2.435  0.3394  0.4151  0.5954
   60WAT     H1  391   1.520   4.375   2.359  0.0918  2.4580  2.0790
   60WAT     H2  392   1.549   4.232   2.400  1.4370  1.5831 -1.5593
   61WAT      O  393   4.002   3.738   4.465 -0.5563 -0.4632 -0.0931
   61WAT     H1  394   4.044   3.654   4.446 -2.3787 -1.3870 -0.2466
   61WAT     H2  395   3.956   3.724   4.547  1.2693  1.2640  1.3259
   62WAT      O  396   2.970   1.224   0.231 -0.2988 -0.2790  0.0790
   62WAT     H1  397   3.013   1.147   0.269 -2.5955 -1.2053  0.9931
   62WAT     H2  398   3.042   1.283   0.209  1.4694 -2.1569  0.5108
   63WAT      O  399   3.489   4.987   3.967 -0.6719  0.0614  0.7827
   63WAT     H1  400   3.534   4.948   3.891 -1.6972  0.9775 -0.3204
   63WAT     H2  401   3.560   5.006   4.029 -0.0386 -2.9652  1.1576
   64WAT      O  402   3.193   1.035   5.305 -0.5012  0.9388 -0.6735
   64WAT     H1  403   3.148   1.096   5.247 -1.3472  1.3318  0.3580
   64WAT     H2  404   3.122   0.983   5.344  0.1394 -0.0834 -0.8501
   65WAT      O  405   1.672   3.667   2.796 -0.1853 -0.6689 -0.0948
   65WAT     H1  406   1.695   3.714   2.877 -1.3340 -0.4967  0.1620
   65WAT     H2  407   1.632   3.586   2.826 -1.0331 -0.4035 -0.4625
   66WAT      O  408   3.611   2.808   5.281 -0.3861  0.5126  0.4001
   66WAT     H1  409   3.701   2.803   5.313 -0.6591 -1.0560  1.0327
   66WAT     H2  410   3.601   2.898   5.249  1.3595  0.7442  0.4196
   67WAT      O  411   3.050   0.304   1.967 -0.0702 -0.2519 -0.4336
   67WAT     H1  412   3.131   0.257   1.949 -0.5229 -0.6175 -1.5971
   67WAT     H2  413   2.992   0.239   2.004  0.1587  0.0139  0.4139
   68WAT      O  414   2.180   0.824   1.805 -0.0570  0.4757  0.0445
   68WAT     H1  415   2.107   0.883   1.786 -0.2361  0.6825  1.3007
   68WAT     H2  416   2.250   0.854   1.746 -0.2919  1.6691  0.3386
   69WAT      O  417   2.560   3.317   4.353 -0.1466  0.0687  0.1546
   69WAT     H1  418   2.526   3.364   4.429  1.4155  0.1002  0.8867
   69WAT     H2  419   2.539   3.374   4.278  1.4386  1.8814  0.9837
   70WAT      O  420   2.674   2.545   4.933  0.2911  0.2782 -0.3633
   70WAT     H1  421   2.622   2.508   5.005  0.7960 -0.5478 -0.4102
   70WAT     H2  422   2.632   2.629   4.915 -1.0432 -0.3663 -0.4107
   71WAT      O  423   2.865   4.052   3.141  0.4553  0.4410  0.0067
   71WAT     H1  424   2.881   4.146   3.149  2.1137  0.1912 -0.0043
   71WAT     H2  425   2.814   4.044   3.060  1.4745  1.2452 -0.7520
   72WAT      O  426   0.950   4.706   0.283  0.0608  0.4813 -0.4694
   72WAT     H1  427   0.923   4.773   0.346  0.1233  1.5795 -1.5655
   72WAT     H2  428   0.873   4.694   0.227  0.4484  0.5238 -1.0186
   73WAT      O  429   3.965   1.271   4.907  0.0913 -0.6589  0.2438
   73WAT     H1  430   3.901   1.209   4.872  0.4770 -0.8110 -0.2015
   73WAT     H2  431   4.023   1.218   4.962 -0.6710 -0.3763  1.3455
   74WAT      O  432   3.790   4.887   1.742  0.4318  0.2957 -0.1458
   74WAT     H1  433   3.884   4.878   1.732  0.2649 -2.6613  0.0118
   74WAT     H2  434   3.776   4.888   1.837  0.2761  0.1026 -0.1651
   75WAT      O  435   4.310   0.018   0.033 -0.2343 -0.9389  0.4691
   75WAT     H1  436   4.226   0.032  -0.009 -0.2616  2.6760  1.4146
   75WAT     H2  437   4.289  -0.029   0.114 -1.2436 -0.8842  0.2502
   76WAT      O  438   1.288   2.568   0.339  0.8090  0.0456  0.1799
   76WAT     H1  439   1.206   2.589   0.293  1.5767 -0.0064 -1.2734
   76WAT     H2  440   1.327   2.498   0.287  1.7718  0.0393  0.8860
   77WAT      O  441   2.209   1.974   1.627 -0.2927  0.0498  0.1631
   77WAT     H1  442   2.123   1.983   1.586 -0.8084 -1.4307  0.8529
   77WAT     H2  443   2.251   1.902   1.581 -0.0779 -0.3039  0.8882
   78WAT      O  444   0.511   4.874   0.336  0.1241  0.2883  0.2796
   78WAT     H1  445   0.468   4.954   0.367 -2.2437 -0.5619 -0.5898
   78WAT     H2  446   0.483   4.807   0.398  2.4940  0.1208  1.3001
   79WAT      O  447   0.444   2.948   1.991 -0.1729  0.3851  0.1733
   79WAT     H1  448   0.408   2.864   2.019 -0.9484  0.9256  0.8534
   79WAT     H2  449   0.455   2.998   2.073 -2.1973  1.8928 -0.3820
   80WAT      O  450   2.546   0.651   2.950 -0.0135 -0.0082 -0.3835
   80WAT     H1  451   2.522   0.705   2.875 -1.3119 -3.2798 -2.5651
   80WAT     H2  452   2.464   0.637   2.998  0.2401 -0.2558 -0.0078
   81WAT      O  453   4.387   0.663   3.144 -0.0189 -0.5830  0.0296
   81WAT     H1  454   4.432   0.597   3.092  0.0317 -0.7312  0.2652
   81WAT     H2  455   4.357   0.617   3.222  0.3252 -0.2494  0.3591
   82WAT      O  456   3.758   2.019   5.282  0.4871  0.4067 -0.6775
   82WAT     H1  457   3.845   1.996   5.313 -0.6621 -0.9358  1.8672
   82WAT     H2  458   3.763   2.012   5.186  3.2689  1.0032 -0.6463
   83WAT      O  459   2.547   2.554   1.699  0.2529 -0.2040  0.4471
   83WAT     H1  460   2.517   2.604   1.775 -0.0024 -0.1547  0.3169
   83WAT     H2  461   2.467   2.513   1.665  0.7052 -2.1822  1.6198
   84WAT      O  462   3.198   5.129   3.175 -0.0785  0.5309 -0.0345
   84WAT     H1  463   3.195   5.060   3.108 -0.1429  0.8084 -0.3202
   84WAT     H2  464   3.260   5.096   3.240  1.2046  0.9256 -0.9954
   85WAT      O  465   0.500   1.468   2.878 -0.6202 -0.1474  0.8878
   85WAT     H1  466   0.443   1.407   2.924 -0.9869 -0.5723 -0.1119
   85WAT     H2  467   0.440   1.522   2.826 -0.2868  0.9481  1.5985
   86WAT      O  468   2.649   4.024   0.377 -0.2010 -0.6660 -0.1389
   86WAT     H1  469   2.604   4.050   0.457  0.9259 -0.3055  0.3982
   86WAT     H2  470   2.628   4.093   0.314 -1.3240 -1.0975 -0.2634
   87WAT      O  471   2.741   2.639   0.134 -0.2291  0.0339 -0.3846
   87WAT     H1  472   2.785   2.660   0.051  1.1698  0.1300  0.3439
   87WAT     H2  473   2.708   2.724   0.165 -0.5668  0.0326 -0.7396
   88WAT      O  474   2.858   2.362   1.143  0.0656 -0.3501 -0.0630
   88WAT     H1  475   2.950   2.390   1.152 -0.0598  0.0277  0.0521
   88WAT     H2  476   2.847   2.349   1.049  0.2756 -0.5205 -0.0652
   89WAT      O  477   0.152   4.941   0.314  0.2782 -0.1361  0.3258
   89WAT     H1  478   0.060   4.935   0.290  0.4896  2.5216 -1.6188
   89WAT     H2  479   0.151   4.978   0.402 -0.5307  0.8072 -0.0626
   90WAT      O  480   3.372   4.832   4.197 -0.1316  0.7813  0.6751
   90WAT     H1  481   3.384   4.926   4.189  0.7648  0.5791 -0.6658
   90WAT     H2  482   3.305   4.810   4.133  0.2807  0.3949  0.3701
   91WAT      O  483   1.531   2.395   3.165  0.1256  0.6497  0.4073
   91WAT     H1  484   1.512   2.302   3.180 -1.2666  0.5993 -1.3436
   91WAT     H2  485   1.617   2.408   3.204 -0.0119 -1.1750  1.4339
   92WAT      O  486   0.786   3.860   4.593  0.2556 -0.0751  0.3187
   92WAT     H1  487   0.765   3.950   4.571  0.6424  0.1075  0.6950
   92WAT     H2  488   0.870   3.844   4.549  0.6424  0.0421  1.0064
   93WAT      O  489  -0.002   2.989   2.952  0.2925  0.5573 -0.1128
   93WAT     H1  490  -0.020   2.902   2.915  0.3183  0.4623  0.0943
   93WAT     H2  491   0.059   2.972   3.024 -0.7736  0.5769  0.8183
   94WAT      O  492   3.835   5.031   0.625 -0.1989 -0.0231  0.1653
   94WAT     H1  493   3.928   5.016   0.609 -0.0245  1.0237  0.1555
   94WAT     H2  494   3.828   5.124   0.647 -0.9331 -0.5128  2.3456
   95WAT      O  495   1.419   2.133   4.556 -0.1825  0.6684 -0.0539
   95WAT     H1  496   1.461   2.163   4.475  0.4579 -1.1585 -0.4499
   95WAT     H2  497   1.401   2.213   4.605 -1.0216  1.8646 -2.1985
   96WAT      O  498   1.798   3.874   3.846 -0.5141  0.1580 -0.2861
   96WAT     H1  499   1.841   3.871   3.760  0.8053 -0.8486  0.3711
   96WAT     H2  500   1.733   3.804   3.842  0.4891 -0.8286 -0.0261
   97WAT      O  501   2.310   2.132   1.812  0.4664  0.6383 -0.7803
   97WAT     H1  502   2.401   2.109   1.831  0.8967  1.1576 -2.1045
   97WAT     H2  503   2.277   2.058   1.760 -1.0746 -1.3624  2.7111
   98WAT      O  504   0.267   2.550   2.789  0.4412 -0.2743  0.0783
   98WAT     H1  505   0.342   2.507   2.831  1.0752  1.0265  0.3093
   98WAT     H2  506   0.253   2.629   2.840 -0.4562  0.0037 -0.5790
   99WAT      O  507   4.408   3.381   1.179  0.2670  0.2374  0.0045
   99WAT     H1  508   4.398   3.440   1.253 -1.1316  0.2361 -0.1559
   99WAT     H2  509   4.463   3.310   1.211  1.0201  1.0459  0.5382
  100WAT      O  510   4.207   4.604   2.225  0.2415  0.6640  0.3779
  100WAT     H1  511   4.113   4.590   2.232 -0.0607  2.9790  2.6866
  100WAT     H2  512   4.221   4.629   2.134 -1.2334 -0.3579 -0.1697
  101WAT      O  513   2.359   2.543   4.760  0.7157  0.2620  0.0250
  101WAT     H1  514   2.416   2.599   4.707  0.0039  0.1595 -0.8656
  101WAT     H2  515   2.315   2.603   4.820  1.1640  0.4419  0.1763
  102WAT      O  516   2.270   0.174   4.509  0.1316  0.3507  0.3936
  102WAT     H1  517   2.237   0.208   4.592  1.9341  0.0760  1.2761
  102WAT     H2  518   2.194   0.134   4.467 -1.3946  2.8203  0.6614
  103WAT      O  519   0.739   2.001   4.652 -0.1809  0.1712  0.7683
  103WAT     H1  520   0.664   1.969   4.702  0.5934 -1.5576  0.8744
  103WAT     H2  521   0.792   1.923   4.634  0.3989  0.9733 -1.3559
  104WAT      O  522   0.726   4.229   0.731  0.1083  0.0106 -0.3391
  104WAT     H1  523   0.797   4.276   0.688 -1.1156  1.8164 -0.4884
  104WAT     H2  524   0.736   4.250   0.824 -0.9760  1.4152 -0.5022
  105WAT      O  525   3.921   2.984   4.125 -0.0981  0.5521  0.5500
  105WAT     H1  526   3.851   2.923   4.150 -0.1536 -0.4153 -1.7477
  105WAT     H2  527   3.875   3.055   4.080  0.1734  1.2710  1.3830
  106WAT      O  528   4.247   3.148   5.175 -0.3312 -0.2249  0.8396
  106WAT     H1  529   4.312   3.080   5.160 -0.2705 -0.0258  0.1902
  106WAT     H2  530   4.197   3.117   5.251  0.2788 -0.5513  1.1134
  107WAT      O  531   1.382   0.354   0.918 -0.1649 -0.0304  0.4833
  107WAT     H1  532   1.291   0.342   0.948  0.3127 -4.4340  0.8509
  107WAT     H2  533   1.435   0.319   0.990  1.6483 -0.3681 -0.9442
  108WAT      O  534   2.390   2.659   0.048  0.3461 -0.0900  0.9299
  108WAT     H1  535   2.421   2.613  -0.030  1.4042  0.7493  0.8396
  108WAT     H2  536   2.405   2.597   0.119  1.3768 -0.0654  0.7500
  109WAT      O  537   3.987   1.209   5.292 -0.0825  0.1537  0.0580
  109WAT     H1  538   3.970   1.188   5.384 -0.4975  0.1473 -0.0189
  109WAT     H2  539   3.902   1.201   5.249  0.2028 -0.3622 -0.4281
  110WAT      O  540   1.634   1.738   2.041 -0.3006  0.4598  0.1971
  110WAT     H1  541   1.666   1.765   2.127 -0.4333 -0.2184  0.4670
  110WAT     H2  542   1.684   1.790   1.979 -0.1692  0.9235  0.6824
  111WAT      O  543   2.648   0.321   0.100  0.1115 -0.4763  0.2171
  111WAT     H1  544   2.618   0.388   0.039  0.1583 -0.9937 -0.3802
  111WAT     H2  545   2.718   0.276   0.054  0.0429 -0.9806  0.5922
  112WAT      O  546   0.440   2.735   2.202 -0.2228 -0.4663 -0.0448
  112WAT     H1  547   0.414   2.719   2.292 -0.6177  0.2212 -0.0301
  112WAT     H2  548   0.374   2.691   2.149 -1.2879  1.0149 -0.0046
  113WAT      O  549   2.514   1.963   4.004  0.2029  0.1357  0.2707
  113WAT     H1  550   2.517   1.995   4.095  1.6725 -0.1212  0.3311
  113WAT     H2  551   2.551   2.035   3.952  0.8203 -0.3180  0.0704
  114WAT      O  552   1.832   1.662   3.948  0.1170  0.1344 -0.1152
  114WAT     H1  553   1.890   1.718   3.999  0.7459 -0.9535  0.3932
  114WAT     H2  554   1.762   1.638   4.009 -0.1808  0.3923 -0.3484
  115WAT      O  555   3.513   2.373   4.733 -0.0628  0.2352  0.2551
  115WAT     H1  556   3.530   2.428   4.657  0.6468 -0.3993 -0.0615
  115WAT     H2  557   3.557   2.290   4.713 -0.5577 -0.2225  0.9989
  116WAT      O  558   0.700   4.319   2.300 -0.0604  0.2514 -0.0140
  116WAT     H1  559   0.714   4.268   2.380  0.4500 -0.1507 -0.3548
  116WAT     H2  560   0.784   4.315   2.254 -0.2044  0.8773 -0.3489
  117WAT      O  561   0.365   5.112   1.193  0.1508  0.6849  0.2591
  117WAT     H1  562   0.333   5.061   1.267  1.6528  1.1333  1.2722
  117WAT     H2  563   0.322   5.073   1.117  0.4174 -1.4116  1.0925
  118WAT      O  564   1.488   2.613   1.735  0.0311  0.0316  0.2066
  118WAT     H1  565   1.419   2.672   1.702  1.2708  0.9672 -0.8193
  118WAT     H2  566   1.537   2.667   1.798  0.0304 -0.5231  0.6876
  119WAT      O  567   3.868   4.745   4.163 -0.3190  0.0147 -0.2604
  119WAT     H1  568   3.812   4.672   4.136  0.6121 -1.2254  0.9687
  119WAT     H2  569   3.945   4.737   4.106  0.4657 -0.9688  0.8718
  120WAT      O  570   4.121   1.718   0.482  0.4162 -0.0986 -0.1860
  120WAT     H1  571   4.101   1.810   0.462 -0.0464 -0.0539  0.4334
  120WAT     H2  572   4.039   1.672   0.464  0.8278 -0.4988 -1.1027
  121WAT      O  573   3.471   0.466   0.407 -0.4629 -0.2342  0.3537
  121WAT     H1  574   3.412   0.540   0.395 -0.5527 -0.0033  2.0228
  121WAT     H2  575   3.439   0.400   0.344 -2.7280 -0.2338  1.3907
  122WAT      O  576   0.025   3.844   2.379  0.2600  0.2699  0.7492
  122WAT     H1  577   0.063   3.932   2.382 -0.1864  0.5157 -0.2280
  122WAT     H2  578  -0.068   3.858   2.398  0.4739 -0.2126  2.2380
  123WAT      O  579   3.549   1.885   4.892  0.4300  0.5324  0.1010
  123WAT     H1  580   3.642   1.902   4.906  0.3303  0.9175  0.2965
  123WAT     H2  581   3.547   1.812   4.830  0.8630  1.3215 -0.8609
  124WAT      O  582   4.068   3.033   2.776  0.0269 -0.4484 -0.3605
  124WAT     H1  583   3.990   2.989   2.742 -1.2928 -0.3227  2.2326
  124WAT     H2  584   4.114   2.966   2.825  0.3797 -0.0101 -0.0817
  125WAT      O  585   3.686   4.761   1.013  0.0460  0.1886 -0.2637
  125WAT     H1  586   3.594   4.765   1.039  0.3941  2.7719  0.8687
  125WAT     H2  587   3.683   4.742   0.919 -1.5739 -0.6303 -0.0833
  126WAT      O  588   1.258   3.613   2.497  0.0887 -0.0207 -0.5576
  126WAT     H1  589   1.214   3.534   2.467 -0.0431  0.1817 -0.9016
  126WAT     H2  590   1.349   3.600   2.472  0.0549 -0.0332 -0.6752
  127WAT      O  591   3.337   3.407   4.594 -0.4529 -0.1313  1.0035
  127WAT     H1  592   3.419   3.358   4.600 -1.7822 -2.5580  0.5241
  127WAT     H2  593   3.324   3.420   4.500  0.0625  1.5712  1.1321
  128WAT      O  594   1.728   3.223   3.755  0.2466 -0.7792 -0.0485
  128WAT     H1  595   1.820   3.229   3.729  0.6818 -2.3296  0.9872
  128WAT     H2  596   1.730   3.169   3.834 -1.5693 -0.8556 -0.0306
  129WAT      O  597   2.913   4.949   2.100  0.0872 -0.1782  0.1203
  129WAT     H1  598   2.849   4.942   2.170 -0.7076 -0.7118 -0.6412
  129WAT     H2  599   2.998   4.944   2.144 -0.2239  3.8092  1.5467
  130WAT      O  600   2.261   3.615   3.976  0.1274  0.2509 -0.2309
  130WAT     H1  601   2.178   3.577   4.005 -0.7499  0.4635 -2.2573
  130WAT     H2  602   2.302   3.546   3.923  1.2020  0.2023  0.6277
  131WAT      O  603   1.132   4.181   3.179 -0.3230 -0.1515 -0.5748
  131WAT     H1  604   1.079   4.130   3.117 -1.1061  2.1975 -1.9758
  131WAT     H2  605   1.222   4.166   3.151 -0.5900 -0.2112 -1.4423
  132WAT      O  606   2.635   2.548   0.608 -0.9066 -0.1786 -0.4914
  132WAT     H1  607   2.595   2.470   0.570 -0.2886 -1.0961  0.6677
  132WAT     H2  608   2.698   2.577   0.543  0.4991 -2.0109 -0.0413
  133WAT      O  609   3.131   1.402   2.986  0.1904 -0.3423  0.1167
  133WAT     H1  610   3.188   1.327   2.968 -0.1089 -0.2591 -1.3170
  133WAT     H2  611   3.105   1.392   3.078  0.4228 -1.8071  0.0392
  134WAT      O  612   3.018   1.243   5.198  0.2124  0.1076 -0.7476
  134WAT     H1  613   2.977   1.318   5.241  0.7113 -0.2746  0.4240
  134WAT     H2  614   3.013   1.264   5.105 -0.9528  0.9277 -0.5291
  135WAT      O  615   4.251   2.699   2.173  0.5516  0.0642 -0.1938
  135WAT     H1  616   4.304   2.631   2.132 -0.2482 -0.6586 -0.0653
  135WAT     H2  617   4.286   2.708   2.261 -0.1871 -1.1773  0.2543
  136WAT      O  618   3.380   2.040   1.140 -0.7763  0.1706  0.0031
  136WAT     H1  619   3.357   2.036   1.233  0.7710 -0.5513  0.3955
  136WAT     H2  620   3.430   1.960   1.124  1.2836  1.5311 -0.7624
  137WAT      O  621   2.603   2.594   1.986 -0.5527  0.0829  0.5504
  137WAT     H1  622   2.546   2.668   1.965 -0.7444 -0.9526 -3.4286
  137WAT     H2  623   2.543   2.522   2.003 -0.3718  0.1253  1.4075
  138WAT      O  624   2.072   2.680   0.764  0.1188  0.4715  0.6939
  138WAT     H1  625   2.096   2.599   0.720  0.2792  0.3201  1.0547
  138WAT     H2  626   2.000   2.656   0.822 -0.8738  0.9060 -0.3173
  139WAT      O  627   1.411   0.242   1.387 -0.5384  0.1416 -0.2570
  139WAT     H1  628   1.486   0.296   1.414 -1.0359  0.6618  0.0996
  139WAT     H2  629   1.387   0.194   1.466 -2.5825  2.3507  0.5876
  140WAT      O  630   0.599   0.743   2.020  0.2396 -0.2955 -0.3042
  140WAT     H1  631   0.548   0.823   2.028  2.6052  1.2977 -0.4493
  140WAT     H2  632   0.652   0.740   2.100  1.4651 -0.7549 -1.1124
  141WAT      O  633   3.247   2.248   4.527 -0.2521 -0.5437 -0.5101
  141WAT     H1  634   3.334   2.221   4.556 -0.2682  0.3980  0.4791
  141WAT     H2  635   3.211   2.171   4.483  1.4574 -0.6314 -1.8637
  142WAT      O  636   2.882   4.183   2.726 -0.2522 -0.2162  0.2638
  142WAT     H1  637   2.967   4.140   2.740 -0.5045 -0.7112  0.2799
  142WAT     H2  638   2.819   4.124   2.767 -0.6410 -0.0025 -0.0320
  143WAT      O  639   2.609   2.138   0.845  0.1000 -0.2253 -0.7594
  143WAT     H1  640   2.536   2.085   0.876 -0.7745 -0.4856 -3.0536
  143WAT     H2  641   2.570   2.194   0.777  1.7002  0.8833 -0.8097
  144WAT      O  642   0.588   1.354   2.183 -0.2988 -0.1084  0.3688
  144WAT     H1  643   0.668   1.336   2.233  0.3873  0.0814 -0.6286
  144WAT     H2  644   0.603   1.439   2.143  0.0354 -1.0877 -1.7459
  145WAT      O  645   2.779   2.005   0.702 -0.5955 -0.4308  0.1436
  145WAT     H1  646   2.715   2.051   0.756  1.5023  2.3200  0.5104
  145WAT     H2  647   2.858   2.002   0.756  1.1312  1.0703 -2.1042
  146WAT      O  648   0.533   0.431   4.994  0.0986  0.6984  1.0789
  146WAT     H1  649   0.493   0.487   4.928 -1.7255 -0.4425  1.1290
  146WAT     H2  650   0.486   0.451   5.074 -2.1094 -2.2357  0.6905
  147WAT      O  651   2.951   5.150   0.568  0.3464  0.2469 -0.2157
  147WAT     H1  652   2.884   5.097   0.525 -1.7688  2.4143  0.1874
  147WAT     H2  653   3.024   5.151   0.505 -0.5239 -1.0373 -1.3093
  148WAT      O  654   3.225   2.084   5.283  0.0979  0.3111  0.1885
  148WAT     H1  655   3.210   2.178   5.274  1.5986  0.6445  0.8643
  148WAT     H2  656   3.309   2.068   5.239 -1.1281 -1.1241 -1.8363
  149WAT      O  657   2.478   0.931   2.975 -0.5124  0.3670  0.4426
  149WAT     H1  658   2.533   0.893   3.044  0.5493 -0.2361 -0.7039
  149WAT     H2  659   2.539   0.979   2.919 -0.9774 -1.0409 -1.3766
  150WAT      O  660   2.898   3.384   4.402 -0.1999 -0.4847 -0.1161
  150WAT     H1  661   2.819   3.359   4.355  0.5765 -0.3683 -1.5571
  150WAT     H2  662   2.969   3.366   4.340  0.9115 -0.6249  1.1486
  151WAT      O  663   1.823   1.370   5.123 -0.6481 -0.2687 -0.2478
  151WAT     H1  664   1.891   1.427   5.087 -0.6669 -1.6750 -2.7556
  151WAT     H2  665   1.870   1.294   5.157 -0.8205 -0.3023 -0.0806
  152WAT      O  666   2.992   4.526   2.184 -0.3533 -0.0774  0.3254
  152WAT     H1  667   3.007   4.435   2.210  1.2396  0.4871  1.5631
  152WAT     H2  668   3.038   4.578   2.250 -3.5439  1.7786  1.3295
  153WAT      O  669   3.662   3.062   3.241  0.2069 -0.2771 -0.4208
  153WAT     H1  670   3.668   3.151   3.207 -0.3958  0.0491  0.3095
  153WAT     H2  671   3.582   3.027   3.202 -1.9310  0.9456  2.4606
  154WAT      O  672   0.569   1.119   1.278 -0.9454  0.3875 -0.0256
  154WAT     H1  673   0.616   1.083   1.353 -4.7065 -0.0876  2.3432
  154WAT     H2  674   0.562   1.212   1.297 -2.0678  0.2373  0.3241
  155WAT      O  675   0.455   3.042   2.907 -0.7220 -0.3020  0.1341
  155WAT     H1  676   0.467   3.076   2.996 -0.1915  1.5431 -0.5837
  155WAT     H2  677   0.537   2.997   2.887 -0.5992 -0.1843  0.3718
  156WAT      O  678   2.846   1.190   2.453  0.3146  0.1664 -0.1881
  156WAT     H1  679   2.860   1.189   2.358 -2.4827 -3.5044 -0.7910
  156WAT     H2  680   2.762   1.235   2.465  0.6551  0.6203  0.5799
  157WAT      O  681   3.750   1.682  -0.000 -0.5403 -0.9698  0.3041
  157WAT     H1  682   3.680   1.686   0.066 -0.1991  2.0788  0.6487
  157WAT     H2  683   3.822   1.731   0.039  0.4024 -0.7937 -1.5470
  158WAT      O  684   2.954   5.103   3.990  0.8422  0.4477  0.0467
  158WAT     H1  685   2.995   5.019   4.012 -1.1160  0.0162  2.5972
  158WAT     H2  686   2.899   5.083   3.913 -1.3021 -1.3277  1.8779
  159WAT      O  687   3.787   0.945   1.850  0.0557  0.5463 -0.4373
  159WAT     H1  688   3.844   0.932   1.926 -0.7044  0.8644  0.2043
  159WAT     H2  689   3.765   1.038   1.853 -1.0113  0.3033 -0.2879
  160WAT      O  690   3.906   2.521   0.603 -0.8808 -0.3320  0.3146
  160WAT     H1  691   3.980   2.480   0.647 -0.1860  0.8272  0.2686
  160WAT     H2  692   3.829   2.486   0.648 -0.3754 -2.1940 -0.1806
  161WAT      O  693   1.294   2.557   4.785  0.1056 -0.4814  0.2001
  161WAT     H1  694   1.308   2.650   4.768  1.9753 -0.5563  1.1170
  161WAT     H2  695   1.217   2.556   4.843 -0.2958  0.4186 -0.2778
  162WAT      O  696   1.844   3.596   0.687  0.2990 -0.4400  0.0852
  162WAT     H1  697   1.850   3.679   0.734  0.1158 -0.6699  0.5244
  162WAT     H2  698   1.884   3.613   0.602  2.5154 -0.5460  1.0359
  163WAT      O  699   4.475   2.418   4.276  0.4828 -0.6405  0.2530
  163WAT     H1  700   4.460   2.512   4.265  0.1610 -0.5863  1.0775
  163WAT     H2  701   4.418   2.377   4.213 -2.2117 -0.3959  2.3508
  164WAT      O  702   2.174   4.790   1.308 -0.1707 -0.0649 -0.3509
  164WAT     H1  703   2.101   4.829   1.259 -0.3883 -1.1332 -0.9104
  164WAT     H2  704   2.225   4.865   1.340 -0.6908  0.6679 -1.2079
  165WAT      O  705   4.110   3.755   2.284  0.1096 -0.0266  0.0440
  165WAT     H1  706   4.206   3.761   2.278  0.2897 -0.5294  1.7966
  165WAT     H2  707   4.095   3.692   2.354 -1.5186  0.0874 -0.1785
  166WAT      O  708   0.350   2.365   0.074 -0.5957 -0.0218  0.2629
  166WAT     H1  709   0.312   2.278   0.084 -1.1295  0.2269  0.4032
  166WAT     H2  710   0.277   2.425   0.084 -0.4261  0.4128 -0.9764
  167WAT      O  711   2.004   1.710   1.835 -0.0357 -0.4333 -0.0895
  167WAT     H1  712   2.008   1.637   1.897  0.0462  1.3254  2.0938
  167WAT     H2  713   1.996   1.668   1.749  2.1411 -3.0433  0.8499
  168WAT      O  714   2.655   1.776   1.289 -0.5287 -0.3946 -0.0874
  168WAT     H1  715   2.591   1.825   1.340 -0.7188 -1.2284  0.4989
  168WAT     H2  716   2.694   1.715   1.351  0.8190  0.0721 -0.4522
  169WAT      O  717   3.772   3.915   4.724 -0.1251 -0.2324  0.0177
  169WAT     H1  718   3.686   3.873   4.716  0.0004 -0.4451 -0.2138
  169WAT     H2  719   3.778   3.971   4.646 -0.1708 -0.0018  0.1782
  170WAT      O  720   2.543   4.694   3.695  0.2560  0.1559 -0.0116
  170WAT     H1  721   2.507   4.773   3.655 -0.5534 -0.3740 -0.3599
  170WAT     H2  722   2.476   4.627   3.680  0.4519 -0.3457  1.2022
  171WAT      O  723   3.817   0.903   4.822  0.4119 -0.0646 -0.5781
  171WAT     H1  724   3.772   0.870   4.744  0.1940 -0.1271 -0.4278
  171WAT     H2  725   3.769   0.982   4.845  0.1875 -0.2985 -0.2390
  172WAT      O  726   1.414   1.803   1.396 -0.2939 -0.2138 -0.1272
  172WAT     H1  727   1.336   1.826   1.347 -0.4926 -0.2686  0.1602
  172WAT     H2  728   1.381   1.763   1.477  0.0331 -0.7016 -0.2294
  173WAT      O  729   0.027   1.834   4.263 -0.2452  0.4334  0.0837
  173WAT     H1  730   0.052   1.821   4.355 -2.1405  1.9788  0.8917
  173WAT     H2  731   0.086   1.904   4.232  1.2071 -0.9053 -0.3006
  174WAT      O  732   2.107   0.549   1.659  0.4388  0.4429  0.2075
  174WAT     H1  733   2.037   0.557   1.594 -0.4969  1.3973  1.2904
  174WAT     H2  734   2.129   0.639   1.682 -0.2828  0.1596  2.2643
  175WAT      O  735   4.096   0.241   1.665 -0.5515 -0.1693  0.0818
  175WAT     H1  736   4.085   0.211   1.756 -0.8786  0.3961  0.2365
  175WAT     H2  737   4.180   0.205   1.638  0.0333  0.4789  0.9533
  176WAT      O  738   3.722   4.594   1.998 -0.1084 -0.2311 -0.8013
  176WAT     H1  739   3.666   4.543   1.940  1.5182 -0.7811 -1.9390
  176WAT     H2  740   3.688   4.684   1.990 -0.8408 -0.5512 -1.4352
  177WAT      O  741   3.328   0.131   3.816  0.7632  0.1693  0.0055
  177WAT     H1  742   3.381   0.210   3.827 -0.2082  0.8915 -0.2958
  177WAT     H2  743   3.313   0.100   3.905 -0.2971  1.3453  0.2680
  178WAT      O  744   2.032   1.947   2.719 -0.1540  0.8178  0.1234
  178WAT     H1  745   2.120   1.915   2.696  0.1299  1.0191  0.8866
  178WAT     H2  746   1.991   1.873   2.764  0.3816  1.3749  1.5907
  179WAT      O  747   3.018   1.112   3.301 -0.3449  0.5331  0.1370
  179WAT     H1  748   3.022   1.196   3.256 -2.1589 -0.3946 -1.9738
  179WAT     H2  749   2.952   1.124   3.369 -0.1501  0.9686  0.2517
  180WAT      O  750   2.866   4.824   0.828 -0.0590 -0.4607 -0.5327
  180WAT     H1  751   2.938   4.803   0.887  0.0883 -3.0999 -1.5186
  180WAT     H2  752   2.877   4.917   0.808  1.5257 -0.1845  1.3382
  181WAT      O  753   0.695   2.612   3.091 -0.9795 -0.3361  0.0423
  181WAT     H1  754   0.778   2.642   3.129 -0.6493 -0.6583 -0.4174
  181WAT     H2  755   0.628   2.653   3.146 -0.5259  0.2991  0.1387
  182WAT      O  756   1.130   1.914   2.041  0.2809 -0.6517 -0.6539
  182WAT     H1  757   1.118   1.946   2.131  0.2962 -0.2091 -0.8087
  182WAT     H2  758   1.042   1.915   2.004  0.4030  0.0795 -0.9454
  183WAT      O  759   3.665   1.417   2.617 -0.2312 -0.1160 -0.4508
  183WAT     H1  760   3.738   1.475   2.641 -0.2322 -1.2786  2.7429
  183WAT     H2  761   3.707   1.336   2.590 -0.3234  0.3533 -2.1359
  184WAT      O  762   2.510   5.111   3.987  0.1245  0.6520 -0.3933
  184WAT     H1  763   2.536   5.129   3.897  3.1096  0.3386  0.2798
  184WAT     H2  764   2.530   5.192   4.034 -1.5949  0.8849  0.0073
  185WAT      O  765   3.078   4.081   3.766 -0.4805  0.7660  0.1840
  185WAT     H1  766   3.164   4.057   3.801 -1.1718  0.0922  1.5071
  185WAT     H2  767   3.063   4.020   3.694  0.0180  0.6619  0.1705
  186WAT      O  768   0.530   2.941   4.106 -0.6120  0.2654 -0.0414
  186WAT     H1  769   0.497   2.851   4.102 -0.9010  0.4065 -1.3285
  186WAT     H2  770   0.452   2.995   4.115 -0.4237  0.3874  0.9298
  187WAT      O  771   2.431   2.855   2.264 -0.4302 -0.2188  0.1692
  187WAT     H1  772   2.484   2.877   2.187  1.7538 -0.8105  1.4087
  187WAT     H2  773   2.434   2.759   2.269 -0.3769 -0.1857  1.0590
  188WAT      O  774   0.804   4.728   1.107 -0.1840 -0.3261  0.7027
  188WAT     H1  775   0.795   4.700   1.016 -0.3956 -0.3827  0.7403
  188WAT     H2  776   0.721   4.772   1.126 -0.2075 -0.4634  0.9200
  189WAT      O  777   3.993   4.083   1.056  0.2574 -0.2155  0.4939
  189WAT     H1  778   3.984   3.989   1.065  0.6859 -0.2024  1.1301
  189WAT     H2  779   3.952   4.104   0.972  0.2665 -0.9776  0.3007
  190WAT      O  780   1.422   4.562   4.291 -0.3143  0.3067 -0.2154
  190WAT     H1  781   1.347   4.540   4.236 -0.8804 -0.9741  0.9904
  190WAT     H2  782   1.418   4.498   4.363  1.4349  0.7588  0.3354
  191WAT      O  783   1.444   3.782   3.734 -0.2150 -0.2107  0.6314
  191WAT     H1  784   1.517   3.729   3.767 -0.6951 -0.3561  1.4638
  191WAT     H2  785   1.368   3.751   3.782 -0.9897 -0.5898 -0.7651
  192WAT      O  786   3.893   4.746   4.716 -0.6491 -0.7247  0.3271
  192WAT     H1  787   3.939   4.669   4.747 -1.2926 -0.9743  0.6825
  192WAT     H2  788   3.909   4.748   4.621 -0.1102 -0.9350  0.4138
  193WAT      O  789   3.545   1.410   4.555 -0.0170 -0.3648  0.4588
  193WAT     H1  790   3.567   1.320   4.532  1.0275  0.3596 -1.5886
  193WAT     H2  791   3.605   1.463   4.504 -0.9748  1.5316  1.2067
  194WAT      O  792   2.867   2.490   3.099  0.1479  0.2213  0.2400
  194WAT     H1  793   2.884   2.575   3.060  1.0169  0.2890  0.7286
  194WAT     H2  794   2.877   2.428   3.027  2.3885  0.2761  0.4089
  195WAT      O  795   3.763   1.187   4.745 -0.5442 -0.0287  0.0279
  195WAT     H1  796   3.801   1.125   4.683  0.4940  0.7449 -0.1370
  195WAT     H2  797   3.762   1.270   4.697 -0.3516  0.4337  0.8107
  196WAT      O  798   4.030   1.706   4.393 -0.2786 -0.2304 -0.7962
  196WAT     H1  799   4.068   1.735   4.310 -1.9677 -0.6451 -1.7505
  196WAT     H2  800   3.973   1.778   4.420 -1.8670 -1.1967 -1.4435
  197WAT      O  801   1.549   1.098   3.395 -0.0392  0.3232  0.0605
  197WAT     H1  802   1.611   1.154   3.441  0.1973  0.8071 -0.8194
  197WAT     H2  803   1.552   1.015   3.442  0.3079  0.7485  0.8124
  198WAT      O  804   1.445   0.680   4.980  0.2000  0.2452 -0.1379
  198WAT     H1  805   1.378   0.613   4.967 -0.9277  1.3874 -0.3355
  198WAT     H2  806   1.423   0.749   4.918  1.7857  0.4920 -0.4632
  199WAT      O  807   1.688   2.017   0.426  0.2605  0.1595 -0.6615
  199WAT     H1  808   1.758   2.026   0.491 -0.1691 -0.0947 -0.1663
  199WAT     H2  809   1.620   1.968   0.470  0.7013 -1.6457 -1.8932
  200WAT      O  810   2.865   5.096   0.856  0.1280 -0.1275 -0.6388
  200WAT     H1  811   2.917   5.157   0.908 -1.2699  0.3726  0.2108
  200WAT     H2  812   2.790   5.147   0.826 -0.9047 -1.3086 -0.1827
  201WAT      O  813   3.252   0.641   0.398  0.0777  0.0864  0.2689
  201WAT     H1  814   3.195   0.565   0.398  0.3865 -0.1556 -0.7010
  201WAT     H2  815   3.269   0.659   0.490 -0.1353 -0.9123  0.5051
  202WAT      O  816   0.397   0.865   0.973 -0.0090  0.4216 -0.2350
  202WAT     H1  817   0.371   0.801   0.907  1.7886 -0.1334 -0.4754
  202WAT     H2  818   0.371   0.950   0.936 -0.1264  0.0271 -1.0882
  203WAT      O  819   3.627   4.318   5.127  0.2311  0.5166 -1.0008
  203WAT     H1  820   3.689   4.245   5.131 -0.2108  0.1573 -0.3770
  203WAT     H2  821   3.586   4.311   5.041  0.3655  0.1734 -1.0376
  204WAT      O  822   3.046   3.865   3.574 -0.4305  0.5485 -0.0836
  204WAT     H1  823   2.981   3.917   3.526  0.4819  2.5510  0.6986
  204WAT     H2  824   3.067   3.792   3.516 -2.2757  0.6659 -0.9632
  205WAT      O  825   4.448   1.950   2.569 -0.3896  0.0777 -0.3727
  205WAT     H1  826   4.408   2.033   2.542 -0.4963  0.0958 -0.1593
  205WAT     H2  827   4.375   1.896   2.599 -0.4794 -0.5494 -1.6603
  206WAT      O  828   2.261   0.704   4.039  0.1633  0.0864  0.1541
  206WAT     H1  829   2.207   0.716   4.117  1.3779  1.2899  0.8600
  206WAT     H2  830   2.275   0.793   4.006  1.0535 -0.2677 -0.4634
  207WAT      O  831   3.852   2.244   4.927 -0.2866 -0.2943 -0.1310
  207WAT     H1  832   3.828   2.313   4.989 -1.6340 -1.0849  0.2603
  207WAT     H2  833   3.934   2.209   4.961  0.5718  1.2536 -0.4788
  208WAT      O  834   4.273   3.962   2.440 -0.2181  0.3492 -0.7252
  208WAT     H1  835   4.196   3.944   2.385 -0.8166 -0.9118  0.4535
  208WAT     H2  836   4.289   4.055   2.430 -2.5798  0.8787 -0.1828
  209WAT      O  837   0.695   1.276   1.782  0.1163  0.1077 -0.1206
  209WAT     H1  838   0.614   1.224   1.778 -0.0997  0.5251 -2.3890
  209WAT     H2  839   0.670   1.355   1.830 -0.4891 -0.2729  0.2184
  210WAT      O  840   3.552   4.288   3.332  0.1839 -0.6243 -0.6889
  210WAT     H1  841   3.465   4.256   3.309  0.2872 -0.8483 -0.7647
  210WAT     H2  842   3.555   4.377   3.296 -0.6202  0.0118  0.7496
  211WAT      O  843   4.286   2.086   0.856 -0.3411 -0.1589  0.2626
  211WAT     H1  844   4.225   2.013   0.853  0.0437 -0.4999  0.6794
  211WAT     H2  845   4.234   2.159   0.889 -0.6689 -0.3023  0.0605
  212WAT      O  846   0.331   4.033   1.996  0.3631  0.5035 -0.0578
  212WAT     H1  847   0.260   3.994   1.945  0.5813 -0.8620  0.6194
  212WAT     H2  848   0.409   3.986   1.968  0.6255  0.3770  0.8562
  213WAT      O  849   0.794   0.570   1.859 -0.1643 -0.3193 -0.5110
  213WAT     H1  850   0.804   0.602   1.769  0.3797  1.1562  0.0575
  213WAT     H2  851   0.730   0.629   1.899  1.3538  0.5496  0.7527
  214WAT      O  852   0.134   2.631   3.183  0.5730  0.2338 -0.3981
  214WAT     H1  853   0.125   2.569   3.110  0.9363  0.2106 -0.4270
  214WAT     H2  854   0.180   2.581   3.251 -0.4503  0.0112  0.1560
  215WAT      O  855   3.806   1.061   3.197  0.5315 -0.4893  0.3458
  215WAT     H1  856   3.898   1.061   3.226 -0.3422  0.7869  3.5958
  215WAT     H2  857   3.764   0.996   3.252 -0.6485 -0.6550 -0.7246
  216WAT      O  858   2.082   2.462   0.149 -0.0781  0.0847 -0.8725
  216WAT     H1  859   2.162   2.454   0.201 -0.6032  0.9493  0.1138
  216WAT     H2  860   2.012   2.470   0.214 -1.1142 -1.7091 -1.7100
  217WAT      O  861   0.502   1.327   3.485 -0.0212 -0.0884  0.3098
  217WAT     H1  862   0.476   1.301   3.397 -0.6410  0.4287  0.3394
  217WAT     H2  863   0.450   1.271   3.543  1.1567 -1.1816  0.3579
  218WAT      O  864   3.973   0.472   3.977 -0.3560  0.0108  0.2082
  218WAT     H1  865   3.929   0.547   3.936  1.1366  0.4346 -0.7185
  218WAT     H2  866   4.042   0.511   4.031 -0.6921 -0.6512  1.1463
  219WAT      O  867   1.365   2.407   4.079 -0.0859  0.1376 -0.3351
  219WAT     H1  868   1.417   2.349   4.135 -1.1082 -0.3048  0.1739
  219WAT     H2  869   1.427   2.475   4.052  1.0220 -0.9322 -0.5821
  220WAT      O  870   3.353   0.815   4.802 -0.0278 -0.1669  0.1238
  220WAT     H1  871   3.443   0.802   4.769  0.2652  0.7594  0.5279
  220WAT     H2  872   3.364   0.862   4.884 -0.9057  0.3596 -0.0441
  221WAT      O  873   0.883   0.679   0.698 -0.3700 -0.0262 -0.1365
  221WAT     H1  874   0.890   0.608   0.634 -2.7152  0.4459 -1.0439
  221WAT     H2  875   0.898   0.758   0.647  2.5347  0.2276  0.9241
  222WAT      O  876   3.966   1.456   0.072  0.0707  0.0185 -0.0415
  222WAT     H1  877   3.959   1.534   0.017  2.4212  1.4740  1.5452
  222WAT     H2  878   3.989   1.385   0.011  3.0867  1.6542 -1.0030
  223WAT      O  879   0.207   3.632   1.245  0.3218  0.3536  0.1414
  223WAT     H1  880   0.198   3.715   1.293 -2.4496 -0.5216  1.3467
  223WAT     H2  881   0.240   3.570   1.311  0.0800 -0.0431 -0.1075
  224WAT      O  882   2.059   4.128   1.170  0.2512  0.3121  0.3664
  224WAT     H1  883   1.966   4.141   1.157 -0.4763 -2.2568  2.0390
  224WAT     H2  884   2.073   4.149   1.263  1.1891  0.1517  0.2711
  225WAT      O  885   0.881   1.825   0.479  0.0866  0.3315 -0.0897
  225WAT     H1  886   0.804   1.866   0.518  1.1808  0.6271  1.9256
  225WAT     H2  887   0.944   1.896   0.470  0.4063 -0.0512 -0.9576
  226WAT      O  888   1.831   0.645   3.585  0.1523 -0.0921 -0.1714
  226WAT     H1  889   1.912   0.605   3.554 -0.5194 -0.2045 -1.8980
  226WAT     H2  890   1.860   0.714   3.645  1.4783 -0.6886 -0.0963
  227WAT      O  891   4.451   1.669   2.759  0.0106  0.1957 -0.4166
  227WAT     H1  892   4.383   1.721   2.716  1.1829  2.3223  0.1424
  227WAT     H2  893   4.420   1.660   2.849 -1.1359 -1.8849 -0.9625
  228WAT      O  894   1.198   0.685   2.862 -0.0181  0.4805 -0.5721
  228WAT     H1  895   1.213   0.764   2.810 -2.3450  0.0645 -1.9966
  228WAT     H2  896   1.189   0.615   2.798  1.7826 -0.9747  0.6583
  229WAT      O  897   1.099   1.294   3.042  0.2005  0.3985  0.4919
  229WAT     H1  898   1.058   1.258   3.120  1.1500  1.8800  1.7476
  229WAT     H2  899   1.032   1.351   3.004  0.1412  0.6103  0.9112
  230WAT      O  900   2.656   0.658   2.632  0.0896 -0.3117 -0.2470
  230WAT     H1  901   2.613   0.573   2.623  0.2705 -0.3761 -0.5225
  230WAT     H2  902   2.725   0.643   2.697  0.6291 -0.5847 -0.8597
  231WAT      O  903   3.643   0.546   3.367 -0.3185 -0.0345 -0.1207
  231WAT     H1  904   3.679   0.588   3.288 -1.4581 -0.4745 -0.8916
  231WAT     H2  905   3.576   0.607   3.398  0.3478  0.2969  0.7294
  232WAT      O  906   3.449   1.027   3.230  0.0522  0.0394  0.2751
  232WAT     H1  907   3.435   0.949   3.177  0.2587  0.0415  0.2155
  232WAT     H2  908   3.502   0.997   3.304 -0.9888 -0.1518  0.9700
  233WAT      O  909   1.003   1.177   3.275  0.1986  0.2050  0.0618
  233WAT     H1  910   0.922   1.143   3.312 -0.4486  1.6833  0.0899
  233WAT     H2  911   1.068   1.165   3.344 -0.4437  0.7109  0.7716
  234WAT      O  912   1.010   3.826   3.445 -0.2824 -0.2204  0.5619
  234WAT     H1  913   0.985   3.807   3.535 -4.3170  2.4945  0.3265
  234WAT     H2  914   1.007   3.922   3.439  2.3059 -0.1641 -1.9416
  235WAT      O  915   0.400   1.566   3.206 -0.3732  1.1506 -0.7078
  235WAT     H1  916   0.422   1.480   3.169 -2.4695  1.4730 -2.9958
  235WAT     H2  917   0.484   1.611   3.214  0.7921 -1.0538  0.5932
  236WAT      O  918   3.089   1.916   2.381 -0.7782 -0.4595  0.4817
  236WAT     H1  919   2.994   1.919   2.390 -0.7413  0.5211  0.6386
  236WAT     H2  920   3.114   1.829   2.414 -1.6153 -0.7444  0.3830
  237WAT      O  921   3.315   3.556   0.408  0.1018  0.2668  0.4432
  237WAT     H1  922   3.409   3.551   0.390  0.1056 -0.9010  0.7000
  237WAT     H2  923   3.276   3.590   0.327  0.9069  2.4841  0.9209
  238WAT      O  924   0.435   0.590   4.800 -0.3158  0.2368 -0.2494
  238WAT     H1  925   0.360   0.534   4.781 -0.1056 -0.4164  0.8087
  238WAT     H2  926   0.453   0.635   4.717 -1.7353  0.2451 -0.5652
  239WAT      O  927   2.759   1.608   1.045  0.0735  0.8647  0.3993
  239WAT     H1  928   2.782   1.662   1.120  3.0662  0.2994  0.0174
  239WAT     H2  929   2.794   1.521   1.066 -1.1264  0.0846 -0.6573
  240WAT      O  930   0.396   3.735   1.098 -0.3826 -0.6693  0.3285
  240WAT     H1  931   0.450   3.769   1.170 -0.3779 -1.7781  0.8741
  240WAT     H2  932   0.334   3.675   1.141 -1.9405  0.4133 -0.2950
  241WAT      O  933   1.143   4.048   2.388 -0.3953  0.0262 -0.1048
  241WAT     H1  934   1.098   4.051   2.473  0.0874  0.6013  0.1338
  241WAT     H2  935   1.193   3.966   2.391 -1.8856 -0.9337 -0.6200
  242WAT      O  936   3.823   4.482   1.023  0.3232 -0.2525 -0.4825
  242WAT     H1  937   3.797   4.572   1.042  0.9208  0.0345 -0.9794
  242WAT     H2  938   3.741   4.434   1.013 -0.0660  0.8315 -3.0042
  243WAT      O  939   1.668   4.844   0.065 -0.2650 -0.2810 -0.9678
  243WAT     H1  940   1.680   4.939   0.063  0.3691 -0.3618 -2.0530
  243WAT     H2  941   1.587   4.830   0.114  1.1748  0.6325  1.8504
  244WAT      O  942   4.468   1.554   0.761  0.1739 -0.2318  0.7666
  244WAT     H1  943   4.441   1.562   0.670 -2.7974 -0.1029  1.5652
  244WAT     H2  944   4.544   1.612   0.769 -1.4656  2.3483 -0.9295
  245WAT      O  945   3.056   3.428   3.893  0.2825  0.6211  0.0272
  245WAT     H1  946   3.037   3.510   3.847 -1.3318  0.4900  0.4058
  245WAT     H2  947   3.073   3.365   3.824  0.2929  0.9919 -0.3091
  246WAT      O  948   2.698   0.374   4.553 -0.2577 -0.3862  0.2209
  246WAT     H1  949   2.660   0.449   4.600  0.0718  0.4931 -0.8715
  246WAT     H2  950   2.624   0.317   4.535 -0.8332  0.5611 -0.5145
  247WAT      O  951   3.742   2.692   3.526  0.3413 -0.4111 -0.6138
  247WAT     H1  952   3.733   2.753   3.599  1.5439 -1.4691  0.4378
  247WAT     H2  953   3.836   2.683   3.513  0.2086 -2.2822 -0.5291
  248WAT      O  954   3.886   2.121   1.549  0.0616  0.2846 -0.5593
  248WAT     H1  955   3.971   2.106   1.506  0.3010  0.6809 -0.2229
  248WAT     H2  956   3.907   2.163   1.632 -0.3850 -0.7050  0.0798
  249WAT      O  957   3.038   0.056   3.383 -0.0029 -0.0781 -0.3043
  249WAT     H1  958   3.092   0.083   3.457 -0.6890 -0.9834  0.5692
  249WAT     H2  959   3.100   0.034   3.314  0.6693  0.4898  0.1057
  250WAT      O  960   1.943   1.552   2.552 -0.1337  0.9247 -0.2178
  250WAT     H1  961   1.917   1.631   2.503 -1.9039 -0.4074 -1.5607
  250WAT     H2  962   1.936   1.481   2.489  2.8416 -0.2100  0.5490
  251WAT      O  963   4.415   1.286   4.571 -0.2223 -0.2313  0.5057
  251WAT     H1  964   4.386   1.350   4.506  0.4606 -0.2781  0.1481
  251WAT     H2  965   4.349   1.290   4.640 -0.9136 -0.1150 -0.1482
  252WAT      O  966   2.536   2.074   5.274  0.6668  0.6001 -0.4244
  252WAT     H1  967   2.617   2.125   5.281  1.0906 -0.2576  1.7326
  252WAT     H2  968   2.545   2.006   5.341 -0.6107 -1.2945 -2.0662
  253WAT      O  969   3.690   3.562   0.013 -0.1739 -0.1368  0.2077
  253WAT     H1  970   3.637   3.605   0.080  0.5192 -0.4331  0.9771
  253WAT     H2  971   3.667   3.605  -0.069  1.0910  2.3118  1.0461
  254WAT      O  972   3.882   1.050   2.871 -0.1263  0.0826  0.3863
  254WAT     H1  973   3.876   1.033   2.965 -2.0835 -0.5746  0.1815
  254WAT     H2  974   3.919   0.970   2.834  1.8070  0.7789  0.6724
  255WAT      O  975   2.657   1.759   5.268  0.1447  0.0247 -0.0286
  255WAT     H1  976   2.593   1.688   5.258 -0.6742  0.6265  0.7320
  255WAT     H2  977   2.686   1.752   5.359 -0.1174  0.7871  0.1231
  256WAT      O  978   0.765   1.123   2.583  0.5192 -0.0973  0.1339
  256WAT     H1  979   0.740   1.040   2.623 -1.6341 -0.3650 -1.6290
  256WAT     H2  980   0.742   1.189   2.649  0.3097 -0.7636  0.7341
  257WAT      O  981   2.235   2.866   5.210  0.1274 -0.5962 -0.0655
  257WAT     H1  982   2.269   2.810   5.280 -1.9329 -0.1249  1.4258
  257WAT     H2  983   2.144   2.883   5.236 -0.3138  0.6836 -2.2189
  258WAT      O  984   0.598   2.431   5.298 -0.2278 -0.1929 -0.1514
  258WAT     H1  985   0.521   2.389   5.337 -0.8940  0.1606 -1.0711
  258WAT     H2  986   0.591   2.413   5.205  1.6343 -1.4687 -0.1013
  259WAT      O  987   1.121   2.069   2.842 -0.1209  0.0982  0.1439
  259WAT     H1  988   1.124   2.090   2.749  1.4498  1.2751  0.4223
  259WAT     H2  989   1.144   1.976   2.846  1.9398  0.5211 -0.5414
  260WAT      O  990   2.902   4.007   0.523 -0.0840 -0.1731  0.5747
  260WAT     H1  991   2.903   4.009   0.619  1.5348 -0.4428  0.5990
  260WAT     H2  992   2.818   4.045   0.499 -0.0706  0.8990  2.0802
  261WAT      O  993   3.967   4.291   4.453  0.1932 -0.1576 -0.4520
  261WAT     H1  994   3.888   4.341   4.476 -0.8428 -1.0152 -1.9689
  261WAT     H2  995   4.036   4.357   4.447 -0.8135  0.8980 -0.9332
  262WAT      O  996   4.232   1.881   4.715  0.3877 -0.2771  0.3043
  262WAT     H1  997   4.247   1.805   4.772  0.9327 -0.4426 -0.0429
  262WAT     H2  998   4.314   1.889   4.665  0.5319  0.8614  0.7020
  263WAT      O  999   2.133   0.512   2.856  0.0371  0.5893 -0.2070
  263WAT     H1 1000   2.089   0.441   2.809  1.4656 -1.3085  1.1602
  263WAT     H2 1001   2.071   0.540   2.922 -0.5759  0.7323 -0.8271
  264WAT      O 1002   0.706   4.232   2.795  0.4254 -0.4136 -0.4649
  264WAT     H1 1003   0.698   4.277   2.879 -1.7000 -0.3345 -0.6515
  264WAT     H2 1004   0.705   4.139   2.817  1.3946 -0.3955 -0.3148
  265WAT      O 1005   1.552   4.619   1.706 -0.0147 -0.2196  0.1987
  265WAT     H1 1006   1.555   4.524   1.691  1.9681 -0.2912  0.6665
  265WAT     H2 1007   1.469   4.633   1.750 -0.7439 -1.6161 -0.6580
  266WAT      O 1008   0.281   0.733   0.117  0.3567  0.1897  0.5004
  266WAT     H1 1009   0.290   0.699   0.028  0.7713 -1.0378  0.9999
  266WAT     H2 1010   0.212   0.799   0.109  1.1757  0.9380 -0.9470
  267WAT      O 1011   4.286   4.840   1.181  0.0183 -0.1442 -0.4264
  267WAT     H1 1012   4.355   4.808   1.240  1.1807 -1.5390 -2.4417
  267WAT     H2 1013   4.331   4.858   1.099 -2.0057 -1.1594 -1.8546
  268WAT      O 1014   2.830   0.624   4.421 -0.2874  0.4883 -0.2620
  268WAT     H1 1015   2.794   0.551   4.471  0.5829 -1.0177 -1.7177
  268WAT     H2 1016   2.753   0.669   4.386 -0.8357  0.0203  0.3114
  269WAT      O 1017   3.857   3.678   4.747 -0.1150  0.1833 -0.0138
  269WAT     H1 1018   3.826   3.767   4.765  1.7719  0.5075  1.9812
  269WAT     H2 1019   3.895   3.648   4.829  1.4482 -1.5697 -1.2723
  270WAT      O 1020   0.939   0.070   2.994  0.1010  0.4906  0.1789
  270WAT     H1 1021   0.930   0.065   3.090  0.9783  0.8650  0.2906
  270WAT     H2 1022   0.988  -0.009   2.971 -0.8076 -0.0151 -0.0688
  271WAT      O 1023   2.966   3.403   4.971 -0.2675 -0.3194 -0.4971
  271WAT     H1 1024   3.029   3.406   4.899  0.1915  1.5767 -0.0507
  271WAT     H2 1025   2.994   3.328   5.024  0.0270 -1.0750 -1.6750
  272WAT      O 1026   0.204   0.621   3.379 -0.1057 -0.0514  0.1945
  272WAT     H1 1027   0.177   0.688   3.316 -0.7071 -0.0094  0.4841
  272WAT     H2 1028   0.127   0.564   3.386 -0.0302 -0.0755  0.8576
  273WAT      O 1029   0.639   1.905   1.909  0.3033 -0.3384  0.1656
  273WAT     H1 1030   0.732   1.886   1.899  0.5906  1.1810 -0.2151
  273WAT     H2 1031   0.627   1.920   2.003  0.9647  1.8772 -0.0588
  274WAT      O 1032   3.430   2.385   4.261  0.1587  0.1203 -0.6923
  274WAT     H1 1033   3.462   2.327   4.191 -1.0601 -1.7460  0.2054
  274WAT     H2 1034   3.335   2.382   4.252  0.0526  1.2672 -0.0186
  275WAT      O 1035   1.369   5.034   3.037  0.1042 -0.1342 -0.7425
  275WAT     H1 1036   1.341   5.016   2.947 -1.6003  1.7839 -0.6811
  275WAT     H2 1037   1.456   5.072   3.028 -1.0460  2.4786 -1.9125
  276WAT      O 1038   4.104   1.833   2.354  0.4185 -0.1296 -0.0112
  276WAT     H1 1039   4.199   1.826   2.341  0.6054 -1.9266  1.8792
  276WAT     H2 1040   4.092   1.827   2.448 -1.6620 -1.1167 -0.2907
  277WAT      O 1041   2.235   4.435   5.195 -0.1939  0.8256  0.2696
  277WAT     H1 1042   2.235   4.477   5.109 -0.1225  0.9541  0.3319
  277WAT     H2 1043   2.142   4.424   5.216 -0.2446 -1.1764 -0.7659
  278WAT      O 1044   3.480   3.964   5.188 -0.1491  0.0861 -0.5902
  278WAT     H1 1045   3.412   4.030   5.185  0.4615  0.7892  0.4243
  278WAT     H2 1046   3.519   3.965   5.100 -0.1749  1.0495 -0.5990
  279WAT      O 1047   0.742   1.416   0.723  0.1923 -0.1560 -0.0404
  279WAT     H1 1048   0.711   1.327   0.742 -0.2700 -0.4119 -1.7989
  279WAT     H2 1049   0.667   1.472   0.744  0.1720 -0.2741  0.2122
  280WAT      O 1050   4.164   3.890   5.009 -0.1811 -0.7570 -0.1554
  280WAT     H1 1051   4.222   3.955   5.049 -0.1638 -0.7541 -0.1851
  280WAT     H2 1052   4.094   3.941   4.968  0.3933 -0.7029 -1.0845
  281WAT      O 1053   2.259   4.302   4.290 -0.4553  0.1417  0.1968
  281WAT     H1 1054   2.172   4.324   4.259 -0.3525 -0.6483 -0.6810
  281WAT     H2 1055   2.318   4.359   4.240 -0.3789 -0.2981 -0.2290
  282WAT      O 1056   3.743   2.466   1.739  0.3717 -0.4125 -0.1990
  282WAT     H1 1057   3.776   2.465   1.649 -0.5441  0.1172 -0.5543
  282WAT     H2 1058   3.820   2.449   1.793  1.0448 -0.1481 -1.0538
  283WAT      O 1059   2.764   4.022   2.177  0.7704 -0.3109  0.6394
  283WAT     H1 1060   2.773   3.947   2.236 -1.0928 -1.2723 -0.2179
  283WAT     H2 1061   2.828   4.086   2.210  2.9297 -2.5034  0.9701
  284WAT      O 1062   2.564   1.111   0.110  0.3999  0.1113 -0.0826
  284WAT     H1 1063   2.492   1.065   0.153  1.1195 -0.3234  0.6882
  284WAT     H2 1064   2.601   1.047   0.050 -0.2667  0.5500 -0.9901
  285WAT      O 1065   2.472   4.488   0.316  0.1443 -0.5907  0.2839
  285WAT     H1 1066   2.544   4.542   0.348  1.6923 -1.7942 -1.0175
  285WAT     H2 1067   2.435   4.538   0.244  1.0827 -0.8850 -0.4242
  286WAT      O 1068   3.143   5.187   1.623  0.3691  0.3521  0.6970
  286WAT     H1 1069   3.083   5.142   1.563  1.9585  0.5786 -1.1600
  286WAT     H2 1070   3.145   5.131   1.701 -0.3167 -0.9890 -0.2038
  287WAT      O 1071   1.301   5.156   3.969 -0.2113 -0.3940 -0.2375
  287WAT     H1 1072   1.397   5.161   3.964 -0.1716  3.5837  0.9197
  287WAT     H2 1073   1.275   5.114   3.887  2.4632 -0.1075 -1.3590
  288WAT      O 1074   2.817   2.047   1.484 -0.3901 -0.0795 -0.1055
  288WAT     H1 1075   2.792   1.995   1.560 -1.4800  1.7309  0.8485
  288WAT     H2 1076   2.735   2.064   1.438  0.0859 -0.0506 -0.9638
  289WAT      O 1077   4.329   0.895   1.458  0.0672 -0.2565  0.2946
  289WAT     H1 1078   4.326   0.990   1.471 -0.8964 -0.5450  2.5963
  289WAT     H2 1079   4.411   0.880   1.410 -0.0029  1.7489 -0.5376
  290WAT      O 1080   4.452   3.594   5.148 -0.1072 -0.3523 -0.0697
  290WAT     H1 1081   4.383   3.538   5.183  0.9491 -0.9333  1.1729
  290WAT     H2 1082   4.478   3.649   5.222  0.1664  0.4671 -0.7626
  291WAT      O 1083   0.335   2.596   0.974 -0.0235  0.0870 -0.3172
  291WAT     H1 1084   0.412   2.581   0.920  0.3434  1.1952 -0.1344
  291WAT     H2 1085   0.261   2.575   0.917  0.3506  1.3460 -1.3165
  292WAT      O 1086   3.153   1.195   3.648  0.2465 -1.0211 -0.0643
  292WAT     H1 1087   3.167   1.272   3.592 -1.1893 -0.8206 -0.1960
  292WAT     H2 1088   3.140   1.123   3.586  2.2179 -1.5278  0.0608
  293WAT      O 1089   1.584   5.147   3.987 -0.2267 -0.0534  0.5081
  293WAT     H1 1090   1.666   5.191   4.008 -0.3579 -0.4031  1.8628
  293WAT     H2 1091   1.595   5.116   3.897  0.6370  0.9659  0.2424
  294WAT      O 1092   0.556   0.210   0.197  0.3494  0.8831 -0.0674
  294WAT     H1 1093   0.527   0.288   0.149  1.1818  0.6738 -0.9489
  294WAT     H2 1094   0.485   0.193   0.259 -1.4364  0.3860 -2.1074
  295WAT      O 1095   3.087   0.221   3.068  1.1693  0.0872  0.1423
  295WAT     H1 1096   3.153   0.225   2.999  0.0604  0.4666 -0.9244
  295WAT     H2 1097   3.084   0.129   3.094  0.6725 -0.3162 -1.2588
  296WAT      O 1098   1.252   2.664   1.558 -0.6820 -0.1764 -0.7319
  296WAT     H1 1099   1.158   2.651   1.564 -0.7040  0.5867  1.3750
  296WAT     H2 1100   1.274   2.641   1.468 -2.8817 -0.2559 -1.2941
  297WAT      O 1101   3.565   3.188   2.944 -0.3539 -0.2379 -0.7258
  297WAT     H1 1102   3.584   3.280   2.960 -1.4176 -0.2086  0.4813
  297WAT     H2 1103   3.562   3.180   2.849 -2.3719  1.4493 -0.8681
  298WAT      O 1104   0.275   3.329   5.200 -0.3964  0.3940 -0.4548
  298WAT     H1 1105   0.213   3.275   5.249 -0.6650  0.9356 -0.1874
  298WAT     H2 1106   0.234   3.342   5.114  0.1866 -0.7587 -0.9202
  299WAT      O 1107   4.276   0.887   4.181 -0.4334 -0.2484 -0.3672
  299WAT     H1 1108   4.240   0.890   4.093  0.5595 -1.9836 -0.8661
  299WAT     H2 1109   4.370   0.901   4.170 -0.3977  0.3435  0.5164
  300WAT      O 1110   0.297   1.639   2.190  0.3930  0.5497 -0.7343
  300WAT     H1 1111   0.259   1.659   2.105 -2.0779 -0.3143  0.0843
  300WAT     H2 1112   0.271   1.712   2.246  1.6520  0.9082 -0.5917
  301WAT      O 1113   3.540   2.948   1.108  0.0427  0.0676  0.6580
  301WAT     H1 1114   3.457   2.991   1.091  0.6540  1.1385  0.2839
  301WAT     H2 1115   3.516   2.857   1.128 -1.1805  0.2736  0.2327
  302WAT      O 1116   1.325   3.965   0.537  0.3395 -0.1579 -0.0595
  302WAT     H1 1117   1.360   3.928   0.618 -0.9970  1.1780  1.1911
  302WAT     H2 1118   1.400   4.006   0.495  0.5293  2.1671  2.2732
  303WAT      O 1119   2.006   0.424   4.392  0.0959  0.2683  0.4403
  303WAT     H1 1120   2.025   0.516   4.409  1.5949  0.0740 -0.0894
  303WAT     H2 1121   2.086   0.378   4.414 -1.0775 -1.1233  2.0786
  304WAT      O 1122   4.151   3.913   2.663  0.0540  0.3893 -0.0503
  304WAT     H1 1123   4.181   3.953   2.581  2.5003 -1.6846 -0.3036
  304WAT     H2 1124   4.208   3.951   2.730  0.4528 -0.4651  0.1182
  305WAT      O 1125   1.074   1.621   0.126  0.1878  0.1919  0.3855
  305WAT     H1 1126   1.164   1.655   0.128 -0.0087  0.7935 -0.4789
  305WAT     H2 1127   1.077   1.550   0.061  0.3351 -0.7163  1.3534
  306WAT      O 1128   3.090   3.703   0.865  0.5845  0.0945  0.0892
  306WAT     H1 1129   3.049   3.711   0.779 -0.7898  0.6523  0.7599
  306WAT     H2 1130   3.115   3.793   0.888  1.4507 -0.1276  0.0517
  307WAT      O 1131   2.543   0.162   4.425  0.1366 -0.5728 -0.1299
  307WAT     H1 1132   2.592   0.084   4.450 -0.4580 -0.5460  1.1929
  307WAT     H2 1133   2.452   0.134   4.425  0.0160 -0.2270 -1.0443
  308WAT      O 1134   1.446   2.411   2.127  0.4062 -0.2819 -0.8151
  308WAT     H1 1135   1.433   2.374   2.040  0.9055 -0.4049 -0.8375
  308WAT     H2 1136   1.358   2.418   2.163  0.0300  1.2423 -1.9280
  309WAT      O 1137   0.622   3.873   3.101  0.5020  0.6546 -0.1970
  309WAT     H1 1138   0.567   3.912   3.169  1.0600  0.2566  0.5000
  309WAT     H2 1139   0.691   3.828   3.150 -0.2473 -1.4061 -0.9342
  310WAT      O 1140   2.978   1.462   5.028  0.0475  0.4692  0.1069
  310WAT     H1 1141   2.906   1.523   5.011 -0.8300 -0.3505  0.7807
  310WAT     H2 1142   3.028   1.503   5.099 -0.8555  0.1766  0.9380
  311WAT      O 1143   1.033   2.978   1.572 -0.7252  0.1536  0.2263
  311WAT     H1 1144   1.029   2.887   1.598  1.4484  0.2273  1.0530
  311WAT     H2 1145   1.004   3.027   1.649 -1.6942  0.1923 -0.1483
  312WAT      O 1146   3.817   4.094   2.675 -0.0935 -0.0229 -0.2651
  312WAT     H1 1147   3.847   4.149   2.602 -1.0030 -1.1364 -1.5178
  312WAT     H2 1148   3.879   4.113   2.746 -0.9536  3.3988 -0.2468
  313WAT      O 1149   1.764   0.490   1.826 -1.0133  0.0535  0.0171
  313WAT     H1 1150   1.724   0.541   1.896  1.5220 -1.0668  2.4965
  313WAT     H2 1151   1.720   0.406   1.829 -1.8739  0.4696 -0.7320
  314WAT      O 1152   4.242   4.336   0.662  0.5113 -0.2208 -0.3082
  314WAT     H1 1153   4.239   4.248   0.626 -0.2937 -0.5908  0.6387
  314WAT     H2 1154   4.290   4.327   0.744 -0.8444 -0.0634  0.5262
  315WAT      O 1155   1.432   0.389   3.058  0.3391 -0.0844 -0.5241
  315WAT     H1 1156   1.433   0.423   2.968 -1.1601  0.0812 -0.4987
  315WAT     H2 1157   1.374   0.313   3.054 -1.4769  1.1688  0.7107
  316WAT      O 1158   4.111   2.361   2.745 -0.3165  0.0773  0.3822
  316WAT     H1 1159   4.077   2.387   2.830  0.7183  1.2814  0.4537
  316WAT     H2 1160   4.081   2.430   2.685 -0.3218 -0.3143 -0.0712
  317WAT      O 1161   0.292   1.914   2.941  0.3235  0.7222  0.2602
  317WAT     H1 1162   0.278   1.850   3.011 -1.3257 -2.2374 -2.5404
  317WAT     H2 1163   0.208   1.920   2.897  1.4484  2.0179 -1.8637
  318WAT      O 1164   2.912   3.702   0.646  0.9813 -0.1689  0.0594
  318WAT     H1 1165   2.882   3.767   0.582 -2.6089  0.0029  1.6678
  318WAT     H2 1166   2.919   3.621   0.596 -0.8748  0.1504 -0.7999
  319WAT      O 1167   0.257   4.125   3.172 -0.2158  0.0218  1.0835
  319WAT     H1 1168   0.276   4.115   3.079 -2.8768  0.0246  0.4609
  319WAT     H2 1169   0.306   4.204   3.198  0.7107 -0.0887 -0.2435
  320WAT      O 1170   0.670   2.117   0.402  0.2574 -0.3029 -0.3085
  320WAT     H1 1171   0.631   2.150   0.321  0.3997 -0.3081 -0.3795
  320WAT     H2 1172   0.614   2.044   0.428 -1.3372  1.2650  0.9830
  321WAT      O 1173   3.486   2.959   0.321  0.8881  0.6569  0.0519
  321WAT     H1 1174   3.391   2.966   0.311  0.9727  0.7407 -0.7643
  321WAT     H2 1175   3.506   3.010   0.400  0.0206 -1.0753  1.4688
  322WAT      O 1176   1.282   0.726   3.974 -0.2568 -0.0046 -0.2441
  322WAT     H1 1177   1.363   0.693   3.935  0.5634  2.1163 -0.5084
  322WAT     H2 1178   1.252   0.793   3.913 -0.3179  1.6371  1.4831
  323WAT      O 1179   1.083   2.756   4.600  0.9815 -0.3262  0.9479
  323WAT     H1 1180   1.017   2.804   4.650 -0.3816 -1.0367 -0.1255
  323WAT     H2 1181   1.166   2.790   4.633  0.1505  3.6466 -0.4820
  324WAT      O 1182   1.790   0.767   1.697 -0.3011  0.4215  0.1116
  324WAT     H1 1183   1.831   0.824   1.762 -2.1122  2.4974 -0.4765
  324WAT     H2 1184   1.807   0.678   1.729 -0.1136  1.3390  2.7708
  325WAT      O 1185   2.383   1.516   3.770 -0.0405 -0.1772  0.4823
  325WAT     H1 1186   2.429   1.554   3.845 -0.2867 -0.3005  0.6993
  325WAT     H2 1187   2.334   1.590   3.733  1.2477  0.2228 -0.4662
  326WAT      O 1188   2.230   1.673   2.923 -0.4330  0.0182  0.6340
  326WAT     H1 1189   2.239   1.669   2.828  1.6621 -2.0116  0.8055
  326WAT     H2 1190   2.194   1.588   2.947 -0.6253  0.3849  1.6766
  327WAT      O 1191   1.699   1.171   0.347 -0.0384  0.0330 -0.1557
  327WAT     H1 1192   1.644   1.246   0.371  1.3071  0.7351  0.8518
  327WAT     H2 1193   1.777   1.180   0.402  1.7604 -0.1284 -2.5572
  328WAT      O 1194   2.281   3.472   4.844  0.1728 -0.5944 -0.1457
  328WAT     H1 1195   2.308   3.431   4.926  1.2568 -3.2557 -1.7114
  328WAT     H2 1196   2.346   3.542   4.830  1.2632 -1.5058  0.2483
  329WAT      O 1197   4.026   3.826   3.891 -0.2125  0.0350  0.3726
  329WAT     H1 1198   3.953   3.883   3.914 -0.7022  0.3936 -1.8862
  329WAT     H2 1199   4.099   3.858   3.945 -0.9247  1.6924  0.4148
  330WAT      O 1200   4.344   2.399   3.485  0.6709  0.1509 -0.5453
  330WAT     H1 1201   4.320   2.323   3.432 -0.4229  1.3771 -1.8892
  330WAT     H2 1202   4.289   2.391   3.563  2.5560 -1.8661  0.6739
  331WAT      O 1203   1.626   3.548   0.417 -0.2858 -0.4356 -0.1643
  331WAT     H1 1204   1.691   3.478   0.406 -0.2737 -0.2254 -1.6695
  331WAT     H2 1205   1.621   3.590   0.331 -0.7685  1.0123  0.5262
  332WAT      O 1206   0.536   4.342   1.378  0.3596  0.2754 -0.4773
  332WAT     H1 1207   0.587   4.356   1.299 -1.0328 -0.1534 -1.4918
  332WAT     H2 1208   0.551   4.420   1.431  1.7321  0.3291 -0.9090
  333WAT      O 1209   1.409   2.106   0.387  0.5666 -0.5552  0.3062
  333WAT     H1 1210   1.448   2.136   0.305  1.5492 -0.6387  0.7305
  333WAT     H2 1211   1.347   2.038   0.360 -0.8076  0.9725 -0.5571
  334WAT      O 1212   0.802   1.562   3.682 -0.8190 -0.3125 -0.1420
  334WAT     H1 1213   0.762   1.483   3.719  1.4296 -0.7401  1.5616
  334WAT     H2 1214   0.859   1.594   3.751  3.1156 -0.7075 -2.8919
  335WAT      O 1215   1.415   1.881   1.954  0.2312 -0.1017 -0.4652
  335WAT     H1 1216   1.334   1.865   2.002  1.3391 -0.7444  1.2912
  335WAT     H2 1217   1.475   1.813   1.984  1.2458 -0.0492 -2.2225
  336WAT      O 1218   2.054   3.934   2.677 -0.1503 -0.4482 -0.0085
  336WAT     H1 1219   2.134   3.984   2.663 -1.6852  1.7353 -1.9404
  336WAT     H2 1220   2.019   3.919   2.589 -1.8725 -1.2563  0.7567
  337WAT      O 1221   3.140   2.574   4.009 -0.3875  0.0142 -0.8966
  337WAT     H1 1222   3.076   2.629   4.055  0.0206 -0.8709  0.8357
  337WAT     H2 1223   3.158   2.503   4.071  1.5083 -0.2925 -1.7527
  338WAT      O 1224   1.745   3.942   0.171 -0.7112  0.2622 -0.0708
  338WAT     H1 1225   1.659   3.915   0.203 -1.8841  2.6969 -0.8894
  338WAT     H2 1226   1.768   4.018   0.225  1.1282 -0.5445  0.3621
  339WAT      O 1227   2.041   0.335   5.183  0.0109  0.3847  0.0296
  339WAT     H1 1228   2.015   0.297   5.099 -0.8553 -1.9854  1.2885
  339WAT     H2 1229   1.962   0.331   5.237  0.5180  1.9648  0.9551
  340WAT      O 1230   2.642   5.004   3.130 -0.4877 -0.6058  0.2224
  340WAT     H1 1231   2.651   5.099   3.138 -0.1549 -0.7503  1.8859
  340WAT     H2 1232   2.548   4.989   3.126 -0.6554 -0.3248  2.2459
  341WAT      O 1233   3.418   4.788   1.108 -0.9664 -0.1411 -0.5988
  341WAT     H1 1234   3.332   4.832   1.112 -0.0795  1.6941 -0.5964
  341WAT     H2 1235   3.476   4.846   1.158  0.7945 -0.0760 -2.6038
  342WAT      O 1236   3.650   1.162   2.170  0.9078 -0.0940  0.0731
  342WAT     H1 1237   3.577   1.121   2.124 -0.0616  0.2540  1.2577
  342WAT     H2 1238   3.638   1.256   2.156  0.5078  0.0275  1.1353
  343WAT      O 1239   0.539   1.730   2.452 -0.0920  0.5194 -0.2269
  343WAT     H1 1240   0.632   1.717   2.434 -0.4182  0.4020 -2.0653
  343WAT     H2 1241   0.534   1.744   2.546  1.9591  1.9658 -0.2686
  344WAT      O 1242   3.010   4.050   5.005 -0.0213 -0.3662  1.0033
  344WAT     H1 1243   3.053   4.135   4.997  2.2846 -1.5809 -0.3470
  344WAT     H2 1244   2.950   4.046   4.931  1.4695 -0.7244 -0.2388
  345WAT      O 1245   3.961   0.517   3.104 -0.8207 -0.4272  0.0859
  345WAT     H1 1246   3.959   0.474   3.190 -1.0146 -0.5554  0.0178
  345WAT     H2 1247   3.880   0.566   3.100 -0.0457  0.9506  0.6689
  346WAT      O 1248   3.840   2.673   0.120 -0.3204 -0.3599 -0.1690
  346WAT     H1 1249   3.843   2.736   0.192 -0.3268 -0.0519 -0.4341
  346WAT     H2 1250   3.785   2.602   0.153  0.1477 -0.4949  0.3414
  347WAT      O 1251   3.836   3.697   0.598  0.1439 -0.6745  0.2280
  347WAT     H1 1252   3.844   3.707   0.503 -0.4237 -1.0184  0.1418
  347WAT     H2 1253   3.899   3.760   0.634  0.0806 -0.2582 -0.3728
  348WAT      O 1254   0.817   4.920   0.426 -0.1301 -0.6707  0.7475
  348WAT     H1 1255   0.725   4.907   0.447 -0.9988  1.0872 -1.5422
  348WAT     H2 1256   0.861   4.920   0.511 -1.9921 -2.8588  1.8319
  349WAT      O 1257   0.151   3.317   0.798  0.0979  0.1207 -0.0173
  349WAT     H1 1258   0.109   3.234   0.819 -0.2625 -0.0241 -1.2214
  349WAT     H2 1259   0.201   3.299   0.718  1.3380  0.6466  0.6236
  350WAT      O 1260   2.827   4.170   0.094  0.0381 -0.2518 -0.0817
  350WAT     H1 1261   2.748   4.170   0.148 -0.2276 -0.0610 -0.4736
  350WAT     H2 1262   2.800   4.206   0.010  0.2514 -1.4191 -0.6662
  351WAT      O 1263   3.138   2.513   3.720  0.0745  0.0241  0.0673
  351WAT     H1 1264   3.131   2.424   3.687  1.2076 -0.2696  0.5689
  351WAT     H2 1265   3.098   2.509   3.807  2.3314 -0.6384  1.1537
  352WAT      O 1266   0.549   1.717   4.673  0.1905 -0.2362 -0.2000
  352WAT     H1 1267   0.543   1.781   4.744  0.7162  1.1447 -1.3486
  352WAT     H2 1268   0.491   1.646   4.700  1.1948 -0.2939  2.1200
  353WAT      O 1269   2.444   4.444   2.218  0.1832 -0.3848  0.1331
  353WAT     H1 1270   2.539   4.442   2.206  0.1555  0.3777 -0.2614
  353WAT     H2 1271   2.432   4.469   2.310  0.3794  1.6384 -0.3365
  354WAT      O 1272   0.611   2.057   0.913  0.5928  0.0266 -0.2454
  354WAT     H1 1273   0.616   2.129   0.975 -1.2660  0.4514 -0.5054
  354WAT     H2 1274   0.584   2.098   0.831  1.8233 -0.6826 -1.0446
  355WAT      O 1275   3.827   2.811   4.436 -0.0861 -0.0799  0.2216
  355WAT     H1 1276   3.796   2.766   4.357  2.0691  2.6316 -2.3878
  355WAT     H2 1277   3.755   2.871   4.458 -0.4901 -0.4837  0.0385
  356WAT      O 1278   0.207   1.436   0.351  0.0041  0.2627 -0.7620
  356WAT     H1 1279   0.186   1.428   0.444  1.2089 -1.6244 -0.6027
  356WAT     H2 1280   0.146   1.378   0.307 -1.9211  2.6387 -1.4519
  357WAT      O 1281   0.548   0.785   1.413 -0.3393 -0.0416  0.1329
  357WAT     H1 1282   0.514   0.738   1.337  2.2572  2.1377 -2.6072
  357WAT     H2 1283   0.627   0.738   1.438 -0.7698 -0.3002  1.0703
  358WAT      O 1284   0.692   0.091   2.921 -0.4071  0.3117  0.3898
  358WAT     H1 1285   0.784   0.086   2.947 -1.0340 -0.1914  2.7438
  358WAT     H2 1286   0.677   0.011   2.871 -0.0117 -0.5397  1.6021
  359WAT      O 1287   0.137   2.251   1.374 -0.1391 -0.3027  0.0348
  359WAT     H1 1288   0.180   2.202   1.444 -2.1837 -3.3289 -0.6805
  359WAT     H2 1289   0.208   2.271   1.313  1.0021 -1.1297  1.0328
  360WAT      O 1290   4.341   2.175   2.430  0.2046  0.0808  0.0369
  360WAT     H1 1291   4.261   2.227   2.434 -0.1336 -0.5192  1.6980
  360WAT     H2 1292   4.409   2.238   2.404 -0.4881  0.9880  0.3697
  361WAT      O 1293   1.071   4.466   3.562  0.7521 -0.5447  0.1462
  361WAT     H1 1294   1.039   4.427   3.481 -1.8181  2.6755 -0.6072
  361WAT     H2 1295   1.112   4.549   3.534  0.1160  0.4732  2.0595
  362WAT      O 1296   3.770   2.233   4.674  0.0285 -0.4564 -0.3559
  362WAT     H1 1297   3.837   2.286   4.630 -0.8307 -0.4777 -1.7387
  362WAT     H2 1298   3.793   2.238   4.767  2.0349 -0.5858 -0.7913
  363WAT      O 1299   1.950   4.906   2.005  0.0662 -0.0757  0.6315
  363WAT     H1 1300   1.937   4.840   2.073  0.8792  0.8614  1.7233
  363WAT     H2 1301   1.890   4.977   2.029 -1.6473 -0.8078 -1.1550
  364WAT      O 1302   4.375   0.214   2.607 -0.5799  0.2182 -0.1640
  364WAT     H1 1303   4.410   0.164   2.681  1.7502  1.5419 -0.2818
  364WAT     H2 1304   4.426   0.183   2.532 -1.3558  0.4962 -0.8134
  365WAT      O 1305   2.405   3.533   4.532  0.6255  0.3971 -0.3324
  365WAT     H1 1306   2.500   3.529   4.541  0.6611 -1.7496 -1.0485
  365WAT     H2 1307   2.373   3.459   4.585 -0.6973  1.3909  0.3075
  366WAT      O 1308   0.248   0.682   0.765  0.2826 -0.0563  0.1084
  366WAT     H1 1309   0.177   0.690   0.701 -0.5610 -0.7862  0.9187
  366WAT     H2 1310   0.210   0.630   0.836  1.6042 -0.3839  0.6042
  367WAT      O 1311   1.248   4.648   1.895 -0.1106  0.0100 -0.3881
  367WAT     H1 1312   1.216   4.704   1.824 -1.0776 -0.0204  0.0058
  367WAT     H2 1313   1.215   4.689   1.974 -0.2090 -0.7132 -0.0448
  368WAT      O 1314   4.484   0.563   3.816  0.2196  0.4928  0.0490
  368WAT     H1 1315   4.550   0.509   3.772 -0.1329 -0.0095  0.1282
  368WAT     H2 1316   4.415   0.501   3.840 -1.1415  1.2554 -1.6469
  369WAT      O 1317   1.836   4.027   5.017  0.4259 -0.0588 -0.2995
  369WAT     H1 1318   1.901   3.975   4.971  1.3764 -0.1155  1.0390
  369WAT     H2 1319   1.887   4.096   5.060 -0.3766 -0.0946  0.7627
  370WAT      O 1320   3.590   4.615   4.724 -0.1958 -0.1768 -0.2160
  370WAT     H1 1321   3.666   4.581   4.771 -1.4333 -0.2781  1.8102
  370WAT     H2 1322   3.521   4.619   4.789 -2.0306 -0.2977 -2.0469
  371WAT      O 1323   3.580   3.345   4.877  0.9277 -0.1570  0.1270
  371WAT     H1 1324   3.537   3.260   4.863 -0.0862  0.6054 -1.8537
  371WAT     H2 1325   3.611   3.370   4.791  1.0532  1.5664  0.6373
  372WAT      O 1326   3.055   4.090   0.312 -0.5872  0.3034 -0.0952
  372WAT     H1 1327   3.017   4.115   0.228  3.8435  1.0952 -2.1734
  372WAT     H2 1328   3.015   4.149   0.375 -1.5005  2.2183 -2.3001
  373WAT      O 1329   1.141   0.222   0.935 -0.7112 -0.7908  0.3527
  373WAT     H1 1330   1.168   0.164   0.864 -2.4848  0.7333 -1.6937
  373WAT     H2 1331   1.112   0.163   1.005  0.5332 -2.3320 -0.3804
  374WAT      O 1332   3.344   0.333   5.067  0.1329  0.3026  0.3751
  374WAT     H1 1333   3.403   0.380   5.007  0.8434 -1.7770 -0.6627
  374WAT     H2 1334   3.389   0.251   5.085 -1.7147 -0.6487  0.9171
  375WAT      O 1335   4.434   1.260   4.877  0.0642 -0.2931  0.5205
  375WAT     H1 1336   4.350   1.305   4.864 -0.8770 -1.3500  2.5518
  375WAT     H2 1337   4.417   1.169   4.854  0.7769 -0.4474  0.5733
  376WAT      O 1338   0.168   1.057   3.669  0.3064  0.4485 -0.0719
  376WAT     H1 1339   0.166   0.971   3.626  0.8514  1.6281 -2.7135
  376WAT     H2 1340   0.085   1.099   3.642  0.1913  0.8772  0.9154
  377WAT      O 1341   2.335   4.685   2.128  0.1803  0.5234 -0.3789
  377WAT     H1 1342   2.419   4.731   2.128  1.0363 -0.7013  3.3278
  377WAT     H2 1343   2.348   4.610   2.186 -3.7136  0.7827  1.1655
  378WAT      O 1344   4.480   4.946   3.030 -0.0332 -0.0289  0.3213
  378WAT     H1 1345   4.439   4.866   3.064 -0.7294  0.9393  1.9138
  378WAT     H2 1346   4.568   4.945   3.067  1.8143 -2.4087 -3.5811
  379WAT      O 1347   3.630   3.324   1.136  0.5003  0.2548  0.3251
  379WAT     H1 1348   3.691   3.284   1.074 -0.7831  0.2566 -1.0077
  379WAT     H2 1349   3.677   3.399   1.172  2.5020 -1.6260  1.9069
  380WAT      O 1350   0.441   0.963   4.702 -0.3269  0.2553 -0.0227
  380WAT     H1 1351   0.446   1.055   4.730  0.5091  0.7363 -1.5944
  380WAT     H2 1352   0.349   0.949   4.681 -0.6161  0.4526  1.0831
  381WAT      O 1353   0.009   2.469   1.435  0.2355  0.6685 -0.1002
  381WAT     H1 1354   0.056   2.525   1.373 -0.3636  2.4827  1.0127
  381WAT     H2 1355   0.042   2.381   1.417  0.5592  1.1947 -2.5478
  382WAT      O 1356   2.602   1.298   1.614  0.2889  0.4670 -0.0722
  382WAT     H1 1357   2.606   1.207   1.587 -0.8743 -0.0427  1.2919
  382WAT     H2 1358   2.693   1.326   1.621  0.6413 -0.0902 -1.9982
  383WAT      O 1359   3.916   3.000   1.700  0.0446 -0.4774  0.0513
  383WAT     H1 1360   3.948   2.969   1.784  0.4759  0.3175  0.1972
  383WAT     H2 1361   3.883   2.922   1.656  0.6542 -1.0489  0.5875
  384WAT      O 1362   2.295   0.583   4.469  0.8323  0.3094  0.5648
  384WAT     H1 1363   2.266   0.660   4.518 -0.2423 -0.7017  1.5537
  384WAT     H2 1364   2.352   0.536   4.529  2.5438  0.9496 -0.4826
  385WAT      O 1365   4.313   0.765   0.353  0.3205 -0.1222 -0.7407
  385WAT     H1 1366   4.297   0.683   0.401 -0.8850 -0.4584 -1.6766
  385WAT     H2 1367   4.259   0.758   0.275 -0.8798  2.1434 -0.2066
  386WAT      O 1368   3.999   1.647   1.353 -0.8724  0.4175 -0.2342
  386WAT     H1 1369   3.904   1.648   1.361 -0.7280  0.8936  2.4474
  386WAT     H2 1370   4.016   1.612   1.265 -3.4846 -1.0405 -0.2583
  387WAT      O 1371   3.135   1.653   3.137  0.6739  0.3331  1.0644
  387WAT     H1 1372   3.044   1.681   3.144  0.7556  1.2795 -0.9578
  387WAT     H2 1373   3.132   1.558   3.146 -0.5119  0.3527  1.0052
  388WAT      O 1374   1.977   1.573   5.012  0.0698 -0.4745  0.8119
  388WAT     H1 1375   2.021   1.626   5.079  1.3926 -2.5035  1.6578
  388WAT     H2 1376   2.033   1.581   4.935  1.3007 -1.9789  1.4840
  389WAT      O 1377   0.328   3.408   4.123  0.4506 -0.5492 -0.2085
  389WAT     H1 1378   0.370   3.449   4.198  1.0985 -1.5987  0.0197
  389WAT     H2 1379   0.235   3.428   4.133  0.3610 -1.7344  1.5580
  390WAT      O 1380   2.097   1.665   0.773 -0.2095  0.0499  0.0342
  390WAT     H1 1381   2.178   1.615   0.764 -0.8562 -0.7801 -1.6552
  390WAT     H2 1382   2.028   1.599   0.769 -1.0347  0.9238 -0.4118
  391WAT      O 1383   0.707   4.827   2.904  0.3650 -0.1243 -0.1497
  391WAT     H1 1384   0.756   4.748   2.929  0.6535  0.6985  2.0740
  391WAT     H2 1385   0.650   4.844   2.978 -2.1751 -0.0932 -1.9717
  392WAT      O 1386   3.467   4.859   0.381  0.1563  0.2060 -0.2751
  392WAT     H1 1387   3.413   4.784   0.406  0.2752  0.7397  1.7778
  392WAT     H2 1388   3.413   4.907   0.318 -1.8489  0.7352  1.7338
  393WAT      O 1389   0.579   4.873   1.158  0.5930  0.1296 -0.3945
  393WAT     H1 1390   0.569   4.874   1.253  0.6698  0.7251 -0.3845
  393WAT     H2 1391   0.489   4.869   1.125  0.5767 -0.3337 -0.2998
  394WAT      O 1392   4.235   4.248   2.487  0.5559  0.4222 -0.4206
  394WAT     H1 1393   4.282   4.322   2.448 -0.0012  1.5051  0.8763
  394WAT     H2 1394   4.278   4.235   2.572 -0.3851  0.2941  0.0433
  395WAT      O 1395   0.698   2.149   3.939 -0.1624 -0.1585  0.2040
  395WAT     H1 1396   0.777   2.137   3.888 -0.5760  0.0380 -0.4936
  395WAT     H2 1397   0.697   2.243   3.960 -1.5556  0.4041 -2.0757
  396WAT      O 1398   1.261   2.671   4.233  0.5097 -0.8837  0.0906
  396WAT     H1 1399   1.257   2.748   4.177  0.0797 -0.8780  0.1298
  396WAT     H2 1400   1.308   2.606   4.181  2.1155 -0.1637  0.5736
  397WAT      O 1401   3.661   1.329   2.891 -0.0148 -0.1619 -0.1097
  397WAT     H1 1402   3.670   1.363   2.801  2.5092 -2.6766 -0.9676
  397WAT     H2 1403   3.568   1.338   2.910 -0.2044  3.2110 -1.7502
  398WAT      O 1404   0.468   3.158   4.984  0.1942  0.2398 -0.0204
  398WAT     H1 1405   0.473   3.152   5.080  0.0874  0.0380 -0.0265
  398WAT     H2 1406   0.479   3.067   4.954 -0.5826  0.1860 -0.1610
  399WAT      O 1407   3.998   0.880   0.218  0.5737  0.7551 -0.7159
  399WAT     H1 1408   4.030   0.798   0.180 -3.4924 -0.7564 -1.3850
  399WAT     H2 1409   4.001   0.866   0.312 -1.0178 -0.6386 -0.8410
  400WAT      O 1410   4.515   4.064   1.576  0.3573 -0.2533 -0.3721
  400WAT     H1 1411   4.478   4.147   1.608 -0.1985 -0.6348 -0.0093
  400WAT     H2 1412   4.599   4.057   1.621  0.2029 -0.1014 -0.0508
  401WAT      O 1413   4.121   3.398   2.678  0.5721  0.4867  0.1977
  401WAT     H1 1414   4.170   3.369   2.755  0.3698 -0.8842 -0.1566
  401WAT     H2 1415   4.039   3.348   2.681  0.9889 -0.3969 -1.4365
  402WAT      O 1416   4.467   3.886   1.129  0.1613  0.3070 -0.2337
  402WAT     H1 1417   4.450   3.798   1.094  2.4057  0.3307 -1.5935
  402WAT     H2 1418   4.557   3.882   1.161  0.0367  1.9075  0.4196
  403WAT      O 1419   1.790   3.122   2.139 -0.4482 -0.3745 -0.0760
  403WAT     H1 1420   1.710   3.076   2.162  0.2527 -1.3855  0.3869
  403WAT     H2 1421   1.795   3.194   2.202 -1.0240 -0.2606 -0.1556
  404WAT      O 1422   3.329   3.587   4.352  0.0959  0.1673 -0.8199
  404WAT     H1 1423   3.244   3.624   4.379 -0.0873 -1.0451  0.3901
  404WAT     H2 1424   3.390   3.660   4.360 -0.8364  1.1000 -1.8352
  405WAT      O 1425   2.509   1.345   1.921  0.0249 -0.0414  0.1515
  405WAT     H1 1426   2.497   1.288   1.845  1.0901  0.0288 -0.0856
  405WAT     H2 1427   2.580   1.304   1.970  0.1866  0.5894  0.4496
  406WAT      O 1428   0.917   1.428   1.064 -0.1739 -0.2131 -0.0133
  406WAT     H1 1429   0.907   1.517   1.096  0.6140 -0.8295  2.0744
  406WAT     H2 1430   1.011   1.417   1.053 -0.2850 -0.7173 -0.5271
  407WAT      O 1431   1.009   2.696   2.004 -0.0368 -0.1358  0.3153
  407WAT     H1 1432   1.088   2.749   2.017 -0.9413  2.1238 -2.3718
  407WAT     H2 1433   0.947   2.731   2.068  0.2961 -0.0411  0.5928
  408WAT      O 1434   2.205   0.077   5.000 -0.5368  0.3526 -0.2917
  408WAT     H1 1435   2.212   0.151   4.939 -0.6349  1.6670  1.2160
  408WAT     H2 1436   2.259   0.103   5.074 -0.2538 -1.3034  0.1098
  409WAT      O 1437   0.658   0.254   0.489 -0.0639 -0.2557 -0.3406
  409WAT     H1 1438   0.624   0.284   0.405 -0.4925 -1.2325 -0.5233
  409WAT     H2 1439   0.712   0.178   0.468  1.2937  0.5488  0.0832
  410WAT      O 1440   2.204   2.717   3.545 -0.1823 -0.2571 -0.0495
  410WAT     H1 1441   2.175   2.664   3.471  0.6241 -0.9595  0.1168
  410WAT     H2 1442   2.128   2.770   3.568 -0.6923 -0.6163 -0.8647
  411WAT      O 1443   1.596   2.107   0.190  0.0213 -0.4704  0.1841
  411WAT     H1 1444   1.640   2.073   0.267 -1.3466 -0.7097  0.8845
  411WAT     H2 1445   1.667   2.127   0.129  1.2880  1.5383  2.1848
  412WAT      O 1446   3.285   3.165   4.064  0.2018  0.0361  0.1038
  412WAT     H1 1447   3.204   3.133   4.103  1.0510 -2.4269  0.0424
  412WAT     H2 1448   3.308   3.098   3.999  1.5280  1.4199 -0.9158
  413WAT      O 1449   3.929   1.238   2.101 -0.0465  0.1537 -0.4983
  413WAT     H1 1450   3.847   1.187   2.097  1.1538 -1.9751  0.0803
  413WAT     H2 1451   3.939   1.274   2.013 -0.4113 -1.6065 -1.3178
  414WAT      O 1452   3.909   3.263   4.866 -0.8790 -0.0665 -0.6816
  414WAT     H1 1453   3.906   3.172   4.895 -0.9388  0.1842  0.1246
  414WAT     H2 1454   3.861   3.311   4.933  0.8596  0.8320 -0.0128
  415WAT      O 1455   1.798   2.058   2.596 -0.1412  0.2587  0.4849
  415WAT     H1 1456   1.841   2.095   2.519 -1.2953  0.0807 -0.2640
  415WAT     H2 1457   1.869   2.049   2.660  1.0027 -0.3201 -0.8044
  416WAT      O 1458   1.833   0.848   1.428  0.3229 -0.2439  0.2984
  416WAT     H1 1459   1.816   0.784   1.497 -0.2192 -0.0208  0.3768
  416WAT     H2 1460   1.763   0.913   1.438 -0.0850 -0.4896 -0.7996
  417WAT      O 1461   0.635   1.571   4.180 -0.4625  0.3258 -0.4112
  417WAT     H1 1462   0.580   1.561   4.103 -0.0952  0.3242 -0.6744
  417WAT     H2 1463   0.621   1.491   4.230  0.5979 -0.4575 -1.3120
  418WAT      O 1464   1.559   2.988   3.998 -0.1348  0.7253  0.4251
  418WAT     H1 1465   1.503   3.062   4.023  1.5653  1.5131  2.2246
  418WAT     H2 1466   1.499   2.924   3.960 -1.6912  2.9838 -1.1959
  419WAT      O 1467   3.038   2.122   2.026  0.0830  0.0866 -0.7453
  419WAT     H1 1468   3.061   2.213   2.047 -0.0651  0.0560 -0.4488
  419WAT     H2 1469   3.113   2.071   2.058 -0.8023 -0.1100  1.1120
  420WAT      O 1470   0.435   0.250   4.794  0.1239 -0.2486 -0.3094
  420WAT     H1 1471   0.482   0.228   4.874  0.6250  3.1046  0.4788
  420WAT     H2 1472   0.492   0.313   4.750 -2.5629  2.3345 -0.3923
  421WAT      O 1473   2.076   0.514   4.791  0.1087  0.2977  0.0904
  421WAT     H1 1474   2.140   0.527   4.861  1.2696 -0.6851 -0.7431
  421WAT     H2 1475   1.992   0.540   4.830  0.7366 -0.0819  1.7891
  422WAT      O 1476   0.040   3.547   0.847 -0.4469  0.3397 -0.6049
  422WAT     H1 1477   0.072   3.458   0.832 -0.0803  0.0036  1.8453
  422WAT     H2 1478   0.115   3.604   0.827  0.1132 -0.0893  0.2430
  423WAT      O 1479   4.436   4.182   3.147  0.2717  0.1704 -0.5773
  423WAT     H1 1480   4.380   4.116   3.187  0.8603  0.1057  0.1666
  423WAT     H2 1481   4.525   4.154   3.169  0.5178  1.6817  0.5457
  424WAT      O 1482   3.175   0.706   3.315 -0.9051 -0.0262  0.1633
  424WAT     H1 1483   3.082   0.703   3.340 -0.4875 -1.1569  1.6868
  424WAT     H2 1484   3.195   0.618   3.284  0.0272 -0.2410  1.3069
  425WAT      O 1485   4.082   4.164   3.950  0.0601  0.4729  0.2330
  425WAT     H1 1486   4.072   4.145   4.043  1.9493  2.4583  0.9256
  425WAT     H2 1487   4.175   4.183   3.939 -0.0549 -0.0016 -2.1521
  426WAT      O 1488   1.080   0.814   3.637  0.0878  0.0135  0.2213
  426WAT     H1 1489   1.057   0.794   3.727  1.7096 -2.2457  0.2122
  426WAT     H2 1490   1.005   0.864   3.604 -0.7856  0.4247  2.6138
  427WAT      O 1491   1.936   0.505   0.914  0.2210  0.5281  0.6154
  427WAT     H1 1492   1.921   0.581   0.971  2.9293 -0.0967  2.3664
  427WAT     H2 1493   2.030   0.508   0.896 -0.1326 -0.8006 -1.7469
  428WAT      O 1494   1.931   4.293   1.384 -0.0207 -0.0235  0.4657
  428WAT     H1 1495   1.908   4.384   1.404 -1.9868 -0.2722 -0.3786
  428WAT     H2 1496   1.932   4.250   1.470 -0.3865  0.5324  0.7592
  429WAT      O 1497   4.244   4.226   4.972  0.4866  0.2768 -0.3955
  429WAT     H1 1498   4.323   4.171   4.972  1.1535  1.1717  0.7164
  429WAT     H2 1499   4.277   4.316   4.981 -0.6753  0.5742  1.5642
  430WAT      O 1500   2.768   0.264   1.019 -0.5256  0.0915  0.0709
  430WAT     H1 1501   2.805   0.326   0.957  1.1495  0.4101  1.3111
  430WAT     H2 1502   2.708   0.316   1.072 -2.1168 -0.2251 -1.3474
  431WAT      O 1503   0.283   0.074   1.837 -0.0767  0.9314  0.0488
  431WAT     H1 1504   0.267   0.084   1.931 -1.1594 -0.6333  0.0823
  431WAT     H2 1505   0.374   0.045   1.830 -0.7871 -1.8977  0.9398
  432WAT      O 1506   1.014   1.305   2.622  0.2537 -0.3771 -0.5249
  432WAT     H1 1507   0.945   1.353   2.668 -0.1534 -0.7950 -0.6857
  432WAT     H2 1508   1.095   1.329   2.668 -0.1331 -0.7167  0.3572
  433WAT      O 1509   2.793   4.848   5.004 -0.0605 -0.1234  0.3909
  433WAT     H1 1510   2.790   4.944   5.013  1.2016  0.0441 -0.6021
  433WAT     H2 1511   2.884   4.826   5.023 -0.7260 -1.3754  2.4260
  434WAT      O 1512   2.461   2.598   0.829  0.3104 -0.0410  0.3910
  434WAT     H1 1513   2.394   2.529   0.835 -0.6576  0.8704  0.2711
  434WAT     H2 1514   2.511   2.576   0.751  0.9308 -1.3999  1.1300
  435WAT      O 1515   2.120   3.300   1.907  0.1857  0.9529  0.2305
  435WAT     H1 1516   2.066   3.221   1.908  1.0204  0.3671 -0.1089
  435WAT     H2 1517   2.152   3.308   1.997  1.1023  0.1876 -0.0108
  436WAT      O 1518   1.437   1.141   0.693 -0.1498  0.4487  0.1564
  436WAT     H1 1519   1.399   1.089   0.763 -0.3726  0.4251  0.0166
  436WAT     H2 1520   1.367   1.152   0.629  0.7628 -1.7301 -1.3202
  437WAT      O 1521   4.541   1.323   3.093 -0.5276  0.5720 -0.0143
  437WAT     H1 1522   4.471   1.385   3.071 -0.6974  0.2782 -0.3154
  437WAT     H2 1523   4.567   1.348   3.182 -0.4142  1.2364 -0.2279
  438WAT      O 1524   3.869   0.901  -0.019  0.1346 -0.7931 -0.1729
  438WAT     H1 1525   3.804   0.831  -0.010 -0.9523  0.2365  0.3145
  438WAT     H2 1526   3.918   0.899   0.063  0.6309 -1.4844 -0.4829
  439WAT      O 1527   0.387   3.045   1.157  0.2403  0.3888  0.3700
  439WAT     H1 1528   0.424   2.960   1.137 -0.8743  0.2125 -1.0609
  439WAT     H2 1529   0.395   3.095   1.076 -0.3102  1.2044  0.8020
  440WAT      O 1530   0.309   1.321   0.636  0.3419  0.0510 -0.0148
  440WAT     H1 1531   0.384   1.308   0.578  1.6635  3.3486  0.7109
  440WAT     H2 1532   0.347   1.355   0.717 -1.8102 -0.2178  1.1942
  441WAT      O 1533   1.452   1.415   1.660 -0.2167 -0.3285  0.2274
  441WAT     H1 1534   1.498   1.436   1.741 -0.4481 -2.2533  0.8970
  441WAT     H2 1535   1.497   1.337   1.626 -1.2455 -0.5978 -0.5553
  442WAT      O 1536   0.481   5.094   4.123 -0.3344 -0.1366 -0.4577
  442WAT     H1 1537   0.487   5.116   4.216  0.7682  0.5390 -0.6681
  442WAT     H2 1538   0.554   5.034   4.109 -0.4506 -0.1758 -0.9064
  443WAT      O 1539   1.418   0.488   2.808 -0.4420 -0.3086 -0.3118
  443WAT     H1 1540   1.396   0.410   2.757 -1.3734  0.1977 -0.7194
  443WAT     H2 1541   1.357   0.555   2.777  0.2358  0.5441  0.1368
  444WAT      O 1542   3.064   2.363   2.183  0.0775 -0.0898  0.2220
  444WAT     H1 1543   3.029   2.302   2.248  0.9412 -0.5918  0.2302
  444WAT     H2 1544   3.080   2.443   2.233 -3.4953  1.1115 -0.2879
  445WAT      O 1545   2.542   4.035   3.355 -0.4315 -0.5186 -0.3256
  445WAT     H1 1546   2.589   4.117   3.373 -0.2068 -0.6893 -0.1341
  445WAT     H2 1547   2.543   3.988   3.438 -0.1481 -0.9233 -0.5533
  446WAT      O 1548   2.765   4.335   4.095  0.1095 -0.1709 -0.2266
  446WAT     H1 1549   2.735   4.247   4.118  0.5920 -0.0125  1.0838
  446WAT     H2 1550   2.762   4.336   3.999 -0.6777 -1.3306 -0.2462
  447WAT      O 1551   0.737   4.483   1.210  0.0486 -0.0328  0.1041
  447WAT     H1 1552   0.829   4.500   1.231 -0.1841 -0.1185  1.2774
  447WAT     H2 1553   0.688   4.538   1.272 -0.7094  1.1146 -1.4299
  448WAT      O 1554   2.799   1.941   5.098 -0.0344 -0.3209  0.2041
  448WAT     H1 1555   2.738   1.889   5.151  0.2139  0.1776  1.0006
  448WAT     H2 1556   2.864   1.973   5.161  0.0873  0.5580 -0.3437
  449WAT      O 1557   2.629   0.008   2.044 -0.0636  0.0140  0.8718
  449WAT     H1 1558   2.635   0.101   2.024  1.1448 -0.5040 -1.5626
  449WAT     H2 1559   2.706  -0.031   2.002 -1.1292 -2.2279  0.8220
  450WAT      O 1560   1.584   0.240   4.896  0.5032  0.3129 -0.3873
  450WAT     H1 1561   1.546   0.201   4.817 -0.6167  1.0069 -0.2148
  450WAT     H2 1562   1.524   0.218   4.966  0.7694  0.8533  0.0261
  451WAT      O 1563   1.158   1.726   4.444 -0.2814 -0.2167  0.2290
  451WAT     H1 1564   1.072   1.719   4.402  0.2641  0.6813 -1.1208
  451WAT     H2 1565   1.146   1.684   4.529 -2.2481  0.5240  0.3867
  452WAT      O 1566   4.191   5.060   2.029  0.3335  0.2978  1.0634
  452WAT     H1 1567   4.166   5.021   2.113  0.0412 -2.4767 -0.1869
  452WAT     H2 1568   4.215   4.985   1.974 -2.9057  1.5303 -2.4715
  453WAT      O 1569   0.391   1.175   3.685 -0.2409 -0.1891 -0.6078
  453WAT     H1 1570   0.304   1.134   3.689 -0.4695  0.2998 -0.3971
  453WAT     H2 1571   0.451   1.106   3.712 -0.6612 -0.2607  0.1740
  454WAT      O 1572   0.525   1.569   3.560  0.2598  0.1454 -0.5163
  454WAT     H1 1573   0.541   1.483   3.522  2.4098 -0.2377  1.0702
  454WAT     H2 1574   0.513   1.553   3.653 -2.4600  1.3058 -0.5918
  455WAT      O 1575   3.696   4.927   4.794  0.2601  0.0084 -0.1537
  455WAT     H1 1576   3.670   4.971   4.713  1.1427  1.1518  0.1686
  455WAT     H2 1577   3.752   4.855   4.765  0.1400  0.0858 -0.5890
  456WAT      O 1578   3.675   1.596   1.433 -0.0353 -0.3083 -0.3622
  456WAT     H1 1579   3.641   1.679   1.400  0.5848 -0.6805 -2.0422
  456WAT     H2 1580   3.636   1.586   1.520 -3.5741 -0.3376 -1.8126
  457WAT      O 1581   0.703   1.033   2.923  0.0898 -0.3688 -0.3889
  457WAT     H1 1582   0.740   1.117   2.897  0.4429  0.1226  1.5924
  457WAT     H2 1583   0.778   0.976   2.936 -0.0888 -0.6372 -0.5154
  458WAT      O 1584   0.572   2.226   0.182 -0.1135  0.2588 -0.2839
  458WAT     H1 1585   0.486   2.188   0.165 -1.1266  1.9092  0.9040
  458WAT     H2 1586   0.592   2.274   0.101  0.7247 -1.8334 -1.4000
  459WAT      O 1587   1.527   4.738   1.237  0.4681  0.2961  1.0028
  459WAT     H1 1588   1.523   4.831   1.216  0.3659  0.0949  0.1171
  459WAT     H2 1589   1.620   4.723   1.258  0.4196  0.6639  1.5068
  460WAT      O 1590   1.391   2.752   2.598 -0.6172 -0.0006  0.0886
  460WAT     H1 1591   1.398   2.816   2.528 -0.4235 -0.5076 -0.3574
  460WAT     H2 1592   1.468   2.696   2.588 -0.3821  0.1435  0.9341
  461WAT      O 1593   1.055   3.228   3.952  0.4743 -0.2938  0.0855
  461WAT     H1 1594   1.011   3.163   4.007  2.1490 -0.8208  0.8520
  461WAT     H2 1595   1.077   3.181   3.872 -1.5815  0.3629 -0.9492
  462WAT      O 1596   4.467   3.666   2.909 -0.4426  0.4317  0.0544
  462WAT     H1 1597   4.446   3.577   2.882  1.3943  0.2573 -0.8992
  462WAT     H2 1598   4.558   3.679   2.883 -0.4548  2.3568  0.7965
  463WAT      O 1599   4.204   3.628   2.519  0.0589 -0.3524  0.1237
  463WAT     H1 1600   4.147   3.567   2.567 -1.5156 -0.2208 -1.4845
  463WAT     H2 1601   4.201   3.708   2.571 -0.3950 -0.6784  0.6213
  464WAT      O 1602   3.372   2.655   4.566 -0.3413 -0.4913 -0.3187
  464WAT     H1 1603   3.311   2.723   4.538  0.1415  0.1968  0.2461
  464WAT     H2 1604   3.421   2.633   4.487  0.2742  0.6566 -0.2825
  465WAT      O 1605   3.117   2.228   3.213 -0.2652  0.9354  0.1417
  465WAT     H1 1606   3.093   2.136   3.202  2.0234  0.2477  0.4807
  465WAT     H2 1607   3.131   2.260   3.124  3.5017 -0.4306  0.0771
  466WAT      O 1608   1.763   0.705   2.337 -0.0946  0.4292  0.3378
  466WAT     H1 1609   1.808   0.782   2.301  1.4224 -0.9288 -0.7961
  466WAT     H2 1610   1.670   0.721   2.318  0.3119  1.4482 -0.9375
  467WAT      O 1611   0.700   0.315   2.245  0.8588 -0.1414 -0.2169
  467WAT     H1 1612   0.716   0.306   2.151 -2.1060  1.1070 -0.9568
  467WAT     H2 1613   0.684   0.226   2.276  1.0918 -0.4763 -1.0383
  468WAT      O 1614   3.066   3.649   2.904  0.1048  0.3868  0.3501
  468WAT     H1 1615   3.131   3.720   2.900 -0.6699  1.0526 -1.6038
  468WAT     H2 1616   2.987   3.690   2.940  0.3411 -0.1115  1.4977
  469WAT      O 1617   2.925   2.714   2.959  0.3574  0.0269  0.2587
  469WAT     H1 1618   3.020   2.709   2.964  0.3597 -0.8295 -0.3343
  469WAT     H2 1619   2.908   2.786   2.898  0.5834  1.0289  1.3460
  470WAT      O 1620   3.477   3.285   3.454  0.0122 -0.6232 -0.3220
  470WAT     H1 1621   3.531   3.276   3.375 -0.0971  2.3199 -0.8560
  470WAT     H2 1622   3.429   3.367   3.441 -0.6300 -0.4484  2.4557
  471WAT      O 1623   0.648   4.633   1.414  0.1994 -0.0414  0.4930
  471WAT     H1 1624   0.659   4.727   1.399 -0.9940 -0.0538 -0.6325
  471WAT     H2 1625   0.623   4.625   1.506  2.7603  0.4988  1.3104
  472WAT      O 1626   2.418   0.252   5.118  0.1461 -0.0576 -0.0818
  472WAT     H1 1627   2.471   0.332   5.125  0.9585 -0.5777 -0.0848
  472WAT     H2 1628   2.402   0.226   5.209  2.3056 -1.4161 -0.0099
  473WAT      O 1629   0.745   2.475   4.259 -0.3851  0.2882 -0.5147
  473WAT     H1 1630   0.767   2.424   4.337  2.4646  0.9902 -0.7313
  473WAT     H2 1631   0.719   2.561   4.293 -0.7767  0.0729 -0.2747
  474WAT      O 1632   0.893   0.983   3.815 -0.1927 -0.2160  0.3557
  474WAT     H1 1633   0.945   0.931   3.877 -0.3688 -0.6878  0.1167
  474WAT     H2 1634   0.855   0.918   3.756 -1.8611  0.0064  1.1204
  475WAT      O 1635   4.169   0.855   3.914 -0.1798 -0.0099  0.2696
  475WAT     H1 1636   4.195   0.933   3.864  1.3975 -0.0837  0.9243
  475WAT     H2 1637   4.086   0.829   3.875  0.6607  0.3210 -1.9100
  476WAT      O 1638   3.260   4.942   0.186 -0.2886 -0.4817 -0.1928
  476WAT     H1 1639   3.179   4.984   0.218  0.1977 -0.0629  0.5195
  476WAT     H2 1640   3.239   4.849   0.185 -0.7548 -0.3867  0.0931
  477WAT      O 1641   0.077   2.842   1.722 -0.5772  0.4001  0.1713
  477WAT     H1 1642   0.042   2.754   1.711  0.7684 -0.0400 -0.8968
  477WAT     H2 1643  -0.000   2.897   1.737 -1.4750 -0.8825  0.3624
  478WAT      O 1644   3.821   1.650   3.615 -0.1107  0.2781 -0.7765
  478WAT     H1 1645   3.874   1.593   3.671  1.6877  0.5709 -2.1050
  478WAT     H2 1646   3.763   1.591   3.567  0.3559 -0.2385 -0.7084
  479WAT      O 1647   0.763   0.579   2.673  0.0995 -0.0247  0.0122
  479WAT     H1 1648   0.738   0.556   2.584 -2.5916  0.7496  0.4742
  479WAT     H2 1649   0.682   0.570   2.724  1.1635  1.1483  2.0588
  480WAT      O 1650   0.744   1.129   0.529  0.3909 -0.3956 -0.5507
  480WAT     H1 1651   0.808   1.178   0.477  0.3770  0.5223  0.2478
  480WAT     H2 1652   0.793   1.056   0.566  0.5314 -0.7324 -1.3876
  481WAT      O 1653   2.989   1.304   4.716  0.2483  0.3407 -0.3499
  481WAT     H1 1654   3.068   1.348   4.686 -0.0127  0.9954 -0.0926
  481WAT     H2 1655   2.927   1.375   4.732  0.1204 -0.0540  0.9800
  482WAT      O 1656   4.504   0.196   4.109  0.1869  0.1255 -0.0550
  482WAT     H1 1657   4.494   0.101   4.111  1.0698  0.0106 -0.5499
  482WAT     H2 1658   4.586   0.212   4.157  0.4035  0.5722 -0.5652
  483WAT      O 1659   3.754   3.533   4.136  0.2482  0.0138  0.1810
  483WAT     H1 1660   3.838   3.564   4.102  0.2447 -0.6673 -0.4697
  483WAT     H2 1661   3.693   3.541   4.063 -0.1796  0.1913  0.5519
  484WAT      O 1662   2.943   4.217   2.254 -0.6876 -0.2741 -0.5844
  484WAT     H1 1663   3.037   4.225   2.271 -0.4091 -1.3222 -1.5189
  484WAT     H2 1664   2.903   4.284   2.310  0.4096 -1.4148  1.6865
  485WAT      O 1665   1.485   4.159   0.860 -0.3619  0.2341  0.9143
  485WAT     H1 1666   1.509   4.069   0.840 -0.2971  0.6120 -0.8943
  485WAT     H2 1667   1.527   4.177   0.944  1.1916 -0.8421  0.4129
  486WAT      O 1668   1.640   3.295   1.785  0.0755  0.1821 -0.7672
  486WAT     H1 1669   1.716   3.312   1.729 -0.0769 -0.3234 -1.1306
  486WAT     H2 1670   1.581   3.243   1.730 -0.4961  0.4983 -0.4602
  487WAT      O 1671   2.132   0.142   3.886 -0.3432  0.0501 -0.6054
  487WAT     H1 1672   2.209   0.101   3.926  0.2399  1.2873 -0.3837
  487WAT     H2 1673   2.094   0.195   3.957 -1.2062 -0.2824 -0.8089
  488WAT      O 1674   4.015   4.355   3.519  0.8309  0.0746  0.2522
  488WAT     H1 1675   3.955   4.281   3.507  0.2419  0.1554  2.2303
  488WAT     H2 1676   4.062   4.333   3.600  1.2985  1.4295  0.3598
  489WAT      O 1677   0.411   0.217   1.304 -0.3275 -0.1910 -0.1598
  489WAT     H1 1678   0.386   0.150   1.240  0.4485 -0.5813 -0.0627
  489WAT     H2 1679   0.329   0.241   1.347 -0.7343 -0.5012 -0.7461
  490WAT      O 1680   4.199   0.514   1.644  0.4800  0.2709  0.1183
  490WAT     H1 1681   4.261   0.538   1.713  0.0559  0.1511  0.5414
  490WAT     H2 1682   4.202   0.419   1.640  1.2270  0.3102 -0.7041
  491WAT      O 1683   4.493   1.326   2.803  0.5141  0.0152 -0.5299
  491WAT     H1 1684   4.474   1.416   2.828 -0.5355 -0.5291  0.7453
  491WAT     H2 1685   4.585   1.327   2.777  1.0655  1.0686  1.3043
  492WAT      O 1686   3.197   2.379   0.504  0.1113  1.0918 -0.3039
  492WAT     H1 1687   3.158   2.392   0.590 -1.4887 -2.3129 -0.3528
  492WAT     H2 1688   3.292   2.386   0.519 -0.0610 -0.3400  2.0073
  493WAT      O 1689   2.751   4.821   2.406  0.8270 -0.1380 -0.6167
  493WAT     H1 1690   2.835   4.824   2.452  0.5080 -1.0868  0.0550
  493WAT     H2 1691   2.709   4.741   2.438 -0.0119 -0.0744 -1.5102
  494WAT      O 1692   0.681   0.007   0.055 -0.2094 -0.5300  0.2076
  494WAT     H1 1693   0.630   0.048   0.125 -0.4712  0.5873 -0.5960
  494WAT     H2 1694   0.639   0.038  -0.026  0.9609 -0.6029 -0.4515
  495WAT      O 1695   3.538   0.383   1.741  0.3155  0.3705 -0.0785
  495WAT     H1 1696   3.500   0.456   1.692 -0.4016 -0.6985 -1.2031
  495WAT     H2 1697   3.468   0.354   1.799 -0.5531 -1.3449 -1.8630
  496WAT      O 1698   0.039   1.247   4.238  0.0918  0.3456 -0.0174
  496WAT     H1 1699   0.027   1.219   4.147  1.0209  1.8425 -0.6296
  496WAT     H2 1700  -0.036   1.305   4.254 -0.3738 -0.3436  0.3822
  497WAT      O 1701   2.500   1.676   3.982 -0.3714 -0.2443 -0.3884
  497WAT     H1 1702   2.542   1.656   4.066 -0.4529  0.1160 -0.2596
  497WAT     H2 1703   2.534   1.762   3.958 -1.4356  0.3017 -0.0156
  498WAT      O 1704   0.229   4.762   0.633  0.4188 -0.2990 -0.2254
  498WAT     H1 1705   0.287   4.831   0.666 -0.5776  0.7849 -0.6714
  498WAT     H2 1706   0.288   4.703   0.585  1.1270  1.0552 -1.1080
  499WAT      O 1707   4.132   2.701   2.753  0.5909 -0.8275  0.4173
  499WAT     H1 1708   4.099   2.648   2.681 -1.4118 -0.2315  0.8310
  499WAT     H2 1709   4.191   2.764   2.711 -0.9718 -0.1192 -0.8553
  500WAT      O 1710   1.531   3.438   2.908 -0.3391  0.3621  0.4466
  500WAT     H1 1711   1.560   3.347   2.899  1.3925  0.6149  2.5315
  500WAT     H2 1712   1.470   3.437   2.982  1.3062  1.1116  1.9102
  501WAT      O 1713   3.798   4.842   2.299  0.3467  0.2885 -0.6822
  501WAT     H1 1714   3.726   4.819   2.357  0.7225  0.3952 -0.1647
  501WAT     H2 1715   3.803   4.937   2.303 -0.2779  0.3822 -1.6938
  502WAT      O 1716   1.311   2.835   4.746 -0.4627  0.6547  0.2158
  502WAT     H1 1717   1.387   2.848   4.690 -0.7008  1.2681  0.0210
  502WAT     H2 1718   1.338   2.870   4.831  0.7200 -2.3823  1.1877
  503WAT      O 1719   4.014   1.569   5.117  0.2183 -0.2080 -0.1232
  503WAT     H1 1720   4.033   1.494   5.061  0.0727  0.5383 -1.1929
  503WAT     H2 1721   3.933   1.606   5.081 -0.0711  0.0805  0.7976
  504WAT      O 1722   1.782   0.074   0.508 -0.1220  0.3880  0.7720
  504WAT     H1 1723   1.687   0.073   0.497 -0.0046 -0.8771 -0.3023
  504WAT     H2 1724   1.796   0.034   0.594 -0.5113 -0.8630  0.2754
  505WAT      O 1725   0.264   3.467   0.343 -0.1235 -1.0971 -0.0374
  505WAT     H1 1726   0.314   3.386   0.337  1.2086 -0.2606 -0.5145
  505WAT     H2 1727   0.302   3.525   0.277  0.6855  0.8312  1.9959
  506WAT      O 1728   3.059   4.916   3.332 -0.1007  0.3047  0.5630
  506WAT     H1 1729   3.014   4.991   3.371  0.9210  1.3289 -0.1464
  506WAT     H2 1730   3.018   4.840   3.372 -2.4061  1.1743 -0.0104
  507WAT      O 1731   3.298   3.474   2.087  0.4131 -0.0045  0.2595
  507WAT     H1 1732   3.311   3.512   2.000  2.7744  1.0939  1.0204
  507WAT     H2 1733   3.299   3.379   2.071 -0.4260  0.1736 -1.0298
  508WAT      O 1734   0.872   3.888   0.915 -0.4846  0.3206  0.2976
  508WAT     H1 1735   0.915   3.923   0.838  1.1800 -1.9549  0.0927
  508WAT     H2 1736   0.789   3.853   0.883 -0.0762 -0.0634 -0.3646
  509WAT      O 1737   2.499   2.521   2.267 -0.5114 -0.2579  0.5368
  509WAT     H1 1738   2.453   2.454   2.216 -0.3024  1.4851 -2.1282
  509WAT     H2 1739   2.590   2.489   2.271 -0.9077 -1.3256  1.5446
  510WAT      O 1740   3.343   1.384   0.561  0.3112  0.0006  0.1702
  510WAT     H1 1741   3.356   1.355   0.652  1.0026  0.5776  0.2642
  510WAT     H2 1742   3.295   1.466   0.569  0.1039 -0.1048  0.0015
  511WAT      O 1743   2.362   1.218   4.471  0.1590 -0.1045 -0.1482
  511WAT     H1 1744   2.396   1.205   4.559 -1.1831  0.3862  0.4675
  511WAT     H2 1745   2.341   1.311   4.466  0.5701 -0.0505 -1.1249
  512WAT      O 1746   0.293   1.368   4.288 -0.1323  0.2770  0.5391
  512WAT     H1 1747   0.217   1.312   4.277 -0.3417  0.7763 -0.7724
  512WAT     H2 1748   0.290   1.427   4.212 -0.1317  2.3067  2.0477
  513WAT      O 1749   1.433   3.358   2.226 -0.0838  0.0012  0.5359
  513WAT     H1 1750   1.452   3.319   2.141  0.2394 -0.0785  0.6442
  513WAT     H2 1751   1.383   3.292   2.273  0.3031 -0.2109  0.6507
  514WAT      O 1752   2.472   0.483   3.966 -0.2934  0.0439  0.3204
  514WAT     H1 1753   2.442   0.574   3.959  0.0322  0.1876  0.7484
  514WAT     H2 1754   2.413   0.443   4.030 -2.1701 -0.8009 -1.7952
  515WAT      O 1755   3.097   0.393   0.594  0.0806  0.3480 -0.2093
  515WAT     H1 1756   3.020   0.343   0.620 -0.2157  0.2686 -1.1991
  515WAT     H2 1757   3.097   0.390   0.499  0.2986  1.8736 -0.2823
  516WAT      O 1758   1.975   4.712   0.902 -0.0248 -0.2618  0.4782
  516WAT     H1 1759   2.011   4.774   0.965  0.8571 -0.7637  0.5014
  516WAT     H2 1760   1.893   4.682   0.940  0.6349 -0.7702  1.5468
  517WAT      O 1761   3.727   2.972   0.677  0.3861 -0.1267 -0.1681
  517WAT     H1 1762   3.822   2.976   0.683  0.4944 -0.7391 -1.2937
  517WAT     H2 1763   3.706   2.879   0.675 -0.1344 -0.0044 -1.1497
  518WAT      O 1764   3.448   1.030   2.031 -0.2009  0.5124 -0.2033
  518WAT     H1 1765   3.400   0.989   1.959  0.3949  0.9900 -0.8879
  518WAT     H2 1766   3.499   0.959   2.068 -1.6977 -0.0943  0.7899
  519WAT      O 1767   1.591   3.660   0.176  0.0154  0.4756  0.3159
  519WAT     H1 1768   1.564   3.733   0.121 -0.5259  0.5052  0.6215
  519WAT     H2 1769   1.518   3.598   0.172  0.5320 -0.1318 -0.0757
  520WAT      O 1770   3.838   0.129   1.700 -0.4307  0.2481 -0.0280
  520WAT     H1 1771   3.923   0.171   1.690  0.9342 -1.4182  3.1098
  520WAT     H2 1772   3.843   0.052   1.642  0.3563 -0.0104  0.3662
  521WAT      O 1773   3.326   2.593   4.828 -0.4492  0.0587 -0.2871
  521WAT     H1 1774   3.344   2.615   4.736  0.1694  1.0431  0.0506
  521WAT     H2 1775   3.390   2.644   4.877 -1.0971 -0.0772  0.7209
  522WAT      O 1776   1.450   4.282   4.867  0.1609  0.2557 -0.5460
  522WAT     H1 1777   1.502   4.337   4.926 -1.0525  1.3836 -0.4666
  522WAT     H2 1778   1.489   4.297   4.781  0.0174  1.0683 -0.4838
  523WAT      O 1779   2.638   1.030   1.535  0.5194 -0.2395 -0.3353
  523WAT     H1 1780   2.601   0.963   1.593 -1.8436  1.2649  0.0004
  523WAT     H2 1781   2.661   0.981   1.455 -1.3003 -1.4516 -0.1770
  524WAT      O 1782   3.342   4.621   5.128  0.0412 -0.3239 -0.8167
  524WAT     H1 1783   3.434   4.617   5.101 -0.0404  0.2718 -1.2006
  524WAT     H2 1784   3.345   4.624   5.224  0.4168 -0.4809 -0.8231
  525WAT      O 1785   0.171   1.176   1.976 -0.0409  0.4107 -0.6781
  525WAT     H1 1786   0.080   1.156   1.953  0.2468  1.1474 -2.5993
  525WAT     H2 1787   0.182   1.136   2.062 -1.3283 -2.2386 -1.6038
  526WAT      O 1788   2.264   3.230   1.047  0.1228  0.3346  0.0917
  526WAT     H1 1789   2.200   3.172   1.089 -0.2292 -0.1145 -1.0293
  526WAT     H2 1790   2.283   3.188   0.963  2.2645  0.2219  0.5985
  527WAT      O 1791   3.268   2.185   2.790  0.2356  0.1350  0.5779
  527WAT     H1 1792   3.246   2.178   2.697 -0.1701  3.3941  0.3183
  527WAT     H2 1793   3.256   2.097   2.824  0.5640 -1.2131 -2.4659
  528WAT      O 1794   3.547   1.856   2.513 -0.6329  0.1578 -0.1420
  528WAT     H1 1795   3.558   1.932   2.571 -0.3218  0.4184 -0.5378
  528WAT     H2 1796   3.505   1.790   2.568 -1.2902  0.7630  0.0863
  529WAT      O 1797   0.251   4.997   5.225  0.3701 -0.1481 -0.0955
  529WAT     H1 1798   0.190   4.927   5.247 -0.0975  0.2148 -0.2240
  529WAT     H2 1799   0.326   4.953   5.186  0.8016 -0.7307  1.3243
  530WAT      O 1800   0.439   3.529   1.992 -0.1408  0.4442  0.1955
  530WAT     H1 1801   0.519   3.581   1.985  1.4567 -1.9377 -1.0376
  530WAT     H2 1802   0.370   3.592   2.013  1.9609  2.6773  0.8339
  531WAT      O 1803   0.054   4.112   0.866  0.0411 -1.0673  0.0063
  531WAT     H1 1804   0.097   4.133   0.949  0.0179  0.2010 -0.2697
  531WAT     H2 1805   0.102   4.037   0.832 -0.3742 -2.0334  1.4765
  532WAT      O 1806   0.352   0.045   4.585  0.5446  0.4253 -0.1232
  532WAT     H1 1807   0.320  -0.045   4.592 -0.3401  0.6752 -0.6920
  532WAT     H2 1808   0.353   0.078   4.675  2.1345 -0.5504  0.2489
  533WAT      O 1809   1.322   4.151   3.731  0.1470  0.4869  0.1052
  533WAT     H1 1810   1.292   4.240   3.714  0.8909  0.7593  0.1733
  533WAT     H2 1811   1.339   4.115   3.644 -1.2804 -0.0084  0.0056
  534WAT      O 1812   4.354   2.908   0.565 -0.1987  0.3205 -0.1446
  534WAT     H1 1813   4.351   2.948   0.651 -1.3076  0.8656 -0.4186
  534WAT     H2 1814   4.309   2.971   0.508 -1.6551 -1.1086 -0.6536
  535WAT      O 1815   3.391   1.833   0.371 -1.1114  0.1586 -0.3344
  535WAT     H1 1816   3.377   1.927   0.368 -0.4430  0.3614  1.6476
  535WAT     H2 1817   3.426   1.816   0.458 -0.3646 -1.8144 -0.9495
  536WAT      O 1818   3.967   5.039   4.007 -0.1727  0.2630 -0.4462
  536WAT     H1 1819   4.016   5.120   4.016  0.1999 -0.0584  0.5156
  536WAT     H2 1820   4.032   4.974   3.982 -0.1391 -0.1115  0.5823
  537WAT      O 1821   2.927   2.100   4.558  0.2152 -0.1012  0.3868
  537WAT     H1 1822   2.847   2.151   4.568 -0.1970 -0.7940  0.6542
  537WAT     H2 1823   2.952   2.075   4.647 -0.5070 -1.7538  0.1623
  538WAT      O 1824   3.209   3.355   3.176 -0.2298  0.2769  0.1584
  538WAT     H1 1825   3.138   3.420   3.167  0.0345  0.6378  0.6948
  538WAT     H2 1826   3.181   3.299   3.248 -0.8042 -0.6594 -0.7693
  539WAT      O 1827   4.169   3.618   0.604  0.2993  0.0151  0.2589
  539WAT     H1 1828   4.156   3.645   0.513 -0.5994  2.5649  1.0533
  539WAT     H2 1829   4.264   3.604   0.611  0.2124 -1.7182 -1.3939
  540WAT      O 1830   2.577   1.370   0.011 -0.5058  0.1010  0.3494
  540WAT     H1 1831   2.559   1.280   0.038 -1.1667  0.7050  2.0341
  540WAT     H2 1832   2.667   1.386   0.040 -1.2093  0.7440  2.3076
  541WAT      O 1833   2.397   0.219   0.117  0.1347 -0.1836 -0.3770
  541WAT     H1 1834   2.484   0.252   0.096  0.2603 -0.5598 -0.4565
  541WAT     H2 1835   2.345   0.297   0.136  0.1147  0.1414 -1.6989
  542WAT      O 1836   2.407   2.335   2.669 -0.4441  0.3041  0.0522
  542WAT     H1 1837   2.382   2.244   2.684 -1.9555  0.6101 -0.4359
  542WAT     H2 1838   2.453   2.361   2.748 -0.0196 -0.8673  0.2097
  543WAT      O 1839   1.648   1.450   0.069 -0.4115  0.4946  0.7853
  543WAT     H1 1840   1.671   1.464  -0.023  2.7672 -0.2285  1.3723
  543WAT     H2 1841   1.628   1.356   0.074  1.9450 -0.0506  1.2073
  544WAT      O 1842   3.931   1.185   0.455 -0.5016 -0.0230  0.1553
  544WAT     H1 1843   3.932   1.093   0.480 -2.5080 -1.2048 -3.4563
  544WAT     H2 1844   3.844   1.216   0.480  0.2631  1.0722  1.6267
  545WAT      O 1845   1.614   0.835   4.127 -0.2411 -0.1562 -0.1834
  545WAT     H1 1846   1.706   0.836   4.152  0.0284 -1.3297 -1.0433
  545WAT     H2 1847   1.615   0.844   4.032 -1.1327  1.9745 -0.0438
  546WAT      O 1848   1.635   1.675   4.154 -0.1792  0.7508  0.4325
  546WAT     H1 1849   1.560   1.647   4.206 -0.4117 -0.2041 -0.3837
  546WAT     H2 1850   1.657   1.762   4.188 -0.1240  0.0445  2.3145
  547WAT      O 1851   1.701   0.817   2.820  0.2438  0.2414 -0.0415
  547WAT     H1 1852   1.651   0.761   2.760 -0.4596  0.5308  0.2725
  547WAT     H2 1853   1.639   0.841   2.889  1.5063 -1.6521  1.9008
  548WAT      O 1854   1.137   1.745   1.750 -0.3786  0.4979  0.1332
  548WAT     H1 1855   1.225   1.748   1.712 -0.2418  0.2580  0.4289
  548WAT     H2 1856   1.089   1.685   1.694  0.3246 -1.2721  1.3556
  549WAT      O 1857   4.557   0.259   4.581 -0.1176  0.3125 -0.5140
  549WAT     H1 1858   4.486   0.311   4.617 -0.1127  0.5502 -0.8529
  549WAT     H2 1859   4.539   0.170   4.611 -0.2841  0.4559 -0.1850
  550WAT      O 1860   3.366   3.100   1.846 -0.3740  0.0738 -0.0693
  550WAT     H1 1861   3.339   3.120   1.936  0.6739  0.2491  0.2186
  550WAT     H2 1862   3.395   3.184   1.811 -0.3243 -0.0882 -0.4133
  551WAT      O 1863   3.514   4.417   2.559  0.0801  0.1570 -0.0256
  551WAT     H1 1864   3.485   4.409   2.649 -0.4759 -0.5396 -0.2556
  551WAT     H2 1865   3.589   4.476   2.563 -1.2723  1.9270  0.5984
  552WAT      O 1866   2.887   3.204   4.662 -0.1294  0.2492 -0.1629
  552WAT     H1 1867   2.946   3.271   4.698  0.0705  0.3772 -0.7090
  552WAT     H2 1868   2.869   3.235   4.572 -1.0611  0.2295  0.0095
  553WAT      O 1869   3.108   4.993   0.761  0.0991 -0.1955  0.6177
  553WAT     H1 1870   3.035   5.040   0.720  0.1101 -0.3966  0.3669
  553WAT     H2 1871   3.092   5.003   0.855 -0.9108 -1.2333  0.5736
  554WAT      O 1872   2.941   4.947   1.834 -0.2672 -0.3941 -0.0365
  554WAT     H1 1873   3.031   4.979   1.828 -0.6585  0.5871 -0.9320
  554WAT     H2 1874   2.919   4.954   1.926  0.5244 -0.5318  0.1744
  555WAT      O 1875   2.574   4.373   0.865  0.2230 -0.6306 -0.5056
  555WAT     H1 1876   2.505   4.367   0.931 -1.2207 -1.3047 -1.9855
  555WAT     H2 1877   2.570   4.463   0.833 -1.2587 -1.1136 -1.8245
  556WAT      O 1878   0.422   1.622   0.369  0.0429 -0.6225 -0.0728
  556WAT     H1 1879   0.470   1.610   0.451 -0.4908 -1.6922  0.1045
  556WAT     H2 1880   0.368   1.543   0.362 -1.4226  0.3752 -0.4345
  557WAT      O 1881   3.761   3.893   3.527  0.0899  0.6145 -0.3041
  557WAT     H1 1882   3.830   3.947   3.488  0.5752  1.0953  1.1390
  557WAT     H2 1883   3.681   3.944   3.516  0.4855  1.5043  0.7124
  558WAT      O 1884   2.686   1.994   2.654 -0.3842 -0.1539 -0.2138
  558WAT     H1 1885   2.595   2.011   2.681 -0.2456  1.9127 -0.8420
  558WAT     H2 1886   2.738   2.021   2.730 -0.1992  1.6190 -0.9137
  559WAT      O 1887   0.945   4.000   2.598 -0.1519 -0.0252  0.1411
  559WAT     H1 1888   0.994   4.009   2.680 -2.3504  0.2183  1.5156
  559WAT     H2 1889   0.962   3.910   2.570  1.0765  0.0600  0.5486
  560WAT      O 1890   0.964   0.082   3.266 -0.7652 -0.3532  0.5211
  560WAT     H1 1891   1.032   0.072   3.333 -1.5330  0.7103  1.4985
  560WAT     H2 1892   0.884   0.101   3.316 -2.0971 -2.8181 -0.5045
  561WAT      O 1893   3.806   4.375   1.785  0.1351 -0.0344  0.1638
  561WAT     H1 1894   3.747   4.441   1.749  0.8634  0.4087 -0.2334
  561WAT     H2 1895   3.892   4.399   1.752  0.4050 -1.2464 -0.0754
  562WAT      O 1896   2.251   3.507   1.763 -0.1585  0.4111  0.0059
  562WAT     H1 1897   2.187   3.442   1.792  0.0572 -0.6018 -1.6847
  562WAT     H2 1898   2.336   3.468   1.786 -0.0313  0.1009 -0.9434
  563WAT      O 1899   3.239   4.481   3.098 -0.0413  0.3786  0.2121
  563WAT     H1 1900   3.274   4.540   3.031  1.1512 -0.8122 -0.2749
  563WAT     H2 1901   3.154   4.452   3.063  0.1813  0.4343 -0.3870
  564WAT      O 1902   0.755   2.276   1.547 -0.1413 -0.6715  0.9318
  564WAT     H1 1903   0.782   2.222   1.622  0.6474 -0.7672  0.5880
  564WAT     H2 1904   0.701   2.345   1.585  1.5524  0.2360  1.8227
  565WAT      O 1905   2.229   1.046   2.273  0.5869 -0.1805  0.0456
  565WAT     H1 1906   2.303   0.991   2.298  0.4419 -0.8309 -0.9180
  565WAT     H2 1907   2.234   1.052   2.178  0.0755  0.7454  0.0612
  566WAT      O 1908   1.014   5.061   0.291  0.0610  0.0885 -0.4922
  566WAT     H1 1909   1.066   4.987   0.259  0.7487  0.3087  0.0901
  566WAT     H2 1910   0.936   5.021   0.330  0.3854 -0.3257 -0.2603
  567WAT      O 1911   2.594   1.179   2.580 -0.0673  0.2096  0.1971
  567WAT     H1 1912   2.610   1.089   2.609  1.8546  0.0227 -1.2847
  567WAT     H2 1913   2.511   1.173   2.533  0.8098 -1.1731 -1.2739
  568WAT      O 1914   4.307   1.907   1.222  0.4673 -0.0073  0.2401
  568WAT     H1 1915   4.304   1.873   1.312 -2.1426  1.6174  0.8942
  568WAT     H2 1916   4.338   1.833   1.169  2.4575 -0.8960  2.4663
  569WAT      O 1917   3.014   1.715   1.683 -0.6084 -0.4484  0.6710
  569WAT     H1 1918   3.063   1.719   1.601 -1.5083  0.7937  0.1601
  569WAT     H2 1919   3.066   1.766   1.744  0.0819 -1.4047  0.9116
  570WAT      O 1920   4.083   1.726   3.210  0.5503 -0.0164  0.3785
  570WAT     H1 1921   4.088   1.735   3.305 -0.5293 -0.7675  0.5267
  570WAT     H2 1922   4.171   1.701   3.184  0.8808  0.2842  1.1669
  571WAT      O 1923   4.404   1.210   1.370  0.0482  0.0555 -0.4837
  571WAT     H1 1924   4.334   1.254   1.323  0.1665  1.5485  0.6715
  571WAT     H2 1925   4.459   1.281   1.403  0.4414 -0.9558  1.1393
  572WAT      O 1926   0.804   1.300   1.491 -0.0545  0.2639  0.1698
  572WAT     H1 1927   0.772   1.325   1.578  0.5067  1.7268 -0.0152
  572WAT     H2 1928   0.743   1.343   1.431  1.3692  1.9138 -0.1679
  573WAT      O 1929   0.284   4.904   1.364 -0.9754 -0.3862 -0.5106
  573WAT     H1 1930   0.275   4.813   1.339 -0.1960 -0.1891 -1.5695
  573WAT     H2 1931   0.291   4.902   1.460  0.8072 -1.6158 -0.6272
  574WAT      O 1932   4.438   2.687   4.333 -0.3812  0.0223  0.2850
  574WAT     H1 1933   4.432   2.783   4.336  2.2628  0.3308 -1.1222
  574WAT     H2 1934   4.495   2.664   4.408  0.5941 -0.1986 -0.4980
  575WAT      O 1935   3.718   2.035   1.373  0.0031  0.2623  0.1950
  575WAT     H1 1936   3.783   2.066   1.437  0.6674 -0.0313 -0.3316
  575WAT     H2 1937   3.758   2.054   1.288 -1.5557  2.1283 -0.1965
  576WAT      O 1938   2.758   4.491   1.489  0.6981  0.3343  0.1127
  576WAT     H1 1939   2.719   4.442   1.417  2.6120  2.1457 -2.3262
  576WAT     H2 1940   2.687   4.502   1.552 -1.7592  0.5809 -2.5153
  577WAT      O 1941   1.504   5.108   0.579 -0.1254  0.4743  0.1475
  577WAT     H1 1942   1.449   5.120   0.501 -0.8384 -0.5654  0.4761
  577WAT     H2 1943   1.492   5.189   0.629 -3.2225 -0.5655  1.3446
  578WAT      O 1944   4.460   4.887   2.503  0.4588 -0.6857 -0.0033
  578WAT     H1 1945   4.390   4.845   2.552  0.2621  0.6522  0.9207
  578WAT     H2 1946   4.535   4.887   2.563  0.1370  1.2115  0.4880
  579WAT      O 1947   0.228   2.827   1.351 -0.3478 -0.0534  0.4135
  579WAT     H1 1948   0.271   2.912   1.357 -0.5372  0.0710  0.0307
  579WAT     H2 1949   0.137   2.847   1.331 -0.5334 -0.3257  0.9620
  580WAT      O 1950   2.024   1.760   4.381  0.0108 -0.7594  0.0144
  580WAT     H1 1951   2.023   1.707   4.461  0.4589 -1.2694 -0.3085
  580WAT     H2 1952   2.089   1.828   4.399 -1.1462  0.2012  0.7389
  581WAT      O 1953   3.759   1.675   2.440 -0.2055 -0.0376  0.3764
  581WAT     H1 1954   3.784   1.661   2.349  0.7941  0.6921  0.5194
  581WAT     H2 1955   3.707   1.756   2.438  0.4810  0.4234  0.5350
  582WAT      O 1956   3.573   4.651   4.126  0.4104  0.2900  0.3051
  582WAT     H1 1957   3.504   4.712   4.152  0.4464  0.0370  1.0178
  582WAT     H2 1958   3.558   4.635   4.033  0.5517  1.5799  0.0451
  583WAT      O 1959   3.516   2.267   2.857  0.2649 -0.1427 -0.3204
  583WAT     H1 1960   3.499   2.254   2.950  1.2292  1.2419  0.0739
  583WAT     H2 1961   3.430   2.257   2.815 -0.0474 -1.5920  0.5876
  584WAT      O 1962   3.820   1.186   2.475  0.1991  0.2922 -0.3052
  584WAT     H1 1963   3.823   1.099   2.435 -0.4867  0.5349 -0.8934
  584WAT     H2 1964   3.811   1.246   2.401 -0.0118  0.8209  0.1460
  585WAT      O 1965   1.843   0.200   4.433 -0.5712 -0.4715 -0.2786
  585WAT     H1 1966   1.840   0.183   4.527 -0.5276 -0.1514 -0.2170
  585WAT     H2 1967   1.872   0.291   4.426  1.3875 -1.0768 -0.6527
  586WAT      O 1968   3.834   4.895   0.338 -0.0670 -0.3252  0.0484
  586WAT     H1 1969   3.783   4.929   0.264  0.5286 -0.0502 -0.2392
  586WAT     H2 1970   3.811   4.953   0.410  1.7263  1.4155 -0.6787
  587WAT      O 1971   0.474   4.177   1.613 -0.2305  0.4827  0.0008
  587WAT     H1 1972   0.494   4.262   1.573  0.6966  0.4169  0.2901
  587WAT     H2 1973   0.382   4.184   1.640 -0.0410  1.5704  0.4185
  588WAT      O 1974   0.852   4.989   4.659 -0.6786  0.3774  0.8506
  588WAT     H1 1975   0.874   5.080   4.643 -0.5524  0.1949 -0.0669
  588WAT     H2 1976   0.897   4.941   4.590  0.1400 -0.4911  1.9486
  589WAT      O 1977   0.539   0.621   2.922 -0.3184 -0.1472  0.1746
  589WAT     H1 1978   0.587   0.626   3.005  0.8674  0.7026 -0.5402
  589WAT     H2 1979   0.536   0.528   2.901  3.2469 -0.1330 -0.9937
  590WAT      O 1980   2.360   4.221   0.017  0.0812  0.2234 -0.4921
  590WAT     H1 1981   2.341   4.297  -0.038 -0.9873 -0.0162 -0.4642
  590WAT     H2 1982   2.277   4.174   0.024  0.5658 -0.5849  0.0577
  591WAT      O 1983   0.079   2.641   2.547  0.1154 -0.3530 -0.4187
  591WAT     H1 1984   0.085   2.640   2.451 -0.4545 -0.5097 -0.4563
  591WAT     H2 1985   0.168   2.622   2.577  0.4989  0.5792 -0.9103
  592WAT      O 1986   0.616   1.345   3.740 -0.5576  0.0641  0.1475
  592WAT     H1 1987   0.542   1.285   3.737  0.0920 -0.7804  0.6367
  592WAT     H2 1988   0.691   1.290   3.762 -0.3957  1.4453  3.5963
  593WAT      O 1989   3.741   4.543   2.807 -0.9135 -0.6884  0.9144
  593WAT     H1 1990   3.654   4.504   2.803  0.1732 -3.2906 -1.1173
  593WAT     H2 1991   3.763   4.561   2.715  0.6225  0.0045  1.3864
  594WAT      O 1992   0.882   4.405   4.601 -0.1661 -0.2306  0.1277
  594WAT     H1 1993   0.955   4.466   4.593  0.2080 -0.8405 -1.2822
  594WAT     H2 1994   0.846   4.422   4.688  1.6261  0.0920  0.8314
  595WAT      O 1995   0.605   4.925   1.423 -0.3102 -0.1640  0.2258
  595WAT     H1 1996   0.664   4.990   1.385 -0.5276  0.0119  0.1839
  595WAT     H2 1997   0.546   4.976   1.479 -1.8079 -0.0236 -1.4014
  596WAT      O 1998   2.058   3.646   1.509 -0.2944  0.1134 -0.0086
  596WAT     H1 1999   2.117   3.718   1.488  0.2285 -0.2976  0.0367
  596WAT     H2 2000   2.077   3.625   1.600  0.2142 -0.6948 -0.2939
  597WAT      O 2001   1.408   3.805   2.966 -0.0585 -0.2099  0.2001
  597WAT     H1 2002   1.437   3.844   2.883 -2.7335  2.0124  0.1556
  597WAT     H2 2003   1.485   3.760   2.999  1.5973  0.2409 -2.6704
  598WAT      O 2004   3.449   4.651   1.877 -0.0461 -0.0753  0.3555
  598WAT     H1 2005   3.421   4.743   1.868 -0.8275 -0.0768  2.1115
  598WAT     H2 2006   3.496   4.632   1.797  0.9260  2.1529  0.3117
  599WAT      O 2007   2.497   4.617   4.395  0.2811 -0.3513  0.5525
  599WAT     H1 2008   2.551   4.691   4.423  1.4883 -0.6475 -0.8710
  599WAT     H2 2009   2.409   4.638   4.428  0.5359  1.8277 -0.0092
  600WAT      O 2010   2.201   0.445   0.068  0.1138 -0.3342 -0.4931
  600WAT     H1 2011   2.255   0.511   0.025  0.4126  0.0503  0.4713
  600WAT     H2 2012   2.148   0.408  -0.003  1.3595 -0.4478 -1.3892
  601WAT      O 2013   0.027   1.230   5.200  0.9589 -0.2085 -0.0575
  601WAT     H1 2014  -0.022   1.291   5.144 -0.3431 -0.4049  0.8098
  601WAT     H2 2015   0.051   1.158   5.142  2.2126  0.9362 -1.0165
  602WAT      O 2016   4.102   5.006   1.311  0.0147 -0.1324  1.0769
  602WAT     H1 2017   4.037   4.949   1.270  2.1445 -1.6930 -0.2732
  602WAT     H2 2018   4.184   4.986   1.266  1.0818  3.3012  1.2504
  603WAT      O 2019   2.346   1.764   1.159  0.5039  0.3524  0.3917
  603WAT     H1 2020   2.373   1.704   1.229 -1.7546 -2.3983 -0.8492
  603WAT     H2 2021   2.274   1.814   1.197  0.1179 -0.2454  0.4764
  604WAT      O 2022   2.804   0.666   4.126 -0.2503 -0.5852 -0.2357
  604WAT     H1 2023   2.837   0.675   4.215 -1.4682 -0.3473  0.2151
  604WAT     H2 2024   2.796   0.572   4.113 -0.0683 -0.6200 -0.0947
  605WAT      O 2025   3.604   0.852   1.667 -0.5462  0.3545 -0.1470
  605WAT     H1 2026   3.529   0.894   1.708 -0.9706 -0.7760  0.2929
  605WAT     H2 2027   3.680   0.886   1.714 -0.6471  2.4348 -1.3995
  606WAT      O 2028   4.261   2.428   0.459  0.4144 -0.0683  0.1639
  606WAT     H1 2029   4.341   2.406   0.410 -1.2301  1.7356 -3.7648
  606WAT     H2 2030   4.259   2.523   0.462 -1.1488 -0.0839  1.0200
  607WAT      O 2031   0.307   1.919   1.592  0.0168 -0.1709  0.2626
  607WAT     H1 2032   0.300   1.878   1.678  1.0097  1.7979  1.3416
  607WAT     H2 2033   0.397   1.900   1.564  0.5213  1.2631  0.8195
  608WAT      O 2034   3.134   4.852   3.086  0.6488 -0.4078 -0.3336
  608WAT     H1 2035   3.047   4.814   3.072  1.2655 -2.2785  0.5077
  608WAT     H2 2036   3.134   4.877   3.178  1.4081 -1.6531  0.0298
  609WAT      O 2037   0.907   1.479   4.185  0.1385 -0.2344  0.1967
  609WAT     H1 2038   0.878   1.569   4.175 -0.1925 -0.3516  0.0728
  609WAT     H2 2039   0.841   1.438   4.242 -0.2526 -0.6431 -0.5260
  610WAT      O 2040   1.676   4.969   3.320  0.5254 -0.5898 -0.4189
  610WAT     H1 2041   1.684   5.048   3.373 -1.0155 -2.2438  2.5515
  610WAT     H2 2042   1.671   5.001   3.230  0.6420  2.6104  0.5910
  611WAT      O 2043   2.566   5.105   3.417  0.1459  0.5133 -0.0993
  611WAT     H1 2044   2.622   5.153   3.356  0.9128  1.6755  1.4567
  611WAT     H2 2045   2.477   5.135   3.397  0.6225  2.8771  1.0057
  612WAT      O 2046   1.054   3.377   2.988 -0.0955  0.1816  0.6558
  612WAT     H1 2047   1.018   3.292   2.962  0.7412  0.0859 -0.2275
  612WAT     H2 2048   1.028   3.436   2.918  0.2417  0.4269  0.7376
  613WAT      O 2049   1.456   3.018   2.168  0.1186  0.3197 -0.9846
  613WAT     H1 2050   1.477   3.099   2.121 -2.5036  0.8441 -1.4246
  613WAT     H2 2051   1.362   3.024   2.185  0.2271 -1.7057  0.8359
  614WAT      O 2052   0.143   1.364   3.323  0.4180 -0.7580  0.1720
  614WAT     H1 2053   0.130   1.322   3.408  2.3720 -0.1960  0.8064
  614WAT     H2 2054   0.226   1.328   3.291 -0.3896 -1.1459 -1.6521
  615WAT      O 2055   1.195   3.523   5.267 -0.5993  0.0798  0.6893
  615WAT     H1 2056   1.104   3.549   5.283 -0.3364  1.1274  0.5556
  615WAT     H2 2057   1.208   3.535   5.173  0.0381  1.2109  0.8943
  616WAT      O 2058   1.353   5.117   0.339 -0.0912  0.5545 -0.8974
  616WAT     H1 2059   1.308   5.051   0.286 -0.3751  1.6944 -2.1393
  616WAT     H2 2060   1.391   5.177   0.274  1.8373  0.5486  0.1413
  617WAT      O 2061   1.202   2.139   1.363 -0.4144 -0.6069  0.5475
  617WAT     H1 2062   1.245   2.148   1.448 -0.5884 -2.7441  0.9021
  617WAT     H2 2063   1.144   2.215   1.357 -0.9974 -0.8286  2.6924
  618WAT      O 2064   1.525   2.848   2.370  0.5859 -0.0654  0.2770
  618WAT     H1 2065   1.603   2.792   2.364 -0.6420 -1.7594 -0.7340
  618WAT     H2 2066   1.523   2.895   2.286  0.1290 -0.6144 -0.0311
  619WAT      O 2067   3.836   2.074   3.181 -0.0602  0.2793  0.6765
  619WAT     H1 2068   3.819   2.147   3.121 -0.2396 -0.9004 -0.7320
  619WAT     H2 2069   3.768   2.010   3.161  1.6159 -1.3741  0.0980
  620WAT      O 2070   1.498   0.953   0.349 -0.1860  0.1026  0.0126
  620WAT     H1 2071   1.582   0.999   0.351 -0.5393  0.7652 -0.0022
  620WAT     H2 2072   1.441   1.011   0.298 -0.5141 -0.5815 -0.4179
  621WAT      O 2073   2.206   1.056  -0.005 -0.1773  0.1246 -0.0330
  621WAT     H1 2074   2.192   0.983   0.055  0.4591  0.1188  0.1126
  621WAT     H2 2075   2.229   1.130   0.052  0.4205  0.1213 -0.2585
  622WAT      O 2076   2.408   4.399   2.490  0.4390 -0.0605  0.8782
  622WAT     H1 2077   2.495   4.388   2.528  0.8861  0.2889 -0.0094
  622WAT     H2 2078   2.347   4.372   2.559  1.1920  1.0942  2.0342
  623WAT      O 2079   2.801   3.282   5.192  0.1244  0.5842 -0.0691
  623WAT     H1 2080   2.715   3.240   5.191  0.3586  0.1031  0.0761
  623WAT     H2 2081   2.782   3.373   5.217 -0.2756  0.3373  0.5451
  624WAT      O 2082   0.314   3.907   0.541  0.0103 -0.6676  0.9073
  624WAT     H1 2083   0.393   3.856   0.559  0.0087 -1.0290 -0.0385
  624WAT     H2 2084   0.333   3.994   0.576  1.5928 -0.1979 -0.9163
  625WAT      O 2085   1.983   2.788   3.154 -0.2661 -0.7885 -0.7581
  625WAT     H1 2086   2.023   2.873   3.143  0.7025 -1.2053 -0.5209
  625WAT     H2 2087   1.900   2.805   3.199  1.6514 -0.2968  2.9353
  626WAT      O 2088   2.180   4.312   4.866  0.1510  0.3084  0.0880
  626WAT     H1 2089   2.128   4.390   4.846 -0.8424 -0.0421  1.1892
  626WAT     H2 2090   2.120   4.239   4.849  0.8028 -0.1786 -0.1416
  627WAT      O 2091   0.899   3.368   5.038  0.0096 -0.3900  0.3450
  627WAT     H1 2092   0.893   3.433   5.109 -1.3660 -0.6943  0.5421
  627WAT     H2 2093   0.809   3.362   5.004  0.3711 -1.2867 -0.4934
  628WAT      O 2094   2.761   3.779   0.382  0.2288  0.0168  0.0901
  628WAT     H1 2095   2.789   3.773   0.291  3.7505  1.2027  0.9360
  628WAT     H2 2096   2.730   3.869   0.392  1.8207  0.5596  0.4603
  629WAT      O 2097   3.826   2.314   2.999  0.8212 -0.6374  0.1005
  629WAT     H1 2098   3.789   2.392   3.042  2.8001 -0.4074  1.5123
  629WAT     H2 2099   3.807   2.327   2.906  0.2390  1.0509  0.4218
  630WAT      O 2100   1.370   0.581   0.455  0.1852 -0.1104  0.5012
  630WAT     H1 2101   1.316   0.611   0.381 -0.0429  0.1476  0.7681
  630WAT     H2 2102   1.379   0.659   0.510 -0.3674 -0.5219  1.1823
  631WAT      O 2103   3.362   1.599   0.966 -0.5446 -0.0804  0.0941
  631WAT     H1 2104   3.419   1.669   0.998  0.5576 -0.9586  0.1143
  631WAT     H2 2105   3.305   1.579   1.041  0.0456 -0.1282  0.5403
  632WAT      O 2106   1.080   4.357   1.183  0.2683 -0.3541  0.5883
  632WAT     H1 2107   1.043   4.277   1.220 -0.3469  0.1127  1.0186
  632WAT     H2 2108   1.056   4.426   1.246  2.1059 -0.0567  1.0074
  633WAT      O 2109   1.199   1.414   2.805 -0.4047 -0.1522  0.5111
  633WAT     H1 2110   1.245   1.496   2.825 -2.1265  0.8831  0.4892
  633WAT     H2 2111   1.175   1.378   2.890 -0.7444  0.0507  0.5059
  634WAT      O 2112   0.101   2.477   0.061 -0.1785 -0.2331 -0.1119
  634WAT     H1 2113   0.108   2.573   0.058 -0.2618 -0.1988  0.6270
  634WAT     H2 2114   0.109   2.450  -0.030 -0.1790  0.4809 -0.3318
  635WAT      O 2115   1.569   3.346   5.166 -0.0602  0.3752  0.1212
  635WAT     H1 2116   1.620   3.389   5.235  1.5289 -1.7450  0.3467
  635WAT     H2 2117   1.541   3.418   5.109  2.3339  1.7501  0.5512
  636WAT      O 2118   4.504   3.203   1.814  0.0937 -0.1092  0.3250
  636WAT     H1 2119   4.468   3.116   1.794  1.8946 -0.4385 -1.7808
  636WAT     H2 2120   4.542   3.193   1.902 -0.8414 -1.0518  0.6470
  637WAT      O 2121   1.335   2.123   1.590  0.3997 -0.4669  0.5446
  637WAT     H1 2122   1.375   2.037   1.604  0.4957 -0.3737  0.8456
  637WAT     H2 2123   1.294   2.144   1.674 -1.6974 -1.2957 -0.2114
  638WAT      O 2124   4.312   2.684   0.160  0.5387  0.6381 -0.7781
  638WAT     H1 2125   4.233   2.665   0.109  0.7940  0.9291 -1.2892
  638WAT     H2 2126   4.284   2.677   0.251 -0.0727  0.7311 -0.9559
  639WAT      O 2127   3.489   2.393   0.520  0.0108 -0.2153 -0.3148
  639WAT     H1 2128   3.543   2.368   0.445  1.4323  1.9774 -0.0922
  639WAT     H2 2129   3.535   2.357   0.596 -0.7356 -1.3098 -0.3563
  640WAT      O 2130   3.709   2.387   4.033 -0.2040  0.0355  0.3484
  640WAT     H1 2131   3.764   2.354   3.962  0.9220 -1.5270  1.8857
  640WAT     H2 2132   3.629   2.335   4.027 -0.5401  0.6055 -0.3565
  641WAT      O 2133   3.034   1.956   1.381 -0.2904  0.5353 -0.3317
  641WAT     H1 2134   3.051   2.001   1.298 -1.4412 -0.7645 -1.3283
  641WAT     H2 2135   2.949   1.989   1.409 -0.2631  0.3904 -0.0772
  642WAT      O 2136   2.687   3.394   3.754  0.9892  0.0080  0.1239
  642WAT     H1 2137   2.760   3.332   3.762  1.5161  0.7685  1.4558
  642WAT     H2 2138   2.706   3.443   3.674 -0.0888 -2.3223 -1.6806
  643WAT      O 2139   3.753   2.639   2.958  0.6425 -0.1184 -0.4655
  643WAT     H1 2140   3.722   2.627   2.868  1.5376  1.6125 -1.0625
  643WAT     H2 2141   3.675   2.664   3.007  0.0935 -1.3391 -0.6741
  644WAT      O 2142   2.230   4.728   2.427  0.2978 -0.6352  0.0613
  644WAT     H1 2143   2.246   4.771   2.343 -0.2000  2.6727  1.5114
  644WAT     H2 2144   2.176   4.651   2.405  1.1083 -0.5025 -2.7050
  645WAT      O 2145   2.719   4.067   4.095 -0.2346  0.1412 -0.4605
  645WAT     H1 2146   2.709   4.042   4.187  0.3738  2.5901  0.3474
  645WAT     H2 2147   2.810   4.048   4.075  0.5723  2.5837  0.5261
  646WAT      O 2148   0.936   0.289   3.914 -0.1108 -0.2455  0.5997
  646WAT     H1 2149   0.972   0.229   3.980  0.8680 -0.6711 -0.2822
  646WAT     H2 2150   0.959   0.247   3.830 -0.5822  0.7059 -0.0127
  647WAT      O 2151   1.897   2.327   0.316 -0.5647  0.3529  0.4746
  647WAT     H1 2152   1.828   2.296   0.257  0.6970 -1.7731 -0.0018
  647WAT     H2 2153   1.852   2.350   0.397 -1.9075 -0.3469 -0.0481
  648WAT      O 2154   2.434   1.940   2.727 -0.6639 -0.2784 -0.5436
  648WAT     H1 2155   2.360   1.880   2.717 -0.9067 -0.3091  1.1880
  648WAT     H2 2156   2.487   1.900   2.796 -1.1113  1.7589  1.0494
  649WAT      O 2157   0.108   2.355   2.974  0.2333  0.5802  0.1693
  649WAT     H1 2158   0.183   2.324   2.923  0.9703 -0.2666  1.6727
  649WAT     H2 2159   0.041   2.375   2.910  1.0660 -0.5801 -1.1092
  650WAT      O 2160   2.483   3.861   1.226 -0.4811 -0.7658 -0.2393
  650WAT     H1 2161   2.449   3.905   1.148 -0.4127  0.9295  0.6372
  650WAT     H2 2162   2.572   3.835   1.203 -0.3653 -0.0250 -0.6344
  651WAT      O 2163   0.215   4.161   1.116  0.3273  0.3373  0.1124
  651WAT     H1 2164   0.195   4.196   1.203  2.3276  0.8993  0.3980
  651WAT     H2 2165   0.309   4.141   1.120  0.6472  1.1831 -2.1845
  652WAT      O 2166   1.752   2.606   2.958 -0.6935 -0.6067  0.3619
  652WAT     H1 2167   1.755   2.555   3.039 -2.5881  0.3744  1.1234
  652WAT     H2 2168   1.669   2.653   2.963  0.3830  1.5752 -0.8874
  653WAT      O 2169   0.919   3.483   3.973 -0.5656 -0.0484  0.2797
  653WAT     H1 2170   0.951   3.393   3.983 -0.5056 -0.2206 -1.2489
  653WAT     H2 2171   0.869   3.482   3.891  2.3125  2.0698 -1.6980
  654WAT      O 2172   3.492   4.373   0.538  0.2529 -0.4428  0.3723
  654WAT     H1 2173   3.402   4.375   0.507  0.7735 -0.3976 -1.1881
  654WAT     H2 2174   3.526   4.461   0.521  0.0332  0.1830  2.7990
  655WAT      O 2175   1.902   0.958   4.436 -0.6546  0.2053  0.1743
  655WAT     H1 2176   1.938   0.918   4.515  2.0994 -0.8644 -1.4631
  655WAT     H2 2177   1.877   0.884   4.381 -1.0094  0.8828 -0.5989
  656WAT      O 2178   0.915   1.810   1.059 -0.3643 -0.5204  0.0495
  656WAT     H1 2179   0.961   1.749   1.117  0.8805 -1.3085 -1.6655
  656WAT     H2 2180   0.967   1.890   1.061 -1.2540  0.0481  1.2710
  657WAT      O 2181   1.160   0.229   1.275  0.2244 -0.0208  0.4677
  657WAT     H1 2182   1.131   0.139   1.288 -1.0865  0.3709  0.4120
  657WAT     H2 2183   1.243   0.234   1.322  0.3584 -1.2754  0.4058
  658WAT      O 2184   3.085   1.813   0.796  0.9599 -0.5103  0.3830
  658WAT     H1 2185   3.030   1.868   0.853 -0.8108 -0.9586 -0.7965
  658WAT     H2 2186   3.136   1.876   0.744  1.1496 -0.0670  1.0896
  659WAT      O 2187   4.315   2.514   2.524  0.5472 -0.4538  0.0953
  659WAT     H1 2188   4.336   2.601   2.558  1.4846 -0.2310 -0.9909
  659WAT     H2 2189   4.399   2.469   2.517  0.1267 -1.2805  0.1756
  660WAT      O 2190   2.793   1.865   4.487 -0.2439 -0.3753 -0.5544
  660WAT     H1 2191   2.835   1.950   4.490  1.4285 -0.9819 -3.3192
  660WAT     H2 2192   2.852   1.807   4.535  0.4186 -0.5956 -1.6103
  661WAT      O 2193   1.857   3.922   4.663  0.1663 -0.4421 -0.0937
  661WAT     H1 2194   1.936   3.963   4.699  0.8766  0.5456 -2.5715
  661WAT     H2 2195   1.786   3.979   4.690  0.6447  0.1672 -0.0944
  662WAT      O 2196   3.390   1.440   1.687 -0.1294  0.2081  0.2163
  662WAT     H1 2197   3.418   1.351   1.706 -0.4791  0.0376 -0.0557
  662WAT     H2 2198   3.469   1.493   1.700 -0.3444  0.1166  2.1196
  663WAT      O 2199   3.140   2.496   1.087 -0.0192 -0.6505 -0.0498
  663WAT     H1 2200   3.171   2.501   1.177  1.8056  1.5931 -0.7073
  663WAT     H2 2201   3.080   2.571   1.079 -2.4033 -2.4425 -0.0056
  664WAT      O 2202   1.112   1.744   4.891  0.1503 -0.1777 -0.5999
  664WAT     H1 2203   1.076   1.678   4.832  2.3141 -1.3171 -0.7194
  664WAT     H2 2204   1.192   1.775   4.848 -0.7379  2.5223 -0.5175
  665WAT      O 2205   3.712   2.555   2.156  0.2578  0.5753  0.1314
  665WAT     H1 2206   3.762   2.586   2.080 -1.4653  3.1747 -0.0738
  665WAT     H2 2207   3.766   2.486   2.194  1.7303 -0.0037 -2.7531
  666WAT      O 2208   2.181   1.367   1.529 -0.0341  0.7695 -0.1114
  666WAT     H1 2209   2.117   1.309   1.488  0.4309 -0.3174  0.6560
  666WAT     H2 2210   2.226   1.312   1.593  0.5754  1.9304  0.4906
  667WAT      O 2211   0.846   2.721   3.316  0.1493 -0.4568 -0.4697
  667WAT     H1 2212   0.898   2.662   3.370  0.7485  1.0908  0.7024
  667WAT     H2 2213   0.797   2.774   3.379 -0.9876 -0.2193 -1.5127
  668WAT      O 2214   3.715   0.397   1.073 -0.2606  0.1976  0.2427
  668WAT     H1 2215   3.776   0.394   1.000 -0.4833 -0.8497  0.0910
  668WAT     H2 2216   3.718   0.488   1.103  1.5092  0.1399  0.3499
  669WAT      O 2217   0.069   3.368   4.998 -0.0095 -0.0694 -0.0377
  669WAT     H1 2218   0.015   3.294   4.970 -1.2045  0.6339  0.3834
  669WAT     H2 2219   0.009   3.426   5.044  1.1111  0.7205  0.4707
  670WAT      O 2220   0.112   4.483   3.497 -0.4858  0.4261 -0.2350
  670WAT     H1 2221   0.117   4.388   3.490 -0.6743  0.3451  0.6570
  670WAT     H2 2222   0.035   4.507   3.444  0.5651  0.2711 -1.8982
  671WAT      O 2223   0.150   0.126   3.559  0.0542 -0.0096  0.3347
  671WAT     H1 2224   0.165   0.114   3.652 -0.1303 -0.2883  0.3298
  671WAT     H2 2225   0.081   0.063   3.537 -0.3162  0.4566  0.1267
  672WAT      O 2226   1.583   3.024   1.739  0.0823 -0.2636  0.1161
  672WAT     H1 2227   1.619   2.937   1.756 -2.3365 -1.1389  1.1013
  672WAT     H2 2228   1.660   3.081   1.733  1.8555 -2.6725 -2.1927
  673WAT      O 2229   3.031   0.791   1.983  0.1393 -0.4521  0.3865
  673WAT     H1 2230   3.012   0.845   1.906  1.9985  1.7799  1.3618
  673WAT     H2 2231   3.096   0.727   1.953 -0.7176 -0.9952 -0.3575
  674WAT      O 2232   1.565   4.377   3.375 -0.0707  0.5786 -0.6004
  674WAT     H1 2233   1.518   4.294   3.386  1.8439 -0.7353 -1.6968
  674WAT     H2 2234   1.506   4.443   3.411 -1.5678 -1.2711  0.5293
  675WAT      O 2235   1.003   4.970   0.931  1.4032  0.1509  0.0262
  675WAT     H1 2236   0.916   4.970   0.972  1.1988  1.8016 -0.3478
  675WAT     H2 2237   1.062   4.940   1.000  0.7470  0.5378  0.7696
  676WAT      O 2238   2.271   0.354   3.728  0.2793  0.3247 -0.6381
  676WAT     H1 2239   2.260   0.327   3.637  0.5479  0.0752 -0.5960
  676WAT     H2 2240   2.214   0.294   3.777 -0.8363  1.2424 -0.7510
  677WAT      O 2241   3.046   4.731   4.556 -0.0819  0.2400 -0.5942
  677WAT     H1 2242   3.128   4.781   4.558  0.3368 -0.4622 -0.1740
  677WAT     H2 2243   2.986   4.783   4.610 -0.0083  0.8966 -1.1210
  678WAT      O 2244   3.433   3.833   2.242 -0.0749  0.3425 -0.2174
  678WAT     H1 2245   3.384   3.782   2.307 -0.8098 -0.1979 -1.1717
  678WAT     H2 2246   3.416   3.924   2.266 -1.0613  0.1600 -0.1525
  679WAT      O 2247   1.145   3.830   0.131  0.3551 -0.1330  0.1081
  679WAT     H1 2248   1.123   3.839   0.038  1.1617 -1.9569 -0.3002
  679WAT     H2 2249   1.217   3.892   0.144  1.5155 -1.1764 -0.9918
  680WAT      O 2250   3.136   3.278   0.212 -0.0495 -0.0609  0.0090
  680WAT     H1 2251   3.046   3.285   0.178  0.6547  1.3445 -1.7223
  680WAT     H2 2252   3.164   3.368   0.224  1.2263 -0.4849  0.2956
  681WAT      O 2253   0.005   3.369   3.829  0.8278  0.0586  0.1238
  681WAT     H1 2254   0.012   3.434   3.898 -0.3096 -0.1100  0.4202
  681WAT     H2 2255   0.026   3.416   3.749 -1.3359  1.1811  0.1443
  682WAT      O 2256   0.002   5.099   1.793  0.6152 -0.0738  0.5269
  682WAT     H1 2257   0.068   5.125   1.857 -0.3852  0.6663  1.2942
  682WAT     H2 2258  -0.012   5.006   1.808  2.0589 -0.4398 -0.2062
  683WAT      O 2259   4.315   2.333   5.220  0.0499 -0.3689  0.2583
  683WAT     H1 2260   4.347   2.298   5.303 -1.7188  0.5313  1.3695
  683WAT     H2 2261   4.349   2.422   5.216  2.4620 -1.2430 -1.3919
  684WAT      O 2262   4.323   4.384   0.995  0.4001  0.4216  0.0288
  684WAT     H1 2263   4.383   4.314   1.018  2.4673  1.3663 -1.9931
  684WAT     H2 2264   4.237   4.353   1.023  1.4997 -2.0010  0.9936
  685WAT      O 2265   1.963   3.219   0.797  0.2795 -0.3921  0.0911
  685WAT     H1 2266   1.972   3.126   0.817 -1.5918 -0.7580 -0.6014
  685WAT     H2 2267   1.869   3.232   0.784  0.6486  1.2914 -1.2616
  686WAT      O 2268   2.916   4.272   3.876 -0.4304  0.2139  0.0709
  686WAT     H1 2269   2.974   4.201   3.848 -1.0562 -0.4576  0.4324
  686WAT     H2 2270   2.949   4.349   3.831 -0.9967 -0.6820 -1.9833
  687WAT      O 2271   0.174   2.288   4.230  0.1171 -0.0863 -0.2328
  687WAT     H1 2272   0.098   2.340   4.257  0.7750  1.8736 -1.9439
  687WAT     H2 2273   0.249   2.331   4.271  0.5082 -0.7656 -0.2240
  688WAT      O 2274   1.667   1.139   1.407 -0.0766 -0.3750  0.0680
  688WAT     H1 2275   1.711   1.224   1.409  0.1218 -0.4865  0.6383
  688WAT     H2 2276   1.624   1.132   1.492  1.3456 -1.5787  0.7503
  689WAT      O 2277   4.046   1.501   3.715 -0.5294 -0.4925 -0.3774
  689WAT     H1 2278   4.131   1.536   3.687  0.2092 -1.4030  0.6711
  689WAT     H2 2279   4.022   1.554   3.791 -0.3284 -1.0103  0.0485
  690WAT      O 2280   3.089   4.231   0.785 -0.4882  0.0173 -0.3397
  690WAT     H1 2281   3.001   4.248   0.753 -0.5316 -2.4288 -1.7790
  690WAT     H2 2282   3.116   4.313   0.826 -4.0866  0.3579  1.7915
  691WAT      O 2283   3.481   3.364   1.773 -0.9284 -0.2804  1.2079
  691WAT     H1 2284   3.438   3.447   1.793  0.9905  0.5854  1.9256
  691WAT     H2 2285   3.498   3.367   1.679  0.5000  0.8460  1.4797
  692WAT      O 2286   2.441   4.618   1.039  0.1509 -0.9622  0.2894
  692WAT     H1 2287   2.359   4.657   1.009  1.0434  0.8430  0.0377
  692WAT     H2 2288   2.506   4.646   0.974  1.2606 -0.9388  1.3739
  693WAT      O 2289   3.252   0.324   2.637 -0.3417 -0.3833  0.2470
  693WAT     H1 2290   3.184   0.330   2.569 -0.8209  1.3649  0.8320
  693WAT     H2 2291   3.264   0.414   2.666  0.8899 -0.9225  1.4895
  694WAT      O 2292   3.480   3.656   2.643 -0.0823  0.0799 -0.5120
  694WAT     H1 2293   3.444   3.603   2.714 -0.6041 -0.4891 -1.1777
  694WAT     H2 2294   3.573   3.663   2.663  0.0318 -1.2287 -0.4787
  695WAT      O 2295   1.220   2.518   2.528 -0.1577  0.2706 -0.2956
  695WAT     H1 2296   1.275   2.596   2.537 -1.5298  1.1362  1.1216
  695WAT     H2 2297   1.253   2.458   2.595 -0.1486  0.2875 -0.2849
  696WAT      O 2298   3.266   2.847   4.152  0.2023  0.2870 -0.0028
  696WAT     H1 2299   3.181   2.848   4.106  0.0830  0.6932  0.2169
  696WAT     H2 2300   3.320   2.908   4.101  0.3612  0.0291 -0.1414
  697WAT      O 2301   3.432   4.024   4.239  0.0684 -0.2717 -0.5096
  697WAT     H1 2302   3.452   3.934   4.266 -1.5894 -0.4436  0.2453
  697WAT     H2 2303   3.337   4.026   4.231  0.0502  1.5040 -0.2056
  698WAT      O 2304   4.322   1.846   0.236  0.0190  0.4180  0.4941
  698WAT     H1 2305   4.357   1.796   0.310 -0.7298 -2.1167 -0.7382
  698WAT     H2 2306   4.230   1.860   0.257 -0.5602 -1.5461 -0.4634
  699WAT      O 2307   0.243   3.623   5.005 -0.3371 -0.4083 -0.6185
  699WAT     H1 2308   0.149   3.608   5.007 -0.4554  0.2039  1.5503
  699WAT     H2 2309   0.252   3.718   4.999  0.1109 -0.4047  0.0016
  700WAT      O 2310   4.425   4.430   2.450 -0.1154  0.2568  0.2477
  700WAT     H1 2311   4.424   4.512   2.500  0.4216  0.6814 -0.4125
  700WAT     H2 2312   4.507   4.434   2.400 -0.6510 -0.1441 -0.6757
  701WAT      O 2313   2.629   2.213   0.369 -0.5622 -0.2864 -0.3889
  701WAT     H1 2314   2.534   2.223   0.359 -0.8189 -1.0220  1.0900
  701WAT     H2 2315   2.641   2.124   0.401  0.4911  0.2739  0.8977
  702WAT      O 2316   4.344   3.297   0.573 -0.1949 -0.2283 -0.1029
  702WAT     H1 2317   4.359   3.384   0.609  0.7173 -0.5234  0.2437
  702WAT     H2 2318   4.401   3.292   0.496 -1.2666 -0.0300 -0.9364
  703WAT      O 2319   0.913   0.791   0.126 -0.4604 -0.4179 -0.1708
  703WAT     H1 2320   0.995   0.830   0.158 -1.9903  2.4986  0.5449
  703WAT     H2 2321   0.904   0.825   0.037 -1.8389  0.9506  0.4636
  704WAT      O 2322   1.196   1.785   0.468 -0.0146 -0.6499  0.5343
  704WAT     H1 2323   1.134   1.764   0.538 -2.4863 -0.6600 -1.5198
  704WAT     H2 2324   1.166   1.869   0.433  0.6729 -1.0084 -1.0159
  705WAT      O 2325   0.653   0.068   1.359  0.1055  0.3245  0.4135
  705WAT     H1 2326   0.643   0.071   1.454  0.7611  0.2108  0.4932
  705WAT     H2 2327   0.568   0.095   1.325 -1.4689 -3.2741  1.0240
  706WAT      O 2328   0.343   1.873   2.347 -0.4251 -0.4763 -0.0874
  706WAT     H1 2329   0.312   1.917   2.427  1.5447 -0.5046  0.7339
  706WAT     H2 2330   0.408   1.810   2.378  0.9225  0.0216 -1.7628
  707WAT      O 2331   4.153   1.482   4.520  0.1985  0.2918  0.0645
  707WAT     H1 2332   4.129   1.568   4.487  1.0960  0.5779  0.1270
  707WAT     H2 2333   4.145   1.490   4.615 -2.1436 -0.4579 -0.0204
  708WAT      O 2334   2.004   4.526   0.006 -0.1739 -0.2646 -0.2842
  708WAT     H1 2335   1.969   4.573  -0.070 -1.1121  0.3450  0.4998
  708WAT     H2 2336   1.993   4.587   0.079 -0.7950 -1.4478  0.6404
  709WAT      O 2337   1.672   3.621   3.795 -0.3465 -0.5858 -0.1225
  709WAT     H1 2338   1.634   3.565   3.863  1.4971 -1.6791  0.0436
  709WAT     H2 2339   1.650   3.577   3.713  1.8498 -2.1206  0.0416
  710WAT      O 2340   3.267   0.597   2.659  0.0794 -0.2273  0.6858
  710WAT     H1 2341   3.310   0.633   2.581 -0.0175 -0.7336  0.3944
  710WAT     H2 2342   3.178   0.632   2.655  0.4757  0.8899  1.3343
  711WAT      O 2343   0.702   1.669   1.194  0.3478  0.1700  0.2852
  711WAT     H1 2344   0.752   1.747   1.170 -0.0589  0.3041 -0.1415
  711WAT     H2 2345   0.701   1.670   1.290  1.0280  0.2451  0.2947
  712WAT      O 2346   3.804   0.240   4.960  0.4333  0.6364 -0.0179
  712WAT     H1 2347   3.780   0.325   4.923  0.7299  0.9741  0.5403
  712WAT     H2 2348   3.739   0.179   4.926 -0.9084  1.4174  1.0455
  713WAT      O 2349   3.332   1.231   2.165  0.3434  0.4956 -0.2265
  713WAT     H1 2350   3.370   1.186   2.088  2.5979  1.5223  0.1858
  713WAT     H2 2351   3.349   1.171   2.238 -1.1151 -0.1366 -0.3745
  714WAT      O 2352   3.368   2.393   5.005 -0.2593  0.0451 -0.4784
  714WAT     H1 2353   3.372   2.457   4.934 -0.6878 -0.6295 -1.1139
  714WAT     H2 2354   3.457   2.358   5.010  0.4570  1.8429  0.9900
  715WAT      O 2355   2.320   0.972   3.994  0.2725  0.6693 -0.1303
  715WAT     H1 2356   2.342   0.990   3.902  0.0019  1.6679 -0.0127
  715WAT     H2 2357   2.255   1.038   4.016 -2.0665 -1.4534 -0.1282
  716WAT      O 2358   2.958   2.009  -0.009 -0.4892  0.2080 -0.4211
  716WAT     H1 2359   2.949   2.020   0.086 -2.4908  2.3610 -0.7920
  716WAT     H2 2360   3.053   2.017  -0.024 -0.2489  0.9866  1.2624
  717WAT      O 2361   3.935   4.194   2.448 -0.2074 -0.2038 -0.3850
  717WAT     H1 2362   3.907   4.266   2.392 -1.5883  0.1077  0.6349
  717WAT     H2 2363   4.030   4.203   2.453 -0.3441  1.5813 -0.2508
  718WAT      O 2364   0.408   2.662   0.113  0.4405  0.3467  0.3090
  718WAT     H1 2365   0.451   2.703   0.188 -0.1577 -0.0802  0.8997
  718WAT     H2 2366   0.452   2.578   0.103  1.2645  0.8609 -0.5263
  719WAT      O 2367   2.563   3.265   4.964  0.1438 -0.4366  0.2010
  719WAT     H1 2368   2.475   3.277   4.998  0.8347  0.5941  1.7721
  719WAT     H2 2369   2.603   3.200   5.022  0.5530 -0.5719 -0.2252
  720WAT      O 2370   2.077   2.419   0.694  0.1105 -0.5285 -0.6043
  720WAT     H1 2371   2.019   2.429   0.619 -0.8419  1.5802  0.3067
  720WAT     H2 2372   2.019   2.395   0.766  0.7050 -0.5928 -0.1352
  721WAT      O 2373   1.626   0.825   3.820  0.1462 -0.1004 -0.6365
  721WAT     H1 2374   1.715   0.824   3.785  0.6011  0.0253  0.4656
  721WAT     H2 2375   1.583   0.751   3.777  0.0856  1.1578 -2.8553
  722WAT      O 2376   0.992   1.661   3.486 -0.0500 -0.1634 -0.3503
  722WAT     H1 2377   0.956   1.673   3.398  0.1908 -4.3619 -1.1915
  722WAT     H2 2378   0.921   1.621   3.536  1.0705 -1.5869  0.1477
  723WAT      O 2379   0.392   5.079   2.062 -0.4512  0.0804 -0.0770
  723WAT     H1 2380   0.322   5.062   2.125 -1.0092 -1.6576 -1.0767
  723WAT     H2 2381   0.473   5.070   2.113 -0.8571 -2.2058  0.2808
  724WAT      O 2382   0.667   3.576   0.114  0.0975  0.7806  0.1482
  724WAT     H1 2383   0.626   3.523   0.046  2.1037  0.4933 -0.9303
  724WAT     H2 2384   0.679   3.662   0.073  1.3248  0.6036  0.0986
  725WAT      O 2385   0.511   1.084   2.119 -0.4687  0.5790  0.6060
  725WAT     H1 2386   0.589   1.053   2.165 -0.5676  1.7281  1.5946
  725WAT     H2 2387   0.515   1.179   2.125 -1.8916  0.6685  0.6020
  726WAT      O 2388   2.010   4.960   2.702  0.6493 -0.3339  0.3402
  726WAT     H1 2389   2.053   4.973   2.617 -1.8039  1.6529 -0.7283
  726WAT     H2 2390   1.967   4.875   2.694 -1.3103  0.7262 -1.3424
  727WAT      O 2391   3.748   1.440   5.180 -0.1471 -0.7554 -0.0223
  727WAT     H1 2392   3.752   1.531   5.210  1.7972 -0.1563 -1.8524
  727WAT     H2 2393   3.733   1.390   5.260  1.6077  0.9788  1.5027
  728WAT      O 2394   1.719   3.168   0.689  0.5193  0.2891 -0.1425
  728WAT     H1 2395   1.639   3.143   0.737  0.8578 -0.7308 -0.0751
  728WAT     H2 2396   1.736   3.093   0.632  3.0350 -0.8345  1.9048
  729WAT      O 2397   2.665   4.371   4.482  0.7074  0.0341 -0.0228
  729WAT     H1 2398   2.716   4.406   4.555  1.9026 -0.0035 -0.8299
  729WAT     H2 2399   2.590   4.431   4.475  0.3748 -0.1545  1.4383
  730WAT      O 2400   2.357   3.374   0.495 -0.3050 -0.2688 -0.6121
  730WAT     H1 2401   2.446   3.408   0.485 -0.7983  1.2839  0.0160
  730WAT     H2 2402   2.366   3.279   0.487  1.6088 -0.2477  0.7887
  731WAT      O 2403   1.578   0.019   0.973 -0.5892  0.3383 -0.5365
  731WAT     H1 2404   1.492  -0.007   0.941 -0.1716  0.1736 -1.5512
  731WAT     H2 2405   1.560   0.076   1.048 -1.6459  1.8164 -1.8486
  732WAT      O 2406   4.052   3.111   4.305  0.3895 -0.6910  0.0821
  732WAT     H1 2407   4.038   3.193   4.258  2.5227 -0.5957 -0.4876
  732WAT     H2 2408   4.011   3.045   4.249 -0.7007 -0.1232  0.1833
  733WAT      O 2409   1.649   1.902   3.776 -0.2555 -0.9400  0.3028
  733WAT     H1 2410   1.558   1.934   3.771  0.4504  1.2996  0.5267
  733WAT     H2 2411   1.680   1.906   3.686 -0.4151 -1.8659  0.2021
  734WAT      O 2412   1.265   3.925   1.117  0.4924  0.3859  0.2947
  734WAT     H1 2413   1.360   3.937   1.119  0.4578  0.6353  0.5217
  734WAT     H2 2414   1.237   3.972   1.038  0.6706 -0.5681 -0.3532
  735WAT      O 2415   1.854   4.406   3.416 -0.0736 -0.4636  0.1778
  735WAT     H1 2416   1.760   4.391   3.405  0.0414 -0.8973 -0.2570
  735WAT     H2 2417   1.861   4.463   3.493 -0.7003 -0.2906  0.1102
  736WAT      O 2418   2.748   1.009   2.902  0.2584 -0.2783 -0.4009
  736WAT     H1 2419   2.783   1.098   2.892  0.0607 -0.2195 -0.5831
  736WAT     H2 2420   2.818   0.961   2.947  1.3071 -0.5958 -2.2610
  737WAT      O 2421   3.205   0.517   1.956  0.7173  0.1391  0.6910
  737WAT     H1 2422   3.144   0.446   1.938  0.5474  0.6011 -0.7163
  737WAT     H2 2423   3.221   0.512   2.050  0.0952 -1.2520  0.7514
  738WAT      O 2424   0.892   3.935   5.012 -0.6698 -0.0640 -0.0023
  738WAT     H1 2425   0.964   3.914   4.953 -0.4631 -1.8010  0.8153
  738WAT     H2 2426   0.814   3.908   4.964 -0.6049 -0.2838  0.0167
  739WAT      O 2427   2.459   3.488   4.153 -0.2607  0.0077 -0.3917
  739WAT     H1 2428   2.439   3.486   4.060 -0.1354  1.5627 -0.4888
  739WAT     H2 2429   2.379   3.521   4.194 -0.0318  0.1659 -0.0608
  740WAT      O 2430   2.008   4.738   3.897 -0.1950 -0.7333  0.3723
  740WAT     H1 2431   2.067   4.726   3.822 -0.2326 -0.9738  0.3813
  740WAT     H2 2432   1.924   4.762   3.857  0.0555  0.1911  0.3830
  741WAT      O 2433   1.158   0.482   0.123 -0.4246  0.1682 -0.1487
  741WAT     H1 2434   1.063   0.482   0.118 -0.4208  1.0325 -0.4347
  741WAT     H2 2435   1.187   0.466   0.033 -0.2765 -1.6697  0.1876
  742WAT      O 2436   2.153   1.743   5.142  0.2203 -0.1097  0.1158
  742WAT     H1 2437   2.182   1.735   5.233  0.4299 -2.4295 -0.0945
  742WAT     H2 2438   2.234   1.757   5.092  0.3938 -1.1232  0.0867
  743WAT      O 2439   1.053   5.142   2.578  0.0041 -0.0817  0.5185
  743WAT     H1 2440   1.137   5.138   2.624 -0.1346 -1.1013  0.6919
  743WAT     H2 2441   1.070   5.103   2.492  0.3422  2.1027 -0.4823
  744WAT      O 2442   0.786   4.709   3.685  0.2847  0.7385 -0.7170
  744WAT     H1 2443   0.827   4.639   3.736 -1.8035  0.0314  0.1327
  744WAT     H2 2444   0.761   4.667   3.603 -1.4258  0.2465 -0.0100
  745WAT      O 2445   2.610   1.279   4.656  0.1132 -0.7899  0.0353
  745WAT     H1 2446   2.564   1.257   4.737  0.8089 -2.6901 -0.0468
  745WAT     H2 2447   2.615   1.196   4.608 -1.2164  0.4662 -2.4750
  746WAT      O 2448   4.372   1.200   3.409  0.0675  0.2788 -0.2718
  746WAT     H1 2449   4.440   1.132   3.403  0.1869  0.5004 -2.1646
  746WAT     H2 2450   4.291   1.151   3.422  0.4026 -0.0789  0.5637
  747WAT      O 2451   2.284   4.248   0.376  0.6378  0.2740  0.3101
  747WAT     H1 2452   2.341   4.315   0.340  0.7288  0.2511  0.4089
  747WAT     H2 2453   2.341   4.197   0.434  0.5378  0.1970  0.3411
  748WAT      O 2454   4.496   0.773   1.696  0.0643 -0.1963 -0.2287
  748WAT     H1 2455   4.464   0.844   1.639 -0.0692 -0.4940 -0.5304
  748WAT     H2 2456   4.571   0.811   1.741  1.0642 -0.4038 -1.6671
  749WAT      O 2457   4.478   0.490   0.039  0.0786 -0.1650  0.6654
  749WAT     H1 2458   4.562   0.502   0.083 -0.1030  1.6522  0.6059
  749WAT     H2 2459   4.414   0.524   0.101 -0.6279 -1.4643  0.6740
  750WAT      O 2460   2.367   3.238   2.514  0.1148 -0.5531 -0.3225
  750WAT     H1 2461   2.410   3.270   2.593  0.9393 -1.1917 -0.4844
  750WAT     H2 2462   2.297   3.181   2.545  0.6555 -1.0743 -0.0482
  751WAT      O 2463   4.182   3.042   2.341 -0.4881  0.5172 -0.0671
  751WAT     H1 2464   4.215   3.129   2.321  2.3292 -0.2044  0.9772
  751WAT     H2 2465   4.237   2.983   2.289 -1.3051 -0.7137  0.4126
  752WAT      O 2466   3.848   4.997   1.015 -0.2064  0.3026  0.2073
  752WAT     H1 2467   3.801   4.935   0.959  2.6459 -0.4309 -1.6086
  752WAT     H2 2468   3.787   5.069   1.028 -2.0716 -0.9068 -1.3136
  753WAT      O 2469   2.108   0.981   0.406 -1.0295 -0.2603  0.4334
  753WAT     H1 2470   2.034   1.036   0.432  0.0922  0.2497  2.7429
  753WAT     H2 2471   2.079   0.892   0.424 -1.6175 -0.2053 -0.1667
  754WAT      O 2472   1.175   4.385   3.787  0.4293 -0.2071 -0.0103
  754WAT     H1 2473   1.149   4.435   3.710  1.5993 -1.3028 -1.1711
  754WAT     H2 2474   1.260   4.421   3.812  0.9686 -1.1289 -0.4507
  755WAT      O 2475   3.015   3.534   3.144 -0.4977  0.7701 -0.4505
  755WAT     H1 2476   2.958   3.600   3.184  0.8425  1.5786  0.2206
  755WAT     H2 2477   3.013   3.553   3.050  1.3775  3.1321 -0.1278
  756WAT      O 2478   3.159   1.411   0.214 -0.4857  0.1328 -0.3379
  756WAT     H1 2479   3.250   1.417   0.185 -0.7323  0.7620 -1.0008
  756WAT     H2 2480   3.136   1.499   0.242 -0.1975 -0.4714  2.0697
  757WAT      O 2481   2.622   2.192   2.124  0.5268 -0.2479 -0.6020
  757WAT     H1 2482   2.669   2.137   2.060  1.5772 -1.3112  0.9946
  757WAT     H2 2483   2.592   2.130   2.190 -1.0918  0.7456 -0.3652
  758WAT      O 2484   3.234   4.480   4.589 -0.3358  0.6420 -0.0668
  758WAT     H1 2485   3.186   4.562   4.579 -0.5466  0.4035 -1.2315
  758WAT     H2 2486   3.324   4.501   4.565 -0.2849  0.6490  0.1326
  759WAT      O 2487   2.536   0.798   4.708 -0.1344 -0.3948 -0.2644
  759WAT     H1 2488   2.446   0.829   4.704 -0.2878 -0.0712  3.0143
  759WAT     H2 2489   2.528   0.703   4.718 -0.1646 -0.2966  0.7032
  760WAT      O 2490   1.931   2.163   2.393 -0.0448  0.7524  0.2053
  760WAT     H1 2491   1.962   2.246   2.358  1.8461 -0.3023 -0.8127
  760WAT     H2 2492   1.972   2.097   2.337  1.7663 -1.0001  3.3195
  761WAT      O 2493   0.940   1.630   3.907  0.3370 -0.5799 -0.5195
  761WAT     H1 2494   0.951   1.551   3.960  1.9573 -0.8235 -1.1662
  761WAT     H2 2495   0.896   1.692   3.965  1.0995 -1.1949  0.7558
  762WAT      O 2496   3.634   4.598   0.459 -0.0994 -0.1335  0.3058
  762WAT     H1 2497   3.717   4.553   0.476 -0.0105  0.1631  0.6590
  762WAT     H2 2498   3.624   4.659   0.532 -0.5137 -0.0008  0.1412
  763WAT      O 2499   1.513   0.309   5.247  0.3170 -0.5006  0.2842
  763WAT     H1 2500   1.425   0.321   5.211 -0.3563  0.6573  2.1692
  763WAT     H2 2501   1.559   0.390   5.225 -0.2177  0.3762  2.2318
  764WAT      O 2502   1.466   3.167   0.078 -0.1804  0.6780  0.1898
  764WAT     H1 2503   1.469   3.213  -0.006 -1.1501  0.4814  0.0361
  764WAT     H2 2504   1.436   3.079   0.057  0.5217  0.3226  0.6314
  765WAT      O 2505   2.008   5.062   0.038 -0.3056  0.0783  0.1748
  765WAT     H1 2506   1.964   4.982   0.013 -0.6193  0.4276 -0.4047
  765WAT     H2 2507   2.009   5.060   0.134  0.3668 -0.9740  0.1550
  766WAT      O 2508   3.819   0.134   0.704  0.4917  0.1964  0.1310
  766WAT     H1 2509   3.895   0.192   0.694  0.9170 -0.6007 -1.7835
  766WAT     H2 2510   3.751   0.175   0.651  0.3286 -0.2990 -0.0424
  767WAT      O 2511   1.391   2.831   3.856  0.2858  0.2166 -0.1634
  767WAT     H1 2512   1.352   2.806   3.772  0.3265 -0.2241 -0.0510
  767WAT     H2 2513   1.316   2.841   3.915  0.2996 -0.0545 -0.0995
  768WAT      O 2514   2.999   2.781   4.118 -0.4916 -0.2609 -0.2556
  768WAT     H1 2515   2.935   2.784   4.189 -0.4632  1.5590 -0.2514
  768WAT     H2 2516   2.964   2.840   4.052  0.4842 -0.3449 -0.8712
  769WAT      O 2517   2.821   0.228   1.340  0.4549  0.5838  0.3730
  769WAT     H1 2518   2.832   0.209   1.433  0.5757  3.8372  1.1233
  769WAT     H2 2519   2.727   0.224   1.325  0.4963 -0.8413  0.3740
  770WAT      O 2520   4.056   3.408   1.288 -0.2604  0.2313  0.4324
  770WAT     H1 2521   4.130   3.374   1.339  0.4630  0.5653 -0.3667
  770WAT     H2 2522   4.093   3.428   1.202 -1.6133 -1.0083 -0.4781
  771WAT      O 2523   1.750   4.453   0.868 -0.1607 -0.1158  0.0019
  771WAT     H1 2524   1.738   4.540   0.906 -0.8183  0.1087 -0.6872
  771WAT     H2 2525   1.776   4.398   0.941  0.1237  0.6364  0.4720
  772WAT      O 2526   0.992   4.473   1.691 -0.0126  0.4647  0.2330
  772WAT     H1 2527   0.902   4.468   1.722 -0.6292 -0.3643 -1.5129
  772WAT     H2 2528   1.038   4.403   1.737 -1.3019 -1.8754 -1.7904
  773WAT      O 2529   0.788   3.725   3.257  0.5996 -0.7468 -0.4113
  773WAT     H1 2530   0.749   3.668   3.323 -0.9315 -1.3813 -1.7967
  773WAT     H2 2531   0.867   3.759   3.299 -0.4422 -0.8978  1.8353
  774WAT      O 2532   4.234   3.879   1.350  0.5984  0.1484  0.0824
  774WAT     H1 2533   4.261   3.855   1.261 -0.0660  1.2373 -0.4352
  774WAT     H2 2534   4.141   3.855   1.353  0.6760 -0.1049  0.5781
  775WAT      O 2535   2.534   3.545   3.405 -0.0598  0.3630 -0.4303
  775WAT     H1 2536   2.507   3.454   3.398  0.6444  0.1484 -0.4306
  775WAT     H2 2537   2.456   3.591   3.435 -0.6226 -0.1243 -1.1100
  776WAT      O 2538   2.947   2.911   0.897 -0.0079  0.0623  0.0256
  776WAT     H1 2539   3.015   2.891   0.833 -0.6034 -2.0766  0.0034
  776WAT     H2 2540   2.909   2.993   0.866 -0.8366 -1.3086 -2.8918
  777WAT      O 2541   3.155   3.062   4.647 -0.0306 -0.1047 -0.1931
  777WAT     H1 2542   3.069   3.103   4.640  0.3003  0.5654 -0.3947
  777WAT     H2 2543   3.155   3.021   4.734 -0.8534 -0.8195 -0.5169
  778WAT      O 2544   0.073   3.027   1.503  0.3371 -0.6960  0.5247
  778WAT     H1 2545   0.108   3.107   1.542  0.7837 -0.5808 -0.0882
  778WAT     H2 2546   0.111   2.956   1.555  0.8824 -0.5451  0.3447
  779WAT      O 2547   4.312   2.338   1.170  0.5126  0.0697  0.1662
  779WAT     H1 2548   4.376   2.388   1.119 -0.1247 -0.0163 -0.7430
  779WAT     H2 2549   4.358   2.256   1.192  0.9967  0.3609  0.2574
  780WAT      O 2550   1.529   5.010   2.144  0.0963  0.0296  0.0165
  780WAT     H1 2551   1.600   5.031   2.205  0.7321  0.4249 -0.8321
  780WAT     H2 2552   1.506   4.919   2.164 -0.6359  0.5536  1.7288
  781WAT      O 2553   0.376   0.159   4.033  0.4811  0.2020  0.1553
  781WAT     H1 2554   0.402   0.071   4.059  2.3167  1.1574  1.7591
  781WAT     H2 2555   0.388   0.160   3.938 -1.4405 -1.8073 -0.1885
  782WAT      O 2556   3.160   2.721   5.210 -0.3964  0.2622 -0.1964
  782WAT     H1 2557   3.143   2.779   5.284  0.5756  1.3807 -0.8295
  782WAT     H2 2558   3.253   2.702   5.215  0.0414  1.6732 -2.0394
  783WAT      O 2559   4.285   4.821   0.511  0.4426 -0.4268 -0.2663
  783WAT     H1 2560   4.378   4.827   0.530  0.2524 -1.1912  0.9826
  783WAT     H2 2561   4.260   4.732   0.536 -0.9571  0.2833  1.0430
  784WAT      O 2562   0.901   3.628   2.290 -0.6832  0.2105 -0.2219
  784WAT     H1 2563   0.907   3.692   2.219 -0.1665 -0.9814 -1.2806
  784WAT     H2 2564   0.928   3.545   2.251  0.6843 -0.2969  1.6371
  785WAT      O 2565   1.988   2.318   4.264 -0.2174  0.7002 -0.1875
  785WAT     H1 2566   2.049   2.267   4.211 -0.0571  0.2054  0.4652
  785WAT     H2 2567   2.026   2.406   4.266  0.5721  0.3553  0.3469
  786WAT      O 2568   3.882   3.355   4.620  0.0040  0.5485  0.1505
  786WAT     H1 2569   3.798   3.396   4.639 -1.3648 -2.0257  0.1478
  786WAT     H2 2570   3.915   3.327   4.706 -0.3328 -0.4975 -0.0403
  787WAT      O 2571   3.765   1.318   4.372 -0.1892  0.4536 -0.5835
  787WAT     H1 2572   3.860   1.322   4.358 -0.2145  0.7299 -0.6833
  787WAT     H2 2573   3.741   1.408   4.398 -0.2723  0.1639  0.4012
  788WAT      O 2574   0.664   3.009   1.593 -0.1341  0.2871  0.0679
  788WAT     H1 2575   0.575   2.996   1.562 -0.3508  0.8076  0.4597
  788WAT     H2 2576   0.688   2.926   1.632 -0.3592  0.0691 -0.2536
  789WAT      O 2577   0.722   2.965   4.302 -0.1854 -0.5323  0.2933
  789WAT     H1 2578   0.761   3.048   4.275 -0.8822 -0.2907  0.0288
  789WAT     H2 2579   0.656   2.947   4.236 -0.5292 -0.9375  0.7468
  790WAT      O 2580   4.252   2.764   1.463 -0.4764 -0.1212 -0.3092
  790WAT     H1 2581   4.174   2.776   1.408 -0.2871  0.7502 -0.4141
  790WAT     H2 2582   4.260   2.848   1.510  1.0326  0.2156 -1.1237
  791WAT      O 2583   4.035   2.835   1.316 -0.1916 -0.1167  0.0668
  791WAT     H1 2584   3.963   2.805   1.370 -0.6679  1.1797  0.2034
  791WAT     H2 2585   4.003   2.916   1.276  0.5809 -0.4053 -1.2161
  792WAT      O 2586   2.051   4.502   2.644  0.0775 -0.5071  0.1602
  792WAT     H1 2587   2.128   4.468   2.689  1.1436 -0.5473 -1.6243
  792WAT     H2 2588   2.070   4.490   2.551 -1.1259  1.5142 -0.4054
  793WAT      O 2589   1.139   3.595   1.541 -0.3778 -0.5568 -0.2952
  793WAT     H1 2590   1.151   3.531   1.612  3.1874  0.6273  0.3905
  793WAT     H2 2591   1.178   3.553   1.464 -1.1557 -0.5355 -0.7002
  794WAT      O 2592   3.732   0.144   0.330  0.0213  0.2449  0.1899
  794WAT     H1 2593   3.667   0.084   0.293 -0.5098  1.0946 -0.3130
  794WAT     H2 2594   3.801   0.149   0.264 -0.4504  0.9942 -0.2664
  795WAT      O 2595   0.145   2.223   2.127  0.4614  0.3210  0.6518
  795WAT     H1 2596   0.065   2.173   2.145  1.5083 -0.5060  3.5636
  795WAT     H2 2597   0.215   2.158   2.131  1.4061  1.1908 -0.8919
  796WAT      O 2598   4.219   4.503   3.647 -0.4099 -0.5375  0.0988
  796WAT     H1 2599   4.270   4.549   3.715 -0.8011  0.6036 -0.3600
  796WAT     H2 2600   4.209   4.414   3.682  1.0149 -0.5178  0.6680
  797WAT      O 2601   0.615   4.233   3.048 -0.0097 -1.2227  0.5115
  797WAT     H1 2602   0.536   4.207   3.000  0.0893  0.2108 -0.4945
  797WAT     H2 2603   0.597   4.322   3.077 -0.4408 -2.3475  4.0818
  798WAT      O 2604   2.383   4.895   3.105  0.0160  0.1764  0.0744
  798WAT     H1 2605   2.409   4.812   3.145 -1.7641 -0.6486 -0.3788
  798WAT     H2 2606   2.339   4.870   3.024  0.3137  1.6338 -0.5797
  799WAT      O 2607   0.373   2.279   0.377  0.2460  0.1261 -0.6830
  799WAT     H1 2608   0.317   2.226   0.320 -1.5991 -0.8166  1.8220
  799WAT     H2 2609   0.442   2.311   0.319 -1.5723 -0.5778 -3.4519
  800WAT      O 2610   0.625   3.359   0.586 -0.0385  0.0426  1.1031
  800WAT     H1 2611   0.615   3.428   0.520  0.8826 -0.3176  0.5554
  800WAT     H2 2612   0.679   3.398   0.654 -1.3194  0.5407  1.8464
  801WAT      O 2613   2.388   0.346   4.268 -0.6110  0.3272  0.3137
  801WAT     H1 2614   2.379   0.390   4.352 -0.8899 -0.3262  0.6233
  801WAT     H2 2615   2.457   0.281   4.282  1.3383  2.0496 -0.7158
  802WAT      O 2616   3.168   0.570   3.875 -0.3578  0.8476  0.7717
  802WAT     H1 2617   3.194   0.643   3.932  0.7953  0.2524  1.0392
  802WAT     H2 2618   3.155   0.496   3.934 -0.8448  0.6573  0.4338
  803WAT      O 2619   0.700   4.718   0.154  0.4628  0.0250  0.3062
  803WAT     H1 2620   0.629   4.655   0.141  0.6258 -0.4387  1.5412
  803WAT     H2 2621   0.660   4.788   0.204  0.1985  1.1068 -1.3309
  804WAT      O 2622   1.698   2.407   0.918 -0.3579  0.1396 -0.8803
  804WAT     H1 2623   1.635   2.429   0.987 -0.4491  3.5101 -1.8556
  804WAT     H2 2624   1.645   2.399   0.839  0.1875  1.3149 -1.3976
  805WAT      O 2625   1.422   4.118   1.287 -0.4267 -0.0128 -0.0380
  805WAT     H1 2626   1.336   4.089   1.320  0.3716 -0.8635  1.4031
  805WAT     H2 2627   1.477   4.120   1.365  0.9886  0.0728 -1.0164
  806WAT      O 2628   0.771   0.516   3.958  0.1925 -0.1258  0.1256
  806WAT     H1 2629   0.712   0.492   4.030 -0.3256 -0.9463 -0.5565
  806WAT     H2 2630   0.834   0.444   3.954 -0.0052 -0.2686 -0.4752
  807WAT      O 2631   1.702   2.112   4.591 -0.1170 -0.3726 -0.5028
  807WAT     H1 2632   1.607   2.123   4.599 -0.1469 -0.8874 -0.1167
  807WAT     H2 2633   1.729   2.072   4.673  0.6090  0.7665 -0.1643
  808WAT      O 2634   3.656   4.142   1.746 -0.1419 -0.0925  0.2255
  808WAT     H1 2635   3.713   4.212   1.776 -0.2016 -0.2376  0.6852
  808WAT     H2 2636   3.667   4.073   1.811 -1.2053  0.0665  0.5950
  809WAT      O 2637   2.827   0.316   2.468 -0.6589 -0.4174  0.8601
  809WAT     H1 2638   2.755   0.379   2.463 -0.7482 -0.5787  0.0768
  809WAT     H2 2639   2.798   0.241   2.416  0.4875 -0.0633 -0.3472
  810WAT      O 2640   1.748   3.769   3.035  0.1383  0.4664 -0.6526
  810WAT     H1 2641   1.720   3.756   3.125  1.3204 -1.0469 -0.4592
  810WAT     H2 2642   1.841   3.790   3.041  0.3782 -0.2427 -1.5115
  811WAT      O 2643   2.145   2.565   2.769 -0.0513 -0.1517 -0.0419
  811WAT     H1 2644   2.132   2.581   2.863  0.4330  0.3455 -0.0511
  811WAT     H2 2645   2.216   2.625   2.745  0.1515 -0.6220 -0.6239
  812WAT      O 2646   0.753   2.661   5.240  1.0480 -0.1278  0.0200
  812WAT     H1 2647   0.732   2.577   5.282  1.1688 -0.1234  0.0896
  812WAT     H2 2648   0.710   2.726   5.294 -1.0860 -0.2892 -1.3588
  813WAT      O 2649   4.164   3.030   3.438 -0.3306  0.3174 -0.3068
  813WAT     H1 2650   4.196   3.049   3.526  0.6219  1.7834 -0.9371
  813WAT     H2 2651   4.243   3.011   3.388 -0.5426  2.4451 -1.5327
  814WAT      O 2652   4.320   0.264   2.191 -0.4472 -0.2774 -0.1269
  814WAT     H1 2653   4.248   0.317   2.157  0.2725 -0.0129 -1.2992
  814WAT     H2 2654   4.342   0.304   2.275 -1.9978 -0.6875  0.5160
  815WAT      O 2655   0.668   2.229   0.704 -0.3021  0.2771  0.2427
  815WAT     H1 2656   0.635   2.158   0.648 -0.5508  0.9865 -0.5297
  815WAT     H2 2657   0.759   2.239   0.679 -0.3996  0.5594 -0.0086
  816WAT      O 2658   4.236   3.292   1.557 -0.0873  0.7153  0.1137
  816WAT     H1 2659   4.303   3.328   1.616  0.9774 -1.7027  0.4970
  816WAT     H2 2660   4.159   3.347   1.572  0.8668  1.6325  2.0060
  817WAT      O 2661   0.811   0.990   4.984  0.3668 -0.5439 -0.3135
  817WAT     H1 2662   0.847   0.982   4.896  0.9146 -2.0219  0.0228
  817WAT     H2 2663   0.728   1.036   4.972  1.1083  0.5841 -1.4062
  818WAT      O 2664   1.450   2.842   4.506  0.7957 -0.1975  0.3386
  818WAT     H1 2665   1.435   2.750   4.482  0.7161 -0.2531  0.6017
  818WAT     H2 2666   1.545   2.850   4.511  0.8923  0.1637 -1.3638
  819WAT      O 2667   4.444   1.530   2.510 -0.1623 -0.0768 -0.5308
  819WAT     H1 2668   4.466   1.588   2.583 -1.1120  0.5460 -0.7138
  819WAT     H2 2669   4.390   1.461   2.549 -0.2269 -0.0382 -0.5514
  820WAT      O 2670   4.400   2.413   2.827  0.6396 -0.1487 -0.0525
  820WAT     H1 2671   4.329   2.441   2.770  1.1201 -1.6084 -1.4556
  820WAT     H2 2672   4.381   2.321   2.845  0.1600  0.3955  2.7465
  821WAT      O 2673   0.963   2.544   4.740  0.1792 -0.2536  0.1757
  821WAT     H1 2674   0.946   2.553   4.834  0.0385 -1.1404  0.2476
  821WAT     H2 2675   0.979   2.633   4.710  0.7839 -0.0185  1.1485
  822WAT      O 2676   0.829   0.345   5.152 -0.1466  0.0005  1.4004
  822WAT     H1 2677   0.753   0.307   5.108 -0.1711 -0.5922  1.9310
  822WAT     H2 2678   0.828   0.305   5.240 -0.0130  1.0281  1.8863
  823WAT      O 2679   2.113   0.116   2.672 -0.0746  0.1707  0.2825
  823WAT     H1 2680   2.153   0.058   2.607 -1.6447  1.7591 -2.2425
  823WAT     H2 2681   2.027   0.078   2.689 -0.8549  1.3458 -0.8996
  824WAT      O 2682   1.801   2.202   0.052 -0.2984  0.3249 -0.0813
  824WAT     H1 2683   1.783   2.295   0.044 -0.7720  0.3646  1.2275
  824WAT     H2 2684   1.877   2.187  -0.004  0.8093  1.8193  0.9514
  825WAT      O 2685   1.799   0.623   4.854 -0.2072 -0.4152 -0.0637
  825WAT     H1 2686   1.756   0.706   4.873 -1.6697 -1.1597  0.0195
  825WAT     H2 2687   1.740   0.579   4.793  0.4471 -1.4718  0.0421
  826WAT      O 2688   2.540   2.427   4.327  0.1404  0.0192  0.1673
  826WAT     H1 2689   2.559   2.521   4.318 -0.1634 -0.1102 -2.2476
  826WAT     H2 2690   2.459   2.414   4.280  0.7507 -1.6487 -0.4777
  827WAT      O 2691   3.120   0.340   1.352 -0.0664  0.3381 -0.4681
  827WAT     H1 2692   3.117   0.378   1.264 -1.6079 -1.0899 -1.0766
  827WAT     H2 2693   3.033   0.303   1.365  0.3999 -0.1930  1.3468
  828WAT      O 2694   3.719   2.289   0.141 -0.4073  0.0127 -0.0413
  828WAT     H1 2695   3.736   2.345   0.218  0.5594 -0.0847 -0.1747
  828WAT     H2 2696   3.625   2.271   0.146 -0.6576  1.2665  0.2651
  829WAT      O 2697   3.061   1.333   2.534  0.0620 -0.6605 -0.5765
  829WAT     H1 2698   2.978   1.287   2.517 -0.3546  0.2538 -1.1008
  829WAT     H2 2699   3.035   1.410   2.585  0.8728 -1.5032  1.1764
  830WAT      O 2700   1.770   3.545   2.539 -0.0623 -0.2746  0.2349
  830WAT     H1 2701   1.793   3.593   2.618 -1.5825 -1.5482  1.5212
  830WAT     H2 2702   1.747   3.458   2.570 -0.7499 -0.7928 -1.6089
  831WAT      O 2703   0.400   4.189   2.198  0.5274 -0.2594  0.5266
  831WAT     H1 2704   0.439   4.261   2.148 -0.6126  0.2631  0.3603
  831WAT     H2 2705   0.390   4.119   2.134 -0.4237  0.2215  0.1270
  832WAT      O 2706   4.176   0.340   2.885  0.0008  0.0270 -0.4411
  832WAT     H1 2707   4.191   0.250   2.856  1.5990  0.2006 -0.2435
  832WAT     H2 2708   4.145   0.332   2.975 -3.3689 -0.4391 -1.4827
  833WAT      O 2709   1.122   1.443   3.419  0.3292  0.3113  0.0999
  833WAT     H1 2710   1.039   1.405   3.388  0.0308  0.5931  0.5389
  833WAT     H2 2711   1.099   1.530   3.450  0.6779  0.1757  0.7694
  834WAT      O 2712   2.854   3.912   3.365  0.1072  0.4489  0.3299
  834WAT     H1 2713   2.844   3.960   3.283  1.5575  1.5740  0.7779
  834WAT     H2 2714   2.855   3.979   3.433  2.3914 -0.1282  0.9560
  835WAT      O 2715   2.450   1.592   0.947 -0.4217  0.0666 -0.3972
  835WAT     H1 2716   2.407   1.648   1.012 -0.0397  1.4176 -1.2621
  835WAT     H2 2717   2.543   1.609   0.960 -0.2757 -0.6663 -0.4348
  836WAT      O 2718   1.435   3.455   1.392 -0.0096  0.1585  0.4258
  836WAT     H1 2719   1.398   3.397   1.325 -1.7078  0.6372  0.8988
  836WAT     H2 2720   1.406   3.543   1.366  2.0763  0.7906  0.0105
  837WAT      O 2721   0.068   4.403   0.678  0.2614  1.0588  0.2956
  837WAT     H1 2722   0.158   4.429   0.659 -0.2630  2.8895  0.1612
  837WAT     H2 2723   0.072   4.308   0.686  2.0163  1.0097 -0.7069
  838WAT      O 2724   4.464   3.284   0.141  0.0453 -0.6865  0.2375
  838WAT     H1 2725   4.490   3.352   0.203  0.4611  0.0630 -0.7288
  838WAT     H2 2726   4.381   3.314   0.104  1.8889  1.1839 -2.7930
  839WAT      O 2727   1.870   4.862   1.711  0.0249 -0.6155 -0.4365
  839WAT     H1 2728   1.878   4.835   1.802 -1.3078  0.0320 -0.1010
  839WAT     H2 2729   1.949   4.828   1.669  0.7990 -0.6814  1.0019
  840WAT      O 2730   2.019   4.528   4.806 -0.4551  0.2708  0.0752
  840WAT     H1 2731   2.061   4.605   4.844 -0.2560  0.1607  0.0765
  840WAT     H2 2732   1.987   4.557   4.721 -0.8579  0.5063  0.3021
  841WAT      O 2733   4.360   1.970   3.827  0.6673  0.0249  0.1689
  841WAT     H1 2734   4.427   1.901   3.822  1.0329  0.3578  0.3539
  841WAT     H2 2735   4.410   2.051   3.814  0.4976  0.3697  1.5364
  842WAT      O 2736   0.612   0.078   2.353 -0.2728  0.2216 -0.0816
  842WAT     H1 2737   0.601   0.112   2.441 -0.2689  0.3529 -0.1316
  842WAT     H2 2738   0.528   0.092   2.310 -0.5219 -0.5555  0.1425
  843WAT      O 2739   1.053   0.189   0.097  0.2311 -0.0046  0.7556
  843WAT     H1 2740   1.033   0.133   0.172  1.2296 -2.5882 -0.7820
  843WAT     H2 2741   0.969   0.229   0.074 -0.5928 -1.0781  1.7824
  844WAT      O 2742   0.380   1.134   1.808  0.3012  0.4995  0.2002
  844WAT     H1 2743   0.320   1.155   1.879  0.2804  0.8836  0.0730
  844WAT     H2 2744   0.426   1.056   1.837  0.2155  0.5937  0.5857
  845WAT      O 2745   0.749   3.111   0.054  0.6960  0.6448 -0.2039
  845WAT     H1 2746   0.786   3.155  -0.023  0.0672  1.5150 -0.0193
  845WAT     H2 2747   0.748   3.178   0.122  1.2170 -0.1142  0.5664
  846WAT      O 2748   1.042   2.819   0.438  0.2629  0.2413 -0.0323
  846WAT     H1 2749   1.015   2.833   0.347 -1.1582  0.4684  0.4000
  846WAT     H2 2750   1.026   2.726   0.454 -0.2981  0.3832  0.2383
  847WAT      O 2751   3.670   0.286   0.531 -0.3481 -0.0433  0.4918
  847WAT     H1 2752   3.690   0.238   0.450 -0.7743 -1.2899  1.1071
  847WAT     H2 2753   3.610   0.355   0.503  1.5741  1.2531 -0.6960
  848WAT      O 2754   3.036   1.878   4.165 -0.0905 -0.1463 -0.0674
  848WAT     H1 2755   3.069   1.788   4.166 -0.8608 -0.5114 -2.4049
  848WAT     H2 2756   3.063   1.913   4.080 -1.1730  1.3129  0.1492
  849WAT      O 2757   2.697   2.430   4.673 -0.6589 -0.5198  0.0868
  849WAT     H1 2758   2.644   2.399   4.747 -0.4729 -1.1537 -0.0413
  849WAT     H2 2759   2.656   2.512   4.647  0.0416  0.4185  1.7471
  850WAT      O 2760   3.451   0.752   3.404  0.2981 -0.2760  0.0489
  850WAT     H1 2761   3.414   0.756   3.493  2.5969 -1.4538  1.1588
  850WAT     H2 2762   3.375   0.757   3.347 -1.4575 -1.2406  2.1283
  851WAT      O 2763   1.061   0.908   1.733 -0.8347  0.2302  0.0727
  851WAT     H1 2764   1.029   0.887   1.645 -2.9889  1.3540  0.5287
  851WAT     H2 2765   0.992   0.963   1.771  1.0771  1.6384  1.6710
  852WAT      O 2766   2.873   0.474   1.862  0.3381 -1.0071 -0.2162
  852WAT     H1 2767   2.822   0.480   1.943 -0.2041  1.2282 -0.6589
  852WAT     H2 2768   2.955   0.430   1.889  0.8791  1.1076  1.9400
  853WAT      O 2769   1.722   0.808   5.216  0.2608 -0.4002 -0.4456
  853WAT     H1 2770   1.701   0.893   5.178  1.8688  0.4127  0.3690
  853WAT     H2 2771   1.728   0.825   5.310 -0.7535 -1.7385 -0.1110
  854WAT      O 2772   0.285   0.683   4.569  0.1896  0.3924  0.2896
  854WAT     H1 2773   0.276   0.667   4.475 -0.7625  1.9636  0.0797
  854WAT     H2 2774   0.195   0.687   4.601  0.4929 -2.1482  1.6920
  855WAT      O 2775   0.770   2.757   4.097  0.9000  0.4369  0.3252
  855WAT     H1 2776   0.684   2.769   4.139  1.3053 -0.8632  1.6330
  855WAT     H2 2777   0.773   2.663   4.078  1.7225  0.6096 -0.4331
  856WAT      O 2778   3.629   1.583   4.102 -0.3492  0.0608  0.3251
  856WAT     H1 2779   3.557   1.569   4.041 -0.5322 -1.2220  0.8150
  856WAT     H2 2780   3.600   1.656   4.157 -0.3196  1.0248 -0.8744
  857WAT      O 2781   1.162   2.796   3.143  0.3757 -0.2885 -0.1900
  857WAT     H1 2782   1.200   2.710   3.157  1.3882  0.0542 -0.7111
  857WAT     H2 2783   1.237   2.853   3.125 -0.2724  0.7055  0.1596
  858WAT      O 2784   2.305   4.484   3.172  0.6172  0.2591  0.1752
  858WAT     H1 2785   2.223   4.482   3.123 -0.3772  0.5126  1.7402
  858WAT     H2 2786   2.329   4.392   3.182 -1.3403 -0.0944  2.5651
  859WAT      O 2787   3.043   2.369   2.693  0.5544  0.1698 -0.0011
  859WAT     H1 2788   3.014   2.296   2.748  1.6376  1.4767  2.4301
  859WAT     H2 2789   3.136   2.380   2.714  1.4851 -0.2035 -3.3006
  860WAT      O 2790   0.851   1.238   5.293  0.0622 -0.4766 -0.3219
  860WAT     H1 2791   0.806   1.181   5.356 -0.1015  0.0358  0.0327
  860WAT     H2 2792   0.782   1.263   5.231 -0.2713  0.6839  0.4875
  861WAT      O 2793   1.825   4.182   1.071  0.4537 -0.2471 -0.9204
  861WAT     H1 2794   1.736   4.213   1.086  1.1232  0.7464  1.4215
  861WAT     H2 2795   1.814   4.106   1.014 -2.2505 -2.2467  1.9156
  862WAT      O 2796   2.300   4.570   3.608  0.0253 -0.7208 -0.3107
  862WAT     H1 2797   2.310   4.533   3.695 -0.4023 -1.9466 -0.7639
  862WAT     H2 2798   2.213   4.609   3.608  0.4053  0.1586  0.1085
  863WAT      O 2799   0.126   3.680   0.475  0.7077 -0.2837 -0.3904
  863WAT     H1 2800   0.173   3.762   0.489 -0.6799  0.6912 -1.2537
  863WAT     H2 2801   0.176   3.635   0.407  1.7575 -0.4179  0.4380
  864WAT      O 2802   3.254   4.271   2.301  0.2392  0.3669  0.4430
  864WAT     H1 2803   3.327   4.222   2.339  0.9270 -0.2330 -1.5403
  864WAT     H2 2804   3.295   4.340   2.249 -0.6773  1.4415  1.0887
  865WAT      O 2805   3.679   0.774   0.392 -0.0132  0.1922 -0.1824
  865WAT     H1 2806   3.635   0.815   0.318  0.5497 -2.3958 -2.1301
  865WAT     H2 2807   3.726   0.700   0.353  4.4692  1.5357  1.9737
  866WAT      O 2808   0.700   4.430   4.796  0.2059 -0.7074  0.5896
  866WAT     H1 2809   0.674   4.426   4.888 -2.7738 -0.2815 -0.1254
  866WAT     H2 2810   0.659   4.510   4.763  2.4950 -0.0113 -0.8110
  867WAT      O 2811   3.961   4.008   4.882  0.2022  0.3386  0.1998
  867WAT     H1 2812   3.925   4.065   4.950  0.7942 -0.0653  0.8714
  867WAT     H2 2813   3.885   3.975   4.835 -0.3734 -0.8072  1.8373
  868WAT      O 2814   1.500   0.181   4.663 -0.1897  0.3087 -0.0241
  868WAT     H1 2815   1.424   0.124   4.670  0.8337 -0.9514  1.5319
  868WAT     H2 2816   1.533   0.166   4.574 -0.0504 -1.4161  0.2987
  869WAT      O 2817   2.385   4.202   1.025 -0.1379 -0.1711  0.1362
  869WAT     H1 2818   2.341   4.144   1.088 -2.5341  1.7998  0.4075
  869WAT     H2 2819   2.339   4.187   0.943  0.9333 -0.4796 -0.4178
  870WAT      O 2820   0.851   4.098   4.281  0.2909  0.1837  0.4402
  870WAT     H1 2821   0.868   4.095   4.375  0.5066  0.8493  0.4239
  870WAT     H2 2822   0.763   4.135   4.274 -0.0213 -0.5439  0.4032
  871WAT      O 2823   3.474   3.054   4.889  0.1006 -0.0910 -0.5656
  871WAT     H1 2824   3.479   3.073   4.796 -1.2183  0.4670 -0.5450
  871WAT     H2 2825   3.384   3.025   4.903 -0.2026  1.3022  0.7605
  872WAT      O 2826   3.487   0.184   0.794 -0.1582  0.0354 -0.2302
  872WAT     H1 2827   3.509   0.175   0.701  1.0883 -0.9552  0.1328
  872WAT     H2 2828   3.441   0.103   0.816 -1.5084  0.7722 -0.2374
  873WAT      O 2829   4.458   0.554   4.419 -0.0667 -0.1644 -0.3940
  873WAT     H1 2830   4.443   0.462   4.399  0.8364  0.2840 -3.6469
  873WAT     H2 2831   4.497   0.590   4.340  0.0424  2.9505  0.9305
  874WAT      O 2832   2.853   2.568   1.814  0.4712  0.2180 -0.2960
  874WAT     H1 2833   2.858   2.496   1.751  2.6211 -0.2479  0.2936
  874WAT     H2 2834   2.764   2.565   1.847 -0.0186 -1.0222 -1.5989
  875WAT      O 2835   2.041   3.225   4.879 -0.4009 -0.3489 -0.4858
  875WAT     H1 2836   1.961   3.195   4.835 -0.6602 -0.1459 -0.1592
  875WAT     H2 2837   2.084   3.280   4.815 -1.6630  1.4042  0.0833
  876WAT      O 2838   1.068   0.114   4.085  0.0461  0.6076 -0.1604
  876WAT     H1 2839   1.134   0.061   4.040  0.4821  0.3495  0.7560
  876WAT     H2 2840   1.115   0.155   4.157 -1.1660 -1.1389  1.7395
  877WAT      O 2841   0.969   0.328   1.495 -0.0758  0.0396 -0.2403
  877WAT     H1 2842   0.948   0.368   1.412  0.0024  1.9155  0.5958
  877WAT     H2 2843   1.057   0.361   1.516  0.3495 -1.2326  0.1233
  878WAT      O 2844   4.232   2.516   0.946  0.0055 -0.2622  0.0204
  878WAT     H1 2845   4.327   2.516   0.961  0.0015 -0.0404  0.0434
  878WAT     H2 2846   4.198   2.584   1.004  0.1370  1.5449 -1.8970
  879WAT      O 2847   2.280   1.434   2.093 -0.1117 -0.5473 -0.1175
  879WAT     H1 2848   2.357   1.443   2.037  0.0000  2.5066  0.3247
  879WAT     H2 2849   2.214   1.394   2.038 -0.1081  2.5515 -2.6937
  880WAT      O 2850   1.977   3.596   3.904  0.6325  0.2140 -0.0502
  880WAT     H1 2851   2.022   3.671   3.944  0.2939 -1.0744  3.0498
  880WAT     H2 2852   1.896   3.633   3.868  0.7214  1.4304  0.9296
  881WAT      O 2853   0.376   4.592   5.184 -0.2542 -0.2745  0.2230
  881WAT     H1 2854   0.464   4.625   5.204 -0.7476  1.0281  0.3371
  881WAT     H2 2855   0.337   4.660   5.129 -1.3975 -0.5664  0.6545
  882WAT      O 2856   0.778   4.122   5.182 -0.2291 -0.3063 -0.2655
  882WAT     H1 2857   0.852   4.154   5.233 -0.9546 -0.4639  0.9273
  882WAT     H2 2858   0.817   4.059   5.120  0.5827 -0.6872  0.6071
  883WAT      O 2859   0.721   0.991   2.262 -0.7377 -0.5117  0.5686
  883WAT     H1 2860   0.810   0.966   2.239 -0.8055 -0.0739 -0.2138
  883WAT     H2 2861   0.729   1.073   2.310 -0.8032  0.4842 -1.0361
  884WAT      O 2862   2.863   4.609   4.107 -0.2056  0.4338  0.0463
  884WAT     H1 2863   2.801   4.651   4.047 -1.4090 -0.8336  0.3664
  884WAT     H2 2864   2.815   4.535   4.144  0.6792  0.8364  2.1704
  885WAT      O 2865   3.717   5.014   0.134 -0.2072  0.2618  0.5320
  885WAT     H1 2866   3.753   5.079   0.073  0.7236 -0.2601  0.5185
  885WAT     H2 2867   3.634   4.989   0.095 -0.1547  0.7783  0.0707
  886WAT      O 2868   3.674   3.112   1.371  0.0357  0.2304 -0.0809
  886WAT     H1 2869   3.664   3.157   1.286  0.4897  0.8421  0.1830
  886WAT     H2 2870   3.768   3.102   1.382 -0.0805 -1.7661 -0.6188
  887WAT      O 2871   1.174   3.682   3.050 -0.5067  0.8048 -0.3431
  887WAT     H1 2872   1.251   3.733   3.025  1.0103 -1.3384 -0.3234
  887WAT     H2 2873   1.165   3.617   2.981  0.1752 -1.4636  1.5685
  888WAT      O 2874   0.015   1.640   3.324  0.1205 -0.3952 -0.1779
  888WAT     H1 2875  -0.060   1.582   3.317 -0.5025  0.2534  0.8835
  888WAT     H2 2876   0.082   1.587   3.368 -0.4359 -0.3396  0.7662
  889WAT      O 2877   1.638   1.391   4.728  0.1845  0.0283  0.3219
  889WAT     H1 2878   1.677   1.467   4.773 -0.1524 -0.0555  0.7607
  889WAT     H2 2879   1.711   1.330   4.717  0.0184 -0.5319  1.9911
  890WAT      O 2880   2.291   3.978   4.932 -0.0880  0.3954 -0.0099
  890WAT     H1 2881   2.290   3.915   5.005  0.5284  0.4958  0.0942
  890WAT     H2 2882   2.371   3.957   4.884 -0.5139  0.2991 -0.6976
  891WAT      O 2883   2.961   1.659   4.596 -0.0583 -0.1601  1.0980
  891WAT     H1 2884   2.881   1.622   4.634 -0.0061 -0.8540  0.5308
  891WAT     H2 2885   3.025   1.652   4.667 -0.0056 -1.3009  0.9530
  892WAT      O 2886   4.126   0.144   1.921  0.3897 -0.0734  0.4006
  892WAT     H1 2887   4.112   0.166   2.013 -0.8567  1.2853 -0.0664
  892WAT     H2 2888   4.169   0.058   1.923 -1.0351 -0.8153  2.2013
  893WAT      O 2889   1.296   4.385   4.477  0.3588 -0.0893  0.2704
  893WAT     H1 2890   1.261   4.418   4.559  0.0741 -0.1770  0.1835
  893WAT     H2 2891   1.224   4.393   4.414  0.6720  0.2787 -0.0521
  894WAT      O 2892   2.097   3.997   1.453 -0.0488  0.3510  0.7662
  894WAT     H1 2893   2.043   3.976   1.529 -2.0234  0.5465 -0.4880
  894WAT     H2 2894   2.142   4.078   1.477  1.3299 -0.8892  2.6133
  895WAT      O 2895   1.798   3.979   4.385  0.1887  0.0695  0.7441
  895WAT     H1 2896   1.807   3.927   4.305 -1.2401  1.2381 -0.2405
  895WAT     H2 2897   1.836   3.924   4.454  0.7580 -1.2988 -0.5904
  896WAT      O 2898   0.333   0.574   3.632 -0.4609  0.2513 -0.1061
  896WAT     H1 2899   0.427   0.562   3.618  0.0265  2.0768  1.1719
  896WAT     H2 2900   0.306   0.629   3.559 -0.6821 -0.7401 -0.7877
  897WAT      O 2901   0.315   0.760   1.602 -0.2136  0.1929  0.2011
  897WAT     H1 2902   0.241   0.728   1.549 -0.5722  0.0596  0.7806
  897WAT     H2 2903   0.390   0.751   1.544 -0.4033 -1.1545  0.1311
  898WAT      O 2904   3.270   1.894   4.900  0.2842  0.0659 -0.1362
  898WAT     H1 2905   3.345   1.873   4.957 -0.4887 -2.3895  0.1002
  898WAT     H2 2906   3.244   1.982   4.927  0.8158 -0.4566  2.4026
  899WAT      O 2907   4.009   3.600   4.025  0.3431  0.4586 -0.3403
  899WAT     H1 2908   4.088   3.558   3.991  0.0597  1.1993 -2.0068
  899WAT     H2 2909   4.003   3.682   3.978 -1.6643  0.2196 -0.5976
  900WAT      O 2910   0.163   3.212   3.107 -0.1274 -1.0520 -0.2886
  900WAT     H1 2911   0.199   3.131   3.144 -0.4485 -1.1062 -0.0889
  900WAT     H2 2912   0.235   3.250   3.057 -0.0409 -1.5783 -0.5714
  901WAT      O 2913   2.916   0.010   2.621  0.0115  0.1913 -0.3348
  901WAT     H1 2914   2.823   0.015   2.600  0.1474  0.4397 -0.8862
  901WAT     H2 2915   2.918  -0.008   2.715 -0.5854  0.5602 -0.2452
  902WAT      O 2916   0.397   5.023   2.880  0.4465 -0.6131  0.1331
  902WAT     H1 2917   0.333   5.095   2.886  2.0838  0.8712  0.6234
  902WAT     H2 2918   0.365   4.970   2.807  0.1615  1.6680 -1.5374
  903WAT      O 2919   0.855   2.021   2.924  0.1272  0.4227 -0.0412
  903WAT     H1 2920   0.945   2.036   2.893  0.2611 -4.1897 -2.9723
  903WAT     H2 2921   0.866   1.994   3.015  1.7025  0.4985 -0.1744
  904WAT      O 2922   0.232   3.681   2.323  0.1065 -0.2491  0.1351
  904WAT     H1 2923   0.228   3.689   2.228 -0.1155  0.1986  0.1803
  904WAT     H2 2924   0.171   3.747   2.356  0.4522 -0.1552  0.6025
  905WAT      O 2925   3.599   2.455   3.518 -0.0046  0.5447  0.5520
  905WAT     H1 2926   3.564   2.435   3.605 -0.7000  0.3728  0.2442
  905WAT     H2 2927   3.638   2.542   3.527  0.9818  0.0310  1.3243
  906WAT      O 2928   2.795   3.935   4.330  0.7643 -0.4043 -0.2543
  906WAT     H1 2929   2.752   3.915   4.413 -1.1543  1.3932 -0.7277
  906WAT     H2 2930   2.836   3.853   4.304 -2.9454 -2.5035 -0.0615
  907WAT      O 2931   0.010   3.478   4.169  0.3459 -0.9381  0.1074
  907WAT     H1 2932  -0.029   3.409   4.223 -2.1696  1.1576  1.2082
  907WAT     H2 2933   0.063   3.529   4.229 -0.2562 -0.1824  0.0142
  908WAT      O 2934   0.150   0.846   0.451 -0.0436  0.2909 -0.0532
  908WAT     H1 2935   0.178   0.906   0.520 -1.9705  1.4393 -0.1865
  908WAT     H2 2936   0.213   0.860   0.379  3.4635 -2.6083  2.0968
  909WAT      O 2937   2.134   2.534   4.591  0.4230  0.0921  0.3219
  909WAT     H1 2938   2.209   2.523   4.650  1.6277  0.8665 -1.0250
  909WAT     H2 2939   2.095   2.447   4.587  1.1689 -0.3005  1.1455
  910WAT      O 2940   0.347   1.066   0.311 -0.2452  0.8840 -0.1898
  910WAT     H1 2941   0.390   1.120   0.377 -1.3904  1.3954  0.1810
  910WAT     H2 2942   0.290   1.128   0.265 -2.3262 -0.1293  0.8725
  911WAT      O 2943   2.798   4.321   3.055 -0.0461 -0.7539  0.4562
  911WAT     H1 2944   2.770   4.374   3.129  0.0090  0.1413 -0.1514
  911WAT     H2 2945   2.741   4.244   3.057 -0.6161 -0.3223  0.9152
  912WAT      O 2946   4.109   1.869   2.084  0.0718  0.5371 -0.1753
  912WAT     H1 2947   4.036   1.910   2.038  0.0198 -0.5998 -1.1443
  912WAT     H2 2948   4.086   1.875   2.176 -0.3916  1.7791 -0.3546
  913WAT      O 2949   1.443   0.716   4.526 -0.5319  0.6812  0.0551
  913WAT     H1 2950   1.427   0.752   4.439  3.4633 -0.9093 -1.5682
  913WAT     H2 2951   1.395   0.633   4.527 -0.1307  0.4309 -0.8785
  914WAT      O 2952   4.562   3.984   4.467 -0.6499  0.0114  0.2617
  914WAT     H1 2953   4.487   4.022   4.423  0.4639 -0.4394 -2.2267
  914WAT     H2 2954   4.529   3.904   4.507 -1.5802  0.0336 -0.4426
  915WAT      O 2955   0.719   4.608   3.442 -0.3670 -0.3644 -0.1060
  915WAT     H1 2956   0.744   4.658   3.364 -0.6424 -0.8375 -0.4968
  915WAT     H2 2957   0.702   4.520   3.411 -0.1199 -0.6521  0.5506
  916WAT      O 2958   3.589   4.675   3.813 -0.2708 -0.0824 -0.0715
  916WAT     H1 2959   3.614   4.760   3.777  0.0757 -0.1740 -0.0446
  916WAT     H2 2960   3.665   4.619   3.799 -0.2826 -0.2295  0.4376
  917WAT      O 2961   0.089   0.434   2.247  0.0782  0.6597  0.1242
  917WAT     H1 2962   0.005   0.453   2.289 -0.3903  1.3287 -1.0542
  917WAT     H2 2963   0.095   0.499   2.176  1.1555  0.0205 -0.3892
  918WAT      O 2964   2.159   4.712   4.125 -0.3341  0.2793 -0.1377
  918WAT     H1 2965   2.129   4.755   4.045 -1.3655  0.3837  0.2949
  918WAT     H2 2966   2.080   4.699   4.176  0.5094  1.9943  1.7393
  919WAT      O 2967   0.915   2.596   5.037  0.0929  0.3494 -0.1628
  919WAT     H1 2968   0.967   2.670   5.005  0.3860  0.8204  1.3238
  919WAT     H2 2969   0.854   2.636   5.100 -0.7776 -0.4733 -0.4513
  920WAT      O 2970   3.340   1.491   1.409 -0.0754 -0.3293 -0.2825
  920WAT     H1 2971   3.359   1.440   1.487 -1.0966  0.2021  0.3259
  920WAT     H2 2972   3.314   1.577   1.442 -2.0113 -0.5503 -1.1346
  921WAT      O 2973   1.998   0.616   3.076 -0.8427  0.0641  0.6114
  921WAT     H1 2974   1.920   0.621   3.132 -0.4323  2.3401  1.0794
  921WAT     H2 2975   2.011   0.705   3.045  0.8446 -0.5253 -0.5113
  922WAT      O 2976   1.778   0.287   0.271 -0.1026  0.1582  0.2654
  922WAT     H1 2977   1.707   0.316   0.328 -0.9477  0.7607 -1.0420
  922WAT     H2 2978   1.772   0.343   0.195  0.9916 -0.6304 -0.4385
  923WAT      O 2979   3.839   2.703   5.105  0.2367  0.7762 -0.3404
  923WAT     H1 2980   3.792   2.646   5.167 -0.2515  0.3619 -1.0804
  923WAT     H2 2981   3.860   2.781   5.156  0.9982 -0.0906  0.7284
  924WAT      O 2982   2.122   0.438   1.934 -0.1107  0.5777  0.1166
  924WAT     H1 2983   2.054   0.477   1.989 -0.0843  0.8482 -0.0400
  924WAT     H2 2984   2.097   0.463   1.845 -0.1256  0.1855  0.0108
  925WAT      O 2985   1.113   1.640   2.149  0.1182 -0.8560  0.4756
  925WAT     H1 2986   1.101   1.724   2.104  2.4013 -1.0900 -0.7141
  925WAT     H2 2987   1.208   1.630   2.155 -0.1136 -2.3557  2.5819
  926WAT      O 2988   0.504   0.969   4.370  0.2333  0.4683 -0.2376
  926WAT     H1 2989   0.496   1.062   4.389  0.2122  0.5343 -0.5572
  926WAT     H2 2990   0.558   0.934   4.441  0.1372  0.6993 -0.0501
  927WAT      O 2991   3.763   1.329   1.375 -0.3320  0.3150 -0.4181
  927WAT     H1 2992   3.774   1.421   1.401 -1.2166  0.2945  0.0479
  927WAT     H2 2993   3.692   1.331   1.311 -0.6064 -0.0973 -0.1252
  928WAT      O 2994   0.643   3.368   4.945  0.1463  0.3765  0.1737
  928WAT     H1 2995   0.587   3.426   4.893 -0.5180  0.5990  1.1101
  928WAT     H2 2996   0.583   3.300   4.976  0.3963  0.5714  1.1220
  929WAT      O 2997   4.237   1.366   1.955  1.0383  0.1983  0.0186
  929WAT     H1 2998   4.250   1.352   2.048 -1.6121  0.1749  0.4438
  929WAT     H2 2999   4.187   1.290   1.925 -0.1196  1.2620 -0.8942
  930WAT      O 3000   0.273   2.687   4.352 -0.1364 -0.3354  0.3180
  930WAT     H1 3001   0.315   2.747   4.413 -0.5027  1.1495 -0.8336
  930WAT     H2 3002   0.265   2.605   4.401  1.3502  0.2172  1.5692
  931WAT      O 3003   0.041   2.190   3.504 -0.5642 -0.3095  0.2014
  931WAT     H1 3004  -0.044   2.164   3.469 -1.1653 -0.3124  1.5744
  931WAT     H2 3005   0.029   2.190   3.599  0.7506  0.4611  0.4046
  932WAT      O 3006   0.016   4.942   4.163  0.1494 -0.0314 -0.1198
  932WAT     H1 3007   0.109   4.931   4.144  0.7828 -0.0470  2.5799
  932WAT     H2 3008  -0.023   4.965   4.079  2.4488 -0.7523 -1.4770
  933WAT      O 3009   2.715   3.973   5.118  0.0476  0.0493 -0.2510
  933WAT     H1 3010   2.737   4.066   5.118  0.7518 -0.0010 -3.2510
  933WAT     H2 3011   2.798   3.928   5.099 -0.4593 -1.1064  0.1518
  934WAT      O 3012   0.112   0.991   1.610  0.2387 -0.7186  0.3100
  934WAT     H1 3013   0.188   0.978   1.665  0.8446  0.2871 -0.2587
  934WAT     H2 3014   0.145   1.040   1.535 -0.4953 -2.3369 -1.1273
  935WAT      O 3015   4.351   1.349   2.202  0.0232 -0.3957 -0.1426
  935WAT     H1 3016   4.299   1.293   2.260 -0.7898  1.5571  1.0872
  935WAT     H2 3017   4.442   1.334   2.231 -0.2435 -0.5482  0.6483
  936WAT      O 3018   2.995   4.772   4.299 -0.3758 -0.7399 -0.0823
  936WAT     H1 3019   2.932   4.729   4.241 -0.3829 -1.1169  0.2036
  936WAT     H2 3020   2.987   4.725   4.382 -3.0406  2.0179  1.4533
  937WAT      O 3021   1.692   2.760   1.885 -0.0605 -0.3294  0.4250
  937WAT     H1 3022   1.674   2.722   1.971 -0.7486 -2.1398 -0.4589
  937WAT     H2 3023   1.771   2.716   1.856 -1.0607 -1.4161 -0.7679
  938WAT      O 3024   3.366   0.732   0.185  0.3507  0.0386  0.7200
  938WAT     H1 3025   3.321   0.705   0.265  2.7943  0.0461  2.2135
  938WAT     H2 3026   3.375   0.651   0.133 -1.1886  0.0217  0.4533
  939WAT      O 3027   2.941   0.869   4.541  0.4292 -0.2586 -0.0117
  939WAT     H1 3028   2.898   0.799   4.491 -0.4119 -0.2927  0.7333
  939WAT     H2 3029   2.957   0.938   4.477 -0.8839 -0.1849 -0.2787
  940WAT      O 3030   3.296   0.567   2.943 -0.3752  0.2503 -0.4617
  940WAT     H1 3031   3.270   0.586   2.853 -0.4654 -0.1703 -0.5260
  940WAT     H2 3032   3.214   0.548   2.989 -0.2965  0.1044 -0.3786
  941WAT      O 3033   1.936  -0.024   1.126 -0.2832 -0.4956 -0.6251
  941WAT     H1 3034   1.911  -0.029   1.218 -2.5222 -2.4608 -1.2572
  941WAT     H2 3035   1.893   0.055   1.093 -0.4558 -0.4446 -0.2807
  942WAT      O 3036   1.045   3.808   5.200 -0.5991 -0.2310  0.1254
  942WAT     H1 3037   0.973   3.860   5.166 -0.1170  0.0482 -0.4998
  942WAT     H2 3038   1.110   3.809   5.130 -0.7260 -1.9979 -0.0559
  943WAT      O 3039   0.948   2.181   3.792  0.2369  0.3462  0.2118
  943WAT     H1 3040   0.988   2.216   3.871  0.0737 -0.1703  0.5271
  943WAT     H2 3041   0.997   2.101   3.773 -0.2067  0.0702  0.2173
  944WAT      O 3042   2.560   1.935   0.200 -0.0482  0.4857  0.1163
  944WAT     H1 3043   2.497   1.963   0.266 -1.4328 -1.3975 -0.3104
  944WAT     H2 3044   2.590   1.849   0.230  0.4033  0.2489 -0.9500
  945WAT      O 3045   2.858   4.432   3.328  0.1447 -0.5177 -0.9202
  945WAT     H1 3046   2.867   4.517   3.372 -0.1136  0.9842 -3.5457
  945WAT     H2 3047   2.791   4.386   3.378  1.0949  0.3215  1.2433
  946WAT      O 3048   2.895   2.677   3.614 -0.4213  0.1114 -0.0733
  946WAT     H1 3049   2.814   2.713   3.579  0.1534  0.2577 -1.2948
  946WAT     H2 3050   2.942   2.643   3.538 -0.0457 -1.4548  0.8103
  947WAT      O 3051   1.196   2.289   0.405 -0.7236 -0.6200 -0.3024
  947WAT     H1 3052   1.199   2.375   0.449 -2.4059 -1.4877  1.6825
  947WAT     H2 3053   1.276   2.245   0.433 -0.2508 -0.0068 -0.6725
  948WAT      O 3054   2.099   2.587   4.301 -0.3135  0.1414  0.1348
  948WAT     H1 3055   2.169   2.650   4.283  0.6624 -1.0676 -0.4754
  948WAT     H2 3056   2.120   2.550   4.386 -1.1399  0.9337  0.7057
  949WAT      O 3057   2.980   0.303   3.702 -0.0007  0.3026 -0.6018
  949WAT     H1 3058   2.893   0.267   3.716 -0.2389  0.1761 -2.2036
  949WAT     H2 3059   2.988   0.373   3.767 -1.0585 -0.0507 -0.0699
  950WAT      O 3060   0.953   2.995   1.834 -0.3648  0.0362 -0.2885
  950WAT     H1 3061   0.867   3.037   1.831  0.0069  0.7773 -2.2319
  950WAT     H2 3062   0.992   3.026   1.915 -1.3332  0.9558 -0.1561
  951WAT      O 3063   4.369   0.412   5.121 -0.1967  0.0508 -0.5738
  951WAT     H1 3064   4.414   0.447   5.198  0.0766  0.4840 -0.9294
  951WAT     H2 3065   4.439   0.381   5.064 -0.1934  2.4770 -2.0001
  952WAT      O 3066   4.176   3.140   0.711 -0.7055 -0.2186  0.1464
  952WAT     H1 3067   4.243   3.193   0.668  0.4562 -3.3528 -2.3287
  952WAT     H2 3068   4.093   3.184   0.689  0.2509  1.3654 -0.4749
  953WAT      O 3069   3.585   3.991   1.466 -0.2228  0.3409 -0.0004
  953WAT     H1 3070   3.611   4.027   1.381  2.1067 -1.3663 -0.1117
  953WAT     H2 3071   3.627   4.049   1.530  2.0112 -0.9895 -0.1559
  954WAT      O 3072   3.220   3.101   2.543 -0.1932  0.1277  0.3223
  954WAT     H1 3073   3.161   3.170   2.574 -1.8610 -1.1684  0.1523
  954WAT     H2 3074   3.263   3.140   2.466  0.2339  1.5766  1.2439
  955WAT      O 3075   3.438   0.163   3.124  0.1961  0.0262 -0.2038
  955WAT     H1 3076   3.354   0.118   3.109  0.3123  0.1126 -1.2219
  955WAT     H2 3077   3.459   0.145   3.215 -0.4784 -0.7842 -0.1921
  956WAT      O 3078   2.578   1.097   1.062 -0.0367  0.5098  0.2721
  956WAT     H1 3079   2.544   1.174   1.109  0.0960  0.9451 -0.3270
  956WAT     H2 3080   2.620   1.134   0.983 -0.8483 -0.2485 -0.5363
  957WAT      O 3081   0.707   0.122   1.110  0.3411 -0.0294 -0.3741
  957WAT     H1 3082   0.705   0.088   1.200  0.4583  0.3623 -0.2181
  957WAT     H2 3083   0.702   0.217   1.121  0.7516  0.0418 -0.7659
  958WAT      O 3084   2.578   2.752   1.022 -0.3171 -0.0333  0.2518
  958WAT     H1 3085   2.557   2.706   0.941 -0.8051  0.0859  0.3096
  958WAT     H2 3086   2.517   2.717   1.087 -2.7251  2.6648 -0.3296
  959WAT      O 3087   0.630   2.188   4.938  0.3769 -0.0127 -0.2199
  959WAT     H1 3088   0.716   2.227   4.951 -1.0292  3.0011  1.0315
  959WAT     H2 3089   0.599   2.226   4.855  0.5012 -1.6499 -1.0419
  960WAT      O 3090   2.204   0.306   1.632  0.6016  0.5623 -0.4679
  960WAT     H1 3091   2.229   0.269   1.716  0.5682 -0.7884 -1.0207
  960WAT     H2 3092   2.161   0.389   1.653 -1.3242 -0.7368  0.9847
  961WAT      O 3093   0.301   1.889   0.354 -0.6203  0.1803  0.0557
  961WAT     H1 3094   0.333   1.802   0.335 -0.8268  0.3283 -1.0114
  961WAT     H2 3095   0.237   1.876   0.425 -1.6236 -0.7182 -0.9758
  962WAT      O 3096   1.553   4.724   4.664  0.3345  0.1333 -0.5338
  962WAT     H1 3097   1.562   4.631   4.688  2.2869  0.3508 -0.2172
  962WAT     H2 3098   1.607   4.733   4.585  0.9660  1.1858 -0.0001
  963WAT      O 3099   1.780   2.923   4.872  0.1795  0.2470 -0.0045
  963WAT     H1 3100   1.818   2.960   4.952  2.1151 -1.6862  0.0802
  963WAT     H2 3101   1.795   2.990   4.806  2.8672  0.0976  0.3083
  964WAT      O 3102   2.475   3.621   5.105  0.0442  0.1630 -0.6114
  964WAT     H1 3103   2.419   3.547   5.127  0.4044 -0.1469 -0.7387
  964WAT     H2 3104   2.562   3.595   5.133  0.3590  0.0993 -1.6188
  965WAT      O 3105   4.266   4.006   3.241 -0.8057  0.5575  0.0773
  965WAT     H1 3106   4.175   3.984   3.218 -1.7361  0.6426  3.1225
  965WAT     H2 3107   4.299   3.927   3.284  1.3629 -0.2019 -2.7032
  966WAT      O 3108   3.630   3.624   2.122  0.0387  0.1167  0.0860
  966WAT     H1 3109   3.549   3.647   2.167 -2.1984 -0.5427 -3.2332
  966WAT     H2 3110   3.666   3.708   2.094 -0.2810  0.3350  0.3197
  967WAT      O 3111   3.299   0.560   1.706 -0.1290  0.4101  0.2733
  967WAT     H1 3112   3.268   0.561   1.796  0.9341  0.5689  0.6493
  967WAT     H2 3113   3.219   0.561   1.653 -0.7615  2.1812  1.1832
  968WAT      O 3114   0.168   3.132   2.007 -0.4738 -0.3317  0.8985
  968WAT     H1 3115   0.175   3.106   2.099  0.1727  0.4177  1.0774
  968WAT     H2 3116   0.252   3.107   1.969 -0.8135 -0.8145  0.4619
  969WAT      O 3117   1.625   0.381   2.620 -0.3138  0.0853 -0.1708
  969WAT     H1 3118   1.534   0.357   2.601  0.0961 -1.6061 -0.1377
  969WAT     H2 3119   1.622   0.417   2.709 -0.7552 -1.4225  0.4590
  970WAT      O 3120   4.057   4.682   1.003  0.1384  0.0206  0.6150
  970WAT     H1 3121   4.152   4.672   1.005  0.3441  1.7380  0.9683
  970WAT     H2 3122   4.033   4.665   0.911  0.5985 -1.5837  0.7576
  971WAT      O 3123   1.600   1.657   4.540  0.0754  0.1695 -0.0803
  971WAT     H1 3124   1.662   1.716   4.497 -0.7975  0.5688 -0.8202
  971WAT     H2 3125   1.516   1.673   4.495 -0.7171  0.1187  1.3202
  972WAT      O 3126   4.204   2.575   1.919 -0.4034  0.5522  0.1143
  972WAT     H1 3127   4.291   2.555   1.955 -0.6330  0.3075  0.5546
  972WAT     H2 3128   4.221   2.609   1.832  0.0522 -1.1382 -0.4996
  973WAT      O 3129   1.212   0.875   2.652  0.2693  0.4447 -0.8289
  973WAT     H1 3130   1.220   0.917   2.566 -1.1406 -0.8788 -1.6650
  973WAT     H2 3131   1.118   0.873   2.669  0.5726  1.6223  1.2756
  974WAT      O 3132   0.538   2.149   1.752  0.5170 -0.1098  0.0843
  974WAT     H1 3133   0.488   2.187   1.824  0.7880  0.9073 -0.2439
  974WAT     H2 3134   0.553   2.059   1.779 -0.9658 -0.2759  0.4656
  975WAT      O 3135   2.173   1.460   0.086 -0.3551 -0.1438 -0.1647
  975WAT     H1 3136   2.167   1.377   0.132  1.6497  0.2938  1.0102
  975WAT     H2 3137   2.224   1.440   0.007 -0.6645 -0.1896 -0.3562
  976WAT      O 3138   1.978   0.758   0.511 -0.2980  0.1392 -0.4140
  976WAT     H1 3139   1.952   0.801   0.593  0.0580 -2.1214  0.9542
  976WAT     H2 3140   1.919   0.682   0.505  1.2725 -1.0734 -0.9722
  977WAT      O 3141   1.381   2.967   3.064 -0.4832 -0.6842  0.0538
  977WAT     H1 3142   1.330   3.012   2.996 -0.7171 -3.0383 -1.4196
  977WAT     H2 3143   1.421   3.038   3.114 -1.6353  1.1646 -1.5038
  978WAT      O 3144   0.299   4.756   4.505  0.0551 -0.1109  0.3938
  978WAT     H1 3145   0.280   4.811   4.581  0.2396 -0.5064  0.7265
  978WAT     H2 3146   0.309   4.668   4.541  0.2001 -0.2902 -0.0819
  979WAT      O 3147   1.680   4.927   1.523  0.1967 -0.0305  0.4881
  979WAT     H1 3148   1.665   4.839   1.487  1.0478 -0.4770  1.1790
  979WAT     H2 3149   1.739   4.913   1.597 -1.0628  0.9291  1.7226
  980WAT      O 3150   0.104   1.813   0.517 -0.1487  0.0384  0.3080
  980WAT     H1 3151   0.057   1.876   0.571  0.8777  0.9615  0.1445
  980WAT     H2 3152   0.154   1.760   0.580  0.8203  0.9263  0.3053
  981WAT      O 3153   4.474   1.021   4.534  0.0903 -0.2696 -0.0301
  981WAT     H1 3154   4.471   1.116   4.529 -1.3633 -0.3022 -0.1067
  981WAT     H2 3155   4.538   0.995   4.467 -1.6635  0.5142 -2.1263
  982WAT      O 3156   0.855   3.954   1.904  0.3676  0.0984 -0.3631
  982WAT     H1 3157   0.896   3.899   1.837  1.3804  0.8640 -0.3909
  982WAT     H2 3158   0.896   3.925   1.986 -1.6493 -1.5961  0.1334
  983WAT      O 3159   3.388   4.620   0.097  0.0313  0.5367 -0.2591
  983WAT     H1 3160   3.323   4.599   0.164 -0.6041 -0.2387 -1.0923
  983WAT     H2 3161   3.469   4.581   0.130 -0.5631 -1.0166 -0.5357
  984WAT      O 3162   4.390   3.436   1.713  0.0434  0.0646 -0.1263
  984WAT     H1 3163   4.466   3.495   1.712  0.4854 -0.3540  2.4950
  984WAT     H2 3164   4.416   3.365   1.771 -2.0066 -0.6291  0.0113
  985WAT      O 3165   3.047   0.143   0.920  0.6176 -0.7975 -0.9998
  985WAT     H1 3166   3.104   0.200   0.970  2.2921 -1.2865 -2.2657
  985WAT     H2 3167   3.017   0.197   0.847 -1.6627 -0.1442  0.3165
  986WAT      O 3168   1.191   2.550   2.891 -0.4178 -0.0416  0.0420
  986WAT     H1 3169   1.244   2.481   2.851 -0.0109  0.8253 -0.9291
  986WAT     H2 3170   1.226   2.560   2.979  1.4034  0.8812 -0.7490
  987WAT      O 3171   4.010   2.781   0.591 -0.3383 -0.6862 -0.0467
  987WAT     H1 3172   3.990   2.687   0.588  0.8878 -0.9725  0.0895
  987WAT     H2 3173   4.047   2.795   0.678  1.2209 -0.4755 -0.7072
  988WAT      O 3174   1.007   2.238   4.052  0.0846  0.0320  0.1029
  988WAT     H1 3175   1.053   2.317   4.081 -1.5378  1.4870 -1.0959
  988WAT     H2 3176   0.940   2.223   4.118 -2.1587  2.0423 -1.5616
  989WAT      O 3177   1.624   2.969   3.706  0.3236  0.2649  0.0407
  989WAT     H1 3178   1.642   3.063   3.709 -1.4223  0.6540 -0.5291
  989WAT     H2 3179   1.563   2.954   3.778 -0.2507 -0.2259 -0.5398
  990WAT      O 3180   0.886   0.982   4.337 -0.5608 -0.0785  0.6072
  990WAT     H1 3181   0.852   0.902   4.377 -1.5113  0.9183  1.8520
  990WAT     H2 3182   0.818   1.009   4.276 -1.0413  0.6975  1.4576
  991WAT      O 3183   3.745   1.569   4.451 -0.1220  0.4830 -0.0610
  991WAT     H1 3184   3.834   1.603   4.462 -0.3847  0.9377  0.7546
  991WAT     H2 3185   3.696   1.643   4.414 -0.2589  0.3776 -0.0888
  992WAT      O 3186   2.256   0.979   0.900  0.2759  0.1688  0.0228
  992WAT     H1 3187   2.259   1.057   0.845 -0.6511  0.2771  0.1125
  992WAT     H2 3188   2.322   0.920   0.862 -1.5517 -0.5039 -2.3541
  993WAT      O 3189   2.372   1.402   3.057 -0.3167  0.6088 -0.1466
  993WAT     H1 3190   2.389   1.308   3.067  0.7729  0.5507 -1.9524
  993WAT     H2 3191   2.417   1.443   3.130 -0.0868 -0.2228  0.1857
  994WAT      O 3192   0.323   1.583   2.678 -0.4731 -0.1405 -0.4069
  994WAT     H1 3193   0.282   1.515   2.624  1.4608 -1.3814 -0.3978
  994WAT     H2 3194   0.270   1.661   2.661 -0.8880 -0.8539 -2.8831
  995WAT      O 3195   0.393   3.331   2.985 -0.4016 -0.0559  0.4008
  995WAT     H1 3196   0.385   3.257   2.926  0.1330 -1.6756  2.2432
  995WAT     H2 3197   0.474   3.374   2.959  1.4519 -2.4980  1.6849
  996WAT      O 3198   2.123   0.590   5.080  0.4397  0.8556 -0.1876
  996WAT     H1 3199   2.068   0.648   5.132 -1.4699 -0.2640 -0.8624
  996WAT     H2 3200   2.113   0.504   5.120 -1.0009 -0.0175 -2.2198
  997WAT      O 3201   0.766   3.488   4.518 -0.2721  0.2091  0.4636
  997WAT     H1 3202   0.850   3.466   4.558  0.0993 -2.6287 -1.6119
  997WAT     H2 3203   0.788   3.551   4.449  0.1627 -0.4390 -0.0007
  998WAT      O 3204   1.698   2.697   3.732  0.2804 -0.4840 -0.6597
  998WAT     H1 3205   1.669   2.780   3.694  1.9889  0.2301 -0.4808
  998WAT     H2 3206   1.639   2.632   3.694 -2.1884  0.9486  0.4595
  999WAT      O 3207   2.268   3.526   3.238 -0.0517  0.8556 -0.1017
  999WAT     H1 3208   2.301   3.597   3.184 -1.7964  1.2326 -0.7527
  999WAT     H2 3209   2.258   3.564   3.325 -1.3924  1.6078 -0.5397
 1000WAT      O 3210   1.147   4.860   0.509 -0.4427  0.1840 -0.0372
 1000WAT     H1 3211   1.094   4.934   0.539 -1.9347 -1.5267  1.8543
 1000WAT     H2 3212   1.209   4.845   0.580 -0.6062 -0.7673 -0.0787
 1001WAT      O 3213   1.018   0.052   1.093  0.3607  0.5243 -0.3632
 1001WAT     H1 3214   1.009  -0.008   1.018 -0.5211 -0.7848  0.7301
 1001WAT     H2 3215   0.927   0.070   1.118  0.5321 -1.8791  2.4962
 1002WAT      O 3216   3.732   3.995   2.350 -0.3178 -0.8727  0.3083
 1002WAT     H1 3217   3.648   4.006   2.396 -0.6547  1.5749 -0.7778
 1002WAT     H2 3218   3.788   4.064   2.386 -0.6207  1.2084 -2.8545
 1003WAT      O 3219   3.791   3.113   4.517  0.0688 -0.1994  0.0642
 1003WAT     H1 3220   3.818   3.191   4.566  0.0595 -0.3675  0.3403
 1003WAT     H2 3221   3.827   3.126   4.429  0.0135  0.1469  0.0901
 1004WAT      O 3222   4.431   4.940   0.241 -0.1358 -0.3990  0.1190
 1004WAT     H1 3223   4.392   4.854   0.229  0.2975 -0.3560 -2.0435
 1004WAT     H2 3224   4.361   4.993   0.280 -0.5643 -1.5717  0.9906
 1005WAT      O 3225   3.753   4.219   2.029  0.1146 -0.2887 -0.8279
 1005WAT     H1 3226   3.791   4.287   1.974 -2.2424  2.4213  0.6171
 1005WAT     H2 3227   3.797   4.230   2.114  0.2940 -1.1524 -0.7982
 1006WAT      O 3228   2.188   3.082   0.099 -0.8856 -0.0528 -0.5568
 1006WAT     H1 3229   2.235   2.999   0.094 -1.4320 -0.4530  0.4464
 1006WAT     H2 3230   2.158   3.100   0.010  1.2847  0.3092 -1.2554
 1007WAT      O 3231   1.512   2.330   2.421 -0.0739  0.1913 -0.6410
 1007WAT     H1 3232   1.528   2.413   2.467 -1.2144  0.3392 -0.4830
 1007WAT     H2 3233   1.495   2.356   2.330  1.2343 -0.0254 -0.9725
 1008WAT      O 3234   1.534   2.612   4.004  0.6833 -0.5878 -0.0907
 1008WAT     H1 3235   1.626   2.631   3.982  0.6889  0.3660  0.6921
 1008WAT     H2 3236   1.484   2.666   3.944  0.6304 -0.9750 -0.3986
 1009WAT      O 3237   2.991   2.980   3.895 -0.6856  0.5003 -0.0772
 1009WAT     H1 3238   2.970   3.061   3.850 -1.0399 -0.1036 -1.0281
 1009WAT     H2 3239   3.041   2.929   3.831 -0.3932  0.0107  0.5315
 1010WAT      O 3240   1.143   5.120   1.417  0.6724  0.0107  0.0940
 1010WAT     H1 3241   1.208   5.050   1.423 -0.6395 -1.4084 -1.5262
 1010WAT     H2 3242   1.102   5.122   1.504 -0.3225 -2.3628 -0.2401
 1011WAT      O 3243   2.562   4.418   3.909  0.1708 -0.2866  0.2664
 1011WAT     H1 3244   2.506   4.496   3.911 -0.0213 -0.4191  1.9299
 1011WAT     H2 3245   2.509   4.352   3.864 -0.5294 -0.0504  0.7285
 1012WAT      O 3246   2.637   1.410   1.310 -0.2106  0.0709  0.4058
 1012WAT     H1 3247   2.569   1.389   1.246  0.3692 -2.5188  0.5152
 1012WAT     H2 3248   2.593   1.404   1.395 -0.3563  0.6765  0.3716
 1013WAT      O 3249   3.892   1.918   3.710 -0.0945  0.0374  0.1401
 1013WAT     H1 3250   3.864   1.831   3.681 -0.8686 -0.1628  1.4364
 1013WAT     H2 3251   3.827   1.943   3.776 -1.0968  2.4864 -1.6470
 1014WAT      O 3252   2.720   3.434   3.148  0.4391 -0.1880  0.0460
 1014WAT     H1 3253   2.755   3.384   3.222  1.7793 -0.0217 -0.4630
 1014WAT     H2 3254   2.738   3.525   3.170  0.9828 -0.1465 -0.5562
 1015WAT      O 3255   2.373   4.548   4.902  0.0218  0.4263  0.5412
 1015WAT     H1 3256   2.344   4.511   4.819  0.6915 -0.8543  0.8497
 1015WAT     H2 3257   2.313   4.621   4.918  0.6375  1.5318 -1.6648
 1016WAT      O 3258   3.668   4.402   2.298 -0.8535  0.6109 -0.4120
 1016WAT     H1 3259   3.586   4.404   2.247 -0.5399  1.9165 -0.9128
 1016WAT     H2 3260   3.728   4.457   2.248  0.7673 -1.2989 -0.7184
 1017WAT      O 3261   4.153   1.359   3.090  0.4348 -0.2833  0.6520
 1017WAT     H1 3262   4.105   1.357   3.173  0.6224  0.7731  0.8036
 1017WAT     H2 3263   4.086   1.368   3.023  0.2394 -1.7628  0.6277
 1018WAT      O 3264   1.652   2.658   2.136  0.1697 -0.1473 -0.4166
 1018WAT     H1 3265   1.734   2.621   2.167  0.1103  0.0579 -0.0156
 1018WAT     H2 3266   1.591   2.584   2.137  0.3029 -0.2589 -0.5454
 1019WAT      O 3267   4.477   4.015   4.151 -0.1658 -0.3676  0.5270
 1019WAT     H1 3268   4.557   3.976   4.116 -0.0167  0.8922 -0.6314
 1019WAT     H2 3269   4.507   4.090   4.202 -0.5517 -0.4645  0.8940
 1020WAT      O 3270   3.006   0.503   3.058  0.8052  0.3225  0.2151
 1020WAT     H1 3271   3.018   0.409   3.065 -0.2490  0.1687  0.0250
 1020WAT     H2 3272   3.052   0.539   3.134  0.6870 -0.3850  0.6271
 1021WAT      O 3273  -0.007   2.374   2.363  0.4733 -0.6773 -1.2273
 1021WAT     H1 3274  -0.011   2.467   2.342  0.5542 -0.5942 -0.8767
 1021WAT     H2 3275   0.067   2.341   2.312  1.8935 -0.0877  0.3855
 1022WAT      O 3276   2.626   4.833   3.438 -0.9203  0.0322  0.2105
 1022WAT     H1 3277   2.547   4.813   3.388 -0.1752  0.2747 -1.1480
 1022WAT     H2 3278   2.640   4.927   3.424  0.0024 -0.1525 -0.2103
 1023WAT      O 3279   1.337   2.330   2.691  0.5176  0.1790 -0.1614
 1023WAT     H1 3280   1.275   2.263   2.662  0.0153  0.8353 -0.6420
 1023WAT     H2 3281   1.423   2.290   2.679  0.2003 -0.6679  0.3149
 1024WAT      O 3282   1.478   1.630   0.214  0.1599 -0.3308  0.0070
 1024WAT     H1 3283   1.426   1.553   0.193  0.2253 -0.0008 -1.4792
 1024WAT     H2 3284   1.569   1.601   0.203  0.2348 -0.3926  0.7442
 1025WAT      O 3285   2.096   1.096   1.108  0.4993  0.0923 -0.5080
 1025WAT     H1 3286   2.168   1.053   1.062  1.5390 -0.4383  1.5083
 1025WAT     H2 3287   2.028   1.028   1.114  0.5192  0.0366 -0.8729
 1026WAT      O 3288   1.803   3.102   4.021 -0.5510  0.1553  0.5363
 1026WAT     H1 3289   1.817   3.145   4.106  0.3699  0.5495  0.1980
 1026WAT     H2 3290   1.729   3.044   4.036 -0.5789  0.4256  1.5413
 1027WAT      O 3291   0.875   2.381   0.100 -0.2032  0.3526 -0.3719
 1027WAT     H1 3292   0.957   2.359   0.056 -0.9803 -0.1601 -1.6154
 1027WAT     H2 3293   0.809   2.374   0.032 -1.6628 -1.7038  1.1178
 1028WAT      O 3294   2.472   2.291   4.806 -0.4495  0.4770  0.0534
 1028WAT     H1 3295   2.450   2.265   4.895 -0.0309 -1.0823 -0.2572
 1028WAT     H2 3296   2.415   2.365   4.787 -1.8936 -0.3676  0.9560
 1029WAT      O 3297   2.654   4.304   2.656  0.3457  0.0242 -0.0423
 1029WAT     H1 3298   2.599   4.281   2.731 -0.5539 -0.4040 -0.8138
 1029WAT     H2 3299   2.739   4.266   2.676 -0.2922 -1.3976  0.0978
 1030WAT      O 3300   2.025   4.078   4.101 -0.1378 -0.0759  0.8472
 1030WAT     H1 3301   1.965   4.012   4.136 -1.4710 -0.0087 -1.1689
 1030WAT     H2 3302   2.057   4.040   4.019  1.8668  0.3225  1.3780
 1031WAT      O 3303   3.564   1.777   3.805  0.2943 -0.2394 -0.5526
 1031WAT     H1 3304   3.610   1.792   3.723 -0.3979 -0.0495 -0.9086
 1031WAT     H2 3305   3.601   1.841   3.866  0.5017 -0.0952 -0.8303
 1032WAT      O 3306   1.103   5.026   2.356 -0.3313  0.5360 -1.0744
 1032WAT     H1 3307   1.048   4.952   2.331 -1.5560  1.1419 -0.2115
 1032WAT     H2 3308   1.115   5.075   2.274  1.1345 -0.9713 -1.8352
 1033WAT      O 3309   0.485   0.963   3.103  0.3899 -0.3112 -0.0559
 1033WAT     H1 3310   0.542   0.984   3.029  0.3815  0.4295  0.1418
 1033WAT     H2 3311   0.419   0.904   3.067 -1.2538  2.1539 -1.3290
 1034WAT      O 3312   4.143   3.929   4.706 -0.0527  0.0917  0.2642
 1034WAT     H1 3313   4.071   3.979   4.743 -0.4606  0.8494 -1.4448
 1034WAT     H2 3314   4.154   3.855   4.765 -1.6373  0.4436  1.0432
 1035WAT      O 3315   2.494   3.080   4.245 -0.2635 -0.0153  0.5913
 1035WAT     H1 3316   2.414   3.077   4.298  0.4865  0.4918  1.7964
 1035WAT     H2 3317   2.543   3.154   4.280  0.9876 -0.6570  0.2559
 1036WAT      O 3318   4.208   4.430   1.342 -0.2285  0.3502  0.5233
 1036WAT     H1 3319   4.178   4.435   1.251 -1.9468  1.5613  1.1185
 1036WAT     H2 3320   4.224   4.337   1.356 -1.8456 -0.1198 -0.4429
 1037WAT      O 3321   4.429   4.163   3.504 -0.5403  0.2548 -0.8771
 1037WAT     H1 3322   4.392   4.225   3.440 -2.2759  0.7023  0.4918
 1037WAT     H2 3323   4.498   4.118   3.456 -1.2913  1.0896 -2.8472
 1038WAT      O 3324   1.096   0.950   4.037  0.4106  0.1765 -0.0898
 1038WAT     H1 3325   1.154   1.025   4.052 -0.4977  1.6997 -3.2413
 1038WAT     H2 3326   1.020   0.968   4.092  0.7605  0.8973  0.1737
 1039WAT      O 3327   2.571   3.600   2.647  0.1706 -0.5336  0.4169
 1039WAT     H1 3328   2.598   3.667   2.585  0.2796 -1.9191 -1.1117
 1039WAT     H2 3329   2.516   3.646   2.710 -0.2313  0.8792 -0.9051
 1040WAT      O 3330   2.447   3.941   3.132 -1.0253  0.0535  0.1144
 1040WAT     H1 3331   2.515   3.968   3.070  0.0808 -0.5122  1.0426
 1040WAT     H2 3332   2.473   3.980   3.215 -2.0096  0.0742  0.4207
 1041WAT      O 3333   0.021   1.765   3.724  0.4491 -0.0453 -0.4552
 1041WAT     H1 3334  -0.029   1.787   3.645  1.1939  2.0469 -0.3989
 1041WAT     H2 3335   0.100   1.818   3.718  0.1905  0.7631  2.0617
 1042WAT      O 3336   4.244   4.608   2.847  0.6921  0.2536 -0.0586
 1042WAT     H1 3337   4.154   4.590   2.821  2.1051 -2.0708 -4.1515
 1042WAT     H2 3338   4.257   4.556   2.927 -0.5504 -2.7485 -1.6532
 1043WAT      O 3339   1.091   4.036   2.820 -0.4957  0.1120 -0.1958
 1043WAT     H1 3340   1.032   4.018   2.894 -1.2016 -2.1462 -1.2139
 1043WAT     H2 3341   1.144   4.109   2.850 -0.3558 -1.0450  2.8224
 1044WAT      O 3342   4.488   2.666   2.846 -0.5067 -0.3911 -0.0502
 1044WAT     H1 3343   4.488   2.691   2.754  1.9901  2.2641  0.5491
 1044WAT     H2 3344   4.488   2.570   2.844  1.2282 -0.4425 -2.8721
 1045WAT      O 3345   3.514   0.340   2.123  0.1182  0.4527  0.6499
 1045WAT     H1 3346   3.422   0.359   2.142 -0.0154  0.5131 -0.0225
 1045WAT     H2 3347   3.511   0.258   2.074  0.2171  1.5691 -1.3388
 1046WAT      O 3348   4.114   3.448   4.519 -0.5070  0.1060 -0.2025
 1046WAT     H1 3349   4.040   3.409   4.565  0.6766 -1.4147  0.5321
 1046WAT     H2 3350   4.097   3.432   4.426 -0.0252 -2.4230  0.0639
 1047WAT      O 3351   0.141   1.802   2.672 -0.3778 -0.3042  0.5216
 1047WAT     H1 3352   0.070   1.746   2.703  0.5129 -1.6402  0.2434
 1047WAT     H2 3353   0.098   1.870   2.620 -1.5034 -0.5734  1.0735
 1048WAT      O 3354   3.404   0.060   1.322 -0.3748 -0.4531 -0.2650
 1048WAT     H1 3355   3.318   0.054   1.365  0.2236 -1.5710  0.8320
 1048WAT     H2 3356   3.451   0.128   1.371 -0.2795 -0.5385 -0.2385
 1049WAT      O 3357   0.602   0.770   2.299  0.1870  0.3485  0.0097
 1049WAT     H1 3358   0.543   0.806   2.365  0.6856  0.0125  0.6551
 1049WAT     H2 3359   0.669   0.838   2.287  1.7828 -0.7580  2.0826
 1050WAT      O 3360   2.543   4.774   0.573  0.6740  0.0345  0.3335
 1050WAT     H1 3361   2.552   4.867   0.591  0.3736  0.4487 -1.4154
 1050WAT     H2 3362   2.607   4.757   0.503  1.6415 -1.3698  1.5033
 1051WAT      O 3363   4.033   2.935   3.846 -0.1765  0.3330 -0.0555
 1051WAT     H1 3364   4.019   2.917   3.939 -0.4901 -1.0716 -0.3492
 1051WAT     H2 3365   3.945   2.931   3.808  0.0410  0.0864 -0.5332
 1052WAT      O 3366   3.618   2.473   2.511 -0.1641  0.3101 -0.1689
 1052WAT     H1 3367   3.531   2.482   2.473  0.5405  2.0757 -1.5158
 1052WAT     H2 3368   3.676   2.461   2.436  0.7189 -1.7173  0.7478
 1053WAT      O 3369   3.163   3.255   5.223 -0.1580 -0.5396  0.6694
 1053WAT     H1 3370   3.213   3.181   5.256  0.2216 -0.0445  1.2326
 1053WAT     H2 3371   3.215   3.332   5.248 -0.4846 -0.0906 -0.0052
 1054WAT      O 3372   1.337   3.379   1.859  0.1519 -0.6188  0.3444
 1054WAT     H1 3373   1.280   3.342   1.791 -0.9028 -0.6621  1.2228
 1054WAT     H2 3374   1.334   3.473   1.844  1.4415 -0.7285 -0.8121
 1055WAT      O 3375   4.137   0.061   2.842 -0.5641 -0.1536  0.0482
 1055WAT     H1 3376   4.062   0.011   2.876  1.4646 -2.5302  1.3544
 1055WAT     H2 3377   4.164   0.013   2.764 -1.1545  1.4955 -1.2313
 1056WAT      O 3378   4.041   3.807   0.403 -0.1366  0.0630 -0.0167
 1056WAT     H1 3379   4.076   3.896   0.407 -0.5846  0.2056  0.9265
 1056WAT     H2 3380   4.072   3.773   0.319  3.0065 -0.1401  1.1228
 1057WAT      O 3381   1.315   4.744   5.214 -0.2999 -0.7770 -0.0786
 1057WAT     H1 3382   1.251   4.711   5.277 -0.0601 -0.9674  0.0731
 1057WAT     H2 3383   1.354   4.664   5.177 -0.5726 -0.6641 -0.6037
 1058WAT      O 3384   0.212   0.401   4.769  0.4418  0.0067  0.4727
 1058WAT     H1 3385   0.275   0.329   4.772 -0.2393 -0.7483 -1.6953
 1058WAT     H2 3386   0.140   0.368   4.714 -0.8993  1.5798  1.1864
 1059WAT      O 3387   3.074   4.947   2.305 -0.2163 -0.2118 -0.4179
 1059WAT     H1 3388   3.094   5.019   2.366 -1.3633  1.0222 -1.4395
 1059WAT     H2 3389   3.024   4.885   2.357 -1.0236  0.7409 -0.0316
 1060WAT      O 3390   2.207   1.196   0.224 -0.0082 -0.0875 -0.0130
 1060WAT     H1 3391   2.175   1.115   0.263 -0.8474  0.6178  0.7890
 1060WAT     H2 3392   2.257   1.239   0.293  0.6250 -0.0205 -0.5012
 1061WAT      O 3393   1.193   0.877   3.059 -0.0562 -0.0057  0.1223
 1061WAT     H1 3394   1.252   0.945   3.027  0.2018 -0.8469 -1.3154
 1061WAT     H2 3395   1.190   0.812   2.988 -1.9410 -0.4715  0.5507
 1062WAT      O 3396   1.871   0.993   4.922  0.2562  0.7432 -0.2054
 1062WAT     H1 3397   1.780   0.963   4.933 -0.0807  1.2865 -1.4073
 1062WAT     H2 3398   1.893   1.032   5.007  0.2532 -1.6019  0.9626
 1063WAT      O 3399   2.056   2.089   1.922  0.3634 -0.3161 -0.2680
 1063WAT     H1 3400   2.122   2.123   1.861  0.6147  0.5950  0.4841
 1063WAT     H2 3401   2.094   2.008   1.956  1.1079  0.1948  0.1468
 1064WAT      O 3402   1.441   4.250   0.605  0.2910  0.1942  0.2945
 1064WAT     H1 3403   1.449   4.203   0.688 -0.6730 -1.6780 -0.6080
 1064WAT     H2 3404   1.348   4.248   0.585  0.5372  0.3800 -0.9659
 1065WAT      O 3405   0.629   1.328   4.315 -0.1521  0.5357  0.3556
 1065WAT     H1 3406   0.644   1.326   4.410  0.9215 -1.8995  0.2073
 1065WAT     H2 3407   0.543   1.288   4.303 -0.0828  0.4203  0.2497
 1066WAT      O 3408   2.091   1.298   4.733 -0.3389 -0.2810 -0.0087
 1066WAT     H1 3409   2.086   1.312   4.639 -0.9564  0.9689  0.1920
 1066WAT     H2 3410   2.108   1.385   4.770  0.2934 -0.8154  1.0097
 1067WAT      O 3411   1.183   0.732   0.248 -0.6710 -0.3138  0.2826
 1067WAT     H1 3412   1.273   0.729   0.217 -0.7662  2.2971 -0.5147
 1067WAT     H2 3413   1.142   0.653   0.213  0.9678 -0.9003 -0.3949
 1068WAT      O 3414   3.119   3.966   3.219  0.3659  0.0805  0.0408
 1068WAT     H1 3415   3.029   3.975   3.187 -0.0579  0.8835  1.3629
 1068WAT     H2 3416   3.116   3.892   3.279  0.6671 -0.1139 -0.1858
 1069WAT      O 3417   4.076   2.109   5.229 -0.0982  0.2080 -0.5455
 1069WAT     H1 3418   4.061   2.044   5.160  0.1892 -0.0077 -0.4082
 1069WAT     H2 3419   4.154   2.156   5.200 -0.8178  1.0998 -1.0914
 1070WAT      O 3420   3.029   0.884   0.202  1.1045  0.2323  0.5487
 1070WAT     H1 3421   3.106   0.829   0.187  1.6121  0.6271  1.5940
 1070WAT     H2 3422   3.046   0.926   0.286 -0.4243  0.0659  0.9692
 1071WAT      O 3423   3.652   3.027   5.090  0.0787 -0.3031 -0.0965
 1071WAT     H1 3424   3.743   3.031   5.061  0.6454 -0.7965  1.5047
 1071WAT     H2 3425   3.602   3.064   5.018  1.4009 -1.3613 -1.6153
 1072WAT      O 3426   2.511   4.536   1.272  0.3804  0.0805  0.4780
 1072WAT     H1 3427   2.495   4.565   1.182 -0.5215 -0.2345  0.5270
 1072WAT     H2 3428   2.556   4.609   1.314  1.4617 -0.0412 -0.4222
 1073WAT      O 3429   1.851   1.172   4.732  0.6190  0.0499  0.3584
 1073WAT     H1 3430   1.935   1.217   4.741  0.5056  0.1852  0.7829
 1073WAT     H2 3431   1.854   1.103   4.799  0.4458 -0.0283  0.2863
 1074WAT      O 3432   4.408   0.299   3.580  0.1896 -0.4260 -0.8645
 1074WAT     H1 3433   4.359   0.239   3.636 -0.8448  0.3367 -0.9332
 1074WAT     H2 3434   4.496   0.261   3.576 -1.1084 -3.6746 -3.3822
 1075WAT      O 3435   0.747   1.852   2.718  0.1225  0.6016  0.2898
 1075WAT     H1 3436   0.770   1.920   2.781 -1.8415  0.2103  1.5074
 1075WAT     H2 3437   0.656   1.869   2.696  0.1407 -0.5526 -0.7898
 1076WAT      O 3438   3.596   0.993   0.748  0.1977  0.8832 -0.1305
 1076WAT     H1 3439   3.654   0.987   0.673 -2.2153  0.1670 -2.0875
 1076WAT     H2 3440   3.594   0.905   0.784 -0.1006  0.7668 -0.4262
 1077WAT      O 3441   3.988   0.431   3.451 -0.0408 -0.4417 -0.0009
 1077WAT     H1 3442   3.931   0.401   3.522  0.6148  0.2483  0.8401
 1077WAT     H2 3443   4.049   0.359   3.437 -0.4574 -0.7637 -0.1894
 1078WAT      O 3444   2.137   1.849   2.038  0.2930 -0.5344  0.3149
 1078WAT     H1 3445   2.178   1.792   2.103 -0.4701 -0.2726  1.0406
 1078WAT     H2 3446   2.155   1.806   1.954  1.5273 -0.7253  0.6635
 1079WAT      O 3447   3.868   0.089   3.215  0.2487 -0.4049  0.4640
 1079WAT     H1 3448   3.828   0.152   3.274  0.2280  0.2143 -0.1985
 1079WAT     H2 3449   3.936   0.138   3.170  1.0841 -1.1805  0.8360
 1080WAT      O 3450   4.321   0.649   4.774  0.4549  0.4395  0.0731
 1080WAT     H1 3451   4.287   0.563   4.798  1.6167  0.2736  1.2071
 1080WAT     H2 3452   4.245   0.706   4.776 -0.0922 -0.2903  0.6725
 1081WAT      O 3453   1.993   3.391   1.397  0.1425 -0.5315  0.1820
 1081WAT     H1 3454   2.031   3.479   1.404 -0.9621  0.4024 -3.4858
 1081WAT     H2 3455   1.933   3.385   1.471 -0.5876  2.2899 -0.0764
 1082WAT      O 3456   2.161   0.726   3.542 -0.8431  0.2445  0.2081
 1082WAT     H1 3457   2.203   0.714   3.627  0.7590  2.1066 -0.2749
 1082WAT     H2 3458   2.124   0.639   3.522  1.8693 -1.2515  1.1453
 1083WAT      O 3459   1.756   4.637   1.521  0.0176 -0.1799 -0.2100
 1083WAT     H1 3460   1.678   4.622   1.575  0.8408 -1.1004  0.7546
 1083WAT     H2 3461   1.830   4.627   1.581  0.9156  0.2860 -1.1927
 1084WAT      O 3462   1.619   4.785   2.995  0.3723 -0.3328  0.0555
 1084WAT     H1 3463   1.631   4.860   2.937  0.6396  0.1047  0.6622
 1084WAT     H2 3464   1.558   4.728   2.948 -0.7646  0.8071  0.0753
 1085WAT      O 3465   3.169   3.398   0.640  0.5114  0.2552 -0.4965
 1085WAT     H1 3466   3.091   3.452   0.625 -0.4566 -0.5271  1.2958
 1085WAT     H2 3467   3.210   3.391   0.554 -1.1459  1.0853 -1.4228
 1086WAT      O 3468   2.413   4.229   5.009  0.2616 -0.4021  0.0916
 1086WAT     H1 3469   2.347   4.295   4.988  2.6324  1.5087 -2.0993
 1086WAT     H2 3470   2.363   4.148   5.017 -2.5593  1.2354  0.7461
 1087WAT      O 3471   2.729   1.472   0.591 -0.2618 -0.5698 -0.2892
 1087WAT     H1 3472   2.783   1.513   0.659 -2.7279  0.4096  1.1859
 1087WAT     H2 3473   2.789   1.461   0.517  2.4773 -1.4802  1.8977
 1088WAT      O 3474   1.802   4.017   2.851  0.4866  0.1641  0.4714
 1088WAT     H1 3475   1.854   3.942   2.882  0.0175 -1.1785 -1.7407
 1088WAT     H2 3476   1.863   4.071   2.802  0.4074  0.1631  0.3711
 1089WAT      O 3477   1.369   4.857   0.705 -0.7123  0.1152 -0.1766
 1089WAT     H1 3478   1.437   4.918   0.674 -1.2372  0.4308 -0.7425
 1089WAT     H2 3479   1.416   4.776   0.723 -0.4410 -0.3040 -2.4649
 1090WAT      O 3480   3.773   0.141   1.229 -0.1912  0.0536  0.2304
 1090WAT     H1 3481   3.767   0.236   1.225 -0.6814  0.1964  2.5921
 1090WAT     H2 3482   3.792   0.114   1.140  0.3167  2.3842 -0.4334
 1091WAT      O 3483   1.725   0.286   1.315 -0.1562  0.0907 -0.4270
 1091WAT     H1 3484   1.795   0.305   1.252  0.6852  2.9536  1.1917
 1091WAT     H2 3485   1.771   0.248   1.390 -0.3479  1.4529  0.4173
 1092WAT      O 3486   3.774   3.500   1.272  0.3173  0.3452 -0.5041
 1092WAT     H1 3487   3.751   3.555   1.348 -0.3257 -0.9990  0.3217
 1092WAT     H2 3488   3.865   3.475   1.287 -0.7097 -2.6243  1.6837
 1093WAT      O 3489   3.498   3.967   1.967 -0.1659  0.0111  0.3198
 1093WAT     H1 3490   3.487   3.919   1.885  0.0335  0.3351  0.1041
 1093WAT     H2 3491   3.465   3.907   2.034  1.0675 -0.8580  0.1745
 1094WAT      O 3492   2.885   3.650   4.334 -0.1232  0.5400  0.0149
 1094WAT     H1 3493   2.896   3.555   4.337 -0.1528  0.5152 -0.6097
 1094WAT     H2 3494   2.832   3.666   4.256 -1.2594  0.9705  0.8471
 1095WAT      O 3495   3.750   2.653   1.198 -0.0823  0.6150  0.5091
 1095WAT     H1 3496   3.657   2.675   1.197 -0.4589 -0.8692  0.8876
 1095WAT     H2 3497   3.753   2.558   1.205  1.4733  0.6184  0.3990
 1096WAT      O 3498   0.380   2.670   2.483  0.3547 -0.8308 -0.2892
 1096WAT     H1 3499   0.453   2.627   2.527  1.5597 -0.3502 -1.7355
 1096WAT     H2 3500   0.358   2.744   2.540  1.3869 -0.6414 -0.1211
 1097WAT      O 3501   3.872   2.855   2.668  0.2770 -0.3086  0.0063
 1097WAT     H1 3502   3.898   2.855   2.576  2.2178 -0.7094  0.5022
 1097WAT     H2 3503   3.790   2.805   2.669  1.0374 -1.7035 -1.3233
 1098WAT      O 3504   0.279   4.783   3.313 -0.6949 -0.4393 -0.4505
 1098WAT     H1 3505   0.336   4.795   3.237  1.2787  1.0191  1.1583
 1098WAT     H2 3506   0.301   4.696   3.347 -1.5960 -1.1034 -1.4879
 1099WAT      O 3507   2.285   1.850   3.147  0.8221 -0.6009  0.3391
 1099WAT     H1 3508   2.281   1.781   3.081  0.0338  1.1942 -1.6418
 1099WAT     H2 3509   2.201   1.843   3.193 -1.3245  1.5666 -2.7959
 1100WAT      O 3510   0.649   2.876   0.068  0.4653 -0.1944  0.0242
 1100WAT     H1 3511   0.665   2.968   0.049 -4.3115  0.5473 -1.8317
 1100WAT     H2 3512   0.608   2.876   0.154  1.3584 -0.7699  0.4676
 1101WAT      O 3513   3.917   0.838   3.072 -0.2039  0.4231 -0.4513
 1101WAT     H1 3514   3.977   0.808   3.004 -0.3831 -0.1501 -0.3626
 1101WAT     H2 3515   3.830   0.822   3.036 -0.3002  0.4576 -0.2374
 1102WAT      O 3516   3.380   4.597   2.402 -0.4425 -0.3902  0.0760
 1102WAT     H1 3517   3.378   4.567   2.311 -3.3855  1.9891 -0.8228
 1102WAT     H2 3518   3.408   4.520   2.452 -0.1359 -2.2082 -2.6722
 1103WAT      O 3519   3.017   4.443   1.463 -0.7490  0.4340  0.5325
 1103WAT     H1 3520   3.081   4.513   1.452 -0.0214 -0.1645  0.9141
 1103WAT     H2 3521   2.933   4.489   1.472 -0.1235  1.3348  2.1751
 1104WAT      O 3522   0.746   4.412   1.812 -0.4819 -0.0785 -0.3863
 1104WAT     H1 3523   0.718   4.321   1.821 -0.3236 -0.2696 -1.5980
 1104WAT     H2 3524   0.680   4.451   1.753 -0.8895  0.7594  0.5914
 1105WAT      O 3525   2.787   4.556   3.693  0.0911 -0.4036  0.3371
 1105WAT     H1 3526   2.774   4.478   3.747  0.3013 -0.8655 -0.2658
 1105WAT     H2 3527   2.700   4.595   3.688 -0.5958 -2.0013 -1.4361
 1106WAT      O 3528   0.265   4.222   4.188 -0.1660 -0.1208 -0.2280
 1106WAT     H1 3529   0.253   4.213   4.093 -2.9746  0.3646 -0.0239
 1106WAT     H2 3530   0.328   4.293   4.198  0.3408 -0.3230 -1.7244
 1107WAT      O 3531   2.847   2.335   0.885  0.3425  0.4857  0.3522
 1107WAT     H1 3532   2.821   2.407   0.828 -1.2566  1.4037  2.1320
 1107WAT     H2 3533   2.786   2.264   0.864  1.5538 -0.2218 -0.9931
 1108WAT      O 3534   1.843   2.666   3.955  0.1910  0.4078 -0.5687
 1108WAT     H1 3535   1.800   2.664   3.869 -1.5430  0.2015  0.2548
 1108WAT     H2 3536   1.885   2.752   3.959 -0.2524  0.6774 -1.3763
 1109WAT      O 3537   1.854   2.083   0.656  0.3027 -0.2277 -0.0512
 1109WAT     H1 3538   1.935   2.134   0.660 -0.2323  0.9897 -2.7765
 1109WAT     H2 3539   1.878   1.998   0.695  1.9138  1.1515  2.2556
 1110WAT      O 3540   3.446   0.188   2.531  0.7320  0.2476  0.3932
 1110WAT     H1 3541   3.508   0.249   2.491 -0.3872  0.5749 -0.9428
 1110WAT     H2 3542   3.374   0.243   2.560  0.2003 -0.3140  0.1621
 1111WAT      O 3543   0.358   0.223   2.224 -0.9358 -0.5821 -0.0059
 1111WAT     H1 3544   0.337   0.215   2.131  1.1650 -0.6574 -0.5330
 1111WAT     H2 3545   0.375   0.316   2.237 -0.0946 -0.7219 -0.0064
 1112WAT      O 3546   2.568   0.124   3.149  0.1624  0.1945  0.1086
 1112WAT     H1 3547   2.625   0.150   3.221 -0.9146 -0.0933  1.0962
 1112WAT     H2 3548   2.506   0.196   3.140 -0.0707 -0.0342 -0.1479
 1113WAT      O 3549   1.799   1.498   4.463 -0.7565 -0.3395 -0.2388
 1113WAT     H1 3550   1.738   1.552   4.513 -0.0973 -0.6995  0.9901
 1113WAT     H2 3551   1.743   1.454   4.398 -1.2967  1.8166 -1.3509
 1114WAT      O 3552   0.689   0.959   1.078  0.1832 -0.0188  0.1981
 1114WAT     H1 3553   0.639   0.988   1.154  1.2670 -1.1445  1.3925
 1114WAT     H2 3554   0.639   0.885   1.043  0.8385 -1.0068  1.2642
 1115WAT      O 3555   4.040   4.028   2.095  0.2811  0.4609  0.5805
 1115WAT     H1 3556   3.944   4.028   2.097  0.2695  1.6445  0.6940
 1115WAT     H2 3557   4.064   3.937   2.077 -0.8393  0.0010  1.3547
 1116WAT      O 3558   2.523   1.834   2.974  0.3736 -0.5236 -0.2656
 1116WAT     H1 3559   2.479   1.791   3.047 -0.1632 -0.6141 -0.6397
 1116WAT     H2 3560   2.552   1.918   3.010  0.9787 -0.9729  0.3207
 1117WAT      O 3561   0.250   3.544   3.162 -0.0414  0.0308  0.4227
 1117WAT     H1 3562   0.326   3.580   3.116  0.4354 -1.0939  0.2901
 1117WAT     H2 3563   0.178   3.554   3.101  0.2106  0.1850  0.1489
 1118WAT      O 3564   3.507   2.657   3.105  0.6158 -0.0223 -0.2377
 1118WAT     H1 3565   3.478   2.718   3.037  2.3957  1.1972  0.0317
 1118WAT     H2 3566   3.518   2.711   3.183 -2.7941 -1.6259  1.5862
 1119WAT      O 3567   2.140   2.186   5.168 -0.6839  0.1567 -0.3874
 1119WAT     H1 3568   2.121   2.129   5.242 -1.2698  0.5260 -0.2489
 1119WAT     H2 3569   2.094   2.267   5.188 -1.4199  0.0267 -1.4892
 1120WAT      O 3570   4.230   0.844   1.992  0.5413 -0.1405  0.6446
 1120WAT     H1 3571   4.295   0.775   2.005 -0.2742 -0.7281  1.8093
 1120WAT     H2 3572   4.205   0.836   1.900  1.2696 -0.6605  0.4820
 1121WAT      O 3573   0.364   3.346   3.364  0.1925  0.2583  0.1314
 1121WAT     H1 3574   0.319   3.379   3.287  0.1332  0.2313  0.1547
 1121WAT     H2 3575   0.381   3.424   3.417  1.9490  0.5609 -0.7930
 1122WAT      O 3576   0.347   3.850   4.889 -0.4513 -0.1874  0.1510
 1122WAT     H1 3577   0.424   3.899   4.859  0.4694 -0.5132  1.8696
 1122WAT     H2 3578   0.277   3.877   4.829  0.2754  2.4403  0.3658
 1123WAT      O 3579   0.768   1.860   0.823  0.2205 -0.2684 -0.1421
 1123WAT     H1 3580   0.828   1.851   0.897  0.5580  1.7428 -0.1059
 1123WAT     H2 3581   0.696   1.914   0.857 -0.1612 -0.2213 -0.9869
 1124WAT      O 3582   4.449   5.155   4.637 -0.1464 -0.6931 -0.4811
 1124WAT     H1 3583   4.427   5.188   4.550  0.4344  1.3278  0.0871
 1124WAT     H2 3584   4.416   5.065   4.638  1.2254 -1.3297 -3.3192
 1125WAT      O 3585   2.025   5.182   1.914 -0.1877 -0.2146  0.0797
 1125WAT     H1 3586   2.043   5.088   1.920  2.5811  0.2124 -0.2294
 1125WAT     H2 3587   1.931   5.190   1.933 -0.1791 -2.8545  1.7108
 1126WAT      O 3588   1.665   2.546   0.325  0.0307 -0.2029 -0.3087
 1126WAT     H1 3589   1.707   2.495   0.256  0.0517  1.3225 -1.4610
 1126WAT     H2 3590   1.582   2.575   0.287  0.5895  1.6765 -0.1638
 1127WAT      O 3591   0.309   2.074   3.545  0.2179 -0.0568  0.3014
 1127WAT     H1 3592   0.308   2.023   3.463 -1.1285  0.4319 -0.0229
 1127WAT     H2 3593   0.225   2.122   3.544  0.7640  0.9708  1.3371
 1128WAT      O 3594   0.407   4.343   3.190  0.5680 -0.5084 -0.4249
 1128WAT     H1 3595   0.456   4.293   3.256 -2.1741 -4.3066 -0.9007
 1128WAT     H2 3596   0.371   4.417   3.238  0.8841 -1.6532  1.7119
 1129WAT      O 3597   2.330   1.228   2.473  0.3899 -0.7437 -0.2135
 1129WAT     H1 3598   2.265   1.273   2.528  0.0683 -1.8422  0.3237
 1129WAT     H2 3599   2.289   1.145   2.451  1.0058 -0.8142 -1.1556
 1130WAT      O 3600   4.049   1.460   3.376 -0.7312 -0.7641  0.2463
 1130WAT     H1 3601   4.072   1.532   3.435  0.3140  0.4221 -1.4910
 1130WAT     H2 3602   3.964   1.430   3.406 -0.7162  0.5082  1.6771
 1131WAT      O 3603   3.440   0.018   2.749 -0.0682  0.0689 -0.7996
 1131WAT     H1 3604   3.524  -0.024   2.731  0.3414  0.6175 -0.1956
 1131WAT     H2 3605   3.417   0.060   2.666 -0.4320 -1.2338 -1.3776
 1132WAT      O 3606   4.293   3.404   3.298  0.1390 -0.0892 -0.0544
 1132WAT     H1 3607   4.363   3.378   3.238  0.4700 -0.6537  0.5646
 1132WAT     H2 3608   4.283   3.330   3.358 -1.2554 -0.1802 -0.3546
 1133WAT      O 3609   3.371   3.542   3.357  0.3385  0.0784 -0.2503
 1133WAT     H1 3610   3.368   3.464   3.302 -1.2110  0.4513 -0.7509
 1133WAT     H2 3611   3.443   3.594   3.322 -0.5627  0.2623 -1.9096
 1134WAT      O 3612   4.131   4.070   0.450 -0.0045 -0.3107  0.0424
 1134WAT     H1 3613   4.101   4.049   0.539  0.0115  1.3859  0.4748
 1134WAT     H2 3614   4.226   4.061   0.454 -0.1418 -2.6781 -0.5114
 1135WAT      O 3615   1.916   0.433   2.136 -0.2446 -0.3117  0.3457
 1135WAT     H1 3616   1.837   0.384   2.114 -0.9996  0.3439  1.4785
 1135WAT     H2 3617   1.899   0.469   2.223  0.4266  1.6067 -0.2549
 1136WAT      O 3618   1.548   2.168   2.629 -0.4277  0.2910 -0.5692
 1136WAT     H1 3619   1.641   2.145   2.636 -0.5733 -0.3479 -0.6846
 1136WAT     H2 3620   1.543   2.226   2.553 -0.4138 -1.2968 -1.8307
 1137WAT      O 3621   2.840   1.934   1.754 -0.0239  0.3178  0.5063
 1137WAT     H1 3622   2.863   1.952   1.845 -3.6554 -0.8424  1.8103
 1137WAT     H2 3623   2.897   1.861   1.729  0.8355  0.4643  1.9117
 1138WAT      O 3624   3.429   0.643   0.642  0.0761  0.4390  0.0905
 1138WAT     H1 3625   3.417   0.587   0.719  0.3849  0.3620  0.0836
 1138WAT     H2 3626   3.458   0.583   0.574 -1.3450  0.3007 -0.4235
 1139WAT      O 3627   2.607   2.247   2.926 -0.0684 -0.4354 -0.1445
 1139WAT     H1 3628   2.528   2.300   2.940 -1.4918 -2.1806 -1.1991
 1139WAT     H2 3629   2.593   2.168   2.978  0.9330 -0.8277 -0.4370
 1140WAT      O 3630   1.692   1.034   3.175 -0.1086 -0.3262 -0.0961
 1140WAT     H1 3631   1.767   1.083   3.209 -1.2426  1.0510  0.5205
 1140WAT     H2 3632   1.632   1.026   3.250 -1.1586 -0.2395 -0.8994
 1141WAT      O 3633   0.934   2.387   2.303  0.2877  0.2314  0.6181
 1141WAT     H1 3634   0.874   2.459   2.287  0.5885  0.4991  0.6758
 1141WAT     H2 3635   0.932   2.376   2.398 -1.0091 -0.9311  0.4802
 1142WAT      O 3636   4.028   0.184   4.761 -0.2973 -0.1548  0.3113
 1142WAT     H1 3637   3.964   0.219   4.823 -2.5277 -0.4085 -1.7088
 1142WAT     H2 3638   3.995   0.096   4.740 -0.7160  0.5771 -2.5427
 1143WAT      O 3639   1.916   2.239   4.520  0.0218 -0.0962 -0.1851
 1143WAT     H1 3640   1.923   2.257   4.427 -1.6175 -1.6893 -0.6704
 1143WAT     H2 3641   1.828   2.203   4.532 -1.7738  4.3635  2.7556
 1144WAT      O 3642   4.475   2.171   4.679  0.0211 -0.0099  0.2860
 1144WAT     H1 3643   4.478   2.087   4.725 -0.1350 -0.9113 -1.3067
 1144WAT     H2 3644   4.434   2.151   4.595  0.5246  1.5618 -0.3617
 1145WAT      O 3645   0.811   1.679   1.448  0.2124  0.2907  0.1634
 1145WAT     H1 3646   0.756   1.637   1.515 -1.5027 -0.6288 -1.7100
 1145WAT     H2 3647   0.898   1.643   1.463 -0.6264 -1.7442  0.4758
 1146WAT      O 3648   0.305   2.697   4.806 -0.2539 -0.3828  0.2195
 1146WAT     H1 3649   0.346   2.611   4.808 -0.9748 -0.7542  3.3610
 1146WAT     H2 3650   0.213   2.679   4.784 -0.2478 -0.3342  0.1537
 1147WAT      O 3651   4.030   4.514   1.682  0.3761  0.0783 -0.8519
 1147WAT     H1 3652   3.990   4.515   1.595  1.5552 -0.9040 -1.4356
 1147WAT     H2 3653   4.102   4.451   1.675  0.1692 -0.4320  0.9910
 1148WAT      O 3654   3.560   1.421   1.216 -0.1066  0.6021  0.1094
 1148WAT     H1 3655   3.525   1.486   1.277 -3.1041  0.0847 -0.8870
 1148WAT     H2 3656   3.631   1.468   1.170 -0.4295  2.2712  1.2127
 1149WAT      O 3657   1.476   1.458   3.277  0.2922 -0.3919  0.1103
 1149WAT     H1 3658   1.540   1.509   3.227 -0.3455  0.7855  0.4512
 1149WAT     H2 3659   1.448   1.389   3.216 -0.2653  0.8393 -1.0844
 1150WAT      O 3660   3.268   3.187   2.078 -0.4504  0.1311 -0.3123
 1150WAT     H1 3661   3.283   3.159   2.168  0.6626  0.1628 -0.4816
 1150WAT     H2 3662   3.180   3.155   2.058  0.5507 -2.8632 -0.3407
 1151WAT      O 3663   4.144   2.026   2.858  0.4413 -0.2792  0.2947
 1151WAT     H1 3664   4.083   2.075   2.803  0.8719 -1.2975 -1.1502
 1151WAT     H2 3665   4.104   2.027   2.945 -1.7110 -0.9870 -0.6162
 1152WAT      O 3666   0.537   2.451   1.571 -0.0235  0.2462 -0.3349
 1152WAT     H1 3667   0.481   2.423   1.499 -0.7745  0.8612  0.0002
 1152WAT     H2 3668   0.477   2.467   1.644  0.3639  2.3752 -0.3971
 1153WAT      O 3669   4.224   1.416   4.807  0.4191 -0.6847 -0.1730
 1153WAT     H1 3670   4.138   1.382   4.834  0.1570  0.2155  0.1650
 1153WAT     H2 3671   4.227   1.504   4.844  1.1688 -0.4170 -0.8554
 1154WAT      O 3672   3.350   3.514   1.542  0.6460 -0.5774 -0.5076
 1154WAT     H1 3673   3.429   3.464   1.521  0.4781 -0.3240 -1.8306
 1154WAT     H2 3674   3.307   3.528   1.457 -2.1275 -2.7896  0.3726
 1155WAT      O 3675   0.179   4.205   5.120  0.6911 -0.1540  0.1729
 1155WAT     H1 3676   0.222   4.121   5.103  0.2582  0.0467 -2.1975
 1155WAT     H2 3677   0.104   4.207   5.061 -1.3207  0.5172  2.5564
 1156WAT      O 3678   0.697   0.309   1.966  0.2871 -0.2629  0.0750
 1156WAT     H1 3679   0.605   0.309   1.991 -0.0830 -0.8601 -1.2180
 1156WAT     H2 3680   0.710   0.393   1.923 -0.0936 -0.8366 -1.2050
 1157WAT      O 3681   3.344   1.533   4.004  1.0871  0.0653 -0.4645
 1157WAT     H1 3682   3.265   1.565   4.047  0.3567 -0.9130 -1.0455
 1157WAT     H2 3683   3.313   1.492   3.923  2.2662  0.3573 -1.0926
 1158WAT      O 3684   4.109   2.083   3.680 -0.0852  0.4292 -0.1563
 1158WAT     H1 3685   4.191   2.052   3.718  0.6334 -0.6936 -2.5032
 1158WAT     H2 3686   4.046   2.013   3.698  0.0147  0.3125 -0.2671
 1159WAT      O 3687   4.378   3.999   2.157 -0.5368 -0.1785 -0.0825
 1159WAT     H1 3688   4.394   4.065   2.089 -1.5332  0.1483 -0.0174
 1159WAT     H2 3689   4.392   4.046   2.240 -1.8517  0.1296 -0.0250
 1160WAT      O 3690   1.329   1.315   4.274  0.1005  0.9502  0.1625
 1160WAT     H1 3691   1.297   1.232   4.308 -0.8037  0.1198 -2.4667
 1160WAT     H2 3692   1.424   1.307   4.277  0.0248  0.1802  0.7555
 1161WAT      O 3693   0.997   2.844   3.776 -0.1824  0.3513  0.3041
 1161WAT     H1 3694   0.944   2.886   3.843  0.2387  1.4906 -0.0488
 1161WAT     H2 3695   0.997   2.751   3.799 -4.3450 -0.1563 -1.0169
 1162WAT      O 3696   3.207   4.338   0.483 -0.5186 -0.2288 -0.2653
 1162WAT     H1 3697   3.141   4.395   0.521  0.8447  1.3036 -0.0944
 1162WAT     H2 3698   3.212   4.264   0.544  0.5754  1.4597  1.8565
 1163WAT      O 3699   2.519   1.768   2.152  0.0057 -0.0400  0.0942
 1163WAT     H1 3700   2.521   1.713   2.074 -0.8866 -1.6925  1.1748
 1163WAT     H2 3701   2.587   1.833   2.137  0.2369 -0.6530 -1.8038
 1164WAT      O 3702   0.711   0.758   5.049  0.2152 -0.0800  0.3704
 1164WAT     H1 3703   0.736   0.692   4.984  1.3404 -0.4066  1.1102
 1164WAT     H2 3704   0.741   0.841   5.011 -0.4681 -0.0765 -0.1878
 1165WAT      O 3705   0.292   3.019   1.741 -0.3712 -0.2698  0.2546
 1165WAT     H1 3706   0.211   2.970   1.748 -1.4555  1.6681  3.2565
 1165WAT     H2 3707   0.356   2.967   1.790 -0.4664 -0.5364  0.0993
 1166WAT      O 3708   2.577   3.132   5.213 -0.6305 -0.2644 -0.0314
 1166WAT     H1 3709   2.488   3.152   5.186 -0.6634 -0.0665  0.2237
 1166WAT     H2 3710   2.593   3.043   5.179 -0.4856  0.1709 -1.1579
 1167WAT      O 3711   2.480   2.606   3.983  0.6238 -0.0965 -0.1860
 1167WAT     H1 3712   2.511   2.648   4.063 -1.5268 -0.3887  0.8670
 1167WAT     H2 3713   2.407   2.660   3.954  0.6888 -0.6065 -1.3680
 1168WAT      O 3714   0.747   2.806   0.818 -0.0916  0.4138  0.5006
 1168WAT     H1 3715   0.802   2.821   0.895  0.2820  0.4429  0.2320
 1168WAT     H2 3716   0.794   2.848   0.746 -0.3958  0.3154  0.2397
 1169WAT      O 3717   4.201   0.577   4.165  0.2673 -0.1249 -0.1472
 1169WAT     H1 3718   4.162   0.553   4.248  0.7277  1.4380  0.5512
 1169WAT     H2 3719   4.234   0.666   4.178  1.0318 -0.1286 -1.7545
 1170WAT      O 3720   3.077   2.460   1.913  0.1709  0.2075  0.3079
 1170WAT     H1 3721   2.989   2.489   1.888 -0.4961 -1.1557  0.9658
 1170WAT     H2 3722   3.077   2.463   2.008  0.2745 -1.3164  0.3761
 1171WAT      O 3723   0.647   3.851   3.690  0.4356  0.1751 -0.5201
 1171WAT     H1 3724   0.684   3.938   3.676  0.4661  0.3935  0.8381
 1171WAT     H2 3725   0.552   3.864   3.688  0.4335  0.1003 -1.0895
 1172WAT      O 3726   1.190   2.100   1.829  0.1039 -0.2776  0.0948
 1172WAT     H1 3727   1.098   2.126   1.824  0.0899 -0.3349  0.0572
 1172WAT     H2 3728   1.191   2.027   1.891 -0.0326 -0.9970 -0.7449
 1173WAT      O 3729   1.971   1.596   1.517 -0.2262  0.0357  0.2354
 1173WAT     H1 3730   2.061   1.602   1.486 -0.3345 -1.4634 -0.4778
 1173WAT     H2 3731   1.922   1.655   1.461 -0.0230 -0.8182 -0.8755
 1174WAT      O 3732   3.634   0.756   0.868  0.2104 -0.2772 -0.0510
 1174WAT     H1 3733   3.664   0.726   0.782  0.5253 -1.0646  0.3185
 1174WAT     H2 3734   3.690   0.710   0.930  0.3069  0.6434  0.5727
 1175WAT      O 3735   3.846   2.787   4.780 -0.6448 -0.0091  0.0615
 1175WAT     H1 3736   3.783   2.715   4.788  0.2781 -1.0833 -1.5218
 1175WAT     H2 3737   3.821   2.832   4.699 -2.0566  2.4077  1.7364
 1176WAT      O 3738   2.899   0.628   3.812 -0.3621 -0.0249 -0.2861
 1176WAT     H1 3739   2.907   0.712   3.857 -0.0270 -0.1292 -0.1488
 1176WAT     H2 3740   2.987   0.591   3.814 -0.7082 -0.8661  0.6267
 1177WAT      O 3741   0.713   4.828   2.410 -0.2236 -0.0479  0.1216
 1177WAT     H1 3742   0.666   4.748   2.433 -0.2773  0.2226  0.9824
 1177WAT     H2 3743   0.654   4.899   2.436 -0.5624  0.2772 -1.4752
 1178WAT      O 3744   3.417   4.146   3.743  0.0519 -0.2906  0.5364
 1178WAT     H1 3745   3.381   4.063   3.711  1.5027 -1.2119  1.1612
 1178WAT     H2 3746   3.401   4.143   3.837  0.4730 -0.0526  0.6158
 1179WAT      O 3747   4.161   4.877   3.877 -0.7270  0.1234  0.5622
 1179WAT     H1 3748   4.152   4.876   3.782  0.0549 -0.0184  0.4818
 1179WAT     H2 3749   4.112   4.800   3.906 -2.5256  1.1866  0.4412
 1180WAT      O 3750   2.161   3.327   4.646 -0.3161 -0.0035  0.2205
 1180WAT     H1 3751   2.189   3.384   4.718 -0.4831 -0.0372  0.3118
 1180WAT     H2 3752   2.120   3.387   4.583  1.5362  0.3272 -0.7546
 1181WAT      O 3753   2.520   3.078   0.463  0.1734  0.1367  0.5075
 1181WAT     H1 3754   2.436   3.088   0.418  0.0804  0.8356  0.8161
 1181WAT     H2 3755   2.522   2.986   0.489 -0.2485 -0.0161  0.0189
 1182WAT      O 3756   2.047   3.897   0.202  0.4813  0.2943 -0.8882
 1182WAT     H1 3757   2.040   3.949   0.282  1.0097 -0.7642 -0.1243
 1182WAT     H2 3758   1.960   3.902   0.162  0.5972  1.9878 -1.0104
 1183WAT      O 3759   4.480   2.122   1.218  0.7555 -0.1288  0.0680
 1183WAT     H1 3760   4.556   2.145   1.272  0.6191  0.1423  0.1460
 1183WAT     H2 3761   4.444   2.044   1.260  1.1729 -0.4457 -0.1514
 1184WAT      O 3762   1.036   1.064   2.443  0.0059  0.2312 -0.0563
 1184WAT     H1 3763   0.946   1.061   2.474  0.2497  1.0443  0.7823
 1184WAT     H2 3764   1.063   1.155   2.459  0.8992  0.0512 -0.4998
 1185WAT      O 3765   1.151   0.677   1.874 -0.2943 -0.0365  0.1055
 1185WAT     H1 3766   1.094   0.628   1.932 -0.7292 -0.7442 -0.9092
 1185WAT     H2 3767   1.104   0.759   1.858 -0.1942  0.1446  0.6865
 1186WAT      O 3768   3.909   4.799   1.208 -0.1241 -0.4314 -0.1690
 1186WAT     H1 3769   3.968   4.740   1.160  1.7424  0.3571  1.0675
 1186WAT     H2 3770   3.861   4.846   1.139  1.2684 -0.5222 -1.2423
 1187WAT      O 3771   0.863   1.973   1.317  0.6323  0.2264 -0.3367
 1187WAT     H1 3772   0.776   1.994   1.283  1.1332  1.6628 -0.7989
 1187WAT     H2 3773   0.922   1.989   1.244  1.2023 -2.0611 -0.4738
 1188WAT      O 3774   0.586   1.922   2.186 -0.0714 -0.7751  0.3039
 1188WAT     H1 3775   0.520   1.888   2.246 -0.0097 -1.4981 -0.0294
 1188WAT     H2 3776   0.604   2.011   2.218 -0.6306 -0.8555  0.8597
 1189WAT      O 3777   1.015   4.072   0.773  0.1089 -0.2359  0.4068
 1189WAT     H1 3778   1.077   4.141   0.748  0.8984 -0.7919  0.8236
 1189WAT     H2 3779   1.028   4.060   0.867 -0.9729 -0.0309  0.5961
 1190WAT      O 3780   4.298   0.734   2.783 -0.4993  0.5239  0.0457
 1190WAT     H1 3781   4.248   0.702   2.858  1.5435 -0.7344  0.9675
 1190WAT     H2 3782   4.333   0.818   2.811  0.1485  0.1185  0.4868
 1191WAT      O 3783   4.546   1.220   3.924 -0.2458 -0.6890  0.3512
 1191WAT     H1 3784   4.536   1.174   3.841 -1.7347 -0.1665  0.2138
 1191WAT     H2 3785   4.457   1.224   3.960  0.3043 -0.4926  1.7458
 1192WAT      O 3786   0.737   5.123   0.779  0.3691 -0.5393  0.5238
 1192WAT     H1 3787   0.749   5.108   0.873  1.6015  2.4221  0.9573
 1192WAT     H2 3788   0.660   5.180   0.774 -0.2964 -1.4869 -0.3919
 1193WAT      O 3789   4.129   2.016   3.137  0.4120  0.3665  0.3776
 1193WAT     H1 3790   4.114   2.110   3.144  1.2424  0.4320  1.5377
 1193WAT     H2 3791   4.049   1.976   3.172  0.3116  0.6396  0.4607
 1194WAT      O 3792   4.405   0.297   0.332  0.2054 -0.1430 -0.4224
 1194WAT     H1 3793   4.473   0.275   0.269  1.0066  0.8156  0.0666
 1194WAT     H2 3794   4.444   0.277   0.417  0.2281  1.2244 -0.0894
 1195WAT      O 3795   2.521   2.786   4.945 -0.4235  0.9016  0.0316
 1195WAT     H1 3796   2.569   2.830   5.015  2.3767  2.3136 -2.5343
 1195WAT     H2 3797   2.460   2.852   4.911  2.0437  2.2059 -2.2117
 1196WAT      O 3798   1.097   2.460   1.884 -0.2347 -0.0517  0.1516
 1196WAT     H1 3799   1.063   2.543   1.916  1.0472  0.9801 -1.0328
 1196WAT     H2 3800   1.188   2.458   1.914 -0.3094 -1.1420  0.3576
 1197WAT      O 3801   4.329   2.111   1.653 -0.5011  0.0805 -0.1138
 1197WAT     H1 3802   4.380   2.031   1.668 -0.2279  0.1219 -0.7743
 1197WAT     H2 3803   4.388   2.182   1.675 -0.5960  0.1140  0.0376
 1198WAT      O 3804   1.164   2.775   5.035 -0.3646 -0.4883  0.0724
 1198WAT     H1 3805   1.231   2.842   5.026 -0.3095 -0.4910  0.4572
 1198WAT     H2 3806   1.212   2.693   5.045 -0.4052 -0.4013  1.1006
 1199WAT      O 3807   4.501   2.169   5.097  0.1792  0.1337 -0.2012
 1199WAT     H1 3808   4.548   2.148   5.177  0.2057 -1.4513 -0.6041
 1199WAT     H2 3809   4.433   2.231   5.124  0.5652  0.0805  0.9217
 1200WAT      O 3810   3.456   0.166   4.351 -0.2377  0.7133  0.8160
 1200WAT     H1 3811   3.368   0.146   4.318 -0.1391  0.7580  0.5248
 1200WAT     H2 3812   3.455   0.135   4.442 -0.3307  0.0918  0.6041
 1201WAT      O 3813   0.418   2.439   2.341 -0.1321  0.7893  0.1119
 1201WAT     H1 3814   0.377   2.354   2.355  0.3343  0.5761  0.1720
 1201WAT     H2 3815   0.394   2.489   2.420  0.7301  0.2690  0.7199
 1202WAT      O 3816   3.943   2.802   1.933 -0.0156 -0.4698 -0.3180
 1202WAT     H1 3817   3.938   2.715   1.972  0.0006 -1.3465 -2.1929
 1202WAT     H2 3818   3.898   2.859   1.996  0.7563 -1.6488  1.3585
 1203WAT      O 3819   0.114   4.545   1.908  0.3267 -0.1114  0.0047
 1203WAT     H1 3820   0.065   4.499   1.840  0.7004  0.1129 -0.4187
 1203WAT     H2 3821   0.201   4.505   1.906 -0.2634 -1.6410  1.8541
 1204WAT      O 3822   0.366   0.487   2.286 -0.4873  0.0724  0.2617
 1204WAT     H1 3823   0.365   0.582   2.295  1.1768  0.3232 -1.7199
 1204WAT     H2 3824   0.273   0.463   2.281 -0.9737  1.4387  1.7049
 1205WAT      O 3825   0.444   0.193   4.309  0.4442  0.1468 -0.2912
 1205WAT     H1 3826   0.352   0.195   4.334  0.7938 -2.0217  1.4493
 1205WAT     H2 3827   0.442   0.164   4.217 -0.6006 -0.9413  0.0426
 1206WAT      O 3828   0.633   1.857   4.287 -0.5012 -0.1855  0.2081
 1206WAT     H1 3829   0.642   1.780   4.231 -1.3170 -0.7409  0.8298
 1206WAT     H2 3830   0.540   1.859   4.310 -0.0378 -0.4268  2.2044
 1207WAT      O 3831   4.456   3.831   4.731 -0.3777  0.8551  0.0840
 1207WAT     H1 3832   4.382   3.890   4.731  0.6439  2.2113  1.0756
 1207WAT     H2 3833   4.418   3.744   4.743 -1.9364  1.2207 -1.7884
 1208WAT      O 3834   2.874   4.654   2.920  0.2754 -0.3029  0.4601
 1208WAT     H1 3835   2.783   4.641   2.892  0.5411  1.0450 -1.1401
 1208WAT     H2 3836   2.867   4.672   3.014 -1.1739  0.4054  0.2459
 1209WAT      O 3837   2.916   1.945   2.840 -0.9903 -0.2794 -0.0115
 1209WAT     H1 3838   2.875   1.868   2.799  0.4063 -2.2710  2.0669
 1209WAT     H2 3839   3.009   1.937   2.817 -0.4566 -0.5353  2.0812
 1210WAT      O 3840   0.132   0.523   0.969  0.5378 -0.4162  0.3934
 1210WAT     H1 3841   0.132   0.489   1.058 -1.0245 -3.5533 -0.6308
 1210WAT     H2 3842   0.169   0.452   0.916 -0.8368  0.3415 -1.7314
 1211WAT      O 3843   1.901   2.187   3.245  0.5652 -0.2442 -0.3878
 1211WAT     H1 3844   1.868   2.207   3.333  2.7032  0.5382  0.3007
 1211WAT     H2 3845   1.823   2.192   3.189 -0.4708  1.5764  1.0884
 1212WAT      O 3846   2.725   1.139   2.135  0.1660  0.3276  0.1070
 1212WAT     H1 3847   2.678   1.217   2.165 -0.2692  0.2622 -0.3956
 1212WAT     H2 3848   2.810   1.144   2.179  0.6910  1.8321 -1.0134
 1213WAT      O 3849   2.550   1.114   4.214  1.3579  0.2158 -0.1927
 1213WAT     H1 3850   2.474   1.170   4.228  1.9326  1.0108 -0.2073
 1213WAT     H2 3851   2.513   1.026   4.203  0.5712  0.2051  1.9787
 1214WAT      O 3852   2.370   2.788   4.230  0.6998 -0.1178 -0.1503
 1214WAT     H1 3853   2.322   2.810   4.310  2.3823 -2.8599  1.8132
 1214WAT     H2 3854   2.426   2.864   4.213 -0.1436  0.7637  0.8976
 1215WAT      O 3855   3.554   1.617   3.012  0.7655  0.1004 -0.2538
 1215WAT     H1 3856   3.602   1.541   3.044  1.5414  0.6695 -0.0191
 1215WAT     H2 3857   3.463   1.588   3.006  0.8526 -0.4837  0.9944
 1216WAT      O 3858   4.227   5.100   0.312  0.1397  0.3994 -0.1471
 1216WAT     H1 3859   4.189   5.187   0.322  0.3595  0.2610  2.7777
 1216WAT     H2 3860   4.153   5.040   0.321  0.3131  0.2316  0.1561
 1217WAT      O 3861   2.502   4.172   4.387 -0.0919 -0.2556  0.0465
 1217WAT     H1 3862   2.549   4.248   4.421  1.6894 -1.2349 -0.1018
 1217WAT     H2 3863   2.434   4.209   4.330  1.2413  1.2056 -0.6663
 1218WAT      O 3864   2.057   4.317   0.918  0.2170 -0.2794  0.2914
 1218WAT     H1 3865   2.087   4.377   0.986  0.8160 -1.2421  0.9018
 1218WAT     H2 3866   2.002   4.254   0.965 -0.5698 -0.1122 -0.3732
 1219WAT      O 3867   1.588   3.392   3.912 -0.4249 -0.3740 -0.4501
 1219WAT     H1 3868   1.619   3.325   3.851 -0.3752 -0.8476  0.0802
 1219WAT     H2 3869   1.500   3.364   3.936 -0.9217  0.4633 -1.2233
 1220WAT      O 3870   1.844   3.839   3.338  0.2752  0.1377  0.1646
 1220WAT     H1 3871   1.807   3.923   3.310 -0.3536  0.1937  1.1109
 1220WAT     H2 3872   1.930   3.835   3.295 -0.2155  0.6815 -0.8898
 1221WAT      O 3873   0.640   2.900   2.262  0.4651 -0.2124  0.2974
 1221WAT     H1 3874   0.587   2.980   2.270  0.5880 -0.3213  5.0303
 1221WAT     H2 3875   0.579   2.835   2.228 -1.5673  0.5020  2.2662
 1222WAT      O 3876   3.910   0.152   2.601 -0.0002 -0.1873 -0.1246
 1222WAT     H1 3877   3.943   0.220   2.541 -2.4369  1.0119 -0.2329
 1222WAT     H2 3878   3.934   0.183   2.688  0.5819 -0.2130 -0.2658
 1223WAT      O 3879   4.500   0.084   4.964 -0.0321 -0.4654 -0.2979
 1223WAT     H1 3880   4.419   0.097   5.014  0.1555  1.0673 -0.3288
 1223WAT     H2 3881   4.478   0.018   4.898 -1.2557 -0.0660 -0.3076
 1224WAT      O 3882   1.032   3.924   4.785  0.1864  0.2210  0.9708
 1224WAT     H1 3883   1.006   3.858   4.721 -0.3730  0.5003  0.9074
 1224WAT     H2 3884   0.977   4.000   4.765  2.4178  1.6047 -0.5309
 1225WAT      O 3885   0.294   4.618   2.902 -0.1090 -0.7361 -0.4040
 1225WAT     H1 3886   0.312   4.525   2.916 -3.5322 -1.5689 -0.7655
 1225WAT     H2 3887   0.200   4.623   2.888  0.1365  2.6414 -1.9294
 1226WAT      O 3888   3.337   0.741   3.666  0.2233 -0.5046 -0.1743
 1226WAT     H1 3889   3.262   0.798   3.684  0.2043 -0.6993  0.3865
 1226WAT     H2 3890   3.304   0.652   3.683  0.8386 -0.5286  1.0441
 1227WAT      O 3891   0.899   2.285   1.089  0.2035 -0.0508  0.0214
 1227WAT     H1 3892   0.918   2.330   1.171 -0.6360  1.8308 -0.7773
 1227WAT     H2 3893   0.980   2.291   1.039  1.3887 -2.8906  1.3498
 1228WAT      O 3894   3.984   0.801   2.775 -0.0951 -0.0655  0.2409
 1228WAT     H1 3895   4.077   0.825   2.780  0.0249  0.3736 -2.3658
 1228WAT     H2 3896   3.983   0.706   2.775  0.2296 -0.0786  1.5738
 1229WAT      O 3897   4.128   4.468   3.296 -0.1702  0.7844  0.4066
 1229WAT     H1 3898   4.049   4.484   3.244 -0.1843 -1.6708 -0.4350
 1229WAT     H2 3899   4.095   4.440   3.381 -0.1507  2.0067  0.8411
 1230WAT      O 3900   3.193   3.059   0.369 -0.0575  0.4258  1.0826
 1230WAT     H1 3901   3.168   3.142   0.329  0.7839  2.6879  4.7888
 1230WAT     H2 3902   3.124   3.042   0.433  0.0551 -1.5638  0.7370
 1231WAT      O 3903   1.482   0.120   0.131 -0.0765 -0.1879  0.0740
 1231WAT     H1 3904   1.407   0.077   0.089  1.4667 -1.9735 -1.0064
 1231WAT     H2 3905   1.507   0.189   0.070  0.2532 -0.7694 -0.4596
 1232WAT      O 3906   3.921   1.480   1.795 -0.4627 -0.6421 -0.3942
 1232WAT     H1 3907   3.949   1.554   1.849  0.4564 -0.8007 -0.6305
 1232WAT     H2 3908   3.987   1.475   1.726  1.3422 -3.5803  1.3273
 1233WAT      O 3909   0.231   1.049   2.871  0.1625  0.7029  0.0897
 1233WAT     H1 3910   0.234   1.035   2.777 -2.7312  1.4058 -0.1983
 1233WAT     H2 3911   0.233   0.961   2.908 -1.5338  0.2450 -0.8216
 1234WAT      O 3912   4.205   4.936   2.964  0.3698  0.0168  0.3301
 1234WAT     H1 3913   4.212   4.880   3.041  1.2546 -1.6361 -0.8902
 1234WAT     H2 3914   4.289   4.983   2.962  0.4756 -0.1721  0.2249
 1235WAT      O 3915   3.736   0.502   1.871 -0.5664 -0.0877 -0.2043
 1235WAT     H1 3916   3.699   0.524   1.956 -1.7632  1.1451 -0.9908
 1235WAT     H2 3917   3.663   0.467   1.821 -0.1473  0.2225 -1.0618
 1236WAT      O 3918   0.392   4.930   0.737  0.2110  0.0331 -0.4148
 1236WAT     H1 3919   0.401   4.973   0.823 -0.9853  0.6468 -0.5780
 1236WAT     H2 3920   0.481   4.901   0.716  1.1413  2.5232 -0.3206
 1237WAT      O 3921   1.353   0.918   1.686 -0.8404 -0.2044 -0.1493
 1237WAT     H1 3922   1.263   0.888   1.695 -0.3584 -2.0262 -0.8754
 1237WAT     H2 3923   1.371   0.911   1.592 -0.1771  0.8845 -0.1219
 1238WAT      O 3924   3.511   0.954   0.209  0.3144 -0.2529  0.2156
 1238WAT     H1 3925   3.465   1.036   0.221  0.5079  0.1156 -1.3335
 1238WAT     H2 3926   3.442   0.891   0.184  0.1315 -0.6544  1.6180
 1239WAT      O 3927   0.364   0.150   2.640  0.0947 -0.0592 -0.3378
 1239WAT     H1 3928   0.399   0.238   2.626  1.1299 -0.3167  0.5485
 1239WAT     H2 3929   0.302   0.138   2.567  1.0968  0.7969 -1.3817
 1240WAT      O 3930   2.425   4.664   1.733  0.4115  0.4758 -0.5901
 1240WAT     H1 3931   2.493   4.712   1.781  0.7910 -0.4801 -0.1377
 1240WAT     H2 3932   2.404   4.589   1.790 -0.9889  0.7175 -0.7394
 1241WAT      O 3933   3.070   2.092   4.325 -0.3738  0.5527 -0.0524
 1241WAT     H1 3934   3.003   2.075   4.391 -0.4780  2.0314  0.2548
 1241WAT     H2 3935   3.053   2.027   4.256 -0.7850 -0.4579  0.9681
 1242WAT      O 3936   2.138   4.985   3.527  0.5317 -0.0907  0.0321
 1242WAT     H1 3937   2.160   4.943   3.443 -1.5574 -1.0212 -0.1022
 1242WAT     H2 3938   2.218   4.975   3.579  0.2035 -4.5619  0.1132
 1243WAT      O 3939   4.333   4.361   4.149  0.1589  0.0499 -0.3034
 1243WAT     H1 3940   4.363   4.320   4.068 -1.5218  0.1104 -0.9856
 1243WAT     H2 3941   4.335   4.290   4.213 -1.7071 -0.8923 -1.2229
 1244WAT      O 3942   1.758   0.518   4.266  0.4390  0.0976 -0.2712
 1244WAT     H1 3943   1.735   0.443   4.210 -2.6472 -0.6929  1.7812
 1244WAT     H2 3944   1.801   0.479   4.342 -1.5785  0.2536  1.0134
 1245WAT      O 3945   1.699   0.033   3.504 -0.4075  0.0937 -0.2287
 1245WAT     H1 3946   1.673   0.036   3.596 -0.2408  0.7633 -0.2030
 1245WAT     H2 3947   1.626   0.072   3.457 -0.5222 -0.3111 -0.3902
 1246WAT      O 3948   1.131   2.997   4.414  0.3997  0.2619 -0.4453
 1246WAT     H1 3949   1.149   2.904   4.433  1.9471  0.6211 -0.0289
 1246WAT     H2 3950   1.051   3.016   4.463 -1.6627 -1.5669 -2.8042
 1247WAT      O 3951   3.143   2.921   0.087 -0.4832 -0.0691  0.2638
 1247WAT     H1 3952   3.061   2.962   0.062 -0.7826  0.7638  2.4026
 1247WAT     H2 3953   3.197   2.993   0.120  0.0005 -0.9999  1.5846
 1248WAT      O 3954   2.575   3.882   4.904 -0.1488  0.5791  0.1564
 1248WAT     H1 3955   2.627   3.802   4.892 -2.8623 -1.6205  1.9679
 1248WAT     H2 3956   2.602   3.915   4.989 -0.7808  0.1628  0.5220
 1249WAT      O 3957   1.745   1.775   1.219  0.3827  0.3593  0.2070
 1249WAT     H1 3958   1.702   1.850   1.258  0.4631  0.3483  0.3177
 1249WAT     H2 3959   1.772   1.805   1.132 -0.2279  0.2347 -0.0321
 1250WAT      O 3960   0.816   4.325   0.447 -0.1391 -0.1208 -0.1004
 1250WAT     H1 3961   0.795   4.232   0.459  0.4507 -0.0626  1.7300
 1250WAT     H2 3962   0.881   4.326   0.378 -0.8943 -0.9687 -0.8591
 1251WAT      O 3963   3.708   3.321   0.382 -0.1259  0.0980 -0.2285
 1251WAT     H1 3964   3.680   3.402   0.425  0.8793  1.2385 -1.6349
 1251WAT     H2 3965   3.638   3.259   0.400 -2.2956  2.0657 -1.4561
 1252WAT      O 3966   1.152   4.320   2.909  0.1109  0.0248  0.0742
 1252WAT     H1 3967   1.134   4.332   3.002  1.5896  2.5727  0.1322
 1252WAT     H2 3968   1.246   4.337   2.900 -0.3075  1.6572 -2.1081
 1253WAT      O 3969   1.717   1.245   4.087  0.6094 -0.4048  0.1184
 1253WAT     H1 3970   1.730   1.290   4.004  1.6586 -1.6583 -0.4354
 1253WAT     H2 3971   1.784   1.279   4.145 -0.0558  0.3928  0.4343
 1254WAT      O 3972   3.800   0.598   5.258 -0.2644 -0.0446  0.0283
 1254WAT     H1 3973   3.839   0.511   5.252 -0.3043 -0.0458 -0.1993
 1254WAT     H2 3974   3.767   0.617   5.170  1.3399  0.9531 -0.4090
 1255WAT      O 3975   2.330   3.592   0.785 -0.5689  0.1991  0.3703
 1255WAT     H1 3976   2.373   3.554   0.862 -1.4132  0.2764  0.8894
 1255WAT     H2 3977   2.251   3.540   0.773 -0.4548  0.2028 -0.4419
 1256WAT      O 3978   1.127   2.177   2.581 -0.5206 -0.3196  0.0172
 1256WAT     H1 3979   1.035   2.203   2.593 -0.9795 -2.2151  0.9646
 1256WAT     H2 3980   1.142   2.184   2.487 -1.7167 -0.2464 -0.1799
 1257WAT      O 3981   3.765   4.499   2.522  0.2954 -0.2423  0.1598
 1257WAT     H1 3982   3.750   4.458   2.437  0.4048 -0.9557  0.4726
 1257WAT     H2 3983   3.849   4.543   2.513  0.2314 -0.1788 -0.1476
 1258WAT      O 3984   2.347   1.240   0.489 -0.2075 -0.2634  0.4382
 1258WAT     H1 3985   2.439   1.230   0.513  0.0883  1.1563 -0.0112
 1258WAT     H2 3986   2.301   1.243   0.573  0.3231  0.4107  0.7145
 1259WAT      O 3987   1.964   3.451   2.144  0.3692 -0.8311  0.0755
 1259WAT     H1 3988   1.990   3.528   2.194 -1.1381 -0.3207  0.1413
 1259WAT     H2 3989   1.988   3.377   2.200  0.9335 -0.3677  0.4588
 1260WAT      O 3990   2.288   2.132   1.299  0.0404  0.4182  0.0587
 1260WAT     H1 3991   2.212   2.186   1.274 -1.4086 -0.5194  2.1557
 1260WAT     H2 3992   2.341   2.190   1.353  0.9063  1.0836 -1.4276
 1261WAT      O 3993   2.122   3.594   2.907 -0.4184 -0.2432 -0.1441
 1261WAT     H1 3994   2.077   3.679   2.911  0.3895  0.3407 -2.2990
 1261WAT     H2 3995   2.206   3.610   2.950 -0.0735  0.1933 -0.9706
 1262WAT      O 3996   1.356   0.818   1.442  0.1750  0.6618 -0.1959
 1262WAT     H1 3997   1.322   0.794   1.356  1.1934 -0.4228 -0.3251
 1262WAT     H2 3998   1.438   0.769   1.450  0.3735  1.1634  1.1692
 1263WAT      O 3999   2.887   1.418   4.159  0.1968 -0.3645  0.5487
 1263WAT     H1 4000   2.925   1.433   4.246  0.5232 -2.5105  0.8374
 1263WAT     H2 4001   2.845   1.332   4.166 -2.7858  0.8680 -0.4350
 1264WAT      O 4002   3.430   0.336   1.105 -0.0938  0.3770  0.3301
 1264WAT     H1 4003   3.525   0.338   1.100  0.0362  0.1144  2.0837
 1264WAT     H2 4004   3.408   0.244   1.087 -0.1815  0.7723 -1.8063
 1265WAT      O 4005   1.627   3.759   1.963  0.2830  0.2931 -0.4168
 1265WAT     H1 4006   1.622   3.772   2.057 -1.5705 -1.2215 -0.2407
 1265WAT     H2 4007   1.678   3.679   1.951 -0.6241 -0.2717 -0.5951
 1266WAT      O 4008   2.496   2.083   4.247 -0.2206 -0.2830 -0.5213
 1266WAT     H1 4009   2.520   2.147   4.314 -1.0597 -0.5964  0.0947
 1266WAT     H2 4010   2.511   1.998   4.288  0.7995 -0.4998 -1.3031
 1267WAT      O 4011   1.109   3.235   1.114 -0.7362 -0.5830 -0.0322
 1267WAT     H1 4012   1.057   3.316   1.113 -0.8495 -0.6573 -0.3643
 1267WAT     H2 4013   1.197   3.263   1.138 -1.1916 -0.6156  1.8346
 1268WAT      O 4014   3.787   1.585   1.050  0.2744 -0.0059 -0.1209
 1268WAT     H1 4015   3.880   1.565   1.057  0.2172 -0.9855 -1.5565
 1268WAT     H2 4016   3.774   1.602   0.956 -0.9899  0.0909  0.0544
 1269WAT      O 4017   1.011   2.453   0.759 -0.3128  0.4894  0.0324
 1269WAT     H1 4018   1.008   2.358   0.751 -0.2542  0.6172 -1.9471
 1269WAT     H2 4019   1.043   2.469   0.848 -1.0800 -1.3168  0.6652
 1270WAT      O 4020   1.061   1.653   1.237 -0.2246  0.0046  0.2759
 1270WAT     H1 4021   1.036   1.581   1.295  0.8455 -0.2668  0.4116
 1270WAT     H2 4022   1.094   1.721   1.297 -0.7763  0.4192  0.1125
 1271WAT      O 4023   2.351   0.866   1.594 -0.1255  0.1146 -0.1247
 1271WAT     H1 4024   2.440   0.844   1.621 -0.5435 -0.8656  0.5668
 1271WAT     H2 4025   2.335   0.812   1.517  0.0328  0.6491 -0.5382
 1272WAT      O 4026   1.755   5.076   0.778  0.0471  0.1378  0.1161
 1272WAT     H1 4027   1.703   5.129   0.838 -0.3205  0.6559 -0.6391
 1272WAT     H2 4028   1.692   5.014   0.740  0.0103  0.6387 -0.6582
 1273WAT      O 4029   4.053   2.789   0.874 -0.0607 -0.4081  0.2385
 1273WAT     H1 4030   4.062   2.715   0.934  0.4343 -0.3947  0.1857
 1273WAT     H2 4031   4.126   2.847   0.896  0.1959 -0.4547 -0.4413
 1274WAT      O 4032   1.974   2.775   1.729  0.0847 -0.2888  0.4187
 1274WAT     H1 4033   1.976   2.769   1.825  0.4543 -0.5084  0.4020
 1274WAT     H2 4034   2.052   2.826   1.707  1.1003 -1.8947  0.1337
 1275WAT      O 4035   3.190   1.411   3.491 -0.4612  0.4941  0.1746
 1275WAT     H1 4036   3.135   1.419   3.413 -0.3469  2.2440  0.2477
 1275WAT     H2 4037   3.279   1.422   3.459 -0.2800 -0.4259  0.3369
 1276WAT      O 4038   0.125   1.012   4.754  0.2839  0.2798  0.5377
 1276WAT     H1 4039   0.085   0.984   4.672  1.5707  0.5941 -0.2212
 1276WAT     H2 4040   0.144   0.931   4.800 -0.1254  0.0898  0.3799
 1277WAT      O 4041   1.346   3.811   4.419 -0.3455 -0.5660 -0.9869
 1277WAT     H1 4042   1.391   3.882   4.374  0.7237 -0.6172 -0.0619
 1277WAT     H2 4043   1.259   3.808   4.379  0.0388  0.3859 -1.9454
 1278WAT      O 4044   4.034   0.660   0.402  0.2024  0.0553 -0.0800
 1278WAT     H1 4045   3.949   0.618   0.416  0.9149 -1.0367  1.2206
 1278WAT     H2 4046   4.056   0.640   0.311 -2.6150  3.6451 -1.7981
 1279WAT      O 4047   1.467   4.031   4.297 -0.2861  0.7272  0.2533
 1279WAT     H1 4048   1.552   4.038   4.252 -1.7124  1.2538 -2.5562
 1279WAT     H2 4049   1.413   4.099   4.257 -3.1523 -1.9452 -0.8164
 1280WAT      O 4050   3.921   4.509   3.141  0.4618  0.2445 -1.1513
 1280WAT     H1 4051   3.837   4.469   3.118 -0.3860  1.2233  0.0862
 1280WAT     H2 4052   3.907   4.603   3.129  0.6536  0.6174  1.0877
 1281WAT      O 4053   1.259   0.002   0.024 -0.2570  0.7833 -0.5674
 1281WAT     H1 4054   1.198  -0.038  -0.037 -0.0944 -0.8292  0.2692
 1281WAT     H2 4055   1.206   0.061   0.077 -1.0246 -0.2763 -0.1335
 1282WAT      O 4056   3.482   4.896   5.316 -0.1129  0.3627  0.3154
 1282WAT     H1 4057   3.418   4.909   5.246 -0.7929 -0.8684  0.6829
 1282WAT     H2 4058   3.486   4.801   5.327 -0.0937  0.5370  2.0167
 1283WAT      O 4059   3.195   5.032   1.857  0.0407 -0.8527  0.3768
 1283WAT     H1 4060   3.224   5.049   1.946  0.2119 -0.5388  0.2642
 1283WAT     H2 4061   3.269   4.990   1.814 -1.0109 -3.7083  1.1745
 1284WAT      O 4062   2.358   2.323   2.998 -0.1541  0.4427  0.2093
 1284WAT     H1 4063   2.275   2.363   2.973 -1.0717 -1.2490  0.4253
 1284WAT     H2 4064   2.346   2.297   3.089 -0.1061 -1.4865 -0.2893
 1285WAT      O 4065   0.987   2.275   3.274 -0.5208 -0.6316 -0.6623
 1285WAT     H1 4066   1.045   2.221   3.221 -0.2169  1.8502 -3.0832
 1285WAT     H2 4067   0.917   2.300   3.214 -0.7977  1.3731  0.4243
 1286WAT      O 4068   3.336   2.997   3.843  0.7341  0.0860 -0.3178
 1286WAT     H1 4069   3.263   2.937   3.823  1.0047 -0.1048 -0.7457
 1286WAT     H2 4070   3.411   2.958   3.799  1.4881 -0.6439  1.5232
 1287WAT      O 4071   4.409   1.278   0.680  0.1469  0.5059 -0.1896
 1287WAT     H1 4072   4.444   1.247   0.597 -0.2371 -2.5872  0.6713
 1287WAT     H2 4073   4.445   1.366   0.690  2.0659  0.0867 -2.5375
 1288WAT      O 4074   2.669   2.860   4.466  0.3347  0.1196  0.0785
 1288WAT     H1 4075   2.609   2.866   4.392  1.0798  2.3905 -0.4177
 1288WAT     H2 4076   2.730   2.790   4.441 -0.4148 -0.2792 -0.6843
 1289WAT      O 4077   0.723   2.304   1.924  0.3588  0.6751 -0.0264
 1289WAT     H1 4078   0.660   2.250   1.876 -0.8435 -0.1255  2.3268
 1289WAT     H2 4079   0.674   2.339   1.998  2.3515  1.1213  1.1693
 1290WAT      O 4080  -0.017   0.355   0.593 -0.0097  0.3639 -0.2699
 1290WAT     H1 4081   0.073   0.322   0.601  0.3029  0.8096 -1.6943
 1290WAT     H2 4082  -0.007   0.450   0.586 -0.8912  0.9404  3.5562
 1291WAT      O 4083   0.644   1.762   0.283  0.0530  0.6697  0.1529
 1291WAT     H1 4084   0.565   1.722   0.318  0.7602 -0.6871  0.2807
 1291WAT     H2 4085   0.715   1.707   0.315  1.2125  2.7151  1.2935
 1292WAT      O 4086   0.169   5.078   2.208  0.3600 -0.6913  0.4516
 1292WAT     H1 4087   0.074   5.073   2.202  0.3302 -1.1018  1.1044
 1292WAT     H2 4088   0.186   5.113   2.296  0.8157 -0.8766  0.4440
 1293WAT      O 4089   1.622   4.027   1.793 -0.2059  0.3236  0.6912
 1293WAT     H1 4090   1.593   3.948   1.839  0.9521 -0.7193 -0.2860
 1293WAT     H2 4091   1.628   4.093   1.861  0.4605 -0.8998  1.8792
 1294WAT      O 4092   0.793   0.288   0.095 -0.6927  0.1436 -0.0117
 1294WAT     H1 4093   0.719   0.245   0.139 -0.2180 -0.7269 -0.0303
 1294WAT     H2 4094   0.810   0.366   0.146 -0.1753 -0.8254  1.3355
 1295WAT      O 4095   2.250   4.162   2.743  0.4277  0.2639  0.0850
 1295WAT     H1 4096   2.257   4.258   2.744 -2.0868  0.5452 -1.6103
 1295WAT     H2 4097   2.197   4.142   2.821 -0.0712  0.3765 -0.2225
 1296WAT      O 4098   3.270   1.393   1.126 -0.1325 -0.5247 -0.4539
 1296WAT     H1 4099   3.227   1.309   1.110 -0.5197 -0.4149 -0.0280
 1296WAT     H2 4100   3.308   1.383   1.213  0.6598 -0.5981 -0.8058
 1297WAT      O 4101   2.332   4.319   3.465  0.1488  0.6215  0.3235
 1297WAT     H1 4102   2.315   4.396   3.519  0.2748  0.0384  1.2194
 1297WAT     H2 4103   2.314   4.244   3.523 -0.5128 -0.0295 -0.6925
 1298WAT      O 4104   2.497   3.288   2.740  0.1489  0.1073  0.7046
 1298WAT     H1 4105   2.507   3.272   2.833  1.0031  0.6738  0.7229
 1298WAT     H2 4106   2.530   3.377   2.727 -2.3059  1.0250  0.2599
 1299WAT      O 4107   1.171   3.119   5.287  0.4353 -0.2154  0.0541
 1299WAT     H1 4108   1.164   3.169   5.368 -0.2080 -0.1416 -0.0427
 1299WAT     H2 4109   1.083   3.119   5.251  0.5510 -0.9303 -0.2462
 1300WAT      O 4110   0.811   1.292   2.335 -0.2270 -0.2596 -0.1593
 1300WAT     H1 4111   0.891   1.344   2.340 -0.2198 -0.2779 -0.0791
 1300WAT     H2 4112   0.797   1.261   2.425 -0.0334 -0.6931 -0.2765
 1301WAT      O 4113   3.564   1.073   2.970  0.3059 -0.3862  0.6365
 1301WAT     H1 4114   3.618   1.136   2.923 -1.7438  0.6746 -0.4791
 1301WAT     H2 4115   3.588   1.084   3.062  0.1886  1.9226  0.4508
 1302WAT      O 4116   0.595   1.855   5.155  0.2394 -0.1872  0.1525
 1302WAT     H1 4117   0.651   1.816   5.223  0.0002 -0.9290 -0.0663
 1302WAT     H2 4118   0.583   1.785   5.091  1.7751  0.9491 -1.4972
 1303WAT      O 4119   4.105   4.835   0.314  0.2556 -0.6430  0.0542
 1303WAT     H1 4120   4.017   4.835   0.353 -0.1148 -0.5214 -0.7708
 1303WAT     H2 4121   4.164   4.826   0.389 -0.4043  0.5241  0.7494
 1304WAT      O 4122   0.263   3.262   2.634  0.2141  0.5157  0.5502
 1304WAT     H1 4123   0.226   3.349   2.616  1.2575  0.6124 -1.3908
 1304WAT     H2 4124   0.192   3.215   2.677 -0.5547  2.1588  1.1819
 1305WAT      O 4125   1.285   2.035   4.799 -0.0617 -0.2907 -0.4844
 1305WAT     H1 4126   1.327   2.066   4.719  1.1488  1.4241  0.7336
 1305WAT     H2 4127   1.192   2.057   4.788  0.4367  1.9714 -0.5575
 1306WAT      O 4128   4.197   1.196   0.800 -0.1423  0.0620  0.1473
 1306WAT     H1 4129   4.277   1.234   0.765 -0.2376  0.8883  0.7757
 1306WAT     H2 4130   4.227   1.121   0.852 -0.0357 -1.3823 -1.9141
 1307WAT      O 4131   3.713   1.886   0.407 -0.0179 -0.3263  0.0219
 1307WAT     H1 4132   3.671   1.950   0.464 -0.1644  0.5537 -1.0643
 1307WAT     H2 4133   3.670   1.803   0.429 -0.5770  0.1260  0.6733
 1308WAT      O 4134   1.462   2.487   1.244  0.0260  0.0743  0.4079
 1308WAT     H1 4135   1.367   2.485   1.256 -0.3994 -0.0524 -2.2892
 1308WAT     H2 4136   1.491   2.398   1.261 -0.5801 -0.2426 -0.1825
 1309WAT      O 4137   0.748   4.550   3.007 -0.0336 -0.1219 -0.3333
 1309WAT     H1 4138   0.817   4.534   2.942 -1.2867 -0.1953 -1.6953
 1309WAT     H2 4139   0.666   4.533   2.960 -1.0440  1.0897  0.8993
 1310WAT      O 4140   3.801   2.888   2.196 -0.2975  0.5198 -0.0906
 1310WAT     H1 4141   3.708   2.884   2.219 -0.8637  0.5609 -2.2274
 1310WAT     H2 4142   3.832   2.970   2.236 -1.1454  0.4853  0.6719
 1311WAT      O 4143   0.970   3.633   0.937 -0.1824  0.1937 -0.6173
 1311WAT     H1 4144   0.945   3.607   1.026 -0.1545  0.6958 -0.4626
 1311WAT     H2 4145   0.951   3.726   0.933  2.8105  0.9224 -0.0684
 1312WAT      O 4146   1.683  -0.025   3.052 -0.5309 -0.1879 -0.1378
 1312WAT     H1 4147   1.691   0.064   3.088 -0.8534 -0.1872 -0.0640
 1312WAT     H2 4148   1.722  -0.019   2.965  0.2468 -0.1884  0.2074
 1313WAT      O 4149   4.542   0.963   0.780 -0.3059  0.1854 -0.2653
 1313WAT     H1 4150   4.481   0.975   0.853 -0.6306  1.1689 -0.6775
 1313WAT     H2 4151   4.487   0.965   0.702  0.0157 -1.0632 -0.5450
 1314WAT      O 4152   1.405   2.905   1.264 -0.0685  0.1478 -0.2850
 1314WAT     H1 4153   1.421   2.995   1.291  0.1811 -0.2367  0.9406
 1314WAT     H2 4154   1.309   2.897   1.265 -0.1171  0.5620 -1.0093
 1315WAT      O 4155   2.652   4.172   0.713  0.0335  0.0425 -0.2123
 1315WAT     H1 4156   2.571   4.131   0.682 -0.8794  2.5709 -1.4822
 1315WAT     H2 4157   2.624   4.253   0.756  1.7304 -0.5348  2.2235
 1316WAT      O 4158   1.384   2.541   4.448 -0.0512 -0.1589 -0.7443
 1316WAT     H1 4159   1.362   2.606   4.381  0.3149  0.1405 -0.5825
 1316WAT     H2 4160   1.301   2.498   4.468 -0.9489  2.2703  1.2969
 1317WAT      O 4161   0.356   4.525   3.378  0.3763  0.2550 -0.3943
 1317WAT     H1 4162   0.410   4.520   3.458  2.2898 -2.0687 -1.6997
 1317WAT     H2 4163   0.266   4.512   3.409  1.1791 -1.8449  1.3230
 1318WAT      O 4164   2.505   1.583   1.645 -0.0161 -0.1070  0.0191
 1318WAT     H1 4165   2.483   1.492   1.626 -0.7581  0.3908 -1.7504
 1318WAT     H2 4166   2.599   1.589   1.630  0.2534 -0.8196  1.3019
 1319WAT      O 4167   0.048   1.496   2.111  0.3435  0.2141 -0.1299
 1319WAT     H1 4168   0.070   1.410   2.145 -1.5727 -0.9055 -1.5393
 1319WAT     H2 4169   0.003   1.540   2.183  0.2562 -0.4189  0.2071
 1320WAT      O 4170   4.139   4.955   2.273 -0.0901  0.0098  0.4219
 1320WAT     H1 4171   4.081   4.985   2.343 -1.9195 -1.9420 -0.1238
 1320WAT     H2 4172   4.148   4.861   2.289  0.9582 -0.1407 -0.9205
 1321WAT      O 4173   3.425   1.176   4.205 -0.0597 -0.4772 -0.0275
 1321WAT     H1 4174   3.425   1.272   4.202  1.8768 -0.3509  1.7447
 1321WAT     H2 4175   3.509   1.151   4.168 -0.2885 -1.4453  0.0931
 1322WAT      O 4176   3.160   0.902   3.773 -0.0668 -0.5655 -0.2131
 1322WAT     H1 4177   3.149   0.985   3.725  1.5935  0.5375  1.1896
 1322WAT     H2 4178   3.099   0.909   3.846  1.3418  0.3028  0.9393
 1323WAT      O 4179   2.067   2.903   1.260 -0.0354  0.1854 -0.4078
 1323WAT     H1 4180   2.026   2.971   1.206  1.2201  0.2745 -1.2861
 1323WAT     H2 4181   1.993   2.860   1.304 -1.0763  0.2918 -1.9846
 1324WAT      O 4182   2.777   0.568   5.136  0.6197 -0.0100  0.8982
 1324WAT     H1 4183   2.803   0.546   5.047 -0.4269  0.0402  0.5755
 1324WAT     H2 4184   2.858   0.600   5.177  1.4360 -1.3870  0.4123
 1325WAT      O 4185   1.736   1.833   0.922  0.2814  0.5725 -0.2735
 1325WAT     H1 4186   1.671   1.766   0.946  0.6971 -0.0640 -0.8972
 1325WAT     H2 4187   1.803   1.785   0.873  1.6219  1.0849  0.9973
 1326WAT      O 4188   1.374   1.172   2.436  0.2560 -0.7288 -0.2128
 1326WAT     H1 4189   1.453   1.143   2.481  0.9871  1.2473 -0.1305
 1326WAT     H2 4190   1.359   1.261   2.467 -0.4641 -0.0881 -2.2296
 1327WAT      O 4191   3.834   4.713   5.199 -0.4769 -0.3094 -0.5440
 1327WAT     H1 4192   3.820   4.695   5.292 -0.1452 -0.2729 -0.4853
 1327WAT     H2 4193   3.921   4.752   5.195 -1.0144  0.9315 -0.7161
 1328WAT      O 4194   4.027   0.360   2.239 -0.2219 -0.1052  0.0278
 1328WAT     H1 4195   4.020   0.450   2.207 -0.9684 -0.6466 -1.4341
 1328WAT     H2 4196   3.936   0.331   2.247  0.0361 -1.2804 -1.1803
 1329WAT      O 4197   1.802   4.472   3.687 -0.0353  0.3522  0.1421
 1329WAT     H1 4198   1.779   4.517   3.768 -0.5180 -0.5996  0.5332
 1329WAT     H2 4199   1.735   4.405   3.676 -1.9164  2.4751 -2.7441
 1330WAT      O 4200   3.508   0.576   4.014  0.1511  0.0348  0.6969
 1330WAT     H1 4201   3.445   0.647   4.001 -0.5968 -0.8344 -0.6264
 1330WAT     H2 4202   3.507   0.561   4.109 -1.6705  0.0410  0.7235
 1331WAT      O 4203   2.691   2.003   1.109  0.2759 -0.0483 -0.2832
 1331WAT     H1 4204   2.606   2.009   1.066 -0.4838  1.8761  1.3492
 1331WAT     H2 4205   2.679   1.937   1.178  0.1459  0.1028 -0.1606
 1332WAT      O 4206   0.242   2.445   3.699  0.2106 -0.0535 -0.0360
 1332WAT     H1 4207   0.215   2.427   3.789  1.1368  4.0794  1.2885
 1332WAT     H2 4208   0.165   2.483   3.657  0.4013  0.0611 -0.2850
 1333WAT      O 4209   0.214   4.170   1.692 -0.0648  0.2786 -0.6951
 1333WAT     H1 4210   0.139   4.226   1.715  0.0556  0.1588  0.0070
 1333WAT     H2 4211   0.214   4.101   1.758 -0.0015 -0.3661 -1.3564
 1334WAT      O 4212   2.356   1.143   3.081 -0.1137  0.0306  0.1447
 1334WAT     H1 4213   2.265   1.121   3.103 -0.2732  0.4987 -0.0397
 1334WAT     H2 4214   2.392   1.061   3.046  0.3148 -0.8900  2.5750
 1335WAT      O 4215   3.169   0.444   3.284 -0.2736 -0.5492  0.3808
 1335WAT     H1 4216   3.104   0.409   3.345 -1.3203 -1.9509 -1.4567
 1335WAT     H2 4217   3.230   0.371   3.270  1.5835  0.6423  1.8234
 1336WAT      O 4218   0.088   2.769   5.063  0.4151  0.0617  0.6127
 1336WAT     H1 4219   0.115   2.773   4.971  4.0751 -0.0978  1.5198
 1336WAT     H2 4220   0.124   2.685   5.094  0.3156  0.6728  2.4671
 1337WAT      O 4221   3.103   4.589   0.562 -0.1138  0.5434  0.7087
 1337WAT     H1 4222   3.177   4.638   0.601  0.9219  1.0494 -1.7153
 1337WAT     H2 4223   3.046   4.657   0.526 -1.0316  0.0913  1.2821
 1338WAT      O 4224   2.577   4.252   0.209  0.4172 -0.5984  0.0818
 1338WAT     H1 4225   2.556   4.336   0.251  0.1211 -0.9915  0.7439
 1338WAT     H2 4226   2.503   4.235   0.151 -0.7140 -1.5268  1.7128
 1339WAT      O 4227  -0.018   3.430   0.396  0.2161 -0.4021  0.2027
 1339WAT     H1 4228  -0.046   3.477   0.474 -1.5359 -2.1319  0.6860
 1339WAT     H2 4229   0.073   3.457   0.383  0.2377  0.6654  2.2458
 1340WAT      O 4230   2.678   4.769   0.094  0.1291  0.3482  0.1842
 1340WAT     H1 4231   2.710   4.859   0.104 -0.5844  0.5572  0.7340
 1340WAT     H2 4232   2.646   4.765   0.004  1.0473  0.3448 -0.1470
 1341WAT      O 4233   2.436   3.835   0.180  0.2004 -0.5397 -0.8091
 1341WAT     H1 4234   2.525   3.835   0.216  1.1179  0.0949 -2.9083
 1341WAT     H2 4235   2.447   3.865   0.090 -2.0366 -1.4724 -1.4582
 1342WAT      O 4236   3.591   1.099   4.483  0.0681 -0.5230  0.2508
 1342WAT     H1 4237   3.546   1.051   4.413 -1.2139 -1.2289  1.5136
 1342WAT     H2 4238   3.674   1.127   4.444 -1.0568  0.0277 -1.8846
 1343WAT      O 4239   1.708   4.694   0.991 -0.4157 -0.1887  0.0544
 1343WAT     H1 4240   1.613   4.701   0.981 -0.5673 -0.1166  1.3095
 1343WAT     H2 4241   1.722   4.702   1.086  0.9819  1.4178 -0.2393
 1344WAT      O 4242   2.491   0.839   4.168  0.1930  0.2832 -0.7335
 1344WAT     H1 4243   2.435   0.889   4.110  0.8289  0.7960 -0.9091
 1344WAT     H2 4244   2.525   0.768   4.114 -1.5031 -0.9811 -0.2342
 1345WAT      O 4245   1.561   0.258   0.686  0.3454 -0.2492  0.1869
 1345WAT     H1 4246   1.500   0.291   0.752 -1.2061  0.3686 -1.4676
 1345WAT     H2 4247   1.636   0.318   0.690 -0.5603  0.9172  0.1333
 1346WAT      O 4248   1.877   2.799   1.430  0.0513 -0.0098 -0.3331
 1346WAT     H1 4249   1.910   2.839   1.510  1.9878 -1.3799 -0.4057
 1346WAT     H2 4250   1.796   2.756   1.457  0.7873 -0.6475  0.9522
 1347WAT      O 4251   2.801   0.301   1.628 -0.2226 -0.5349 -0.4618
 1347WAT     H1 4252   2.849   0.336   1.702  0.4922 -2.8471  0.2625
 1347WAT     H2 4253   2.710   0.328   1.643 -0.1430 -1.1914  1.4614
 1348WAT      O 4254   3.346   2.219   0.776 -0.1144  0.0813 -0.8591
 1348WAT     H1 4255   3.396   2.276   0.835  0.1598  0.6908 -1.6541
 1348WAT     H2 4256   3.255   2.229   0.803 -0.0547  0.8259 -0.9278
 1349WAT      O 4257   3.531   5.132   2.106 -0.4086 -0.0292  0.3673
 1349WAT     H1 4258   3.612   5.111   2.154  0.1512  2.1632  0.5018
 1349WAT     H2 4259   3.561   5.151   2.017 -0.5042  2.3417  0.7979
 1350WAT      O 4260   3.405   4.865   1.481 -0.1465  0.2174  0.0675
 1350WAT     H1 4261   3.403   4.770   1.492 -1.3515  0.3485  1.1685
 1350WAT     H2 4262   3.489   4.882   1.438  0.8175 -1.1959  1.2794
 1351WAT      O 4263   2.117   3.029   1.575 -0.6595  0.0850 -0.2939
 1351WAT     H1 4264   2.174   2.976   1.520 -0.1840  0.2772  0.0062
 1351WAT     H2 4265   2.172   3.101   1.606 -0.6544 -0.4827  1.1265
 1352WAT      O 4266   1.214   4.839   1.398 -0.0377 -0.3620  0.0535
 1352WAT     H1 4267   1.291   4.882   1.435 -1.3416  0.4993  1.8812
 1352WAT     H2 4268   1.224   4.747   1.420  0.5779 -0.2990  0.0465
 1353WAT      O 4269   4.010   4.648   3.929 -1.0858  0.4984  0.6524
 1353WAT     H1 4270   4.073   4.630   3.999  0.8711 -0.0186 -1.1262
 1353WAT     H2 4271   3.982   4.562   3.899 -0.9011  0.6667 -0.0277
 1354WAT      O 4272   1.537   3.911   0.748 -0.2475  0.0526 -0.3160
 1354WAT     H1 4273   1.521   3.836   0.805  0.2461  0.6462  0.6318
 1354WAT     H2 4274   1.574   3.873   0.669  2.3575 -0.5412  1.0962
 1355WAT      O 4275   1.439   0.470   1.673 -0.0194 -0.1963  0.1733
 1355WAT     H1 4276   1.494   0.392   1.680  1.6135  0.8480 -0.3712
 1355WAT     H2 4277   1.411   0.488   1.763  1.1344 -0.3546  0.5788
 1356WAT      O 4278   2.011   3.067   0.522 -0.0861  0.1178  0.1113
 1356WAT     H1 4279   1.927   3.043   0.483  0.0367  0.8357 -0.6213
 1356WAT     H2 4280   2.031   2.996   0.583  0.0358 -1.3680 -1.5956
 1357WAT      O 4281   1.449   0.178   2.359 -0.2416 -0.1429  0.0639
 1357WAT     H1 4282   1.488   0.117   2.422 -0.3101  0.0003  0.2451
 1357WAT     H2 4283   1.367   0.205   2.400  0.0826  0.5524  0.2668
 1358WAT      O 4284   1.059   1.423   5.249 -0.3492 -0.2824 -0.0860
 1358WAT     H1 4285   1.051   1.424   5.153 -1.0528 -1.3950 -0.0577
 1358WAT     H2 4286   0.998   1.355   5.277  1.2644 -1.3452  1.0240
 1359WAT      O 4287   0.451   3.849   1.468  0.1224  0.3375 -0.7162
 1359WAT     H1 4288   0.538   3.860   1.505  0.8715 -0.5110 -2.1211
 1359WAT     H2 4289   0.422   3.938   1.448  1.0111  0.5806 -0.9699
 1360WAT      O 4290   3.451   0.126   3.382  0.0943 -0.5545 -0.5565
 1360WAT     H1 4291   3.401   0.045   3.393 -1.4090  0.2439 -1.1963
 1360WAT     H2 4292   3.425   0.180   3.456 -0.8183  0.2515 -1.4278
 1361WAT      O 4293   0.213   3.857   4.100  0.1761 -0.1221 -0.0093
 1361WAT     H1 4294   0.211   3.770   4.140 -0.2027  0.0663  0.3935
 1361WAT     H2 4295   0.303   3.868   4.069 -0.0722 -1.1619 -1.1992
 1362WAT      O 4296   3.522   1.969   0.084  0.2084 -1.1085  0.4568
 1362WAT     H1 4297   3.530   1.888   0.135  0.8659 -2.1012 -1.1554
 1362WAT     H2 4298   3.610   1.986   0.052 -0.2718 -0.7817 -0.7400
 1363WAT      O 4299   4.095   2.307   3.048  0.0060 -0.5811 -0.4202
 1363WAT     H1 4300   4.082   2.401   3.057  0.8395 -0.5244  0.2854
 1363WAT     H2 4301   4.007   2.272   3.034 -0.3045  0.2956 -0.7053
 1364WAT      O 4302   1.182   0.631   1.298 -0.2393 -0.2315  0.0811
 1364WAT     H1 4303   1.100   0.585   1.282  0.6525 -1.6975 -0.5504
 1364WAT     H2 4304   1.234   0.616   1.219  0.4843  1.0351  0.2878
 1365WAT      O 4305   0.621   3.641   4.672  0.3872 -0.4609 -0.3290
 1365WAT     H1 4306   0.664   3.727   4.666 -0.6879  0.2203  1.0305
 1365WAT     H2 4307   0.678   3.582   4.624  1.5990  0.8571 -0.5752
 1366WAT      O 4308   1.517   3.247   4.378  0.4062 -0.3677  0.4126
 1366WAT     H1 4309   1.439   3.301   4.363 -0.0006 -1.3567 -1.2018
 1366WAT     H2 4310   1.498   3.200   4.459 -1.1404 -1.3556 -0.4860
 1367WAT      O 4311   3.016   4.606   2.643  1.0862  0.1213  0.1931
 1367WAT     H1 4312   3.023   4.584   2.736  1.1076  0.7304  0.3383
 1367WAT     H2 4313   2.982   4.695   2.642  1.4157  0.2453 -0.3820
 1368WAT      O 4314   1.289   1.440   0.076 -0.3870  0.2274  0.1770
 1368WAT     H1 4315   1.358   1.373   0.083 -0.7832 -0.0137  2.8453
 1368WAT     H2 4316   1.228   1.405   0.012  1.3304 -0.1061 -1.3690
 1369WAT      O 4317   3.749   2.497   0.351  0.5457  0.7778  0.0365
 1369WAT     H1 4318   3.800   2.494   0.432 -1.4939 -1.2232  1.3872
 1369WAT     H2 4319   3.685   2.567   0.366 -0.6282 -0.3927  0.7716
 1370WAT      O 4320   3.677   3.612   3.550 -0.0423 -0.0111 -0.2691
 1370WAT     H1 4321   3.725   3.694   3.551  0.2800 -0.1918  0.8975
 1370WAT     H2 4322   3.739   3.548   3.515 -0.2484  0.2017 -1.0463
 1371WAT      O 4323   3.913   4.079   0.801 -0.4815  0.0148  0.3831
 1371WAT     H1 4324   3.978   4.014   0.775 -0.4977 -0.4562  1.4958
 1371WAT     H2 4325   3.834   4.054   0.753  0.5805  1.7563 -2.5914
 1372WAT      O 4326   2.813   1.867   2.314  0.4399  0.0025  0.2406
 1372WAT     H1 4327   2.737   1.921   2.336 -0.4931 -0.7962 -0.9103
 1372WAT     H2 4328   2.860   1.918   2.247  1.7803  1.1738  1.9814
 1373WAT      O 4329   4.432   3.589   0.627 -0.0761  0.1402 -0.3834
 1373WAT     H1 4330   4.478   3.579   0.710  1.2192 -1.3743 -1.2181
 1373WAT     H2 4331   4.499   3.625   0.568 -0.8571  0.7954 -0.8803
 1374WAT      O 4332   3.753   4.876   2.016  0.0166  0.4489  0.0950
 1374WAT     H1 4333   3.797   4.839   2.093 -0.1133 -0.2417 -0.1529
 1374WAT     H2 4334   3.784   4.966   2.011  0.0703  0.4777  0.9231
 1375WAT      O 4335   0.878   2.332   4.931  0.0067  0.0114  0.5843
 1375WAT     H1 4336   0.927   2.382   4.866  0.5412 -0.6866  0.4335
 1375WAT     H2 4337   0.838   2.398   4.987 -0.9862  0.6410 -0.8089
 1376WAT      O 4338   0.233   3.459   1.472 -0.4966  0.5046 -0.3866
 1376WAT     H1 4339   0.225   3.368   1.500  0.8614 -0.1120 -1.8137
 1376WAT     H2 4340   0.163   3.505   1.518 -0.2042 -0.9327  1.6299
 1377WAT      O 4341   1.097   4.282   0.313  0.3447  0.0776 -0.5280
 1377WAT     H1 4342   1.091   4.193   0.277 -1.8737 -0.1665  0.3092
 1377WAT     H2 4343   1.179   4.316   0.277  0.8596 -2.0063 -1.5203
 1378WAT      O 4344   4.184   1.091   4.749 -0.5089 -0.2816  0.0934
 1378WAT     H1 4345   4.126   1.142   4.692 -1.6292 -1.9387 -0.3244
 1378WAT     H2 4346   4.218   1.022   4.692  0.7751 -0.1784  0.7046
 1379WAT      O 4347   3.830   2.358   2.332  0.0835 -0.0389 -0.0310
 1379WAT     H1 4348   3.925   2.355   2.345  0.4534 -0.2246 -2.4017
 1379WAT     H2 4349   3.802   2.267   2.339  0.1569 -0.0440  0.1940
 1380WAT      O 4350   1.025   3.099   3.715 -0.2285 -0.3259  0.2318
 1380WAT     H1 4351   0.957   3.136   3.659 -1.0407 -1.0877  0.6803
 1380WAT     H2 4352   0.997   3.008   3.730  0.2986 -0.3327  1.3214
 1381WAT      O 4353   1.099   2.002   5.295  0.2573  0.4268 -0.5366
 1381WAT     H1 4354   1.076   1.967   5.208 -0.4892 -0.6301  0.0584
 1381WAT     H2 4355   1.023   1.980   5.350  1.2707 -0.1183  0.6956
 1382WAT      O 4356   4.105   4.667   4.963  0.4046 -0.0347 -0.0868
 1382WAT     H1 4357   4.027   4.618   4.990 -1.0312  0.7969 -2.4397
 1382WAT     H2 4358   4.110   4.739   5.026 -0.2911 -0.5173  0.5406
 1383WAT      O 4359   4.019   0.201   0.404  0.0397  0.1889  0.3141
 1383WAT     H1 4360   3.937   0.173   0.444  0.0006  1.9593  1.5496
 1383WAT     H2 4361   4.002   0.196   0.310 -0.4689 -2.2716  0.4667
 1384WAT      O 4362   1.206   2.486   5.069  0.4409 -0.4325 -0.2267
 1384WAT     H1 4363   1.267   2.412   5.068 -0.2230 -1.0002 -0.3728
 1384WAT     H2 4364   1.129   2.452   5.115 -0.3016 -0.2006 -1.2565
 1385WAT      O 4365   2.852   2.275   0.235 -0.0661 -0.0276 -0.0905
 1385WAT     H1 4366   2.827   2.270   0.143 -0.8798  1.5912  0.0003
 1385WAT     H2 4367   2.778   2.236   0.282  0.9541 -2.1645 -0.1334
 1386WAT      O 4368   2.056   2.439   2.404  0.6250  0.3751 -0.9274
 1386WAT     H1 4369   2.125   2.504   2.417  2.1176 -0.9150 -1.9722
 1386WAT     H2 4370   2.050   2.393   2.488 -0.1102  1.5038 -0.3341
 1387WAT      O 4371   3.482   2.380   2.089  0.0510 -0.3603  0.2575
 1387WAT     H1 4372   3.471   2.401   1.996 -0.6803 -1.6492  0.0392
 1387WAT     H2 4373   3.550   2.441   2.119 -1.1674  1.5501 -0.5991
 1388WAT      O 4374   0.916   1.948   3.192 -0.4182 -0.3996  0.0104
 1388WAT     H1 4375   0.907   1.979   3.282  0.4305 -1.2590  0.4078
 1388WAT     H2 4376   1.009   1.961   3.171 -0.4491 -0.9225 -0.4689
 1389WAT      O 4377   0.775   0.612   4.831 -0.2505 -0.3546 -0.1492
 1389WAT     H1 4378   0.841   0.628   4.764  2.1708 -1.2813  1.8327
 1389WAT     H2 4379   0.722   0.540   4.796 -0.2777  0.4284 -1.8080
 1390WAT      O 4380   2.245   4.978   4.009 -0.5132  0.0561  0.5659
 1390WAT     H1 4381   2.330   5.020   4.025 -0.8501  0.0906  2.5905
 1390WAT     H2 4382   2.236   4.915   4.081 -1.4516 -1.1886 -0.6049
 1391WAT      O 4383   1.818   3.053   2.724  0.0934  0.0505 -0.1236
 1391WAT     H1 4384   1.788   3.023   2.810  0.2908  0.3470  0.0498
 1391WAT     H2 4385   1.783   3.141   2.716  1.1257  0.5010  0.1925
 1392WAT      O 4386   0.951   4.159   1.629  0.1789  0.0323  0.0963
 1392WAT     H1 4387   0.904   4.086   1.670 -2.1242  0.4832 -1.5199
 1392WAT     H2 4388   0.937   4.233   1.688  1.2436 -0.4557  0.9887
 1393WAT      O 4389   1.189   4.155   1.526 -0.1316 -0.0480 -0.1735
 1393WAT     H1 4390   1.233   4.112   1.600  1.4949  0.9588 -0.4952
 1393WAT     H2 4391   1.099   4.167   1.556  0.1286 -0.9654  1.0748
 1394WAT      O 4392   3.422   0.766   1.067  0.1326  0.6907  0.2867
 1394WAT     H1 4393   3.423   0.690   1.125  0.8657  0.9722  0.6508
 1394WAT     H2 4394   3.487   0.745   1.000 -0.9807  0.1959 -0.6756
 1395WAT      O 4395   2.870   0.235   0.625  0.0310  0.1528 -0.2417
 1395WAT     H1 4396   2.776   0.220   0.615 -0.0549  1.4690 -1.8837
 1395WAT     H2 4397   2.910   0.152   0.600 -0.6687 -0.0609 -0.6963
 1396WAT      O 4398   2.684   5.034   4.282 -0.0452  0.6843  0.3957
 1396WAT     H1 4399   2.601   5.012   4.240 -0.5802  1.8997  0.8055
 1396WAT     H2 4400   2.693   4.969   4.352  0.3986 -0.7661 -0.9321
 1397WAT      O 4401   2.512   3.254   3.037 -0.5671  0.0245  0.2090
 1397WAT     H1 4402   2.575   3.301   3.092  0.1892  1.1266 -1.5176
 1397WAT     H2 4403   2.536   3.162   3.045 -0.6470  0.1272  1.9000
 1398WAT      O 4404   3.901   3.142   2.237  0.1543  0.1884 -0.0627
 1398WAT     H1 4405   3.974   3.180   2.286 -0.9525  2.5692 -0.1120
 1398WAT     H2 4406   3.939   3.111   2.155  1.2272  0.6547  0.2522
 1399WAT      O 4407   4.343   3.577   4.588  0.3106  0.6734  0.5924
 1399WAT     H1 4408   4.257   3.547   4.556  0.5861 -0.8107  1.1228
 1399WAT     H2 4409   4.334   3.576   4.683  1.7434 -2.5352  0.8575
 1400WAT      O 4410   4.381   3.069   0.310  0.8425 -0.3834  0.1699
 1400WAT     H1 4411   4.418   3.151   0.277 -1.0507  0.4805  0.0661
 1400WAT     H2 4412   4.457   3.014   0.328  2.0725  0.3746 -2.3250
 1401WAT      O 4413   2.931   0.686   2.832  0.1537  0.4945 -0.4409
 1401WAT     H1 4414   2.974   0.734   2.904 -2.5008  1.7834  0.4340
 1401WAT     H2 4415   2.900   0.605   2.872  0.1067  0.4518 -0.5632
 1402WAT      O 4416   2.559   4.042   1.446 -0.4440  0.6111 -0.2102
 1402WAT     H1 4417   2.586   4.121   1.398  0.3228 -0.1072 -0.9938
 1402WAT     H2 4418   2.521   3.986   1.378  0.7032 -0.4447  0.0080
 1403WAT      O 4419   0.511   3.853   1.853  0.0074 -0.6150 -0.2089
 1403WAT     H1 4420   0.544   3.801   1.926  0.3435  0.9084  0.7622
 1403WAT     H2 4421   0.589   3.886   1.809 -0.1194  1.8399  1.2526
 1404WAT      O 4422   3.502   0.444   4.282  0.3718 -0.2772  0.4309
 1404WAT     H1 4423   3.432   0.483   4.333  0.0606  0.3034 -0.4146
 1404WAT     H2 4424   3.473   0.354   4.267 -0.1535 -0.0704  0.1703
 1405WAT      O 4425   2.341   1.992   2.452 -0.0887 -0.0270  0.2178
 1405WAT     H1 4426   2.321   1.903   2.423 -1.8276  0.8800 -1.6329
 1405WAT     H2 4427   2.364   1.983   2.544 -0.9078 -2.3006  0.2615
 1406WAT      O 4428   0.349   4.370   0.819 -0.1740 -0.0588 -0.0063
 1406WAT     H1 4429   0.280   4.361   0.884  0.4192  1.0192  0.7793
 1406WAT     H2 4430   0.424   4.404   0.867  0.0591  1.4734 -1.3608
 1407WAT      O 4431   3.585   2.194   1.208  0.0928  0.6410  0.5036
 1407WAT     H1 4432   3.606   2.138   1.282 -0.2959  2.0113  1.7066
 1407WAT     H2 4433   3.513   2.149   1.163  3.9211 -3.1781 -2.5856
 1408WAT      O 4434   1.042   1.426   2.303 -0.2231  0.8713  0.0497
 1408WAT     H1 4435   1.086   1.367   2.242 -0.1035 -0.4387  1.3527
 1408WAT     H2 4436   1.054   1.513   2.265  2.0325  0.3895 -0.5033
 1409WAT      O 4437   3.852   3.335   3.168 -0.6526 -0.4770 -0.1688
 1409WAT     H1 4438   3.915   3.264   3.158  0.1099  0.4089 -2.0803
 1409WAT     H2 4439   3.882   3.402   3.108 -0.8817  1.8535  2.1384
 1410WAT      O 4440   1.038   3.908   0.511 -0.1587  0.2712  0.1588
 1410WAT     H1 4441   1.033   3.967   0.587 -1.0739  0.4177 -0.0005
 1410WAT     H2 4442   1.132   3.898   0.495  0.0290  1.2834  0.5027
 1411WAT      O 4443   0.150   4.476   4.769 -0.2323  0.2650 -0.3227
 1411WAT     H1 4444   0.066   4.474   4.724 -0.2338  0.6111 -0.3410
 1411WAT     H2 4445   0.208   4.423   4.715 -0.4416  0.0125 -0.3005
 1412WAT      O 4446   1.853   3.066   0.168 -0.2285  0.4614  0.1106
 1412WAT     H1 4447   1.841   3.160   0.185  0.3880  0.0325  3.6999
 1412WAT     H2 4448   1.799   3.023   0.233  1.2705 -1.6547  0.0584
 1413WAT      O 4449   4.298   3.261   2.146 -0.1940 -0.2928 -0.2105
 1413WAT     H1 4450   4.244   3.314   2.203  0.2002 -0.3395  0.2148
 1413WAT     H2 4451   4.252   3.261   2.062 -0.9722 -0.5315  0.2059
 1414WAT      O 4452   0.936   4.508   0.938  0.4958  0.3748 -0.0548
 1414WAT     H1 4453   0.943   4.561   1.018  1.2791 -0.0901  0.1929
 1414WAT     H2 4454   0.943   4.418   0.968  1.7852  0.2305 -0.7433
 1415WAT      O 4455   3.038   1.488   4.394 -0.0623  0.0666 -0.1040
 1415WAT     H1 4456   3.010   1.556   4.456 -0.3800 -0.4223  0.2917
 1415WAT     H2 4457   3.086   1.425   4.447 -1.9380 -1.3386  0.0266
 1416WAT      O 4458   3.647   3.467   3.782 -0.1827  0.2705  0.2550
 1416WAT     H1 4459   3.608   3.516   3.854 -1.7773 -1.2785  0.5310
 1416WAT     H2 4460   3.618   3.513   3.703 -0.3744  0.6554  0.5467
 1417WAT      O 4461   4.460   3.353   3.097 -0.3929  0.0694 -0.1959
 1417WAT     H1 4462   4.548   3.320   3.077 -0.0498  1.7211 -1.7182
 1417WAT     H2 4463   4.436   3.404   3.019 -3.0407 -0.9727 -0.1364
 1418WAT      O 4464   1.453   1.965   2.477  0.3045 -0.0676  0.5737
 1418WAT     H1 4465   1.467   2.032   2.544  1.4578  0.3661 -0.0600
 1418WAT     H2 4466   1.470   2.010   2.394  0.8575 -1.0657  0.1212
 1419WAT      O 4467   3.730   1.001   1.035  0.1982  0.3051 -0.4289
 1419WAT     H1 4468   3.715   0.954   0.953 -1.7645  0.4791 -0.2218
 1419WAT     H2 4469   3.662   1.069   1.036 -0.1066  0.0317  1.5236
 1420WAT      O 4470   3.457   2.216   3.441 -0.3725  0.1353  0.0222
 1420WAT     H1 4471   3.457   2.280   3.370  1.5576 -0.4977 -0.6060
 1420WAT     H2 4472   3.499   2.261   3.514 -0.7902  0.2166  0.2150
 1421WAT      O 4473   0.466   2.021   4.002 -0.4331 -0.9007  0.2158
 1421WAT     H1 4474   0.501   1.943   3.958  0.6752  0.9180 -2.4399
 1421WAT     H2 4475   0.539   2.083   4.000 -1.5995  0.5637  1.3141
 1422WAT      O 4476   1.702   2.446   4.731  0.4619  0.1231 -0.3104
 1422WAT     H1 4477   1.780   2.403   4.766  0.8704  0.2985 -0.9986
 1422WAT     H2 4478   1.697   2.529   4.780  1.0385  0.3736 -0.6631
 1423WAT      O 4479   4.387   2.142   0.126  0.2120 -0.0079  0.2650
 1423WAT     H1 4480   4.420   2.088   0.054  1.8144  1.9698 -0.5763
 1423WAT     H2 4481   4.363   2.079   0.194  1.5056 -1.7909 -0.8565
 1424WAT      O 4482   1.354   2.274   5.011 -0.0498  0.1335 -0.6572
 1424WAT     H1 4483   1.366   2.181   5.032  2.8131  0.1657 -1.7077
 1424WAT     H2 4484   1.374   2.280   4.917 -1.8635  1.6095 -1.0237
 1425WAT      O 4485   3.886   2.363   0.864 -0.0050 -0.4358  0.2882
 1425WAT     H1 4486   3.959   2.343   0.805 -0.7639 -0.9545 -0.4891
 1425WAT     H2 4487   3.929   2.392   0.945  1.0554  1.5670 -0.9191
 1426WAT      O 4488   4.349   3.751   3.370 -0.0713 -0.1558 -0.1816
 1426WAT     H1 4489   4.332   3.657   3.366  0.5961 -0.4926  2.7305
 1426WAT     H2 4490   4.403   3.769   3.293 -0.3864 -2.1025 -0.9058
 1427WAT      O 4491   0.771   2.930   2.551  0.3810  0.2734 -0.1048
 1427WAT     H1 4492   0.712   2.857   2.529 -0.9528  1.2174  0.1824
 1427WAT     H2 4493   0.806   2.908   2.637  0.3313 -0.2437 -0.2168
 1428WAT      O 4494   2.001   3.754   1.124  0.0498  0.4339 -0.1675
 1428WAT     H1 4495   1.955   3.681   1.085 -2.0928  0.6885  1.7145
 1428WAT     H2 4496   2.020   3.727   1.214  3.0266  0.6356 -0.6108
 1429WAT      O 4497   0.309   1.864   5.093  0.1162  0.4031  0.0432
 1429WAT     H1 4498   0.316   1.776   5.054  0.1927  1.3784 -2.3098
 1429WAT     H2 4499   0.393   1.905   5.074 -0.0358  1.1068  0.8542
 1430WAT      O 4500   0.566   3.252   1.455  0.0553 -0.3292 -0.1973
 1430WAT     H1 4501   0.556   3.340   1.418 -0.7247 -0.3638 -0.0780
 1430WAT     H2 4502   0.624   3.264   1.530  0.6974 -0.0709 -0.7176
 1431WAT      O 4503   3.898   1.590   0.312 -0.2095 -0.6763  0.2821
 1431WAT     H1 4504   3.902   1.675   0.267  1.9073 -0.2784  1.1024
 1431WAT     H2 4505   3.921   1.526   0.244  0.5802 -0.3263  0.2104
 1432WAT      O 4506   2.119   4.917   4.417  0.6329 -0.1841  0.3690
 1432WAT     H1 4507   2.057   4.964   4.361  1.2339  1.4982  1.0619
 1432WAT     H2 4508   2.125   4.971   4.496  1.2163 -1.5428  1.2923
 1433WAT      O 4509   0.988   3.897   1.169  0.4948  0.5137 -0.0310
 1433WAT     H1 4510   0.960   3.894   1.077 -0.4641 -1.0574  0.2782
 1433WAT     H2 4511   1.084   3.895   1.165  0.4619 -1.1928 -0.9936
 1434WAT      O 4512   3.399   0.785   3.923 -0.6557  0.4206 -0.2685
 1434WAT     H1 4513   3.354   0.867   3.941 -0.3108  0.5868 -0.1506
 1434WAT     H2 4514   3.390   0.772   3.829 -1.2491  0.2732 -0.1944
 1435WAT      O 4515   1.630   0.489   4.677 -0.1281 -0.1666 -0.5295
 1435WAT     H1 4516   1.591   0.518   4.594  0.8057 -0.2713 -1.0158
 1435WAT     H2 4517   1.646   0.396   4.664  0.1873 -0.1446 -0.2982
 1436WAT      O 4518   1.893   2.253   2.814  0.2937  0.2378 -0.3324
 1436WAT     H1 4519   1.879   2.345   2.793  1.2185 -0.0197 -2.2690
 1436WAT     H2 4520   1.978   2.232   2.775  0.9758 -0.9957  1.6631
 1437WAT      O 4521   0.390   3.118   4.698  0.1030  0.4611  0.1396
 1437WAT     H1 4522   0.442   3.115   4.779  0.6605  1.8445 -0.1303
 1437WAT     H2 4523   0.451   3.091   4.630 -0.2979 -0.4666  0.1415
 1438WAT      O 4524   1.457   2.152   1.961 -0.0829 -0.5879  0.3889
 1438WAT     H1 4525   1.441   2.058   1.959 -0.2723 -0.5920  1.3577
 1438WAT     H2 4526   1.382   2.190   1.914  0.1782 -0.9320 -0.3169
 1439WAT      O 4527   0.160   0.377   3.771  0.7961  0.1220  0.1781
 1439WAT     H1 4528   0.223   0.320   3.727  1.3211 -0.3769  1.5499
 1439WAT     H2 4529   0.203   0.463   3.772  0.3684  0.3760 -1.1160
 1440WAT      O 4530   2.668   2.889   0.180 -0.0061 -0.5287 -0.8172
 1440WAT     H1 4531   2.574   2.904   0.170  0.1410  0.0772 -1.3661
 1440WAT     H2 4532   2.689   2.923   0.267 -0.2512 -0.4478 -0.7890
 1441WAT      O 4533   3.454   0.880   1.375  0.1245 -0.4513 -0.1030
 1441WAT     H1 4534   3.549   0.886   1.370  0.0049  1.3571 -0.9651
 1441WAT     H2 4535   3.435   0.789   1.353  1.6289 -0.7883 -0.1316
 1442WAT      O 4536   3.308   2.114   0.444  0.0158 -0.5176 -0.0424
 1442WAT     H1 4537   3.284   2.200   0.479  0.4348 -0.5877  0.4393
 1442WAT     H2 4538   3.312   2.057   0.522  0.9506 -0.6841 -0.1943
 1443WAT      O 4539   3.655   1.580   1.727 -0.6019 -0.0158  0.1110
 1443WAT     H1 4540   3.724   1.513   1.728 -0.1917  0.4064  0.7119
 1443WAT     H2 4541   3.702   1.662   1.715 -0.9299  0.3384  1.1593
 1444WAT      O 4542   1.837   0.733   3.303  0.3099 -1.0322 -0.1687
 1444WAT     H1 4543   1.846   0.828   3.306 -2.5344 -0.7068  0.1966
 1444WAT     H2 4544   1.826   0.707   3.395 -3.1084 -1.1201 -0.4796
 1445WAT      O 4545   3.001   3.694   3.793 -1.0060  0.1967 -0.0685
 1445WAT     H1 4546   3.031   3.755   3.725  0.7790  0.8486  1.2257
 1445WAT     H2 4547   3.012   3.743   3.875 -0.6992 -1.4276  0.8938
 1446WAT      O 4548   0.232   1.044   3.983 -0.0287  0.0049 -0.4286
 1446WAT     H1 4549   0.199   0.965   3.941 -0.1642  0.1607 -0.6172
 1446WAT     H2 4550   0.163   1.109   3.968 -0.0255  0.0920 -0.0678
 1447WAT      O 4551   1.210   4.823   4.952 -0.1749  0.1146  0.0800
 1447WAT     H1 4552   1.246   4.790   5.034 -1.8102 -2.3559 -0.1068
 1447WAT     H2 4553   1.115   4.829   4.968 -0.6248 -1.1193 -1.7821
 1448WAT      O 4554   3.037   4.444   2.923 -0.3186  0.0929  0.3783
 1448WAT     H1 4555   2.961   4.387   2.932 -0.5056 -0.2303 -2.4742
 1448WAT     H2 4556   2.999   4.532   2.918 -0.9287 -0.2072 -3.5298
 1449WAT      O 4557   4.392   4.453   3.401  0.1528 -0.3472  0.0921
 1449WAT     H1 4558   4.373   4.471   3.493  2.5611  0.0037  0.5874
 1449WAT     H2 4559   4.312   4.477   3.354 -1.2393 -0.8592  2.1055
 1450WAT      O 4560   4.233   2.342   4.104 -0.1733  0.0761  0.6221
 1450WAT     H1 4561   4.285   2.382   4.035  1.8963  0.7203  2.4264
 1450WAT     H2 4562   4.178   2.414   4.137 -0.8298 -0.1197 -0.0189
 1451WAT      O 4563   1.650   0.843   4.878  0.1731  0.1840 -0.0729
 1451WAT     H1 4564   1.579   0.846   4.814  1.0516 -2.3354 -1.2985
 1451WAT     H2 4565   1.618   0.786   4.948  0.4368  0.2112  0.0723
 1452WAT      O 4566   0.031   1.848   0.884  0.2822 -0.2193 -0.3986
 1452WAT     H1 4567  -0.013   1.888   0.809 -2.5463 -0.2484  1.0734
 1452WAT     H2 4568   0.071   1.921   0.931 -0.7254  0.2734 -0.2731
 1453WAT      O 4569   1.511   1.084   3.886 -0.1452 -0.1032 -0.6647
 1453WAT     H1 4570   1.559   1.002   3.883 -0.6564 -0.4422  0.1527
 1453WAT     H2 4571   1.566   1.143   3.938  0.2675  0.1174 -1.3328
 1454WAT      O 4572   2.268   3.110   0.388 -0.1780 -0.1833  0.5390
 1454WAT     H1 4573   2.214   3.117   0.309 -0.7101 -3.9056  0.4038
 1454WAT     H2 4574   2.208   3.077   0.455  1.2421 -1.6844  1.1434
 1455WAT      O 4575   2.286   4.472   4.622  0.2917  0.2366  0.0157
 1455WAT     H1 4576   2.258   4.491   4.532  2.2994 -2.1437 -1.2128
 1455WAT     H2 4577   2.277   4.377   4.631 -1.0096  0.5159  2.8296
 1456WAT      O 4578   2.541   0.721   1.180  0.1143 -0.6181 -0.2146
 1456WAT     H1 4579   2.604   0.777   1.226  0.3324 -0.1359 -1.0682
 1456WAT     H2 4580   2.461   0.728   1.232  0.0183  0.8252 -0.5013
 1457WAT      O 4581   2.977   1.582   2.209 -0.4414  0.8120  0.5237
 1457WAT     H1 4582   3.014   1.588   2.297  2.7847  2.9225 -0.7923
 1457WAT     H2 4583   3.037   1.525   2.162 -2.5728 -0.9476 -0.2135
 1458WAT      O 4584   1.724   1.155   4.495 -0.7223 -0.1326 -0.2145
 1458WAT     H1 4585   1.746   1.068   4.462 -0.3905  0.0351 -0.4479
 1458WAT     H2 4586   1.769   1.160   4.580 -0.3184 -0.0036 -0.4319
 1459WAT      O 4587   2.883   1.311   1.606 -0.1430 -0.0475  0.0740
 1459WAT     H1 4588   2.946   1.367   1.652  0.2475 -0.9854  0.7013
 1459WAT     H2 4589   2.887   1.227   1.651 -2.2257 -0.0061  0.4364
 1460WAT      O 4590   0.164   0.280   4.352 -0.3436 -0.6591  0.2218
 1460WAT     H1 4591   0.104   0.257   4.424 -0.0090 -2.4167 -0.0218
 1460WAT     H2 4592   0.156   0.375   4.344 -1.3937 -0.5893  1.6963
 1461WAT      O 4593   4.359   3.531   1.406  0.8203 -0.2451 -0.2720
 1461WAT     H1 4594   4.392   3.621   1.412 -0.3778  0.1302  1.4736
 1461WAT     H2 4595   4.333   3.510   1.496 -0.0383 -1.9071 -0.8912
 1462WAT      O 4596   0.659   3.936   2.835  0.2408  0.0763 -0.4836
 1462WAT     H1 4597   0.714   3.865   2.801  2.1522  0.6947  1.1044
 1462WAT     H2 4598   0.667   3.929   2.930 -2.6394  0.1116 -0.1530
 1463WAT      O 4599   2.570   4.674   2.820  0.0832 -0.7359 -0.4691
 1463WAT     H1 4600   2.591   4.765   2.838  1.1655 -0.9893 -0.3633
 1463WAT     H2 4601   2.483   4.676   2.782  0.4021  0.4159 -1.1835
 1464WAT      O 4602   0.949   0.572   2.056  0.1585  0.1316  0.6359
 1464WAT     H1 4603   0.936   0.656   2.099 -0.7102  0.2452  0.1550
 1464WAT     H2 4604   0.879   0.565   1.992  1.5914  0.0956 -1.0079
 1465WAT      O 4605   2.773   0.630   1.011  0.0419  0.2138  0.7465
 1465WAT     H1 4606   2.744   0.649   0.922 -0.5364 -1.2900  0.5966
 1465WAT     H2 4607   2.692   0.622   1.062  0.3623  0.8899  1.3880
 1466WAT      O 4608   1.118   1.844   1.407 -0.2526 -0.2143 -0.0283
 1466WAT     H1 4609   1.046   1.808   1.460 -0.6964 -0.1397 -0.5666
 1466WAT     H2 4610   1.116   1.938   1.426  0.8944 -0.4420  1.3631
 1467WAT      O 4611   3.514   4.353   1.423 -0.2949 -0.4093 -0.1771
 1467WAT     H1 4612   3.431   4.311   1.399 -1.3589  1.7263 -0.4519
 1467WAT     H2 4613   3.509   4.440   1.384  1.3562  0.3791  1.2300
 1468WAT      O 4614   0.641   0.523   2.433  0.5376  0.0248  0.4379
 1468WAT     H1 4615   0.658   0.451   2.372  0.1361  0.1716  0.1463
 1468WAT     H2 4616   0.647   0.602   2.379 -0.1549  0.1326  0.5151
 1469WAT      O 4617   1.993   4.274   3.664 -0.0831 -0.3083  0.0397
 1469WAT     H1 4618   1.992   4.335   3.738  0.5600  0.0646 -0.2475
 1469WAT     H2 4619   1.917   4.300   3.612  0.4956  0.6255 -0.3672
 1470WAT      O 4620   1.344   4.120   3.036 -0.0711 -0.2733  0.2223
 1470WAT     H1 4621   1.363   4.028   3.016  0.3961 -0.2556  0.5919
 1470WAT     H2 4622   1.347   4.164   2.951  0.9208 -0.3816  0.1903
 1471WAT      O 4623   4.390   2.137   2.875  0.0313 -0.1466 -0.2506
 1471WAT     H1 4624   4.310   2.085   2.866  0.0650 -0.2776  0.1715
 1471WAT     H2 4625   4.445   2.085   2.934  0.5545 -0.2038 -0.7785
 1472WAT      O 4626   2.250   2.881   1.820  0.1409 -0.2375  0.3753
 1472WAT     H1 4627   2.201   2.848   1.895  1.5672  1.0981  1.9778
 1472WAT     H2 4628   2.193   2.948   1.782  0.3733  0.8891  1.8724
 1473WAT      O 4629   1.461   4.578   2.843  0.0862 -0.3552 -0.1577
 1473WAT     H1 4630   1.392   4.591   2.778  1.7615  0.7085 -1.8119
 1473WAT     H2 4631   1.522   4.518   2.802  1.3000  0.5199  0.3068
 1474WAT      O 4632   1.390   0.345   2.114  0.3403  0.1444  0.2978
 1474WAT     H1 4633   1.304   0.383   2.131 -0.4427 -1.4607  0.1107
 1474WAT     H2 4634   1.415   0.303   2.196 -0.3874 -1.8388 -0.4436
 1475WAT      O 4635   1.046   4.850   3.135  0.0285  0.1720  0.1196
 1475WAT     H1 4636   1.103   4.906   3.187 -0.1025  0.2540  0.1766
 1475WAT     H2 4637   1.045   4.890   3.048  0.1818  0.0818  0.0759
 1476WAT      O 4638   3.445   4.168   4.013 -0.2122  0.2566 -0.2793
 1476WAT     H1 4639   3.378   4.223   4.053  0.2056 -0.1252  0.9853
 1476WAT     H2 4640   3.451   4.092   4.072  0.5100 -0.2610 -1.0090
 1477WAT      O 4641   1.497   3.238   2.002  0.2974  0.0457  0.2918
 1477WAT     H1 4642   1.426   3.275   1.950 -1.7472 -3.2074  0.5013
 1477WAT     H2 4643   1.568   3.225   1.939  0.8427  3.2199  0.0550
 1478WAT      O 4644   3.849   4.005   3.988 -0.2787  0.3203 -0.2327
 1478WAT     H1 4645   3.929   4.058   3.980  0.2287 -0.5417 -1.1422
 1478WAT     H2 4646   3.819   4.020   4.078  0.9907  0.5339  0.1761
 1479WAT      O 4647   1.180   3.338   3.229 -0.7065  0.1879  0.2220
 1479WAT     H1 4648   1.173   3.242   3.236  0.0730  0.0910 -0.2172
 1479WAT     H2 4649   1.153   3.357   3.140 -0.8128  0.3782  0.2944
 1480WAT      O 4650   0.867   1.855   4.068 -0.0833  0.8120  0.3546
 1480WAT     H1 4651   0.856   1.885   4.158  1.4792  2.5755  0.0355
 1480WAT     H2 4652   0.961   1.862   4.053 -0.1767 -0.5726 -1.0651
 1481WAT      O 4653   0.310   0.797   2.928 -0.1688 -0.5894 -0.2904
 1481WAT     H1 4654   0.390   0.746   2.911 -0.5092 -0.8790 -1.0550
 1481WAT     H2 4655   0.239   0.735   2.911 -0.5859  0.1146 -1.1313
 1482WAT      O 4656   0.967   4.922   3.606 -0.2732  0.3198 -0.2252
 1482WAT     H1 4657   0.916   4.949   3.530 -0.7033  1.5923  0.4717
 1482WAT     H2 4658   0.923   4.843   3.638 -0.1222 -0.1868 -1.2417
 1483WAT      O 4659   2.596   1.790   2.515  0.2037  0.2468  0.3013
 1483WAT     H1 4660   2.574   1.819   2.426  0.6983 -1.7080 -0.5119
 1483WAT     H2 4661   2.639   1.866   2.554  0.2907  1.0545 -1.2488
 1484WAT      O 4662   0.682   4.902   4.150 -0.0295  0.0739  0.1194
 1484WAT     H1 4663   0.689   4.836   4.082 -0.7756 -0.7619  0.8221
 1484WAT     H2 4664   0.750   4.966   4.130  2.6521 -2.3163  0.9814
 1485WAT      O 4665   0.460   0.094   0.684 -0.2393 -0.1878  0.0551
 1485WAT     H1 4666   0.472   0.178   0.640 -0.2770  0.0662  0.5181
 1485WAT     H2 4667   0.433   0.118   0.773 -2.2509 -0.6906 -0.3621
 1486WAT      O 4668   3.738   2.758   4.165 -0.3511  0.1075  0.6016
 1486WAT     H1 4669   3.761   2.749   4.073 -0.2590  2.8218  0.2591
 1486WAT     H2 4670   3.647   2.728   4.170  0.1231 -1.5312 -0.0124
 1487WAT      O 4671   0.744   2.568   2.268 -0.3790  0.6159  0.0880
 1487WAT     H1 4672   0.683   2.617   2.323 -0.3763  0.5921  0.1122
 1487WAT     H2 4673   0.689   2.509   2.217 -0.3630  0.4825  0.2243
 1488WAT      O 4674   0.622   4.901   3.286  0.0018  0.2116  0.4422
 1488WAT     H1 4675   0.550   4.901   3.222 -0.3955 -2.2861  0.7715
 1488WAT     H2 4676   0.687   4.841   3.248  1.4184  1.5371  0.7051
 1489WAT      O 4677   0.416   1.576   1.739 -0.1524 -0.4955 -0.3112
 1489WAT     H1 4678   0.392   1.660   1.780  2.3169  0.2166 -0.1536
 1489WAT     H2 4679   0.366   1.511   1.788  1.3985  0.4761  2.8546
 1490WAT      O 4680   0.653   3.758   5.243 -0.4199 -0.3150  0.1221
 1490WAT     H1 4681   0.667   3.822   5.173  1.4921 -0.0408  0.6817
 1490WAT     H2 4682   0.574   3.711   5.218 -0.8379  1.0437 -1.2414
 1491WAT      O 4683   0.013   1.009   3.402 -0.0193  0.4961  0.0807
 1491WAT     H1 4684   0.044   0.930   3.446 -0.6783 -0.0793 -0.4813
 1491WAT     H2 4685   0.047   1.003   3.313  0.3072  1.0747  0.1597
 1492WAT      O 4686   4.422   1.630   4.474 -0.5698 -0.0633 -0.6585
 1492WAT     H1 4687   4.375   1.711   4.452  0.5441  0.7531 -0.1295
 1492WAT     H2 4688   4.509   1.659   4.499 -0.6891 -1.2558  1.3429
 1493WAT      O 4689   0.728   5.034   1.024  0.0963  0.1063  0.8659
 1493WAT     H1 4690   0.707   5.121   1.058  0.2378 -0.2922  2.0097
 1493WAT     H2 4691   0.674   4.974   1.077  0.4651 -0.5435  0.5158
 1494WAT      O 4692   1.329   0.571   3.219  0.3130  0.2081  0.1230
 1494WAT     H1 4693   1.394   0.520   3.170  0.7295  0.2659  0.6062
 1494WAT     H2 4694   1.248   0.559   3.170  0.5519 -0.3652 -0.1469
 1495WAT      O 4695   1.882   4.772   3.398 -0.3225 -0.1041 -0.0821
 1495WAT     H1 4696   1.958   4.806   3.352 -0.8322 -0.0226 -0.8879
 1495WAT     H2 4697   1.807   4.801   3.345 -0.8243 -1.5329 -0.1984
 1496WAT      O 4698   1.773   2.280   3.470  0.8358 -0.1191  0.3639
 1496WAT     H1 4699   1.834   2.339   3.514  0.5896 -0.2165  0.8500
 1496WAT     H2 4700   1.725   2.238   3.542 -0.2115  0.3988 -0.0164
 1497WAT      O 4701   3.239   2.162   2.539  0.4864  0.3337 -0.5454
 1497WAT     H1 4702   3.172   2.125   2.482  0.2265 -1.0832  0.6190
 1497WAT     H2 4703   3.321   2.149   2.491  0.4227 -1.9621 -0.1403
 1498WAT      O 4704   1.200   2.986   2.549  0.1003 -0.0882  0.2878
 1498WAT     H1 4705   1.233   2.907   2.592  1.8540 -0.1921 -1.1123
 1498WAT     H2 4706   1.105   2.980   2.558  0.2601 -1.6343  1.4413
 1499WAT      O 4707   1.896   4.230   4.545  0.2482  0.0526 -0.5562
 1499WAT     H1 4708   1.920   4.211   4.635  2.1772 -0.1092 -1.0745
 1499WAT     H2 4709   1.924   4.154   4.495 -0.4608  0.2983 -1.3670
 1500WAT      O 4710   1.268   2.490   0.598 -0.8321 -0.3530 -0.3278
 1500WAT     H1 4711   1.195   2.518   0.654  0.7978  0.9990  1.2419
 1500WAT     H2 4712   1.265   2.549   0.523 -2.3573 -1.4526 -1.2034
 1501WAT      O 4713   3.260   1.397   4.529  0.1568  0.1671  0.1165
 1501WAT     H1 4714   3.320   1.362   4.595  1.3867 -1.8233 -1.9160
 1501WAT     H2 4715   3.307   1.471   4.491 -1.2252  2.3624  2.4397
 1502WAT      O 4716   4.418   3.729   2.161  0.3870 -0.3883 -0.0301
 1502WAT     H1 4717   4.438   3.816   2.196  1.0503 -0.9149  0.9540
 1502WAT     H2 4718   4.454   3.731   2.072  0.3147  0.3730 -0.0487
 1503WAT      O 4719   0.611   2.112   2.483 -0.3898  0.3095  0.4651
 1503WAT     H1 4720   0.624   2.174   2.554  0.2567  0.8145 -0.0778
 1503WAT     H2 4721   0.654   2.152   2.408  0.9515 -1.2656  0.3373
 1504WAT      O 4722   0.975   4.384   3.293  0.6253  0.0057  0.1788
 1504WAT     H1 4723   0.991   4.471   3.257 -0.2590  0.6703  1.3411
 1504WAT     H2 4724   1.024   4.325   3.235  2.5358  1.3992  0.2957
 1505WAT      O 4725   3.409   1.091   3.529 -0.3230 -0.3809  0.2460
 1505WAT     H1 4726   3.483   1.063   3.475  0.4403 -1.7927  1.9072
 1505WAT     H2 4727   3.340   1.027   3.512 -0.2121 -0.6117  0.6425
 1506WAT      O 4728   2.086   1.076   2.816 -0.4009  0.8456  0.1723
 1506WAT     H1 4729   2.098   0.990   2.856  0.4550 -0.5305 -2.7686
 1506WAT     H2 4730   2.116   1.138   2.882 -1.1492 -1.0677  2.4263
 1507WAT      O 4731   4.266   1.819   4.226  0.4575  0.0896 -0.0515
 1507WAT     H1 4732   4.347   1.863   4.253 -0.4228  3.1560 -1.8926
 1507WAT     H2 4733   4.289   1.726   4.224  3.2041  0.5992  1.7740
 1508WAT      O 4734   4.280   1.816   1.879  0.4642 -0.4917 -0.2347
 1508WAT     H1 4735   4.349   1.764   1.919  0.8691  0.3622  0.2095
 1508WAT     H2 4736   4.224   1.843   1.952 -0.5314 -1.4168 -0.6205
 1509WAT      O 4737   2.635   2.038   3.146 -0.5116 -0.3714 -0.6357
 1509WAT     H1 4738   2.725   2.007   3.138 -0.4539 -0.2672 -0.3864
 1509WAT     H2 4739   2.640   2.112   3.206 -1.2124 -2.3003  1.9407
 1510WAT      O 4740   1.265   3.621   3.887 -0.1809  0.1374 -0.0432
 1510WAT     H1 4741   1.309   3.609   3.971 -0.0767 -0.0684 -0.1280
 1510WAT     H2 4742   1.200   3.551   3.885 -1.3110  1.1217  0.6009
 1511WAT      O 4743   2.148   3.795   0.869  0.0286  0.3556 -0.4459
 1511WAT     H1 4744   2.115   3.758   0.951  1.0256  0.1841 -0.1123
 1511WAT     H2 4745   2.201   3.725   0.830  3.1265  1.7861  0.8776
 1512WAT      O 4746   4.252   0.350   0.749  0.2231  0.3030  0.4310
 1512WAT     H1 4747   4.219   0.260   0.745 -1.1376  0.7936 -2.9053
 1512WAT     H2 4748   4.343   0.343   0.720  0.4417 -0.0811  1.1807
 1513WAT      O 4749   1.212   4.888   0.236 -0.4497  0.1112  0.0473
 1513WAT     H1 4750   1.210   4.813   0.178  1.7457 -0.1960  0.2736
 1513WAT     H2 4751   1.199   4.851   0.324  3.1664 -0.5094  0.4750
 1514WAT      O 4752   0.946   1.582   4.687 -0.3754 -0.1719  0.5959
 1514WAT     H1 4753   0.886   1.637   4.637  0.2850  0.2933  0.3104
 1514WAT     H2 4754   0.930   1.494   4.654  1.8164  0.3635 -2.3631
 1515WAT      O 4755   2.655   1.969   0.478  0.5356  0.3776 -0.1985
 1515WAT     H1 4756   2.698   1.973   0.563 -0.6123 -1.7217  0.5469
 1515WAT     H2 4757   2.721   1.933   0.419  1.0303  0.9179  0.0223
 1516WAT      O 4758   0.328   4.368   2.944 -0.4657 -0.3616 -0.1620
 1516WAT     H1 4759   0.334   4.346   3.037 -0.7873  1.5124  0.3538
 1516WAT     H2 4760   0.266   4.305   2.908  0.3967 -1.7280  0.6665
 1517WAT      O 4761   2.412   3.824   4.059 -0.0237  0.2820  0.5378
 1517WAT     H1 4762   2.440   3.805   4.149 -0.2869  1.6111  0.9307
 1517WAT     H2 4763   2.350   3.754   4.038  1.5515 -1.2051  0.6160
 1518WAT      O 4764   1.852   0.237   1.022  0.3877  0.9106  0.3017
 1518WAT     H1 4765   1.872   0.328   0.999 -0.1562  1.5113  2.0547
 1518WAT     H2 4766   1.767   0.221   0.981  1.6442  0.2632 -2.2493
 1519WAT      O 4767   3.142   2.409   4.217  0.3568  0.1698  0.6462
 1519WAT     H1 4768   3.066   2.362   4.184 -0.2776  2.7001 -1.8397
 1519WAT     H2 4769   3.129   2.413   4.312 -1.5030 -1.2267  0.4939
 1520WAT      O 4770   0.495   4.173   1.081  0.1632  0.2251 -0.1129
 1520WAT     H1 4771   0.492   4.083   1.048  0.6090 -0.3310  1.2612
 1520WAT     H2 4772   0.499   4.163   1.176 -0.3005  1.7222  0.0911
 1521WAT      O 4773   2.393   4.612   4.023  0.0249  0.2902  0.3750
 1521WAT     H1 4774   2.390   4.531   4.074  0.8122  0.6291  0.9803
 1521WAT     H2 4775   2.319   4.663   4.055  0.0689  0.1884  0.6455
 1522WAT      O 4776   0.944   0.839   2.670 -0.3195  0.4979  0.4887
 1522WAT     H1 4777   0.938   0.836   2.765  0.5049  1.1428  0.5750
 1522WAT     H2 4778   0.900   0.759   2.640  1.5869 -1.0301  1.5226
 1523WAT      O 4779   4.412   1.006   0.311 -0.7468 -0.6770 -0.2963
 1523WAT     H1 4780   4.356   1.030   0.237 -0.8538 -2.0817 -0.7012
 1523WAT     H2 4781   4.373   0.926   0.346  0.7293 -1.4458 -0.3231
 1524WAT      O 4782   0.325   3.111   4.145 -0.1317 -0.7881 -0.0944
 1524WAT     H1 4783   0.257   3.130   4.080  0.3752 -0.6063 -0.5827
 1524WAT     H2 4784   0.357   3.197   4.172  1.7268 -0.8459 -1.8388
 1525WAT      O 4785   0.533   3.679   2.388  0.3966  0.4251  0.0911
 1525WAT     H1 4786   0.481   3.742   2.338  1.2612 -0.3705 -1.9544
 1525WAT     H2 4787   0.623   3.709   2.379  0.5967  0.1038  0.9513
 1526WAT      O 4788   0.526   2.394   3.927  0.5930  0.6490 -0.1262
 1526WAT     H1 4789   0.460   2.461   3.945  0.2540 -0.2191  2.1878
 1526WAT     H2 4790   0.475   2.315   3.907  0.7699 -0.3794  2.9820
 1527WAT      O 4791   0.002   1.196   0.448 -0.6702  0.0576  0.5251
 1527WAT     H1 4792   0.071   1.160   0.504  2.9488  1.8020 -2.4082
 1527WAT     H2 4793  -0.031   1.121   0.400  0.0034 -0.6725  1.1633
 1528WAT      O 4794   3.382   2.656   2.509  0.4831  0.3147 -0.8952
 1528WAT     H1 4795   3.325   2.638   2.434  1.5247 -1.0671 -1.4057
 1528WAT     H2 4796   3.374   2.578   2.564  0.6115  0.8243 -0.1459
 1529WAT      O 4797   0.169   0.956   4.379  0.6048  0.1892  0.0579
 1529WAT     H1 4798   0.217   0.892   4.326  1.6100  1.4578 -0.6112
 1529WAT     H2 4799   0.209   1.040   4.357 -0.5630  1.0370  1.0586
 1530WAT      O 4800   0.103   2.394   4.658 -0.4645  0.1962 -0.4088
 1530WAT     H1 4801   0.060   2.309   4.659 -0.5958  0.2621 -0.3799
 1530WAT     H2 4802   0.087   2.430   4.746  2.1563 -1.0226  0.6896
 1531WAT      O 4803   1.377   0.849   4.748 -0.1757  0.1062 -0.0799
 1531WAT     H1 4804   1.405   0.783   4.684  0.2405  0.2939 -0.0981
 1531WAT     H2 4805   1.339   0.919   4.694 -0.9709 -0.2819 -0.0357
 1532WAT      O 4806   2.393   1.737   4.998  0.6958  0.5542 -0.3258
 1532WAT     H1 4807   2.457   1.800   4.964  0.7860  1.2409  1.0401
 1532WAT     H2 4808   2.446   1.673   5.045  0.3607  1.8833  2.0032
 1533WAT      O 4809   4.325   1.475   3.324 -0.2326 -0.5032  0.2063
 1533WAT     H1 4810   4.333   1.381   3.306  0.7585 -0.9828  2.7343
 1533WAT     H2 4811   4.232   1.488   3.341 -0.3835 -1.0178 -0.1771
 1534WAT      O 4812   0.557   2.418   2.116  0.1739 -0.8822  0.3610
 1534WAT     H1 4813   0.507   2.480   2.062 -0.1175 -1.0082  0.4861
 1534WAT     H2 4814   0.510   2.415   2.199  0.2455 -1.1955  0.3915
 1535WAT      O 4815   4.363   1.591   1.639  0.2001  0.1063  0.0998
 1535WAT     H1 4816   4.277   1.555   1.661  0.6375 -0.4302  0.9967
 1535WAT     H2 4817   4.424   1.545   1.697  1.4109 -1.2070 -2.0249
 1536WAT      O 4818   2.576   1.272   0.832  0.1364  0.3325  0.1549
 1536WAT     H1 4819   2.599   1.231   0.749  0.2805 -0.3745  0.5289
 1536WAT     H2 4820   2.548   1.360   0.809 -0.1895  0.0195 -0.6804
 1537WAT      O 4821   1.054   3.767   4.537  0.2013 -0.2835  0.0063
 1537WAT     H1 4822   1.091   3.759   4.449  0.5828 -1.1657  0.2423
 1537WAT     H2 4823   1.101   3.703   4.590 -0.3611 -0.1063  0.7467
 1538WAT      O 4824   0.525   4.903   3.882  0.2381  0.6927  0.2491
 1538WAT     H1 4825   0.433   4.894   3.856  0.1332  1.3060  0.4048
 1538WAT     H2 4826   0.569   4.938   3.805 -0.0174  2.2218  0.7621
 1539WAT      O 4827   0.329   1.495   4.058 -0.1954  0.4515 -0.0584
 1539WAT     H1 4828   0.304   1.587   4.061 -0.0811  0.4740  0.3055
 1539WAT     H2 4829   0.266   1.454   3.998 -0.0296  0.8313 -0.5000
 1540WAT      O 4830   0.918   4.340   2.154  0.1654  0.2130  0.0466
 1540WAT     H1 4831   1.009   4.351   2.183  0.2106 -1.1640  0.5072
 1540WAT     H2 4832   0.900   4.418   2.103  1.4151  0.8046  0.4606
 1541WAT      O 4833   3.197   0.116   4.258  0.3230  0.6586 -0.3313
 1541WAT     H1 4834   3.106   0.097   4.280  0.6029 -0.1146  0.2085
 1541WAT     H2 4835   3.213   0.069   4.177  0.6353 -0.4110  0.3204
 1542WAT      O 4836   3.434   4.889   4.871  0.4070  0.5240 -0.4083
 1542WAT     H1 4837   3.420   4.795   4.875 -0.5897  0.6578 -0.4539
 1542WAT     H2 4838   3.529   4.899   4.866  0.4807 -0.5134 -1.5359
 1543WAT      O 4839   0.177   3.493   2.574  0.0634 -0.1183 -0.3299
 1543WAT     H1 4840   0.243   3.529   2.515 -0.6385 -1.3355 -1.9193
 1543WAT     H2 4841   0.094   3.528   2.542 -0.2962 -0.5071  0.1668
 1544WAT      O 4842   2.122   2.341   3.270 -0.4348 -0.2585  0.3092
 1544WAT     H1 4843   2.190   2.278   3.246 -0.2144  0.5912 -1.5211
 1544WAT     H2 4844   2.041   2.298   3.243 -0.3883 -0.2179  0.1035
 1545WAT      O 4845   1.568   0.660   1.548 -0.1674 -0.5095 -0.7753
 1545WAT     H1 4846   1.517   0.587   1.584 -0.7652 -0.9059 -2.3401
 1545WAT     H2 4847   1.575   0.722   1.621 -2.3621 -0.7191 -0.2951
 1546WAT      O 4848   3.222   4.948   3.643  0.4566  0.0517  0.5229
 1546WAT     H1 4849   3.173   4.871   3.673  0.6683 -0.7318 -1.0128
 1546WAT     H2 4850   3.176   5.022   3.681 -1.0194 -0.7399  0.3717
 1547WAT      O 4851   0.607   0.525   3.634  0.2334 -0.1704  0.1238
 1547WAT     H1 4852   0.661   0.503   3.558  2.6275 -0.4930  1.8085
 1547WAT     H2 4853   0.603   0.444   3.685  0.1257  0.4788  1.1836
 1548WAT      O 4854   3.168   2.877   2.702 -0.4268  0.6668 -0.6004
 1548WAT     H1 4855   3.074   2.893   2.716 -0.3924  0.4126 -0.0207
 1548WAT     H2 4856   3.200   2.955   2.657 -1.1429  0.2721 -1.8429
 1549WAT      O 4857   3.128   0.977   2.933  0.7192  0.7862 -0.0762
 1549WAT     H1 4858   3.198   0.942   2.877 -0.7668 -0.4435 -1.2876
 1549WAT     H2 4859   3.086   1.044   2.879 -0.6918 -0.3690 -0.4972
 1550WAT      O 4860   3.396   2.689   3.516  0.3143  0.1024  0.0949
 1550WAT     H1 4861   3.307   2.661   3.494  0.5009 -1.3266  0.9914
 1550WAT     H2 4862   3.428   2.731   3.436 -0.7840 -0.3224 -0.6045
 1551WAT      O 4863   3.399   5.163   0.102  0.1913  0.2730  0.2131
 1551WAT     H1 4864   3.394   5.079   0.146  0.0103  0.6145  0.8635
 1551WAT     H2 4865   3.409   5.142   0.009  0.6364 -0.4607  0.4251
 1552WAT      O 4866   4.387   5.102   1.454 -0.4134  0.1399 -0.2137
 1552WAT     H1 4867   4.453   5.139   1.395 -0.8552 -1.4699 -1.7890
 1552WAT     H2 4868   4.428   5.023   1.490 -1.2794 -0.5864 -0.7963
 1553WAT      O 4869   0.974   2.500   3.425  0.0041 -0.4787  0.3283
 1553WAT     H1 4870   0.949   2.486   3.516 -0.7963  0.4821  0.2768
 1553WAT     H2 4871   0.971   2.413   3.385 -0.7796 -0.7475  0.9438
 1554WAT      O 4872   1.176   4.950   1.141 -0.0500 -0.6862 -0.1721
 1554WAT     H1 4873   1.184   4.934   1.235 -0.5519  0.2183  0.0370
 1554WAT     H2 4874   1.227   5.030   1.126 -1.2055  0.0296 -0.3898
 1555WAT      O 4875   1.161   1.803   2.832  0.2220 -0.2202 -0.2636
 1555WAT     H1 4876   1.183   1.792   2.739  0.1235  0.2291 -0.3393
 1555WAT     H2 4877   1.158   1.713   2.866  0.9580 -0.3565 -0.5325
 1556WAT      O 4878   3.507   1.190   2.438  0.2537 -0.0713  0.2357
 1556WAT     H1 4879   3.524   1.164   2.348 -0.7931  1.2464 -0.3771
 1556WAT     H2 4880   3.561   1.268   2.451  0.3274 -0.1990  0.7223
 1557WAT      O 4881   2.765   1.054   0.314  0.0535  0.0971 -0.0227
 1557WAT     H1 4882   2.708   1.089   0.245 -0.4617 -0.4415  0.1249
 1557WAT     H2 4883   2.853   1.071   0.282 -0.1793  0.1096 -0.6873
 1558WAT      O 4884   0.764   0.076   4.923  0.2672 -0.0450  0.3447
 1558WAT     H1 4885   0.730   0.008   4.865 -0.5909 -0.5649  1.4059
 1558WAT     H2 4886   0.689   0.099   4.979  0.7654  1.2087  0.5304
 1559WAT      O 4887   2.373   0.849   2.525  0.5000  0.3480 -0.2215
 1559WAT     H1 4888   2.378   0.755   2.539 -0.7878  0.4541  1.0791
 1559WAT     H2 4889   2.436   0.886   2.587  1.5934  0.3301 -1.2832
 1560WAT      O 4890   2.541   0.488   5.234  0.0413 -0.8452 -0.0747
 1560WAT     H1 4891   2.617   0.522   5.188  0.3399 -1.9648 -0.4417
 1560WAT     H2 4892   2.490   0.566   5.257  0.5120 -0.1854 -1.1809
 1561WAT      O 4893   2.897   3.037   0.307  0.7210  0.3602 -0.0369
 1561WAT     H1 4894   2.929   2.950   0.331  1.6857  0.3037 -1.4170
 1561WAT     H2 4895   2.912   3.043   0.213 -2.3178  0.8067 -0.6060
 1562WAT      O 4896   2.986   2.281   3.804 -0.6796  0.1747  0.1179
 1562WAT     H1 4897   2.988   2.207   3.744  1.1255  0.4972 -0.2862
 1562WAT     H2 4898   2.955   2.245   3.887 -1.6985 -0.6006 -0.5761
 1563WAT      O 4899   3.369   4.704   2.991  0.1487  0.4886 -0.2396
 1563WAT     H1 4900   3.409   4.750   2.918  0.7868 -0.3055 -0.4129
 1563WAT     H2 4901   3.301   4.763   3.023  0.2223  1.0693 -1.1294
 1564WAT      O 4902   3.946   3.246   0.575 -0.3339  0.6952  0.1932
 1564WAT     H1 4903   3.939   3.153   0.554  2.8350 -0.0910  2.0204
 1564WAT     H2 4904   3.869   3.286   0.534  0.0011 -2.1199 -3.6264
 1565WAT      O 4905   3.350   1.806   3.231  0.3307 -0.0337 -0.0037
 1565WAT     H1 4906   3.378   1.765   3.312 -0.7526  0.6431  0.7578
 1565WAT     H2 4907   3.274   1.755   3.204  0.5419 -0.1064 -0.4591
 1566WAT      O 4908   4.373   3.230   4.907  0.5051  0.1242  0.6441
 1566WAT     H1 4909   4.300   3.278   4.868  1.3338  1.3049  0.4675
 1566WAT     H2 4910   4.336   3.183   4.981 -0.6936 -0.4395 -0.2806
 1567WAT      O 4911   2.007   1.815   4.821 -0.1717 -0.1029  0.1105
 1567WAT     H1 4912   1.914   1.828   4.801 -0.2380 -0.4381  0.1996
 1567WAT     H2 4913   2.021   1.866   4.901 -0.0580  0.7126 -0.4237
 1568WAT      O 4914   3.175   4.100   2.007  0.4680  0.1415  0.2479
 1568WAT     H1 4915   3.264   4.133   1.992  0.1550  0.5228 -0.8064
 1568WAT     H2 4916   3.141   4.155   2.077 -0.0903  2.2049 -1.5477
 1569WAT      O 4917   2.084   2.738   1.990  0.2431  0.5555 -0.4034
 1569WAT     H1 4918   2.085   2.756   2.084 -0.2236  1.2627 -0.5240
 1569WAT     H2 4919   2.063   2.645   1.983 -1.0626  0.7867  0.1710
 1570WAT      O 4920   3.304   1.400   2.399 -0.2539 -0.0032  0.1604
 1570WAT     H1 4921   3.242   1.329   2.418  1.2043 -1.2192  0.5810
 1570WAT     H2 4922   3.343   1.376   2.315 -2.5812  2.4316 -1.7795
 1571WAT      O 4923   3.428   1.575   2.592  0.0620 -0.0012  0.5216
 1571WAT     H1 4924   3.381   1.503   2.548  0.1529  0.1669  0.1431
 1571WAT     H2 4925   3.521   1.557   2.573  0.0119  1.0292 -0.8601
 1572WAT      O 4926   3.199   2.652   3.324 -0.7866 -0.1698 -0.4931
 1572WAT     H1 4927   3.192   2.653   3.228 -0.8630 -0.6305 -0.4925
 1572WAT     H2 4928   3.158   2.569   3.350  1.1669 -1.0829 -0.1958
 1573WAT      O 4929   3.431   4.132   2.480 -0.1564  0.1114  0.3385
 1573WAT     H1 4930   3.469   4.211   2.518  1.4043 -0.4604  0.0648
 1573WAT     H2 4931   3.423   4.071   2.553 -1.5704  0.5700  0.5927
 1574WAT      O 4932   3.513   1.221   1.033 -0.1668  0.1898 -0.3844
 1574WAT     H1 4933   3.464   1.158   1.086 -0.9086 -0.0024 -1.2699
 1574WAT     H2 4934   3.502   1.305   1.079 -1.8165  0.2622 -0.8358
 1575WAT      O 4935   4.220   0.388   4.742  0.0811  0.0134  0.5140
 1575WAT     H1 4936   4.186   0.301   4.720 -1.4572  1.0343 -1.3753
 1575WAT     H2 4937   4.155   0.449   4.708  1.0899  1.9419  1.8570
 1576WAT      O 4938   0.246   4.597   1.601 -0.9555  0.3753 -0.5768
 1576WAT     H1 4939   0.200   4.589   1.517  1.7246 -4.0607 -1.9693
 1576WAT     H2 4940   0.195   4.542   1.660 -0.6074  0.1147 -0.5145
 1577WAT      O 4941   1.238   2.676   5.306  0.9184 -0.1417  0.1983
 1577WAT     H1 4942   1.192   2.676   5.222  1.6888 -0.0514 -0.2282
 1577WAT     H2 4943   1.193   2.608   5.357 -0.6013  0.8974  0.3227
 1578WAT      O 4944   2.068   3.030   2.816  0.0781 -0.1281 -0.4232
 1578WAT     H1 4945   2.113   3.038   2.732  0.5478  1.2532 -0.0694
 1578WAT     H2 4946   1.975   3.022   2.793  0.3635 -2.0595 -1.1231
 1579WAT      O 4947   4.556   2.146   0.948  0.3447 -0.5327  0.2465
 1579WAT     H1 4948   4.472   2.157   0.903  0.6320 -1.7493 -0.6229
 1579WAT     H2 4949   4.533   2.141   1.041 -0.4354  0.1925  0.0973
 1580WAT      O 4950   4.463   5.150   2.411  0.1984  0.6964  0.0480
 1580WAT     H1 4951   4.466   5.062   2.449 -0.1474  1.3638  1.7094
 1580WAT     H2 4952   4.419   5.138   2.326 -0.2523 -0.6568  0.4490
 1581WAT      O 4953   4.266   1.210   3.997  0.2606 -0.0831 -0.1176
 1581WAT     H1 4954   4.210   1.170   3.931  0.7306 -1.2264  0.1476
 1581WAT     H2 4955   4.253   1.156   4.075 -0.1480  1.1306  0.6839
 1582WAT      O 4956   0.791   0.560   1.351 -0.0326 -0.3362  0.7787
 1582WAT     H1 4957   0.810   0.613   1.429  0.1377  0.5725  0.1332
 1582WAT     H2 4958   0.875   0.553   1.306 -0.7636  2.4214 -1.2972
 1583WAT      O 4959   1.189   1.398   1.002 -0.0885 -0.1383 -0.2199
 1583WAT     H1 4960   1.278   1.372   1.023 -0.2050  0.6904  1.4916
 1583WAT     H2 4961   1.196   1.489   0.973 -0.3823  0.0604  0.2908
 1584WAT      O 4962   0.999   3.541   3.639 -0.0355 -0.4090  0.2468
 1584WAT     H1 4963   0.946   3.507   3.566 -0.0340 -2.8150  1.2768
 1584WAT     H2 4964   1.089   3.531   3.609 -0.0608  0.5280 -0.1840
 1585WAT      O 4965   0.374   0.726   1.220  0.1568 -0.7753 -0.3386
 1585WAT     H1 4966   0.396   0.800   1.163  2.9339 -1.1965  0.0671
 1585WAT     H2 4967   0.310   0.675   1.169 -0.3739  0.8899 -1.4047
 1586WAT      O 4968   0.825   3.516   0.732  0.1923 -0.3072  0.2181
 1586WAT     H1 4969   0.876   3.552   0.660  0.5478  0.0835  0.6629
 1586WAT     H2 4970   0.870   3.546   0.811  1.6242 -3.2604  0.6473
 1587WAT      O 4971   2.191   0.383   0.376  0.4078  0.5063 -0.1898
 1587WAT     H1 4972   2.121   0.362   0.438  1.0614  0.0143  0.3857
 1587WAT     H2 4973   2.165   0.338   0.295 -0.8257  1.7492 -0.5339
 1588WAT      O 4974   1.215   3.870   4.985 -0.5707  0.1118  0.0973
 1588WAT     H1 4975   1.194   3.899   4.896 -1.8627 -1.3959 -0.1330
 1588WAT     H2 4976   1.295   3.919   5.008 -0.6658  1.1220 -1.5662
 1589WAT      O 4977   1.284   3.834   2.215  0.0613  0.1936 -0.0396
 1589WAT     H1 4978   1.325   3.868   2.294 -0.9995 -0.4377  0.8052
 1589WAT     H2 4979   1.277   3.740   2.230  0.2952 -0.0132 -1.1107
 1590WAT      O 4980   3.781   0.580   0.236  0.0040  0.6095  0.4046
 1590WAT     H1 4981   3.792   0.605   0.144 -0.5627 -0.8327 -0.0916
 1590WAT     H2 4982   3.722   0.505   0.233  0.9626 -0.2548  1.8369
 1591WAT      O 4983   4.082   2.476   3.343 -0.3174 -0.1140  0.1647
 1591WAT     H1 4984   4.053   2.540   3.278 -1.7037  0.3057  1.1511
 1591WAT     H2 4985   4.170   2.451   3.314 -0.1092  1.5333 -0.7672
 1592WAT      O 4986   2.168   3.932   1.896 -0.0017 -0.3478  0.0298
 1592WAT     H1 4987   2.223   4.004   1.866  0.8415  0.1141  2.4196
 1592WAT     H2 4988   2.176   3.865   1.828  1.5072  0.6992 -0.8771
 1593WAT      O 4989   3.113   4.886   4.082  0.0771  0.1059  0.4384
 1593WAT     H1 4990   3.086   4.874   4.173 -0.2824 -1.2203  0.1773
 1593WAT     H2 4991   3.130   4.798   4.050  1.8963  0.6810 -0.2987
 1594WAT      O 4992   4.377   4.840   3.658  0.2076  0.3352 -0.1668
 1594WAT     H1 4993   4.427   4.919   3.677  0.0513  0.2506  0.6478
 1594WAT     H2 4994   4.429   4.793   3.594  0.2677  1.1292 -0.7199
 1595WAT      O 4995   1.782   3.232   4.279  0.4982 -0.3877 -0.0606
 1595WAT     H1 4996   1.828   3.174   4.340  0.1142 -0.8789 -0.2320
 1595WAT     H2 4997   1.699   3.250   4.321 -0.3387 -1.8282 -1.0325
 1596WAT      O 4998   0.482   4.540   0.138  0.2198 -0.7219  0.2042
 1596WAT     H1 4999   0.446   4.464   0.092  0.2471 -0.9052  0.4832
 1596WAT     H2 5000   0.493   4.510   0.229 -1.7928  0.2684  0.8297
 1597WAT      O 5001   3.497   3.360   0.748  0.1007 -0.4507  0.1831
 1597WAT     H1 5002   3.588   3.389   0.738  0.1887 -0.5571  0.6514
 1597WAT     H2 5003   3.453   3.391   0.669  0.7609 -1.2104 -0.5053
 1598WAT      O 5004   2.417   2.001   0.986  0.5333  0.6257 -0.2425
 1598WAT     H1 5005   2.390   1.913   1.009  0.3281  0.8673  0.4659
 1598WAT     H2 5006   2.335   2.048   0.969  0.0412  2.1345  4.5984
 1599WAT      O 5007   1.615   5.022   3.741  0.5702  0.0255 -0.5793
 1599WAT     H1 5008   1.568   4.942   3.719 -0.2816  0.3796 -0.0913
 1599WAT     H2 5009   1.707   5.000   3.730  0.4564 -1.5620  1.1974
 1600WAT      O 5010   0.243   0.087   3.292  0.1886 -0.0848 -0.2016
 1600WAT     H1 5011   0.333   0.055   3.295  0.5347  0.8852  0.0795
 1600WAT     H2 5012   0.227   0.121   3.380  0.2653  1.6030 -0.8068
 1601WAT      O 5013   1.722   1.900   4.804  0.5782  0.0721  0.0154
 1601WAT     H1 5014   1.674   1.892   4.886  1.5048 -0.2767  0.5462
 1601WAT     H2 5015   1.678   1.841   4.743  0.5832 -0.5538  0.6098
 1602WAT      O 5016   4.016   2.571   2.558  0.6156 -0.4452  0.1048
 1602WAT     H1 5017   4.000   2.503   2.493 -0.3441  0.5214 -0.7008
 1602WAT     H2 5018   3.978   2.650   2.520  0.4490  0.2429  1.6350
 1603WAT      O 5019   2.378   2.165   0.432  0.4054 -0.4631  0.4238
 1603WAT     H1 5020   2.304   2.191   0.377  0.0154 -1.6365  0.3834
 1603WAT     H2 5021   2.354   2.079   0.466  0.7902  0.0920  2.1806
 1604WAT      O 5022   2.986   0.537   1.155  0.2947 -0.0747 -0.2456
 1604WAT     H1 5023   3.048   0.486   1.102 -0.5211 -0.8065 -0.5205
 1604WAT     H2 5024   2.916   0.561   1.094  0.3915  0.9167  0.0148
 1605WAT      O 5025   0.708   3.257   3.006  0.7084  0.1342 -0.4572
 1605WAT     H1 5026   0.741   3.206   3.079 -0.5059 -0.3236 -0.1994
 1605WAT     H2 5027   0.770   3.242   2.935  0.9862 -0.7727 -0.0239
 1606WAT      O 5028   0.043   2.212   0.510 -0.2417  0.6133 -0.5464
 1606WAT     H1 5029   0.064   2.230   0.419  0.1869  0.8792 -0.4023
 1606WAT     H2 5030   0.127   2.220   0.556 -0.2088 -0.7699 -0.3127
 1607WAT      O 5031   1.593   1.553   0.566 -0.1318  0.3088  0.7997
 1607WAT     H1 5032   1.544   1.489   0.515 -0.1049  1.1230 -0.2694
 1607WAT     H2 5033   1.565   1.638   0.532  2.5459  0.8250 -0.4228
 1608WAT      O 5034   1.579   3.768   4.803 -0.5892 -0.0762  0.6642
 1608WAT     H1 5035   1.499   3.817   4.785  0.6392  1.3947 -1.1980
 1608WAT     H2 5036   1.648   3.818   4.759  1.3535 -1.3696  2.0679
 1609WAT      O 5037   2.992   1.671   5.302 -0.0566 -0.2471 -0.5531
 1609WAT     H1 5038   3.064   1.722   5.339 -0.0462 -0.7305  0.1065
 1609WAT     H2 5039   2.986   1.701   5.211  0.1392  0.7162 -0.2656
 1610WAT      O 5040   1.737   4.784   2.493 -0.2772  0.0367  0.1649
 1610WAT     H1 5041   1.775   4.750   2.574  0.3598  0.2766 -0.0272
 1610WAT     H2 5042   1.695   4.866   2.518 -0.7929 -0.2926  0.4026
 1611WAT      O 5043   3.519   2.556   5.208  0.1117  0.0230 -0.3107
 1611WAT     H1 5044   3.549   2.646   5.200 -0.4502  0.4844  2.1895
 1611WAT     H2 5045   3.469   2.554   5.289  2.1832 -3.1237  1.0534
 1612WAT      O 5046   1.982   0.542   0.177  0.0791  0.2189 -0.5578
 1612WAT     H1 5047   2.068   0.533   0.137 -0.2524  2.1505 -1.8645
 1612WAT     H2 5048   1.921   0.503   0.114  0.0153 -2.1109  0.8372
 1613WAT      O 5049   3.627   2.154   4.451  0.1006 -0.2064  0.6393
 1613WAT     H1 5050   3.579   2.234   4.427  0.9922 -0.0946 -0.9563
 1613WAT     H2 5051   3.693   2.184   4.513  0.1490  0.2366  0.3841
 1614WAT      O 5052   3.372   5.019   3.410 -0.0719  0.5313  0.2396
 1614WAT     H1 5053   3.400   4.933   3.379 -0.0700  0.9172 -0.8422
 1614WAT     H2 5054   3.329   5.000   3.494  0.1368 -0.4910  0.1364
 1615WAT      O 5055   3.998   3.334   5.243  0.1639 -0.5925 -0.5254
 1615WAT     H1 5056   3.955   3.291   5.317  0.0196 -0.7537 -0.7027
 1615WAT     H2 5057   3.929   3.343   5.177 -0.0080  0.5960 -0.2125
 1616WAT      O 5058   2.569   0.561   1.480  0.5186 -0.3932  0.6724
 1616WAT     H1 5059   2.499   0.500   1.455 -0.2635 -0.1493  2.1514
 1616WAT     H2 5060   2.645   0.532   1.429 -0.7638 -0.3370 -1.3878
 1617WAT      O 5061   2.772   0.481   1.334  0.4283 -0.5378  0.1936
 1617WAT     H1 5062   2.802   0.391   1.342  0.1708 -0.7197 -0.8205
 1617WAT     H2 5063   2.847   0.528   1.298  1.0443 -0.0391  1.9922
 1618WAT      O 5064   3.117   4.068   1.646 -0.4144 -0.0817 -0.5508
 1618WAT     H1 5065   3.148   4.106   1.728  0.4663 -0.7708 -0.5530
 1618WAT     H2 5066   3.065   4.137   1.605 -1.0053  0.2218  0.6598
 1619WAT      O 5067   3.439   2.931   2.539  0.0070 -0.4278  0.1580
 1619WAT     H1 5068   3.409   2.841   2.548  0.9077 -0.6757  0.9183
 1619WAT     H2 5069   3.365   2.984   2.567  0.4409 -1.0266  2.6557
 1620WAT      O 5070   3.949   2.408   4.573 -0.2885 -0.1857 -0.3295
 1620WAT     H1 5071   4.004   2.450   4.507 -2.0878 -0.9625 -2.4137
 1620WAT     H2 5072   4.011   2.356   4.625  1.3983  1.7257 -0.2925
 1621WAT      O 5073   3.285   2.540   0.139  0.3153 -0.1308 -0.2789
 1621WAT     H1 5074   3.203   2.532   0.187  0.0816 -1.6339 -0.8801
 1621WAT     H2 5075   3.270   2.492   0.058  1.6460 -0.0466 -0.5964
 1622WAT      O 5076   0.669   3.140   1.206 -0.3764 -0.3473  0.1073
 1622WAT     H1 5077   0.626   3.181   1.281 -2.0872 -3.9633  1.3094
 1622WAT     H2 5078   0.598   3.116   1.147  0.8298  1.0707 -2.0911
 1623WAT      O 5079   0.690   3.031   1.910  0.0418  0.6629  0.2245
 1623WAT     H1 5080   0.608   2.994   1.877  0.3923  0.3442 -0.2940
 1623WAT     H2 5081   0.667   3.121   1.934 -0.1850  0.9558 -1.0270
 1624WAT      O 5082   4.212   4.561   0.511  0.1901 -0.2820 -0.0667
 1624WAT     H1 5083   4.192   4.484   0.563  0.1990  0.9604  1.8927
 1624WAT     H2 5084   4.275   4.530   0.445 -0.5872 -2.1240  0.0062
 1625WAT      O 5085   1.614   1.003   2.471 -0.3964  0.7452 -0.0413
 1625WAT     H1 5086   1.582   0.937   2.532  0.4132 -0.7190 -1.1287
 1625WAT     H2 5087   1.652   1.072   2.526  1.3181 -1.0521  1.1349
 1626WAT      O 5088   1.649   4.175   3.038  0.1225 -0.7815  0.7125
 1626WAT     H1 5089   1.565   4.129   3.038 -0.7813  0.8077  0.3999
 1626WAT     H2 5090   1.704   4.126   2.977 -0.7305 -1.5648  0.5597
 1627WAT      O 5091   1.045   5.050   5.202  0.2026 -0.3587 -0.6593
 1627WAT     H1 5092   1.015   5.001   5.125  1.7311  1.4242 -2.5248
 1627WAT     H2 5093   1.009   5.002   5.277 -1.1608 -2.3305 -2.4525
 1628WAT      O 5094   2.871   4.726   3.448 -0.0244  0.3509 -0.2928
 1628WAT     H1 5095   2.886   4.702   3.539 -0.5397 -0.9220 -0.5167
 1628WAT     H2 5096   2.789   4.775   3.449  1.5424  3.1245  0.3058
 1629WAT      O 5097   1.546   3.176   2.863  0.1306  0.1995  0.0538
 1629WAT     H1 5098   1.452   3.186   2.881  0.3015  1.0284  0.5491
 1629WAT     H2 5099   1.571   3.096   2.910 -0.3582 -0.1179 -0.2180
 1630WAT      O 5100   1.844   3.829   5.252 -0.3478  0.0717 -0.4074
 1630WAT     H1 5101   1.797   3.866   5.177 -0.8673 -0.7911 -0.5250
 1630WAT     H2 5102   1.808   3.875   5.328 -2.1909 -1.2758 -0.3890
 1631WAT      O 5103   3.704   1.355   0.826 -0.4381  0.2323 -0.7804
 1631WAT     H1 5104   3.674   1.304   0.901  0.5697  0.4192 -0.2162
 1631WAT     H2 5105   3.697   1.446   0.855  3.2037  0.2685  0.5143
 1632WAT      O 5106   2.718   4.952   2.798 -0.5646 -0.2552 -0.5266
 1632WAT     H1 5107   2.671   5.025   2.839  0.9638  1.3803 -1.5323
 1632WAT     H2 5108   2.801   4.946   2.845 -0.1925 -0.5743 -1.2069
 1633WAT      O 5109   1.272   5.029   1.880  0.2734 -0.1276  0.1354
 1633WAT     H1 5110   1.281   5.108   1.933  0.5892 -1.1400  1.6473
 1633WAT     H2 5111   1.198   5.047   1.823 -0.9484  0.5167  1.8535
 1634WAT      O 5112   2.959   0.734   1.714 -0.0261  0.0858 -0.0438
 1634WAT     H1 5113   2.997   0.670   1.654 -0.7885  0.8404 -1.3776
 1634WAT     H2 5114   2.890   0.686   1.759  0.2243 -0.3627 -0.1335
 1635WAT      O 5115   3.745   4.486   3.725  0.2521  0.5379  0.4191
 1635WAT     H1 5116   3.796   4.451   3.798  0.9760 -0.8271 -0.6955
 1635WAT     H2 5117   3.696   4.412   3.692 -0.9835  1.4094  0.2319
 1636WAT      O 5118   2.706   4.511   2.243 -0.0712 -0.1031  0.0508
 1636WAT     H1 5119   2.736   4.478   2.328 -0.7557  0.9954  0.7429
 1636WAT     H2 5120   2.786   4.542   2.200  0.1231  0.6317  0.8942
 1637WAT      O 5121   3.779   1.639   0.771 -0.3963 -0.1622  0.1882
 1637WAT     H1 5122   3.871   1.653   0.748 -0.4282  0.6278  0.4993
 1637WAT     H2 5123   3.734   1.638   0.686 -0.2962  1.0462  0.1027
 1638WAT      O 5124   2.577   0.904   3.638  0.0842 -0.3069  0.7111
 1638WAT     H1 5125   2.604   0.914   3.547 -1.2286 -0.1223  0.3219
 1638WAT     H2 5126   2.659   0.907   3.688  0.8038 -0.2390 -0.4394
 1639WAT      O 5127   0.847   1.595   2.718 -0.6408 -0.3465 -0.4654
 1639WAT     H1 5128   0.827   1.689   2.721  1.2625  0.0752 -0.0912
 1639WAT     H2 5129   0.915   1.587   2.651 -0.1929 -1.3560  0.0929
 1640WAT      O 5130   4.505   0.985   1.228  0.0807  0.0868  0.2070
 1640WAT     H1 5131   4.511   1.076   1.257  1.3514  0.0680  0.0334
 1640WAT     H2 5132   4.539   0.986   1.138 -1.8878 -0.2131 -0.6007
 1641WAT      O 5133   3.754   4.076   4.246 -0.6958 -0.2924  0.1501
 1641WAT     H1 5134   3.765   3.983   4.266  0.4917 -0.1896  0.0904
 1641WAT     H2 5135   3.789   4.121   4.322  1.9671  0.0905 -1.1707
 1642WAT      O 5136   0.121   3.131   4.581 -0.1981  0.0515  0.0712
 1642WAT     H1 5137   0.119   3.227   4.581 -1.2705  0.0588  1.2260
 1642WAT     H2 5138   0.206   3.109   4.619 -0.7590  0.6110  1.7783
 1643WAT      O 5139   3.729   3.701   5.089  0.6709 -0.0856 -0.2434
 1643WAT     H1 5140   3.824   3.706   5.082  0.8131 -0.9794  0.8043
 1643WAT     H2 5141   3.703   3.785   5.127  1.3566 -0.8618  2.1016
 1644WAT      O 5142   2.370   4.438   1.536 -0.2631  0.1333 -0.4140
 1644WAT     H1 5143   2.363   4.467   1.445 -0.9460  1.5025  0.0429
 1644WAT     H2 5144   2.409   4.513   1.582 -1.7717  0.2415  0.7614
 1645WAT      O 5145   1.652   4.240   3.717  0.4635 -0.4994 -0.3691
 1645WAT     H1 5146   1.626   4.189   3.640  0.4328  0.5065 -1.0453
 1645WAT     H2 5147   1.625   4.187   3.791 -1.0508 -0.7383 -1.0461
 1646WAT      O 5148   1.629   3.697   5.078  0.2174  0.1898 -0.1097
 1646WAT     H1 5149   1.698   3.631   5.072  0.3630  0.2139  1.0581
 1646WAT     H2 5150   1.581   3.690   4.996  1.6038  0.1622 -0.9519
 1647WAT      O 5151   1.677   2.704   4.308  0.5412  0.4242 -0.1873
 1647WAT     H1 5152   1.611   2.675   4.245  2.0162 -0.0771 -1.5589
 1647WAT     H2 5153   1.706   2.624   4.352  2.9636 -0.0100 -2.3559
 1648WAT      O 5154   1.708   0.248   2.090 -0.7715 -0.2835 -0.3166
 1648WAT     H1 5155   1.636   0.245   2.153 -0.0933  0.6457  0.5280
 1648WAT     H2 5156   1.722   0.157   2.065 -1.8708 -0.5301 -0.0689
 1649WAT      O 5157   0.343   4.984   4.779  0.4017 -0.1544 -0.0621
 1649WAT     H1 5158   0.301   4.905   4.811  0.7682 -0.1122  0.5297
 1649WAT     H2 5159   0.334   5.047   4.850  0.3665  0.2486 -0.4178
 1650WAT      O 5160   2.841   4.012   4.788  0.2727 -0.1469 -0.0593
 1650WAT     H1 5161   2.748   4.030   4.795 -0.0855 -1.5398 -0.9800
 1650WAT     H2 5162   2.867   4.050   4.704 -0.0336 -1.9097 -0.9966
 1651WAT      O 5163   2.272   0.007   5.250 -0.0051 -0.2790  0.0629
 1651WAT     H1 5164   2.179  -0.011   5.245 -0.4620  1.9471 -0.9406
 1651WAT     H2 5165   2.282   0.063   5.327  0.4079 -0.1090 -0.1058
 1652WAT      O 5166   0.491   3.513   4.350 -0.0354 -0.1966  0.3617
 1652WAT     H1 5167   0.576   3.515   4.307 -0.4062 -2.9684 -0.6886
 1652WAT     H2 5168   0.510   3.494   4.442  0.4906 -0.6782  0.1554
 1653WAT      O 5169   4.076   2.247   0.387 -0.0730 -0.0859 -1.1929
 1653WAT     H1 5170   4.134   2.316   0.420  0.8759 -0.2736 -2.3972
 1653WAT     H2 5171   3.992   2.290   0.373 -0.2051  0.2296  0.4355
 1654WAT      O 5172   3.723   5.117   4.118 -0.1448 -0.1244  0.6559
 1654WAT     H1 5173   3.689   5.193   4.072  0.6071  1.0344  1.9297
 1654WAT     H2 5174   3.789   5.081   4.059  0.0969  0.7322  0.3815
 1655WAT      O 5175   0.489   2.121   5.191 -0.0876  0.4031  0.7539
 1655WAT     H1 5176   0.553   2.137   5.121 -1.8580  0.2926 -0.9625
 1655WAT     H2 5177   0.499   2.028   5.211 -0.7931  0.0124 -0.6449
 1656WAT      O 5178   2.054   3.395   3.752  0.4254  0.0752 -0.1198
 1656WAT     H1 5179   2.075   3.327   3.816  0.1227  0.4136  0.3440
 1656WAT     H2 5180   2.036   3.472   3.805  2.1691  0.9254 -0.6805
 1657WAT      O 5181   0.515   1.929   4.834 -0.5976 -0.2628 -0.0967
 1657WAT     H1 5182   0.430   1.963   4.809 -1.0892 -0.2691  1.4720
 1657WAT     H2 5183   0.546   1.988   4.903  0.9583  0.1020 -1.0473
 1658WAT      O 5184   0.384   2.094   3.190 -0.0236  0.3254  0.0401
 1658WAT     H1 5185   0.435   2.019   3.162 -0.3549 -0.4289  1.3898
 1658WAT     H2 5186   0.313   2.057   3.243  0.8811  1.6694  2.3285
 1659WAT      O 5187   2.034   2.471   1.909 -0.3705 -0.7557 -0.1621
 1659WAT     H1 5188   2.117   2.454   1.865 -0.1275  1.3746 -0.6414
 1659WAT     H2 5189   1.971   2.482   1.838  0.2517  3.9136 -0.3345
 1660WAT      O 5190   1.082   4.329   2.434  0.5181  0.0473 -0.0451
 1660WAT     H1 5191   1.082   4.371   2.348  0.4105 -1.3495 -0.7519
 1660WAT     H2 5192   1.098   4.236   2.416 -0.4454 -0.4334  1.3488
 1661WAT      O 5193   3.522   1.249   4.880 -0.0123 -0.4217  0.0199
 1661WAT     H1 5194   3.534   1.328   4.932  0.2741 -0.0521 -0.5916
 1661WAT     H2 5195   3.610   1.225   4.852 -0.1235 -0.8289  0.0147
 1662WAT      O 5196   2.421   5.084   2.243  0.3518 -0.2196 -0.1281
 1662WAT     H1 5197   2.341   5.044   2.212 -0.9839  2.3026 -0.1806
 1662WAT     H2 5198   2.458   5.128   2.166 -0.5248  2.1693  0.7296
 1663WAT      O 5199   2.698   4.683   0.361 -0.6510 -0.3668 -0.1510
 1663WAT     H1 5200   2.790   4.708   0.357 -1.0135  1.1697  0.3097
 1663WAT     H2 5201   2.665   4.698   0.272 -1.3293  2.9962  0.5186
 1664WAT      O 5202   1.329   4.573   3.109 -0.5641  0.2127 -0.3897
 1664WAT     H1 5203   1.387   4.632   3.159  2.4886 -0.7586 -2.4761
 1664WAT     H2 5204   1.356   4.585   3.018 -2.8274 -1.3362 -1.3448
 1665WAT      O 5205   2.737   3.914   1.600 -0.1122 -0.3594 -0.0314
 1665WAT     H1 5206   2.713   3.965   1.524  1.2764 -1.5859 -1.3625
 1665WAT     H2 5207   2.769   3.979   1.664  0.1698  0.5619 -1.0810
 1666WAT      O 5208   1.524   2.750   2.977 -0.1961  0.8261 -0.7893
 1666WAT     H1 5209   1.478   2.830   2.999 -2.4802 -0.2928 -1.2069
 1666WAT     H2 5210   1.476   2.681   3.024  0.2912 -0.5539 -2.2209
 1667WAT      O 5211   0.194   4.351   1.316  0.0270  0.1092 -0.2645
 1667WAT     H1 5212   0.109   4.380   1.349 -0.6397 -0.6342 -1.2535
 1667WAT     H2 5213   0.242   4.431   1.299 -0.9455  0.5893 -0.8544
 1668WAT      O 5214   4.480   3.268   2.427 -0.2377  0.0493 -0.0603
 1668WAT     H1 5215   4.430   3.342   2.460 -0.0159  0.7035 -1.1374
 1668WAT     H2 5216   4.520   3.229   2.505 -0.2494  1.1378  0.5032
 1669WAT      O 5217   1.781   1.885   3.112  0.1542 -0.0737  0.5230
 1669WAT     H1 5218   1.808   1.951   3.049  2.3692  0.4067  1.8671
 1669WAT     H2 5219   1.730   1.933   3.177  1.8449  0.4151  1.5514
 1670WAT      O 5220   1.825   0.132   4.003  0.0506  0.1223  0.1843
 1670WAT     H1 5221   1.879   0.053   4.005 -1.7272 -1.1726 -0.1234
 1670WAT     H2 5222   1.874   0.193   3.949  2.2308 -0.1418  1.6963
 1671WAT      O 5223   0.645   3.631   3.501 -0.4320  0.2311  0.0892
 1671WAT     H1 5224   0.561   3.648   3.460 -0.4198 -0.8806 -0.4195
 1671WAT     H2 5225   0.658   3.705   3.561 -1.4545  0.7428 -0.3067
 1672WAT      O 5226   1.651   2.457   4.445  0.0186 -0.5534 -0.0853
 1672WAT     H1 5227   1.555   2.467   4.450  0.0005 -0.2735 -0.8710
 1672WAT     H2 5228   1.680   2.472   4.535 -0.7417 -1.4245  0.3206
 1673WAT      O 5229   3.434   1.880   1.920  0.1501 -0.1825  0.1691
 1673WAT     H1 5230   3.424   1.943   1.991  2.0000  0.2685  0.0757
 1673WAT     H2 5231   3.527   1.884   1.896  0.1017 -2.1416 -0.5955
 1674WAT      O 5232   3.572   1.998   2.763 -0.2628 -0.1857 -0.2696
 1674WAT     H1 5233   3.526   1.935   2.818  2.9005 -2.1054  0.4151
 1674WAT     H2 5234   3.549   2.083   2.801  0.9900 -1.3446  3.5674
 1675WAT      O 5235   2.603   0.217   0.544 -0.3808  0.0033 -0.2402
 1675WAT     H1 5236   2.546   0.282   0.503 -1.2787 -1.1611 -0.9273
 1675WAT     H2 5237   2.600   0.142   0.485  0.5600 -0.6971  0.5601
 1676WAT      O 5238   0.520   0.490   0.143 -0.5392 -0.0746 -0.4193
 1676WAT     H1 5239   0.591   0.552   0.127  0.1145 -0.3952  1.0036
 1676WAT     H2 5240   0.440   0.544   0.144 -0.3769  0.2430 -2.3136
 1677WAT      O 5241   4.199   3.251   2.905 -0.4501 -0.0475  0.8851
 1677WAT     H1 5242   4.201   3.216   2.994 -0.8952 -0.8169  0.6089
 1677WAT     H2 5243   4.156   3.182   2.854  1.8700 -0.6521 -0.3720
 1678WAT      O 5244   3.617   0.837   4.657  0.0659  0.0446 -0.2389
 1678WAT     H1 5245   3.578   0.754   4.631  1.5746 -0.7001 -0.1922
 1678WAT     H2 5246   3.651   0.874   4.575 -1.9715  1.4436 -0.5650
 1679WAT      O 5247   3.894   0.677   3.566 -0.0680  0.3252  0.6256
 1679WAT     H1 5248   3.883   0.717   3.480 -1.2545  0.6643  0.9177
 1679WAT     H2 5249   3.967   0.616   3.555 -0.5209  0.0072 -0.7340
 1680WAT      O 5250   3.982   2.850   2.406  0.2122 -0.0866 -0.0025
 1680WAT     H1 5251   3.929   2.826   2.330 -1.2015  1.7739  0.3284
 1680WAT     H2 5252   4.038   2.921   2.375  1.2887 -0.8602  0.1207
 1681WAT      O 5253   2.267   4.759   0.508  0.0966 -0.2279 -0.2828
 1681WAT     H1 5254   2.227   4.737   0.593  1.5554 -0.5664  0.3452
 1681WAT     H2 5255   2.361   4.754   0.524  0.5126  3.3771 -0.9469
 1682WAT      O 5256   3.131   1.423   0.830 -0.1134  0.4289 -0.2957
 1682WAT     H1 5257   3.169   1.483   0.766  0.2546 -1.2448 -1.6857
 1682WAT     H2 5258   3.195   1.419   0.900  1.4317 -0.8563 -1.7178
 1683WAT      O 5259   1.937   2.804   4.279 -0.3351 -0.0463  0.1915
 1683WAT     H1 5260   1.994   2.728   4.274 -1.3055 -0.7444 -0.7343
 1683WAT     H2 5261   1.848   2.768   4.278 -0.8082  1.0481  0.7225
 1684WAT      O 5262   2.862   0.038   2.895 -0.1313  0.4754 -0.6135
 1684WAT     H1 5263   2.768   0.042   2.911  0.0165  1.9137  0.0480
 1684WAT     H2 5264   2.902   0.071   2.975  0.8324  2.2968 -1.7665
 1685WAT      O 5265   0.160   2.583   1.217 -0.2668  0.4838  0.3509
 1685WAT     H1 5266   0.214   2.594   1.138 -0.5779  0.9112  0.1908
 1685WAT     H2 5267   0.135   2.672   1.241  1.1662  0.5061  1.8920
 1686WAT      O 5268   2.312   0.035   3.437  0.4826 -0.2794  0.0797
 1686WAT     H1 5269   2.237  -0.015   3.471  0.2849 -0.6734 -0.9147
 1686WAT     H2 5270   2.284   0.126   3.441  0.1328 -0.3877  0.1421
 1687WAT      O 5271   2.157   2.718   0.401  0.3148 -0.1918  0.0809
 1687WAT     H1 5272   2.194   2.639   0.361  1.2609 -0.2489  1.0090
 1687WAT     H2 5273   2.073   2.731   0.357  0.3076 -1.5129 -0.3342
 1688WAT      O 5274   0.231   1.084   2.602  0.4264 -0.3565  0.3205
 1688WAT     H1 5275   0.298   1.147   2.578  0.3274 -0.7837 -1.1799
 1688WAT     H2 5276   0.150   1.118   2.563  0.1536 -0.8255  0.4639
 1689WAT      O 5277   1.362   3.904   1.945  0.1018  0.5871 -0.0468
 1689WAT     H1 5278   1.335   3.912   2.037 -0.5146  2.1089 -0.3436
 1689WAT     H2 5279   1.447   3.859   1.950 -1.2540 -2.0677  1.0451
 1690WAT      O 5280   3.546   2.936   2.286  0.1575  0.5663  0.2864
 1690WAT     H1 5281   3.522   3.028   2.272 -0.6520  0.3583  0.2483
 1690WAT     H2 5282   3.531   2.922   2.380 -0.5266  0.2508  0.1339
 1691WAT      O 5283   0.641   3.705   2.033  0.0830  0.3298 -0.4410
 1691WAT     H1 5284   0.673   3.761   2.104 -1.4295  0.1179  0.4603
 1691WAT     H2 5285   0.720   3.670   1.992  1.0099  1.3595  0.4112
 1692WAT      O 5286   2.155   4.612   0.292  0.4501 -0.3041 -0.0675
 1692WAT     H1 5287   2.223   4.597   0.227  1.1953 -0.1869  0.6633
 1692WAT     H2 5288   2.197   4.667   0.358  0.0036 -1.1415  0.9497
 1693WAT      O 5289   1.256   1.511   0.471  0.0190  0.5372  0.7951
 1693WAT     H1 5290   1.296   1.597   0.460 -0.0810  0.3116 -2.1594
 1693WAT     H2 5291   1.165   1.529   0.495  0.3122  1.1990  1.4272
 1694WAT      O 5292   0.598   2.145   1.345 -0.3208 -0.1930 -0.5417
 1694WAT     H1 5293   0.641   2.155   1.429 -0.1431  0.0193 -0.6564
 1694WAT     H2 5294   0.593   2.234   1.310 -2.4607  0.0613  0.2499
 1695WAT      O 5295   4.501   1.889   1.730  0.5183  0.5795 -0.1190
 1695WAT     H1 5296   4.509   1.831   1.654  0.7713  1.0642 -0.4757
 1695WAT     H2 5297   4.411   1.877   1.760  0.6219 -0.1158 -0.0831
 1696WAT      O 5298   1.317   4.373   1.455  0.3769  0.0022  0.1926
 1696WAT     H1 5299   1.321   4.381   1.360  0.1378  0.1087  0.1918
 1696WAT     H2 5300   1.271   4.291   1.470  0.8384 -0.2587  0.2157
 1697WAT      O 5301   1.595   2.585   2.549 -0.3062 -0.0715  0.1879
 1697WAT     H1 5302   1.662   2.576   2.616  0.6382 -0.3083 -0.7564
 1697WAT     H2 5303   1.638   2.633   2.478 -0.6972 -1.4098 -1.0099
 1698WAT      O 5304   3.998   3.727   2.846  0.1022  0.4383 -0.0066
 1698WAT     H1 5305   4.020   3.758   2.758  1.1872  1.2698  0.5221
 1698WAT     H2 5306   4.042   3.789   2.904 -3.0258  1.7538  1.1946
 1699WAT      O 5307   3.617   1.879   3.101  0.2959 -0.1040  0.4193
 1699WAT     H1 5308   3.588   1.803   3.052  1.9286 -0.4752 -0.0467
 1699WAT     H2 5309   3.574   1.871   3.187 -1.8328  0.0436 -0.5676
 1700WAT      O 5310   1.686   1.131   2.207  0.5017  0.1571 -0.5716
 1700WAT     H1 5311   1.667   1.077   2.284  1.1966 -0.3860 -0.7755
 1700WAT     H2 5312   1.777   1.156   2.217  0.9345 -0.8449 -1.7742
 1701WAT      O 5313   1.992   3.079   1.969  0.4478 -0.3905  0.3728
 1701WAT     H1 5314   1.922   3.099   2.032 -1.1771  0.1046 -1.4785
 1701WAT     H2 5315   1.982   2.985   1.952  0.5776 -0.4252  0.4847
 1702WAT      O 5316   0.480   4.496   3.637  0.1444  0.1312 -0.7326
 1702WAT     H1 5317   0.488   4.404   3.664  0.5236 -0.8742 -3.8516
 1702WAT     H2 5318   0.570   4.529   3.636  0.2280 -0.1156 -1.5993
 1703WAT      O 5319   2.226   0.844   2.879 -0.4261  0.3443 -0.2941
 1703WAT     H1 5320   2.257   0.774   2.821 -0.1362  0.7131 -0.5939
 1703WAT     H2 5321   2.305   0.893   2.900 -0.1311 -1.0376  2.1925
 1704WAT      O 5322   1.072   2.817   0.875  0.2308  0.1568 -0.7424
 1704WAT     H1 5323   1.048   2.909   0.885  1.0048  0.2871  0.0154
 1704WAT     H2 5324   1.136   2.816   0.804  0.6614  0.2848 -0.3580
 1705WAT      O 5325   2.030   0.827   0.186  0.2259 -0.1487 -0.0188
 1705WAT     H1 5326   2.111   0.844   0.233  0.2184 -0.8104  0.2515
 1705WAT     H2 5327   2.000   0.742   0.219 -0.8384  0.3074  0.2482
 1706WAT      O 5328   1.505   4.117   3.455  0.4790 -0.4130  0.7732
 1706WAT     H1 5329   1.575   4.073   3.408 -0.8750 -1.6836 -0.1499
 1706WAT     H2 5330   1.438   4.049   3.467 -1.2593  1.1189  0.2008
 1707WAT      O 5331   0.688   3.956   0.686  0.5107  0.2001  0.0812
 1707WAT     H1 5332   0.658   4.030   0.738 -0.5387 -1.1140  1.4378
 1707WAT     H2 5333   0.736   3.995   0.614 -0.0274  2.1914  0.7452
 1708WAT      O 5334   4.161   2.505   4.406 -0.0145 -0.1078  0.7369
 1708WAT     H1 5335   4.235   2.455   4.440  0.3472  0.9058  1.5095
 1708WAT     H2 5336   4.197   2.592   4.390 -0.5980 -0.1124 -0.6908
 1709WAT      O 5337   2.077   1.014   1.552  0.4037 -0.2793  0.2565
 1709WAT     H1 5338   2.044   0.948   1.491  2.5885 -1.6019  0.3906
 1709WAT     H2 5339   2.081   1.095   1.501 -0.3114 -0.7214 -0.5326
 1710WAT      O 5340   2.838   3.878   2.694  0.0593  0.5449  0.3110
 1710WAT     H1 5341   2.908   3.940   2.716 -1.0865  2.5044 -1.2059
 1710WAT     H2 5342   2.767   3.900   2.755  0.5805 -1.2554  1.6633
 1711WAT      O 5343   1.625   1.744   2.437 -0.2563 -0.8272 -0.7258
 1711WAT     H1 5344   1.585   1.813   2.489  1.6240 -0.2164 -0.0038
 1711WAT     H2 5345   1.678   1.790   2.372  2.6145 -1.4572  1.0007
 1712WAT      O 5346   0.757   3.265   0.887  0.4721  0.4271  0.1192
 1712WAT     H1 5347   0.701   3.304   0.954  1.3745 -1.1396  1.8899
 1712WAT     H2 5348   0.813   3.336   0.858  0.1054  1.1267  1.0831
 1713WAT      O 5349  -0.030   4.614   0.251  0.5595 -0.3356 -0.2088
 1713WAT     H1 5350  -0.021   4.646   0.341  1.0224 -0.5364 -0.1813
 1713WAT     H2 5351   0.058   4.618   0.215  0.6757 -1.7256 -0.1399
 1714WAT      O 5352   4.203   2.103   4.283 -0.1295 -0.1699 -0.3859
 1714WAT     H1 5353   4.182   2.056   4.364 -0.4111  0.8652  0.1612
 1714WAT     H2 5354   4.132   2.167   4.274 -0.3297 -0.5450 -1.6845
 1715WAT      O 5355   2.731   4.219   3.455  0.1390  0.1020 -0.0299
 1715WAT     H1 5356   2.691   4.211   3.541  0.7335  2.3431  0.5174
 1715WAT     H2 5357   2.825   4.220   3.472  0.2660  3.4343 -0.2675
 1716WAT      O 5358   1.791   0.563   0.464  0.2536  0.0552  0.0166
 1716WAT     H1 5359   1.830   0.553   0.377  1.0190  0.9564  0.2381
 1716WAT     H2 5360   1.710   0.511   0.460 -0.1474  0.7377 -1.4872
 1717WAT      O 5361   4.129   3.723   1.832 -0.2943  0.2119  0.0729
 1717WAT     H1 5362   4.090   3.660   1.772  0.1626 -0.5181  0.5253
 1717WAT     H2 5363   4.081   3.711   1.914 -0.7657  1.0438 -0.0747
 1718WAT      O 5364   2.110   1.008   3.675 -0.0831  0.3946  0.1240
 1718WAT     H1 5365   2.140   0.962   3.597  1.0285  1.9122 -0.3850
 1718WAT     H2 5366   2.190   1.032   3.721 -0.6619 -2.6124  3.1565
 1719WAT      O 5367   1.765   4.623   3.935 -0.2856 -0.2042 -0.1942
 1719WAT     H1 5368   1.683   4.673   3.937  0.4752  1.1886 -1.6457
 1719WAT     H2 5369   1.807   4.642   4.019 -0.2672  1.2052 -0.5011
 1720WAT      O 5370   4.160   2.108   1.451  0.1363  0.0596 -0.3136
 1720WAT     H1 5371   4.224   2.100   1.521 -0.5472 -0.0137  0.3217
 1720WAT     H2 5372   4.168   2.199   1.421 -1.2217  0.8733  1.5417
 1721WAT      O 5373   2.559   0.380   3.424 -0.1173 -0.0274 -0.6602
 1721WAT     H1 5374   2.628   0.380   3.358 -0.1813  0.3920 -0.7318
 1721WAT     H2 5375   2.553   0.471   3.452 -0.8047 -0.0157 -0.8257
 1722WAT      O 5376   2.031   3.331   0.471  0.2252  0.2413 -0.5541
 1722WAT     H1 5377   2.067   3.359   0.555  0.0362 -0.9219 -0.0748
 1722WAT     H2 5378   2.016   3.237   0.481 -2.0441  0.4923 -1.0362
 1723WAT      O 5379   1.173   1.297   1.736  0.0154 -0.0396 -0.0089
 1723WAT     H1 5380   1.148   1.248   1.658 -0.1877 -0.7396  0.4776
 1723WAT     H2 5381   1.269   1.290   1.739  0.0119 -0.1483 -0.1117
 1724WAT      O 5382   2.719   1.685   0.217 -0.4489  0.0077 -0.4346
 1724WAT     H1 5383   2.789   1.726   0.267  3.4689 -3.0129 -2.7283
 1724WAT     H2 5384   2.716   1.595   0.250  0.1064 -1.1901 -3.3329
 1725WAT      O 5385   1.680   0.626   3.105  0.4679  0.5359 -0.2841
 1725WAT     H1 5386   1.614   0.678   3.059 -3.1669 -1.9879  1.5368
 1725WAT     H2 5387   1.725   0.689   3.162 -1.6320  2.2097 -0.3311
 1726WAT      O 5388   1.595   1.307   2.574 -0.2516 -0.1679  0.1536
 1726WAT     H1 5389   1.685   1.307   2.540 -0.6972  1.2095 -1.1129
 1726WAT     H2 5390   1.589   1.386   2.626 -0.4339 -0.8245  1.1597
 1727WAT      O 5391   3.188   0.153   3.592  0.4279 -0.2890  0.1016
 1727WAT     H1 5392   3.228   0.135   3.676 -1.4916 -0.7751  0.9783
 1727WAT     H2 5393   3.109   0.204   3.613 -0.2168 -0.6143 -1.3663
 1728WAT      O 5394   1.943   3.055   4.390  0.0701  0.0771  0.1169
 1728WAT     H1 5395   1.942   2.965   4.359 -0.1603 -0.9983  2.9490
 1728WAT     H2 5396   2.034   3.070   4.418  0.2077  0.9160 -0.6907
 1729WAT      O 5397   2.221   1.943   4.004  0.8559 -0.7543  0.3417
 1729WAT     H1 5398   2.183   2.012   4.058  0.7782  0.1000 -0.7872
 1729WAT     H2 5399   2.315   1.949   4.022  0.6919 -1.5935  1.6451
 1730WAT      O 5400   2.391   2.611   1.161  0.1647  0.6509 -0.9469
 1730WAT     H1 5401   2.364   2.597   1.252 -0.8129  0.7702 -1.2054
 1730WAT     H2 5402   2.448   2.536   1.142  0.7857  0.8838 -0.0948
 1731WAT      O 5403   4.197   3.931   4.330  0.4925 -0.1641 -0.2724
 1731WAT     H1 5404   4.120   3.874   4.336 -0.7022  1.3325 -0.8004
 1731WAT     H2 5405   4.270   3.875   4.358 -0.6432 -1.8744 -0.5475
 1732WAT      O 5406   3.190   1.879   1.802  0.0744 -0.0644  0.3084
 1732WAT     H1 5407   3.277   1.862   1.838  0.1213  0.9724  0.7222
 1732WAT     H2 5408   3.207   1.933   1.725 -0.1609 -0.5572 -0.0965
 1733WAT      O 5409   4.496   2.218   3.812  0.0508 -0.0339 -0.3063
 1733WAT     H1 5410   4.444   2.298   3.799 -0.1081  0.1400  1.2050
 1733WAT     H2 5411   4.564   2.244   3.874 -0.4958 -1.2522  0.8514
 1734WAT      O 5412   0.241   1.932   3.761  1.0951 -0.4799  0.0226
 1734WAT     H1 5413   0.288   1.990   3.701  1.4944  0.1363  0.9022
 1734WAT     H2 5414   0.294   1.933   3.841 -0.3960  0.2267  1.0353
 1735WAT      O 5415   4.480   0.776   4.941  0.0438 -0.0416 -0.5246
 1735WAT     H1 5416   4.436   0.696   4.912  0.7128  0.5411 -3.5564
 1735WAT     H2 5417   4.414   0.844   4.932  0.2520  0.1465 -0.6330
 1736WAT      O 5418   0.246   5.024   0.962 -0.3959 -0.6492  0.3234
 1736WAT     H1 5419   0.178   4.986   1.018 -1.1691 -2.1352 -1.5323
 1736WAT     H2 5420   0.199   5.082   0.903  0.5630  1.9244  1.9070
 1737WAT      O 5421   1.648   1.525   2.293 -0.1200  0.3549 -0.0021
 1737WAT     H1 5422   1.741   1.520   2.271 -0.4511  0.8930 -1.6864
 1737WAT     H2 5423   1.639   1.608   2.340  0.4092 -0.2313  1.1771
 1738WAT      O 5424   4.037   0.838   4.312 -0.2066 -0.1481 -0.1942
 1738WAT     H1 5425   4.108   0.878   4.262  0.2926  2.3055  2.2764
 1738WAT     H2 5426   4.080   0.777   4.371 -0.1990  0.8394  0.8358
 1739WAT      O 5427   1.153   2.190   3.488  0.4083  0.1736  0.0512
 1739WAT     H1 5428   1.134   2.252   3.417  0.3015  0.0252 -0.0491
 1739WAT     H2 5429   1.110   2.109   3.461  0.9462 -0.0830 -0.0474
 1740WAT      O 5430   2.886   1.035   4.755 -0.6164  0.6736  0.0632
 1740WAT     H1 5431   2.912   0.981   4.680  1.0201  0.0496  1.0296
 1740WAT     H2 5432   2.924   1.121   4.737  0.3918  0.3324  0.4774
 1741WAT      O 5433   4.162   0.438   3.685  0.3592  0.2816 -0.5349
 1741WAT     H1 5434   4.155   0.504   3.754  1.0633  1.1120 -1.2443
 1741WAT     H2 5435   4.248   0.453   3.645  0.9196 -1.6201 -0.1637
 1742WAT      O 5436   3.082   3.377   4.725  0.5261  0.2919  0.2455
 1742WAT     H1 5437   3.173   3.376   4.694  0.0889 -0.3719 -1.0850
 1742WAT     H2 5438   3.047   3.460   4.691  0.6912  0.6633  0.9662
 1743WAT      O 5439   1.909   4.762   2.230  0.7168  0.5255  0.4475
 1743WAT     H1 5440   1.846   4.746   2.299 -0.1399  0.6632 -0.2887
 1743WAT     H2 5441   1.958   4.680   2.223  0.4584  0.3353  0.8575
 1744WAT      O 5442   1.811   1.892   1.893 -0.4842 -0.0169  0.1558
 1744WAT     H1 5443   1.844   1.981   1.903  0.1777 -0.0823 -1.1617
 1744WAT     H2 5444   1.889   1.839   1.882 -0.8365 -0.9052  1.7034
 1745WAT      O 5445   1.646   2.223   3.705 -0.1853  0.5126 -0.3506
 1745WAT     H1 5446   1.570   2.279   3.691 -0.0881  1.0366  1.0589
 1745WAT     H2 5447   1.645   2.205   3.799  0.9615 -0.1648 -0.4488
 1746WAT      O 5448   0.788   4.088   3.654  0.6625 -0.4879  0.1639
 1746WAT     H1 5449   0.830   4.044   3.580  1.8734  1.0913 -0.1408
 1746WAT     H2 5450   0.855   4.091   3.722  0.4502  0.4410  0.3457
 1747WAT      O 5451   1.660   0.252   3.154  0.0498  0.3165 -0.2080
 1747WAT     H1 5452   1.712   0.311   3.210 -2.4321  1.6535  0.8746
 1747WAT     H2 5453   1.572   0.288   3.158 -0.9919 -1.8168 -1.9784
 1748WAT      O 5454   1.260   4.789   4.699  0.2782  0.2695  0.0859
 1748WAT     H1 5455   1.353   4.780   4.680  0.1612  1.5293 -1.2326
 1748WAT     H2 5456   1.256   4.822   4.789  1.2306  2.7373 -0.7176
 1749WAT      O 5457   3.154   3.248   0.886 -0.5560  0.1760 -0.0272
 1749WAT     H1 5458   3.231   3.285   0.928 -0.1989  0.9299 -1.2966
 1749WAT     H2 5459   3.137   3.306   0.811 -1.7965 -0.5085 -0.3069
 1750WAT      O 5460   3.776   4.318   4.724 -0.1007  0.2847  0.6266
 1750WAT     H1 5461   3.797   4.379   4.653  0.4396 -1.6136 -0.9350
 1750WAT     H2 5462   3.845   4.330   4.788  0.4004  0.7997 -0.0066
 1751WAT      O 5463   2.219   4.201   2.313  0.3763 -0.6632 -0.0860
 1751WAT     H1 5464   2.185   4.200   2.224 -0.0472 -1.9540  0.0632
 1751WAT     H2 5465   2.309   4.168   2.304  0.5017 -0.3182 -0.0954
 1752WAT      O 5466   0.140   2.490   5.081 -0.1070  0.3457  0.2402
 1752WAT     H1 5467   0.174   2.400   5.074 -1.5423 -0.2264  0.4153
 1752WAT     H2 5468   0.073   2.495   5.013  0.6657  1.6286 -0.4475
 1753WAT      O 5469   4.417   3.710   3.988  0.1108  0.1495 -0.4082
 1753WAT     H1 5470   4.443   3.649   4.057  1.1932  0.4377 -0.5477
 1753WAT     H2 5471   4.370   3.656   3.925 -1.5258  0.0033  0.8785
 1754WAT      O 5472   3.617   3.428   4.620  0.0532  0.3660 -0.1532
 1754WAT     H1 5473   3.594   3.519   4.603 -0.8419 -0.0029 -0.9922
 1754WAT     H2 5474   3.619   3.387   4.534 -0.9172 -0.7149  0.3081
 1755WAT      O 5475   2.133   1.854   0.467  0.5294  0.5634  0.0445
 1755WAT     H1 5476   2.224   1.847   0.439  0.5323 -1.6653  0.4207
 1755WAT     H2 5477   2.087   1.788   0.416 -0.6148  0.7350  0.8234
 1756WAT      O 5478   1.037   0.200   3.680 -0.4263 -0.0911 -0.4112
 1756WAT     H1 5479   1.104   0.263   3.656 -0.9580  0.8759  0.5509
 1756WAT     H2 5480   1.038   0.135   3.609  0.6753  0.5600 -1.0117
 1757WAT      O 5481   3.936   2.359   3.557 -0.4964 -0.3388  0.4350
 1757WAT     H1 5482   3.859   2.415   3.567 -0.0738  0.2312  0.5365
 1757WAT     H2 5483   3.972   2.383   3.472  0.0656  0.0243  0.7717
 1758WAT      O 5484   2.031   3.578   2.652 -0.0457  0.1318 -0.2330
 1758WAT     H1 5485   2.100   3.639   2.629  1.2489 -1.1091  0.2157
 1758WAT     H2 5486   2.041   3.563   2.746 -1.2231  0.2729 -0.0619
 1759WAT      O 5487   2.422   0.272   4.837 -0.2670 -0.7984  0.2750
 1759WAT     H1 5488   2.405   0.331   4.910  0.6147 -1.2936  0.8982
 1759WAT     H2 5489   2.497   0.219   4.865 -0.2566 -1.3730 -0.7646
 1760WAT      O 5490   3.284   1.210   3.089  0.0265 -0.5480  0.4236
 1760WAT     H1 5491   3.361   1.197   3.143 -1.6469 -0.6924  2.9497
 1760WAT     H2 5492   3.240   1.124   3.089 -1.9233  0.3792  2.0825
 1761WAT      O 5493   2.011   3.688   4.675 -0.1665  0.6471 -0.2348
 1761WAT     H1 5494   2.089   3.741   4.658  0.5245 -1.2147 -3.8917
 1761WAT     H2 5495   1.938   3.743   4.647  0.3888  0.4645 -2.2111
 1762WAT      O 5496   2.979   4.349   1.706  0.0925  0.5792  0.1362
 1762WAT     H1 5497   2.968   4.420   1.769 -1.2096  1.2639 -0.8422
 1762WAT     H2 5498   2.977   4.391   1.621  0.1643 -0.5420 -0.4410
 1763WAT      O 5499   1.537   2.413   0.698 -0.0524  0.5374  0.7141
 1763WAT     H1 5500   1.510   2.321   0.690 -0.1459  0.6780 -0.7622
 1763WAT     H2 5501   1.457   2.463   0.685  0.1277  0.8504  0.8067
 1764WAT      O 5502   2.313   1.404   5.175 -0.5734 -0.2217  0.0582
 1764WAT     H1 5503   2.407   1.418   5.159 -1.0780  2.6464 -0.9857
 1764WAT     H2 5504   2.283   1.353   5.100  0.3228 -2.3555  1.0643
 1765WAT      O 5505   2.248   3.436   0.001 -0.2921 -0.0452 -0.0715
 1765WAT     H1 5506   2.255   3.526   0.034  1.1253 -0.5842  1.2258
 1765WAT     H2 5507   2.189   3.393   0.063 -1.2471  0.0430 -0.8889
 1766WAT      O 5508   1.845   4.131   3.230  0.4220 -0.4605 -0.3351
 1766WAT     H1 5509   1.881   4.219   3.241  0.1800 -0.2828 -0.8994
 1766WAT     H2 5510   1.765   4.144   3.178  0.0205 -0.9411  0.1462
 1767WAT      O 5511   3.344   3.455   3.723  0.3147 -0.8318  0.2896
 1767WAT     H1 5512   3.320   3.543   3.696 -0.1036 -1.0561 -0.0779
 1767WAT     H2 5513   3.438   3.449   3.704  0.3237 -0.4989  0.2294
 1768WAT      O 5514   3.434   1.157   5.253  0.9548  0.3303 -0.0570
 1768WAT     H1 5515   3.383   1.213   5.195  1.1829  0.3452 -0.2449
 1768WAT     H2 5516   3.369   1.101   5.296  0.9313 -1.2224 -1.9615
 1769WAT      O 5517   0.054   0.186   3.113  0.6961  0.1473  0.1367
 1769WAT     H1 5518  -0.029   0.139   3.125 -0.4610  2.0179  0.0054
 1769WAT     H2 5519   0.116   0.140   3.169  0.1220 -2.5609 -1.3159
 1770WAT      O 5520   2.265   0.315   3.435 -0.1691 -0.0015 -0.3099
 1770WAT     H1 5521   2.346   0.364   3.451  0.2803 -0.7298 -0.2951
 1770WAT     H2 5522   2.266   0.298   3.341 -0.7014  0.6589 -0.4403
 1771WAT      O 5523   2.350   4.775   2.667  0.3939  0.1548 -0.3041
 1771WAT     H1 5524   2.411   4.842   2.634 -0.7797  1.3532 -0.1242
 1771WAT     H2 5525   2.289   4.760   2.595 -0.3037  0.4671  0.2143
 1772WAT      O 5526   3.451   4.293   0.040 -0.7770  0.1804  0.1436
 1772WAT     H1 5527   3.508   4.283  -0.036  0.9878 -1.4882  1.5669
 1772WAT     H2 5528   3.490   4.364   0.091  0.2102 -1.0685  1.1982
 1773WAT      O 5529   0.916   3.134   2.412  0.3543  0.8384  0.4761
 1773WAT     H1 5530   0.860   3.170   2.343 -0.2701 -0.7423  0.1105
 1773WAT     H2 5531   0.871   3.054   2.439  3.3704 -1.5963 -1.2111
 1774WAT      O 5532   1.477   3.835   5.291  0.1931 -0.7616 -0.5586
 1774WAT     H1 5533   1.479   3.792   5.206 -2.9175 -1.0920 -0.5999
 1774WAT     H2 5534   1.537   3.909   5.282  1.2806 -1.7963 -2.4108
 1775WAT      O 5535   0.628   0.745   0.079 -0.3578  0.2088  0.4327
 1775WAT     H1 5536   0.686   0.770   0.008 -1.3253  0.4473 -0.2872
 1775WAT     H2 5537   0.576   0.824   0.097  1.3068  0.8650  2.8765
 1776WAT      O 5538   1.810   2.702   0.894  0.2379  0.1565 -0.2601
 1776WAT     H1 5539   1.779   2.638   0.958  0.5414  0.2090 -0.0579
 1776WAT     H2 5540   1.749   2.694   0.821 -0.8567  0.9630  0.5304
 1777WAT      O 5541   3.697   3.095   0.049 -0.7188  0.2968  0.5627
 1777WAT     H1 5542   3.662   3.174   0.090  2.8780  1.7526  1.2866
 1777WAT     H2 5543   3.662   3.096  -0.040  0.9700  4.1702 -0.2851
 1778WAT      O 5544   3.546   4.829   2.467  0.0144 -0.3211 -0.4104
 1778WAT     H1 5545   3.498   4.909   2.451 -0.1133 -0.4959 -0.9340
 1778WAT     H2 5546   3.485   4.759   2.444  0.2187 -0.5634 -0.2275
 1779WAT      O 5547   1.020   1.512   0.750  0.4825 -0.1402 -0.3572
 1779WAT     H1 5548   0.928   1.488   0.747  0.4023  0.1419 -0.1972
 1779WAT     H2 5549   1.067   1.429   0.738  0.2116 -0.3910  0.2662
 1780WAT      O 5550   1.231   3.620   4.717 -0.1696 -0.2724  0.0343
 1780WAT     H1 5551   1.250   3.702   4.761  0.2386 -0.4996  0.2842
 1780WAT     H2 5552   1.313   3.595   4.675 -1.1808  1.3632 -3.2837
 1781WAT      O 5553   3.148   4.408   3.760  0.0255 -0.6348  0.2209
 1781WAT     H1 5554   3.177   4.347   3.827  1.9059 -2.0025 -1.7058
 1781WAT     H2 5555   3.229   4.445   3.725 -1.0200  1.9784  0.3815
 1782WAT      O 5556   1.311   1.008   2.853 -0.1640 -0.3672  0.0588
 1782WAT     H1 5557   1.272   0.992   2.767 -2.3434  0.3820  0.8538
 1782WAT     H2 5558   1.363   1.088   2.841 -0.7838 -0.0334 -0.4698
 1783WAT      O 5559   2.935   4.541   1.896  0.0654 -0.4355 -0.2501
 1783WAT     H1 5560   2.847   4.551   1.931  0.7430  1.8252  1.0348
 1783WAT     H2 5561   2.989   4.517   1.972  0.7509 -0.5721 -0.7644
 1784WAT      O 5562   1.106   0.735   4.414 -0.0482 -0.0410  0.2715
 1784WAT     H1 5563   1.166   0.796   4.371 -1.7516 -0.2816 -2.7205
 1784WAT     H2 5564   1.094   0.664   4.351 -1.6641 -1.1852  1.7516
 1785WAT      O 5565   3.324   2.000   1.406 -0.2926 -0.1010 -0.2561
 1785WAT     H1 5566   3.232   1.977   1.388 -0.5286  0.2434  0.4760
 1785WAT     H2 5567   3.325   2.023   1.499  0.5028  0.0908 -0.3077
 1786WAT      O 5568   3.105   2.284   3.522 -0.0667 -0.1328 -0.0352
 1786WAT     H1 5569   3.062   2.341   3.459 -0.3801 -0.3354 -0.0050
 1786WAT     H2 5570   3.113   2.200   3.477  1.9605  0.3655 -0.7473
 1787WAT      O 5571   2.699   3.536   5.252 -0.2313 -0.5756  0.0115
 1787WAT     H1 5572   2.783   3.581   5.255 -0.1449 -0.7000 -0.4233
 1787WAT     H2 5573   2.678   3.517   5.343 -0.2352  0.2823  0.1951
 1788WAT      O 5574   0.360   4.427   1.882 -0.5482  0.3723  0.0679
 1788WAT     H1 5575   0.354   4.338   1.847 -0.0389  0.1405  0.5514
 1788WAT     H2 5576   0.433   4.423   1.944  0.2211  1.4042 -0.7294
 1789WAT      O 5577   2.796   1.161   1.873 -0.1576  0.4648  0.3621
 1789WAT     H1 5578   2.787   1.127   1.962 -0.3328 -0.9207 -0.1583
 1789WAT     H2 5579   2.887   1.145   1.850 -0.8099 -2.1865 -0.8113
 1790WAT      O 5580   3.014   2.250   1.591 -0.2158 -0.0913 -0.3946
 1790WAT     H1 5581   3.047   2.281   1.507  1.0343  0.5815  0.3021
 1790WAT     H2 5582   2.945   2.188   1.569 -0.2400  0.4355 -1.8969
 1791WAT      O 5583   0.779   4.279   0.994 -0.2119  0.3721 -0.1759
 1791WAT     H1 5584   0.764   4.188   1.020  1.0382 -0.2213 -1.3533
 1791WAT     H2 5585   0.736   4.331   1.061 -0.5716 -1.0914  0.7727
 1792WAT      O 5586   3.719   0.517   4.435  0.5314 -0.1609  0.2038
 1792WAT     H1 5587   3.759   0.575   4.370  1.4786  0.1969  1.0827
 1792WAT     H2 5588   3.679   0.447   4.383  0.1656  0.7810 -0.8231
 1793WAT      O 5589   0.599   3.990   4.032 -0.6900  0.2658  0.3743
 1793WAT     H1 5590   0.662   3.934   4.077 -0.2029  1.3384  1.0950
 1793WAT     H2 5591   0.592   4.068   4.088 -0.4745  1.4269 -1.1340
 1794WAT      O 5592   2.584   2.080   1.776  0.1028 -0.7214 -0.0374
 1794WAT     H1 5593   2.659   2.137   1.760 -0.2080 -0.1641  0.4702
 1794WAT     H2 5594   2.623   1.994   1.794  0.6099 -0.4592  0.1340
 1795WAT      O 5595   0.421   4.152   0.639  0.0906 -0.0121  0.4393
 1795WAT     H1 5596   0.382   4.216   0.699  1.2584  0.0229  1.2016
 1795WAT     H2 5597   0.514   4.155   0.659  0.0957 -2.5025  1.0416
 1796WAT      O 5598   4.260   5.088   2.624 -0.2378  0.2332  0.1498
 1796WAT     H1 5599   4.321   5.074   2.697  0.6817  1.5153 -0.3404
 1796WAT     H2 5600   4.316   5.102   2.548 -1.1882 -1.0965 -0.8309
 1797WAT      O 5601   3.170   0.406   1.016 -0.1411  0.2581 -0.0085
 1797WAT     H1 5602   3.259   0.395   1.050 -0.8516 -1.1965  1.4960
 1797WAT     H2 5603   3.182   0.418   0.921  1.5528 -1.9644 -0.1512
 1798WAT      O 5604   3.864   0.635   4.227 -0.5569  0.2371  0.6062
 1798WAT     H1 5605   3.917   0.715   4.223 -1.1616  0.6026 -0.9227
 1798WAT     H2 5606   3.923   0.567   4.258  1.0062  0.5015 -1.5936
 1799WAT      O 5607   2.670   0.949   0.715 -0.5022  0.1980  0.0710
 1799WAT     H1 5608   2.762   0.956   0.738 -0.3526  1.3791 -0.8286
 1799WAT     H2 5609   2.633   0.890   0.782  0.9935 -0.7569  0.1020
 1800WAT      O 5610   0.209   4.577   3.730  0.2379  0.3346  0.3423
 1800WAT     H1 5611   0.299   4.545   3.722 -0.0710 -0.4222 -0.1266
 1800WAT     H2 5612   0.169   4.558   3.646 -0.6225 -0.1237  0.8446
 1801WAT      O 5613   3.147   3.977   0.862 -0.1749 -0.4464  0.0849
 1801WAT     H1 5614   3.060   3.938   0.862  0.1340 -1.1732 -0.7484
 1801WAT     H2 5615   3.133   4.069   0.838 -0.6722 -0.6542 -0.4219
 1802WAT      O 5616   3.878   2.996   4.948 -0.0877  0.6439  0.5700
 1802WAT     H1 5617   3.871   2.932   4.877  4.4327  1.2292 -0.7492
 1802WAT     H2 5618   3.939   2.956   5.011  2.7752  3.3239 -0.2245
 1803WAT      O 5619   0.033   2.817   0.261 -0.3136 -0.1440  0.9142
 1803WAT     H1 5620   0.074   2.787   0.180  0.2993  3.0623 -0.1139
 1803WAT     H2 5621  -0.057   2.783   0.257 -0.3388  0.0414 -1.2009
 1804WAT      O 5622   4.549   2.994   3.842 -0.4032 -0.2275 -0.1663
 1804WAT     H1 5623   4.502   2.923   3.886 -0.9628  0.0711 -0.2707
 1804WAT     H2 5624   4.506   3.002   3.757  0.5927 -0.7188 -0.7350
 1805WAT      O 5625   1.611   0.082   2.555 -0.0761  0.1300  0.2548
 1805WAT     H1 5626   1.626   0.164   2.601  0.7441 -0.3614  0.9000
 1805WAT     H2 5627   1.634   0.014   2.619 -1.6951 -0.6372  0.0796
 1806WAT      O 5628   2.579   5.046   0.548 -0.2106  0.2660  0.0057
 1806WAT     H1 5629   2.593   5.114   0.614  0.6613 -0.9371  1.1107
 1806WAT     H2 5630   2.513   5.083   0.489 -0.5029  1.6574  1.1513
 1807WAT      O 5631   1.249   1.656   0.995  0.1526 -0.0966 -0.6725
 1807WAT     H1 5632   1.214   1.646   1.084  0.5718  0.2104 -0.4686
 1807WAT     H2 5633   1.261   1.751   0.984  3.8264 -0.2650  0.4455
 1808WAT      O 5634   4.483   4.970   5.229  0.1822 -0.1713 -0.2606
 1808WAT     H1 5635   4.474   4.913   5.306  0.6861 -0.7639 -0.6269
 1808WAT     H2 5636   4.431   5.047   5.250  1.8697  0.5735  1.5253
 1809WAT      O 5637   3.564   3.891   3.958 -0.3723  0.3843 -0.1175
 1809WAT     H1 5638   3.634   3.841   3.916  0.0957  0.6959  0.2972
 1809WAT     H2 5639   3.585   3.982   3.939 -1.3642  0.4323 -1.0926
 1810WAT      O 5640   3.632   0.871   2.435  0.1324  0.8992 -0.0946
 1810WAT     H1 5641   3.717   0.887   2.395  0.3769  0.2480  0.1579
 1810WAT     H2 5642   3.630   0.929   2.512  0.1812  1.2043 -0.3217
 1811WAT      O 5643   4.116   4.966   4.457 -0.2549  0.0399  0.1141
 1811WAT     H1 5644   4.115   5.055   4.423 -0.0129 -0.5488 -1.5479
 1811WAT     H2 5645   4.195   4.961   4.510  0.4386  0.4539 -0.8532
 1812WAT      O 5646   1.119   1.067   2.106 -0.0643  0.4522  0.0291
 1812WAT     H1 5647   1.173   1.009   2.158 -1.5925  0.9333  2.3504
 1812WAT     H2 5648   1.172   1.146   2.095  0.9517 -0.3163 -0.7070
 1813WAT      O 5649   0.941   2.271   4.350  0.2062 -0.2252  0.1089
 1813WAT     H1 5650   1.005   2.222   4.402  1.9886  1.6864 -0.1377
 1813WAT     H2 5651   0.982   2.357   4.338 -2.0461  0.7822 -0.8534
 1814WAT      O 5652   0.836   3.174   3.231  0.1057 -0.4132 -0.2710
 1814WAT     H1 5653   0.794   3.134   3.307  1.9110  1.5025  1.8995
 1814WAT     H2 5654   0.922   3.133   3.226  0.6700  0.6942 -0.1233
 1815WAT      O 5655   3.987   3.418   4.267 -0.0675  0.4835  0.4053
 1815WAT     H1 5656   4.013   3.464   4.187  0.6880 -1.5542 -0.5775
 1815WAT     H2 5657   3.891   3.414   4.263 -0.0430  0.5897 -0.2772
 1816WAT      O 5658   0.855   0.095   1.606  0.3726  0.0608  0.1522
 1816WAT     H1 5659   0.888   0.171   1.559  1.2821 -0.7888 -0.6430
 1816WAT     H2 5660   0.768   0.120   1.637  0.3917  1.1694 -0.6656
 1817WAT      O 5661   0.544   1.402   1.432 -0.2583 -0.2771 -0.0440
 1817WAT     H1 5662   0.507   1.491   1.433 -2.2364 -1.0290 -1.1085
 1817WAT     H2 5663   0.481   1.349   1.479 -0.4518 -1.5836 -1.6916
 1818WAT      O 5664   0.026   2.318   0.251 -0.6338 -0.6874  0.2143
 1818WAT     H1 5665   0.055   2.371   0.177  0.9417 -0.9953  0.5577
 1818WAT     H2 5666  -0.043   2.262   0.215 -1.2567  0.5168 -0.5171
 1819WAT      O 5667   0.812   4.739   3.221 -0.8827  0.6261 -0.5536
 1819WAT     H1 5668   0.822   4.674   3.152 -1.8560  1.1780 -1.2473
 1819WAT     H2 5669   0.884   4.800   3.207  0.0134 -0.2672  0.0791
 1820WAT      O 5670   4.363   1.564   0.494  0.4897 -0.0620  0.4228
 1820WAT     H1 5671   4.281   1.612   0.482  0.5973 -0.0324 -0.2811
 1820WAT     H2 5672   4.375   1.517   0.411  1.5107  0.4530  0.2577
 1821WAT      O 5673   3.417   0.688   2.440 -0.3283  0.0660 -0.5049
 1821WAT     H1 5674   3.481   0.758   2.442  0.8810 -1.0013 -0.9272
 1821WAT     H2 5675   3.400   0.672   2.347  0.3441 -1.0129 -0.4589
 1822WAT      O 5676   4.030   0.566   4.658  0.5949 -0.3217  0.1718
 1822WAT     H1 5677   4.019   0.655   4.627 -0.4482 -0.7286 -0.6892
 1822WAT     H2 5678   3.992   0.567   4.746 -2.1342 -0.5300 -0.8982
 1823WAT      O 5679   4.233   2.752   3.820  0.3902 -0.0397 -0.0660
 1823WAT     H1 5680   4.288   2.773   3.745 -0.9966  0.3494 -1.0216
 1823WAT     H2 5681   4.173   2.826   3.827 -0.5331 -0.8083  0.4164
 1824WAT      O 5682   1.706   3.331   4.693 -0.6658 -0.2223 -0.4534
 1824WAT     H1 5683   1.748   3.403   4.740 -3.8962  1.4068  0.2263
 1824WAT     H2 5684   1.705   3.359   4.602 -1.8873  0.6255 -0.1947
 1825WAT      O 5685   1.018   3.161   4.828  0.3504 -0.2592 -0.0421
 1825WAT     H1 5686   0.964   3.217   4.884 -1.0363 -0.3185 -1.2794
 1825WAT     H2 5687   1.101   3.153   4.876 -1.0464 -0.9909  2.4049
 1826WAT      O 5688   1.948   3.334   2.622  0.2056 -0.1303  0.0738
 1826WAT     H1 5689   1.960   3.313   2.714  2.4780 -1.3514 -0.4419
 1826WAT     H2 5690   1.975   3.426   2.614  0.7976 -0.2665  0.4849
 1827WAT      O 5691   4.515   0.455   3.085  0.0377  0.3596 -0.0184
 1827WAT     H1 5692   4.478   0.391   3.025  0.3954 -0.2883  0.4422
 1827WAT     H2 5693   4.551   0.403   3.157 -0.3217  1.1163  0.7312
 1828WAT      O 5694   3.941   2.359   5.238  0.3697  0.0518 -0.1880
 1828WAT     H1 5695   3.983   2.274   5.248  1.5398  0.6466  0.1144
 1828WAT     H2 5696   3.878   2.363   5.310 -1.1814 -1.3619 -1.3711
 1829WAT      O 5697   2.424   3.467   1.027 -0.5503  0.2620 -0.2907
 1829WAT     H1 5698   2.426   3.497   1.117  0.7820 -0.8501  0.0691
 1829WAT     H2 5699   2.374   3.385   1.030  0.7258 -0.5487 -0.2813
 1830WAT      O 5700   3.869   2.909   3.300 -0.0744  0.0345  0.5100
 1830WAT     H1 5701   3.795   2.963   3.272 -0.5313  0.1205  1.8342
 1830WAT     H2 5702   3.920   2.965   3.357  0.4355 -0.3750  0.4703
 1831WAT      O 5703   3.585   2.793   3.306 -0.1143  0.1022 -0.8917
 1831WAT     H1 5704   3.638   2.751   3.373 -1.2860 -1.7565 -1.0512
 1831WAT     H2 5705   3.621   2.881   3.298 -0.1283  0.5050  2.3704
 1832WAT      O 5706   3.549   3.105   0.523  0.4316 -0.3776  0.0352
 1832WAT     H1 5707   3.486   3.139   0.587  2.7820  2.4878  1.0514
 1832WAT     H2 5708   3.604   3.045   0.573  0.7641 -0.0283  0.0904
 1833WAT      O 5709   0.101   2.480   0.805 -0.0861  0.0535  0.2603
 1833WAT     H1 5710   0.085   2.395   0.762 -3.2644  0.7516 -0.1492
 1833WAT     H2 5711   0.073   2.545   0.740 -2.4455  1.2209  2.3140
 1834WAT      O 5712   3.809   1.961   5.027 -0.1927  0.1425  0.1036
 1834WAT     H1 5713   3.779   2.044   4.989 -1.8417 -0.8057 -0.7887
 1834WAT     H2 5714   3.889   1.941   4.980 -1.1162  0.0204 -1.4965
 1835WAT      O 5715   0.283   0.418   4.067 -0.1942  0.0437  0.2816
 1835WAT     H1 5716   0.279   0.440   3.974 -1.3351  0.1826  0.3451
 1835WAT     H2 5717   0.308   0.325   4.068 -3.7194 -1.0593 -0.3754
 1836WAT      O 5718   3.025   2.778   0.295  0.0926  0.4378  0.3885
 1836WAT     H1 5719   3.085   2.821   0.234 -1.2241  1.1369 -0.4574
 1836WAT     H2 5720   3.029   2.685   0.271 -0.1591  0.6578 -0.5430
 1837WAT      O 5721   3.218   2.269   1.778  0.2887 -0.4678  0.0123
 1837WAT     H1 5722   3.180   2.333   1.839  0.5930  0.5221 -0.8191
 1837WAT     H2 5723   3.149   2.252   1.714  0.2412 -0.9096  0.1760
 1838WAT      O 5724   3.554   3.811   4.434 -0.0553  0.0146  0.1539
 1838WAT     H1 5725   3.636   3.823   4.386  0.4032 -0.8358  0.7056
 1838WAT     H2 5726   3.569   3.853   4.518 -0.5332  0.7035 -0.1008
 1839WAT      O 5727   0.889   4.104   1.344  0.1619 -0.6259 -0.5164
 1839WAT     H1 5728   0.906   4.122   1.436  1.3809  3.3498 -1.3353
 1839WAT     H2 5729   0.962   4.049   1.317  0.5294 -0.7080  0.5909
 1840WAT      O 5730   3.280   2.365   5.247 -0.0519 -0.4310  0.7078
 1840WAT     H1 5731   3.366   2.357   5.288  0.5662 -0.5125 -0.5265
 1840WAT     H2 5732   3.300   2.384   5.155 -1.3235 -1.7268  0.1199
 1841WAT      O 5733   2.858   4.151   4.539  0.0573 -0.6688 -0.2007
 1841WAT     H1 5734   2.784   4.174   4.482 -0.1849  0.5209  0.5551
 1841WAT     H2 5735   2.929   4.207   4.510  0.6616 -1.7577 -0.8738
 1842WAT      O 5736   1.622   2.053   5.164  0.2749  0.1869 -0.6013
 1842WAT     H1 5737   1.649   2.144   5.174 -0.8270  0.3871  0.8713
 1842WAT     H2 5738   1.527   2.057   5.155  0.3403 -0.7435 -1.9646
 1843WAT      O 5739   2.162   3.066   2.544  0.1432  0.2712  0.8230
 1843WAT     H1 5740   2.163   2.970   2.538  1.0386  0.2600  1.0048
 1843WAT     H2 5741   2.087   3.093   2.491 -0.0948 -0.5287  0.7427
 1844WAT      O 5742   4.229   1.451   0.182  0.1809 -0.6378 -0.0893
 1844WAT     H1 5743   4.138   1.479   0.192 -0.3224 -1.8710 -1.0471
 1844WAT     H2 5744   4.233   1.365   0.223  0.1491 -1.9397 -2.6148
 1845WAT      O 5745   3.705   4.908   4.294  0.3586 -0.1872 -0.3587
 1845WAT     H1 5746   3.759   4.859   4.231  0.1486  0.8110 -1.3501
 1845WAT     H2 5747   3.685   4.990   4.249 -1.9814 -0.5075  0.0038
 1846WAT      O 5748   2.663   2.668   4.206 -0.4377  0.4659  0.4509
 1846WAT     H1 5749   2.689   2.743   4.151 -0.4115  0.0658 -0.0871
 1846WAT     H2 5750   2.746   2.627   4.231 -0.5057 -0.9034 -1.3946
 1847WAT      O 5751   2.872   0.255   5.012  0.1330  0.2392  0.7205
 1847WAT     H1 5752   2.952   0.290   4.974 -0.5843  0.0922 -1.0815
 1847WAT     H2 5753   2.858   0.305   5.092  1.1961  1.3344  0.2485
 1848WAT      O 5754   0.956   0.910   5.206 -0.5043 -0.6440  0.0031
 1848WAT     H1 5755   0.884   0.938   5.150 -0.2335 -0.6057 -0.3249
 1848WAT     H2 5756   1.029   0.967   5.183  0.2050 -1.9007 -1.0206
 1849WAT      O 5757   4.126   2.809   4.888  0.2216 -0.3536 -0.4468
 1849WAT     H1 5758   4.161   2.875   4.828  0.5094  0.1478  0.2573
 1849WAT     H2 5759   4.039   2.788   4.853 -0.1932  0.9678 -0.2578
 1850WAT      O 5760   4.506   5.057   0.754 -0.4079  0.4231 -0.2799
 1850WAT     H1 5761   4.585   5.109   0.739 -1.0510  1.4745 -0.2045
 1850WAT     H2 5762   4.451   5.074   0.677 -0.5733 -0.2755 -0.3244
 1851WAT      O 5763   2.545   5.022   1.724 -0.0153 -0.4348 -0.7478
 1851WAT     H1 5764   2.504   5.108   1.711  1.0164  0.0324 -1.0729
 1851WAT     H2 5765   2.555   5.014   1.819  2.3190  1.0495 -0.7795
 1852WAT      O 5766   1.669   4.245   4.375 -0.1138  0.0385  0.4725
 1852WAT     H1 5767   1.744   4.302   4.389  0.1346 -0.0454 -0.4320
 1852WAT     H2 5768   1.704   4.157   4.383  0.0950 -0.0176 -0.8443
 1853WAT      O 5769   1.790   1.854   2.236  0.1489  0.3729 -0.3309
 1853WAT     H1 5770   1.768   1.939   2.199 -0.3589  0.1100 -0.6482
 1853WAT     H2 5771   1.867   1.825   2.186 -0.7844 -0.1688 -1.4981
 1854WAT      O 5772   3.397   4.257   1.962  0.1416 -0.2565  0.9605
 1854WAT     H1 5773   3.463   4.189   1.973  0.1830 -0.2300  0.8711
 1854WAT     H2 5774   3.409   4.289   1.873  2.2545  2.0718  1.9488
 1855WAT      O 5775   1.042   0.708   4.694  0.4065  0.1521  0.1334
 1855WAT     H1 5776   1.086   0.623   4.705  0.4196 -0.1237 -1.7651
 1855WAT     H2 5777   1.054   0.729   4.602 -0.9582  1.4788  0.2314
 1856WAT      O 5778   4.318   0.781   3.639  0.0250  0.1671 -0.5480
 1856WAT     H1 5779   4.294   0.769   3.731  1.0226 -0.2971 -0.3387
 1856WAT     H2 5780   4.401   0.735   3.630 -0.2127 -0.0493 -1.7618
 1857WAT      O 5781   3.602   1.526   3.446 -0.2700 -0.0057 -0.0455
 1857WAT     H1 5782   3.527   1.469   3.428 -0.7847  0.7515 -0.3478
 1857WAT     H2 5783   3.569   1.591   3.508  0.2153  0.1734  0.0316
 1858WAT      O 5784   1.571   4.093   1.523 -0.3925 -0.4915 -0.1198
 1858WAT     H1 5785   1.614   4.018   1.481  1.7839 -0.1583  1.3695
 1858WAT     H2 5786   1.590   4.083   1.616  1.1981  2.5885  0.0147
 1859WAT      O 5787   1.633   4.536   0.086 -0.3064 -0.0786  0.2359
 1859WAT     H1 5788   1.661   4.627   0.085  2.7340 -0.8820 -1.8058
 1859WAT     H2 5789   1.589   4.523   0.001 -0.1027 -0.6561  0.2097
 1860WAT      O 5790   2.047   0.681   1.172  0.8496 -0.0564  0.3042
 1860WAT     H1 5791   2.026   0.600   1.217  0.8046 -1.5497 -2.2550
 1860WAT     H2 5792   1.969   0.735   1.181  0.1193 -1.1014  0.3129
 1861WAT      O 5793   3.064   3.110   4.198 -0.2263  0.0661  0.2386
 1861WAT     H1 5794   3.023   3.197   4.196 -1.0891 -0.3371 -0.8711
 1861WAT     H2 5795   3.008   3.059   4.257 -1.6039 -0.5634 -1.4900
 1862WAT      O 5796   3.448   2.222   4.025  0.7948 -0.1106 -0.0024
 1862WAT     H1 5797   3.425   2.199   3.935 -0.0882  2.8130 -0.6516
 1862WAT     H2 5798   3.400   2.160   4.079 -1.2398  0.0199 -1.5384
 1863WAT      O 5799   1.617   5.077   4.249 -0.3657 -0.0400 -0.3673
 1863WAT     H1 5800   1.618   5.121   4.164 -0.5847 -1.3563 -1.0806
 1863WAT     H2 5801   1.610   4.984   4.228 -1.0448 -0.3596  1.1145
 1864WAT      O 5802   2.312   0.627   3.065 -0.3137  0.1594  0.3372
 1864WAT     H1 5803   2.287   0.650   3.155 -0.5608 -1.4307  0.7034
 1864WAT     H2 5804   2.241   0.661   3.011  0.6103  2.6007  0.4988
 1865WAT      O 5805   2.312   2.220   2.285 -0.6157  0.3783  0.2928
 1865WAT     H1 5806   2.248   2.154   2.259 -0.1327 -0.0916  0.2737
 1865WAT     H2 5807   2.297   2.233   2.379  1.1623 -1.9109  0.9919
 1866WAT      O 5808   2.079   4.398   3.937 -0.1112  0.1268 -0.0852
 1866WAT     H1 5809   2.070   4.493   3.936  2.6886  0.5216 -2.2783
 1866WAT     H2 5810   2.030   4.370   4.014  0.5240  3.5310  1.7710
 1867WAT      O 5811   1.334   5.093   0.880 -0.4603  0.0760  0.2276
 1867WAT     H1 5812   1.271   5.124   0.815  0.6241  1.4906 -0.2314
 1867WAT     H2 5813   1.350   5.002   0.857 -0.3107  0.4672 -1.3684
 1868WAT      O 5814   1.532   3.461   4.858  0.3919 -0.2840 -0.5771
 1868WAT     H1 5815   1.571   3.380   4.825  0.5415 -0.4484 -0.0076
 1868WAT     H2 5816   1.584   3.530   4.818  0.2448 -0.4595 -1.0933
 1869WAT      O 5817   0.297   1.276   3.000  0.2112 -0.2858 -0.1139
 1869WAT     H1 5818   0.287   1.189   2.962 -1.3223 -0.3307  0.2946
 1869WAT     H2 5819   0.207   1.307   3.010  0.7280  1.1901  0.1015
 1870WAT      O 5820   2.842   0.303   2.805 -0.2185  0.0741  0.0619
 1870WAT     H1 5821   2.902   0.237   2.840  0.1092  0.8752  1.0577
 1870WAT     H2 5822   2.851   0.295   2.710  1.3342  0.0375  0.1785
 1871WAT      O 5823   4.395   0.838   5.267 -0.0747  0.4174  0.3200
 1871WAT     H1 5824   4.320   0.880   5.309  0.7589  0.4766  1.8241
 1871WAT     H2 5825   4.373   0.837   5.174 -2.6675 -1.0597  0.8724
 1872WAT      O 5826   3.315   0.079   1.073  0.3177 -0.4797  0.4753
 1872WAT     H1 5827   3.357   0.053   1.155 -0.4526 -0.0388  1.0198
 1872WAT     H2 5828   3.224   0.093   1.095  0.4595  1.5563 -0.0022
 1873WAT      O 5829   0.086   3.705   0.089  0.0867 -0.3756 -0.1253
 1873WAT     H1 5830   0.146   3.776   0.066  0.1024 -0.5952 -0.7948
 1873WAT     H2 5831   0.136   3.650   0.149  0.7865 -0.8688 -1.1246
 1874WAT      O 5832   0.588   3.681   2.698 -0.1407  0.6471  0.0304
 1874WAT     H1 5833   0.508   3.702   2.745 -0.4488  0.6541 -0.4908
 1874WAT     H2 5834   0.573   3.712   2.608 -0.1275 -0.6579 -0.4405
 1875WAT      O 5835   4.087   0.788   0.632 -0.4060 -0.7971 -0.0615
 1875WAT     H1 5836   4.076   0.737   0.552  0.8095 -0.4619 -0.4605
 1875WAT     H2 5837   4.115   0.723   0.697  0.0183 -0.8306 -0.2764
 1876WAT      O 5838   3.944   3.014   0.456 -0.1339 -0.3351  0.4721
 1876WAT     H1 5839   3.974   2.931   0.495 -0.2640 -0.6598 -0.1061
 1876WAT     H2 5840   3.871   2.989   0.400  0.1685  0.0980 -0.1278
 1877WAT      O 5841   3.567   1.763   1.111  0.4324  0.1676 -0.1743
 1877WAT     H1 5842   3.564   1.752   1.206  0.9960  2.0563  0.1006
 1877WAT     H2 5843   3.643   1.711   1.084 -1.2247 -2.5445 -0.0139
 1878WAT      O 5844   2.231   5.073   2.524 -0.4108  0.1125  0.0822
 1878WAT     H1 5845   2.318   5.046   2.553 -0.3225  1.2511  0.9622
 1878WAT     H2 5846   2.235   5.070   2.428 -0.1188 -1.9430  0.1264
 1879WAT      O 5847   0.053   0.339   4.976  0.3380 -0.2636  0.0006
 1879WAT     H1 5848   0.119   0.368   4.912 -0.1839  1.7424  0.2856
 1879WAT     H2 5849   0.036   0.248   4.953  2.5371 -0.5756 -0.6444
 1880WAT      O 5850   3.497   3.770   0.914  0.2565 -0.1454  0.2998
 1880WAT     H1 5851   3.441   3.711   0.963 -0.8428  0.0909 -0.6225
 1880WAT     H2 5852   3.457   3.775   0.827  0.7141  1.3847  0.1356
 1881WAT      O 5853   4.074   4.353   1.100  0.4587 -0.3497 -0.1314
 1881WAT     H1 5854   4.052   4.259   1.099 -1.2957 -0.0436  2.1703
 1881WAT     H2 5855   3.996   4.396   1.065  1.1193  0.3155 -0.8389
 1882WAT      O 5856   0.611   0.300   3.808  0.2289  0.1253  0.0843
 1882WAT     H1 5857   0.664   0.231   3.768 -0.0699 -0.4979  0.7494
 1882WAT     H2 5858   0.667   0.338   3.875  0.4866  0.7183 -0.4536
 1883WAT      O 5859   1.959   3.538   1.827  0.3735 -0.5898 -0.2778
 1883WAT     H1 5860   2.014   3.470   1.868 -0.8066 -1.1479  0.4599
 1883WAT     H2 5861   1.880   3.539   1.881 -0.8668 -0.6883 -2.0113
 1884WAT      O 5862   0.363   3.650   0.133 -0.0791  0.8858  0.6987
 1884WAT     H1 5863   0.404   3.606   0.058 -0.3511 -1.7161  1.9758
 1884WAT     H2 5864   0.428   3.714   0.162  1.5998 -0.6413  0.4679
 1885WAT      O 5865   3.775   1.679   2.863 -0.3120 -0.0723 -0.7637
 1885WAT     H1 5866   3.797   1.764   2.902  0.8308 -0.2192 -1.0476
 1885WAT     H2 5867   3.707   1.643   2.920  1.0420 -0.1221  0.8946
 1886WAT      O 5868   2.436   4.065   4.633 -0.1724  0.0810 -0.6889
 1886WAT     H1 5869   2.504   4.065   4.566  0.5347 -1.4833 -0.0303
 1886WAT     H2 5870   2.483   4.081   4.715 -0.6870 -0.3056 -0.3085
 1887WAT      O 5871   2.086   4.904   1.062 -0.1026 -0.2268 -0.0972
 1887WAT     H1 5872   2.029   4.980   1.052 -1.5425 -1.1998  0.4984
 1887WAT     H2 5873   2.166   4.928   1.014 -1.0760  1.0612 -1.1472
 1888WAT      O 5874   0.942   4.756   1.334  0.2803  0.3666 -0.6634
 1888WAT     H1 5875   1.027   4.800   1.334 -0.0998  1.1208 -1.5610
 1888WAT     H2 5876   0.910   4.765   1.245 -1.3532  1.2779 -0.0260
 1889WAT      O 5877   1.439   2.137   3.158 -0.1642 -0.3761  0.0878
 1889WAT     H1 5878   1.492   2.124   3.079  1.7876  0.8173  1.1225
 1889WAT     H2 5879   1.477   2.076   3.222  0.4329  0.9469  1.0328
 1890WAT      O 5880   3.953   0.839   2.047 -0.0150 -0.1198 -0.6013
 1890WAT     H1 5881   4.042   0.866   2.024  1.8564 -0.8136  4.4560
 1890WAT     H2 5882   3.958   0.743   2.051 -0.8524 -0.1415  0.1688
 1891WAT      O 5883   3.326   1.964   2.957 -0.4389  0.0557  0.0299
 1891WAT     H1 5884   3.297   1.876   2.978 -2.2423  0.6372  0.1293
 1891WAT     H2 5885   3.345   2.004   3.041  0.6427 -0.3000 -0.0308
 1892WAT      O 5886   1.044   3.281   4.270  1.0299  0.3242 -0.1281
 1892WAT     H1 5887   1.065   3.312   4.182  1.2549 -1.9946 -0.9573
 1892WAT     H2 5888   1.113   3.318   4.325  2.3915 -0.2329 -1.3882
 1893WAT      O 5889   2.297   3.892   0.423  0.3671 -0.9670  0.0092
 1893WAT     H1 5890   2.337   3.870   0.339 -0.2596  0.8190 -0.8031
 1893WAT     H2 5891   2.310   3.814   0.477  2.8521 -1.2917 -0.9503
 1894WAT      O 5892   2.449   1.567   0.234  0.1562 -0.0718  0.1981
 1894WAT     H1 5893   2.448   1.500   0.166  0.1627 -1.2272  1.3062
 1894WAT     H2 5894   2.390   1.534   0.301  1.3803  0.2552  1.4831
 1895WAT      O 5895   3.233   4.034   1.182 -0.9466 -0.5550  0.1357
 1895WAT     H1 5896   3.323   4.002   1.181 -1.2456 -1.4240  0.3949
 1895WAT     H2 5897   3.201   4.018   1.093 -0.1047  2.0055 -0.7288
 1896WAT      O 5898   2.606   4.818   1.901 -0.0788 -0.4574  0.1052
 1896WAT     H1 5899   2.593   4.835   1.994  1.3711  2.6269 -0.1550
 1896WAT     H2 5900   2.700   4.806   1.891  0.0874  1.5300 -1.2165
 1897WAT      O 5901   4.013   2.169   4.010  0.0624 -0.0171  0.6772
 1897WAT     H1 5902   4.100   2.207   4.012  0.2471 -0.2286 -1.1894
 1897WAT     H2 5903   4.027   2.075   4.019 -0.0519  0.0187  1.2505
 1898WAT      O 5904   2.520   4.042   3.906 -0.4944  0.1804 -0.3593
 1898WAT     H1 5905   2.579   4.084   3.969  0.3681 -2.3949  0.6799
 1898WAT     H2 5906   2.473   3.976   3.958  0.0777 -1.8985 -2.3131
 1899WAT      O 5907   3.872   2.457   1.482  0.0784 -0.3105  0.5416
 1899WAT     H1 5908   3.963   2.427   1.481 -0.2992 -1.6362  2.3322
 1899WAT     H2 5909   3.833   2.417   1.403  1.2154  1.0284 -0.7609
 1900WAT      O 5910   1.959   2.938   0.886  0.1767  0.1092  0.3016
 1900WAT     H1 5911   1.890   2.871   0.883 -0.0008  0.3230 -0.7649
 1900WAT     H2 5912   2.040   2.889   0.871 -0.0646  0.2489 -1.7865
 1901WAT      O 5913   3.316   1.811   4.064  0.2069 -0.7170 -0.3804
 1901WAT     H1 5914   3.393   1.755   4.075  0.5479 -0.1112  0.3167
 1901WAT     H2 5915   3.307   1.819   3.969  1.1300 -0.6158 -0.4691
 1902WAT      O 5916   1.532   3.162   4.974 -0.1157  0.3240 -0.9343
 1902WAT     H1 5917   1.625   3.139   4.972 -0.1661  0.0701 -0.5526
 1902WAT     H2 5918   1.526   3.228   5.043 -0.3702 -0.3898 -0.2579
 1903WAT      O 5919   1.271   4.097   4.526  0.0507 -0.0073  0.0749
 1903WAT     H1 5920   1.310   4.062   4.446  0.3408 -0.9193  0.6027
 1903WAT     H2 5921   1.292   4.190   4.524  1.0792 -0.2348 -0.3240
 1904WAT      O 5922   1.593   3.130   1.188 -0.2402  0.4648 -0.0963
 1904WAT     H1 5923   1.650   3.193   1.143  2.6291 -1.5114  0.5126
 1904WAT     H2 5924   1.565   3.070   1.118 -1.0713  1.0605 -0.2843
 1905WAT      O 5925   1.539   3.925   1.103 -0.3800  0.9090 -0.2306
 1905WAT     H1 5926   1.610   3.911   1.041 -0.3951 -2.9399  0.3927
 1905WAT     H2 5927   1.582   3.963   1.180  0.9886 -0.6974 -0.1265
 1906WAT      O 5928   3.057   2.436   4.479 -0.4152  0.2965  0.0555
 1906WAT     H1 5929   3.097   2.351   4.499  1.3161  1.2135  0.7146
 1906WAT     H2 5930   2.999   2.453   4.554  0.7229  0.5557  0.8997
 1907WAT      O 5931   0.345   0.811   4.237  0.0954  0.2823  0.1918
 1907WAT     H1 5932   0.394   0.860   4.302  0.6813  1.4314 -1.0683
 1907WAT     H2 5933   0.406   0.801   4.164 -0.9336  0.1081 -0.6684
 1908WAT      O 5934   2.169   4.232   1.602 -0.5556 -0.3402  0.3011
 1908WAT     H1 5935   2.107   4.253   1.672 -0.2607 -1.4393  0.9086
 1908WAT     H2 5936   2.213   4.316   1.583 -2.3353  0.5041 -0.2899
 1909WAT      O 5937   0.248   2.184   1.611 -0.2042 -0.1565 -0.3036
 1909WAT     H1 5938   0.307   2.206   1.683 -1.5305  0.3399  0.6792
 1909WAT     H2 5939   0.265   2.092   1.594 -1.1769 -0.8394  1.9885
 1910WAT      O 5940   3.573   2.050   0.625 -0.4234 -0.6267 -0.1359
 1910WAT     H1 5941   3.611   2.001   0.697 -0.9620 -1.0190 -0.1145
 1910WAT     H2 5942   3.570   2.141   0.657 -3.0858 -1.1506  1.4185
 1911WAT      O 5943   0.694   3.580   0.385 -0.7356 -0.4055 -0.5305
 1911WAT     H1 5944   0.706   3.587   0.291 -2.9630  0.0779 -0.8299
 1911WAT     H2 5945   0.782   3.586   0.421  0.0812  0.3490 -2.5215
 1912WAT      O 5946   4.403   4.064   0.431 -0.0441  0.1486  0.1616
 1912WAT     H1 5947   4.393   4.029   0.520  2.2459 -0.9443  0.0619
 1912WAT     H2 5948   4.487   4.110   0.433 -0.7308  1.5543 -1.0388
 1913WAT      O 5949   2.369   4.964   3.676 -0.4732  0.2238  0.0732
 1913WAT     H1 5950   2.411   5.041   3.637  0.3627  0.0451  0.5801
 1913WAT     H2 5951   2.399   4.965   3.767  1.7320 -2.1247 -0.4932
 1914WAT      O 5952   4.177   0.393   0.158 -0.2948 -0.0143 -0.5710
 1914WAT     H1 5953   4.121   0.320   0.131 -1.9910  0.7974  0.5061
 1914WAT     H2 5954   4.232   0.357   0.227 -0.9583 -0.3540 -0.2045
 1915WAT      O 5955   1.717   5.132   2.305 -0.2669  0.4181 -0.2331
 1915WAT     H1 5956   1.671   5.170   2.379  0.7049 -1.0809  1.2146
 1915WAT     H2 5957   1.809   5.133   2.331  0.2790  1.0859 -2.0121
 1916WAT      O 5958   0.203   2.628   0.381  0.0493 -0.2142  0.1031
 1916WAT     H1 5959   0.129   2.658   0.328  0.3781 -0.5733 -0.5699
 1916WAT     H2 5960   0.178   2.541   0.411  0.6112 -0.7698 -0.9804
 1917WAT      O 5961   2.729   0.410   3.884  0.7277  0.2385 -0.1034
 1917WAT     H1 5962   2.767   0.497   3.876 -0.0201  0.5479 -0.4079
 1917WAT     H2 5963   2.638   0.425   3.909  0.9313 -0.5057  1.1475
 1918WAT      O 5964   2.610   2.035   2.383 -0.1571  0.3746  0.4978
 1918WAT     H1 5965   2.528   2.006   2.423 -0.8019  0.4572 -0.6930
 1918WAT     H2 5966   2.631   2.117   2.427  0.0147 -0.3263  1.7428
 1919WAT      O 5967   1.088   3.327   1.689 -0.7263  0.0022 -0.0621
 1919WAT     H1 5968   0.997   3.311   1.711 -0.3109 -3.4761 -0.3395
 1919WAT     H2 5969   1.093   3.309   1.595  0.5683 -2.1505  0.3448
 1920WAT      O 5970   2.843   4.709   1.250  0.1334  0.5439  0.3277
 1920WAT     H1 5971   2.793   4.773   1.200  0.3521 -0.1504 -0.8175
 1920WAT     H2 5972   2.780   4.674   1.314  0.0337  1.9078  1.0157
 1921WAT      O 5973   2.787   1.496   4.719 -0.0533 -0.3685  0.0833
 1921WAT     H1 5974   2.805   1.522   4.810  1.2037  1.7320 -0.7007
 1921WAT     H2 5975   2.713   1.435   4.727 -1.9876  1.9960  2.3243
 1922WAT      O 5976   3.405   4.500   3.729  0.0319 -0.1831 -0.7516
 1922WAT     H1 5977   3.467   4.564   3.764  1.4235 -0.7705 -2.0451
 1922WAT     H2 5978   3.459   4.438   3.680 -1.2099 -2.5414  0.6565
 1923WAT      O 5979   4.002   1.273   3.821  0.3275 -0.0639 -0.2022
 1923WAT     H1 5980   3.908   1.264   3.802  0.2679  0.6533 -0.2628
 1923WAT     H2 5981   4.025   1.360   3.790  0.5436  0.6030  1.7004
 1924WAT      O 5982   0.148   1.211   0.136  0.2646  0.0999 -0.1056
 1924WAT     H1 5983   0.133   1.116   0.134  0.0548  0.0999  0.9208
 1924WAT     H2 5984   0.092   1.245   0.066 -0.0529 -0.4821 -0.1482
 1925WAT      O 5985   2.891   3.344   0.138 -0.1915 -0.0409 -0.5650
 1925WAT     H1 5986   2.876   3.277   0.072 -1.3850 -0.0133 -0.3441
 1925WAT     H2 5987   2.816   3.338   0.197 -0.3021  1.4460 -0.5101
 1926WAT      O 5988   4.296   1.415   5.145  0.1708  0.1672 -0.0731
 1926WAT     H1 5989   4.318   1.397   5.237  0.7816  0.3029 -0.1933
 1926WAT     H2 5990   4.308   1.510   5.136 -1.5270  0.4379  0.1478
 1927WAT      O 5991   2.087   2.550   3.043 -0.4251 -0.5815 -0.2367
 1927WAT     H1 5992   2.035   2.627   3.065  0.3443 -0.5783  1.7753
 1927WAT     H2 5993   2.083   2.495   3.121  1.2568 -1.3135 -0.6218
 1928WAT      O 5994   3.313   0.699   4.346  0.3276 -0.0714 -0.1196
 1928WAT     H1 5995   3.309   0.626   4.408  1.1354 -0.7334 -0.8261
 1928WAT     H2 5996   3.375   0.760   4.385  0.9944 -0.5836 -0.3600
 1929WAT      O 5997   4.411   4.854   0.929 -0.0244  0.2011 -0.0762
 1929WAT     H1 5998   4.406   4.769   0.886 -1.5093 -0.7463  1.8016
 1929WAT     H2 5999   4.439   4.914   0.860 -1.0166 -1.4160 -1.9972
 1930WAT      O 6000   0.620   5.020   4.789  0.3394 -0.0750 -0.0325
 1930WAT     H1 6001   0.534   5.012   4.749  0.9103  0.7768 -1.5295
 1930WAT     H2 6002   0.682   5.012   4.716  1.5142 -0.2272  0.9368
 1931WAT      O 6003   3.398   2.551   1.479 -0.4693 -0.3643 -0.4950
 1931WAT     H1 6004   3.476   2.599   1.507 -0.3473 -0.8239 -0.0393
 1931WAT     H2 6005   3.327   2.590   1.530 -0.0379 -2.1890  1.6441
 1932WAT      O 6006   0.930   4.857   2.226 -0.7511 -0.1822  0.7151
 1932WAT     H1 6007   0.853   4.851   2.283 -0.7826 -0.0230  0.6905
 1932WAT     H2 6008   0.895   4.840   2.138 -0.7436 -0.1960  0.7148
 1933WAT      O 6009   0.450   3.901   0.277 -0.3993  0.1460  0.3514
 1933WAT     H1 6010   0.411   3.905   0.365  0.1128  0.4113  0.5706
 1933WAT     H2 6011   0.522   3.964   0.281  1.9505 -2.4306  0.8829
 1934WAT      O 6012   3.820   1.573   3.174 -0.5626  0.2187  0.4767
 1934WAT     H1 6013   3.769   1.618   3.241  0.5123  3.4371 -0.6904
 1934WAT     H2 6014   3.911   1.591   3.197 -0.1233 -0.3637 -0.7350
 1935WAT      O 6015   3.915   1.831   0.197  0.0873 -0.1087  0.4317
 1935WAT     H1 6016   3.985   1.896   0.197  2.2208 -2.2744  0.8037
 1935WAT     H2 6017   3.853   1.863   0.263  1.5105  1.1071  1.2413
 1936WAT      O 6018   0.742   0.850   0.339 -0.6938  0.6777  0.5007
 1936WAT     H1 6019   0.783   0.816   0.260  0.4552  0.0914  1.3297
 1936WAT     H2 6020   0.649   0.828   0.329 -0.8032  1.7208 -1.2439
 1937WAT      O 6021   3.027   1.760   5.040 -0.3379  0.1187 -0.0944
 1937WAT     H1 6022   3.102   1.741   4.984  0.1850  0.0418  0.6172
 1937WAT     H2 6023   2.991   1.841   5.005 -1.1779 -0.9027 -1.7071
 1938WAT      O 6024   0.297   4.788   1.939  0.6150  0.0777 -0.0850
 1938WAT     H1 6025   0.365   4.854   1.952  1.1452 -0.3278 -0.7725
 1938WAT     H2 6026   0.318   4.720   2.003 -0.6396  1.0978  1.4854
 1939WAT      O 6027   2.080   4.040   3.793 -0.1461 -0.3209 -0.6226
 1939WAT     H1 6028   2.035   4.120   3.766  0.5141 -0.4447 -2.2047
 1939WAT     H2 6029   2.062   3.978   3.723  1.7849 -0.6240 -0.9081
 1940WAT      O 6030   0.242   4.667   0.219 -0.0996  0.4064 -0.0376
 1940WAT     H1 6031   0.261   4.744   0.273  0.8080  0.7903 -0.8933
 1940WAT     H2 6032   0.326   4.641   0.183 -0.5715 -0.3344 -0.6307
 1941WAT      O 6033   3.749   5.034   4.532  0.3356  0.3893 -0.4528
 1941WAT     H1 6034   3.725   5.111   4.481 -0.1498 -0.3156 -1.3030
 1941WAT     H2 6035   3.767   4.966   4.467  4.3140  0.6869  0.0406
 1942WAT      O 6036   1.062   0.913   0.802 -0.1278  0.0781  0.5252
 1942WAT     H1 6037   1.027   0.912   0.712 -2.5053  1.7450  1.3268
 1942WAT     H2 6038   0.994   0.870   0.854  0.8517 -0.1425  1.6746
 1943WAT      O 6039   0.452   1.648   1.093  0.3667 -0.0852  0.1928
 1943WAT     H1 6040   0.483   1.657   1.003  0.2334  2.8907  0.3626
 1943WAT     H2 6041   0.532   1.648   1.146  0.3582  0.2757  0.2041
 1944WAT      O 6042   2.619   4.667   0.837 -0.1819 -0.6893  0.0142
 1944WAT     H1 6043   2.606   4.695   0.747 -1.1290  2.5194  1.0211
 1944WAT     H2 6044   2.712   4.683   0.854 -0.1758 -0.5294 -0.1662
 1945WAT      O 6045   1.212   4.816   4.261 -0.2285 -1.0589  0.2289
 1945WAT     H1 6046   1.144   4.788   4.200  0.6133 -0.9673 -0.7969
 1945WAT     H2 6047   1.233   4.738   4.312 -1.5246 -0.9288  1.0107
 1946WAT      O 6048   0.446   3.702   2.989  0.3645  0.1653 -0.2712
 1946WAT     H1 6049   0.496   3.778   3.017 -0.2549  0.4943 -0.0527
 1946WAT     H2 6050   0.508   3.629   2.994  0.9166  0.6282 -0.3418
 1947WAT      O 6051   2.124   2.025   2.245  0.4785 -0.1368  0.3990
 1947WAT     H1 6052   2.136   1.979   2.162 -2.4071 -2.1128  0.9220
 1947WAT     H2 6053   2.178   1.976   2.307  0.3679 -0.4611  0.2400
 1948WAT      O 6054   1.432   3.461   3.172  0.2242  0.2343 -0.4016
 1948WAT     H1 6055   1.460   3.547   3.203  0.6490  0.4201 -1.2763
 1948WAT     H2 6056   1.345   3.449   3.210  1.0162  0.1120  1.4894
 1949WAT      O 6057   4.393   2.444   4.532  0.0389  0.1053 -0.1240
 1949WAT     H1 6058   4.429   2.413   4.449 -0.1309 -1.6976  0.4199
 1949WAT     H2 6059   4.460   2.420   4.597 -0.9723 -0.9670  0.5707
 1950WAT      O 6060   0.324   1.373   5.205 -0.4147  0.1427 -0.3998
 1950WAT     H1 6061   0.256   1.309   5.223  0.0716 -0.6842 -1.3721
 1950WAT     H2 6062   0.345   1.412   5.290  0.0560 -1.7952  0.4101
 1951WAT      O 6063   2.549   3.047   1.362  0.0217  0.2055  0.0810
 1951WAT     H1 6064   2.463   3.007   1.374 -0.4043  0.7241 -1.0422
 1951WAT     H2 6065   2.568   3.033   1.269  1.6212 -0.7892  0.5169
 1952WAT      O 6066   0.735   2.933   4.921  0.3485  0.6023 -0.0333
 1952WAT     H1 6067   0.741   2.984   4.841  0.8804  0.0857 -0.3249
 1952WAT     H2 6068   0.641   2.913   4.929  0.2959  0.6344 -0.5342
 1953WAT      O 6069   2.617   4.284   1.343 -0.4433  0.2238  0.7273
 1953WAT     H1 6070   2.584   4.299   1.254 -1.2851 -2.1380  0.5785
 1953WAT     H2 6071   2.549   4.319   1.400 -0.6161  0.3689  0.4367
 1954WAT      O 6072   1.825   4.084   2.088 -0.7390  0.4056 -0.0090
 1954WAT     H1 6073   1.819   3.993   2.058  0.2216  0.4543 -0.3555
 1954WAT     H2 6074   1.916   4.108   2.075 -0.9441  1.3675  0.2591
 1955WAT      O 6075   0.206   3.045   0.291 -0.2551 -0.4925  0.5490
 1955WAT     H1 6076   0.142   2.994   0.242 -0.9689  1.0600 -0.1948
 1955WAT     H2 6077   0.174   3.042   0.382 -0.0958 -1.6192  0.5771
 1956WAT      O 6078   3.438   1.635   4.711 -0.7791  0.3653 -0.1668
 1956WAT     H1 6079   3.418   1.682   4.630  1.7532  1.6800 -0.1398
 1956WAT     H2 6080   3.465   1.548   4.682  0.3451  0.8983 -0.8192
 1957WAT      O 6081   0.920   0.903   0.520  0.3531  0.2063 -0.5867
 1957WAT     H1 6082   0.847   0.886   0.461  0.2735  0.4274 -0.5530
 1957WAT     H2 6083   0.998   0.902   0.464  0.3702 -0.4223 -0.5609
 1958WAT      O 6084   2.539   1.396   3.285  0.2498 -0.4688 -0.4505
 1958WAT     H1 6085   2.597   1.374   3.212  1.3077  2.1402 -0.4850
 1958WAT     H2 6086   2.596   1.400   3.361 -0.1004  0.7548 -0.2316
 1959WAT      O 6087   0.475   4.256   2.452 -0.0420 -0.1193 -0.3026
 1959WAT     H1 6088   0.561   4.290   2.427  0.4003 -1.7034 -1.0763
 1959WAT     H2 6089   0.437   4.225   2.370 -0.4547 -1.3552  0.3362
 1960WAT      O 6090   4.451   2.033   2.213  0.4441  0.1040  0.1380
 1960WAT     H1 6091   4.432   1.946   2.248  1.5755  0.4071  1.6059
 1960WAT     H2 6092   4.425   2.094   2.282  1.1767  0.8266 -0.1928
 1961WAT      O 6093   1.150   0.986   1.109  0.3388 -0.5455 -0.0938
 1961WAT     H1 6094   1.230   0.952   1.149  0.6620  1.1498  0.7566
 1961WAT     H2 6095   1.089   0.912   1.109  0.8654 -1.0223  2.0993
 1962WAT      O 6096   3.846   2.743   1.515 -0.3877  0.0120  0.2075
 1962WAT     H1 6097   3.866   2.650   1.502  1.0628  0.1935  0.8585
 1962WAT     H2 6098   3.754   2.745   1.539 -0.3246 -1.3175  0.6510
 1963WAT      O 6099   3.541   1.831   1.375 -0.2998 -0.5747 -0.6023
 1963WAT     H1 6100   3.452   1.855   1.401 -0.4406 -0.9950 -0.6838
 1963WAT     H2 6101   3.588   1.914   1.371 -0.9096 -0.2448 -1.3762
 1964WAT      O 6102   0.388   0.189   3.754 -0.2407 -0.1773 -0.0016
 1964WAT     H1 6103   0.469   0.235   3.774  0.0052 -1.1196  1.3323
 1964WAT     H2 6104   0.416   0.112   3.705 -0.4063 -0.1308 -0.1702
 1965WAT      O 6105   1.411   0.063   3.676 -0.0712  0.8161  0.5967
 1965WAT     H1 6106   1.476  -0.007   3.684  0.4439  0.9960 -1.4262
 1965WAT     H2 6107   1.448   0.135   3.727  1.1909  0.7876 -0.2070
 1966WAT      O 6108   2.483   2.860   1.952  0.0133  0.2762  0.0989
 1966WAT     H1 6109   2.406   2.857   1.896 -0.1077 -3.6493  0.1448
 1966WAT     H2 6110   2.503   2.953   1.962 -3.1784  1.3389 -1.9470
 1967WAT      O 6111   3.128   1.400   2.043  0.2375  0.1204 -0.4090
 1967WAT     H1 6112   3.137   1.394   1.948  1.7433 -2.2911 -0.2057
 1967WAT     H2 6113   3.203   1.352   2.077  0.9493  2.7407  2.0812
 1968WAT      O 6114   4.121   4.988   0.640 -0.1965 -0.7749  0.3008
 1968WAT     H1 6115   4.154   5.008   0.728  1.1373 -0.2284 -0.3036
 1968WAT     H2 6116   4.189   4.931   0.602 -0.4442 -0.4662 -0.6125
 1969WAT      O 6117   3.387   4.002   3.492 -0.1841  0.0148 -0.1079
 1969WAT     H1 6118   3.334   4.076   3.461  0.3079  0.9179  1.1192
 1969WAT     H2 6119   3.464   4.002   3.435 -0.5340 -0.0192 -0.5838
 1970WAT      O 6120   0.380   2.818   4.571  0.0419  0.2449  0.1977
 1970WAT     H1 6121   0.352   2.780   4.654  0.0781  0.9056  0.5180
 1970WAT     H2 6122   0.445   2.885   4.596 -0.1194  0.6057 -0.3414
 1971WAT      O 6123   1.974   1.835   4.098 -0.4965  0.0309 -0.3900
 1971WAT     H1 6124   1.991   1.807   4.187  0.5384  2.5837  0.3320
 1971WAT     H2 6125   2.061   1.853   4.062 -0.9779  3.1763 -0.3304
 1972WAT      O 6126   3.873   1.919   0.977 -0.0310 -0.4253  0.2258
 1972WAT     H1 6127   3.918   1.985   1.030 -0.7063 -1.0030  1.5691
 1972WAT     H2 6128   3.943   1.867   0.939  0.5054  0.8366 -0.5864
 1973WAT      O 6129   3.530   4.893   0.647 -0.4947  0.7931  0.2464
 1973WAT     H1 6130   3.622   4.874   0.668 -0.4769 -1.7480 -1.6554
 1973WAT     H2 6131   3.530   4.910   0.553 -2.3580 -3.2403 -0.6771
 1974WAT      O 6132   0.908   3.591   5.218  0.3412  0.3404 -0.4529
 1974WAT     H1 6133   0.970   3.655   5.183 -0.0836  0.4687 -0.9944
 1974WAT     H2 6134   0.822   3.627   5.196  0.0803 -0.0198 -0.0432
 1975WAT      O 6135   0.096   1.013   5.056 -0.6146  0.2867 -0.1680
 1975WAT     H1 6136   0.130   1.030   4.968 -1.4177 -0.2225 -0.5891
 1975WAT     H2 6137   0.062   0.923   5.052 -0.7527  0.2919  0.6331
 1976WAT      O 6138   0.083   2.589   4.082  0.0613  0.7276  0.1071
 1976WAT     H1 6139   0.112   2.587   4.174  1.5307  0.1020 -0.3367
 1976WAT     H2 6140   0.024   2.664   4.078 -0.9032  0.1250  1.8030
 1977WAT      O 6141   1.952   0.122   2.979 -0.6734  0.0322  0.1017
 1977WAT     H1 6142   1.916   0.210   2.988  0.4495  0.4755  0.3720
 1977WAT     H2 6143   2.010   0.112   3.054 -1.8113 -1.4698  0.8395
 1978WAT      O 6144   1.095   2.303   5.260 -0.2304 -0.0329  0.0034
 1978WAT     H1 6145   1.154   2.305   5.336 -0.9920  1.4974  0.5917
 1978WAT     H2 6146   1.070   2.211   5.252 -0.4630 -0.1860  1.9092
 1979WAT      O 6147   2.760   4.912   1.593  0.0553 -0.0803  0.2636
 1979WAT     H1 6148   2.697   4.962   1.645  0.8657  0.0253  1.1820
 1979WAT     H2 6149   2.835   4.900   1.652  1.6591  1.3598 -1.3522
 1980WAT      O 6150   0.100   0.651   5.100 -0.8425 -0.2228  0.6518
 1980WAT     H1 6151   0.054   0.701   5.033  0.0386 -0.8189 -0.4284
 1980WAT     H2 6152   0.035   0.638   5.169 -1.2398  2.0018  0.7926
 1981WAT      O 6153   2.616   0.020   0.130  0.1949  0.2444  0.6893
 1981WAT     H1 6154   2.629   0.021   0.035  0.8363 -0.4091  0.7622
 1981WAT     H2 6155   2.524   0.043   0.141 -0.0022 -0.1081 -0.1126
 1982WAT      O 6156   1.264   1.209   4.011  0.0616  0.3459 -0.9077
 1982WAT     H1 6157   1.349   1.180   3.977  0.1577 -0.0008 -0.3900
 1982WAT     H2 6158   1.287   1.265   4.085 -0.1739 -0.3901 -0.2690
 1983WAT      O 6159   4.026   1.057   1.067 -0.5132 -0.3178  0.1382
 1983WAT     H1 6160   3.983   0.981   1.105 -1.0164  0.5169  1.3171
 1983WAT     H2 6161   3.955   1.121   1.055  0.1151  0.4741  0.5446
 1984WAT      O 6162   1.913   4.245   2.715 -0.1771  0.4091 -1.2821
 1984WAT     H1 6163   1.918   4.238   2.619 -0.5888  0.6019 -1.3195
 1984WAT     H2 6164   1.947   4.333   2.734 -1.8163  1.1016 -1.4091
 1985WAT      O 6165   3.663   3.736   1.411 -0.8115 -0.1836 -0.8273
 1985WAT     H1 6166   3.601   3.698   1.349 -1.7308  0.2526 -0.2045
 1985WAT     H2 6167   3.622   3.819   1.437 -0.6570 -0.5534  0.6741
 1986WAT      O 6168   3.580   4.297   3.598  0.6396 -0.0754  0.1212
 1986WAT     H1 6169   3.572   4.278   3.504  0.9194 -0.7494  0.2284
 1986WAT     H2 6170   3.532   4.226   3.641 -1.2895  1.3533  0.4459
 1987WAT      O 6171   0.895   1.056   1.856  0.0761  0.1636  0.3149
 1987WAT     H1 6172   0.964   1.083   1.916 -1.3256  0.1349  2.0115
 1987WAT     H2 6173   0.855   1.138   1.827 -0.4518  0.1065  0.8888
 1988WAT      O 6174   0.916   3.771   1.420 -0.1632 -0.0279 -0.5136
 1988WAT     H1 6175   0.862   3.698   1.389 -1.1035 -0.1639  1.3205
 1988WAT     H2 6176   0.936   3.821   1.340 -0.7813 -1.4248 -1.5974
 1989WAT      O 6177   1.844   3.778   2.417  0.0756  0.8659  0.2177
 1989WAT     H1 6178   1.848   3.703   2.476  1.8779  0.1122 -0.7855
 1989WAT     H2 6179   1.916   3.834   2.445  0.9384  0.5075 -1.2012
 1990WAT      O 6180   3.284   3.590   1.823 -0.0331 -0.1941  0.0511
 1990WAT     H1 6181   3.303   3.683   1.820 -1.7868  0.2007 -0.2283
 1990WAT     H2 6182   3.262   3.567   1.732 -2.0530 -0.2614  0.5001
 1991WAT      O 6183   3.415   0.248   0.266  0.1155 -0.3085  0.0073
 1991WAT     H1 6184   3.488   0.233   0.205  0.1015  1.1290 -0.3970
 1991WAT     H2 6185   3.363   0.168   0.261  0.2680 -0.3453 -1.6926
 1992WAT      O 6186   1.439   3.587   4.559 -0.4812 -0.4750 -0.0522
 1992WAT     H1 6187   1.527   3.564   4.529 -0.9253 -1.1663 -0.8775
 1992WAT     H2 6188   1.419   3.669   4.515 -0.2488 -0.3273  0.1216
 1993WAT      O 6189   0.286   1.032   1.345 -0.0165 -0.1105 -0.5622
 1993WAT     H1 6190   0.354   1.048   1.279  0.1513  0.2464 -0.3084
 1993WAT     H2 6191   0.286   0.937   1.357  2.1777  0.0126  1.2225
 1994WAT      O 6192   1.812   4.236   1.639  0.3554 -0.4879  0.0380
 1994WAT     H1 6193   1.813   4.142   1.651  0.5064 -0.3290  1.4236
 1994WAT     H2 6194   1.721   4.261   1.654  0.2939 -0.4186 -0.4329
 1995WAT      O 6195   4.351   0.502   2.366  0.1959  0.3701  0.5780
 1995WAT     H1 6196   4.309   0.499   2.452 -1.9670 -0.4002 -0.4400
 1995WAT     H2 6197   4.289   0.548   2.310  0.8187 -0.5485 -0.9263
 1996WAT      O 6198   2.108   4.601   2.983  0.1306 -0.1047 -0.6418
 1996WAT     H1 6199   2.017   4.605   3.013  0.4672  1.2183  0.2876
 1996WAT     H2 6200   2.124   4.687   2.943  0.5110 -0.8915 -2.2492
 1997WAT      O 6201   2.963   1.011   4.312  0.8107  0.2747 -0.1748
 1997WAT     H1 6202   3.042   1.064   4.319 -0.5097  2.5051 -1.1915
 1997WAT     H2 6203   2.912   1.052   4.243 -1.0788 -1.3346  0.1634
 1998WAT      O 6204   3.496   0.493   4.912  0.0770  0.2154 -0.0704
 1998WAT     H1 6205   3.569   0.547   4.944 -1.1270  2.5257 -0.9862
 1998WAT     H2 6206   3.467   0.538   4.833 -2.1764 -0.7933  0.1238
 1999WAT      O 6207   4.169   2.988   0.125 -0.1531  0.0329 -0.4404
 1999WAT     H1 6208   4.229   3.024   0.190  1.7856 -0.6071 -1.8018
 1999WAT     H2 6209   4.198   2.898   0.112 -0.4678  0.1589 -2.2060
 2000WAT      O 6210   2.553   3.692   1.605 -0.4588 -0.1116  0.5772
 2000WAT     H1 6211   2.603   3.764   1.566 -2.0417  0.6595 -0.1155
 2000WAT     H2 6212   2.554   3.623   1.539 -1.0660  0.2668  0.1527
 2001WAT      O 6213   3.603   4.624   5.089 -0.5454  0.7166 -0.6227
 2001WAT     H1 6214   3.678   4.676   5.119 -0.5511  0.2162  0.2957
 2001WAT     H2 6215   3.626   4.534   5.111 -1.5651  0.5945 -0.0143
 2002WAT      O 6216   0.893   2.420   1.348 -0.3135 -0.5499 -0.0053
 2002WAT     H1 6217   0.849   2.360   1.409 -1.4547 -0.7654 -1.0002
 2002WAT     H2 6218   0.833   2.494   1.341 -0.5780 -0.8619 -1.4147
 2003WAT      O 6219   4.169   0.206   3.417  0.2582 -0.0783  0.2330
 2003WAT     H1 6220   4.155   0.112   3.430  1.4186 -0.4456 -0.9743
 2003WAT     H2 6221   4.256   0.222   3.453 -0.5644  0.8906  1.9042
 2004WAT      O 6222   0.601   0.965   3.792 -0.1217 -0.2052 -0.1304
 2004WAT     H1 6223   0.627   0.873   3.801 -1.9328 -0.7715 -0.4142
 2004WAT     H2 6224   0.618   1.003   3.878  0.1041 -0.9499  0.1596
 2005WAT      O 6225   3.825   1.326   3.458 -0.0802  0.3699  0.0442
 2005WAT     H1 6226   3.778   1.324   3.542 -0.1480  1.3216  0.0373
 2005WAT     H2 6227   3.758   1.355   3.395 -0.4561 -1.8085 -0.6398
 2006WAT      O 6228   0.080   1.803   1.448 -0.3007  0.5983  0.0461
 2006WAT     H1 6229   0.106   1.775   1.360 -2.0159 -1.9984  0.2737
 2006WAT     H2 6230   0.162   1.835   1.487  1.1550 -0.9863 -1.4957
 2007WAT      O 6231   3.733   0.972   4.178  0.0194 -0.0818  0.0083
 2007WAT     H1 6232   3.712   1.057   4.139  1.3699  0.6974  0.8767
 2007WAT     H2 6233   3.759   0.917   4.104  0.7449  0.7957 -0.4082
 2008WAT      O 6234   3.761   2.921   0.273  0.2481 -0.7298 -0.2577
 2008WAT     H1 6235   3.752   2.975   0.195 -0.1179 -1.2349 -0.5664
 2008WAT     H2 6236   3.672   2.912   0.306  0.2499 -1.5076 -0.4524
 2009WAT      O 6237   4.142   3.403   1.009  0.0529  0.2030  0.3148
 2009WAT     H1 6238   4.222   3.353   1.019 -2.3694 -3.9711  1.3589
 2009WAT     H2 6239   4.122   3.398   0.915 -0.2611 -1.1148  0.4314
 2010WAT      O 6240   1.522   4.297   4.602  0.1589  0.0775  0.1870
 2010WAT     H1 6241   1.465   4.307   4.526  0.9034  2.3700 -0.1410
 2010WAT     H2 6242   1.600   4.253   4.569  1.1246  2.3889 -0.7989
 2011WAT      O 6243   0.546   1.799   1.518 -0.0014 -0.6546 -0.3417
 2011WAT     H1 6244   0.615   1.735   1.535  0.0372 -0.5662 -0.1601
 2011WAT     H2 6245   0.591   1.872   1.477  0.3245  0.1293  1.3195
 2012WAT      O 6246   0.618   2.721   1.883  0.2506  0.0713 -0.3982
 2012WAT     H1 6247   0.698   2.668   1.886 -0.3100 -0.7163  1.3378
 2012WAT     H2 6248   0.633   2.792   1.946  0.0075  0.5687 -0.8867
 2013WAT      O 6249   4.442   2.956   5.155  0.0716 -0.2212  0.4997
 2013WAT     H1 6250   4.517   2.912   5.115  0.8010  1.3661  0.0582
 2013WAT     H2 6251   4.371   2.891   5.150  0.9564 -1.1536 -0.6110
 2014WAT      O 6252   4.419   4.581   0.814  0.3553  0.6591 -0.0452
 2014WAT     H1 6253   4.382   4.533   0.888  2.7465  0.9692  1.4528
 2014WAT     H2 6254   4.460   4.514   0.760 -1.5097  0.4149 -1.2844
 2015WAT      O 6255   2.836   0.952   3.712 -0.5121 -0.0697 -0.3707
 2015WAT     H1 6256   2.807   1.033   3.754  0.8744  0.7862 -0.9847
 2015WAT     H2 6257   2.887   0.906   3.779  0.2633  0.4780 -0.5709
 2016WAT      O 6258   0.423   2.992   3.751  0.5415 -0.5258  0.4642
 2016WAT     H1 6259   0.399   2.911   3.797 -0.1565 -0.9178 -0.5477
 2016WAT     H2 6260   0.369   3.060   3.792 -0.5527 -0.9857 -0.1714
 2017WAT      O 6261   0.954   2.538   0.506 -0.3349 -0.1898  0.0578
 2017WAT     H1 6262   0.929   2.455   0.466 -0.6608 -0.6915  1.2517
 2017WAT     H2 6263   0.966   2.517   0.598  1.5667  0.6781  0.0435
 2018WAT      O 6264   0.918   4.283   4.999  0.2967 -0.0669  0.1912
 2018WAT     H1 6265   0.937   4.279   5.092  2.1833  0.9743 -0.0989
 2018WAT     H2 6266   0.906   4.376   4.980 -0.2687 -0.2824 -0.5820
 2019WAT      O 6267   3.364   0.643   2.167 -0.0497  0.4743 -0.7063
 2019WAT     H1 6268   3.450   0.663   2.130 -0.3830  0.0028 -1.7719
 2019WAT     H2 6269   3.306   0.711   2.133 -0.1363  0.6983 -0.1233
 2020WAT      O 6270   2.808   2.619   0.420 -0.4827  0.6173  0.2016
 2020WAT     H1 6271   2.900   2.598   0.410 -0.4324 -0.2854  2.1249
 2020WAT     H2 6272   2.772   2.615   0.331  0.7981 -1.6177 -0.2877
 2021WAT      O 6273   2.668   0.243   3.653 -0.1214 -0.1888  0.0282
 2021WAT     H1 6274   2.605   0.265   3.584 -0.1996 -0.7279 -0.0727
 2021WAT     H2 6275   2.648   0.305   3.724 -0.3959  0.0099 -0.2179
 2022WAT      O 6276   0.613   0.020   3.631 -0.0280 -0.7489  0.0599
 2022WAT     H1 6277   0.596  -0.072   3.610 -0.9793 -0.5819  0.0532
 2022WAT     H2 6278   0.615   0.064   3.547  1.3316 -0.8925 -0.0020
 2023WAT      O 6279   0.682   1.575   1.648 -1.0003 -0.2717  0.0658
 2023WAT     H1 6280   0.739   1.577   1.724  0.0641 -0.9777 -0.6842
 2023WAT     H2 6281   0.593   1.577   1.684 -0.5286  1.1472  1.2394
 2024WAT      O 6282   1.688   3.406   0.833 -0.1690 -0.2185  0.1765
 2024WAT     H1 6283   1.632   3.349   0.781 -1.7616  0.2146  1.3102
 2024WAT     H2 6284   1.746   3.448   0.770  0.1560 -2.0729 -0.8230
 2025WAT      O 6285   3.591   3.532   0.554 -0.0257  0.2058 -0.0809
 2025WAT     H1 6286   3.659   3.497   0.611  0.1595  0.9724  0.1868
 2025WAT     H2 6287   3.635   3.603   0.506 -0.7415  0.9887  0.4018
 2026WAT      O 6288   2.579  -0.016   3.685  0.1030 -0.0735 -0.1417
 2026WAT     H1 6289   2.577  -0.014   3.589 -1.1319  1.5033 -0.1220
 2026WAT     H2 6290   2.629   0.062   3.710 -2.7183  1.6924  0.4646
 2027WAT      O 6291   0.541   0.456   1.498  0.5335  0.3312  0.0937
 2027WAT     H1 6292   0.471   0.471   1.435  0.6992  0.1495 -0.1346
 2027WAT     H2 6293   0.620   0.448   1.445  0.4837 -1.1671  0.2029
 2028WAT      O 6294   1.726   2.154   3.005 -0.2811  0.5035  0.2295
 2028WAT     H1 6295   1.769   2.197   2.931 -0.3947 -3.1317 -2.2136
 2028WAT     H2 6296   1.641   2.126   2.970 -0.1811 -1.6729  1.5453
 2029WAT      O 6297   0.440   0.775   5.081  0.0882  0.4801 -0.2958
 2029WAT     H1 6298   0.527   0.737   5.094 -1.0813 -1.6117  2.6041
 2029WAT     H2 6299   0.403   0.726   5.008  1.4112  1.6637 -1.8224
 2030WAT      O 6300   1.146   3.402   2.368 -0.0270 -0.1096 -0.4088
 2030WAT     H1 6301   1.172   3.311   2.352 -0.0734 -0.4960  1.4879
 2030WAT     H2 6302   1.069   3.395   2.425 -0.4068  1.1147 -0.7528
 2031WAT      O 6303   0.124   1.962   5.290  0.0455  0.0618 -0.3386
 2031WAT     H1 6304   0.183   1.897   5.251 -0.5213 -0.1029 -0.9384
 2031WAT     H2 6305   0.037   1.931   5.268 -0.2589  0.5593  0.1412
 2032WAT      O 6306   2.662   1.372   4.384  0.2972  0.1978  0.1088
 2032WAT     H1 6307   2.663   1.280   4.357  0.3370  0.3390 -0.3874
 2032WAT     H2 6308   2.642   1.370   4.477  1.9971 -0.4033  0.4801
 2033WAT      O 6309   0.314   0.675   3.905  0.0972 -0.0371 -0.1658
 2033WAT     H1 6310   0.356   0.684   3.820 -1.0095 -1.3136 -0.8927
 2033WAT     H2 6311   0.381   0.699   3.969  1.4957 -0.7394 -1.3274
 2034WAT      O 6312   3.961   0.496   0.920  0.8300  0.2587 -0.1964
 2034WAT     H1 6313   4.044   0.508   0.967  1.1249  1.4608 -0.9627
 2034WAT     H2 6314   3.983   0.513   0.828 -0.4747  1.7997 -0.2749
 2035WAT      O 6315   1.871   0.344   3.846 -0.5206 -0.3766 -0.1307
 2035WAT     H1 6316   1.823   0.412   3.892 -0.1566  0.2993 -0.7318
 2035WAT     H2 6317   1.846   0.353   3.754 -0.2165 -0.8360 -0.2681
 2036WAT      O 6318   4.179   1.089   3.737  0.1077 -0.7917 -0.1611
 2036WAT     H1 6319   4.114   1.147   3.776  0.7498  0.2343 -0.5938
 2036WAT     H2 6320   4.167   1.099   3.643  1.9092  0.6446 -0.2915
 2037WAT      O 6321   3.539   1.084   0.491 -0.2959  0.5863 -0.7995
 2037WAT     H1 6322   3.466   1.038   0.532 -0.2715  1.5608  0.4000
 2037WAT     H2 6323   3.576   1.021   0.430  0.6974 -1.6094  1.8708
 2038WAT      O 6324   3.717   4.134   1.223 -0.4540  0.8294 -0.2466
 2038WAT     H1 6325   3.740   4.213   1.272 -1.0638 -0.0496  1.5536
 2038WAT     H2 6326   3.799   4.107   1.181  0.6751  0.4783  2.0260
 2039WAT      O 6327   3.427   1.951   4.410 -0.2387  0.0574 -0.1271
 2039WAT     H1 6328   3.398   2.016   4.346 -2.5311  0.6887  1.4422
 2039WAT     H2 6329   3.471   2.003   4.477  0.4700 -0.3802 -0.2451
 2040WAT      O 6330   2.684   1.076   4.448  0.5901 -0.0470 -0.7185
 2040WAT     H1 6331   2.599   1.039   4.424 -0.9536  3.2404 -0.8907
 2040WAT     H2 6332   2.748   1.010   4.420 -1.8518 -2.9931  0.0638
 2041WAT      O 6333   1.336   3.616   4.153 -0.1603  0.8149 -0.4023
 2041WAT     H1 6334   1.334   3.543   4.216  0.6775  1.1978  0.0818
 2041WAT     H2 6335   1.420   3.659   4.169  0.8372 -0.0229 -2.8693
 2042WAT      O 6336   1.697   2.200   3.976 -0.6592 -0.0366  0.5280
 2042WAT     H1 6337   1.644   2.249   4.039 -0.1856  0.5651  0.4723
 2042WAT     H2 6338   1.696   2.110   4.009 -1.0176  0.1296  0.9892
 2043WAT      O 6339   0.296   2.194   0.912  0.0218  0.2600  0.2532
 2043WAT     H1 6340   0.203   2.173   0.901  0.2560 -0.1227 -1.1559
 2043WAT     H2 6341   0.303   2.286   0.885 -0.1472  0.7038  1.6282
 2044WAT      O 6342   3.635   2.336   0.739  0.4088 -0.3162  0.5815
 2044WAT     H1 6343   3.587   2.369   0.815  2.2518  0.7256  1.3700
 2044WAT     H2 6344   3.725   2.329   0.770  0.5689 -3.7864 -0.3267
 2045WAT      O 6345   0.432   0.426   2.601 -0.1526 -0.4865 -0.3125
 2045WAT     H1 6346   0.345   0.454   2.570  0.4333 -0.0111 -1.6190
 2045WAT     H2 6347   0.492   0.454   2.531  1.3705  1.2334  1.5485
 2046WAT      O 6348   3.587   3.036   3.512 -0.1917  0.3659  0.3962
 2046WAT     H1 6349   3.610   3.055   3.421  1.4083  2.6417  1.1957
 2046WAT     H2 6350   3.546   3.117   3.543  0.1177 -0.0506  1.9522
 2047WAT      O 6351   3.804   4.266   1.442 -0.3318  0.2685  0.2606
 2047WAT     H1 6352   3.722   4.301   1.476  0.0518  1.9000 -0.3904
 2047WAT     H2 6353   3.859   4.344   1.428  0.2421 -0.5075 -2.1288
 2048WAT      O 6354   2.871   1.430   0.027 -0.6492 -0.0502 -0.0444
 2048WAT     H1 6355   2.924   1.403   0.102 -0.0572 -0.7401 -0.6945
 2048WAT     H2 6356   2.887   1.524   0.019 -1.3136  0.1930  1.1460
 2049WAT      O 6357   2.884   3.019   4.378  0.2051  0.2698 -0.0059
 2049WAT     H1 6358   2.953   2.966   4.418  0.8414  1.3664  0.3919
 2049WAT     H2 6359   2.804   2.992   4.423 -0.0504 -2.5252 -1.9046
 2050WAT      O 6360   3.740   0.105   0.969 -0.3589 -0.0884 -0.0627
 2050WAT     H1 6361   3.801   0.073   0.903 -0.6030 -2.0658  0.5857
 2050WAT     H2 6362   3.692   0.175   0.925 -1.2806 -2.0394 -2.4233
 2051WAT      O 6363   1.379   3.632   1.775 -0.4397 -0.0724 -0.2244
 2051WAT     H1 6364   1.452   3.662   1.829 -0.7735  1.2860 -0.4937
 2051WAT     H2 6365   1.381   3.689   1.698 -2.0198  0.2711 -0.0460
 2052WAT      O 6366   2.334   2.431   4.136  0.1158  0.2084  0.1178
 2052WAT     H1 6367   2.287   2.508   4.169  1.6345  1.0253  0.5029
 2052WAT     H2 6368   2.402   2.468   4.079  0.9176 -0.8458  0.3659
 2053WAT      O 6369   3.798   0.871   4.448 -0.0012  0.2828 -0.0578
 2053WAT     H1 6370   3.890   0.851   4.427 -0.1499 -1.6481  0.8189
 2053WAT     H2 6371   3.763   0.911   4.369  0.6243 -2.4494 -1.8517
 2054WAT      O 6372   0.356   1.147   0.944  0.3981  0.4160 -0.0268
 2054WAT     H1 6373   0.336   1.220   1.003 -0.5987  1.9566 -2.0976
 2054WAT     H2 6374   0.425   1.181   0.887  1.6291 -1.1744  0.4560
 2055WAT      O 6375   3.957   2.557   2.017  0.1124 -0.0155  0.3924
 2055WAT     H1 6376   4.049   2.570   1.994 -0.0025 -0.1688 -0.1841
 2055WAT     H2 6377   3.934   2.474   1.976 -0.7672  0.8891 -1.0205
 2056WAT      O 6378   0.604   3.096   0.519 -0.5684  0.0649 -0.0107
 2056WAT     H1 6379   0.612   3.185   0.554 -0.4036  0.2134 -0.4225
 2056WAT     H2 6380   0.682   3.050   0.552 -0.7552  0.0128  0.3674
 2057WAT      O 6381   3.104   4.030   2.785 -0.7405 -0.1015 -0.3393
 2057WAT     H1 6382   3.151   3.957   2.826 -0.6830 -0.6181 -1.3006
 2057WAT     H2 6383   3.165   4.103   2.790 -0.4915 -0.3227 -0.0748
 2058WAT      O 6384   0.666   3.553   3.812 -0.2949  0.4664 -0.2082
 2058WAT     H1 6385   0.610   3.608   3.757 -0.3327 -0.1267 -0.7838
 2058WAT     H2 6386   0.671   3.470   3.765  2.7903  1.1282 -1.3072
 2059WAT      O 6387   0.449   3.963   3.287 -0.1286 -0.1296 -0.2047
 2059WAT     H1 6388   0.393   4.022   3.236  0.5504  0.7959  0.0826
 2059WAT     H2 6389   0.414   3.968   3.376 -0.2392 -0.3911 -0.2309
 2060WAT      O 6390   1.764   3.314   0.458  0.0020  0.3541  0.4387
 2060WAT     H1 6391   1.755   3.278   0.547 -0.9201 -2.0155 -0.5157
 2060WAT     H2 6392   1.854   3.344   0.453  1.1695 -2.6637  1.1527
 2061WAT      O 6393   1.010   0.431   1.200  0.1451  0.0863 -0.0730
 2061WAT     H1 6394   1.013   0.428   1.104 -0.5588 -0.0540 -0.0985
 2061WAT     H2 6395   1.062   0.356   1.227  1.6536  1.0041 -0.3028
 2062WAT      O 6396   1.560   4.245   1.099  0.4724 -0.0414 -0.2105
 2062WAT     H1 6397   1.546   4.339   1.113  1.4362  0.0927 -0.0660
 2062WAT     H2 6398   1.525   4.204   1.178  1.4023  0.3293  0.4155
 2063WAT      O 6399   2.566   0.035   2.901 -0.5231  0.5228 -0.3225
 2063WAT     H1 6400   2.579   0.067   2.990 -3.2907  0.3546  0.2407
 2063WAT     H2 6401   2.507   0.098   2.861 -0.6119 -0.2650 -1.4891
 2064WAT      O 6402   2.750   3.699   4.860 -0.6834  0.2902 -0.1013
 2064WAT     H1 6403   2.819   3.705   4.928  0.0878  0.4671 -0.8778
 2064WAT     H2 6404   2.735   3.606   4.850  0.6885  0.1460 -1.1225
 2065WAT      O 6405   3.936   0.756   3.823  0.2964 -0.2395 -0.0863
 2065WAT     H1 6406   3.905   0.733   3.736 -0.0064  0.1793 -0.0879
 2065WAT     H2 6407   3.858   0.783   3.871  0.5150 -0.1135  0.2036
 2066WAT      O 6408   0.344   3.812   2.558  0.3769  0.0881 -0.5984
 2066WAT     H1 6409   0.355   3.758   2.479  0.1606 -0.6419 -0.1334
 2066WAT     H2 6410   0.415   3.877   2.551 -0.6268  1.0966 -2.2303
 2067WAT      O 6411   1.564   2.655   3.365  0.5222  0.1225 -0.6936
 2067WAT     H1 6412   1.552   2.613   3.451  0.9449  1.2466 -0.0678
 2067WAT     H2 6413   1.479   2.647   3.323  0.4146 -0.7979 -0.3467
 2068WAT      O 6414   2.979   2.211   2.421  0.5319 -0.5779  0.3658
 2068WAT     H1 6415   2.984   2.284   2.483  0.7669 -1.3227  1.2512
 2068WAT     H2 6416   2.920   2.149   2.463  0.4566 -0.9721 -0.3125
 2069WAT      O 6417   1.321   5.042   4.366 -0.4242  0.1467 -0.7895
 2069WAT     H1 6418   1.284   4.969   4.316 -1.0429  0.6133 -1.0293
 2069WAT     H2 6419   1.414   5.044   4.341 -0.4969 -0.2894 -1.1037
 2070WAT      O 6420   0.069   0.906   0.125  0.0610  0.6394 -0.0999
 2070WAT     H1 6421   0.012   0.890   0.049  0.1684  0.8205 -0.2193
 2070WAT     H2 6422   0.008   0.917   0.198  0.0052 -1.3891  0.2085
 2071WAT      O 6423   2.781   1.560   1.561 -0.3110 -0.4506  0.0934
 2071WAT     H1 6424   2.799   1.474   1.523 -0.6581 -1.0004  1.1387
 2071WAT     H2 6425   2.858   1.580   1.614 -0.1300  0.0017 -0.3268
 2072WAT      O 6426   4.413   3.767   4.343  0.1519  0.0069 -0.9025
 2072WAT     H1 6427   4.500   3.764   4.303  1.5642  0.6821  1.8508
 2072WAT     H2 6428   4.421   3.713   4.422 -1.6259  0.8340 -0.0912
 2073WAT      O 6429   4.063   2.064   4.544  0.9129 -0.1719  0.1883
 2073WAT     H1 6430   4.104   2.149   4.562  2.0321 -0.5754 -0.3973
 2073WAT     H2 6431   4.111   2.001   4.597  0.8792 -0.6195 -0.3049
 2074WAT      O 6432   2.255   2.843   4.475 -0.3166 -0.1078 -0.0071
 2074WAT     H1 6433   2.303   2.918   4.509  2.8110 -2.2455  0.7587
 2074WAT     H2 6434   2.195   2.819   4.545 -0.7104  1.1190  0.0942
 2075WAT      O 6435   0.259   1.547   1.485 -0.1895  0.6659  0.3287
 2075WAT     H1 6436   0.313   1.563   1.563  1.9057  1.1892 -1.1252
 2075WAT     H2 6437   0.230   1.457   1.494 -0.0186  0.7209  1.7257
 2076WAT      O 6438   3.095   0.745   4.754  0.0746  0.0313  0.2687
 2076WAT     H1 6439   3.071   0.793   4.675 -1.4575  0.4379  0.9461
 2076WAT     H2 6440   3.182   0.779   4.777 -0.8207  2.3151  0.5683
 2077WAT      O 6441   4.176   3.339   0.297  0.3282 -0.1873  0.0308
 2077WAT     H1 6442   4.121   3.276   0.250  0.2341 -0.8621  0.9987
 2077WAT     H2 6443   4.173   3.309   0.388  2.9046 -0.7321  0.0239
 2078WAT      O 6444   0.279   4.899   4.113  0.0705 -0.2117 -0.2138
 2078WAT     H1 6445   0.278   4.897   4.018 -1.2958 -0.1070 -0.2149
 2078WAT     H2 6446   0.352   4.958   4.135  1.0285 -1.0082 -1.1471
 2079WAT      O 6447   3.071   3.864   3.992  0.2815 -0.2616  0.1535
 2079WAT     H1 6448   3.145   3.894   3.940  1.3649 -1.0972  1.1562
 2079WAT     H2 6449   3.094   3.887   4.082 -0.4707 -0.9184  0.5306
 2080WAT      O 6450   2.272   3.269   3.163  0.3407  0.2955  0.2437
 2080WAT     H1 6451   2.255   3.362   3.176  1.6051  0.5887 -0.1195
 2080WAT     H2 6452   2.353   3.266   3.113  1.7053 -1.0512  2.3941
 2081WAT      O 6453   2.545   3.819   2.125 -0.1301 -0.0057  0.6405
 2081WAT     H1 6454   2.610   3.882   2.094  0.8222 -0.9190  0.7159
 2081WAT     H2 6455   2.498   3.792   2.047  1.3310 -1.2538  0.1330
 2082WAT      O 6456   3.360   2.394   2.319  0.3677 -0.1029 -0.1768
 2082WAT     H1 6457   3.285   2.453   2.308  1.0879  0.9935  0.6248
 2082WAT     H2 6458   3.391   2.379   2.230 -0.9542 -0.8058 -0.5515
 2083WAT      O 6459   2.362   0.057   1.453 -0.1972 -0.0979 -0.4455
 2083WAT     H1 6460   2.373  -0.038   1.452  1.0328  0.0267 -2.4423
 2083WAT     H2 6461   2.394   0.083   1.539  3.9412 -1.0889 -1.4716
 2084WAT      O 6462   3.694   1.298   0.556 -0.3699 -0.4070 -0.0335
 2084WAT     H1 6463   3.688   1.315   0.650 -2.0187 -2.0836  0.2199
 2084WAT     H2 6464   3.626   1.233   0.539  0.0041 -0.2704 -2.3720
 2085WAT      O 6465   4.069   2.064   1.194 -0.0298 -0.3938 -0.7588
 2085WAT     H1 6466   4.153   2.033   1.160  1.5901  2.0230  0.7678
 2085WAT     H2 6467   4.077   2.054   1.289 -0.8507  1.2203 -0.4894
 2086WAT      O 6468   1.836   3.271   2.361  0.3530  0.0981  0.0342
 2086WAT     H1 6469   1.886   3.304   2.436  0.3783 -1.6175  0.8127
 2086WAT     H2 6470   1.755   3.237   2.399  1.3810 -3.0221 -0.2933
 2087WAT      O 6471   1.269   2.268   3.884 -0.0930 -0.3076 -0.1428
 2087WAT     H1 6472   1.322   2.335   3.927 -1.1611  0.6081 -0.1876
 2087WAT     H2 6473   1.200   2.247   3.947 -0.4697 -0.4766 -0.5999
 2088WAT      O 6474   0.085   1.274   2.248 -0.6923 -0.5991  0.0060
 2088WAT     H1 6475   0.166   1.317   2.272 -0.5132 -1.2502  0.5839
 2088WAT     H2 6476   0.110   1.183   2.230 -1.2187 -0.7043 -0.2299
 2089WAT      O 6477   3.173   2.597   2.308  0.3440  0.5124  0.0805
 2089WAT     H1 6478   3.155   2.684   2.273 -1.5134 -0.3524 -1.2599
 2089WAT     H2 6479   3.128   2.595   2.392 -0.7494  0.4132 -0.4965
 2090WAT      O 6480   1.395   1.296   3.090  0.3608  0.4411  0.1923
 2090WAT     H1 6481   1.464   1.267   3.030 -0.7004 -0.4101 -0.6495
 2090WAT     H2 6482   1.315   1.294   3.037 -0.1368  2.7812  0.7334
 2091WAT      O 6483   1.053   1.547   1.570  0.3716 -0.5832  0.5360
 2091WAT     H1 6484   1.001   1.487   1.623 -0.5244 -0.1076  0.2281
 2091WAT     H2 6485   1.130   1.497   1.544  0.9659 -0.7436  2.4736
 2092WAT      O 6486   4.544   0.634   0.561 -0.0969  0.4187 -0.2084
 2092WAT     H1 6487   4.596   0.705   0.523  0.3189  0.4415  0.3847
 2092WAT     H2 6488   4.455   0.652   0.531  0.1159  0.8073 -0.6235
 2093WAT      O 6489   4.050   2.658   1.106 -0.3011  0.7756 -0.3272
 2093WAT     H1 6490   3.971   2.608   1.129 -0.3808  0.8342 -0.4755
 2093WAT     H2 6491   4.059   2.721   1.178  0.3839 -0.1199  0.4006
 2094WAT      O 6492   2.339   1.773   1.556  0.2085 -0.5461  0.3390
 2094WAT     H1 6493   2.411   1.729   1.603  2.8979  0.7834 -2.2202
 2094WAT     H2 6494   2.312   1.710   1.489  0.6396 -0.1814 -0.1854
 2095WAT      O 6495   3.928   4.523   1.428  0.0640  0.1748 -0.3663
 2095WAT     H1 6496   4.019   4.536   1.401  0.6321 -1.4603  0.5796
 2095WAT     H2 6497   3.881   4.598   1.393  1.8993  1.4006 -0.3299
 2096WAT      O 6498   0.544   3.252   2.733  0.1542  0.4652 -0.0411
 2096WAT     H1 6499   0.563   3.164   2.763  1.0543  1.0075  1.0498
 2096WAT     H2 6500   0.453   3.249   2.704 -0.2489 -0.4862  1.2555
 2097WAT      O 6501   2.490   3.775   3.764 -0.1077 -0.1318  0.5191
 2097WAT     H1 6502   2.431   3.817   3.827  1.0504  0.2717  1.3678
 2097WAT     H2 6503   2.528   3.702   3.812 -0.1112 -0.5417 -0.1023
 2098WAT      O 6504   1.961   5.099   0.307  0.5865 -0.2584 -0.2137
 2098WAT     H1 6505   1.892   5.152   0.347  0.1655  0.7534 -2.1232
 2098WAT     H2 6506   2.001   5.052   0.380  0.1618  1.7730  1.4315
 2099WAT      O 6507   0.275   3.021   2.484 -0.3994 -0.4952  0.5528
 2099WAT     H1 6508   0.264   3.097   2.542  1.9602  0.5568 -0.2547
 2099WAT     H2 6509   0.288   2.947   2.544 -3.1437 -0.4300  1.3615
 2100WAT      O 6510   2.679   0.190   4.015  0.3441  1.0372 -0.6541
 2100WAT     H1 6511   2.687   0.272   3.967  1.0111  1.4166  0.0805
 2100WAT     H2 6512   2.756   0.187   4.071  1.1754 -0.8569 -1.7992
 2101WAT      O 6513   3.709   2.171   1.972  0.4713  0.5505  0.1302
 2101WAT     H1 6514   3.684   2.138   2.058 -0.3737  3.3645  1.0545
 2101WAT     H2 6515   3.630   2.209   1.936  1.4048  1.7347 -0.7644
 2102WAT      O 6516   2.739   1.655   2.865  0.8189 -0.2222  0.3269
 2102WAT     H1 6517   2.719   1.565   2.840  2.7804 -0.3234 -1.1375
 2102WAT     H2 6518   2.655   1.691   2.894  0.1410 -2.7368  1.7830
 2103WAT      O 6519   0.929   0.954   4.713  0.0163 -0.5147  0.0681
 2103WAT     H1 6520   0.975   1.017   4.659  0.1508 -0.4436  0.2646
 2103WAT     H2 6521   0.970   0.870   4.692 -2.4759 -1.1644 -2.8643
 2104WAT      O 6522   0.457   4.401   5.000  0.1405 -0.1470  0.3982
 2104WAT     H1 6523   0.415   4.443   5.075  1.1692  2.9616 -0.6173
 2104WAT     H2 6524   0.450   4.465   4.930  1.3508 -1.9645 -1.5061
 2105WAT      O 6525   3.488   2.853   1.812  1.1212  0.1734  0.3815
 2105WAT     H1 6526   3.487   2.817   1.901 -0.1410  0.1916  0.3987
 2105WAT     H2 6527   3.461   2.944   1.823 -1.3696 -0.4235 -0.2123
 2106WAT      O 6528   3.288   2.069   4.176 -0.5555 -0.1269  0.2274
 2106WAT     H1 6529   3.196   2.085   4.194 -0.5459  0.7473 -0.4511
 2106WAT     H2 6530   3.288   1.997   4.113 -0.7362 -0.5904  0.7481
 2107WAT      O 6531   3.147   1.668   0.355  0.0169  0.0070 -0.0186
 2107WAT     H1 6532   3.104   1.669   0.440  2.9172 -2.7435  1.7284
 2107WAT     H2 6533   3.215   1.735   0.361  0.1459 -0.1022 -0.2336
 2108WAT      O 6534   4.060   1.487   1.098 -0.2989  0.3565  0.4435
 2108WAT     H1 6535   4.040   1.437   1.018  0.3369  1.7195 -0.6156
 2108WAT     H2 6536   4.152   1.511   1.089  0.0733 -0.3273  2.1172
 2109WAT      O 6537   0.090   2.644   2.276  0.4605  0.1357  0.0083
 2109WAT     H1 6538   0.110   2.738   2.270  0.1763  0.2070  0.1348
 2109WAT     H2 6539   0.142   2.604   2.207  2.0999  0.1390  1.1902
 2110WAT      O 6540   1.980   2.906   4.015  0.1371  0.6189 -0.0485
 2110WAT     H1 6541   1.922   2.977   3.987  0.8072  0.7006 -1.2750
 2110WAT     H2 6542   1.949   2.883   4.103  0.9957  3.5997  1.1506
 2111WAT      O 6543   2.508   0.612   3.552 -0.2967 -0.6354  0.0813
 2111WAT     H1 6544   2.418   0.587   3.574 -0.1560 -0.9686  0.2845
 2111WAT     H2 6545   2.516   0.702   3.585  0.2193 -1.4616  2.3778
 2112WAT      O 6546   2.890   2.986   0.026 -0.0760  0.8163 -0.5137
 2112WAT     H1 6547   2.837   2.942   0.092  1.0284 -0.5867 -0.5150
 2112WAT     H2 6548   2.848   2.964  -0.057 -0.6954  1.4736 -0.3809
 2113WAT      O 6549   1.329   3.067   4.205  0.4469  0.0639 -0.6320
 2113WAT     H1 6550   1.257   3.096   4.260  0.7812 -0.4393  0.0838
 2113WAT     H2 6551   1.389   3.023   4.265  0.5856 -0.9219 -1.4640
 2114WAT      O 6552   1.937   2.299   4.822  0.3190 -0.6205 -0.0934
 2114WAT     H1 6553   1.963   2.290   4.731 -1.3571  1.3425 -0.8625
 2114WAT     H2 6554   1.922   2.210   4.853  1.1320 -1.3234 -1.6588
 2115WAT      O 6555   3.474   4.238   0.782 -0.3898 -0.1130  0.2764
 2115WAT     H1 6556   3.418   4.171   0.744  0.5464 -1.0528  0.5207
 2115WAT     H2 6557   3.510   4.285   0.706  0.5936 -1.2521  0.0222
 2116WAT      O 6558   1.903   5.059   4.286  0.1456  0.3257  0.2315
 2116WAT     H1 6559   1.824   5.113   4.295  0.8095  1.3484  0.0390
 2116WAT     H2 6560   1.922   5.060   4.192  0.2136 -0.1795  0.2392
 2117WAT      O 6561   3.293   1.034   3.998  0.5467 -0.4920  0.4067
 2117WAT     H1 6562   3.345   1.090   4.054  0.6326 -1.5369  1.4108
 2117WAT     H2 6563   3.203   1.045   4.029  0.0668  1.4575 -1.4481
 2118WAT      O 6564   0.631   4.755   2.083  0.5469  0.0310 -0.2080
 2118WAT     H1 6565   0.548   4.727   2.121  1.1902 -0.1498  1.1140
 2118WAT     H2 6566   0.648   4.840   2.123  0.6008  0.4648 -1.1192
 2119WAT      O 6567   1.183   2.517   1.318  0.4033  0.7848 -0.0967
 2119WAT     H1 6568   1.093   2.485   1.327 -0.0720  1.6206 -1.6323
 2119WAT     H2 6569   1.177   2.589   1.257  1.8278  2.3017  1.4433
 2120WAT      O 6570   1.370   2.397   1.852  0.2079  0.0349  0.5237
 2120WAT     H1 6571   1.306   2.354   1.795  1.2696 -1.9729  0.7677
 2120WAT     H2 6572   1.424   2.449   1.791  0.5366 -1.0795 -0.1687
 2121WAT      O 6573   0.754   2.500   4.000  0.1409  0.1213 -0.2448
 2121WAT     H1 6574   0.764   2.464   4.089  0.5429 -1.0911 -0.7533
 2121WAT     H2 6575   0.672   2.462   3.969 -1.2437  2.4120  0.4243
 2122WAT      O 6576   2.926   3.848   0.143 -0.6720 -0.4582  0.1124
 2122WAT     H1 6577   2.980   3.859   0.065  0.4385  0.2844  0.9508
 2122WAT     H2 6578   2.919   3.936   0.180 -0.0382 -0.9884  1.5698
 2123WAT      O 6579   0.384   2.725   2.980 -0.4890 -0.2638 -0.0244
 2123WAT     H1 6580   0.445   2.783   2.935  0.3873 -1.4086 -0.3828
 2123WAT     H2 6581   0.416   2.721   3.070 -1.0305  0.4380  0.1999
 2124WAT      O 6582   3.113   2.345   2.970 -0.4012 -0.3968  0.0157
 2124WAT     H1 6583   3.182   2.297   2.924 -0.5622 -0.9070  0.3030
 2124WAT     H2 6584   3.031   2.304   2.941 -0.4775 -1.1351  1.2003
 2125WAT      O 6585   3.264   3.552   4.053 -0.0257  0.1594  0.1242
 2125WAT     H1 6586   3.205   3.494   4.004 -1.0982  2.4546 -1.5322
 2125WAT     H2 6587   3.207   3.623   4.082  1.7262  2.0442 -0.8158
 2126WAT      O 6588   4.073   1.152   3.478 -0.3019  0.4643  0.4906
 2126WAT     H1 6589   4.002   1.218   3.479  0.2128  1.0487 -0.5171
 2126WAT     H2 6590   4.079   1.124   3.387  2.3103  2.1647  0.0335
 2127WAT      O 6591   1.978   3.426   3.334  0.1229 -0.3549 -0.0388
 2127WAT     H1 6592   2.065   3.410   3.297  0.4225  2.0103 -0.5582
 2127WAT     H2 6593   1.918   3.413   3.260  0.4739  1.7694 -0.7849
 2128WAT      O 6594   2.524   3.278   4.636 -0.0576 -0.0451 -0.1267
 2128WAT     H1 6595   2.461   3.289   4.707 -0.6020 -0.4959 -0.5365
 2128WAT     H2 6596   2.608   3.268   4.680 -0.0455  1.9520  0.4005
 2129WAT      O 6597   2.023   3.713   4.210  1.3202  0.0119  0.5154
 2129WAT     H1 6598   2.004   3.623   4.187  1.6258 -0.8899  3.3933
 2129WAT     H2 6599   2.111   3.711   4.246  1.1196  1.3375  1.1607
 2130WAT      O 6600   3.263   0.159   2.880 -0.2890 -0.0125  0.0179
 2130WAT     H1 6601   3.247   0.215   2.804 -1.9964 -1.8288 -1.0438
 2130WAT     H2 6602   3.344   0.114   2.860 -1.4774 -1.5869 -1.5038
 2131WAT      O 6603   1.223   4.868   2.089  0.0321  0.0273  0.8446
 2131WAT     H1 6604   1.128   4.871   2.080 -0.0140 -2.7453 -0.8225
 2131WAT     H2 6605   1.256   4.935   2.029 -0.8397  1.4426  1.9075
 2132WAT      O 6606   3.875   0.931   0.511  0.7899 -0.3707  0.2151
 2132WAT     H1 6607   3.803   0.894   0.461  1.2855 -0.1687 -0.6766
 2132WAT     H2 6608   3.910   0.857   0.561  1.8193 -1.2081 -1.5945
 2133WAT      O 6609   2.603   1.354   2.257 -0.1838 -0.1705  0.2975
 2133WAT     H1 6610   2.526   1.332   2.308 -1.3444 -0.2090 -1.3853
 2133WAT     H2 6611   2.659   1.404   2.317 -0.5826 -1.8380  2.1307
 2134WAT      O 6612   3.108   2.304   0.909 -0.0624 -0.3110 -0.2623
 2134WAT     H1 6613   3.132   2.382   0.959 -0.9095  0.7143 -1.3931
 2134WAT     H2 6614   3.019   2.322   0.878 -0.3930 -1.8699 -0.2863
 2135WAT      O 6615   3.302   3.701   2.443  0.1887 -0.5739  0.1824
 2135WAT     H1 6616   3.359   3.672   2.515  2.5596  0.3714 -1.1693
 2135WAT     H2 6617   3.262   3.781   2.476 -0.0078 -1.0007  1.0115
 2136WAT      O 6618   1.714   3.808   0.491 -0.3089 -0.2414  0.0557
 2136WAT     H1 6619   1.713   3.735   0.429  1.0370  0.9546 -1.4500
 2136WAT     H2 6620   1.791   3.792   0.546 -0.7756 -0.6316  0.6087
 2137WAT      O 6621   2.369   1.054   4.727 -0.2524  0.0949 -0.5888
 2137WAT     H1 6622   2.422   1.126   4.760  0.8631 -1.2748  0.8182
 2137WAT     H2 6623   2.309   1.034   4.799  1.5734 -2.3271  0.4378
 2138WAT      O 6624   0.613   1.338   5.222 -0.1090  0.2978  0.4361
 2138WAT     H1 6625   0.545   1.388   5.177  1.0483 -0.2665 -2.0995
 2138WAT     H2 6626   0.595   1.353   5.315 -2.1232  2.2249 -0.1587
 2139WAT      O 6627   0.787   4.197   2.516 -0.1600 -0.2154  0.3832
 2139WAT     H1 6628   0.844   4.121   2.510 -2.9224 -2.4180  0.0461
 2139WAT     H2 6629   0.780   4.214   2.610  0.3392 -0.4766  0.4711
 2140WAT      O 6630   4.105   2.029   0.198 -0.1186  0.2722 -0.7048
 2140WAT     H1 6631   4.087   2.075   0.116  0.6930  0.0124 -1.0362
 2140WAT     H2 6632   4.150   2.093   0.253 -0.9739  0.5546 -0.3251
 2141WAT      O 6633   3.869   1.979   2.390 -0.1104 -0.2597  0.1707
 2141WAT     H1 6634   3.934   1.923   2.347  0.4801  1.9895 -2.1302
 2141WAT     H2 6635   3.920   2.037   2.446 -0.1115  1.1846 -1.2605
 2142WAT      O 6636   3.433   1.243   0.287  0.1515  0.1287 -0.4620
 2142WAT     H1 6637   3.461   1.198   0.366 -0.3042  0.7171  0.0500
 2142WAT     H2 6638   3.385   1.319   0.319 -1.8197 -0.6987 -1.2720
 2143WAT      O 6639   1.575   1.089   1.144 -0.1351 -0.1344  0.0459
 2143WAT     H1 6640   1.534   1.171   1.116  2.5719  0.9185 -1.1199
 2143WAT     H2 6641   1.619   1.111   1.226 -0.6625 -0.8559  0.5322
 2144WAT      O 6642   3.706   1.277   3.730  0.1807  0.0348  0.5976
 2144WAT     H1 6643   3.638   1.215   3.758 -0.0804  0.1978  0.3322
 2144WAT     H2 6644   3.664   1.363   3.737 -0.7999 -0.0450 -2.7178
 2145WAT      O 6645   2.923   1.961   3.127 -0.2410 -0.4359 -0.2054
 2145WAT     H1 6646   2.952   1.929   3.041 -2.2826  0.0500 -1.1489
 2145WAT     H2 6647   2.926   1.883   3.183  0.3028 -0.9629 -0.9408
 2146WAT      O 6648   0.484   4.680   0.530 -0.4319 -0.4434  0.2497
 2146WAT     H1 6649   0.499   4.597   0.483  1.9961  0.2863 -0.3905
 2146WAT     H2 6650   0.556   4.685   0.593 -0.3467  1.3115  0.0541
 2147WAT      O 6651   0.971   4.798   4.107  0.0431 -0.0890  0.3336
 2147WAT     H1 6652   0.919   4.749   4.044  1.5791 -0.1137 -0.9965
 2147WAT     H2 6653   0.913   4.867   4.139 -0.5221  0.5034 -1.8329
 2148WAT      O 6654   2.349   4.600   0.090 -0.0447  1.2198 -0.4045
 2148WAT     H1 6655   2.286   4.552   0.036  1.0188 -1.5361  0.6187
 2148WAT     H2 6656   2.389   4.663   0.030 -1.0603  0.3684 -2.0504
 2149WAT      O 6657   3.312   3.853   1.713 -0.4867 -0.7595 -0.0829
 2149WAT     H1 6658   3.240   3.916   1.713 -0.8918 -1.1388  1.8489
 2149WAT     H2 6659   3.328   3.834   1.621 -1.4712  0.8931 -0.6297
 2150WAT      O 6660   2.017   0.796   5.220 -0.1384  0.0935 -0.2876
 2150WAT     H1 6661   1.922   0.809   5.218 -0.1997  0.0000  1.0207
 2150WAT     H2 6662   2.039   0.795   5.313  0.8856 -1.7507 -0.4917
 2151WAT      O 6663   3.471   4.736   3.377 -0.1278  0.2668 -0.2038
 2151WAT     H1 6664   3.483   4.670   3.309  2.0886 -0.4372  0.7934
 2151WAT     H2 6665   3.400   4.701   3.431 -0.0574 -0.5236 -0.6036
 2152WAT      O 6666   3.693   1.181   0.041  0.2767  0.0360  0.4527
 2152WAT     H1 6667   3.691   1.185   0.136  1.5114 -0.2495  0.5052
 2152WAT     H2 6668   3.611   1.138   0.018  0.4229 -0.8415  1.4597
 2153WAT      O 6669   0.558   2.635   3.522 -0.3261  0.6527  0.0065
 2153WAT     H1 6670   0.541   2.542   3.533 -1.4686  0.7010 -1.1878
 2153WAT     H2 6671   0.627   2.654   3.586 -1.1278 -0.6808  1.3254
 2154WAT      O 6672   2.581   3.513   1.415  0.1283  0.4830 -0.2076
 2154WAT     H1 6673   2.505   3.530   1.359 -0.6344  1.2411  1.0271
 2154WAT     H2 6674   2.567   3.424   1.447 -0.0525  0.4957 -0.2508
 2155WAT      O 6675   0.845   2.386   3.650 -0.1629 -0.7054  0.3467
 2155WAT     H1 6676   0.802   2.346   3.575 -1.0908  1.6849 -0.4755
 2155WAT     H2 6677   0.861   2.313   3.710 -0.4433 -2.4978 -1.6437
 2156WAT      O 6678   4.414   1.581   0.027 -0.3908 -0.6518  0.1785
 2156WAT     H1 6679   4.366   1.535   0.095 -0.6193  1.0783  1.2580
 2156WAT     H2 6680   4.491   1.615   0.071 -0.7893  0.9157 -0.2698
 2157WAT      O 6681   4.161   3.798   0.021  0.5877 -0.2318  0.0090
 2157WAT     H1 6682   4.219   3.827   0.092  2.2189  0.2099 -1.4318
 2157WAT     H2 6683   4.220   3.783  -0.053 -0.9073 -1.9706 -0.8887
 2158WAT      O 6684   1.593   4.603   0.423 -0.5826  0.0832  0.0679
 2158WAT     H1 6685   1.583   4.695   0.400 -0.4961  0.7699  2.5354
 2158WAT     H2 6686   1.682   4.580   0.394 -0.8378  0.5642 -1.1381
 2159WAT      O 6687   2.229   3.709   0.098  0.0816  0.1495  0.3141
 2159WAT     H1 6688   2.157   3.752   0.143 -0.4924  2.2130 -2.2775
 2159WAT     H2 6689   2.307   3.737   0.145 -0.6165  0.2450  1.4357
 2160WAT      O 6690   0.178   4.638   0.880 -0.1299  0.0265  0.4405
 2160WAT     H1 6691   0.202   4.678   0.796 -0.7174  2.4536  1.3455
 2160WAT     H2 6692   0.091   4.600   0.864 -0.6902  1.3598  0.1630
 2161WAT      O 6693   1.887   4.582   0.411 -0.4738  0.0102  0.3711
 2161WAT     H1 6694   1.973   4.604   0.373 -0.7362 -0.8478 -0.7757
 2161WAT     H2 6695   1.900   4.591   0.505  1.4312 -1.8896  0.3745
 2162WAT      O 6696   2.711   3.484   2.876 -0.1347  0.0039 -0.4436
 2162WAT     H1 6697   2.673   3.572   2.882  2.6293  1.2734  0.3522
 2162WAT     H2 6698   2.707   3.450   2.965 -1.0711 -0.6741 -0.7251
 2163WAT      O 6699   2.701   4.589   2.598  0.5168  0.1065 -0.0349
 2163WAT     H1 6700   2.688   4.494   2.601  1.3117 -0.0012 -0.0165
 2163WAT     H2 6701   2.656   4.621   2.676  1.5128 -0.4136  0.7781
 2164WAT      O 6702   1.154   1.881   4.012  0.0776  0.2426 -0.2531
 2164WAT     H1 6703   1.142   1.792   3.978  2.8610  0.2152 -1.4919
 2164WAT     H2 6704   1.162   1.936   3.934  0.0058  1.3072  0.4732
 2165WAT      O 6705   1.893   3.868   0.715 -0.0649  0.6043 -0.0599
 2165WAT     H1 6706   1.892   3.958   0.683  1.4947  0.3441 -0.9612
 2165WAT     H2 6707   1.984   3.853   0.742  0.0820 -1.1478 -1.3479
 2166WAT      O 6708   1.787   2.706   2.387  0.4201 -0.0123 -0.5081
 2166WAT     H1 6709   1.842   2.644   2.340 -0.4168  0.2921 -1.9317
 2166WAT     H2 6710   1.839   2.787   2.389  0.6756 -0.1764 -0.4258
 2167WAT      O 6711   1.477   2.707   0.192 -0.0399 -0.4043  0.0523
 2167WAT     H1 6712   1.412   2.675   0.256  0.8005 -0.2873  0.9926
 2167WAT     H2 6713   1.427   2.719   0.112 -1.4442  0.7609  1.0528
 2168WAT      O 6714   3.190   1.151   4.364 -0.5439  0.0709  0.1939
 2168WAT     H1 6715   3.264   1.155   4.304 -1.3295  0.3248 -0.7827
 2168WAT     H2 6716   3.211   1.216   4.431  0.9270 -1.0963  0.9179
 2169WAT      O 6717   1.493   1.343   2.137  0.1708 -0.0130  0.2232
 2169WAT     H1 6718   1.527   1.418   2.186  0.3258  0.0800 -0.0218
 2169WAT     H2 6719   1.536   1.267   2.177  0.3894  0.0730  0.1584
 2170WAT      O 6720   1.014   4.351   4.335  0.5372 -0.1959  0.0299
 2170WAT     H1 6721   0.994   4.318   4.423  1.2644  0.1764  0.3476
 2170WAT     H2 6722   0.989   4.280   4.277  1.5746 -1.1210  0.6661
 2171WAT      O 6723   4.217   2.965   4.708  0.0256 -0.4830  0.0169
 2171WAT     H1 6724   4.191   3.035   4.649 -0.1750 -0.3467  0.2649
 2171WAT     H2 6725   4.309   2.983   4.728 -0.6384  1.1290  2.0084
 2172WAT      O 6726   0.255   2.345   2.606  0.4956  0.6196  0.2490
 2172WAT     H1 6727   0.160   2.354   2.614  0.5339  1.3106  0.0018
 2172WAT     H2 6728   0.289   2.380   2.688  0.5854  1.5637 -0.1747
 2173WAT      O 6729   0.874   3.868   0.151  0.6742  0.2810 -0.2428
 2173WAT     H1 6730   0.968   3.852   0.146  0.3419 -1.9882 -0.3053
 2173WAT     H2 6731   0.834   3.797   0.101 -1.1326  0.4800  0.7961
 2174WAT      O 6732   3.881   4.617   3.522  0.2215 -0.0538 -0.1681
 2174WAT     H1 6733   3.813   4.587   3.582 -0.1796 -0.1342 -0.6601
 2174WAT     H2 6734   3.953   4.555   3.535  0.2817  0.1492  0.4945
 2175WAT      O 6735   1.862   3.122   1.649 -0.1391 -0.2261  0.0489
 2175WAT     H1 6736   1.943   3.071   1.651  0.2396  0.0401 -3.2636
 2175WAT     H2 6737   1.890   3.212   1.638 -0.8829 -0.0075 -0.1502
 2176WAT      O 6738   2.036   5.027   4.918  0.4161 -0.0530  0.1018
 2176WAT     H1 6739   2.109   5.075   4.957 -0.6338  0.9655  0.8886
 2176WAT     H2 6740   1.966   5.091   4.912  0.0642 -0.5694 -2.1646
 2177WAT      O 6741   1.721   4.427   3.109  0.2887 -0.2502  0.6104
 2177WAT     H1 6742   1.676   4.344   3.094 -0.3747  0.0721  0.8023
 2177WAT     H2 6743   1.676   4.466   3.185  1.8815 -0.6377  1.8186
 2178WAT      O 6744   2.446   0.431   0.480  0.3541  0.0961 -0.3625
 2178WAT     H1 6745   2.352   0.420   0.464  0.4272  0.2179 -0.8884
 2178WAT     H2 6746   2.458   0.525   0.493 -0.2093 -0.2018  3.7716
 2179WAT      O 6747   3.593   3.456   2.960 -0.0370  0.6866 -0.3837
 2179WAT     H1 6748   3.652   3.502   2.900  0.0157  0.8631 -0.2001
 2179WAT     H2 6749   3.507   3.495   2.944  0.5212  3.4233  2.1867
 2180WAT      O 6750   2.992   2.408   5.146  0.0821  0.4150 -0.2726
 2180WAT     H1 6751   2.999   2.397   5.051 -3.3783 -2.0188 -0.4177
 2180WAT     H2 6752   3.082   2.398   5.177  1.0104 -1.2338 -3.0808
 2181WAT      O 6753   4.047   0.508   4.394  0.3840 -0.1807  0.7527
 2181WAT     H1 6754   4.029   0.416   4.376 -0.3776 -0.0361  0.7352
 2181WAT     H2 6755   4.048   0.515   4.489  1.1651 -0.3326  0.7667
 2182WAT      O 6756   2.871   1.265   2.841 -0.5305  0.5689 -0.4446
 2182WAT     H1 6757   2.959   1.279   2.876  0.3487 -1.0481 -1.8155
 2182WAT     H2 6758   2.855   1.339   2.783  0.3922  0.3499 -0.9946
 2183WAT      O 6759   1.870   0.156   1.553 -0.6410  0.2107  0.2513
 2183WAT     H1 6760   1.962   0.180   1.555 -0.4417 -0.5695  1.0317
 2183WAT     H2 6761   1.835   0.188   1.637 -0.4564 -1.7744  1.1418
 2184WAT      O 6762   4.036   2.346   1.110  0.4408 -0.0687  0.1557
 2184WAT     H1 6763   4.060   2.254   1.109  1.1151  0.0920  0.7306
 2184WAT     H2 6764   4.117   2.393   1.091  0.5677  0.4615  1.8274
 2185WAT      O 6765   2.462   0.658   0.757 -0.3074 -0.4537  0.4526
 2185WAT     H1 6766   2.507   0.707   0.827 -0.5141 -0.2513  0.4449
 2185WAT     H2 6767   2.484   0.706   0.677  0.4524 -1.0541  0.2967
 2186WAT      O 6768   2.212   2.741   4.925  0.1155 -0.0942  0.9421
 2186WAT     H1 6769   2.223   2.763   5.017 -0.4414 -0.3847  1.0846
 2186WAT     H2 6770   2.140   2.678   4.924 -0.1247  0.1795  0.2767
 2187WAT      O 6771   1.457   1.862   0.700  0.0941  0.3347  0.5059
 2187WAT     H1 6772   1.406   1.943   0.696  0.0997  0.3422  0.5909
 2187WAT     H2 6773   1.450   1.825   0.612 -2.3207 -1.0566  1.1682
 2188WAT      O 6774   1.394   4.171   2.079  0.3310 -0.3100 -0.4820
 2188WAT     H1 6775   1.437   4.137   2.158  0.4025  1.6915  0.3848
 2188WAT     H2 6776   1.465   4.210   2.028  0.6730 -3.3971 -2.6820
 2189WAT      O 6777   1.274   3.155   0.466 -0.5646 -0.3738 -0.3504
 2189WAT     H1 6778   1.367   3.169   0.450 -0.7154 -0.0771 -0.9877
 2189WAT     H2 6779   1.255   3.206   0.544  0.3398 -2.3959  1.3123
 2190WAT      O 6780   2.376   2.345   3.772 -0.1011 -0.1074 -0.3718
 2190WAT     H1 6781   2.441   2.414   3.767  1.2634 -1.3670 -1.0290
 2190WAT     H2 6782   2.341   2.339   3.683 -2.4997  1.7354  0.3308
 2191WAT      O 6783   0.984   2.679   1.570  0.0534  0.5943  0.6169
 2191WAT     H1 6784   0.922   2.673   1.497 -2.5405  1.9243  2.5305
 2191WAT     H2 6785   0.939   2.635   1.642  2.5518 -0.7280  1.4898
 2192WAT      O 6786   4.101   4.837   3.609  0.3403 -0.3709 -0.4750
 2192WAT     H1 6787   4.186   4.795   3.598  0.2951 -0.6036  0.0710
 2192WAT     H2 6788   4.037   4.766   3.599  0.2493 -0.3650  0.0192
 2193WAT      O 6789   3.745   0.106   3.661  0.6383 -0.1084 -0.0678
 2193WAT     H1 6790   3.762   0.191   3.619 -1.8564  0.7107  0.4002
 2193WAT     H2 6791   3.692   0.058   3.599 -0.0872 -0.3122  0.6920
 2194WAT      O 6792   1.154   0.402   4.708  0.0682  0.2526  0.4405
 2194WAT     H1 6793   1.172   0.314   4.741 -0.4513  0.3803  1.0882
 2194WAT     H2 6794   1.071   0.394   4.662  0.2595  0.3074  0.0812
 2195WAT      O 6795   2.896   0.983   5.199 -0.2861  0.2180  0.2746
 2195WAT     H1 6796   2.911   0.936   5.117  2.3090  0.4643  0.5126
 2195WAT     H2 6797   2.898   1.076   5.174 -1.9021  0.2866  0.3107
 2196WAT      O 6798   0.552   4.258   3.763  0.4466 -0.0377 -0.0973
 2196WAT     H1 6799   0.511   4.185   3.809  0.1629  0.1487 -0.0568
 2196WAT     H2 6800   0.638   4.223   3.737  1.3322  0.3699  2.0247
 2197WAT      O 6801   2.664   2.239   4.470  1.0442  0.5866  0.5419
 2197WAT     H1 6802   2.679   2.295   4.546 -0.3710  0.6997  0.7606
 2197WAT     H2 6803   2.635   2.299   4.401  2.8445  0.5627 -0.2865
 2198WAT      O 6804   3.408   5.069   2.431  0.3156  0.0400  0.0609
 2198WAT     H1 6805   3.446   5.157   2.433 -0.7951  0.5296  0.5834
 2198WAT     H2 6806   3.314   5.084   2.426  0.1695 -1.1446 -1.0686
 2199WAT      O 6807   2.076   3.802   3.205  0.1393 -0.6063 -0.3067
 2199WAT     H1 6808   2.134   3.856   3.152  1.8192 -0.5605  1.4627
 2199WAT     H2 6809   2.101   3.712   3.185  0.1815 -0.6096 -0.2409
 2200WAT      O 6810   4.533   4.518   1.429 -0.1555  0.6163  0.1728
 2200WAT     H1 6811   4.444   4.500   1.400 -0.5866  3.0776 -0.2230
 2200WAT     H2 6812   4.544   4.465   1.508 -1.3398 -0.9998 -0.6844
 2201WAT      O 6813   3.351   3.114   4.491  0.4778  0.3456  0.0791
 2201WAT     H1 6814   3.316   3.183   4.434 -1.1891 -0.0919  0.5121
 2201WAT     H2 6815   3.289   3.111   4.564  0.4905 -1.6360  0.0404
 2202WAT      O 6816   1.314   1.547   1.847  0.0831 -0.0788  0.3043
 2202WAT     H1 6817   1.222   1.573   1.851  0.4374  1.3597 -0.4458
 2202WAT     H2 6818   1.325   1.509   1.760  0.2991  0.1822  0.2156
 2203WAT      O 6819   1.906   0.840   3.749 -0.4086  0.6127 -0.1288
 2203WAT     H1 6820   1.923   0.839   3.843  0.8496  1.2676 -0.3177
 2203WAT     H2 6821   1.973   0.899   3.714 -0.9802  0.5290 -1.4129
 2204WAT      O 6822   1.886   4.225   2.421 -0.0871  0.3488  0.1306
 2204WAT     H1 6823   1.867   4.304   2.371 -1.2556  0.1115  0.1703
 2204WAT     H2 6824   1.907   4.159   2.354 -0.3318  0.3724  0.0309
 2205WAT      O 6825   1.652   1.614   3.124 -0.3078  0.4357 -0.0675
 2205WAT     H1 6826   1.715   1.564   3.072 -0.9230  1.8569 -2.3315
 2205WAT     H2 6827   1.695   1.699   3.137 -0.0444  0.0309  2.1053
 2206WAT      O 6828   0.953   0.403   4.525 -0.3336  0.4387 -0.3087
 2206WAT     H1 6829   0.903   0.328   4.492 -1.2254  1.1510 -0.6183
 2206WAT     H2 6830   0.894   0.478   4.514 -0.2244  0.8985  1.8132
 2207WAT      O 6831   0.046   4.472   3.907 -0.3230  0.1923 -0.6161
 2207WAT     H1 6832  -0.021   4.537   3.928 -1.1104 -0.4167 -1.1985
 2207WAT     H2 6833   0.104   4.518   3.846 -1.3087  0.1359 -1.6318
 2208WAT      O 6834   0.315   4.616   1.295  0.0618 -0.3683  0.5243
 2208WAT     H1 6835   0.316   4.650   1.205  0.5533  0.0539  0.6858
 2208WAT     H2 6836   0.406   4.622   1.324 -0.1472 -0.2088  1.1597
 2209WAT      O 6837   2.561   3.195   0.173 -0.0497 -0.4898  0.3184
 2209WAT     H1 6838   2.519   3.122   0.218 -0.8678 -0.0161  0.3398
 2209WAT     H2 6839   2.592   3.158   0.090 -2.9741 -0.2837 -0.9913
 2210WAT      O 6840   1.952   2.042   1.495  0.2047 -0.1739 -0.1483
 2210WAT     H1 6841   1.918   2.121   1.537  3.6741  1.3592  0.1194
 2210WAT     H2 6842   1.941   2.058   1.402 -2.6898 -1.2470 -0.0870
 2211WAT      O 6843   4.148   0.109   0.763 -0.7278  0.5442 -0.8869
 2211WAT     H1 6844   4.126   0.027   0.718  0.2308  0.1256 -0.6295
 2211WAT     H2 6845   4.145   0.086   0.856  4.0719 -0.6022 -0.7464
 2212WAT      O 6846   3.632   0.812   2.035 -0.5280  0.6145  0.5700
 2212WAT     H1 6847   3.666   0.727   2.065  0.4774  0.7398 -0.1321
 2212WAT     H2 6848   3.675   0.826   1.951 -1.4177  1.3886  0.2277
 2213WAT      O 6849   0.582   0.822   2.714  0.3689  0.0193  0.7553
 2213WAT     H1 6850   0.568   0.745   2.770  2.1998 -0.2855  0.8579
 2213WAT     H2 6851   0.659   0.865   2.751  1.5414 -0.0960 -1.3915
 2214WAT      O 6852   0.104   4.188   3.948  0.4174  0.2132 -0.5143
 2214WAT     H1 6853   0.019   4.146   3.961  1.0697 -0.5538  1.8011
 2214WAT     H2 6854   0.084   4.281   3.939 -0.7249 -0.0476 -0.7252
 2215WAT      O 6855   3.748   0.290   3.324  0.1585  0.3860  0.1302
 2215WAT     H1 6856   3.656   0.266   3.335  0.5968 -0.5020  2.5669
 2215WAT     H2 6857   3.752   0.384   3.344 -0.1773  0.3512  0.3534
 2216WAT      O 6858   2.000   1.188   4.285 -0.4009  0.0407  0.2418
 2216WAT     H1 6859   1.967   1.113   4.335 -0.8629 -0.2872 -0.5249
 2216WAT     H2 6860   1.981   1.264   4.340 -2.1154 -0.1755  0.0176
 2217WAT      O 6861   1.036   4.104   4.085 -0.2518  0.5060 -0.3284
 2217WAT     H1 6862   1.002   4.128   3.998 -1.2557 -2.0072 -0.7104
 2217WAT     H2 6863   0.959   4.106   4.141 -0.2187 -0.8701 -0.2038
 2218WAT      O 6864   2.906   2.671   5.217  0.1754 -0.1568 -0.1302
 2218WAT     H1 6865   3.001   2.684   5.217  0.3493 -1.2766  0.0076
 2218WAT     H2 6866   2.895   2.580   5.189 -0.9261  0.3221 -1.3407
 2219WAT      O 6867   0.081   4.988   3.683 -0.1222  0.1521 -0.0002
 2219WAT     H1 6868   0.152   5.003   3.622  0.1516 -0.7498  0.0831
 2219WAT     H2 6869   0.098   5.050   3.755  0.4665  0.0808 -0.0723
 2220WAT      O 6870   4.034   1.707   3.914  0.9754 -0.2113  0.3684
 2220WAT     H1 6871   4.026   1.641   3.983 -0.8748  0.2030  0.5939
 2220WAT     H2 6872   4.020   1.790   3.959  0.1035  0.0845 -0.4141
 2221WAT      O 6873   0.930   2.900   0.185 -0.0248 -0.3000 -0.2679
 2221WAT     H1 6874   0.871   2.923   0.113 -0.2373  0.5626  0.1719
 2221WAT     H2 6875   1.014   2.938   0.161 -0.3743  0.9575  0.4557
 2222WAT      O 6876   2.249   2.175   4.166  0.1968 -0.2476  0.3254
 2222WAT     H1 6877   2.329   2.122   4.169 -0.1441 -0.7861  0.0101
 2222WAT     H2 6878   2.280   2.264   4.151  0.6534 -0.6919 -1.6438
 2223WAT      O 6879   2.022   1.896   3.273 -0.7778  0.3319  0.4614
 2223WAT     H1 6880   1.999   1.982   3.237  0.2839  0.7556  0.7499
 2223WAT     H2 6881   1.949   1.839   3.248 -1.1631  1.1532 -0.3531
 2224WAT      O 6882   0.819   0.738   3.231  0.4584  0.1162 -0.1918
 2224WAT     H1 6883   0.740   0.784   3.256  0.0315 -0.1458 -1.0066
 2224WAT     H2 6884   0.788   0.659   3.186  1.1712 -0.8343  0.9282
 2225WAT      O 6885   3.086   2.144   1.165 -0.2262 -0.0539  0.0717
 2225WAT     H1 6886   3.164   2.162   1.113 -1.0299  2.0143 -0.5265
 2225WAT     H2 6887   3.083   2.215   1.230  0.0927 -1.9090  2.2332
 2226WAT      O 6888   1.526   4.810   4.210 -0.1978 -0.1160 -0.1533
 2226WAT     H1 6889   1.511   4.795   4.117  0.4638  2.9437 -0.8545
 2226WAT     H2 6890   1.500   4.728   4.252 -2.9770 -0.7266 -2.7585
 2227WAT      O 6891   3.369   3.218   2.325 -0.4164 -0.0531 -0.2201
 2227WAT     H1 6892   3.433   3.217   2.254  0.8548 -0.2427  0.8827
 2227WAT     H2 6893   3.341   3.309   2.331 -1.0665 -0.1586 -1.4028
 2228WAT      O 6894   3.307   0.177   1.970 -0.5901 -0.4825 -0.1500
 2228WAT     H1 6895   3.333   0.094   2.011 -0.3134 -0.6316 -0.6255
 2228WAT     H2 6896   3.349   0.176   1.884  0.4512  0.7070  0.3111
 2229WAT      O 6897   2.411   3.131   2.273  0.2910 -0.4135  0.3432
 2229WAT     H1 6898   2.432   3.158   2.363  0.7414  0.7354 -0.0916
 2229WAT     H2 6899   2.397   3.037   2.279  0.6872 -0.4116  1.5542
 2230WAT      O 6900   2.374   4.464   1.911  0.0733 -0.5562 -0.0693
 2230WAT     H1 6901   2.348   4.475   2.002  2.8857 -0.5840  0.8455
 2230WAT     H2 6902   2.363   4.371   1.894 -0.0503 -0.6301  0.4075
 2231WAT      O 6903   0.983   3.768   4.008  0.1225 -0.4947 -0.1378
 2231WAT     H1 6904   0.999   3.783   3.915 -0.7882 -1.0975 -0.4118
 2231WAT     H2 6905   0.962   3.675   4.013 -0.0758 -0.4120  0.6348
 2232WAT      O 6906   3.907   5.105   2.012 -0.0082 -0.0286  0.3742
 2232WAT     H1 6907   4.003   5.101   2.019  0.0357  0.1801 -0.0536
 2232WAT     H2 6908   3.891   5.182   1.957 -0.3491 -1.1253 -1.1266
 2233WAT      O 6909   4.031   4.146   4.218 -0.3705 -0.2299 -0.2756
 2233WAT     H1 6910   4.023   4.197   4.299 -0.1166  1.4641 -1.2818
 2233WAT     H2 6911   4.076   4.066   4.246  2.2796  1.5067  0.8347
 2234WAT      O 6912   1.924   0.361   2.770 -0.3819  0.5199 -0.1765
 2234WAT     H1 6913   1.865   0.407   2.829  0.4081  1.5410 -0.1449
 2234WAT     H2 6914   1.887   0.374   2.683 -1.0407 -0.1865 -0.0073
 2235WAT      O 6915   4.384   2.768   2.577 -0.5393 -0.1525 -0.2911
 2235WAT     H1 6916   4.390   2.861   2.556 -0.8898 -0.1688 -0.4683
 2235WAT     H2 6917   4.470   2.733   2.553 -0.7228 -0.0544 -1.1308
 2236WAT      O 6918   1.284   1.427   4.806 -0.2818  0.3558  0.2686
 2236WAT     H1 6919   1.300   1.522   4.805  0.6125  0.2157 -0.5148
 2236WAT     H2 6920   1.327   1.395   4.726 -1.7473 -0.5329 -0.1996
 2237WAT      O 6921   0.451   4.411   4.217  0.9925 -0.0554 -0.1643
 2237WAT     H1 6922   0.384   4.475   4.190  0.0864 -0.5929  0.7499
 2237WAT     H2 6923   0.497   4.455   4.288 -0.3223 -0.7664  1.1925
 2238WAT      O 6924   1.216   1.174   0.541 -0.8777 -0.6099  0.7665
 2238WAT     H1 6925   1.151   1.178   0.611 -0.4142 -0.2593  1.1763
 2238WAT     H2 6926   1.163   1.164   0.461 -1.4413 -0.1950  1.0765
 2239WAT      O 6927   1.657   0.058   5.143  0.2864  0.7040  0.1001
 2239WAT     H1 6928   1.666   0.012   5.226  0.7467  1.5391  0.5252
 2239WAT     H2 6929   1.611   0.139   5.166 -1.4972  0.0076 -0.7989
 2240WAT      O 6930   4.313   2.479   3.893  0.1590  0.0369 -1.0019
 2240WAT     H1 6931   4.295   2.572   3.898  0.3104  0.0090  0.7239
 2240WAT     H2 6932   4.261   2.448   3.819 -2.0897  1.0308  0.0555
 2241WAT      O 6933   1.050   4.065   3.794 -0.4763 -0.3027 -0.2279
 2241WAT     H1 6934   1.054   3.971   3.775 -0.2925 -0.0269 -1.6610
 2241WAT     H2 6935   1.138   4.097   3.776 -0.8374  0.3439 -0.8942
 2242WAT      O 6936   3.748   4.847   3.406  0.0132  0.0901  0.4887
 2242WAT     H1 6937   3.798   4.776   3.447 -0.4759 -0.2773  0.4589
 2242WAT     H2 6938   3.666   4.806   3.377  0.1882  0.4255 -0.5319
 2243WAT      O 6939   4.034   3.425   0.759 -0.0551 -0.4931  0.2488
 2243WAT     H1 6940   4.076   3.485   0.697 -0.6702 -0.0018  0.2936
 2243WAT     H2 6941   3.983   3.366   0.704 -1.2179  0.4204  0.2903
 2244WAT      O 6942   3.783   0.615   2.384  0.2060 -0.2799 -0.1088
 2244WAT     H1 6943   3.788   0.601   2.478 -2.0337 -0.6271  0.0074
 2244WAT     H2 6944   3.792   0.709   2.373 -0.0233 -0.1823  0.5024
 2245WAT      O 6945   3.162   0.103   4.967  0.1425  0.4926 -0.0206
 2245WAT     H1 6946   3.196   0.121   4.879 -0.6969  0.5034 -0.3520
 2245WAT     H2 6947   3.182   0.182   5.017  0.9926  0.3271 -0.0783
 2246WAT      O 6948   0.265   0.020   4.965  0.0296  0.4762  0.2612
 2246WAT     H1 6949   0.172   0.011   4.947  0.2628 -1.6310 -0.1895
 2246WAT     H2 6950   0.271   0.029   5.060 -0.7717  4.1374  0.0851
 2247WAT      O 6951   2.915   3.471   0.486 -0.2028  0.1273 -0.3151
 2247WAT     H1 6952   2.956   3.508   0.408  0.9831 -2.2450 -0.9245
 2247WAT     H2 6953   2.868   3.395   0.454  0.2446 -0.8610  1.2499
 2248WAT      O 6954   1.996   0.257   0.555  0.2236  0.2369  0.3450
 2248WAT     H1 6955   1.977   0.235   0.646  0.6054 -1.3164  0.0780
 2248WAT     H2 6956   1.941   0.197   0.505  2.8111 -1.6434 -0.4416
 2249WAT      O 6957   3.991   3.892   3.222  0.3005  0.2955  0.4559
 2249WAT     H1 6958   3.960   3.945   3.296  0.3567  1.7793 -0.5584
 2249WAT     H2 6959   3.931   3.817   3.221 -1.7092  1.8239  0.1073
 2250WAT      O 6960   4.380   1.767   2.283 -0.3922 -0.5468 -0.1641
 2250WAT     H1 6961   4.320   1.703   2.245 -0.0172 -0.6665 -0.5688
 2250WAT     H2 6962   4.437   1.715   2.341 -0.8152 -0.4000  0.3912
 2251WAT      O 6963   0.684   1.601   2.148  0.5111  0.3557 -0.1746
 2251WAT     H1 6964   0.747   1.639   2.209 -1.6219  1.4483  1.5242
 2251WAT     H2 6965   0.614   1.667   2.142 -0.1531 -0.4613 -2.5417
 2252WAT      O 6966   0.527   4.554   1.650  0.3488 -0.6367 -0.3572
 2252WAT     H1 6967   0.561   4.617   1.713  1.1395 -2.2815  0.9463
 2252WAT     H2 6968   0.432   4.561   1.658  0.4371 -0.5698  0.7712
 2253WAT      O 6969   3.492   3.560   5.041  0.1904 -0.0769  0.3920
 2253WAT     H1 6970   3.584   3.588   5.038  0.3102 -0.4613  0.4809
 2253WAT     H2 6971   3.489   3.480   4.989  0.1457 -0.7301  1.3791
 2254WAT      O 6972   3.026   0.892   4.979  0.2114  0.2185  0.0110
 2254WAT     H1 6973   3.082   0.968   4.963  0.6313  0.0389  0.5899
 2254WAT     H2 6974   3.042   0.834   4.904  0.4876  0.3588 -0.0396
 2255WAT      O 6975   3.788   3.181   4.020 -0.3369  0.4046  0.0417
 2255WAT     H1 6976   3.696   3.195   4.043 -0.5266  1.0190 -1.0393
 2255WAT     H2 6977   3.798   3.220   3.933  0.2465 -2.1761 -1.1438
 2256WAT      O 6978   4.467   1.846   3.463  0.1988 -0.2308  0.1137
 2256WAT     H1 6979   4.512   1.763   3.447 -0.3605 -0.6006  0.4103
 2256WAT     H2 6980   4.400   1.850   3.394  0.9165  0.4908 -0.5504
 2257WAT      O 6981   1.513   4.364   4.013  0.1557  0.0618 -0.0289
 2257WAT     H1 6982   1.537   4.417   4.089  0.4757  0.9952 -0.7657
 2257WAT     H2 6983   1.568   4.286   4.019  1.1815  0.7739 -0.0439
 2258WAT      O 6984   1.510   4.344   1.641 -0.0734  0.2070 -0.6248
 2258WAT     H1 6985   1.441   4.377   1.583 -1.4508 -0.4011  0.6288
 2258WAT     H2 6986   1.540   4.264   1.599  0.1285  0.6575 -1.3583
 2259WAT      O 6987   4.387   0.851   2.525 -0.2552  0.1371  0.2230
 2259WAT     H1 6988   4.406   0.928   2.579 -1.1810 -0.6083  1.6702
 2259WAT     H2 6989   4.393   0.777   2.586 -2.3641 -0.6373 -0.4241
 2260WAT      O 6990   3.991   0.853   5.028  0.1026  0.3071  0.5685
 2260WAT     H1 6991   3.959   0.862   5.118 -0.1305 -0.1582  0.5372
 2260WAT     H2 6992   3.922   0.889   4.973  0.5067  1.1546  0.6018
 2261WAT      O 6993   4.472   5.091   2.796 -0.1542  0.3760  0.3432
 2261WAT     H1 6994   4.530   5.168   2.799  3.3775 -2.0020 -0.4945
 2261WAT     H2 6995   4.482   5.051   2.882  2.1450 -1.7176 -0.7782
 2262WAT      O 6996   0.626   0.099   4.495  0.1313  0.1177 -0.2096
 2262WAT     H1 6997   0.599   0.174   4.443 -0.9839  2.5733  3.5064
 2262WAT     H2 6998   0.545   0.070   4.538  0.9290 -1.9547  0.0064
 2263WAT      O 6999   1.827   2.427   0.545  0.4015  0.0274 -0.1981
 2263WAT     H1 7000   1.763   2.458   0.480  0.7143 -1.8614 -1.4720
 2263WAT     H2 7001   1.775   2.406   0.622 -0.4009 -0.6286 -0.9085
 2264WAT      O 7002   3.605   4.317   1.021 -1.1344  0.0797 -0.3540
 2264WAT     H1 7003   3.556   4.280   0.947 -1.0007 -1.4490  0.2775
 2264WAT     H2 7004   3.630   4.241   1.073  2.2101  0.7537 -0.8038
 2265WAT      O 7005   2.398   4.710   3.365  0.3848 -0.1124 -0.1450
 2265WAT     H1 7006   2.370   4.670   3.447  1.6445 -1.5556 -0.3727
 2265WAT     H2 7007   2.404   4.637   3.303 -1.7176  1.0944 -1.9052
 2266WAT      O 7008   3.634   5.061   3.509  0.0477  0.2981 -0.3417
 2266WAT     H1 7009   3.673   4.997   3.449  0.6314 -0.4486  0.8043
 2266WAT     H2 7010   3.560   5.097   3.460 -1.6352 -2.7746 -0.2946
 2267WAT      O 7011   1.405   1.657   4.764 -0.1492 -0.0199 -0.6703
 2267WAT     H1 7012   1.481   1.599   4.758 -0.8380 -0.9521 -0.4951
 2267WAT     H2 7013   1.425   1.728   4.703  1.2073  0.1608 -0.0505
 2268WAT      O 7014   0.420   3.194   0.336 -0.0292  0.4456  0.3514
 2268WAT     H1 7015   0.373   3.128   0.285  1.0209  0.0654 -0.1548
 2268WAT     H2 7016   0.495   3.146   0.373  1.5384  1.6066 -1.1308
 2269WAT      O 7017   3.795   0.665   1.048 -0.7431  0.1889  0.0473
 2269WAT     H1 7018   3.867   0.613   1.011 -1.1327  0.4271 -1.0987
 2269WAT     H2 7019   3.836   0.719   1.115  0.2683  0.7328 -0.9771
 2270WAT      O 7020   1.972   1.801   2.454  0.0748  0.9086  0.0778
 2270WAT     H1 7021   1.914   1.816   2.379 -0.8231  1.2483  0.8040
 2270WAT     H2 7022   1.963   1.881   2.506 -0.7137 -0.0144  1.4280
 2271WAT      O 7023   0.143   5.013   3.208 -0.5910  0.5008  0.2424
 2271WAT     H1 7024   0.191   5.096   3.217 -0.3215  0.3729 -0.0166
 2271WAT     H2 7025   0.207   4.946   3.234 -0.3390  0.2562 -0.9783
 2272WAT      O 7026   3.065   0.388   4.058  0.2894 -0.6108  0.0885
 2272WAT     H1 7027   2.978   0.350   4.043  0.5902 -0.9170 -1.0049
 2272WAT     H2 7028   3.070   0.400   4.153 -1.2840  0.2606  0.0858
 2273WAT      O 7029   4.293   3.429   5.278 -0.1355  0.3515 -0.4170
 2273WAT     H1 7030   4.281   3.343   5.238 -1.2812  0.8666 -1.2310
 2273WAT     H2 7031   4.209   3.474   5.265 -0.0643  1.0614  1.3155
 2274WAT      O 7032   3.680   0.149   3.923 -0.6351  0.4245  0.0882
 2274WAT     H1 7033   3.701   0.137   3.831  0.6269  1.4387  0.2094
 2274WAT     H2 7034   3.617   0.221   3.924  2.1699  3.0906  0.1583
 2275WAT      O 7035   1.531   4.593   0.686  0.3585  0.2544 -0.6148
 2275WAT     H1 7036   1.554   4.574   0.595  0.3083 -1.1456 -0.3528
 2275WAT     H2 7037   1.586   4.534   0.738  0.3892  1.0371  0.2759
 2276WAT      O 7038   1.528   4.069   2.283 -0.1276  0.1551 -0.0408
 2276WAT     H1 7039   1.486   4.027   2.358  0.4372  0.6309  0.5512
 2276WAT     H2 7040   1.596   4.007   2.257 -1.2630 -0.6887 -1.0990
 2277WAT      O 7041   1.419   4.493   5.194  0.2416 -0.3811  0.3397
 2277WAT     H1 7042   1.487   4.459   5.136 -0.0212 -0.8572  0.3063
 2277WAT     H2 7043   1.337   4.477   5.147  0.1329  0.6341  0.1580
 2278WAT      O 7044   4.262   0.860   4.566 -0.5049  0.0109  0.6406
 2278WAT     H1 7045   4.305   0.780   4.597 -1.4886 -0.5393  0.6287
 2278WAT     H2 7046   4.334   0.918   4.541  0.2406 -1.4332 -0.7481
 2279WAT      O 7047   2.912   0.702   3.382 -0.0222  0.0824 -0.3427
 2279WAT     H1 7048   2.875   0.641   3.446  0.9729  1.0886  1.2717
 2279WAT     H2 7049   2.847   0.772   3.374 -0.1502 -0.0474 -0.4283
 2280WAT      O 7050   2.567   2.706   4.667 -0.7402 -0.1147  0.2277
 2280WAT     H1 7051   2.599   2.780   4.615 -0.5010 -0.1987  0.2518
 2280WAT     H2 7052   2.573   2.736   4.757 -2.2068  0.4395  0.1639
 2281WAT      O 7053   0.904   2.855   2.766 -0.6699 -0.5758 -0.3198
 2281WAT     H1 7054   0.999   2.856   2.757 -0.6782 -1.2830 -0.5092
 2281WAT     H2 7055   0.888   2.868   2.860 -0.4174  0.4621 -0.4124
 2282WAT      O 7056   0.043   1.661   0.260  0.0834 -0.1696 -0.5027
 2282WAT     H1 7057   0.053   1.719   0.335 -0.2076 -1.2577  0.3967
 2282WAT     H2 7058   0.076   1.576   0.290 -0.4580 -0.7395 -1.4543
 2283WAT      O 7059   3.078   2.612   2.573  0.1761  0.4938 -0.2053
 2283WAT     H1 7060   3.030   2.546   2.623 -0.8674  1.5305  0.1763
 2283WAT     H2 7061   3.087   2.686   2.633 -0.5290  1.5144 -1.3357
 2284WAT      O 7062   2.408   2.261   1.522  0.9215  0.3152 -0.4328
 2284WAT     H1 7063   2.467   2.192   1.553 -1.1401 -0.9744  0.8980
 2284WAT     H2 7064   2.326   2.245   1.569  0.3641  3.7894  0.0611
 2285WAT      O 7065   2.919   1.341   1.005  0.4142  0.4205 -0.3689
 2285WAT     H1 7066   2.854   1.307   0.944  1.7027 -2.0107 -0.5318
 2285WAT     H2 7067   2.997   1.357   0.951  0.4249  1.8615  0.0521
 2286WAT      O 7068   1.471   3.189   0.843  0.0698  0.5445 -0.1046
 2286WAT     H1 7069   1.401   3.126   0.858 -0.2604  0.9294 -0.0235
 2286WAT     H2 7070   1.437   3.247   0.775  0.6602  0.1937 -0.7157
 2287WAT      O 7071   3.465   2.708   1.250 -0.0530  0.0281  0.7459
 2287WAT     H1 7072   3.467   2.772   1.321  0.9059 -0.6281  1.3368
 2287WAT     H2 7073   3.426   2.630   1.290 -0.3397 -0.0627  0.2942
 2288WAT      O 7074   2.167   3.471   2.394  0.1483 -0.3498  0.7845
 2288WAT     H1 7075   2.130   3.550   2.433  0.7672  0.3066  0.0713
 2288WAT     H2 7076   2.180   3.411   2.467 -1.4658 -0.2656  1.1736
 2289WAT      O 7077   4.249   2.698   0.424  0.1235  0.0983 -0.3399
 2289WAT     H1 7078   4.153   2.704   0.425 -0.0093 -1.5929  0.8075
 2289WAT     H2 7079   4.278   2.781   0.460 -0.9416  0.4379 -0.2168
 2290WAT      O 7080   1.424   0.398   4.159 -0.1303  0.0629  0.7316
 2290WAT     H1 7081   1.501   0.347   4.185 -0.6711 -2.0200 -1.3161
 2290WAT     H2 7082   1.360   0.380   4.228  0.9441  1.2793  2.1082
 2291WAT      O 7083   3.040   0.716   2.596  0.5847 -0.3111  0.0000
 2291WAT     H1 7084   3.002   0.733   2.682  0.9697 -1.2787  0.3773
 2291WAT     H2 7085   3.030   0.798   2.549  0.7507  0.3725  1.1168
 2292WAT      O 7086   3.350   0.816   3.103  0.2059 -0.6073 -0.0151
 2292WAT     H1 7087   3.255   0.810   3.112 -0.0675  1.8050 -0.7281
 2292WAT     H2 7088   3.374   0.740   3.050 -1.3305 -1.2063  0.1040
 2293WAT      O 7089   2.793   3.447   2.614 -0.1446  0.0246 -0.2648
 2293WAT     H1 7090   2.752   3.456   2.700  0.1368  2.9304 -0.3610
 2293WAT     H2 7091   2.721   3.462   2.552  0.0973  0.2038 -0.5017
 2294WAT      O 7092   1.190   5.133   3.521  0.6045  0.2112  0.6443
 2294WAT     H1 7093   1.271   5.159   3.565  1.3748 -1.5059  0.3458
 2294WAT     H2 7094   1.156   5.061   3.575  0.6415 -0.7616 -0.5993
 2295WAT      O 7095   0.021   3.399   4.548 -0.0425  0.1370 -0.4286
 2295WAT     H1 7096  -0.051   3.451   4.584 -1.2576 -2.3638  1.0357
 2295WAT     H2 7097   0.098   3.426   4.598 -0.4699  1.1026 -0.2785
 2296WAT      O 7098   4.297   0.360   3.971 -0.6693  0.0253  0.4843
 2296WAT     H1 7099   4.271   0.415   4.044  0.0187  0.5461  0.3493
 2296WAT     H2 7100   4.360   0.298   4.008 -0.6465  0.0114  0.4235
 2297WAT      O 7101   3.809   1.513   4.900  0.0894 -0.5184 -0.3440
 2297WAT     H1 7102   3.873   1.442   4.899  0.0811 -0.6535  2.0589
 2297WAT     H2 7103   3.754   1.494   4.976 -1.4781  0.7502 -1.1044
 2298WAT      O 7104   1.754   3.511  -0.001 -0.2526 -0.0285  0.2833
 2298WAT     H1 7105   1.812   3.587  -0.003  1.4134 -1.2370  0.6381
 2298WAT     H2 7106   1.688   3.533   0.064 -0.1274  1.3334 -0.0274
 2299WAT      O 7107   1.372   2.018   0.919 -0.3419 -0.0338  0.2440
 2299WAT     H1 7108   1.294   2.023   0.864  0.2640  0.7116 -0.5831
 2299WAT     H2 7109   1.438   1.977   0.862  0.4992  1.3990  0.1442
 2300WAT      O 7110   0.513   0.380   0.719 -0.5490  0.3041 -0.1906
 2300WAT     H1 7111   0.485   0.446   0.655  0.4503 -0.1830 -1.1600
 2300WAT     H2 7112   0.595   0.346   0.684  0.1948  0.2311  1.5140
 2301WAT      O 7113   1.358   3.166   1.611  0.0521 -0.1268  0.0112
 2301WAT     H1 7114   1.414   3.097   1.647  1.1656  0.8460  0.1886
 2301WAT     H2 7115   1.275   3.155   1.658  0.0276 -1.6593 -0.3355
 2302WAT      O 7116   4.398   4.330   2.178 -0.6026 -0.1127 -0.5967
 2302WAT     H1 7117   4.307   4.325   2.147 -0.1785  1.3626 -2.2443
 2302WAT     H2 7118   4.391   4.367   2.266 -1.6562 -1.4684 -0.0549
 2303WAT      O 7119   0.277   4.246   0.435 -0.3667  0.0475 -0.1275
 2303WAT     H1 7120   0.339   4.249   0.361 -1.1056  4.0313 -0.8182
 2303WAT     H2 7121   0.333   4.256   0.512  0.1785 -1.2131 -0.3331
 2304WAT      O 7122   2.944   4.543   5.103  0.2943  0.1593 -0.6890
 2304WAT     H1 7123   2.870   4.564   5.046 -0.0917 -0.1582 -0.3107
 2304WAT     H2 7124   2.912   4.564   5.191  0.4741 -0.4647 -0.4752
 2305WAT      O 7125   1.373   3.370   1.098  0.4512 -0.0083 -0.3038
 2305WAT     H1 7126   1.348   3.438   1.034 -1.7501 -1.3017 -0.9473
 2305WAT     H2 7127   1.419   3.304   1.046  0.7361  0.0298 -0.0978
 2306WAT      O 7128   0.316   0.161   5.242  0.3622  0.0820  0.2835
 2306WAT     H1 7129   0.230   0.203   5.234 -0.2158 -1.0326  0.2936
 2306WAT     H2 7130   0.311   0.115   5.326  0.1041 -1.7834 -0.6843
 2307WAT      O 7131   4.107   1.516   1.613 -0.2297 -0.5897  0.1021
 2307WAT     H1 7132   4.059   1.570   1.549 -1.5196 -1.9518 -0.1328
 2307WAT     H2 7133   4.134   1.439   1.564 -2.0885 -2.1255  1.3595
 2308WAT      O 7134   1.056   4.981   2.866  0.2139 -0.0746 -0.0885
 2308WAT     H1 7135   1.143   5.005   2.833 -0.0917  2.0247  0.4760
 2308WAT     H2 7136   1.013   4.939   2.792  1.5531 -0.7748 -0.5085
 2309WAT      O 7137   0.449   3.384   1.747 -0.0931 -0.6902  0.0151
 2309WAT     H1 7138   0.387   3.356   1.680 -0.5231  0.3183 -0.0248
 2309WAT     H2 7139   0.398   3.441   1.805  0.6047 -0.4639  0.4215
 2310WAT      O 7140   1.121   4.058   2.096  0.3710  0.1014 -0.0269
 2310WAT     H1 7141   1.106   4.026   2.185 -0.7823  2.3517  0.6685
 2310WAT     H2 7142   1.211   4.092   2.098  0.9932 -1.4579 -0.2848
 2311WAT      O 7143   2.395   2.894   0.185  0.3302 -0.1528  0.2003
 2311WAT     H1 7144   2.339   2.874   0.261 -0.7499 -0.1416 -0.5779
 2311WAT     H2 7145   2.391   2.815   0.131  0.7632 -0.0031 -0.0568
 2312WAT      O 7146   2.355   3.887   2.310  0.1970  0.0435 -0.6832
 2312WAT     H1 7147   2.376   3.973   2.346  1.2365 -0.4494 -0.0546
 2312WAT     H2 7148   2.419   3.874   2.240 -0.3907  0.0571 -1.2282
 2313WAT      O 7149   4.070   0.018   5.194  0.1485  0.2592  0.1734
 2313WAT     H1 7150   4.079   0.093   5.135  0.3174 -0.7753 -1.1769
 2313WAT     H2 7151   4.020   0.051   5.268 -0.5705  1.4844 -0.8227
 2314WAT      O 7152   1.547   3.616   0.681  0.5785 -0.4209 -0.0084
 2314WAT     H1 7153   1.636   3.583   0.693  0.6330 -0.1510  0.3630
 2314WAT     H2 7154   1.532   3.613   0.586  1.1443 -0.0605 -0.1146
 2315WAT      O 7155   1.376   1.939   3.374  0.1384 -0.1371  0.3301
 2315WAT     H1 7156   1.349   1.847   3.383 -0.8140 -0.0797 -1.4299
 2315WAT     H2 7157   1.295   1.989   3.386  0.4055  0.3784  0.0005
 2316WAT      O 7158   1.850   3.514   4.815  0.7130 -0.4984 -0.1926
 2316WAT     H1 7159   1.884   3.556   4.894 -0.9636  1.1632 -0.2855
 2316WAT     H2 7160   1.891   3.562   4.743 -0.8812  0.8105 -0.2954
 2317WAT      O 7161   0.985   4.260   0.009  0.2991 -0.5227 -0.1163
 2317WAT     H1 7162   1.009   4.296   0.094 -0.3444 -1.8110  0.6354
 2317WAT     H2 7163   1.049   4.191  -0.008  0.0447 -0.6978 -0.3854
 2318WAT      O 7164   2.974   3.613   4.680  0.3693  0.1160  0.2372
 2318WAT     H1 7165   3.004   3.654   4.598  1.2639  1.3410  1.1326
 2318WAT     H2 7166   2.933   3.685   4.728 -0.4632 -0.6763  0.7180
 2319WAT      O 7167   2.966   4.776   0.349  0.5276  0.5387 -0.1080
 2319WAT     H1 7168   3.013   4.741   0.273 -0.0077  0.3852 -0.3715
 2319WAT     H2 7169   2.971   4.871   0.337  1.3112  0.5406  0.1998
 2320WAT      O 7170   4.016   2.564   2.962  0.3564  0.1689  0.5265
 2320WAT     H1 7171   4.061   2.623   2.901 -1.1379  1.4747  0.6375
 2320WAT     H2 7172   3.923   2.578   2.945 -0.0540 -1.2298  1.4595
 2321WAT      O 7173   0.459   1.413   0.847  0.6805 -0.3596 -0.0390
 2321WAT     H1 7174   0.503   1.498   0.853 -1.8853  1.1760 -1.3451
 2321WAT     H2 7175   0.428   1.396   0.936 -0.2039  0.9367 -0.0720
 2322WAT      O 7176   1.333   2.350   3.619  0.6440 -0.1905  0.2857
 2322WAT     H1 7177   1.258   2.307   3.579  0.2487 -0.2455  1.0628
 2322WAT     H2 7178   1.313   2.350   3.713  1.1788  0.6446  0.4097
 2323WAT      O 7179   1.283   0.243   1.866  0.3621  0.5562 -0.1957
 2323WAT     H1 7180   1.209   0.304   1.865 -1.4184 -1.4358  0.7012
 2323WAT     H2 7181   1.319   0.250   1.954  0.3642  0.5825 -0.1988
 2324WAT      O 7182   4.007   4.628   0.722 -0.2689  0.5804 -0.1209
 2324WAT     H1 7183   3.974   4.543   0.752 -2.9302  1.5857  0.1136
 2324WAT     H2 7184   4.084   4.607   0.670 -0.6053 -1.9377  0.2530
 2325WAT      O 7185   2.393   4.084   1.664  0.8137 -0.0492  0.3591
 2325WAT     H1 7186   2.316   4.115   1.616  0.9542 -1.4215 -0.8170
 2325WAT     H2 7187   2.456   4.061   1.596  1.4094 -1.0993  1.2259
 2326WAT      O 7188   1.090   4.596   3.177 -0.5329 -0.0773 -0.5157
 2326WAT     H1 7189   1.065   4.671   3.123 -0.7626  0.6050  0.5273
 2326WAT     H2 7190   1.180   4.578   3.152  0.3780  2.0891  0.9056
 2327WAT      O 7191   3.923   2.964   5.266  0.4147  0.2614 -0.4752
 2327WAT     H1 7192   3.851   3.019   5.298 -0.1365 -0.5823 -0.2166
 2327WAT     H2 7193   4.000   2.996   5.313 -0.0287  0.3524  0.2061
 2328WAT      O 7194   0.127   3.113   5.287  0.3825 -0.5473 -0.0480
 2328WAT     H1 7195   0.083   3.170   5.350  0.3540 -0.8581  0.2132
 2328WAT     H2 7196   0.062   3.045   5.266  0.6526 -0.8708  0.1584
 2329WAT      O 7197   0.881   3.127   0.356 -0.0011  0.2698 -0.7211
 2329WAT     H1 7198   0.808   3.186   0.336 -1.7278 -1.0697  1.2141
 2329WAT     H2 7199   0.863   3.049   0.304  0.8298  0.4320 -1.2699
 2330WAT      O 7200   1.322   0.018   2.113 -0.6034 -0.5101  0.7434
 2330WAT     H1 7201   1.395  -0.043   2.100 -0.6117 -0.1870 -1.2505
 2330WAT     H2 7202   1.348   0.073   2.186  1.0801 -0.5533  0.2117
 2331WAT      O 7203   0.577   2.527   2.642 -0.1161 -0.6129 -0.3129
 2331WAT     H1 7204   0.548   2.490   2.725 -0.0733  2.1404  1.0542
 2331WAT     H2 7205   0.672   2.536   2.651 -0.1150 -0.2574 -0.6342
 2332WAT      O 7206   0.987   4.736   5.229 -0.2713  0.0630  0.0204
 2332WAT     H1 7207   0.962   4.805   5.291 -0.5485 -0.4803  0.5193
 2332WAT     H2 7208   1.033   4.671   5.282  1.6983  0.7417 -0.7778
 2333WAT      O 7209   4.133   0.672   2.244  0.3459 -0.2213  0.4769
 2333WAT     H1 7210   4.083   0.674   2.163  0.6865  0.6946  0.2749
 2333WAT     H2 7211   4.174   0.758   2.250  3.0849 -1.3423 -0.1283
 2334WAT      O 7212   0.778   4.134   3.253 -0.3849  0.5748  0.3716
 2334WAT     H1 7213   0.718   4.161   3.322 -4.2674 -1.5464 -1.8109
 2334WAT     H2 7214   0.735   4.162   3.172  2.1230 -0.1874 -1.3546
 2335WAT      O 7215   3.507   0.981   4.973 -0.3552  0.1889  0.2194
 2335WAT     H1 7216   3.555   1.011   5.051  1.7274 -1.4385 -0.3408
 2335WAT     H2 7217   3.498   1.060   4.919  1.5673  0.6201  0.4498
 2336WAT      O 7218   4.270   3.611   0.312  0.7244 -0.0632 -0.1124
 2336WAT     H1 7219   4.233   3.528   0.282 -1.6934  0.5564  0.9011
 2336WAT     H2 7220   4.362   3.607   0.286  1.0129 -3.5503  0.9345
 2337WAT      O 7221   1.623   3.660   1.151 -0.0232 -0.4177  0.0086
 2337WAT     H1 7222   1.599   3.750   1.176 -0.1482 -0.7684  1.2343
 2337WAT     H2 7223   1.543   3.609   1.167  0.6895 -1.1241  1.5354
 2338WAT      O 7224   2.299   2.840   1.052 -0.3542  0.0543 -0.2909
 2338WAT     H1 7225   2.319   2.755   1.091 -0.9245 -1.4044 -2.9442
 2338WAT     H2 7226   2.216   2.866   1.092 -0.0837 -0.5357  0.6884
 2339WAT      O 7227   3.970   0.235   4.472 -0.0870 -0.2193 -0.3340
 2339WAT     H1 7228   3.994   0.229   4.565 -0.7185 -1.0113 -0.2179
 2339WAT     H2 7229   3.894   0.179   4.463 -1.9740  2.2358 -0.6865
 2340WAT      O 7230   1.919   3.851   1.929 -0.2701  0.0844  0.1221
 2340WAT     H1 7231   1.913   3.758   1.906 -0.1699  0.0805  0.1109
 2340WAT     H2 7232   2.011   3.864   1.952 -0.0280  0.4315 -0.9781
 2341WAT      O 7233   2.374   3.755   2.771  0.1890  0.2424  0.2404
 2341WAT     H1 7234   2.380   3.850   2.759 -0.7157  0.2879  0.1055
 2341WAT     H2 7235   2.318   3.725   2.699  1.1979 -0.5232 -0.2657
 2342WAT      O 7236   2.074   2.611   3.347  0.3754 -0.2150 -0.3283
 2342WAT     H1 7237   2.048   2.651   3.264  3.4388  1.0614 -0.7942
 2342WAT     H2 7238   2.118   2.530   3.322 -0.3788 -0.8111  0.2221
 2343WAT      O 7239   4.349   4.901   4.611 -0.0964 -0.0587  0.5367
 2343WAT     H1 7240   4.386   4.837   4.551  0.2170 -0.0313  0.6976
 2343WAT     H2 7241   4.354   4.859   4.697  0.2160  0.2213  0.6599
 2344WAT      O 7242   3.139   0.806   4.132 -0.1957  0.0556  0.0035
 2344WAT     H1 7243   3.194   0.740   4.175 -2.6819 -1.7835  0.5612
 2344WAT     H2 7244   3.122   0.871   4.201  3.4300  2.2517 -0.9243
 2345WAT      O 7245   4.342   4.638   1.711 -0.9396  0.8837 -0.6548
 2345WAT     H1 7246   4.280   4.600   1.649 -1.6360  0.0508  0.5093
 2345WAT     H2 7247   4.396   4.564   1.741  1.1216  1.6925 -2.1372
 2346WAT      O 7248   4.124   0.530   5.192 -0.2148 -0.1393 -1.3259
 2346WAT     H1 7249   4.210   0.487   5.197 -0.2130  0.0020  0.2044
 2346WAT     H2 7250   4.061   0.459   5.203 -0.2790 -0.1084 -1.4867
 2347WAT      O 7251   0.911   4.629   2.793  0.2316  0.0363  0.2364
 2347WAT     H1 7252   0.941   4.693   2.728  0.7102 -0.7134 -0.2942
 2347WAT     H2 7253   0.949   4.546   2.765 -0.1558 -0.4414  1.0707
 2348WAT      O 7254   1.444   3.082   4.690  0.0276  0.0471 -0.1061
 2348WAT     H1 7255   1.469   3.094   4.782  3.2220  2.4047 -1.0976
 2348WAT     H2 7256   1.512   3.024   4.655  1.1512  2.1784 -1.7118
 2349WAT      O 7257   4.110   1.594   0.774  0.5177  0.1676 -0.2595
 2349WAT     H1 7258   4.065   1.525   0.821 -0.6185  1.3150  0.4142
 2349WAT     H2 7259   4.119   1.561   0.685 -1.1933 -0.3423 -0.2745
 2350WAT      O 7260   4.375   3.932   0.173 -0.5703 -0.2977  1.3388
 2350WAT     H1 7261   4.365   3.994   0.245 -0.9491  0.4301  0.6704
 2350WAT     H2 7262   4.461   3.893   0.187  0.2401  1.3251  1.0491
 2351WAT      O 7263   3.512   0.435   3.024 -0.2480 -0.1050  0.1906
 2351WAT     H1 7264   3.427   0.476   3.008 -0.8175 -0.7646  1.4680
 2351WAT     H2 7265   3.492   0.346   3.052  0.8702 -0.3184  0.3850
 2352WAT      O 7266   3.571   3.034   4.635 -0.3284 -0.8462 -0.1974
 2352WAT     H1 7267   3.659   3.043   4.599 -0.2885 -2.9266 -0.7484
 2352WAT     H2 7268   3.513   3.053   4.561 -0.4558  1.8205  0.4735
 2353WAT      O 7269   0.508   3.931   0.971  0.2028 -0.2798 -0.0404
 2353WAT     H1 7270   0.438   3.873   1.003 -0.7189  1.1576  0.6850
 2353WAT     H2 7271   0.554   3.879   0.905  0.2523 -2.2980  1.4595
 2354WAT      O 7272   0.688   3.815   4.920  0.0196  0.4997 -0.1250
 2354WAT     H1 7273   0.681   3.858   4.835 -0.5192  0.1674 -0.2578
 2354WAT     H2 7274   0.653   3.727   4.905  0.1209  0.3692  0.3873
 2355WAT      O 7275   3.904   0.415   1.586  0.1625 -0.0431 -0.2712
 2355WAT     H1 7276   3.973   0.353   1.609  1.0005  0.4865 -1.3031
 2355WAT     H2 7277   3.840   0.407   1.657  0.5114 -1.6911 -0.1150
 2356WAT      O 7278   4.068   0.060   3.735  0.2892  0.0973 -0.8750
 2356WAT     H1 7279   4.059  -0.017   3.678  0.6876 -0.6586  0.0609
 2356WAT     H2 7280   3.979   0.078   3.764  0.2786 -0.4698 -0.5277
 2357WAT      O 7281   1.352   3.585   0.900 -0.0894 -0.2499  0.1450
 2357WAT     H1 7282   1.429   3.598   0.845  0.9152  1.9188  1.9042
 2357WAT     H2 7283   1.285   3.554   0.840  1.6956 -0.6868 -1.7487
 2358WAT      O 7284   0.925   0.183   1.946  0.0324 -0.2713 -0.2313
 2358WAT     H1 7285   0.979   0.249   1.903 -1.2983  1.6129  0.8511
 2358WAT     H2 7286   0.837   0.219   1.944 -0.7192 -1.9683  0.5269
 2359WAT      O 7287   3.694   1.008   2.666  0.2771 -0.9581 -0.8349
 2359WAT     H1 7288   3.737   0.996   2.750  0.8378 -2.0806 -1.2616
 2359WAT     H2 7289   3.727   1.092   2.634  0.5690 -0.8387 -0.2251
 2360WAT      O 7290   1.292   1.429   2.544 -0.2973 -0.4485  0.6074
 2360WAT     H1 7291   1.367   1.487   2.556  0.5093 -0.6378 -2.6263
 2360WAT     H2 7292   1.245   1.433   2.628  0.5504  3.6271  1.0989
 2361WAT      O 7293   3.047   2.075   0.273 -0.2915 -0.1338  0.1587
 2361WAT     H1 7294   2.982   2.144   0.287 -0.4214 -0.1251 -0.4865
 2361WAT     H2 7295   3.117   2.096   0.336 -0.2612  0.6808 -0.1322
 2362WAT      O 7296   1.086   1.934   3.445  0.2109 -0.5896 -0.7666
 2362WAT     H1 7297   1.089   1.839   3.452 -0.4005 -0.5377  0.4396
 2362WAT     H2 7298   0.993   1.956   3.449  0.2533  0.0025 -2.2126
 2363WAT      O 7299   4.398   2.664   3.390 -0.2233 -0.0173  0.3940
 2363WAT     H1 7300   4.460   2.698   3.325  0.0913  0.7063  1.0621
 2363WAT     H2 7301   4.394   2.570   3.373  1.9713 -0.2730  1.0925
 2364WAT      O 7302   4.019   0.320   1.260  0.1931  0.2354 -0.5916
 2364WAT     H1 7303   4.072   0.240   1.261  1.6071  1.1211 -1.2944
 2364WAT     H2 7304   4.032   0.359   1.347 -1.6986 -0.9948  0.3137
 2365WAT      O 7305   0.244   0.336   0.802 -0.3084 -0.7745  0.2588
 2365WAT     H1 7306   0.236   0.254   0.851 -0.6751 -1.0184 -0.1936
 2365WAT     H2 7307   0.328   0.328   0.756  0.1983 -0.3985  1.0980
 2366WAT      O 7308   4.308   4.671   2.594  0.0741  0.3938  0.1184
 2366WAT     H1 7309   4.219   4.679   2.561  0.0347  1.2170  0.4023
 2366WAT     H2 7310   4.298   4.643   2.685  0.1254 -0.1119 -0.0311
 2367WAT      O 7311   2.149   4.489   2.338  0.3587 -0.0629 -0.5209
 2367WAT     H1 7312   2.207   4.415   2.356 -0.2169 -0.6568 -1.0795
 2367WAT     H2 7313   2.082   4.454   2.280 -0.3188  0.7306 -0.2344
 2368WAT      O 7314   1.548   2.524   3.604 -0.4977 -0.2024  0.2323
 2368WAT     H1 7315   1.461   2.487   3.609 -0.6418 -0.4725 -2.6066
 2368WAT     H2 7316   1.604   2.452   3.574  0.5990  0.1366  1.3624
 2369WAT      O 7317   1.426   1.234   2.779  0.2090  0.5687  0.5541
 2369WAT     H1 7318   1.497   1.242   2.715  1.1452  1.6114  1.6781
 2369WAT     H2 7319   1.363   1.300   2.752  0.6042  1.0126  0.7111
 2370WAT      O 7320   0.471   0.519   4.444 -0.2750 -0.1230  0.3130
 2370WAT     H1 7321   0.435   0.571   4.516  0.6119 -1.1572  1.5697
 2370WAT     H2 7322   0.399   0.461   4.418 -0.2177 -0.6529  1.2897
 2371WAT      O 7323   1.630   3.771   2.257  0.2519 -0.4246  0.2096
 2371WAT     H1 7324   1.715   3.790   2.296 -0.0197  1.6748 -0.0822
 2371WAT     H2 7325   1.585   3.717   2.323  0.8685  0.6004  1.5293
 2372WAT      O 7326   4.376   1.408   4.328  0.2888  0.2309  0.0514
 2372WAT     H1 7327   4.373   1.491   4.376  0.8630  0.3895 -0.1747
 2372WAT     H2 7328   4.320   1.422   4.252  0.0587  0.2695  0.2266
 2373WAT      O 7329   0.662   4.881   0.677  0.5527  0.6432  0.1342
 2373WAT     H1 7330   0.687   4.815   0.742  3.2884 -0.5687 -1.9363
 2373WAT     H2 7331   0.704   4.961   0.708  0.7474  0.3930  0.5352
 2374WAT      O 7332   1.044   3.100   2.979 -0.4695  0.1747  0.0540
 2374WAT     H1 7333   0.969   3.100   2.919 -1.9916 -0.4786  1.8616
 2374WAT     H2 7334   1.031   3.023   3.035  3.4833 -2.1715 -1.7619
 2375WAT      O 7335   1.951   0.828   4.707  0.3304  0.1266 -0.2900
 2375WAT     H1 7336   1.932   0.754   4.764 -0.2434  1.5843  1.5146
 2375WAT     H2 7337   1.916   0.904   4.754  3.2381  1.9043 -0.7463
 2376WAT      O 7338   2.678   4.819   4.468 -0.0336  0.2485 -0.0882
 2376WAT     H1 7339   2.746   4.758   4.494  1.5370  1.7456 -0.5209
 2376WAT     H2 7340   2.674   4.883   4.540  0.5677  1.3840 -1.0349
 2377WAT      O 7341   1.752   4.524   1.933 -0.5659 -0.0759  0.2823
 2377WAT     H1 7342   1.828   4.562   1.889 -0.0856 -2.6613 -1.3984
 2377WAT     H2 7343   1.680   4.584   1.913  0.7374  1.6853  0.7123
 2378WAT      O 7344   0.089   0.179   1.011 -0.8735  0.0661  0.3494
 2378WAT     H1 7345   0.028   0.242   1.051  0.3713  1.8492 -0.3926
 2378WAT     H2 7346   0.065   0.178   0.919 -0.5335 -0.1451  0.2633
 2379WAT      O 7347   2.557   0.713   0.188 -0.3801 -0.3428 -0.0766
 2379WAT     H1 7348   2.640   0.753   0.165 -0.4516  0.4069  0.8960
 2379WAT     H2 7349   2.581   0.634   0.237 -0.2487 -0.6062 -0.5571
 2380WAT      O 7350   4.324   4.159   4.351 -0.3461 -0.4415  0.2870
 2380WAT     H1 7351   4.298   4.067   4.354 -0.7587 -0.3089  1.4834
 2380WAT     H2 7352   4.272   4.201   4.420 -0.0349  0.6546 -0.1214
 2381WAT      O 7353   0.119   3.146   1.133  0.1637  0.1654  0.3128
 2381WAT     H1 7354   0.162   3.222   1.094  1.4071 -1.1414 -0.9842
 2381WAT     H2 7355   0.181   3.113   1.197 -0.3542  0.1800  0.8388
 2382WAT      O 7356   0.197   3.833   2.998  0.0456 -0.2606 -0.0493
 2382WAT     H1 7357   0.279   3.785   2.989  0.3913  0.2936  0.0985
 2382WAT     H2 7358   0.183   3.874   2.913 -0.6005 -1.1646 -0.3895
 2383WAT      O 7359   3.459   1.770   3.487  0.0284  0.0427  0.9553
 2383WAT     H1 7360   3.503   1.854   3.473 -0.3002 -0.0724 -0.9827
 2383WAT     H2 7361   3.383   1.792   3.542  0.2669  0.8985  0.9601
 2384WAT      O 7362   1.176   4.607   1.535  0.1056 -0.2551  0.8759
 2384WAT     H1 7363   1.230   4.530   1.520  0.1584 -0.3314  1.4676
 2384WAT     H2 7364   1.116   4.582   1.605 -0.0269  0.1687  0.9205
 2385WAT      O 7365   3.742   0.417   1.362 -0.4661 -0.0375 -0.1119
 2385WAT     H1 7366   3.757   0.404   1.268 -0.6457  1.4989 -0.3719
 2385WAT     H2 7367   3.820   0.379   1.403 -1.2594 -2.5152 -0.7026
 2386WAT      O 7368   1.993   4.288   1.836  0.1608  0.4502  0.1520
 2386WAT     H1 7369   1.978   4.380   1.857 -0.7733  0.1834  0.7194
 2386WAT     H2 7370   1.926   4.269   1.769  2.0055  0.8467 -1.9309
 2387WAT      O 7371   0.150   3.415   1.989 -0.6180 -0.2320  0.3129
 2387WAT     H1 7372   0.118   3.406   2.079 -2.3577  0.2543 -0.2225
 2387WAT     H2 7373   0.168   3.325   1.961 -0.8170 -0.4533  0.8888
 2388WAT      O 7374   2.306   2.363   0.809 -0.0319 -0.2530 -0.3124
 2388WAT     H1 7375   2.215   2.386   0.788 -0.4828 -2.0126 -0.5085
 2388WAT     H2 7376   2.300   2.275   0.846  1.4929  0.0638  0.7755
 2389WAT      O 7377   1.220   0.330   4.333 -0.0621 -0.0205 -0.3951
 2389WAT     H1 7378   1.196   0.237   4.329 -1.2934  0.2025  1.0142
 2389WAT     H2 7379   1.137   0.376   4.321  0.0046  0.8271  2.0208
 2390WAT      O 7380   0.350   3.449   1.002 -0.1872 -0.3585 -0.6010
 2390WAT     H1 7381   0.315   3.389   0.936 -2.1178 -1.0282  0.9115
 2390WAT     H2 7382   0.277   3.507   1.023  0.9830  1.1115 -0.4436
 2391WAT      O 7383   0.628   1.631   0.851 -0.2840 -0.3218 -0.5087
 2391WAT     H1 7384   0.651   1.704   0.794  0.5642 -0.3948 -0.2751
 2391WAT     H2 7385   0.706   1.616   0.905 -1.4852  0.5634  1.5953
 2392WAT      O 7386   2.529   0.860   0.938 -0.0443  0.1197  0.6868
 2392WAT     H1 7387   2.512   0.823   1.024  1.6061 -1.6412  0.3344
 2392WAT     H2 7388   2.556   0.950   0.955 -1.3892  0.3446  1.8329
 2393WAT      O 7389   1.256   3.105   3.536  0.3446 -0.0215  0.2310
 2393WAT     H1 7390   1.317   3.179   3.532 -0.7683  0.9065 -0.0785
 2393WAT     H2 7391   1.187   3.133   3.596 -0.4883 -0.4916 -0.4803
 2394WAT      O 7392   3.492   2.354   1.830  0.0442 -0.0939  0.4538
 2394WAT     H1 7393   3.409   2.332   1.788 -0.6497  0.8342  1.3055
 2394WAT     H2 7394   3.545   2.392   1.760 -0.0385 -1.1379 -0.2119
 2395WAT      O 7395   3.339   0.742   5.171  0.1985  0.2877 -0.1381
 2395WAT     H1 7396   3.375   0.763   5.084 -1.7729  0.2220 -1.0184
 2395WAT     H2 7397   3.333   0.827   5.215  0.4743  0.4232 -0.3578
 2396WAT      O 7398   3.626   3.377   4.365 -0.0529 -0.1709  0.1685
 2396WAT     H1 7399   3.584   3.309   4.313 -1.7341  1.3948 -0.6394
 2396WAT     H2 7400   3.656   3.441   4.301  1.7929 -0.2565  0.8933
 2397WAT      O 7401   2.512   0.417   2.599  0.3891 -0.4647 -0.3884
 2397WAT     H1 7402   2.516   0.372   2.683 -0.7718  0.1848  0.0327
 2397WAT     H2 7403   2.456   0.361   2.545 -1.7754  0.8158  0.4056
 2398WAT      O 7404   2.906   0.239  -0.010  0.2641 -0.1123  0.9063
 2398WAT     H1 7405   2.954   0.315   0.023 -0.2217 -1.4669  5.4513
 2398WAT     H2 7406   2.970   0.168  -0.010 -0.1801 -0.5172  0.5167
 2399WAT      O 7407   1.829   3.533   1.020 -0.4507  0.2274 -0.2041
 2399WAT     H1 7408   1.767   3.560   1.088  0.2036 -0.3446  0.6321
 2399WAT     H2 7409   1.774   3.497   0.950 -1.1266  0.8188  0.0053
 2400WAT      O 7410   4.440   5.089   3.469 -0.1379 -0.3543 -0.5355
 2400WAT     H1 7411   4.345   5.095   3.480 -0.1300  0.4563 -0.8599
 2400WAT     H2 7412   4.457   4.995   3.456 -0.7978 -0.6078  0.3385
 2401WAT      O 7413   1.174   4.446   5.077  0.2929  0.6739 -0.1762
 2401WAT     H1 7414   1.094   4.475   5.033 -0.5794  1.9510  2.0801
 2401WAT     H2 7415   1.147   4.427   5.167  2.1759 -0.7798  0.1487
 2402WAT      O 7416   1.698   1.215   2.943  0.3154  0.4032 -0.0225
 2402WAT     H1 7417   1.710   1.134   2.992 -0.6817  0.2878  0.0503
 2402WAT     H2 7418   1.650   1.189   2.864  1.4290  0.6723 -0.8108
 2403WAT      O 7419   4.428   4.671   3.138  0.0862  0.6692  0.3432
 2403WAT     H1 7420   4.419   4.578   3.154  0.0324  0.7867  1.0310
 2403WAT     H2 7421   4.339   4.706   3.146  0.0156  0.6987 -0.4840
 2404WAT      O 7422   4.256   0.423   1.954  0.0588 -0.1591 -0.3714
 2404WAT     H1 7423   4.300   0.351   1.910 -0.7948  0.6799 -2.7676
 2404WAT     H2 7424   4.326   0.484   1.976  0.3860  0.0336 -1.8835
 2405WAT      O 7425   1.443   4.994   5.169 -0.3993  0.3393  0.2882
 2405WAT     H1 7426   1.425   5.039   5.251 -0.6178 -0.8134  0.8973
 2405WAT     H2 7427   1.411   4.904   5.183  0.0373 -0.0227 -0.8694
 2406WAT      O 7428   3.265   2.852   4.440 -0.6368  0.4050 -0.3187
 2406WAT     H1 7429   3.292   2.940   4.467  1.2852 -0.4497  0.7179
 2406WAT     H2 7430   3.273   2.854   4.344 -0.4653  1.3157 -0.2988
 2407WAT      O 7431   3.259   1.996   3.439 -0.0957  0.6995 -0.1181
 2407WAT     H1 7432   3.321   2.069   3.434 -0.4250  0.9646 -0.3450
 2407WAT     H2 7433   3.305   1.923   3.396  1.0698  0.1666  1.9122
 2408WAT      O 7434   2.242   0.406   1.104  0.6135 -0.0124  0.2440
 2408WAT     H1 7435   2.154   0.403   1.140 -0.2195 -0.6242 -1.7011
 2408WAT     H2 7436   2.256   0.318   1.068  1.3275  0.5773 -0.9927
 2409WAT      O 7437   1.152   4.670   3.429  0.1346  0.6586 -0.0194
 2409WAT     H1 7438   1.135   4.649   3.337  0.2194  0.0978  0.0905
 2409WAT     H2 7439   1.194   4.756   3.426  2.8205 -0.5764 -0.7344
 2410WAT      O 7440   1.586   0.245   1.742 -0.6715 -0.3680  0.0044
 2410WAT     H1 7441   1.573   0.173   1.680 -2.7461 -0.7441  0.7983
 2410WAT     H2 7442   1.565   0.208   1.827  1.4405  0.3337  0.9076
 2411WAT      O 7443   2.044   4.068   3.455 -0.5239 -0.2275  0.6045
 2411WAT     H1 7444   2.104   4.132   3.493  1.7741 -1.5185 -0.6211
 2411WAT     H2 7445   2.015   4.109   3.373 -0.3274 -0.0933  0.6008
 2412WAT      O 7446   2.576   3.875   1.845  0.8917  0.1451 -0.7443
 2412WAT     H1 7447   2.491   3.863   1.801  0.9486  0.6643 -1.0053
 2412WAT     H2 7448   2.638   3.889   1.774  1.2301 -0.3797 -0.5617
 2413WAT      O 7449   2.717   1.140   3.828 -0.3357  0.0105 -0.1383
 2413WAT     H1 7450   2.625   1.126   3.850 -0.2708  0.3698  0.3852
 2413WAT     H2 7451   2.731   1.233   3.844  0.2026 -0.1092  0.0951
 2414WAT      O 7452   2.047   0.464   3.512 -0.3686 -0.4626 -0.1371
 2414WAT     H1 7453   2.109   0.397   3.485 -0.6639 -0.4896 -0.7672
 2414WAT     H2 7454   1.966   0.417   3.530 -0.7082 -0.2443 -1.0120
 2415WAT      O 7455   1.798   3.358   3.154 -0.3136  0.2838 -0.2316
 2415WAT     H1 7456   1.713   3.402   3.144 -0.0356  0.6036 -1.3797
 2415WAT     H2 7457   1.826   3.340   3.064  1.3268  1.1629  0.0604
 2416WAT      O 7458   4.377   4.683   3.870 -0.3827  0.2885 -0.0274
 2416WAT     H1 7459   4.308   4.748   3.857 -0.2970  0.1962 -1.0720
 2416WAT     H2 7460   4.447   4.711   3.811 -0.0475 -0.3288  0.0663
 2417WAT      O 7461   3.949   4.758   4.434  0.2011 -0.0708  0.2919
 2417WAT     H1 7462   4.020   4.822   4.443  0.0162  0.3762 -1.0580
 2417WAT     H2 7463   3.912   4.777   4.347 -1.0731 -0.7951  0.6560
 2418WAT      O 7464   2.105   4.746   4.936 -0.4611 -0.4176  0.1877
 2418WAT     H1 7465   2.068   4.739   5.024 -0.9371  1.7397  0.2121
 2418WAT     H2 7466   2.076   4.832   4.905  3.1671  0.7772 -0.4165
 2419WAT      O 7467   0.669   0.312   4.671 -0.2737 -0.8454  0.1894
 2419WAT     H1 7468   0.753   0.314   4.717 -0.0278 -1.6141 -0.2147
 2419WAT     H2 7469   0.660   0.222   4.641 -1.0301 -0.6584 -0.1760
 2420WAT      O 7470   3.399   1.071   1.573  0.1616 -0.0418 -0.7937
 2420WAT     H1 7471   3.339   1.134   1.533  0.5104  1.2254  0.6109
 2420WAT     H2 7472   3.394   0.995   1.515  0.6667  1.6837 -3.2748
 2421WAT      O 7473   3.025   3.297   2.532 -0.1081 -0.3809 -0.3167
 2421WAT     H1 7474   3.048   3.367   2.471  1.7329 -1.4980 -0.9856
 2421WAT     H2 7475   2.954   3.333   2.584  0.7819  1.9930 -0.6209
 2422WAT      O 7476   1.918   3.445   4.192  0.7138  0.1187  0.4897
 2422WAT     H1 7477   1.995   3.409   4.148 -0.8347 -0.6294 -1.8123
 2422WAT     H2 7478   1.865   3.368   4.213 -0.9095  0.7678 -1.0282
 2423WAT      O 7479   1.096   2.175   4.627 -0.6264  0.7998 -0.0892
 2423WAT     H1 7480   1.117   2.267   4.609  2.4831  0.3348  0.5732
 2423WAT     H2 7481   1.139   2.127   4.556  0.5812 -0.2838  1.3175
 2424WAT      O 7482   2.582   0.730   4.413 -0.1537  0.0924 -0.1012
 2424WAT     H1 7483   2.530   0.724   4.493 -1.6638  1.2504 -0.9491
 2424WAT     H2 7484   2.523   0.768   4.348  1.2085 -0.2559 -1.6236
 2425WAT      O 7485   2.983   4.894   2.571  0.2969  0.3117 -0.5111
 2425WAT     H1 7486   3.071   4.898   2.610  0.7634 -0.6467 -1.4076
 2425WAT     H2 7487   2.949   4.983   2.581  1.1343  0.5559  0.3807
 2426WAT      O 7488   2.517   2.288   0.671  0.2267 -0.3174 -0.1020
 2426WAT     H1 7489   2.474   2.240   0.601  1.4697 -1.9111  0.1751
 2426WAT     H2 7490   2.445   2.326   0.721 -0.6944  0.8732 -2.1854
 2427WAT      O 7491   2.556   0.396   1.727 -0.0943 -0.4295  0.5252
 2427WAT     H1 7492   2.559   0.459   1.655 -1.0142 -1.9433 -0.9221
 2427WAT     H2 7493   2.507   0.439   1.796 -0.1125  0.6748 -0.1567
 2428WAT      O 7494   4.300   3.588   4.878  0.4598  0.2021 -0.4505
 2428WAT     H1 7495   4.236   3.542   4.933  1.4627  0.0941  0.6726
 2428WAT     H2 7496   4.356   3.634   4.941  0.2809  1.9227 -1.4934
 2429WAT      O 7497   4.162   0.699   3.011 -0.2658  0.1161  0.7499
 2429WAT     H1 7498   4.247   0.696   3.054 -0.3801  0.2201  0.9859
 2429WAT     H2 7499   4.107   0.640   3.063 -1.1748  2.3201  2.4443
 2430WAT      O 7500   1.648   2.516   1.529 -0.6561  0.4578  0.1319
 2430WAT     H1 7501   1.622   2.573   1.456  0.4344 -0.8815 -1.3649
 2430WAT     H2 7502   1.581   2.530   1.596 -2.5495  0.6061 -1.7158
 2431WAT      O 7503   3.849   2.499   4.279 -0.3757  0.7051  0.8109
 2431WAT     H1 7504   3.927   2.541   4.314  0.0974  0.3019  0.2543
 2431WAT     H2 7505   3.851   2.518   4.186  1.5611 -3.0266 -0.1331
 2432WAT      O 7506   4.118   1.743   3.490 -0.3450  0.1025 -0.0139
 2432WAT     H1 7507   4.047   1.722   3.551  0.2635  0.8432  0.9920
 2432WAT     H2 7508   4.197   1.713   3.535  0.1014  0.5370 -0.5016
 2433WAT      O 7509   4.440   3.638   1.062 -0.1459 -0.5415  0.1478
 2433WAT     H1 7510   4.448   3.553   1.106  1.9863 -1.5944 -2.0324
 2433WAT     H2 7511   4.481   3.624   0.977  0.3649  2.7554 -0.2580
 2434WAT      O 7512   1.740   2.311   5.070 -0.1958  0.4155  0.0345
 2434WAT     H1 7513   1.834   2.323   5.087 -0.6421  2.0266  1.6374
 2434WAT     H2 7514   1.737   2.246   5.000  2.1378  0.8320 -0.5454
 2435WAT      O 7515   2.765   3.658   3.282  0.1750 -0.1294 -0.2056
 2435WAT     H1 7516   2.790   3.723   3.348 -0.4942 -0.0595 -0.0178
 2435WAT     H2 7517   2.692   3.611   3.322  1.0787 -1.4541 -0.0593
 2436WAT      O 7518   3.101   4.725   0.937  0.1199  0.6238 -0.1577
 2436WAT     H1 7519   3.085   4.672   1.015  2.8539 -1.7583 -1.0562
 2436WAT     H2 7520   3.145   4.804   0.970  0.1489  0.2176  0.8143
 2437WAT      O 7521   1.116   1.285   3.736  0.5750 -0.7445  0.1096
 2437WAT     H1 7522   1.051   1.238   3.684  0.4466 -0.5113  0.0565
 2437WAT     H2 7523   1.066   1.327   3.805  0.4311  0.7680 -0.8606
 2438WAT      O 7524   1.858   2.571   2.714  0.2223  0.1239  0.6804
 2438WAT     H1 7525   1.950   2.593   2.726  0.0232  0.4774  1.6651
 2438WAT     H2 7526   1.820   2.581   2.801 -0.9001  0.7119  0.1388
 2439WAT      O 7527   0.594   4.181   4.230  0.3355 -0.0123 -0.1559
 2439WAT     H1 7528   0.555   4.268   4.230  0.0726 -0.1276 -0.7581
 2439WAT     H2 7529   0.574   4.146   4.317  1.1484  0.8343  0.3820
 2440WAT      O 7530   4.095   5.091   0.995 -0.5648 -0.2967 -0.7687
 2440WAT     H1 7531   4.007   5.059   0.974  0.1430 -0.6987 -3.4543
 2440WAT     H2 7532   4.121   5.039   1.071 -2.3682 -0.6564 -0.3443
 2441WAT      O 7533   2.410   2.370   2.058  0.0033 -0.7303 -0.0729
 2441WAT     H1 7534   2.473   2.298   2.061 -1.2034 -2.0635 -2.6929
 2441WAT     H2 7535   2.327   2.331   2.085  0.0537  0.8175  2.6065
 2442WAT      O 7536   1.738   2.768   0.101  0.4790  0.0780 -0.2537
 2442WAT     H1 7537   1.664   2.721   0.141  1.9289 -1.3864  0.8872
 2442WAT     H2 7538   1.702   2.807   0.022 -1.3390 -1.2164 -0.1295
 2443WAT      O 7539   0.631   1.293   1.041  0.1841  0.0737  0.3338
 2443WAT     H1 7540   0.719   1.317   1.067  0.9704 -1.0205 -1.1586
 2443WAT     H2 7541   0.612   1.213   1.090  0.5715 -0.4410 -0.3394
 2444WAT      O 7542   4.294   1.623   3.639 -0.5612  0.1023 -0.3199
 2444WAT     H1 7543   4.367   1.560   3.641 -1.2300 -0.6935 -0.3885
 2444WAT     H2 7544   4.307   1.677   3.717 -0.5053 -0.7483  0.2712
 2445WAT      O 7545   3.122   0.030   2.426 -0.2369  0.0052  0.1704
 2445WAT     H1 7546   3.138   0.111   2.377 -0.7818 -0.5472 -0.9476
 2445WAT     H2 7547   3.060   0.055   2.494  0.7229  0.8382  0.7711
 2446WAT      O 7548   3.286   3.704   4.763  0.1628 -0.0423 -0.0510
 2446WAT     H1 7549   3.284   3.610   4.747  1.1622 -0.0053 -0.4860
 2446WAT     H2 7550   3.207   3.738   4.721 -0.3358 -0.7136  0.3318
 2447WAT      O 7551   1.060   2.597   0.187  0.0681  0.5643  0.2231
 2447WAT     H1 7552   0.994   2.530   0.202  1.6471 -1.1684 -0.2620
 2447WAT     H2 7553   1.013   2.667   0.141 -1.3780 -0.7206 -0.3330
 2448WAT      O 7554   2.520   0.394   0.793 -0.0020  0.6205  0.4422
 2448WAT     H1 7555   2.599   0.402   0.739 -0.8550 -0.4164 -1.0474
 2448WAT     H2 7556   2.482   0.482   0.793  0.8862  1.0078  0.7399
 2449WAT      O 7557   0.681   1.021   4.157 -0.4688  0.0632 -0.1621
 2449WAT     H1 7558   0.645   1.109   4.144  1.3310  0.6770 -1.3614
 2449WAT     H2 7559   0.611   0.973   4.201 -2.4477  1.3964 -1.6482
 2450WAT      O 7560  -0.020   2.276   1.756  1.0525 -0.2847 -0.1682
 2450WAT     H1 7561  -0.032   2.359   1.709  2.1345 -0.3708 -0.6358
 2450WAT     H2 7562   0.073   2.255   1.743  1.1733 -0.7494  1.3151
 2451WAT      O 7563   2.251   4.435   2.819 -0.6617  0.2011  0.2569
 2451WAT     H1 7564   2.331   4.406   2.862  0.0451 -1.1635 -1.8230
 2451WAT     H2 7565   2.210   4.495   2.882  1.3481 -0.0138  1.8707
 2452WAT      O 7566   0.624   3.456   1.038 -0.6634 -0.0351  0.3045
 2452WAT     H1 7567   0.529   3.453   1.038 -0.7079 -2.8239 -1.6243
 2452WAT     H2 7568   0.648   3.473   1.129 -3.0286 -2.5083  1.5240
 2453WAT      O 7569   4.479   3.092   2.245  0.0123  0.5375 -0.3359
 2453WAT     H1 7570   4.486   3.159   2.312 -1.1631  0.4555 -0.1216
 2453WAT     H2 7571   4.417   3.128   2.181 -0.0855 -0.0469 -0.5764
 2454WAT      O 7572   1.587   2.300   4.208  0.0813  0.2011 -0.0574
 2454WAT     H1 7573   1.646   2.349   4.264  0.4399 -0.3785  0.0729
 2454WAT     H2 7574   1.592   2.210   4.239  0.2414 -0.1229 -0.9734
 2455WAT      O 7575   4.276   1.326   2.574  0.2935 -0.0240  0.2071
 2455WAT     H1 7576   4.215   1.372   2.631  0.2223 -1.1866  1.0973
 2455WAT     H2 7577   4.225   1.307   2.495 -0.4421 -0.7944  0.8533
 2456WAT      O 7578   4.201   2.876   1.970 -0.3939 -0.2133  0.1840
 2456WAT     H1 7579   4.236   2.825   2.044 -1.1453 -0.9732  0.0300
 2456WAT     H2 7580   4.114   2.839   1.955 -0.3498  0.1148 -0.9193
 2457WAT      O 7581   4.477   2.836   4.079  0.1752  0.0474 -0.5025
 2457WAT     H1 7582   4.515   2.892   4.148  0.5710  0.4803 -1.0643
 2457WAT     H2 7583   4.384   2.859   4.078 -0.6611 -2.5823  2.4071
 2458WAT      O 7584   3.234   4.623   1.493  0.8872 -0.3418 -0.3577
 2458WAT     H1 7585   3.172   4.650   1.561 -0.1036 -0.1360 -1.3203
 2458WAT     H2 7586   3.274   4.544   1.529  0.8934  0.1400  0.7620
 2459WAT      O 7587   0.851   3.462   3.438  0.5076  0.1169  0.5076
 2459WAT     H1 7588   0.773   3.515   3.454  0.0718 -0.0002 -1.0750
 2459WAT     H2 7589   0.871   3.476   3.345  0.1656 -2.7418 -0.1012
 2460WAT      O 7590   0.415   3.071   2.257 -0.4092 -0.1402  0.1197
 2460WAT     H1 7591   0.426   3.166   2.255  3.2962 -0.4119  0.0915
 2460WAT     H2 7592   0.376   3.052   2.342 -1.1287  1.3746  0.1454
 2461WAT      O 7593   0.661   2.164   3.181 -0.5399 -0.5238 -0.3973
 2461WAT     H1 7594   0.704   2.082   3.160 -0.1512 -0.8062  1.3267
 2461WAT     H2 7595   0.567   2.144   3.175 -0.4508 -1.1628  0.1792
 2462WAT      O 7596   4.438   4.831   1.555  0.4804 -0.6963 -0.0170
 2462WAT     H1 7597   4.527   4.853   1.583  0.0295  0.1181  0.8406
 2462WAT     H2 7598   4.418   4.750   1.602  1.7299 -2.4295 -2.3052
 2463WAT      O 7599   0.281   3.925   5.151 -0.1560  0.3622 -1.0881
 2463WAT     H1 7600   0.345   3.926   5.080  0.6722  0.2939 -0.3577
 2463WAT     H2 7601   0.199   3.901   5.109  0.2103  0.8411 -2.1128
 2464WAT      O 7602   3.476   3.778   3.030 -0.1794  0.4254 -0.9406
 2464WAT     H1 7603   3.514   3.737   3.108  0.0714  2.4697  0.0615
 2464WAT     H2 7604   3.531   3.748   2.958 -0.0414 -1.0101 -0.2840
 2465WAT      O 7605   3.272   4.784   0.682  0.0635  0.1264  0.1073
 2465WAT     H1 7606   3.363   4.804   0.705  0.2080  0.2739 -0.5806
 2465WAT     H2 7607   3.223   4.861   0.710  0.4201  0.8703 -1.2301
 2466WAT      O 7608   3.435   4.895   2.803  0.4742  0.1920 -0.2609
 2466WAT     H1 7609   3.497   4.892   2.730  0.0648 -0.3708 -0.5934
 2466WAT     H2 7610   3.409   4.987   2.809 -0.1781  0.1025 -1.4207
 2467WAT      O 7611   4.010   4.959   3.288 -0.1022 -0.4685 -0.6965
 2467WAT     H1 7612   3.939   4.919   3.340  0.1461  0.9380  0.8344
 2467WAT     H2 7613   3.974   5.044   3.261  0.9592  0.2795  0.1293
 2468WAT      O 7614   4.200   1.661   4.896 -0.4250  0.7264  1.0508
 2468WAT     H1 7615   4.227   1.697   4.980 -1.3174  1.5165  1.0276
 2468WAT     H2 7616   4.126   1.716   4.870  1.0991  1.8670 -1.2256
 2469WAT      O 7617   1.670   0.254   4.202  0.2419 -0.1016 -0.6593
 2469WAT     H1 7618   1.699   0.229   4.115  1.7017 -2.0215  0.3049
 2469WAT     H2 7619   1.726   0.204   4.262 -0.4423  1.4277  1.4040
 2470WAT      O 7620   2.868   5.098   1.184 -0.2876 -0.0226 -0.1584
 2470WAT     H1 7621   2.827   5.172   1.139 -0.3757  0.2779  0.4102
 2470WAT     H2 7622   2.957   5.095   1.149 -0.9578 -1.0934 -1.9043
 2471WAT      O 7623   0.620   1.816   3.892 -0.8866 -0.0834  0.7605
 2471WAT     H1 7624   0.603   1.722   3.896  0.2007 -0.2730  1.5597
 2471WAT     H2 7625   0.704   1.827   3.937  1.2236  0.7297 -2.9844
 2472WAT      O 7626   2.258   3.623   0.527 -0.2466 -0.0010  0.5191
 2472WAT     H1 7627   2.286   3.550   0.473 -0.4006  0.6564 -0.4746
 2472WAT     H2 7628   2.299   3.607   0.612  1.1653 -0.3120 -0.1977
 2473WAT      O 7629  -0.001   4.686   0.505 -0.6716 -0.3128 -0.3986
 2473WAT     H1 7630   0.062   4.747   0.542  0.8292 -0.9916 -1.7290
 2473WAT     H2 7631  -0.002   4.612   0.566  0.6349 -0.7519 -0.8723
 2474WAT      O 7632   2.643   1.887   4.884 -0.1852  0.0367 -0.1664
 2474WAT     H1 7633   2.695   1.909   4.961  0.5208 -0.5669 -0.4608
 2474WAT     H2 7634   2.665   1.954   4.819 -1.9741  1.4961  0.6474
 2475WAT      O 7635   0.325   3.969   3.542  0.2934  0.2563 -0.0409
 2475WAT     H1 7636   0.294   3.940   3.627  0.2712  3.5746  1.2037
 2475WAT     H2 7637   0.251   3.955   3.483 -0.1331 -0.8471  0.7220
 2476WAT      O 7638   4.162   4.612   4.154  0.2023  0.0387  0.0518
 2476WAT     H1 7639   4.245   4.574   4.124  0.7949  0.2330  1.3575
 2476WAT     H2 7640   4.161   4.594   4.248 -1.5305 -0.4739 -0.0294
 2477WAT      O 7641   0.738   0.197   3.392 -0.3081 -0.3122 -0.1528
 2477WAT     H1 7642   0.681   0.211   3.316 -1.5152  1.0926  0.9460
 2477WAT     H2 7643   0.764   0.285   3.418  0.7267 -0.8254  0.6153
 2478WAT      O 7644   0.279   2.329   0.621  0.4267  0.3514 -0.6459
 2478WAT     H1 7645   0.314   2.343   0.533  1.3307  1.5352 -0.1250
 2478WAT     H2 7646   0.352   2.349   0.680 -0.4544  0.5904  0.3985
 2479WAT      O 7647   2.125   0.252   4.157 -0.4422 -0.0776 -0.1572
 2479WAT     H1 7648   2.065   0.247   4.232 -0.1664 -3.0570 -0.0154
 2479WAT     H2 7649   2.202   0.298   4.191 -0.6540 -0.6500  1.1956
 2480WAT      O 7650   3.919   4.380   3.913 -0.5908  0.6477 -0.6475
 2480WAT     H1 7651   3.883   4.362   4.000  0.6661  2.3159  0.2658
 2480WAT     H2 7652   3.980   4.308   3.897  0.7990  1.4317  0.8381
 2481WAT      O 7653   1.420   1.378   4.568  0.2583 -0.3052 -0.1988
 2481WAT     H1 7654   1.506   1.379   4.609 -0.2272 -1.6562  0.9389
 2481WAT     H2 7655   1.438   1.380   4.474  1.4168  2.3110 -0.0106
 2482WAT      O 7656   2.599   0.928   2.685 -0.7210  0.7289  0.6199
 2482WAT     H1 7657   2.658   0.959   2.754 -0.9300  0.2249  1.0330
 2482WAT     H2 7658   2.632   0.841   2.662 -2.7820 -0.7080  2.6956
 2483WAT      O 7659   2.154   2.607   1.583  0.3077  0.5070 -0.4825
 2483WAT     H1 7660   2.062   2.632   1.595  0.6459  1.8757 -0.5087
 2483WAT     H2 7661   2.172   2.548   1.656 -1.6371 -3.0728 -2.6263
 2484WAT      O 7662   3.529   3.260   4.055 -0.5797 -0.4201 -0.1500
 2484WAT     H1 7663   3.440   3.226   4.059 -1.3199  1.4751  1.7418
 2484WAT     H2 7664   3.519   3.347   4.015  0.1388  0.4387  1.4374
 2485WAT      O 7665   4.356   1.517   3.002  0.3279  0.2793  0.4464
 2485WAT     H1 7666   4.274   1.481   3.036  0.7210 -1.8776 -0.7237
 2485WAT     H2 7667   4.351   1.611   3.022 -3.0274  0.4888 -0.7034
 2486WAT      O 7668   2.203   1.975   4.442  0.0560  0.4283  0.0196
 2486WAT     H1 7669   2.139   2.045   4.448 -0.0764  0.2911  0.2470
 2486WAT     H2 7670   2.249   1.978   4.526 -0.6172 -0.3869  0.4348
 2487WAT      O 7671   4.219   2.802   5.157  0.1370 -0.0551 -0.3129
 2487WAT     H1 7672   4.137   2.774   5.199  0.2607  0.9814  0.6907
 2487WAT     H2 7673   4.195   2.816   5.065 -0.7917  0.1260 -0.0566
 2488WAT      O 7674   1.700   1.182   1.922 -0.3782  0.3885  0.4373
 2488WAT     H1 7675   1.661   1.269   1.921 -2.8433 -0.6349  0.6883
 2488WAT     H2 7676   1.683   1.148   2.010 -1.6973 -1.2318 -0.3822
 2489WAT      O 7677   1.387   5.167   4.969 -0.0502 -0.2175  0.2157
 2489WAT     H1 7678   1.439   5.130   4.898  0.2349  2.3786 -1.0737
 2489WAT     H2 7679   1.414   5.119   5.047  1.6587 -1.3224 -0.9914
 2490WAT      O 7680   0.059   0.555   1.580 -0.4712 -0.0072 -0.0788
 2490WAT     H1 7681   0.044   0.491   1.649  0.8900 -0.3523 -0.0644
 2490WAT     H2 7682   0.022   0.636   1.614 -1.2485 -0.5300  0.3620
 2491WAT      O 7683   0.056   4.194   0.238  0.4607  0.5066 -0.0123
 2491WAT     H1 7684   0.101   4.205   0.322  1.4109  0.5230 -0.5116
 2491WAT     H2 7685   0.120   4.150   0.183 -0.6283 -0.7351 -0.3285
 2492WAT      O 7686   1.319   1.180   1.236  0.5311  0.3115 -0.0495
 2492WAT     H1 7687   1.368   1.259   1.214  1.4167 -0.0740  0.5106
 2492WAT     H2 7688   1.285   1.149   1.152 -0.8775  1.9422 -0.1439
 2493WAT      O 7689   3.673   1.222   4.108 -0.6796 -0.5473 -0.2148
 2493WAT     H1 7690   3.737   1.239   4.039 -0.3706 -0.4802  0.0849
 2493WAT     H2 7691   3.692   1.288   4.175  0.2886 -1.8199  0.8083
 2494WAT      O 7692   1.112   3.276   1.426 -0.1176  0.0265  0.6706
 2494WAT     H1 7693   1.203   3.246   1.423  1.1939  3.6377 -1.3153
 2494WAT     H2 7694   1.061   3.200   1.399  2.5780 -1.3891 -0.8667
 2495WAT      O 7695   0.590   3.318   3.681  0.3676  0.0737  0.2961
 2495WAT     H1 7696   0.506   3.342   3.643  0.3542  1.9532  1.4072
 2495WAT     H2 7697   0.568   3.270   3.761  0.3326  0.7581  0.7038
 2496WAT      O 7698   2.365   1.975   4.709  0.0488  0.3954 -0.1401
 2496WAT     H1 7699   2.457   1.984   4.735 -0.7682  1.3225  2.8147
 2496WAT     H2 7700   2.321   2.051   4.746 -2.1395 -0.7097 -0.2618
 2497WAT      O 7701   3.240   3.840   0.254  0.9927  0.0864 -0.1406
 2497WAT     H1 7702   3.152   3.861   0.223  1.2854  0.2529 -0.8657
 2497WAT     H2 7703   3.292   3.918   0.234  1.5729 -0.4645 -0.8045
 2498WAT      O 7704   0.292   0.745   2.291  0.3783  0.1242 -0.0086
 2498WAT     H1 7705   0.324   0.793   2.367 -0.1038  1.7439 -0.7915
 2498WAT     H2 7706   0.197   0.740   2.304  0.2428  0.7386 -0.6466
 2499WAT      O 7707   1.562   0.390   0.436  0.7908 -0.5907  0.1159
 2499WAT     H1 7708   1.551   0.326   0.506  0.8183 -0.1987  0.4820
 2499WAT     H2 7709   1.497   0.458   0.455 -0.4390 -1.3323 -1.2278
 2500WAT      O 7710   1.197   0.198   4.856 -0.2083 -0.2817  0.8027
 2500WAT     H1 7711   1.147   0.193   4.937  1.3301  1.2254  1.9031
 2500WAT     H2 7712   1.266   0.132   4.865 -0.9393 -1.1829  0.0195
 2501WAT      O 7713   0.091   0.819   3.952  0.1004  0.1779 -0.0772
 2501WAT     H1 7714   0.177   0.776   3.956 -0.3716 -0.7864  0.1931
 2501WAT     H2 7715   0.029   0.747   3.938 -0.8674  0.5597  1.7878
 2502WAT      O 7716   0.924   3.097   1.344  0.1660  0.0352  0.6072
 2502WAT     H1 7717   0.923   3.051   1.428 -0.0645 -0.0017  0.5847
 2502WAT     H2 7718   0.834   3.089   1.311  0.2954 -0.0952  0.2804
 2503WAT      O 7719   0.255   4.830   3.842 -0.2343 -0.1900  0.0076
 2503WAT     H1 7720   0.246   4.738   3.815 -0.9017 -0.5020  1.2004
 2503WAT     H2 7721   0.183   4.875   3.797 -0.6229 -0.4748  0.3407
 2504WAT      O 7722   2.516   5.074   5.191 -0.1198 -0.2811 -0.0656
 2504WAT     H1 7723   2.521   5.130   5.114  2.5017  1.4894  1.2435
 2504WAT     H2 7724   2.427   5.086   5.224  0.0808  2.4782 -0.3502
 2505WAT      O 7725   4.161   3.328   2.402 -0.0309 -0.4845  0.0806
 2505WAT     H1 7726   4.098   3.395   2.375  1.1974  1.3319  1.4227
 2505WAT     H2 7727   4.193   3.358   2.487  2.3442 -1.4928 -0.3509
 2506WAT      O 7728   1.766   1.812   4.395 -0.0959  0.4198 -0.3334
 2506WAT     H1 7729   1.860   1.799   4.386 -0.2723 -0.9769 -0.2302
 2506WAT     H2 7730   1.754   1.907   4.385  1.5921  0.9955  2.2650
 2507WAT      O 7731   1.884   0.809   4.189  0.2890 -0.0025  0.9307
 2507WAT     H1 7732   1.952   0.759   4.233  0.5659  1.2230  1.9498
 2507WAT     H2 7733   1.931   0.868   4.130 -0.0113 -0.6008  0.0720
 2508WAT      O 7734   2.222   1.019   4.338 -0.0283  0.3993 -0.1400
 2508WAT     H1 7735   2.279   1.069   4.395  0.3992  0.2218 -0.3998
 2508WAT     H2 7736   2.139   1.066   4.338 -0.0094  0.4433  0.5558
 2509WAT      O 7737   1.184   0.476   2.200 -0.1719 -0.0010  0.2678
 2509WAT     H1 7738   1.160   0.485   2.292 -1.2119  1.6818 -0.1351
 2509WAT     H2 7739   1.100   0.471   2.154  0.3284 -0.2034 -0.6476
 2510WAT      O 7740   3.008   2.552   0.674 -0.0016 -0.8191  0.1551
 2510WAT     H1 7741   2.938   2.552   0.609  0.5541  1.3792 -0.5279
 2510WAT     H2 7742   2.963   2.572   0.756 -0.3965 -1.1422  0.0217
 2511WAT      O 7743   2.514   3.134   2.031 -0.2315  0.5429  0.0546
 2511WAT     H1 7744   2.502   3.140   2.126 -1.1768 -0.2017 -0.0102
 2511WAT     H2 7745   2.443   3.185   1.994 -0.2782  0.2552 -0.2612
 2512WAT      O 7746   3.680   2.011   3.902  0.6875  0.1412 -0.5066
 2512WAT     H1 7747   3.692   2.097   3.862 -2.5876  1.2246  0.5587
 2512WAT     H2 7748   3.697   2.025   3.995 -0.7730 -0.1024 -0.1856
 2513WAT      O 7749   3.395   0.567   1.295 -0.2506 -0.2187 -0.5888
 2513WAT     H1 7750   3.415   0.479   1.264 -0.6511 -0.7770  0.6737
 2513WAT     H2 7751   3.436   0.572   1.381 -0.4348  0.7576 -0.5422
 2514WAT      O 7752   4.192   4.282   1.740 -0.3762 -0.0291 -0.2576
 2514WAT     H1 7753   4.285   4.272   1.719 -0.8042 -0.5427 -2.0933
 2514WAT     H2 7754   4.156   4.194   1.732 -1.2203  0.3431 -0.7432
 2515WAT      O 7755   0.093   4.436   4.324 -0.6869 -0.2343 -0.1793
 2515WAT     H1 7756   0.111   4.371   4.257  2.2180  0.6218 -0.3513
 2515WAT     H2 7757   0.104   4.520   4.280 -1.8714  0.3736  0.6402
 2516WAT      O 7758   0.511   1.043   0.067  0.3520  0.5852 -0.0074
 2516WAT     H1 7759   0.447   1.012   0.003  0.4332  1.3166 -0.4599
 2516WAT     H2 7760   0.458   1.078   0.138  0.2349  1.0410 -0.3094
 2517WAT      O 7761   1.848   2.083   4.960  0.5070 -0.2992 -0.3451
 2517WAT     H1 7762   1.877   2.033   5.036 -2.3661  1.2491  1.9590
 2517WAT     H2 7763   1.802   2.019   4.905  1.5752 -1.1865 -0.2560
 2518WAT      O 7764   1.425   1.496   5.086 -0.0153 -0.6620 -0.2754
 2518WAT     H1 7765   1.508   1.455   5.062 -0.1679 -0.1113 -1.8871
 2518WAT     H2 7766   1.360   1.451   5.031 -0.2917  1.1710 -1.5132
 2519WAT      O 7767   2.194   0.661   0.353  0.0251  0.4079  0.0218
 2519WAT     H1 7768   2.130   0.690   0.418  0.2914 -0.0073  0.4681
 2519WAT     H2 7769   2.194   0.565   0.360  0.3955  0.3850 -0.2608
 2520WAT      O 7770   3.720   4.292   4.074  0.2319  0.0897 -0.0274
 2520WAT     H1 7771   3.650   4.263   4.016 -1.8056 -0.1661  2.3697
 2520WAT     H2 7772   3.744   4.213   4.123 -0.4625  0.8922  1.7023
 2521WAT      O 7773   1.118   0.532   3.074 -0.5675  0.2964 -0.2930
 2521WAT     H1 7774   1.100   0.450   3.028  2.9198 -0.7847 -0.0600
 2521WAT     H2 7775   1.161   0.587   3.008  2.6017 -0.4874  0.9296
 2522WAT      O 7776   3.926   4.370   0.794  0.5869 -0.0893  0.6498
 2522WAT     H1 7777   3.903   4.401   0.881 -0.3160  0.3668  0.2649
 2522WAT     H2 7778   3.887   4.284   0.787 -2.5138  1.2798 -0.5508
 2523WAT      O 7779   2.325   2.465   0.269  0.2797  0.3397 -0.1125
 2523WAT     H1 7780   2.412   2.437   0.242  0.1011  0.0304 -0.3669
 2523WAT     H2 7781   2.302   2.405   0.340  0.2646  0.4091 -0.0586
 2524WAT      O 7782   3.431   4.951   1.742 -0.1496 -0.1913 -0.0134
 2524WAT     H1 7783   3.455   4.930   1.652  1.1286 -1.5757  0.6077
 2524WAT     H2 7784   3.495   5.017   1.770  0.3548 -0.8159  0.3233
 2525WAT      O 7785   3.498   2.417   3.274  0.0647 -0.4473 -0.0759
 2525WAT     H1 7786   3.497   2.493   3.216  1.4016 -1.3420 -1.3548
 2525WAT     H2 7787   3.524   2.452   3.359  0.7136  0.5104 -0.6522
 2526WAT      O 7788   4.393   4.006   3.728 -0.0073 -0.1722  0.2128
 2526WAT     H1 7789   4.407   4.045   3.642 -1.7421 -0.1038 -0.0744
 2526WAT     H2 7790   4.474   3.958   3.746  0.6756  0.4286 -1.1050
 2527WAT      O 7791   2.827   4.372   0.966  0.2230 -0.0740 -0.3499
 2527WAT     H1 7792   2.897   4.436   0.951  0.8671 -0.8761 -0.8787
 2527WAT     H2 7793   2.760   4.394   0.902 -0.4813  1.3099  0.7949
 2528WAT      O 7794   1.533   3.899   2.724 -0.0191  0.0665 -0.3585
 2528WAT     H1 7795   1.578   3.816   2.708 -0.6500 -0.9767  2.5801
 2528WAT     H2 7796   1.601   3.959   2.752 -0.0725 -1.1749  2.9344
 2529WAT      O 7797   4.370   4.228   2.735  0.6305 -0.2030 -0.5543
 2529WAT     H1 7798   4.442   4.291   2.725 -0.5554  1.0883 -1.3130
 2529WAT     H2 7799   4.357   4.222   2.829  0.7642  0.7033 -0.4684
 2530WAT      O 7800   3.209   3.943   2.542  0.7194 -0.2048 -0.1066
 2530WAT     H1 7801   3.186   4.036   2.550 -0.2591 -0.4775  0.3714
 2530WAT     H2 7802   3.264   3.926   2.618 -2.6317 -1.0164  2.3991
 2531WAT      O 7803   1.050   1.123   4.509 -0.1014 -0.6347 -0.1658
 2531WAT     H1 7804   1.128   1.101   4.458 -0.0832 -1.0380  0.0253
 2531WAT     H2 7805   0.978   1.080   4.464 -0.0691 -1.0895  0.2006
 2532WAT      O 7806   3.619   4.008   3.293  0.1034 -0.1479 -0.0713
 2532WAT     H1 7807   3.593   4.099   3.280 -0.2704  0.0234  1.5827
 2532WAT     H2 7808   3.687   3.992   3.228 -0.1393  1.1769 -0.6733
 2533WAT      O 7809   4.468   3.002   4.758 -0.1876 -0.5172 -0.0698
 2533WAT     H1 7810   4.496   3.080   4.806 -1.2484  0.0963 -0.4092
 2533WAT     H2 7811   4.535   2.990   4.691  1.7267 -1.8323  1.9729
 2534WAT      O 7812   2.926   3.356   4.116 -0.5692 -0.3191  1.1079
 2534WAT     H1 7813   2.958   3.366   4.026 -0.2140 -1.0010  1.1544
 2534WAT     H2 7814   2.863   3.427   4.127  0.6986  0.8827  0.9022
 2535WAT      O 7815   2.761   3.634   1.775  0.0483  0.3873  0.2578
 2535WAT     H1 7816   2.682   3.662   1.730  0.9614  0.7545 -1.1691
 2535WAT     H2 7817   2.755   3.538   1.777 -1.1412  0.4569  1.5512
 2536WAT      O 7818   4.209   2.876   4.153  0.1097  0.7840 -0.5198
 2536WAT     H1 7819   4.198   2.840   4.241 -0.1896 -0.1075 -0.9154
 2536WAT     H2 7820   4.123   2.913   4.132  0.1926  1.0316 -0.4268
 2537WAT      O 7821   3.336   3.134   0.104  0.2772  0.0659 -0.0411
 2537WAT     H1 7822   3.422   3.170   0.124 -0.8211  2.2227  1.3201
 2537WAT     H2 7823   3.275   3.191   0.153 -2.0733  0.0174 -2.6657
 2538WAT      O 7824   0.726   2.190   2.206 -0.5573  0.0071  0.1769
 2538WAT     H1 7825   0.816   2.216   2.223 -0.7368 -0.1531  1.4981
 2538WAT     H2 7826   0.700   2.241   2.129 -0.1781  2.0501  1.3291
 2539WAT      O 7827   1.812   1.113   3.603  0.4229  0.3123 -0.5599
 2539WAT     H1 7828   1.890   1.124   3.658  0.2700  2.2343 -0.6497
 2539WAT     H2 7829   1.744   1.163   3.649 -0.4616 -0.4029 -1.0628
 2540WAT      O 7830   1.723   2.836   4.539  0.5087 -0.0674 -0.0740
 2540WAT     H1 7831   1.787   2.786   4.589 -0.6820 -0.2867  1.3043
 2540WAT     H2 7832   1.728   2.800   4.450  3.0829  0.7278 -0.3076
 2541WAT      O 7833   1.428   0.697   1.868 -0.7506  0.3912 -0.6426
 2541WAT     H1 7834   1.333   0.694   1.875 -0.7550  0.5941 -0.6091
 2541WAT     H2 7835   1.446   0.777   1.818 -0.6076  0.2385 -0.8370
 2542WAT      O 7836   1.558   4.859   0.361 -0.2930 -0.3635 -0.3755
 2542WAT     H1 7837   1.571   4.918   0.435  0.3199  1.0675 -1.5722
 2542WAT     H2 7838   1.468   4.875   0.333 -0.0701  0.1627 -0.8111
 2543WAT      O 7839   4.544   2.517   3.610 -0.3763 -0.5817  0.1352
 2543WAT     H1 7840   4.498   2.465   3.545 -2.3436  0.0994  0.8868
 2543WAT     H2 7841   4.498   2.602   3.610  1.1582  0.2854  0.6562
 2544WAT      O 7842   1.622   0.531   3.712 -0.9430 -0.4402 -0.2041
 2544WAT     H1 7843   1.709   0.560   3.686 -0.9072 -1.0740 -0.8000
 2544WAT     H2 7844   1.569   0.538   3.632 -0.9007 -2.1417 -0.4053
 2545WAT      O 7845   3.030   0.448   4.335 -0.2460  0.8155 -0.5204
 2545WAT     H1 7846   3.083   0.431   4.413  0.5228  0.9635 -0.9992
 2545WAT     H2 7847   2.989   0.533   4.353 -2.5898 -0.5364  1.0494
 2546WAT      O 7848   3.113   0.108   4.588 -0.1470  0.2484 -0.0586
 2546WAT     H1 7849   3.084   0.058   4.512 -0.7116 -0.2278  0.4541
 2546WAT     H2 7850   3.046   0.174   4.600  1.4497  2.3259 -1.7763
 2547WAT      O 7851   4.372   2.840   3.608  0.0630 -0.0456 -0.3511
 2547WAT     H1 7852   4.441   2.902   3.583  0.5400 -0.4349 -0.0146
 2547WAT     H2 7853   4.357   2.788   3.529 -0.6242  0.7504 -0.7601
 2548WAT      O 7854   1.169   3.547   0.725  0.7220  0.1711  0.2923
 2548WAT     H1 7855   1.184   3.574   0.634  0.3624 -0.9947 -0.1352
 2548WAT     H2 7856   1.087   3.590   0.749 -0.1696 -0.9597 -0.5857
 2549WAT      O 7857   0.349   4.104   1.382  0.2773  0.3482 -0.1410
 2549WAT     H1 7858   0.407   4.125   1.456  0.6299  1.0305 -0.6011
 2549WAT     H2 7859   0.290   4.179   1.375  0.2470  0.2885 -0.5509
 2550WAT      O 7860   2.589   3.952   3.601  0.4764 -0.1785  0.6437
 2550WAT     H1 7861   2.550   3.879   3.649 -1.9662  0.0796 -0.7652
 2550WAT     H2 7862   2.648   3.994   3.664 -0.2204 -1.6716  2.3788
 2551WAT      O 7863   1.548   2.814   0.631 -0.5204  0.0031 -0.5151
 2551WAT     H1 7864   1.454   2.831   0.617 -0.7018 -0.1137  0.4665
 2551WAT     H2 7865   1.558   2.721   0.610 -0.9468 -0.3689  0.8577
 2552WAT      O 7866   3.773   2.385   1.211  0.5919 -0.4459  0.1817
 2552WAT     H1 7867   3.851   2.369   1.157 -0.5202  2.5222 -2.6083
 2552WAT     H2 7868   3.714   2.313   1.189  0.6717  0.0008 -1.6479
 2553WAT      O 7869   0.298   1.978   2.113 -0.4221  0.1882 -0.1659
 2553WAT     H1 7870   0.238   1.917   2.070  1.9059 -2.1581 -0.2884
 2553WAT     H2 7871   0.315   1.940   2.199  0.2245  1.2660  0.2100
 2554WAT      O 7872   2.957   2.780   4.756 -0.1648  0.6535  0.6553
 2554WAT     H1 7873   3.027   2.754   4.816  0.7328  1.1541 -0.1515
 2554WAT     H2 7874   2.880   2.733   4.787  0.4887  0.2265  1.6665
 2555WAT      O 7875   3.752   4.724   1.393 -0.5726 -0.3502  0.2180
 2555WAT     H1 7876   3.717   4.801   1.437 -2.3418 -1.4846  0.9253
 2555WAT     H2 7877   3.812   4.759   1.327  0.3147  1.4955  1.9248
 2556WAT      O 7878   2.632   2.315   2.449 -0.1043 -0.6204  0.0876
 2556WAT     H1 7879   2.572   2.336   2.520 -0.2227 -1.0487  0.1195
 2556WAT     H2 7880   2.696   2.386   2.449 -1.9595  1.1552 -1.5124
 2557WAT      O 7881   4.535   3.499   3.592 -0.6221 -0.2865 -0.4990
 2557WAT     H1 7882   4.467   3.554   3.553  0.1699 -0.6277 -2.4788
 2557WAT     H2 7883   4.573   3.451   3.518  1.0722 -0.8754  0.6832
 2558WAT      O 7884   0.443   3.086   5.254  0.0409  0.3600 -0.5299
 2558WAT     H1 7885   0.360   3.134   5.257  0.5091  1.3039 -1.8789
 2558WAT     H2 7886   0.420   2.997   5.279 -1.2603  0.7568 -0.2289
 2559WAT      O 7887   2.891   1.569   0.786 -0.5542  0.1763  0.1165
 2559WAT     H1 7888   2.847   1.628   0.847 -0.7036  0.1255  0.0558
 2559WAT     H2 7889   2.963   1.532   0.837 -1.9673 -1.5423  0.9413
 2560WAT      O 7890   1.520   3.180   3.189 -1.1050 -0.2354 -0.4791
 2560WAT     H1 7891   1.539   3.145   3.276 -0.0223 -1.2792 -1.0927
 2560WAT     H2 7892   1.492   3.270   3.205 -1.0535 -0.4472  0.9533
 2561WAT      O 7893   1.074   0.127   2.171  0.2529 -0.1796  0.4160
 2561WAT     H1 7894   1.013   0.145   2.100 -0.5557 -0.2847  1.0709
 2561WAT     H2 7895   1.142   0.072   2.131 -0.0422 -0.0105 -0.3316
 2562WAT      O 7896   4.012   0.364   0.611  0.0536  0.0252  0.4227
 2562WAT     H1 7897   4.093   0.354   0.661 -0.2582 -1.1019  0.7438
 2562WAT     H2 7898   4.018   0.299   0.541 -0.6949 -0.3140  0.6495
 2563WAT      O 7899   0.933   4.890   4.970  0.2452  0.4256 -0.0640
 2563WAT     H1 7900   0.883   4.842   4.903 -0.4485  1.3823 -0.2544
 2563WAT     H2 7901   0.945   4.977   4.932 -0.3897  1.0631  1.1745
 2564WAT      O 7902   2.941   5.020   5.247 -0.1497  0.1215  0.5017
 2564WAT     H1 7903   2.930   5.069   5.166  2.3208  0.4100  0.2721
 2564WAT     H2 7904   3.006   4.953   5.226  1.5398  1.0116  2.5141
 2565WAT      O 7905   0.523   4.137   4.999 -0.1152  0.1897  0.1310
 2565WAT     H1 7906   0.588   4.121   5.067  0.6264  1.0189 -0.3750
 2565WAT     H2 7907   0.502   4.230   5.006 -0.9118  0.0312 -0.0166
 2566WAT      O 7908   2.977   5.045   4.708  0.0267  0.1892 -0.8161
 2566WAT     H1 7909   2.952   5.014   4.621 -1.7599  0.3656 -0.3912
 2566WAT     H2 7910   3.037   5.117   4.691 -0.7850  0.6213 -1.9177
 2567WAT      O 7911   2.716   3.471   0.980  0.2410  0.0995 -0.2449
 2567WAT     H1 7912   2.754   3.386   1.002 -0.1644 -0.4185 -1.4070
 2567WAT     H2 7913   2.622   3.453   0.972  0.2592  0.4418 -1.3897
 2568WAT      O 7914   1.809   0.256   4.731 -0.3086  0.8517 -0.0672
 2568WAT     H1 7915   1.806   0.160   4.736 -1.6209  0.8651 -0.4358
 2568WAT     H2 7916   1.746   0.286   4.796 -1.2950  1.4149 -1.2365
 2569WAT      O 7917   3.928   3.282   1.801  0.5368 -0.3833  0.0456
 2569WAT     H1 7918   3.899   3.197   1.769  0.5000 -0.2428 -0.2968
 2569WAT     H2 7919   3.858   3.310   1.860  0.4189 -0.4684 -0.0522
 2570WAT      O 7920   2.771   0.844   0.075 -0.5388 -0.2837  0.1706
 2570WAT     H1 7921   2.841   0.862   0.138 -2.1852  0.5412  1.8905
 2570WAT     H2 7922   2.798   0.888  -0.005  0.7556  0.3111  0.9060
 2571WAT      O 7923   1.157   2.433   4.563 -0.1503  0.1927 -0.8045
 2571WAT     H1 7924   1.094   2.503   4.581 -2.6531 -1.8895 -0.9017
 2571WAT     H2 7925   1.224   2.443   4.630 -0.9887  2.0440 -0.1821
 2572WAT      O 7926   2.077   3.506   4.476  0.3927  0.5140  0.2257
 2572WAT     H1 7927   2.068   3.586   4.527  0.1866  0.3729  0.4103
 2572WAT     H2 7928   2.119   3.534   4.395 -0.3266  0.9341 -0.0145
 2573WAT      O 7929   3.452   4.403   2.811 -0.3026 -0.4652 -0.2787
 2573WAT     H1 7930   3.366   4.368   2.836 -0.1070 -1.5664 -1.0482
 2573WAT     H2 7931   3.512   4.330   2.826  0.4722  0.2342  0.0626
 2574WAT      O 7932   1.210   0.516   4.962  0.6537 -0.1075 -0.3550
 2574WAT     H1 7933   1.200   0.483   4.873  0.1411  0.2639 -0.4409
 2574WAT     H2 7934   1.120   0.530   4.992  0.8129 -0.5013  0.3240
 2575WAT      O 7935   4.073   4.868   5.130 -0.0137  0.0404 -0.1625
 2575WAT     H1 7936   4.125   4.853   5.209 -1.2772 -0.8902  0.5323
 2575WAT     H2 7937   4.063   4.963   5.126  1.2530  0.2025 -0.0211
 2576WAT      O 7938   2.194   0.594   0.873  0.2283  0.3162  0.3768
 2576WAT     H1 7939   2.233   0.595   0.961  1.8714  0.4833 -0.3142
 2576WAT     H2 7940   2.267   0.572   0.815 -0.7110  0.7169 -1.0076
 2577WAT      O 7941   1.625   4.267   1.942  0.2015 -0.1634 -0.5050
 2577WAT     H1 7942   1.660   4.356   1.937 -0.7768  0.2196 -0.7142
 2577WAT     H2 7943   1.670   4.228   2.017  0.1015  0.7529  0.0465
 2578WAT      O 7944   3.662   1.778   2.179  0.0333  0.4022 -0.4026
 2578WAT     H1 7945   3.754   1.750   2.174  0.9083  3.0111 -0.4488
 2578WAT     H2 7946   3.616   1.718   2.121  1.8777 -0.3621 -1.1713
 2579WAT      O 7947   0.470   2.077   0.578  0.3362  0.5977  0.3914
 2579WAT     H1 7948   0.435   2.100   0.664 -0.2717  1.3646 -0.0467
 2579WAT     H2 7949   0.432   2.142   0.519 -0.8004 -1.0451 -0.7770
 2580WAT      O 7950   0.195   2.894   0.532  0.3739  0.2336  0.1303
 2580WAT     H1 7951   0.121   2.849   0.572 -0.4900  0.1761 -1.4589
 2580WAT     H2 7952   0.217   2.841   0.455  0.6631  1.4120 -0.6235
 2581WAT      O 7953   1.634   4.350   2.706 -0.2706  0.4322  0.5675
 2581WAT     H1 7954   1.636   4.349   2.611  1.8126  2.6396  0.4800
 2581WAT     H2 7955   1.718   4.313   2.733 -0.4971  0.5795  1.5303
 2582WAT      O 7956   0.632   2.560   1.203  0.1023  0.6072 -0.7365
 2582WAT     H1 7957   0.681   2.594   1.279 -0.4688 -1.6698  0.7297
 2582WAT     H2 7958   0.554   2.520   1.241  0.8209 -2.4985 -2.2304
 2583WAT      O 7959   1.244   1.800   2.440 -0.4110  0.0143 -0.0317
 2583WAT     H1 7960   1.278   1.741   2.373 -1.0317  0.8279 -1.1081
 2583WAT     H2 7961   1.320   1.850   2.470 -0.1742 -0.1548 -0.3491
 2584WAT      O 7962   0.602   4.094   4.747  0.5114 -0.5001  0.2175
 2584WAT     H1 7963   0.554   4.099   4.830  1.2847  2.1683  0.6164
 2584WAT     H2 7964   0.679   4.149   4.761  1.6913 -1.5662 -1.6693
 2585WAT      O 7965   1.082   2.917   1.225 -0.0073 -0.0781 -0.2359
 2585WAT     H1 7966   1.034   2.964   1.157  1.1054  1.0526 -0.2564
 2585WAT     H2 7967   1.069   2.968   1.304  3.1220  1.7072 -0.7135
 2586WAT      O 7968   0.522   0.844   3.537 -0.1460 -0.2548 -0.2112
 2586WAT     H1 7969   0.492   0.913   3.597  1.1796  1.6601 -1.6331
 2586WAT     H2 7970   0.601   0.810   3.579  0.0490  0.1577 -0.2433
 2587WAT      O 7971   3.343   4.087   0.221  0.1500 -0.1139 -0.4372
 2587WAT     H1 7972   3.362   4.172   0.182  0.5903 -1.0500 -2.3676
 2587WAT     H2 7973   3.262   4.101   0.271  0.3482  1.4752 -0.5360
 2588WAT      O 7974   1.011   3.788   1.737 -0.2591 -0.2109  1.0831
 2588WAT     H1 7975   1.076   3.858   1.743 -1.7797  1.4732 -0.5099
 2588WAT     H2 7976   1.030   3.744   1.655 -1.0240  0.2563  0.6343
 2589WAT      O 7977   1.211   1.135   5.284  0.5310 -0.2370  0.2744
 2589WAT     H1 7978   1.192   1.179   5.201  0.0609  0.3355  0.6759
 2589WAT     H2 7979   1.144   1.167   5.344  0.2019 -1.4950  0.5940
 2590WAT      O 7980   1.017   1.634   2.519 -0.2108  0.5552 -0.0015
 2590WAT     H1 7981   1.035   1.561   2.460  1.4632  0.3539  0.6763
 2590WAT     H2 7982   1.082   1.700   2.495 -1.9534  2.0228 -0.8648
 2591WAT      O 7983   3.266   5.117   4.038 -0.0111 -0.6533  0.6367
 2591WAT     H1 7984   3.346   5.072   4.012 -0.3667 -0.3669 -1.0593
 2591WAT     H2 7985   3.198   5.050   4.034 -0.0731 -0.6074  0.8756
 2592WAT      O 7986   3.938   3.827   1.332 -0.4833  0.7952  0.0036
 2592WAT     H1 7987   3.944   3.828   1.237 -2.1996  0.5801 -0.1246
 2592WAT     H2 7988   3.848   3.801   1.351  0.2918 -0.8543  1.7174
 2593WAT      O 7989   2.166   4.035   5.251  0.0740  0.1691  0.0844
 2593WAT     H1 7990   2.127   3.988   5.325 -0.9915  0.8196 -0.0427
 2593WAT     H2 7991   2.188   3.966   5.188 -1.0802 -0.2206  0.0717
 2594WAT      O 7992   4.230   0.198   5.012 -0.1784  0.1396 -0.2364
 2594WAT     H1 7993   4.220   0.218   4.919 -2.0594  1.5094  0.1967
 2594WAT     H2 7994   4.267   0.277   5.050  0.0141 -0.1931  0.2798
 2595WAT      O 7995   3.311   1.903   2.221 -0.3444  0.2586  0.4546
 2595WAT     H1 7996   3.379   1.891   2.288 -1.7264  2.0055  2.2799
 2595WAT     H2 7997   3.230   1.876   2.264 -0.8888 -2.4892 -1.9035
 2596WAT      O 7998   4.048   4.761   2.563 -0.1086 -0.1788  0.0409
 2596WAT     H1 7999   4.015   4.730   2.647  2.1417 -2.4067  0.2044
 2596WAT     H2 8000   4.025   4.854   2.562 -2.4900 -0.6259  1.9099
 2597WAT      O 8001   2.326   2.129   3.224 -0.4780 -0.1234 -0.0346
 2597WAT     H1 8002   2.421   2.132   3.235 -0.6426  0.7905  1.1973
 2597WAT     H2 8003   2.308   2.037   3.204  0.5666 -0.4749  0.5747
 2598WAT      O 8004   1.296   5.103   4.641  0.0494 -0.2702 -0.0941
 2598WAT     H1 8005   1.293   5.051   4.721 -0.4521 -1.8675 -1.1241
 2598WAT     H2 8006   1.296   5.039   4.570  1.2500  1.0789 -1.3884
 2599WAT      O 8007   3.909   1.668   2.207 -0.4560 -0.7289 -0.2543
 2599WAT     H1 8008   3.948   1.587   2.172  0.2566 -1.7380  2.6153
 2599WAT     H2 8009   3.983   1.716   2.243 -1.3599 -0.9971  2.1317
 2600WAT      O 8010   0.382   4.681   2.187 -0.2790  0.3908 -0.1855
 2600WAT     H1 8011   0.290   4.655   2.195 -0.3898  0.0499 -2.0624
 2600WAT     H2 8012   0.413   4.688   2.277 -1.3260 -2.4320  0.4950
 2601WAT      O 8013   1.315   1.053   4.337 -0.0976 -0.2490  0.5593
 2601WAT     H1 8014   1.380   1.043   4.407  1.0308  0.1939 -0.3969
 2601WAT     H2 8015   1.321   0.972   4.286 -0.4736 -0.3043  0.5949
 2602WAT      O 8016   0.167   0.271   1.482 -0.0762  0.0580 -0.7623
 2602WAT     H1 8017   0.120   0.188   1.473  2.9071 -1.7784 -0.7499
 2602WAT     H2 8018   0.119   0.318   1.551  0.5049 -3.5706  2.4818
 2603WAT      O 8019   3.873   3.314   3.779 -0.1995  0.3938 -0.3681
 2603WAT     H1 8020   3.787   3.357   3.776 -0.3997  0.0633  0.3782
 2603WAT     H2 8021   3.908   3.325   3.691 -1.7723 -1.0394 -1.2133
 2604WAT      O 8022   1.038   1.770   0.705 -0.3152  0.5189  0.3865
 2604WAT     H1 8023   1.049   1.693   0.760  0.6993  1.0740  0.9712
 2604WAT     H2 8024   0.943   1.779   0.696 -0.5202  0.5156  2.1942
 2605WAT      O 8025   3.133   4.362   3.374  0.8185 -0.0240  0.4222
 2605WAT     H1 8026   3.054   4.380   3.322  1.6539  0.4799 -0.7161
 2605WAT     H2 8027   3.163   4.449   3.401  1.6768 -0.1053 -0.2368
 2606WAT      O 8028   3.359   5.110   0.700 -0.4942  1.1510 -0.4433
 2606WAT     H1 8029   3.403   5.044   0.646 -2.9325  1.4457 -3.0220
 2606WAT     H2 8030   3.267   5.084   0.699 -1.7049  4.8012 -2.1183
 2607WAT      O 8031   3.108   0.933   1.629 -0.0822 -0.1374  0.2036
 2607WAT     H1 8032   3.095   0.935   1.534  0.3387  1.8623  0.1247
 2607WAT     H2 8033   3.042   0.872   1.661  0.4453 -1.6617 -1.4420
 2608WAT      O 8034   2.411   1.394   1.154  0.2303 -0.2116  0.4303
 2608WAT     H1 8035   2.322   1.360   1.149  0.3303 -0.5043  0.5589
 2608WAT     H2 8036   2.429   1.430   1.067 -0.0868  0.0401  0.4705
 2609WAT      O 8037   4.167   4.763   0.068  0.1937  0.4339  0.0683
 2609WAT     H1 8038   4.112   4.685   0.062  0.6441  0.1635 -0.6868
 2609WAT     H2 8039   4.144   4.803   0.152 -0.5917 -0.0939  0.1080
 2610WAT      O 8040   0.129   0.617   2.069 -0.4353 -0.3799  0.6186
 2610WAT     H1 8041   0.142   0.708   2.097 -0.2730  0.1701 -1.1405
 2610WAT     H2 8042   0.192   0.605   1.998 -0.3791 -1.9209  0.9086
 2611WAT      O 8043   0.344   3.586   3.512 -0.3053 -0.3341 -0.2589
 2611WAT     H1 8044   0.321   3.594   3.605  0.4294  0.1618 -0.1135
 2611WAT     H2 8045   0.272   3.628   3.466 -1.5217 -2.0449 -0.0202
 2612WAT      O 8046   3.694   4.110   4.543 -0.3408  0.2585 -0.3218
 2612WAT     H1 8047   3.615   4.135   4.495  0.2487  1.2560 -0.8182
 2612WAT     H2 8048   3.709   4.183   4.604 -0.2213 -0.2769  0.3021
 2613WAT      O 8049   1.817   5.097   1.365 -0.0248 -0.4953  0.2077
 2613WAT     H1 8050   1.835   5.164   1.432 -1.6207 -0.0601  0.2665
 2613WAT     H2 8051   1.763   5.032   1.411 -1.2861 -0.1006 -0.6654
 2614WAT      O 8052   2.714   1.346   3.478 -0.2659  0.3899  0.3450
 2614WAT     H1 8053   2.781   1.413   3.492  0.1842 -0.2475  1.2996
 2614WAT     H2 8054   2.762   1.264   3.475 -0.9330 -0.0036  0.2962
 2615WAT      O 8055   4.389   2.585   5.220 -0.5495 -0.0478  0.1466
 2615WAT     H1 8056   4.343   2.649   5.164 -1.6982 -0.6276  0.4069
 2615WAT     H2 8057   4.376   2.618   5.309 -0.6582 -0.3414  0.2391
 2616WAT      O 8058   1.389   0.720   2.373  0.3041  0.3046 -0.3460
 2616WAT     H1 8059   1.431   0.696   2.291  0.3360  1.4257 -0.6695
 2616WAT     H2 8060   1.327   0.789   2.349  0.4377  0.7654  0.5935
 2617WAT      O 8061   0.013   1.529   1.842 -0.0358 -0.0901 -0.0607
 2617WAT     H1 8062   0.089   1.485   1.803  0.2884  0.5867 -0.1975
 2617WAT     H2 8063   0.021   1.513   1.936 -0.3634 -1.0072 -0.1732
 2618WAT      O 8064   2.530   1.024   1.855  0.1798  0.1497 -0.4087
 2618WAT     H1 8065   2.622   1.019   1.829 -0.4707 -1.8887 -2.6951
 2618WAT     H2 8066   2.509   0.935   1.883 -1.1139  0.5808  0.0534
 2619WAT      O 8067   4.330   3.140   1.048 -0.0999  0.3861 -0.1502
 2619WAT     H1 8068   4.313   3.151   1.142 -0.6800  0.2456 -0.2358
 2619WAT     H2 8069   4.404   3.198   1.030 -0.7799  1.3744  0.1366
 2620WAT      O 8070   1.094   5.130   1.716  0.2579 -0.6058  0.6248
 2620WAT     H1 8071   1.049   5.053   1.682 -0.8093 -0.0065  0.6244
 2620WAT     H2 8072   1.030   5.201   1.707  1.7948  0.6565 -0.9468
 2621WAT      O 8073   3.182   1.182   2.769  0.0940  0.0763  0.4764
 2621WAT     H1 8074   3.149   1.250   2.711  1.1645 -0.1534 -0.4467
 2621WAT     H2 8075   3.264   1.153   2.728 -0.7096 -2.3197  0.3805
 2622WAT      O 8076   2.280   3.659   4.326 -0.2395 -0.1219  0.2703
 2622WAT     H1 8077   2.330   3.739   4.341 -1.7023  0.6954  0.9664
 2622WAT     H2 8078   2.309   3.600   4.396  0.7140 -0.1749 -0.1420
 2623WAT      O 8079   4.206   4.078   2.985  0.4958  0.5994  0.6065
 2623WAT     H1 8080   4.298   4.083   3.012  0.7050 -1.7109  0.4828
 2623WAT     H2 8081   4.188   3.985   2.978 -1.9239  1.0028  0.7386
 2624WAT      O 8082   0.978   1.558   0.381  0.1140  0.0339  0.1376
 2624WAT     H1 8083   1.035   1.564   0.304 -2.3345 -1.0246 -1.9122
 2624WAT     H2 8084   0.949   1.648   0.397 -1.2995  0.0140 -1.8701
 2625WAT      O 8085   1.146   2.405   1.003  0.3523  0.2331 -0.0217
 2625WAT     H1 8086   1.146   2.463   1.078 -2.0612 -1.2475  1.2604
 2625WAT     H2 8087   1.238   2.380   0.991  1.0194  1.9628  1.2210
 2626WAT      O 8088   2.242   2.836   0.630 -0.6659  0.5081  0.1511
 2626WAT     H1 8089   2.214   2.819   0.540 -3.7880  2.5602  0.5822
 2626WAT     H2 8090   2.187   2.778   0.684 -0.6057  1.0823  0.8476
 2627WAT      O 8091   4.448   1.169   1.918 -0.6578 -0.3317 -0.0468
 2627WAT     H1 8092   4.379   1.221   1.959 -0.5468 -0.5937  0.4778
 2627WAT     H2 8093   4.438   1.186   1.824 -0.1180  1.2488  0.1554
 2628WAT      O 8094   3.598   2.709   1.620 -0.4681 -0.3143  0.1676
 2628WAT     H1 8095   3.630   2.635   1.673  0.2048  0.0869  0.3421
 2628WAT     H2 8096   3.578   2.777   1.684  0.5585  0.2537 -0.0859
 2629WAT      O 8097   3.126   2.865   0.697 -0.6006  0.4006 -0.7146
 2629WAT     H1 8098   3.164   2.797   0.754 -0.5899 -0.4395 -1.7020
 2629WAT     H2 8099   3.200   2.899   0.648 -0.7614  0.4451 -0.9239
 2630WAT      O 8100   4.108   3.387   5.012 -0.2518  0.0703 -0.1346
 2630WAT     H1 8101   4.056   3.327   4.959  0.1259 -0.2954 -0.0951
 2630WAT     H2 8102   4.095   3.357   5.102 -1.0401  0.8032  0.0119
 2631WAT      O 8103   3.983   4.808   2.850  0.2948 -0.2228  0.5273
 2631WAT     H1 8104   3.910   4.870   2.839 -0.0940  0.0423  3.6837
 2631WAT     H2 8105   4.061   4.863   2.847  0.1290  0.0079  0.3961
 2632WAT      O 8106   0.794   3.854   4.180 -1.0303  0.7935 -0.6870
 2632WAT     H1 8107   0.867   3.837   4.122 -0.5419 -1.8900  0.5706
 2632WAT     H2 8108   0.810   3.943   4.213  1.3939  0.4713 -0.8312
 2633WAT      O 8109   4.198   1.006   0.089  0.2858 -0.8415  0.1588
 2633WAT     H1 8110   4.117   0.965   0.121  0.0802 -0.7935 -0.3015
 2633WAT     H2 8111   4.171   1.090   0.054  0.4454 -1.0730 -0.5351
 2634WAT      O 8112   3.717   2.544   4.781 -0.0838  0.6610 -1.2541
 2634WAT     H1 8113   3.777   2.499   4.722  0.6954 -1.1180  0.7438
 2634WAT     H2 8114   3.635   2.496   4.772  0.0497  0.3564 -0.9015
 2635WAT      O 8115   4.008   5.049   2.524  0.3375 -0.2377  0.5115
 2635WAT     H1 8116   3.951   5.118   2.560 -0.1656 -0.9194  1.0524
 2635WAT     H2 8117   4.096   5.073   2.552  0.0309 -0.4005  1.6469
 2636WAT      O 8118   0.245   3.994   0.104  0.4903  0.6413  0.2207
 2636WAT     H1 8119   0.277   3.980   0.015 -0.0655  0.4032  0.0542
 2636WAT     H2 8120   0.314   3.956   0.160 -0.4993 -1.9913 -0.1909
 2637WAT      O 8121   4.111   1.241   2.329  0.3176  0.5778  0.1174
 2637WAT     H1 8122   4.061   1.242   2.247 -0.8097  3.2890  0.7061
 2637WAT     H2 8123   4.068   1.174   2.382 -0.4065  0.3820 -0.6857
 2638WAT      O 8124   2.436   1.566   2.658 -0.0245  0.2979  0.6802
 2638WAT     H1 8125   2.498   1.614   2.603  0.1535  4.1011  3.7464
 2638WAT     H2 8126   2.492   1.521   2.722 -0.3361 -0.3063  0.5312
 2639WAT      O 8127   3.372   1.018   1.149  0.0177 -0.1444 -0.3551
 2639WAT     H1 8128   3.365   0.930   1.112 -1.9587 -0.2622  0.2081
 2639WAT     H2 8129   3.389   1.002   1.242  2.0041  0.1380 -0.6121
 2640WAT      O 8130   1.496   2.067   2.897 -0.0860  0.3038 -0.5413
 2640WAT     H1 8131   1.497   2.108   2.811 -0.4226 -1.1502 -1.2830
 2640WAT     H2 8132   1.510   1.974   2.879  0.3636  0.0304  1.0262
 2641WAT      O 8133   4.413   0.636   1.936 -0.3766 -0.4906  0.6260
 2641WAT     H1 8134   4.429   0.674   1.849 -1.5880 -2.1833 -0.3899
 2641WAT     H2 8135   4.499   0.637   1.978  0.4688 -0.6150 -1.0080
 2642WAT      O 8136   2.704   4.148   1.024  0.6297 -0.1387 -0.3253
 2642WAT     H1 8137   2.760   4.224   1.008  0.9450 -0.6807 -1.9198
 2642WAT     H2 8138   2.617   4.176   0.995  0.2861  0.2817  1.0124
 2643WAT      O 8139   2.461   0.475   2.054 -0.2631  0.0776 -0.0195
 2643WAT     H1 8140   2.520   0.532   2.103  1.9778 -2.9110  1.0026
 2643WAT     H2 8141   2.385   0.466   2.112 -0.0382  0.8672  0.4250
 2644WAT      O 8142   3.677   0.555   2.122  0.3962  0.2862 -0.0930
 2644WAT     H1 8143   3.613   0.489   2.147 -0.3986  0.1914 -2.1832
 2644WAT     H2 8144   3.739   0.558   2.195 -0.3873 -1.6746  0.7040
 2645WAT      O 8145   4.111   2.327   4.977  0.1849 -0.0423  0.6480
 2645WAT     H1 8146   4.050   2.401   4.977 -0.8064 -0.8551  0.9281
 2645WAT     H2 8147   4.134   2.315   5.069 -0.3705 -0.6593  0.7121
 2646WAT      O 8148   1.974   3.667   0.453 -0.4734  0.4251 -0.5528
 2646WAT     H1 8149   2.053   3.615   0.466 -0.4662  0.8291  1.3306
 2646WAT     H2 8150   2.005   3.758   0.451 -0.9768  0.7341  1.9869
 2647WAT      O 8151   4.208   1.464   4.088 -0.2213  0.3478  0.3640
 2647WAT     H1 8152   4.252   1.395   4.039  0.5151  1.4050 -0.5097
 2647WAT     H2 8153   4.115   1.446   4.076 -0.0424 -0.4862  0.1479
 2648WAT      O 8154   4.112   0.641   0.148 -0.4855  0.1019 -0.4892
 2648WAT     H1 8155   4.123   0.554   0.186  0.4085  0.6111  0.5050
 2648WAT     H2 8156   4.141   0.631   0.057 -0.1242 -0.5811 -0.3103
 2649WAT      O 8157   1.666   3.496   3.547  0.6047 -0.1022 -0.0826
 2649WAT     H1 8158   1.694   3.570   3.494  2.3627 -0.0736  0.8320
 2649WAT     H2 8159   1.734   3.430   3.534  0.9953 -0.1567  1.9768
 2650WAT      O 8160   3.937   1.299   2.915  0.0413  0.6697 -0.2029
 2650WAT     H1 8161   3.918   1.206   2.907 -1.8582  1.0549 -0.8506
 2650WAT     H2 8162   3.850   1.341   2.919  0.8313  2.2933  1.7034
 2651WAT      O 8163   2.095   3.330   0.204 -0.3189  0.0139  0.0277
 2651WAT     H1 8164   2.182   3.307   0.236 -0.4801 -1.2469 -0.4032
 2651WAT     H2 8165   2.041   3.335   0.283 -0.1678 -0.5993  0.1696
 2652WAT      O 8166   0.642   3.830   1.180  0.0474 -0.3177  0.0172
 2652WAT     H1 8167   0.633   3.894   1.251  3.2779 -0.1829  0.4755
 2652WAT     H2 8168   0.610   3.876   1.102  0.5728  1.1810  0.6536
 2653WAT      O 8169   1.498   1.361   0.405  0.2159  0.2330 -0.0608
 2653WAT     H1 8170   1.411   1.402   0.402 -0.0151 -0.1412  0.8780
 2653WAT     H2 8171   1.479   1.268   0.415  0.6371  0.3766  3.2600
 2654WAT      O 8172   0.705   3.897   2.258 -0.2357 -0.2801  0.3863
 2654WAT     H1 8173   0.790   3.940   2.247 -1.0815  1.4343  0.0879
 2654WAT     H2 8174   0.644   3.970   2.271 -2.0143 -1.3029 -1.6692
 2655WAT      O 8175   2.128   1.239   1.946 -0.5116  0.3112 -0.2252
 2655WAT     H1 8176   2.156   1.160   1.992 -0.6271  0.8567  0.8240
 2655WAT     H2 8177   2.177   1.237   1.864 -0.0215 -0.5160  0.0655
 2656WAT      O 8178   2.638   2.111   4.712 -0.2779  0.0613 -0.1258
 2656WAT     H1 8179   2.605   2.188   4.758  0.3824 -0.3004  1.0095
 2656WAT     H2 8180   2.641   2.137   4.620  0.0569  1.4301  0.2448
 2657WAT      O 8181   0.701   2.218   2.763  0.0764 -0.0807  0.1097
 2657WAT     H1 8182   0.681   2.283   2.831  0.0439  0.1326 -0.1022
 2657WAT     H2 8183   0.745   2.147   2.810  1.0147  0.5367  0.1811
 2658WAT      O 8184   0.185   1.731   4.047 -0.3616 -0.3327 -0.1295
 2658WAT     H1 8185   0.106   1.714   4.099 -0.1781  0.1276  0.3084
 2658WAT     H2 8186   0.194   1.827   4.048  0.4171 -0.4058  0.1422
 2659WAT      O 8187   4.483   0.900   2.904 -0.3682  0.6127 -0.7244
 2659WAT     H1 8188   4.524   0.817   2.927 -0.3365  0.5808 -0.8981
 2659WAT     H2 8189   4.514   0.961   2.971 -0.7307  0.3894 -0.3413
 2660WAT      O 8190   4.129   3.943   3.665 -0.0782  0.1517 -0.1917
 2660WAT     H1 8191   4.222   3.967   3.665  0.0274 -0.2409 -0.0380
 2660WAT     H2 8192   4.117   3.895   3.747 -0.6502  1.0649  0.2764
 2661WAT      O 8193   1.548   2.709   1.384 -0.5618  0.1624  0.0041
 2661WAT     H1 8194   1.510   2.792   1.355 -0.6019  0.6307  1.3228
 2661WAT     H2 8195   1.519   2.645   1.319 -1.7509  0.9162 -0.2368
 2662WAT      O 8196   3.663   1.310   3.210 -0.1566 -0.2645  0.8140
 2662WAT     H1 8197   3.727   1.377   3.187 -1.0645  0.7446  1.1159
 2662WAT     H2 8198   3.699   1.228   3.175  0.4853  0.5415 -0.4694
 2663WAT      O 8199   0.241   3.628   4.308  0.8860  0.0431  0.2064
 2663WAT     H1 8200   0.335   3.617   4.318  0.7355  0.0250  1.8449
 2663WAT     H2 8201   0.214   3.676   4.386 -0.3161  1.0221 -0.7678
 2664WAT      O 8202   4.410   4.280   5.226  0.0097  0.2394  0.0208
 2664WAT     H1 8203   4.401   4.368   5.188 -1.8985  0.1417  0.1496
 2664WAT     H2 8204   4.503   4.272   5.245  0.4924  1.5979 -1.5157
 2665WAT      O 8205   3.799   3.816   4.307  0.1277  0.0188  0.5327
 2665WAT     H1 8206   3.881   3.786   4.347  2.2956  1.4686 -2.3368
 2665WAT     H2 8207   3.775   3.747   4.246  0.1861  0.3077  0.1764
 2666WAT      O 8208   0.844   4.023   0.378  0.0007 -0.1773 -0.4664
 2666WAT     H1 8209   0.852   4.011   0.283  0.5751  2.7277 -0.8950
 2666WAT     H2 8210   0.917   3.974   0.415  0.1278 -0.8695 -1.5888
 2667WAT      O 8211   4.465   0.466   2.726  0.0863  0.3923  0.7109
 2667WAT     H1 8212   4.415   0.386   2.713  0.8801 -0.1313  0.7953
 2667WAT     H2 8213   4.399   0.534   2.742 -0.6347 -0.0668 -0.2424
 2668WAT      O 8214   2.895   2.604   4.344  0.1802 -0.9650 -0.1081
 2668WAT     H1 8215   2.924   2.669   4.408 -0.2709 -2.1547  1.3682
 2668WAT     H2 8216   2.961   2.535   4.348  1.1045 -0.2673 -2.2673
 2669WAT      O 8217   2.142   4.217   2.059  0.2658  0.4167 -0.4017
 2669WAT     H1 8218   2.088   4.216   1.980  2.3357 -0.3862 -1.9219
 2669WAT     H2 8219   2.231   4.199   2.027  1.2738  0.5671  2.0714
 2670WAT      O 8220   0.935   2.223   1.767 -0.0038 -0.5576  0.6076
 2670WAT     H1 8221   0.981   2.306   1.759 -0.8453 -0.1466 -0.0147
 2670WAT     H2 8222   0.872   2.237   1.838 -1.1890 -0.1677 -0.5032
 2671WAT      O 8223   4.226   3.982   0.931  0.4658  0.0687  0.7190
 2671WAT     H1 8224   4.182   4.059   0.967  0.5274  0.4480 -0.0004
 2671WAT     H2 8225   4.306   3.973   0.983  0.8419  0.9565  0.3301
 2672WAT      O 8226   1.532   3.215   0.346  0.1779  0.1053 -0.8814
 2672WAT     H1 8227   1.526   3.193   0.253 -0.0228  0.4448 -0.9502
 2672WAT     H2 8228   1.600   3.282   0.351 -0.9125  1.2767 -1.0119
 2673WAT      O 8229   0.396   2.466   1.327 -0.6298  0.2663 -0.5760
 2673WAT     H1 8230   0.335   2.536   1.305  1.0386  1.4069 -1.8736
 2673WAT     H2 8231   0.384   2.401   1.258  0.3461  1.0119 -1.4835
 2674WAT      O 8232   1.291   4.375   0.136  0.1310  0.1965 -0.0531
 2674WAT     H1 8233   1.347   4.386   0.212 -1.0605  1.0191  0.7432
 2674WAT     H2 8234   1.345   4.400   0.062  0.3737  2.5671  0.8358
 2675WAT      O 8235   4.135   4.543   4.415 -0.0979 -0.1249  0.1117
 2675WAT     H1 8236   4.189   4.536   4.494 -0.2919 -0.8799  0.1884
 2675WAT     H2 8237   4.100   4.632   4.418 -1.0085 -0.4964  1.4859
 2676WAT      O 8238   1.315   4.415   0.875 -0.2327  0.3120 -0.2761
 2676WAT     H1 8239   1.234   4.371   0.848 -0.5928  0.6544  0.2208
 2676WAT     H2 8240   1.366   4.424   0.794 -0.6732  0.0527 -0.5850
 2677WAT      O 8241   2.647   2.333   1.294  0.2818 -0.8069  0.3603
 2677WAT     H1 8242   2.596   2.254   1.277  1.2167 -1.4902  0.6493
 2677WAT     H2 8243   2.731   2.318   1.251  0.5959 -0.1281  0.7149
 2678WAT      O 8244   3.853   2.219   3.806  0.0629 -0.1229  0.4715
 2678WAT     H1 8245   3.922   2.224   3.872  0.1481 -0.8541  0.4479
 2678WAT     H2 8246   3.899   2.226   3.722  0.5656 -3.6610  0.2930
 2679WAT      O 8247   2.909   0.889   2.230  0.1841 -0.2135 -0.0295
 2679WAT     H1 8248   2.834   0.929   2.185 -0.9282 -2.1701 -0.0480
 2679WAT     H2 8249   2.977   0.881   2.163  0.2725  1.1746 -0.1297
 2680WAT      O 8250   1.142   2.682   1.111 -0.1438  0.1186  0.6343
 2680WAT     H1 8251   1.102   2.687   1.024  2.0443  0.9241 -0.3935
 2680WAT     H2 8252   1.120   2.765   1.152 -0.4004  0.1228  0.4896
 2681WAT      O 8253   0.598   0.223   3.148  0.2577  0.3160 -0.3796
 2681WAT     H1 8254   0.512   0.262   3.130  0.3558 -0.0014 -1.5620
 2681WAT     H2 8255   0.624   0.182   3.066  1.2222 -0.2235  0.1785
 2682WAT      O 8256   0.319   2.438   4.464  0.6314  0.3799 -0.2038
 2682WAT     H1 8257   0.242   2.422   4.519  0.6620  1.1682  0.0804
 2682WAT     H2 8258   0.383   2.477   4.523  1.6127 -1.1288 -0.2111
 2683WAT      O 8259   4.278   0.772   1.130 -0.1457  1.0508  0.5521
 2683WAT     H1 8260   4.329   0.760   1.210 -0.4542 -0.7244  0.5087
 2683WAT     H2 8261   4.331   0.731   1.062 -1.2633 -0.1444  0.3741
 2684WAT      O 8262   1.248   3.572   2.177 -0.0433 -0.3758 -0.1144
 2684WAT     H1 8263   1.327   3.518   2.177  0.7079  0.6955  0.0844
 2684WAT     H2 8264   1.183   3.518   2.222  0.8998 -0.8125  0.7678
 2685WAT      O 8265   3.713   4.974   1.505 -0.6211  0.2274  0.5699
 2685WAT     H1 8266   3.774   5.041   1.475  1.1925 -1.9673 -1.0471
 2685WAT     H2 8267   3.754   4.936   1.582  0.9812 -2.2168 -1.3293
 2686WAT      O 8268   1.270   2.871   0.527 -0.0661  0.0103 -0.6724
 2686WAT     H1 8269   1.276   2.966   0.515  0.0558  0.2344  0.9342
 2686WAT     H2 8270   1.182   2.849   0.497 -0.2473  0.6960 -0.6752
 2687WAT      O 8271   4.260   2.992   3.017 -0.0624 -0.6250  0.0220
 2687WAT     H1 8272   4.351   3.023   3.011 -0.5151  0.6173 -0.8225
 2687WAT     H2 8273   4.267   2.906   3.059  1.5998 -1.0607 -1.0322
 2688WAT      O 8274   0.913   0.882   2.994 -0.3760  0.6730  0.4111
 2688WAT     H1 8275   0.872   0.828   3.061 -0.7430 -0.0369 -0.3759
 2688WAT     H2 8276   1.004   0.888   3.021 -0.5027  0.3390  0.9352
 2689WAT      O 8277   1.522   0.831   3.483  0.0132  0.4522  0.3006
 2689WAT     H1 8278   1.453   0.852   3.420 -1.1657  0.8712  1.6657
 2689WAT     H2 8279   1.527   0.736   3.482  0.0701  0.4558 -0.4852
 2690WAT      O 8280   1.298   4.377   2.580 -0.3650 -0.3061  0.5758
 2690WAT     H1 8281   1.218   4.362   2.530  0.8025  2.2987 -2.4517
 2690WAT     H2 8282   1.366   4.328   2.533  0.2864 -0.3960  1.5614
 2691WAT      O 8283   1.905   1.474   1.952  0.3088 -0.1328  0.3583
 2691WAT     H1 8284   1.813   1.456   1.934  0.2085  0.5208  0.1948
 2691WAT     H2 8285   1.947   1.388   1.949 -0.8475 -0.9738  3.8678
 2692WAT      O 8286   1.438   4.476   1.995  0.6172  0.2503  0.1050
 2692WAT     H1 8287   1.369   4.529   1.954 -1.6171  0.1866  3.4570
 2692WAT     H2 8288   1.447   4.400   1.937 -1.7113  0.5549 -0.7587
 2693WAT      O 8289   2.081   4.299   0.587  0.0564  0.1249 -0.0408
 2693WAT     H1 8290   2.149   4.321   0.523  0.1587  0.1644  0.0822
 2693WAT     H2 8291   2.050   4.383   0.620  0.5381  0.0866  0.5244
 2694WAT      O 8292   3.935   3.481   2.947 -0.3478 -0.4806 -0.3198
 2694WAT     H1 8293   3.966   3.557   2.897 -1.2674  0.0509 -0.1143
 2694WAT     H2 8294   3.891   3.426   2.882  0.7430 -1.0954 -0.5592
 2695WAT      O 8295   2.771   0.451   2.092  0.2910 -0.2685 -0.2046
 2695WAT     H1 8296   2.769   0.521   2.158 -0.2803  0.4618 -0.9753
 2695WAT     H2 8297   2.801   0.374   2.140  1.0619  0.5266  0.6469
 2696WAT      O 8298   1.541   4.099   3.946  0.0502  0.0630 -0.0193
 2696WAT     H1 8299   1.457   4.113   3.901  0.4828 -1.0641 -1.2390
 2696WAT     H2 8300   1.525   4.025   4.004  0.4338 -0.7540 -0.9378
 2697WAT      O 8301   0.194   1.732   3.113  0.2518  0.2972  0.1237
 2697WAT     H1 8302   0.148   1.682   3.180 -0.9121  1.1432 -0.0177
 2697WAT     H2 8303   0.276   1.683   3.099 -0.0231 -0.5418  1.2816
 2698WAT      O 8304   3.794   1.833   1.682 -0.0370  0.5897  0.0172
 2698WAT     H1 8305   3.805   1.867   1.771 -1.5308 -2.6605  1.6049
 2698WAT     H2 8306   3.879   1.850   1.640  0.7535  2.1468  2.0454
 2699WAT      O 8307   4.073   1.092   3.196  0.6046 -0.3008  0.4047
 2699WAT     H1 8308   4.104   1.010   3.158  0.7565 -0.0610 -0.0006
 2699WAT     H2 8309   4.124   1.160   3.151  0.9701 -0.0176  1.2191
 2700WAT      O 8310   0.822   2.001   3.459 -0.1316  0.5154  0.2353
 2700WAT     H1 8311   0.774   2.082   3.441  0.4374  1.4349  2.5562
 2700WAT     H2 8312   0.794   1.975   3.546  1.5810 -0.3787  0.5683
 2701WAT      O 8313   0.922   2.948   4.024  0.4170  0.3698 -1.1262
 2701WAT     H1 8314   0.859   3.017   4.043  1.0188  0.2731  1.6822
 2701WAT     H2 8315   0.879   2.867   4.053  1.4520  0.2002  0.0215
 2702WAT      O 8316   3.338   0.442   4.511 -0.3844  0.3959 -0.0622
 2702WAT     H1 8317   3.259   0.469   4.557  0.0055 -0.3351  1.0762
 2702WAT     H2 8318   3.324   0.349   4.492  0.2421  0.2290  0.2669
 2703WAT      O 8319   2.856   2.838   0.616 -0.1723  0.5706 -0.4696
 2703WAT     H1 8320   2.952   2.838   0.623 -0.0314  1.9599 -1.8721
 2703WAT     H2 8321   2.838   2.778   0.544 -0.4581 -0.4562  0.4254
 2704WAT      O 8322   1.571   1.118   1.657  0.2791  0.0619 -0.0494
 2704WAT     H1 8323   1.514   1.041   1.662  1.0681 -0.5897 -0.7014
 2704WAT     H2 8324   1.629   1.110   1.733 -0.0326  0.3534  0.2250
 2705WAT      O 8325   1.812   3.256   3.473 -0.5722  0.4752 -0.4512
 2705WAT     H1 8326   1.869   3.305   3.413 -0.1199  0.4920 -0.0154
 2705WAT     H2 8327   1.872   3.201   3.523 -0.9123  0.6736  0.1894
 2706WAT      O 8328   4.486   4.805   3.403  0.2130 -0.2170  0.3984
 2706WAT     H1 8329   4.578   4.826   3.388  0.5529 -1.2933  0.8786
 2706WAT     H2 8330   4.454   4.776   3.318  1.5000 -4.0118  1.0204
 2707WAT      O 8331   3.456   1.153   3.797 -0.3497 -0.3536  0.1236
 2707WAT     H1 8332   3.387   1.109   3.846 -3.7032  3.2822 -0.8221
 2707WAT     H2 8333   3.438   1.130   3.706  1.0171 -0.9323 -0.0235
 2708WAT      O 8334   3.215   3.453   2.366  1.0497 -0.8092 -0.2024
 2708WAT     H1 8335   3.237   3.454   2.273 -2.1394 -0.6263 -1.0638
 2708WAT     H2 8336   3.220   3.545   2.392 -0.7894 -0.4514 -0.9850
 2709WAT      O 8337   1.163   0.968   0.353 -0.4498 -0.4717  0.0613
 2709WAT     H1 8338   1.247   0.993   0.391  0.4119  1.1759 -2.6700
 2709WAT     H2 8339   1.181   0.885   0.309 -0.2690 -0.1547 -0.4637
 2710WAT      O 8340   0.752   3.551   4.221  0.0244 -0.3506 -0.5188
 2710WAT     H1 8341   0.802   3.529   4.142  1.5595 -0.7131  0.5116
 2710WAT     H2 8342   0.747   3.647   4.219 -0.2486 -0.3722 -1.2252
 2711WAT      O 8343   0.293   2.968   0.767  0.1108  0.0315  0.1298
 2711WAT     H1 8344   0.347   2.895   0.795 -1.2151 -0.9276  0.2626
 2711WAT     H2 8345   0.273   2.950   0.675  2.2573  1.8165 -0.7833
 2712WAT      O 8346   0.415   3.334   2.189 -0.0638 -0.2541  0.1313
 2712WAT     H1 8347   0.435   3.405   2.129  0.7380 -1.9800 -1.7766
 2712WAT     H2 8348   0.321   3.342   2.204 -0.2430  0.4051 -1.1625
 2713WAT      O 8349   3.820   4.108   5.151 -0.2513  0.2885 -0.1489
 2713WAT     H1 8350   3.900   4.140   5.191 -0.9683  2.7175 -0.5017
 2713WAT     H2 8351   3.790   4.038   5.210  1.5701  0.0192  0.5106
 2714WAT      O 8352   0.856   3.726   2.967  0.8913 -0.2739  0.3354
 2714WAT     H1 8353   0.920   3.678   2.915  0.1611  0.4607 -1.3328
 2714WAT     H2 8354   0.867   3.693   3.056  3.3398 -0.3808  0.0502
 2715WAT      O 8355  -0.025   4.123   2.386 -1.0385 -0.3493  0.0426
 2715WAT     H1 8356   0.015   4.195   2.337 -1.3672 -0.2312 -0.0514
 2715WAT     H2 8357   0.013   4.130   2.473 -3.3275  1.8289  0.9809
 2716WAT      O 8358   0.935   1.885   1.839 -0.0658  0.3620 -0.3559
 2716WAT     H1 8359   1.016   1.837   1.821  1.0742  1.9684  0.2062
 2716WAT     H2 8360   0.922   1.940   1.762  0.3044  1.2861  0.2210
 2717WAT      O 8361   4.125   2.403   0.732 -0.7997  0.0803  0.2819
 2717WAT     H1 8362   4.185   2.393   0.659 -1.2566 -2.3938  0.1573
 2717WAT     H2 8363   4.176   2.451   0.798  1.3775 -1.9191  0.1917
 2718WAT      O 8364   0.941   2.444   2.835  0.0242  0.2021 -0.0632
 2718WAT     H1 8365   0.916   2.424   2.925  0.8032 -0.0958  0.1033
 2718WAT     H2 8366   1.027   2.486   2.844  0.3768 -0.3678 -0.6959
 2719WAT      O 8367   4.334   4.420   3.107 -0.1844  0.1756 -1.1717
 2719WAT     H1 8368   4.376   4.335   3.101 -1.2629 -0.2919 -2.8013
 2719WAT     H2 8369   4.268   4.409   3.176  0.2947 -0.0129 -0.7381
 2720WAT      O 8370   1.859   4.390   4.987  0.2128  0.0521 -0.1014
 2720WAT     H1 8371   1.928   4.421   4.928  0.2101  2.5374  1.0949
 2720WAT     H2 8372   1.903   4.328   5.045  1.0725  0.3884 -0.3824
 2721WAT      O 8373   3.303   4.175   3.294  0.1778  0.1945  0.2560
 2721WAT     H1 8374   3.236   4.244   3.295  0.6762  0.6928  1.7480
 2721WAT     H2 8375   3.260   4.102   3.251 -0.7017  1.1115 -0.4784
 2722WAT      O 8376   2.405   1.721   4.639  0.3181 -0.1422 -0.4437
 2722WAT     H1 8377   2.383   1.811   4.662  0.9248 -0.2015  0.3882
 2722WAT     H2 8378   2.497   1.711   4.664  0.3144 -0.9303 -0.7220
 2723WAT      O 8379   2.198   1.528   4.840  0.2187 -0.8506 -0.5988
 2723WAT     H1 8380   2.232   1.618   4.833  0.5131 -1.0228 -1.5717
 2723WAT     H2 8381   2.242   1.492   4.916 -1.4205  0.4585  1.0734
 2724WAT      O 8382   2.233   1.771   2.622  0.1815  0.7496 -0.0231
 2724WAT     H1 8383   2.147   1.771   2.578  0.7018 -0.2741 -1.1066
 2724WAT     H2 8384   2.280   1.697   2.582  2.0158  2.0281 -0.3391
 2725WAT      O 8385   3.147   2.677   1.434 -0.5168  0.2532 -0.0163
 2725WAT     H1 8386   3.182   2.714   1.515 -1.8836  2.4123 -0.3402
 2725WAT     H2 8387   3.151   2.749   1.371 -1.6194 -0.6910 -1.2260
 2726WAT      O 8388   4.427   1.782   3.019 -0.3328 -0.1396  0.6364
 2726WAT     H1 8389   4.366   1.851   3.045  0.4731  0.6789  0.3995
 2726WAT     H2 8390   4.502   1.794   3.077 -0.3044 -1.0159  0.7914
 2727WAT      O 8391   4.506   3.236   4.288  0.3423  0.3325  0.6190
 2727WAT     H1 8392   4.567   3.164   4.268  1.1727  0.3005  2.9603
 2727WAT     H2 8393   4.501   3.237   4.383 -3.0379  0.6257  0.5586
 2728WAT      O 8394   3.640   4.925   3.742  0.1762 -0.1205  0.1551
 2728WAT     H1 8395   3.623   4.971   3.660  0.3434 -0.9352 -0.3484
 2728WAT     H2 8396   3.736   4.923   3.749  0.2356 -1.6974 -0.6153
 2729WAT      O 8397   3.206   4.963   1.322  0.6773  0.3002 -0.0134
 2729WAT     H1 8398   3.286   4.949   1.372  0.3069  0.2946  0.5944
 2729WAT     H2 8399   3.136   4.942   1.383  0.2113  0.2420 -0.5573
 2730WAT      O 8400   3.368   3.813   1.450 -0.0866  0.1508  0.4791
 2730WAT     H1 8401   3.441   3.873   1.462  0.8982 -0.8757 -0.1351
 2730WAT     H2 8402   3.401   3.747   1.389 -2.2983  0.9429 -1.7455
 2731WAT      O 8403   1.782   0.363   5.030  0.0930 -0.3598  0.0219
 2731WAT     H1 8404   1.817   0.445   4.997 -1.1605  0.9926  1.8163
 2731WAT     H2 8405   1.716   0.338   4.966  1.2556 -0.6106 -1.1204
 2732WAT      O 8406   2.907   1.438   0.400 -0.0548  0.5083  0.1087
 2732WAT     H1 8407   2.894   1.357   0.350  0.3907 -0.1061  0.9781
 2732WAT     H2 8408   2.997   1.464   0.381  0.5776 -0.4540  1.5938
 2733WAT      O 8409   1.325   4.201   4.193  0.1661 -0.4693  0.1156
 2733WAT     H1 8410   1.233   4.189   4.171 -0.4368  0.6195  1.8048
 2733WAT     H2 8411   1.359   4.259   4.125  0.3011 -2.7591 -1.8929
 2734WAT      O 8412   4.119   1.145   1.828 -0.5889 -0.1250 -0.0169
 2734WAT     H1 8413   4.103   1.132   1.734  1.5320  1.0397 -0.5992
 2734WAT     H2 8414   4.156   1.062   1.857  1.1015  0.3068 -0.8272
 2735WAT      O 8415   0.277   2.100   0.180 -0.2736 -0.0366 -0.5664
 2735WAT     H1 8416   0.224   2.077   0.104  1.4271 -1.8160 -1.3096
 2735WAT     H2 8417   0.272   2.023   0.236  0.2186  0.4073  0.0969
 2736WAT      O 8418   1.137   3.045   3.277  0.5015 -0.4152  0.6331
 2736WAT     H1 8419   1.173   3.047   3.365  1.1057 -0.9651  0.4056
 2736WAT     H2 8420   1.138   2.952   3.252 -0.5393 -0.3835  0.3960
 2737WAT      O 8421   3.984   4.205   2.863  0.0511  0.0677 -0.2477
 2737WAT     H1 8422   4.069   4.189   2.905  1.0274 -0.2421 -2.1968
 2737WAT     H2 8423   3.984   4.299   2.845 -0.1083  0.0991 -0.0870
 2738WAT      O 8424   2.248   4.041   0.758  0.4631 -0.4229 -0.0151
 2738WAT     H1 8425   2.225   3.950   0.781 -0.4423  0.1817  1.6767
 2738WAT     H2 8426   2.166   4.089   0.769  0.8656  0.5706 -1.1855
 2739WAT      O 8427   3.713   0.909   1.306  0.0558 -0.2389 -0.2244
 2739WAT     H1 8428   3.731   0.936   1.216  1.2659  1.4705  0.4636
 2739WAT     H2 8429   3.799   0.909   1.348 -0.5449 -0.5459  1.0366
 2740WAT      O 8430   2.184   5.017   4.682 -0.3094  0.2183 -0.2555
 2740WAT     H1 8431   2.123   4.986   4.749  1.3480 -1.4786  0.5957
 2740WAT     H2 8432   2.239   5.080   4.728 -1.1019  1.4164 -0.9021
 2741WAT      O 8433   4.105   2.799   4.450  0.3102  0.0004 -0.1405
 2741WAT     H1 8434   4.009   2.797   4.460  0.4706 -1.8904  1.5005
 2741WAT     H2 8435   4.136   2.847   4.527  0.6546  2.5762 -1.7581
 2742WAT      O 8436   3.845   3.070   3.529 -0.0169 -0.6232 -0.4188
 2742WAT     H1 8437   3.890   3.030   3.603  1.2134  1.7664  0.2430
 2742WAT     H2 8438   3.752   3.063   3.550  0.3029 -0.1843  1.3013
 2743WAT      O 8439   4.059   1.433   0.542  0.0901 -0.2914 -0.6927
 2743WAT     H1 8440   3.985   1.388   0.581  1.0093 -0.5184  0.8744
 2743WAT     H2 8441   4.075   1.387   0.460  1.1339 -3.0486  0.9443
 2744WAT      O 8442   2.745   5.045   0.315  0.8477  0.4573 -0.2344
 2744WAT     H1 8443   2.701   5.042   0.400  0.1733  0.4094 -0.5756
 2744WAT     H2 8444   2.687   5.097   0.260  1.4745  0.8206 -0.5646
 2745WAT      O 8445   2.221   5.129   3.139 -0.3219  0.1474  0.1725
 2745WAT     H1 8446   2.312   5.104   3.122 -0.2322 -0.2427  1.1581
 2745WAT     H2 8447   2.180   5.050   3.172 -0.7505  0.5872  0.7077
 2746WAT      O 8448   0.891   2.830   3.079  0.2966  0.2993  0.0219
 2746WAT     H1 8449   0.982   2.815   3.103 -0.1686  1.1034  2.5353
 2746WAT     H2 8450   0.843   2.825   3.161 -1.6923  1.6756 -0.9714
 2747WAT      O 8451   1.938   2.802   3.587 -0.4013  0.2442 -0.0843
 2747WAT     H1 8452   1.901   2.805   3.498 -1.9777 -0.4915  0.5109
 2747WAT     H2 8453   1.877   2.748   3.636  0.9771 -0.1744  1.2275
 2748WAT      O 8454   3.940   3.142   1.299 -0.4645  0.2154  0.6900
 2748WAT     H1 8455   3.934   3.116   1.207  2.9743 -1.7320  0.8217
 2748WAT     H2 8456   3.974   3.232   1.296  1.8893 -0.6165 -0.1049
 2749WAT      O 8457   4.250   0.915   5.009 -0.1823 -0.1690 -0.4111
 2749WAT     H1 8458   4.165   0.876   5.031 -0.0288 -0.8971 -1.0449
 2749WAT     H2 8459   4.231   1.008   4.998 -1.2753 -0.5383 -2.1670
 2750WAT      O 8460   2.212   1.224   4.989 -0.2299 -0.4493 -0.1917
 2750WAT     H1 8461   2.168   1.242   4.906  0.0187  0.5311 -0.1264
 2750WAT     H2 8462   2.199   1.131   5.004 -2.4522 -0.1682 -0.0794
 2751WAT      O 8463   2.295   4.364   3.804 -0.3142  0.4209 -0.2941
 2751WAT     H1 8464   2.305   4.278   3.764 -0.4304  0.2337  0.0823
 2751WAT     H2 8465   2.219   4.356   3.861 -0.1593  0.6952 -0.0466
 2752WAT      O 8466   1.400   1.824   1.685  0.0250 -0.0391 -0.1392
 2752WAT     H1 8467   1.400   1.848   1.777 -0.9854  3.0631 -0.8115
 2752WAT     H2 8468   1.493   1.828   1.659  0.1652  0.5521  0.4241
 2753WAT      O 8469   0.172   0.438   2.543 -0.0513 -0.3938 -0.6045
 2753WAT     H1 8470   0.087   0.457   2.583  0.1346  0.2143 -0.4822
 2753WAT     H2 8471   0.154   0.435   2.449 -0.0839  0.4868 -0.6361
 2754WAT      O 8472   3.101   0.766   0.612 -0.2059  0.5046  0.2750
 2754WAT     H1 8473   3.008   0.744   0.602  0.4057 -2.7975  0.6045
 2754WAT     H2 8474   3.115   0.765   0.707  0.6242 -1.6386  0.1762
 2755WAT      O 8475   3.017   3.825   2.356  0.5065 -0.0876  0.4696
 2755WAT     H1 8476   3.065   3.896   2.400 -1.3188  0.3956  1.7750
 2755WAT     H2 8477   2.990   3.767   2.427 -0.0234 -0.8548 -0.3445
 2756WAT      O 8478   3.379   2.794   2.859 -0.6472  0.0790 -0.1168
 2756WAT     H1 8479   3.422   2.746   2.787 -0.4258  0.7009 -0.4027
 2756WAT     H2 8480   3.304   2.837   2.818 -1.8301 -1.3383  0.4592
 2757WAT      O 8481   4.149   1.940   4.026  0.0971  0.1091 -0.1427
 2757WAT     H1 8482   4.204   1.923   3.949 -1.4187  1.3582 -1.5794
 2757WAT     H2 8483   4.198   1.903   4.099  0.8172 -2.6731 -1.8945
 2758WAT      O 8484   1.995   3.606   3.571  0.2829 -0.1218 -0.0502
 2758WAT     H1 8485   1.995   3.541   3.641 -0.2654 -0.8084 -0.6695
 2758WAT     H2 8486   1.993   3.554   3.491 -0.3184  0.6549 -0.5509
 2759WAT      O 8487   1.748   2.168   1.743 -0.0367 -0.3871  0.2599
 2759WAT     H1 8488   1.686   2.105   1.779 -0.6981  0.4855  0.6739
 2759WAT     H2 8489   1.708   2.196   1.661  0.5041 -0.8768 -0.1789
 2760WAT      O 8490   3.190   0.045   0.426 -0.0460  0.1018 -0.1758
 2760WAT     H1 8491   3.262   0.090   0.470  0.4285 -1.1277  0.3593
 2760WAT     H2 8492   3.173   0.097   0.347  2.4859 -0.4363 -1.1573
 2761WAT      O 8493   3.629   2.054   2.228 -0.0201 -0.2035  0.4891
 2761WAT     H1 8494   3.558   1.990   2.234 -0.4340  0.1866 -0.1080
 2761WAT     H2 8495   3.702   2.013   2.273 -0.3751 -0.9704  0.3828
 2762WAT      O 8496   3.484   4.543   3.187  0.6851 -0.4068  0.8439
 2762WAT     H1 8497   3.487   4.625   3.137  2.2019 -0.9479 -0.0235
 2762WAT     H2 8498   3.418   4.491   3.142  0.3615 -0.0048  0.8424
 2763WAT      O 8499   4.437   5.149   0.503 -0.2041  0.3114 -0.0232
 2763WAT     H1 8500   4.470   5.192   0.425 -1.1614  1.1102 -0.0178
 2763WAT     H2 8501   4.363   5.097   0.473  0.6005 -0.9156  0.0635
 2764WAT      O 8502   3.946   0.524   2.847  0.4820 -0.0963  0.1874
 2764WAT     H1 8503   4.008   0.454   2.829  1.3350  0.8984 -0.9148
 2764WAT     H2 8504   3.950   0.536   2.942  0.5335 -1.3397  0.3484
 2765WAT      O 8505   1.834   1.440   3.017 -0.1466  0.1111 -0.1153
 2765WAT     H1 8506   1.927   1.428   2.997 -0.7720  0.5366 -4.2588
 2765WAT     H2 8507   1.794   1.356   2.996 -0.9237  0.6050 -0.6997
 2766WAT      O 8508   1.766   2.089   0.985 -0.4118 -0.2825  0.3887
 2766WAT     H1 8509   1.747   1.997   0.963  1.7122 -1.0979  1.6413
 2766WAT     H2 8510   1.751   2.136   0.903 -1.8262 -1.6935 -0.2119
 2767WAT      O 8511   2.545   1.167   4.899  0.9737  0.0109  0.3325
 2767WAT     H1 8512   2.549   1.215   4.981  1.6790 -1.6514  1.3165
 2767WAT     H2 8513   2.615   1.102   4.904 -0.1390 -1.3711 -0.7546
 2768WAT      O 8514   2.744   4.269   5.144  0.7412  0.5747  0.3910
 2768WAT     H1 8515   2.768   4.266   5.051 -0.3303  0.6024  0.0972
 2768WAT     H2 8516   2.684   4.342   5.151  0.8063  0.5665  1.1162
 2769WAT      O 8517   2.155   4.971   2.210  0.4285 -0.2275  0.2642
 2769WAT     H1 8518   2.126   4.931   2.128 -0.4211  1.6426 -0.3827
 2769WAT     H2 8519   2.075   4.979   2.262  0.1762  2.2919 -0.3789
 2770WAT      O 8520   3.381   1.165   4.675  0.2981  0.4755  0.0725
 2770WAT     H1 8521   3.443   1.142   4.605  0.6694  1.4477  0.0644
 2770WAT     H2 8522   3.436   1.199   4.745 -0.1303  0.0996  0.6035
 2771WAT      O 8523   3.922   1.527   4.096 -0.1765  0.0126  0.5503
 2771WAT     H1 8524   3.951   1.467   4.165 -0.3055 -2.2690 -1.2278
 2771WAT     H2 8525   3.832   1.548   4.119  0.1595  0.2747  1.6910
 2772WAT      O 8526   3.506   0.347   3.857 -0.4845  0.1695 -0.4302
 2772WAT     H1 8527   3.508   0.419   3.920  1.4158  0.6523 -0.9639
 2772WAT     H2 8528   3.540   0.385   3.776 -0.2902 -1.1153 -0.9793
 2773WAT      O 8529   4.401   4.154   1.111  0.3816  0.1895 -0.5320
 2773WAT     H1 8530   4.434   4.065   1.104 -1.1374 -0.4035 -0.5003
 2773WAT     H2 8531   4.388   4.168   1.205  3.2461  1.4900 -0.2352
 2774WAT      O 8532   0.812   3.244   1.683  0.3356 -0.8579 -0.0611
 2774WAT     H1 8533   0.759   3.231   1.762 -0.6868 -1.2209 -0.7832
 2774WAT     H2 8534   0.792   3.168   1.629  3.6555 -2.4718  0.7116
 2775WAT      O 8535   2.290   1.779   2.293 -0.2761  0.0367 -0.6146
 2775WAT     H1 8536   2.367   1.757   2.242 -1.9750  0.0353 -3.3566
 2775WAT     H2 8537   2.271   1.700   2.344  1.1125 -0.1639 -0.3805
 2776WAT      O 8538   1.118   4.540   4.146  0.0774 -0.1422 -0.6425
 2776WAT     H1 8539   1.071   4.624   4.148  1.8729  0.9509 -1.1738
 2776WAT     H2 8540   1.059   4.478   4.188 -2.1089  0.9574 -1.9201
 2777WAT      O 8541   4.238   3.530   3.848  0.3792 -0.4465 -0.4375
 2777WAT     H1 8542   4.189   3.450   3.865  1.1309 -1.2217 -1.7482
 2777WAT     H2 8543   4.230   3.543   3.753  0.0302  1.2040 -0.2186
 2778WAT      O 8544   3.157   1.143   1.048 -0.0982 -0.5481 -0.4199
 2778WAT     H1 8545   3.235   1.105   1.089 -0.3892 -0.5932  0.0976
 2778WAT     H2 8546   3.166   1.120   0.955  1.4783  1.0851 -0.7226
 2779WAT      O 8547   1.455   2.360   4.706  0.2454  0.1603 -0.4316
 2779WAT     H1 8548   1.540   2.396   4.681  0.2197  0.5345 -0.0042
 2779WAT     H2 8549   1.413   2.430   4.757 -0.4399  0.0912 -0.8855
 2780WAT      O 8550   2.386   0.583   4.951 -0.9519 -0.0100  0.3534
 2780WAT     H1 8551   2.295   0.589   4.982 -1.0394  0.1013  0.0795
 2780WAT     H2 8552   2.436   0.637   5.012 -1.5712  2.8539 -1.4687
 2781WAT      O 8553   2.098   3.026   3.098 -0.1964  0.2187 -0.6980
 2781WAT     H1 8554   2.151   3.105   3.111  1.1005 -0.5067 -1.3229
 2781WAT     H2 8555   2.079   3.025   3.004 -0.4591 -0.0612 -0.6428
 2782WAT      O 8556   4.450   2.123   4.401  0.2812 -0.2102 -0.0625
 2782WAT     H1 8557   4.510   2.164   4.339  1.1961  1.3301  1.7185
 2782WAT     H2 8558   4.370   2.110   4.351  0.7626  1.5608 -1.4269
 2783WAT      O 8559   1.167   4.603   2.479  0.4645 -0.2949 -0.0463
 2783WAT     H1 8560   1.208   4.616   2.394  2.5076  0.9181  1.0496
 2783WAT     H2 8561   1.236   4.567   2.534 -0.5962 -0.3153  1.3248
 2784WAT      O 8562   2.653   5.045   4.645 -0.0113  0.0401 -0.4969
 2784WAT     H1 8563   2.603   5.111   4.692 -0.0606 -0.7701  0.6135
 2784WAT     H2 8564   2.737   5.041   4.691  0.2388 -0.2089 -0.9662
 2785WAT      O 8565   0.931   4.976   1.562  0.5631 -0.0694 -0.2160
 2785WAT     H1 8566   0.875   5.054   1.561 -0.6080 -0.8890 -0.2964
 2785WAT     H2 8567   0.934   4.947   1.471  2.8801  1.1449 -0.6155
 2786WAT      O 8568   4.067   4.813   1.700  0.4828  0.1735 -0.0820
 2786WAT     H1 8569   4.138   4.821   1.637 -0.4083 -0.7679 -1.2493
 2786WAT     H2 8570   4.047   4.719   1.703  0.1407  0.2600  1.2010
 2787WAT      O 8571   2.357   4.198   1.914  0.6477  0.2873  0.4240
 2787WAT     H1 8572   2.384   4.163   1.829 -0.8814 -0.6129  0.2844
 2787WAT     H2 8573   2.438   4.198   1.966  1.2475 -0.8343 -0.4577
 2788WAT      O 8574   1.914   4.784   5.216 -0.5463 -0.6662 -0.2283
 2788WAT     H1 8575   1.863   4.830   5.149 -0.1033  0.2243  0.0270
 2788WAT     H2 8576   1.861   4.791   5.296 -2.0894 -3.5246 -0.8534
 2789WAT      O 8577   2.110   4.791   1.604  0.0135 -0.3565  0.3149
 2789WAT     H1 8578   2.110   4.752   1.516 -1.0902 -2.6523  1.2591
 2789WAT     H2 8579   2.199   4.826   1.615  0.4425 -0.8377 -1.3556
 2790WAT      O 8580   0.434   3.017   1.430  0.0019  0.7368  0.2105
 2790WAT     H1 8581   0.473   3.102   1.452  1.7862  0.4828 -1.5921
 2790WAT     H2 8582   0.432   3.017   1.334 -1.3791 -0.6637  0.2150
 2791WAT      O 8583   2.741   3.269   0.387 -0.0527  0.7454  0.7191
 2791WAT     H1 8584   2.812   3.204   0.385  0.7461  1.5817 -1.4877
 2791WAT     H2 8585   2.666   3.220   0.421  0.7622 -1.0855  0.0685
 2792WAT      O 8586   0.147   2.906   2.284 -0.7172  0.5152  0.2315
 2792WAT     H1 8587   0.067   2.958   2.272  0.3559  2.5053  1.2348
 2792WAT     H2 8588   0.207   2.965   2.330  0.9062 -1.3451  0.6137
 2793WAT      O 8589   2.605   4.779   1.409  0.2294 -0.2047 -0.0380
 2793WAT     H1 8590   2.680   4.802   1.464  0.0845 -0.1149  0.1214
 2793WAT     H2 8591   2.573   4.863   1.375 -1.9055  0.1984  2.5861
 2794WAT      O 8592   0.381   1.619   5.045 -0.0337 -0.1184 -0.5560
 2794WAT     H1 8593   0.352   1.542   5.093  1.3762 -0.4878 -0.2554
 2794WAT     H2 8594   0.474   1.604   5.029  0.3114  1.5807 -0.3722
 2795WAT      O 8595   2.627   4.563   5.032 -0.4837 -0.4081  0.4021
 2795WAT     H1 8596   2.586   4.638   5.075 -1.0161 -1.4012  1.7112
 2795WAT     H2 8597   2.559   4.529   4.973 -1.0992 -1.2163  1.5333
 2796WAT      O 8598   3.487   2.947   1.424  0.1204 -0.1497  0.4877
 2796WAT     H1 8599   3.485   2.980   1.514  1.6008 -1.0674  0.8985
 2796WAT     H2 8600   3.561   2.993   1.384 -1.5028  1.4637 -0.7973
 2797WAT      O 8601   1.290   3.585   0.493  0.5726  0.0461 -0.1119
 2797WAT     H1 8602   1.222   3.580   0.426  0.3802 -1.2157  0.1588
 2797WAT     H2 8603   1.372   3.581   0.444  0.4345 -0.3920 -0.3101
 2798WAT      O 8604   0.926   3.984   3.006  0.1541  0.8789  0.3542
 2798WAT     H1 8605   0.863   4.010   3.074  0.6722  0.4304  1.0180
 2798WAT     H2 8606   0.909   3.891   2.993  1.2184  0.5577  1.1370
 2799WAT      O 8607   3.005   2.807   4.485 -0.4466  0.4489 -0.0517
 2799WAT     H1 8608   2.998   2.815   4.580 -0.6649 -0.7718  0.0518
 2799WAT     H2 8609   3.099   2.814   4.467 -0.4462  1.1428  0.1963
 2800WAT      O 8610   0.974   3.067   0.913 -0.1064 -0.0360  0.0970
 2800WAT     H1 8611   0.993   3.118   0.992  1.0760  0.4330 -0.4620
 2800WAT     H2 8612   0.916   3.124   0.862  0.3012  0.2838 -0.0176
 2801WAT      O 8613   3.950   4.038   1.580 -0.8033  0.1533 -0.3585
 2801WAT     H1 8614   3.958   3.980   1.504  0.8703  0.4845 -0.4783
 2801WAT     H2 8615   3.910   4.118   1.545 -1.1542 -0.1410 -0.6360
 2802WAT      O 8616   0.069   3.062   0.867  0.4241  0.2884 -0.2212
 2802WAT     H1 8617   0.148   3.031   0.824 -1.2070 -2.8541 -1.2943
 2802WAT     H2 8618   0.092   3.065   0.960  1.7174 -0.8474 -0.4731
 2803WAT      O 8619   4.412   2.232   2.029 -0.1140  0.2678  0.0863
 2803WAT     H1 8620   4.434   2.225   1.936 -1.5998 -0.6769 -0.2371
 2803WAT     H2 8621   4.428   2.144   2.064 -0.9368  0.2286  0.3827
 2804WAT      O 8622   1.923   1.698   2.795 -0.3293  0.0607  0.1773
 2804WAT     H1 8623   1.932   1.634   2.866 -0.4579 -0.4257 -0.2422
 2804WAT     H2 8624   1.946   1.650   2.716 -0.7457  0.4480 -0.1850
 2805WAT      O 8625   3.104   3.738   4.458  0.0795  0.1879 -0.3397
 2805WAT     H1 8626   3.047   3.717   4.384 -0.4080 -0.7044  0.2704
 2805WAT     H2 8627   3.124   3.831   4.447  0.0140  0.0811 -1.5855
 2806WAT      O 8628   0.045   3.936   5.055  0.6508  0.2452  0.3859
 2806WAT     H1 8629  -0.043   3.934   5.094  0.9119 -2.6730  1.0500
 2806WAT     H2 8630   0.030   3.960   4.964 -0.6029  1.4886  0.8693
 2807WAT      O 8631   0.613   2.256   4.663  0.2558  0.3440 -0.4966
 2807WAT     H1 8632   0.653   2.299   4.587 -1.1612  1.5027 -0.6342
 2807WAT     H2 8633   0.645   2.166   4.659  1.3270  0.7389 -1.6545
 2808WAT      O 8634   4.105   4.264   0.253 -0.2066  0.0179 -0.0083
 2808WAT     H1 8635   4.183   4.320   0.251  1.6759 -2.4368 -0.8882
 2808WAT     H2 8636   4.128   4.194   0.314 -1.1122 -1.5676 -1.4048
 2809WAT      O 8637   1.591   2.027   4.272 -0.2891 -1.0109 -0.8740
 2809WAT     H1 8638   1.516   1.969   4.279 -1.6507  0.8242  0.6330
 2809WAT     H2 8639   1.642   1.992   4.199 -1.5942 -3.4138 -0.7142
 2810WAT      O 8640   2.399   1.064   3.746 -0.0909  0.3977  0.0395
 2810WAT     H1 8641   2.411   1.150   3.705  0.5620  0.3754  0.1704
 2810WAT     H2 8642   2.444   1.004   3.688 -1.8055 -0.0961 -0.8549
 2811WAT      O 8643   2.622   0.121   0.845  0.2601  0.2198 -0.5267
 2811WAT     H1 8644   2.566   0.181   0.795  0.1234 -0.5829 -1.3649
 2811WAT     H2 8645   2.652   0.173   0.920 -2.3279  0.4119  0.4699
 2812WAT      O 8646   1.749   4.902   5.048 -0.3817  0.4638  0.1849
 2812WAT     H1 8647   1.665   4.942   5.070 -0.4629 -0.3836  1.5745
 2812WAT     H2 8648   1.805   4.975   5.025 -1.1208  1.1813  0.6011
 2813WAT      O 8649   0.746   0.732   3.781  0.0364 -0.0954 -0.3906
 2813WAT     H1 8650   0.676   0.666   3.777 -0.0118 -0.0044 -1.3137
 2813WAT     H2 8651   0.812   0.694   3.839 -0.6518 -0.3058  0.2602
 2814WAT      O 8652   4.176   4.267   2.026  0.0929 -0.3057 -0.6329
 2814WAT     H1 8653   4.146   4.298   1.940 -1.1572  0.2433 -0.0297
 2814WAT     H2 8654   4.151   4.175   2.028  1.2889 -0.6635 -1.3426
 2815WAT      O 8655   1.422   5.048   1.429  0.0320 -0.1397 -0.3500
 2815WAT     H1 8656   1.474   5.065   1.507 -0.8080  1.9734 -0.1888
 2815WAT     H2 8657   1.485   5.052   1.356  0.3106  1.2833 -0.0624
 2816WAT      O 8658   2.200   0.822   4.604 -0.2432 -0.0063  0.5233
 2816WAT     H1 8659   2.235   0.907   4.629 -0.5791  1.1628 -2.6083
 2816WAT     H2 8660   2.113   0.819   4.644  0.8123 -0.2193  3.0350
 2817WAT      O 8661   2.998   3.594   0.235 -0.2600 -0.2503 -0.0544
 2817WAT     H1 8662   2.962   3.676   0.200 -4.1508 -1.8928 -0.4726
 2817WAT     H2 8663   2.975   3.528   0.170  2.7837 -1.7689  0.2663
 2818WAT      O 8664   3.235   1.617   0.680  0.5690 -0.2357  0.6513
 2818WAT     H1 8665   3.161   1.677   0.691  0.8473  0.6202 -1.6448
 2818WAT     H2 8666   3.308   1.661   0.724  0.5195  0.6035 -0.0820
 2819WAT      O 8667   1.785   3.856   4.131 -0.3513 -0.1766  0.0447
 2819WAT     H1 8668   1.845   3.781   4.137 -1.3628 -1.0391 -0.4169
 2819WAT     H2 8669   1.789   3.882   4.039 -0.3865  0.0222  0.0991
 2820WAT      O 8670   4.097   3.332   3.961  0.2014 -0.0226 -0.3076
 2820WAT     H1 8671   4.012   3.292   3.942 -0.8170  1.6675  0.4869
 2820WAT     H2 8672   4.139   3.270   4.021  0.1623 -1.5452 -1.7751
 2821WAT      O 8673   2.230   4.636   4.390 -0.2726 -0.9547  0.4476
 2821WAT     H1 8674   2.247   4.598   4.304  3.7695 -2.2352  1.6196
 2821WAT     H2 8675   2.203   4.726   4.371  1.4325 -0.8952 -2.1924
 2822WAT      O 8676   1.998   4.926   0.704 -0.5393 -0.6822 -0.3695
 2822WAT     H1 8677   1.974   4.857   0.765 -0.4601 -1.3064 -1.0330
 2822WAT     H2 8678   1.928   4.991   0.711 -0.2363 -0.4473  0.8099
 2823WAT      O 8679   4.362   0.295   4.319  0.2101 -0.2766 -0.2926
 2823WAT     H1 8680   4.322   0.215   4.352 -1.0335 -0.6546 -2.5677
 2823WAT     H2 8681   4.421   0.267   4.249  0.4434  0.7371 -0.5291
 2824WAT      O 8682   0.530   1.237   0.416  0.1548 -0.5084  0.5031
 2824WAT     H1 8683   0.568   1.243   0.328 -0.2060 -0.7115  0.3287
 2824WAT     H2 8684   0.593   1.187   0.467  0.7300  0.2738  0.5660
 2825WAT      O 8685   2.549   0.238   1.327  0.6365  0.0913 -0.1774
 2825WAT     H1 8686   2.478   0.189   1.368  1.5812 -1.0419  0.1527
 2825WAT     H2 8687   2.505   0.294   1.263 -0.5654 -0.4958  0.1010
 2826WAT      O 8688   3.991   4.483   2.863  0.3832 -0.2516  1.2526
 2826WAT     H1 8689   3.906   4.515   2.834  1.2549  1.4221  0.3788
 2826WAT     H2 8690   4.001   4.518   2.952  1.1884  1.7619  0.4238
 2827WAT      O 8691   3.441   1.522   4.953  0.1713  0.0476  0.5904
 2827WAT     H1 8692   3.445   1.583   5.027  0.0880  0.6323  0.1249
 2827WAT     H2 8693   3.433   1.579   4.876  1.4669 -0.4927  0.0238
 2828WAT      O 8694   2.102   1.052   3.107  0.4526 -0.4706  0.2310
 2828WAT     H1 8695   2.043   1.000   3.052 -0.8117  0.2972  0.8152
 2828WAT     H2 8696   2.114   0.999   3.186 -0.0629 -0.2914  0.4282
 2829WAT      O 8697   3.099   0.982   1.343 -0.2042  0.5722 -0.2197
 2829WAT     H1 8698   3.018   0.968   1.295 -0.3812  1.3986 -0.1916
 2829WAT     H2 8699   3.158   0.913   1.313 -0.5014  0.7296 -1.1965
 2830WAT      O 8700   3.766   0.427   4.772  0.3370 -0.2163  0.0307
 2830WAT     H1 8701   3.818   0.462   4.700  1.7626  0.7089  1.4282
 2830WAT     H2 8702   3.708   0.499   4.796  1.0674  0.1072  0.8813
 2831WAT      O 8703   3.584   3.213   2.151 -0.5564 -0.0448  0.8812
 2831WAT     H1 8704   3.578   3.266   2.071 -0.7175 -1.1085  0.1744
 2831WAT     H2 8705   3.674   3.225   2.181 -0.0994 -0.6908 -0.2059
 2832WAT      O 8706   3.515   1.613   2.042 -0.0595  1.1040  0.2195
 2832WAT     H1 8707   3.509   1.534   1.989 -0.5519  0.2123  1.5298
 2832WAT     H2 8708   3.433   1.660   2.025 -2.0040 -1.0183  2.8682
 2833WAT      O 8709   2.145   1.192   4.039 -0.2646  0.0236 -0.0751
 2833WAT     H1 8710   2.148   1.277   3.996 -0.1915  0.4399  0.7331
 2833WAT     H2 8711   2.140   1.212   4.133 -1.6881 -0.8462  0.0668
 2834WAT      O 8712   4.070   1.345   1.381 -0.4531 -0.1325 -0.0036
 2834WAT     H1 8713   4.108   1.330   1.294 -1.2519  1.2488 -0.6223
 2834WAT     H2 8714   3.976   1.354   1.365 -0.5414  0.7618  0.9041
 2835WAT      O 8715   3.495   4.593   1.292 -0.0824  0.1356  0.0094
 2835WAT     H1 8716   3.588   4.608   1.303 -0.3558  1.7636  0.3157
 2835WAT     H2 8717   3.471   4.646   1.215 -0.8472  0.1722  0.2650
 2836WAT      O 8718   4.222   3.899   4.055  0.3132  0.6455 -0.4947
 2836WAT     H1 8719   4.292   3.840   4.027  0.2913  0.0602  0.6421
 2836WAT     H2 8720   4.255   3.939   4.135  0.4253  2.3755 -1.3481
 2837WAT      O 8721   3.194   2.969   4.891 -0.1245 -0.1445  0.1473
 2837WAT     H1 8722   3.125   3.020   4.934  0.0734 -0.5096  0.9089
 2837WAT     H2 8723   3.182   2.880   4.922  2.1377  0.1805  2.2430
 2838WAT      O 8724   2.139   2.332   2.633  0.5819  0.4197 -0.5081
 2838WAT     H1 8725   2.230   2.305   2.647  0.0641 -1.4874 -0.5834
 2838WAT     H2 8726   2.134   2.420   2.670  1.9263 -0.2833  1.4715
 2839WAT      O 8727   1.436   0.551   3.483 -0.2040  0.1902  0.8310
 2839WAT     H1 8728   1.418   0.551   3.389 -0.8566  0.0741  0.9507
 2839WAT     H2 8729   1.354   0.581   3.523 -0.2359 -0.6263  1.4070
 2840WAT      O 8730   1.022   0.876   1.465 -0.0511  0.5338  0.6823
 2840WAT     H1 8731   1.093   0.939   1.452 -0.3433  0.6190 -0.6464
 2840WAT     H2 8732   1.029   0.817   1.390 -1.1825  0.3428  0.7101
 2841WAT      O 8733   2.762   0.128   3.329  0.2448  0.1128 -0.4644
 2841WAT     H1 8734   2.857   0.113   3.327 -0.0013 -1.6915  0.0129
 2841WAT     H2 8735   2.745   0.165   3.415  0.4259 -0.3527 -0.2231
 2842WAT      O 8736   1.228   1.326   2.053  0.9165  0.2704 -0.3537
 2842WAT     H1 8737   1.229   1.390   1.982 -0.8586 -0.4642 -1.0923
 2842WAT     H2 8738   1.309   1.343   2.101  0.7430  2.7356 -0.7932
 2843WAT      O 8739   1.956   2.430   5.228  0.3211  0.0772 -0.1350
 2843WAT     H1 8740   1.985   2.500   5.170  1.5939 -0.0452  0.3206
 2843WAT     H2 8741   2.000   2.449   5.311  0.2926 -0.9864  0.1340
 2844WAT      O 8742   3.097   1.962   3.925 -0.0076 -0.0761 -0.1011
 2844WAT     H1 8743   3.045   1.962   3.844 -0.0655  0.7196 -0.0665
 2844WAT     H2 8744   3.187   1.948   3.895 -0.1645 -0.9399 -0.2035
 2845WAT      O 8745   0.026   3.008   3.434 -0.1100  0.0366  0.0574
 2845WAT     H1 8746   0.051   3.100   3.431 -2.3828  0.7407  0.8768
 2845WAT     H2 8747   0.074   2.968   3.361  0.1938  2.0712 -0.9286
 2846WAT      O 8748   0.420   1.871   0.899 -0.1006 -0.1549 -0.1838
 2846WAT     H1 8749   0.354   1.874   0.968 -0.9946 -0.8730 -0.9835
 2846WAT     H2 8750   0.474   1.949   0.914 -2.3684  1.6294 -0.7240
 2847WAT      O 8751   0.457   4.780   2.712  0.8184  0.1657  0.2477
 2847WAT     H1 8752   0.410   4.710   2.757  1.1124 -0.0284  0.2510
 2847WAT     H2 8753   0.534   4.797   2.766 -0.5099  2.2507  1.6409
 2848WAT      O 8754   3.562   1.514   3.738  0.2660  0.3389  0.4644
 2848WAT     H1 8755   3.476   1.486   3.769  0.0153  2.0640  1.4662
 2848WAT     H2 8756   3.580   1.594   3.787  1.2389  1.5345 -1.7450
 2849WAT      O 8757   0.474   4.207   3.417 -0.7963  0.1674  0.5024
 2849WAT     H1 8758   0.552   4.239   3.462 -0.2596  0.5994 -0.6894
 2849WAT     H2 8759   0.429   4.152   3.482 -0.7052  1.7264  1.9360
 2850WAT      O 8760   3.330   0.919   1.805  0.1628 -0.0241 -0.0946
 2850WAT     H1 8761   3.254   0.883   1.758  0.6888 -1.0655 -0.1973
 2850WAT     H2 8762   3.352   0.999   1.757 -1.0858  0.5003  0.1672
 2851WAT      O 8763   1.859   4.661   3.061 -0.3497  0.1699  0.0620
 2851WAT     H1 8764   1.792   4.728   3.075 -0.2122  0.1894  0.6451
 2851WAT     H2 8765   1.811   4.578   3.066 -0.5665  0.2127 -0.9151
 2852WAT      O 8766   3.722   0.664   4.929 -0.4108  0.6451  0.1826
 2852WAT     H1 8767   3.727   0.760   4.930  0.8384  0.5931  0.0361
 2852WAT     H2 8768   3.811   0.635   4.911 -0.8560 -0.5486 -0.2131
 2853WAT      O 8769   0.591   4.600   4.365  0.0478  0.0258 -0.1300
 2853WAT     H1 8770   0.576   4.680   4.314 -0.8223 -0.1095 -0.1112
 2853WAT     H2 8771   0.669   4.619   4.417 -0.9038  1.4029  0.8907
 2854WAT      O 8772   3.230   3.032   1.074 -0.2113  0.2704  0.4559
 2854WAT     H1 8773   3.199   2.945   1.049  1.1781  0.3929 -2.0213
 2854WAT     H2 8774   3.199   3.089   1.004  2.2677  1.0255 -0.1263
 2855WAT      O 8775   3.746   0.089   4.365  0.2740 -0.2127 -0.3147
 2855WAT     H1 8776   3.770   0.053   4.279  0.9420  0.9067 -0.6189
 2855WAT     H2 8777   3.687   0.161   4.346 -0.0398 -0.3258  0.2075
 2856WAT      O 8778   3.807   4.407   0.539  0.0656 -0.2592 -0.1333
 2856WAT     H1 8779   3.757   4.326   0.537 -0.1848 -0.1885  1.6082
 2856WAT     H2 8780   3.842   4.412   0.628 -0.4465  1.8308  0.0148
 2857WAT      O 8781   1.384   1.859   4.547  0.0273  0.2273  0.7000
 2857WAT     H1 8782   1.303   1.831   4.506  0.1722  0.4648  0.2494
 2857WAT     H2 8783   1.375   1.954   4.557  0.5534  0.3679 -0.0456
 2858WAT      O 8784   0.055   4.005   3.308 -0.8052 -0.1425  0.6172
 2858WAT     H1 8785   0.036   3.923   3.263  1.3756 -0.0952 -0.4916
 2858WAT     H2 8786   0.137   4.036   3.269 -0.8431  1.8619  1.9819
 2859WAT      O 8787   4.557   4.638   2.885  0.5331 -0.8486 -0.2475
 2859WAT     H1 8788   4.550   4.651   2.980 -0.6303  0.3645 -0.4661
 2859WAT     H2 8789   4.480   4.682   2.850  2.0575  0.5991 -1.9249
 2860WAT      O 8790   3.647   3.475   2.560  0.0118  0.2227  0.2518
 2860WAT     H1 8791   3.673   3.470   2.468 -0.2752  0.1923  0.1710
 2860WAT     H2 8792   3.565   3.524   2.559 -0.3427 -0.3590  0.4163
 2861WAT      O 8793   2.458   4.064   0.568  0.2774 -0.1228 -0.0897
 2861WAT     H1 8794   2.384   4.084   0.625  2.0476  1.5882  1.7859
 2861WAT     H2 8795   2.424   4.000   0.505 -3.0856  1.4994 -0.1182
 2862WAT      O 8796   3.128   3.049   1.660  0.1801  0.2583 -0.7821
 2862WAT     H1 8797   3.180   3.052   1.741  1.9790 -0.2601 -1.8571
 2862WAT     H2 8798   3.171   2.982   1.607 -1.2016  0.3047 -2.0289
 2863WAT      O 8799   0.401   0.363   0.379  0.6545 -0.1224  0.2275
 2863WAT     H1 8800   0.395   0.410   0.296 -1.8032  0.2234  0.5211
 2863WAT     H2 8801   0.405   0.432   0.445 -1.1419 -0.2760  0.5567
 2864WAT      O 8802   0.960   1.295   0.451 -0.1216  0.3599 -0.1245
 2864WAT     H1 8803   0.959   1.388   0.427 -2.1160  0.2060 -0.8222
 2864WAT     H2 8804   0.989   1.294   0.543 -3.9406  2.1244  1.3020
 2865WAT      O 8805   1.618   1.332   4.336 -0.0437 -0.7001  0.1281
 2865WAT     H1 8806   1.652   1.273   4.403  0.3074 -0.7650 -0.1019
 2865WAT     H2 8807   1.639   1.288   4.253 -0.2045 -0.4795 -0.0294
 2866WAT      O 8808   1.366   0.109   1.634  0.1487  0.1718 -1.0054
 2866WAT     H1 8809   1.301   0.043   1.611 -0.1157 -0.7985  2.1182
 2866WAT     H2 8810   1.329   0.153   1.711  1.5978  2.0997 -1.3218
 2867WAT      O 8811   1.186   3.228   4.612 -0.4055  0.5493  0.0184
 2867WAT     H1 8812   1.254   3.161   4.611  0.6233  1.5674  0.0980
 2867WAT     H2 8813   1.119   3.193   4.671  0.6763  0.1331  1.0266
 2868WAT      O 8814   0.545   0.734   4.061 -0.0019 -0.1730 -0.8103
 2868WAT     H1 8815   0.631   0.775   4.051  0.1758 -0.4202 -0.3369
 2868WAT     H2 8816   0.561   0.640   4.052  0.2725 -0.4971  1.9959
 2869WAT      O 8817   1.797   0.317   3.586  0.0775  0.3067 -0.3608
 2869WAT     H1 8818   1.749   0.391   3.549  0.8096  0.7080 -0.5412
 2869WAT     H2 8819   1.793   0.249   3.520  0.3973  0.6113 -0.6983
 2870WAT      O 8820   4.310   2.403   3.202 -0.5293 -0.6402 -0.1889
 2870WAT     H1 8821   4.278   2.322   3.164 -0.1252 -0.1899 -1.5513
 2870WAT     H2 8822   4.385   2.427   3.148  0.1345 -0.0218  0.9815
 2871WAT      O 8823   0.664   3.540   1.695 -0.2055  0.4904 -0.0120
 2871WAT     H1 8824   0.718   3.515   1.769  0.1896  2.2162  0.3265
 2871WAT     H2 8825   0.588   3.481   1.699  1.6584 -2.1300 -0.6286
 2872WAT      O 8826   3.127   4.005   4.498  0.2470 -0.1100 -0.8546
 2872WAT     H1 8827   3.042   4.029   4.535  1.1437 -1.5366  2.5699
 2872WAT     H2 8828   3.191   4.049   4.554  1.7827 -0.6548 -2.1037
 2873WAT      O 8829   2.001   3.829   2.920  0.0950 -0.2730 -0.5531
 2873WAT     H1 8830   2.004   3.848   2.826  0.0530 -0.5712 -0.6151
 2873WAT     H2 8831   2.060   3.893   2.959 -1.5419  1.3069 -0.5439
 2874WAT      O 8832   0.897   1.871   0.177  0.1775 -0.5952 -0.0111
 2874WAT     H1 8833   0.806   1.841   0.169  0.3162 -0.5180 -2.9959
 2874WAT     H2 8834   0.946   1.792   0.197 -0.3956 -0.8577  0.4073
 2875WAT      O 8835   3.549   0.684   2.754  0.6535 -0.0249 -0.4432
 2875WAT     H1 8836   3.473   0.653   2.705 -0.5445 -0.7988  1.7736
 2875WAT     H2 8837   3.609   0.609   2.753  0.2504 -0.3584  0.0198
 2876WAT      O 8838   2.898   0.094   4.209  0.1187 -0.9917  1.0959
 2876WAT     H1 8839   2.813   0.050   4.220 -0.5235 -0.7431 -1.9822
 2876WAT     H2 8840   2.933   0.059   4.128  0.7829  2.1959 -0.1608
 2877WAT      O 8841   3.787   2.867   3.745  0.3752  0.4215  0.2426
 2877WAT     H1 8842   3.702   2.911   3.749  0.6309  0.8294  1.6747
 2877WAT     H2 8843   3.772   2.781   3.784 -0.0802 -0.7941 -2.3951
 2878WAT      O 8844   3.293   2.596   1.826  0.0319  0.3142 -0.2806
 2878WAT     H1 8845   3.215   2.541   1.818 -1.0031  1.5189  1.0774
 2878WAT     H2 8846   3.317   2.591   1.918  1.9460 -0.4829 -0.7712
 2879WAT      O 8847   1.274   3.442   2.778 -0.2188 -0.2353 -0.1031
 2879WAT     H1 8848   1.288   3.398   2.695  0.7460 -0.4594  0.1679
 2879WAT     H2 8849   1.360   3.475   2.803 -1.0689  3.0976 -0.9743
 2880WAT      O 8850   0.712   2.666   0.467  0.2595  0.1168 -0.0543
 2880WAT     H1 8851   0.807   2.660   0.458  0.3541  0.6742  0.4759
 2880WAT     H2 8852   0.692   2.615   0.546  0.1645  0.3336  0.0623
 2881WAT      O 8853   0.692   1.354   2.722 -0.4912  0.2357  0.2138
 2881WAT     H1 8854   0.635   1.386   2.792 -2.0993 -0.4325 -0.7271
 2881WAT     H2 8855   0.716   1.432   2.672 -1.4446  0.4071  0.0179
 2882WAT      O 8856   3.944   3.828   1.054  0.5566 -0.0955 -0.1917
 2882WAT     H1 8857   4.020   3.770   1.051 -0.5921 -1.6951  0.3185
 2882WAT     H2 8858   3.897   3.811   0.972  0.1686  0.0594 -0.0078
 2883WAT      O 8859   0.371   4.701   1.037 -0.7130  0.0099 -0.3356
 2883WAT     H1 8860   0.295   4.686   0.981 -1.0350 -0.9000  0.3252
 2883WAT     H2 8861   0.439   4.643   1.002 -2.0114 -3.4234  2.3238
 2884WAT      O 8862   1.232   3.168   5.010 -0.2130 -0.2677 -0.1979
 2884WAT     H1 8863   1.232   3.153   5.105  1.6370 -0.1394 -0.1316
 2884WAT     H2 8864   1.219   3.262   5.001 -0.4658 -0.2900 -0.0729
 2885WAT      O 8865   2.864   4.020   0.807 -0.6770 -0.5149  0.4107
 2885WAT     H1 8866   2.804   4.090   0.783 -0.2390  0.0752  0.9897
 2885WAT     H2 8867   2.808   3.948   0.834 -1.1294  0.0065  0.8852
 2886WAT      O 8868   3.780   0.007   2.252 -0.6314 -0.1796 -0.0126
 2886WAT     H1 8869   3.779   0.103   2.249  0.0394  0.0390  3.0935
 2886WAT     H2 8870   3.841  -0.018   2.183  0.7148  1.7899  0.3666
 2887WAT      O 8871   2.642   4.341   1.876 -1.0102  0.0908 -0.2141
 2887WAT     H1 8872   2.607   4.308   1.959  2.4484  2.2829  2.3933
 2887WAT     H2 8873   2.575   4.401   1.843 -2.9799 -1.7493  0.2147
 2888WAT      O 8874   1.074   3.046   2.097  0.6477  0.0367 -0.5246
 2888WAT     H1 8875   1.122   2.987   2.039  2.2882  0.6935  0.1239
 2888WAT     H2 8876   1.008   2.990   2.138  0.4551 -0.7606 -1.8690
 2889WAT      O 8877   3.418   2.644   3.931 -0.0836 -0.0381  0.1168
 2889WAT     H1 8878   3.331   2.609   3.946  0.6597 -2.2663 -0.4709
 2889WAT     H2 8879   3.449   2.668   4.019 -0.3148 -1.6907  0.6745
 2890WAT      O 8880   0.685   3.331   2.293 -0.0886 -0.3383  0.2338
 2890WAT     H1 8881   0.695   3.412   2.343 -1.0356 -0.9312  1.4271
 2890WAT     H2 8882   0.592   3.329   2.269 -0.0213 -0.9544  0.0065
 2891WAT      O 8883   1.922   1.889   5.168  0.0296  0.4787  0.2946
 2891WAT     H1 8884   1.846   1.831   5.168  1.0196 -0.8662 -0.2849
 2891WAT     H2 8885   1.996   1.832   5.146  1.2522  1.7022  1.0628
 2892WAT      O 8886   3.139   3.983   4.225 -0.4935  0.5340 -0.5605
 2892WAT     H1 8887   3.139   3.980   4.320 -2.7939 -0.9341 -0.5433
 2892WAT     H2 8888   3.082   4.057   4.203 -0.4005  0.5347 -0.8090
 2893WAT      O 8889   2.104   0.908   2.602  0.5800  0.3428  0.2782
 2893WAT     H1 8890   2.191   0.880   2.576  0.2422  0.0251 -0.5385
 2893WAT     H2 8891   2.119   0.983   2.660  1.3323  1.5318 -1.3879
 2894WAT      O 8892   3.157   1.102   0.715 -0.0147 -0.2752 -0.4906
 2894WAT     H1 8893   3.219   1.057   0.659 -1.1485 -0.7758 -1.3765
 2894WAT     H2 8894   3.179   1.194   0.707 -0.1998 -0.3345 -1.8232
 2895WAT      O 8895   4.494   2.008   0.655  0.1327  0.2970  0.4470
 2895WAT     H1 8896   4.427   2.040   0.715  1.6991  0.1849  2.3247
 2895WAT     H2 8897   4.509   2.081   0.595 -1.2450  0.5128  0.3349
 2896WAT      O 8898   2.602   4.184   4.822  0.4228 -0.2238  0.0052
 2896WAT     H1 8899   2.532   4.207   4.884  1.9416  1.4272  1.2225
 2896WAT     H2 8900   2.645   4.267   4.804  0.5521 -0.7950 -2.7082
 2897WAT      O 8901   0.543   3.354   5.246 -0.1312 -0.0317  0.3459
 2897WAT     H1 8902   0.578   3.265   5.239  0.0945  0.1703 -1.9402
 2897WAT     H2 8903   0.448   3.344   5.239 -0.1317 -0.1371  0.5189
 2898WAT      O 8904   1.997   0.881   0.750 -0.5265 -0.0453 -0.5187
 2898WAT     H1 8905   1.976   0.812   0.813 -1.5635  0.3069 -0.4572
 2898WAT     H2 8906   2.060   0.936   0.796  0.4642 -1.0507 -0.6447
 2899WAT      O 8907   0.813   1.122   0.853  0.1904 -0.2716 -0.2744
 2899WAT     H1 8908   0.776   1.204   0.886  1.1308 -0.5842  1.6830
 2899WAT     H2 8909   0.814   1.064   0.929  2.5215 -1.0341 -0.8084
 2900WAT      O 8910   1.593   0.572   5.176 -0.2431 -0.2926 -0.4594
 2900WAT     H1 8911   1.537   0.607   5.107  1.6554 -0.5498 -2.2240
 2900WAT     H2 8912   1.644   0.647   5.207  1.4943 -0.7538 -1.9710
 2901WAT      O 8913   4.093   3.850   0.731  0.0400 -0.6817 -0.1127
 2901WAT     H1 8914   4.124   3.765   0.701 -0.2556 -0.6756 -0.4420
 2901WAT     H2 8915   4.133   3.861   0.818 -1.9090 -2.2871  1.0735
 2902WAT      O 8916   0.456   3.146   0.916 -0.0969  0.3780 -0.0648
 2902WAT     H1 8917   0.411   3.100   0.845 -0.5495  0.3023  0.2631
 2902WAT     H2 8918   0.541   3.169   0.880  0.9569 -2.4560  0.4047
 2903WAT      O 8919   2.295   3.665   3.487  0.1144  0.1744  0.1505
 2903WAT     H1 8920   2.341   3.707   3.560  2.7341  0.2764 -1.4279
 2903WAT     H2 8921   2.203   3.690   3.499  0.7931  2.0985  2.0910
 2904WAT      O 8922   2.828   2.236   1.809  0.1550 -0.6618 -0.6689
 2904WAT     H1 8923   2.878   2.179   1.866 -0.0628 -0.8127 -0.6296
 2904WAT     H2 8924   2.885   2.250   1.733  0.2409 -0.8652 -0.6423
 2905WAT      O 8925   1.873   2.506   2.207 -0.3220 -0.1850 -0.1733
 2905WAT     H1 8926   1.880   2.438   2.139  0.8303  0.3558 -0.6213
 2905WAT     H2 8927   1.941   2.483   2.269 -1.3246 -0.6306  0.7967
 2906WAT      O 8928   3.694   5.046   2.607 -0.0894  0.2842  0.2568
 2906WAT     H1 8929   3.651   4.987   2.545  0.6662 -0.4438  0.4188
 2906WAT     H2 8930   3.735   5.113   2.552  0.3524 -0.2102 -0.0194
 2907WAT      O 8931   4.461   2.136   4.109 -0.5144 -0.8222  0.6000
 2907WAT     H1 8932   4.481   2.111   4.018 -0.8536  1.1493 -0.0629
 2907WAT     H2 8933   4.366   2.147   4.111 -0.3443  0.9660  0.6485
 2908WAT      O 8934   2.367   3.538   1.284 -0.1151 -0.3625 -0.0685
 2908WAT     H1 8935   2.319   3.461   1.313 -1.9530 -0.5763 -3.1591
 2908WAT     H2 8936   2.333   3.609   1.339 -0.3878 -1.3082  1.0163
 2909WAT      O 8937   0.671   3.719   0.862 -0.4236 -0.0958  0.2629
 2909WAT     H1 8938   0.671   3.669   0.780  1.3247 -0.3054  0.3557
 2909WAT     H2 8939   0.669   3.653   0.931 -0.4277  0.0409  0.3941
 2910WAT      O 8940   2.477   1.956   1.409 -0.2118 -0.3847 -0.3105
 2910WAT     H1 8941   2.427   1.924   1.484  2.4521  1.5753  2.5932
 2910WAT     H2 8942   2.414   2.008   1.359 -1.8871 -0.8695  1.1699
 2911WAT      O 8943   1.952   1.616   2.180 -0.5249 -0.3112  0.1552
 2911WAT     H1 8944   1.914   1.576   2.101  1.2876  0.4551 -1.1855
 2911WAT     H2 8945   2.032   1.566   2.195 -0.7319 -0.3006  1.4310
 2912WAT      O 8946   1.333   2.357   0.122 -0.0305  0.2432 -0.2487
 2912WAT     H1 8947   1.322   2.263   0.136 -1.5534  0.4347  0.0849
 2912WAT     H2 8948   1.384   2.363   0.041  0.0134 -0.8742 -0.3256
 2913WAT      O 8949   3.546   4.984   1.262  0.3130 -0.7819  0.4625
 2913WAT     H1 8950   3.610   5.014   1.326  1.4592  1.4631 -1.5748
 2913WAT     H2 8951   3.479   5.053   1.263 -0.0549 -1.1283 -0.1857
 2914WAT      O 8952   3.466   4.909   4.447  0.1995 -0.1390 -0.1062
 2914WAT     H1 8953   3.561   4.916   4.445  0.1068  0.8405 -1.3554
 2914WAT     H2 8954   3.444   4.849   4.375 -0.1979  0.5681 -0.5857
 2915WAT      O 8955   2.517   3.035   3.348  0.5461  0.4118 -0.2330
 2915WAT     H1 8956   2.497   2.981   3.424  0.9589  0.8361  0.1854
 2915WAT     H2 8957   2.497   2.980   3.273 -0.2705  0.1332  0.1797
 2916WAT      O 8958   0.800   2.700   1.358 -0.3289  0.0198 -0.4609
 2916WAT     H1 8959   0.813   2.761   1.286 -0.6049  1.1401  0.4187
 2916WAT     H2 8960   0.752   2.750   1.424  2.5084  0.0216  1.7972
 2917WAT      O 8961   3.004   2.436   3.325  0.1241 -0.6551  0.2813
 2917WAT     H1 8962   2.957   2.476   3.252 -1.1662 -1.2964  0.7243
 2917WAT     H2 8963   3.047   2.360   3.288  1.2715  0.2135 -0.2352
 2918WAT      O 8964   4.330   4.839   4.871  0.5554 -0.4401  0.2490
 2918WAT     H1 8965   4.253   4.782   4.873 -1.0042  1.5710  0.5923
 2918WAT     H2 8966   4.296   4.925   4.893  2.6725  0.8246 -1.1183
 2919WAT      O 8967   0.991   3.787   3.738 -0.1658 -0.3165 -1.0164
 2919WAT     H1 8968   1.026   3.701   3.714  0.0975 -0.7890  0.9136
 2919WAT     H2 8969   0.903   3.768   3.771  0.0073  0.1020 -0.3041
 2920WAT      O 8970   1.325   3.671   1.243 -0.0734 -0.3337  0.1396
 2920WAT     H1 8971   1.251   3.727   1.263 -0.5794 -1.5660  2.0184
 2920WAT     H2 8972   1.341   3.684   1.149 -1.0145  1.8474  0.2340
 2921WAT      O 8973   2.733   3.625   3.885 -0.5786  0.2564  0.3988
 2921WAT     H1 8974   2.807   3.665   3.840 -0.4223 -0.2987  0.1626
 2921WAT     H2 8975   2.718   3.543   3.839  0.7209 -1.2117  2.4455
 2922WAT      O 8976   3.616   2.438   4.484  0.4060 -0.5302  0.1480
 2922WAT     H1 8977   3.586   2.405   4.400  0.1879  0.1133 -0.0277
 2922WAT     H2 8978   3.680   2.505   4.462  1.8539 -1.7285  0.5071
 2923WAT      O 8979   3.294   0.207   4.747 -0.4188  0.2801  0.4493
 2923WAT     H1 8980   3.381   0.223   4.708 -0.5543  0.3571  0.1715
 2923WAT     H2 8981   3.244   0.168   4.675 -1.1241  1.7834  0.0798
 2924WAT      O 8982   2.081   2.306   1.274 -0.1601  0.2785  0.7075
 2924WAT     H1 8983   2.071   2.385   1.221  0.4434  1.3876  2.1332
 2924WAT     H2 8984   2.101   2.340   1.362  1.5915 -1.4619  1.0620
 2925WAT      O 8985   2.710   1.338   3.084 -0.0617  0.8503  0.2310
 2925WAT     H1 8986   2.792   1.326   3.131 -0.9574  0.5564  1.7912
 2925WAT     H2 8987   2.735   1.341   2.991  1.3809 -2.8979  0.3288
 2926WAT      O 8988   2.102   3.156   5.119  0.0847  0.0353  0.2650
 2926WAT     H1 8989   2.065   3.190   5.201  1.7500  0.4608  0.9018
 2926WAT     H2 8990   2.040   3.181   5.051 -1.3839 -0.4032  1.3969
 2927WAT      O 8991   0.097   3.264   3.375  0.4101  0.6484 -0.0043
 2927WAT     H1 8992   0.092   3.245   3.282  0.4463 -2.6427  0.5451
 2927WAT     H2 8993   0.190   3.271   3.393  0.4308  0.6854 -0.1255
 2928WAT      O 8994   0.990   1.346   1.939  0.1438 -0.1618  0.8879
 2928WAT     H1 8995   1.056   1.320   2.003 -0.2419 -1.2763  0.8458
 2928WAT     H2 8996   1.039   1.353   1.857  0.6307  1.2264  1.2669
 2929WAT      O 8997   3.895   0.368   3.697 -0.1609  0.4560 -0.7845
 2929WAT     H1 8998   3.988   0.388   3.692 -0.0971  0.2655 -0.3426
 2929WAT     H2 8999   3.879   0.348   3.789 -0.5185 -0.0974 -0.9612
 2930WAT      O 9000   3.190   0.942   3.449 -0.3205 -0.0677  0.3314
 2930WAT     H1 9001   3.155   1.010   3.392 -0.1746  0.2904  0.6655
 2930WAT     H2 9002   3.180   0.861   3.399  1.5094  0.4513 -0.9950
 2931WAT      O 9003   2.017   1.383   4.489  0.3872 -0.7131  0.5352
 2931WAT     H1 9004   1.935   1.432   4.485  1.0214  0.3473 -0.1232
 2931WAT     H2 9005   2.085   1.450   4.488  1.2662 -1.5698  1.2017
 2932WAT      O 9006   3.444   2.041   5.119 -0.2181 -0.2867  0.1389
 2932WAT     H1 9007   3.471   2.030   5.211 -2.0950  0.5991  0.8568
 2932WAT     H2 9008   3.499   1.981   5.070  0.0995 -1.5938  2.0025
 2933WAT      O 9009   0.814   3.213   3.558 -0.5430  0.0714  0.1829
 2933WAT     H1 9010   0.841   3.298   3.523 -2.4817  0.7012  0.0770
 2933WAT     H2 9011   0.729   3.230   3.599  0.0241 -1.3849  2.1301
 2934WAT      O 9012   0.814   4.684   4.487  0.7110  0.0706 -0.3576
 2934WAT     H1 9013   0.881   4.752   4.478  0.3752  0.7098  1.5579
 2934WAT     H2 9014   0.857   4.616   4.538  0.2335 -0.0113 -0.0688
 2935WAT      O 9015   4.294   3.223   3.777 -0.1180  0.6612 -0.2414
 2935WAT     H1 9016   4.387   3.244   3.783 -0.3308  1.6473 -0.1478
 2935WAT     H2 9017   4.269   3.200   3.866  0.0687  0.2342 -0.2974
 2936WAT      O 9018   2.991   2.068   4.803 -0.1476 -0.4982  0.2488
 2936WAT     H1 9019   2.946   2.136   4.852 -1.7681 -1.0893 -0.3662
 2936WAT     H2 9020   3.080   2.067   4.839 -0.8450  0.1334  2.0800
 2937WAT      O 9021   1.312   2.089   0.110 -0.0592  0.3144 -0.0651
 2937WAT     H1 9022   1.240   2.056   0.056 -0.3745 -1.1826  1.1963
 2937WAT     H2 9023   1.389   2.040   0.080  0.4215  1.7376 -1.2462
 2938WAT      O 9024   1.731   0.434   2.933  0.4017 -0.2276 -0.3331
 2938WAT     H1 9025   1.726   0.510   2.992 -0.1671 -0.7949  0.3854
 2938WAT     H2 9026   1.667   0.373   2.969 -0.7359 -0.1921 -2.1591
 2939WAT      O 9027   2.742   3.409   4.819  0.1580  0.2009 -0.4992
 2939WAT     H1 9028   2.826   3.392   4.861  0.6417  2.4277 -0.4271
 2939WAT     H2 9029   2.678   3.360   4.872  1.1033  0.5888  1.0618
 2940WAT      O 9030   2.234   1.632   4.061 -0.5409  0.0135  0.0767
 2940WAT     H1 9031   2.236   1.690   4.137 -0.8514 -0.2844  0.3114
 2940WAT     H2 9032   2.301   1.668   4.002 -1.4550  1.2594 -0.2595
 2941WAT      O 9033   2.546   3.444   2.373 -0.4423 -0.2904  0.2845
 2941WAT     H1 9034   2.475   3.461   2.435 -0.0435 -3.7764  1.9618
 2941WAT     H2 9035   2.573   3.354   2.392  1.1781 -0.8212 -3.6018
 2942WAT      O 9036   4.284   0.993   0.946  0.1540 -0.0922 -0.1404
 2942WAT     H1 9037   4.207   1.005   1.001 -0.4907 -1.2136 -0.7756
 2942WAT     H2 9038   4.298   0.899   0.942  1.8993  0.1002  0.3966
 2943WAT      O 9039   1.463   3.807   1.560 -0.5958  0.4971 -0.0227
 2943WAT     H1 9040   1.464   3.899   1.585 -1.5134  0.6825 -0.5922
 2943WAT     H2 9041   1.385   3.799   1.505 -0.8288 -0.7310  0.4626
 2944WAT      O 9042   1.364   4.137   5.065 -0.1324  0.0655 -0.4100
 2944WAT     H1 9043   1.449   4.108   5.100  0.4421 -2.0919 -3.2094
 2944WAT     H2 9044   1.386   4.184   4.985 -1.5655  0.1339 -0.7912
 2945WAT      O 9045   4.199   0.601   0.802 -0.4082 -0.1624  0.1570
 2945WAT     H1 9046   4.218   0.507   0.805  0.6118 -0.0099 -0.8055
 2945WAT     H2 9047   4.280   0.643   0.831 -0.3056  0.4475 -0.9529
 2946WAT      O 9048   1.613   1.049   5.150 -0.1555  0.3982 -0.0482
 2946WAT     H1 9049   1.529   1.016   5.183 -0.5743  1.7340  0.2963
 2946WAT     H2 9050   1.588   1.120   5.090  0.7385  1.8823  1.2694
 2947WAT      O 9051   2.499   4.130   2.377 -0.7109  0.1226  0.2075
 2947WAT     H1 9052   2.587   4.115   2.412  0.7407  1.2871 -2.6644
 2947WAT     H2 9053   2.446   4.150   2.454  1.5760 -0.2952  2.0062
 2948WAT      O 9054   3.815   4.516   4.536  0.2175  0.0355  0.0650
 2948WAT     H1 9055   3.762   4.591   4.559 -0.1988  0.0065 -0.7636
 2948WAT     H2 9056   3.897   4.553   4.503 -0.1966  0.1598 -0.8647
 2949WAT      O 9057   3.126   0.798   0.932  0.2580  0.3515  0.2006
 2949WAT     H1 9058   3.109   0.764   1.020  1.6425 -0.3590  0.2223
 2949WAT     H2 9059   3.221   0.791   0.922 -0.0186 -1.2909 -2.0193
 2950WAT      O 9060   4.032   3.488   1.641  0.8147  0.1336 -0.2045
 2950WAT     H1 9061   3.989   3.417   1.688  1.6017 -0.2809 -0.0894
 2950WAT     H2 9062   3.963   3.553   1.626  0.3301 -0.1739  0.6386
 2951WAT      O 9063   2.025   0.448   1.349  0.2668  0.0911 -0.4350
 2951WAT     H1 9064   1.946   0.452   1.403  0.9735 -0.3111  0.6357
 2951WAT     H2 9065   2.050   0.356   1.348  0.3921  0.1187 -1.2845
 2952WAT      O 9066   0.074   3.858   3.845  0.0259  0.2102  0.2160
 2952WAT     H1 9067   0.130   3.870   3.922 -1.3607  0.7903  1.1856
 2952WAT     H2 9068  -0.010   3.830   3.882 -0.7997  0.9269 -1.0679
 2953WAT      O 9069   2.199   4.166   4.556 -0.4798 -0.4078  0.0686
 2953WAT     H1 9070   2.290   4.148   4.581 -0.4241  1.1858  1.1679
 2953WAT     H2 9071   2.199   4.162   4.460  0.7194 -0.5443  0.0600
 2954WAT      O 9072   2.194   0.962   3.386 -0.3058  0.2199 -0.5668
 2954WAT     H1 9073   2.272   1.016   3.398  0.1534 -0.8627  2.1128
 2954WAT     H2 9074   2.227   0.872   3.396 -1.8288 -0.2652  0.3289
 2955WAT      O 9075   2.688   0.933   1.251 -0.2093  0.2227  0.2026
 2955WAT     H1 9076   2.773   0.966   1.224 -0.2791  0.2675  0.0395
 2955WAT     H2 9077   2.625   0.979   1.196 -0.3398  0.1887  0.3209
 2956WAT      O 9078   0.108   3.959   1.861  0.1897 -0.3244 -0.0463
 2956WAT     H1 9079   0.053   3.884   1.837  0.8250 -0.1928 -2.0749
 2956WAT     H2 9080   0.049   4.017   1.910 -0.7045 -1.4637  0.2571
 2957WAT      O 9081   1.732   2.931   2.965 -0.0791 -0.4040  0.0954
 2957WAT     H1 9082   1.729   2.940   3.060 -1.1823 -2.4829  0.3326
 2957WAT     H2 9083   1.683   2.851   2.947 -0.2075  0.1153 -2.2709
 2958WAT      O 9084   0.971   3.349   2.577  0.1486 -0.3663 -0.3804
 2958WAT     H1 9085   0.944   3.266   2.537 -2.7881 -0.9943  2.4697
 2958WAT     H2 9086   0.889   3.394   2.596  1.5985  2.2361  0.1677
 2959WAT      O 9087   0.835   0.681   0.955 -0.1227  0.0190  0.4259
 2959WAT     H1 9088   0.841   0.689   0.859 -0.2737  2.0731  0.5442
 2959WAT     H2 9089   0.818   0.588   0.970 -0.6694 -0.2571 -1.5768
 2960WAT      O 9090   4.220   3.574   3.575 -0.1646 -0.4256 -0.0654
 2960WAT     H1 9091   4.150   3.515   3.547 -0.5358  0.3485 -0.8463
 2960WAT     H2 9092   4.217   3.646   3.511  0.6627  0.1335  0.5030
 2961WAT      O 9093   0.852   3.186   2.802 -0.0686 -0.1747  0.1591
 2961WAT     H1 9094   0.880   3.264   2.753 -0.1669  0.1821  0.6659
 2961WAT     H2 9095   0.805   3.133   2.737  0.8205 -0.2708 -0.4347
 2962WAT      O 9096   4.209   0.137   1.327  0.1192  0.4851  0.1795
 2962WAT     H1 9097   4.233   0.058   1.375  2.6485  1.5830  0.8970
 2962WAT     H2 9098   4.278   0.147   1.261  0.0528  2.2133  0.3164
 2963WAT      O 9099   0.440   4.247   0.205 -0.8397 -0.1074 -0.3321
 2963WAT     H1 9100   0.386   4.267   0.128  0.7295 -0.0126 -1.4726
 2963WAT     H2 9101   0.502   4.181   0.174  1.1308  1.3695  0.2175
 2964WAT      O 9102   0.016   0.057   1.231 -0.1960 -0.2471  0.0866
 2964WAT     H1 9103   0.026  -0.034   1.203 -0.7970 -0.5174  0.7158
 2964WAT     H2 9104   0.056   0.108   1.162 -1.1940 -0.9097 -1.0160
 2965WAT      O 9105   4.468   2.424   4.881  0.0976  0.0156  0.4278
 2965WAT     H1 9106   4.382   2.466   4.874 -1.4580 -3.1096 -5.0811
 2965WAT     H2 9107   4.448   2.332   4.900  2.2780 -0.6165 -0.0549
 2966WAT      O 9108   1.106   4.557   4.648  0.2009 -0.3683 -0.2177
 2966WAT     H1 9109   1.132   4.647   4.671 -2.0637  0.4086 -0.4796
 2966WAT     H2 9110   1.136   4.505   4.723 -0.9462  1.0722  1.3519
 2967WAT      O 9111   4.525   4.758   1.306  0.0679  0.1421 -0.1091
 2967WAT     H1 9112   4.491   4.810   1.378  1.2532  0.3337  0.3279
 2967WAT     H2 9113   4.515   4.667   1.335 -0.5597  0.1715 -0.2178
 2968WAT      O 9114   1.948   4.317   4.175 -0.3202 -0.0727  0.1014
 2968WAT     H1 9115   1.873   4.298   4.118 -0.0618  1.3338 -0.7771
 2968WAT     H2 9116   1.996   4.235   4.180  0.2375 -0.0465 -2.6857
 2969WAT      O 9117   1.731   1.939   4.054 -0.2234 -0.3934  0.3172
 2969WAT     H1 9118   1.709   1.891   3.975 -0.7575  0.0514  0.1885
 2969WAT     H2 9119   1.821   1.913   4.074 -0.2697 -0.9106 -0.1325
 2970WAT      O 9120   2.919   4.435   0.211 -0.0137 -0.7975  0.1201
 2970WAT     H1 9121   2.898   4.441   0.304 -1.1333 -0.4474 -0.1480
 2970WAT     H2 9122   2.902   4.344   0.188 -1.4359 -0.4869 -0.1271
 2971WAT      O 9123   1.962   2.885  -0.025  0.1217 -0.1713 -0.1598
 2971WAT     H1 9124   1.895   2.816  -0.023  0.3033 -0.3401  0.8114
 2971WAT     H2 9125   1.951   2.932   0.058  2.0732 -1.0635  0.6773
 2972WAT      O 9126   3.886   3.451   3.473  0.6510  0.2455 -0.6938
 2972WAT     H1 9127   3.844   3.397   3.406 -0.9158  0.0182  0.4101
 2972WAT     H2 9128   3.959   3.398   3.504 -0.2416 -0.8331 -0.3570
 2973WAT      O 9129   3.789   3.641   1.663 -0.4743 -0.4159  0.4857
 2973WAT     H1 9130   3.793   3.722   1.714  0.2809 -0.3437  0.3209
 2973WAT     H2 9131   3.732   3.662   1.589  0.4502  0.2605 -0.0588
 2974WAT      O 9132   0.876   0.522   0.222  0.3665 -1.1144 -0.0931
 2974WAT     H1 9133   0.890   0.613   0.197  1.8665 -1.4054 -0.4322
 2974WAT     H2 9134   0.866   0.525   0.317 -1.6287 -0.4129 -0.2688
 2975WAT      O 9135   2.736   0.395   4.231 -0.1845  0.5023  0.2641
 2975WAT     H1 9136   2.819   0.385   4.278  0.2704  1.2982 -0.3553
 2975WAT     H2 9137   2.670   0.365   4.293  0.3754  1.8006  1.5269
 2976WAT      O 9138   0.989   5.026   0.652 -0.2679 -0.2478 -0.0452
 2976WAT     H1 9139   0.914   5.084   0.667  1.0339  1.8252 -0.9427
 2976WAT     H2 9140   1.010   4.992   0.739 -2.1712 -0.8501  0.2333
 2977WAT      O 9141   1.008   0.707   3.900  0.0301 -0.3549 -0.1716
 2977WAT     H1 9142   1.027   0.621   3.863 -0.3194 -0.2703 -0.5547
 2977WAT     H2 9143   1.065   0.714   3.977 -0.0743 -0.9974 -0.0364
 2978WAT      O 9144   1.390   1.730   5.229  0.0824  0.3613 -0.8549
 2978WAT     H1 9145   1.433   1.734   5.314  1.4176  0.9144 -1.5344
 2978WAT     H2 9146   1.409   1.642   5.196  1.3817  0.8545 -1.4804
 2979WAT      O 9147   2.813   1.725   2.039  0.2431 -0.2157  0.4680
 2979WAT     H1 9148   2.742   1.663   2.023 -2.6726  2.1110  2.8686
 2979WAT     H2 9149   2.878   1.675   2.089 -1.1423 -1.7661  0.8146
 2980WAT      O 9150   1.837   3.317   1.187 -0.8025  0.0202 -0.2466
 2980WAT     H1 9151   1.841   3.389   1.124  0.6896 -0.4610 -0.7434
 2980WAT     H2 9152   1.898   3.342   1.257 -1.2207 -0.1988  0.2103
 2981WAT      O 9153   0.371   2.721   3.745  0.6116  0.5989 -0.9482
 2981WAT     H1 9154   0.451   2.712   3.694  1.0945  1.2494 -0.3232
 2981WAT     H2 9155   0.308   2.662   3.702  1.5455 -0.2528 -1.1799
 2982WAT      O 9156   2.939   1.291   1.281 -0.1551  0.3002  0.2861
 2982WAT     H1 9157   2.952   1.241   1.200 -2.5759  0.4789 -0.2685
 2982WAT     H2 9158   2.845   1.306   1.286  0.1721  2.2509  1.9906
 2983WAT      O 9159   2.998   5.056   0.206 -0.1459  0.1855  0.2993
 2983WAT     H1 9160   2.976   5.040   0.114  0.5387  1.8938 -0.1941
 2983WAT     H2 9161   2.914   5.073   0.248 -0.4463 -0.4683 -0.0196
 2984WAT      O 9162   1.510   4.738   3.930  0.4388 -0.1574 -0.1482
 2984WAT     H1 9163   1.487   4.662   3.878  0.3403 -0.0530 -0.2563
 2984WAT     H2 9164   1.487   4.813   3.875  2.5875 -0.0346 -0.9750
 2985WAT      O 9165   0.450   3.115   3.195 -0.1845 -0.1210  0.4046
 2985WAT     H1 9166   0.476   3.098   3.285 -1.7279  1.1618  1.1359
 2985WAT     H2 9167   0.428   3.208   3.193  1.8758  0.4509 -1.8437
 2986WAT      O 9168   4.383   1.905   5.290 -0.5089  0.2349  0.7142
 2986WAT     H1 9169   4.352   1.876   5.376  1.0063 -2.7255  0.3850
 2986WAT     H2 9170   4.330   1.856   5.227 -0.5411  1.1781 -0.0145
 2987WAT      O 9171   0.432   4.833   3.086 -0.5347  0.4467  0.4500
 2987WAT     H1 9172   0.414   4.764   3.021  1.0926  1.3572 -1.0554
 2987WAT     H2 9173   0.416   4.914   3.038  1.2154  1.1543  1.0149
 2988WAT      O 9174   0.245   4.660   4.250 -0.9482 -0.1304  0.8490
 2988WAT     H1 9175   0.282   4.678   4.336 -1.1901  0.5958  0.8079
 2988WAT     H2 9176   0.243   4.745   4.206  0.5112 -0.6911 -0.4141
 2989WAT      O 9177   3.453   2.079   4.708 -0.1285  0.2242 -0.2199
 2989WAT     H1 9178   3.360   2.098   4.719 -0.3953 -0.7248 -0.7492
 2989WAT     H2 9179   3.476   2.024   4.783  0.8195  3.0568  1.7201
 2990WAT      O 9180   3.719   3.874   2.099 -0.0773  0.1433 -0.3241
 2990WAT     H1 9181   3.723   3.923   2.181  0.6004  0.1801 -0.3699
 2990WAT     H2 9182   3.649   3.917   2.049 -1.4858 -0.7774  0.7853
 2991WAT      O 9183   0.369   4.045   3.868  0.2941 -0.3351  0.4475
 2991WAT     H1 9184   0.457   4.025   3.903  0.1492  0.1151  1.0960
 2991WAT     H2 9185   0.317   4.063   3.946 -0.1537  0.2838  0.0104
 2992WAT      O 9186   4.081   3.292   3.560  0.1643 -0.6755 -0.4116
 2992WAT     H1 9187   4.128   3.286   3.643  0.4283  0.4855 -0.4581
 2992WAT     H2 9188   4.038   3.207   3.550 -1.1765 -0.3130  1.6957
 2993WAT      O 9189   0.334   4.344   5.285  0.2440 -0.0842 -0.7175
 2993WAT     H1 9190   0.270   4.302   5.227  1.0014 -0.9894 -0.9294
 2993WAT     H2 9191   0.332   4.436   5.260 -1.9914  0.1829  0.2637
 2994WAT      O 9192   1.944   1.393   0.703 -0.0064  0.0655 -0.1374
 2994WAT     H1 9193   1.869   1.407   0.760 -0.8212 -0.9955 -0.9056
 2994WAT     H2 9194   1.915   1.420   0.617  0.5272 -0.2510 -0.4239
 2995WAT      O 9195   0.115   0.089   0.247  0.5748 -0.2150  0.6433
 2995WAT     H1 9196   0.190   0.048   0.204  0.4020  0.3743 -0.2494
 2995WAT     H2 9197   0.061   0.121   0.175 -2.2515 -3.4611  1.0657
 2996WAT      O 9198   1.943   2.973   2.427  0.3057  0.7840  0.2740
 2996WAT     H1 9199   1.945   2.955   2.521 -2.1077 -0.9889  0.0771
 2996WAT     H2 9200   1.865   3.026   2.414 -0.7049 -0.9002 -0.9403
 2997WAT      O 9201   2.213   0.254   3.174 -0.0833 -0.2554  0.2426
 2997WAT     H1 9202   2.275   0.292   3.111 -0.2353 -0.9495 -0.3404
 2997WAT     H2 9203   2.224   0.160   3.164 -2.7697 -0.4981 -1.4733
 2998WAT      O 9204   4.081   2.628   0.001  0.3070  0.0716  0.0595
 2998WAT     H1 9205   4.081   2.541  -0.038  1.1124  0.8220 -1.7559
 2998WAT     H2 9206   3.993   2.637   0.039  0.6399 -1.9717  1.4755
 2999WAT      O 9207   1.528   0.249   1.140  0.3393 -0.5966  0.2628
 2999WAT     H1 9208   1.464   0.253   1.211 -0.2370  2.9051 -0.2958
 2999WAT     H2 9209   1.607   0.289   1.176  1.0113 -1.4217 -0.2410
 3000WAT      O 9210   1.963   3.292  -0.013  0.0334  0.2788  0.2801
 3000WAT     H1 9211   1.933   3.382  -0.022 -0.1653  0.2288  0.4206
 3000WAT     H2 9212   2.035   3.296   0.049  0.4365  0.4252 -0.1939
 3001WAT      O 9213   1.132   1.591   3.165  0.4852  0.0504  0.7047
 3001WAT     H1 9214   1.036   1.589   3.170  0.5152  0.4846  1.6908
 3001WAT     H2 9215   1.159   1.504   3.195  0.4661  0.7970  3.0421
 3002WAT      O 9216   0.474   2.882   4.903 -0.6776 -0.0369  0.1018
 3002WAT     H1 9217   0.478   2.841   4.989 -1.1647  1.2681  0.7689
 3002WAT     H2 9218   0.412   2.829   4.854 -0.6822 -0.5714  0.6668
 3003WAT      O 9219   0.962   4.491   1.379  0.3923 -0.5559  0.0392
 3003WAT     H1 9220   0.954   4.466   1.471 -0.8520  0.4596  0.2393
 3003WAT     H2 9221   0.922   4.578   1.374 -1.1908 -1.3057 -1.7542
 3004WAT      O 9222   0.486   1.886   2.718  0.1882 -0.4639  0.1595
 3004WAT     H1 9223   0.455   1.919   2.633  1.3962 -1.5084 -0.7174
 3004WAT     H2 9224   0.412   1.899   2.776 -1.4316 -1.5659 -1.5308
 3005WAT      O 9225   2.200   1.296   0.705  0.1060  0.0435  0.0196
 3005WAT     H1 9226   2.111   1.331   0.701  0.2457  0.3128 -0.7645
 3005WAT     H2 9227   2.257   1.373   0.709  0.4024 -0.0653 -1.4775
 3006WAT      O 9228   1.579   2.207   1.151  0.1233 -0.1935 -0.0607
 3006WAT     H1 9229   1.542   2.123   1.181 -0.8539 -0.8999 -2.9851
 3006WAT     H2 9230   1.654   2.182   1.097  1.0159  0.9653  0.5961
 3007WAT      O 9231   4.461   0.717   0.921 -0.1329 -0.0086  0.4640
 3007WAT     H1 9232   4.509   0.644   0.960  0.8267  1.3511  1.9632
 3007WAT     H2 9233   4.527   0.762   0.867 -0.3627  0.4917  0.5954
 3008WAT      O 9234   2.358   0.636   2.723 -0.2081  0.1644  0.0670
 3008WAT     H1 9235   2.423   0.601   2.663 -2.2602  1.2279 -3.0015
 3008WAT     H2 9236   2.300   0.561   2.742 -0.9934  0.3732 -1.3945
 3009WAT      O 9237   1.787   5.153   4.884  0.3594  0.6812 -0.2499
 3009WAT     H1 9238   1.740   5.207   4.948 -0.0739 -0.6179  0.5834
 3009WAT     H2 9239   1.719   5.098   4.845  0.7029  1.0985 -1.4785
 3010WAT      O 9240   3.284   3.633   1.039 -0.0146  0.0675  0.1924
 3010WAT     H1 9241   3.206   3.634   0.984 -1.0336 -1.8412  1.4421
 3010WAT     H2 9242   3.315   3.542   1.035  0.5009  0.1282  1.8526
 3011WAT      O 9243   1.514   0.851   3.022 -0.0482  0.4387  0.3188
 3011WAT     H1 9244   1.519   0.911   3.097 -1.3702 -0.7543  1.4283
 3011WAT     H2 9245   1.423   0.821   3.022  0.6244 -1.8202  0.0551
 3012WAT      O 9246   1.418   4.473   1.130 -0.2080  0.2651  0.4372
 3012WAT     H1 9247   1.380   4.452   1.045  0.9482 -0.4082  0.0537
 3012WAT     H2 9248   1.432   4.568   1.127 -1.4877  0.4643  0.4518
 3013WAT      O 9249   2.815   1.137   4.129  0.5926 -0.3438  0.3700
 3013WAT     H1 9250   2.727   1.113   4.157  0.9355 -0.3198  1.4954
 3013WAT     H2 9251   2.805   1.162   4.037 -0.5647 -0.3721  0.4787
 3014WAT      O 9252   2.811   1.105   3.492 -0.2249  0.3738 -0.5582
 3014WAT     H1 9253   2.773   1.028   3.450 -3.9434  0.1484  2.6623
 3014WAT     H2 9254   2.827   1.078   3.582 -1.2998  3.1836  0.5992
 3015WAT      O 9255   0.064   4.413   2.724 -0.1119 -0.5983 -0.5031
 3015WAT     H1 9256   0.060   4.503   2.757 -0.0234 -1.3993  1.9432
 3015WAT     H2 9257   0.151   4.406   2.685 -0.1179  0.3733 -0.7269
 3016WAT      O 9258   2.398   0.363   3.029  0.1659 -0.4784 -0.0600
 3016WAT     H1 9259   2.355   0.449   3.035 -0.2497 -0.7796  1.8045
 3016WAT     H2 9260   2.463   0.374   2.960  1.1116  1.8010  1.1022
 3017WAT      O 9261   3.140   2.387   4.744  0.0697 -0.0486  0.1286
 3017WAT     H1 9262   3.154   2.333   4.667 -0.7078 -0.4982  0.2898
 3017WAT     H2 9263   3.203   2.459   4.735 -0.1870  0.0472 -1.0535
 3018WAT      O 9264   1.950   3.070   3.618 -0.8084 -0.0900  0.2044
 3018WAT     H1 9265   1.907   2.984   3.622 -2.1851  0.5973  2.5321
 3018WAT     H2 9266   2.040   3.053   3.643 -1.0191 -0.8934  0.4629
 3019WAT      O 9267   1.944   2.279   2.064 -0.4945 -0.4656  0.3830
 3019WAT     H1 9268   1.983   2.347   2.009 -1.2515  0.8742  1.4475
 3019WAT     H2 9269   1.970   2.197   2.022  2.8296  0.3466  0.6133
 3020WAT      O 9270   3.264   5.057   2.127 -0.1206  0.3218  0.3422
 3020WAT     H1 9271   3.355   5.063   2.157  0.4706  1.1531 -1.4444
 3020WAT     H2 9272   3.215   5.030   2.204  1.3358  1.8978  1.9131
 3021WAT      O 9273   0.674   3.284   0.257  0.0829  0.3263 -0.2642
 3021WAT     H1 9274   0.685   3.379   0.246  0.4759  0.2125 -0.8915
 3021WAT     H2 9275   0.584   3.274   0.291  0.0665  0.9223 -0.1211
 3022WAT      O 9276   4.209   1.561   2.152 -0.7005  0.1993  0.0353
 3022WAT     H1 9277   4.217   1.473   2.188  0.4669  0.1547 -0.2662
 3022WAT     H2 9278   4.236   1.552   2.060 -0.6252  0.8474 -0.0162
 3023WAT      O 9279   0.520   4.665   4.839 -0.0250  0.4988 -0.1018
 3023WAT     H1 9280   0.487   4.639   4.753  1.2113  1.2611 -0.8288
 3023WAT     H2 9281   0.444   4.702   4.884 -1.0411 -1.2220 -0.2826
 3024WAT      O 9282   3.832   3.360   2.722 -0.2112  0.1172  0.1239
 3024WAT     H1 9283   3.787   3.275   2.718  1.2156 -0.6530 -0.0650
 3024WAT     H2 9284   3.778   3.418   2.668 -0.0926 -1.2129 -1.4728
 3025WAT      O 9285   0.465   2.467   4.759 -0.1736 -0.1591  0.7112
 3025WAT     H1 9286   0.522   2.514   4.698 -1.1180  0.1280  0.0307
 3025WAT     H2 9287   0.501   2.378   4.762 -0.3505 -0.2849 -0.5777
 3026WAT      O 9288   2.068   0.191   2.128 -0.4113  0.5503  0.4468
 3026WAT     H1 9289   2.038   0.139   2.054 -1.1631 -1.7147  2.2236
 3026WAT     H2 9290   2.031   0.278   2.113 -1.1794 -0.0525 -1.4138
 3027WAT      O 9291   3.196   2.607   3.038  0.7042 -0.2391  0.2172
 3027WAT     H1 9292   3.284   2.605   3.001  0.7123  0.2038  0.1995
 3027WAT     H2 9293   3.162   2.519   3.026  1.3151 -0.5312  0.6301
 3028WAT      O 9294   0.333   1.257   1.541  0.3623  0.0608  0.2705
 3028WAT     H1 9295   0.323   1.194   1.469  2.4019  1.1908 -1.0977
 3028WAT     H2 9296   0.350   1.203   1.617 -1.4516 -1.1577 -0.0986
 3029WAT      O 9297   0.564   1.898   3.136 -0.4840 -0.2902 -0.3825
 3029WAT     H1 9298   0.579   1.834   3.066 -0.6244 -0.8106  0.0504
 3029WAT     H2 9299   0.580   1.848   3.216  1.9519  0.8743 -0.0627
 3030WAT      O 9300   1.741   0.458   3.326  0.1119  0.1372 -0.3040
 3030WAT     H1 9301   1.825   0.504   3.331  0.1703  0.1501 -1.2706
 3030WAT     H2 9302   1.691   0.505   3.260 -0.7007  0.1675  0.3073
 3031WAT      O 9303   2.436   3.680   4.785 -0.7553  0.1691  0.0334
 3031WAT     H1 9304   2.490   3.727   4.849 -1.2003  1.3020 -0.3891
 3031WAT     H2 9305   2.478   3.696   4.701 -1.7804  1.1721 -0.3182
 3032WAT      O 9306   4.278   3.077   2.594 -0.1030  0.6446  0.1303
 3032WAT     H1 9307   4.237   3.091   2.509 -0.6572 -1.3591 -0.0032
 3032WAT     H2 9308   4.205   3.059   2.653  0.3950 -1.6017  0.1899
 3033WAT      O 9309   1.750   1.401   1.436  0.3056 -0.1669  0.3807
 3033WAT     H1 9310   1.814   1.463   1.469  2.5302 -0.8188 -2.3783
 3033WAT     H2 9311   1.699   1.450   1.371  1.1887 -0.8140 -0.8409
 3034WAT      O 9312   1.607   4.076   5.197 -0.6725  0.3828  0.1989
 3034WAT     H1 9313   1.678   4.069   5.133 -1.9529  1.4556 -1.4176
 3034WAT     H2 9314   1.633   4.150   5.253 -0.3318  0.5296 -0.1494
 3035WAT      O 9315   2.475   3.856   4.327  0.0524  0.0136 -0.7306
 3035WAT     H1 9316   2.512   3.943   4.312  0.3834 -0.0940 -0.5437
 3035WAT     H2 9317   2.518   3.825   4.406 -0.9813  0.1796 -0.0932
 3036WAT      O 9318   4.443   1.906   4.552  0.1089 -0.4221  0.4227
 3036WAT     H1 9319   4.440   1.979   4.489  0.7603  2.2805  3.2817
 3036WAT     H2 9320   4.532   1.873   4.546  0.7386  1.0475  1.1151
 3037WAT      O 9321   1.354   1.984   5.083  0.4296 -0.5801  0.3287
 3037WAT     H1 9322   1.331   1.909   5.137  0.2943 -1.8606 -1.3947
 3037WAT     H2 9323   1.316   1.964   4.997 -0.1934  1.7891 -0.0432
 3038WAT      O 9324   2.318   0.446   1.415  0.0569 -0.1723  0.1125
 3038WAT     H1 9325   2.284   0.416   1.499 -0.3090 -1.0731 -0.3460
 3038WAT     H2 9326   2.259   0.408   1.350  0.6150  0.1126 -0.5793
 3039WAT      O 9327   3.334   4.086   0.616  0.6945  0.7137 -0.2076
 3039WAT     H1 9328   3.322   4.054   0.527  2.9362  0.8400 -0.6041
 3039WAT     H2 9329   3.270   4.038   0.668 -0.7763  0.7580 -1.8870
 3040WAT      O 9330   2.951   0.364   3.421 -0.2182  0.3029 -0.3636
 3040WAT     H1 9331   2.903   0.446   3.429  1.0263  1.1468 -1.1484
 3040WAT     H2 9332   2.962   0.334   3.511 -1.7510  0.3405 -0.1422
 3041WAT      O 9333   1.960   4.210   5.173  0.3054 -0.2476  0.1391
 3041WAT     H1 9334   1.936   4.246   5.258  0.5321 -1.7323  0.8632
 3041WAT     H2 9335   2.039   4.158   5.190 -0.7131 -2.1484 -0.5501
 3042WAT      O 9336   3.775   1.957   4.713 -0.2166  0.3252 -0.0680
 3042WAT     H1 9337   3.807   1.922   4.630 -2.6855 -1.3542 -0.4302
 3042WAT     H2 9338   3.750   2.047   4.694  0.5854  0.4148 -0.7504
 3043WAT      O 9339   3.445   2.417   0.927  0.0548  0.7847  0.4742
 3043WAT     H1 9340   3.366   2.392   0.974  0.9567 -1.8334  0.7498
 3043WAT     H2 9341   3.444   2.513   0.928 -1.6544  0.8360  2.9041
 3044WAT      O 9342   4.100   0.331   2.519  0.3843  0.3625 -0.0969
 3044WAT     H1 9343   4.082   0.337   2.425 -0.5283  1.0950  0.0982
 3044WAT     H2 9344   4.182   0.282   2.526  0.1375 -0.2358 -1.2395
 3045WAT      O 9345   3.986   2.602   3.781  0.2965 -0.0301  0.3604
 3045WAT     H1 9346   3.946   2.608   3.694  0.3811 -2.1443  0.1338
 3045WAT     H2 9347   4.077   2.627   3.767  0.5828 -1.4253 -0.4046
 3046WAT      O 9348   2.231   3.331   2.182 -0.5930 -0.4323  0.3988
 3046WAT     H1 9349   2.201   3.383   2.256  0.6325  0.4149  0.3216
 3046WAT     H2 9350   2.267   3.251   2.222  1.6318  0.7474  0.9133
 3047WAT      O 9351   3.125   1.621   2.449 -0.4930 -0.1651  0.6392
 3047WAT     H1 9352   3.195   1.567   2.411 -0.0201  0.7098  0.2350
 3047WAT     H2 9353   3.155   1.638   2.539  1.0337  2.1925 -0.2432
 3048WAT      O 9354   3.426   3.613   1.275 -0.0249  0.1346 -0.0504
 3048WAT     H1 9355   3.493   3.547   1.256  1.1875  1.3969 -0.3176
 3048WAT     H2 9356   3.388   3.634   1.190  0.0544  0.2692 -0.0523
 3049WAT      O 9357   4.515   3.757   3.161  0.4419 -0.3862 -0.6000
 3049WAT     H1 9358   4.458   3.766   3.084  0.4191  0.9485 -0.4524
 3049WAT     H2 9359   4.603   3.770   3.128  0.5789 -1.3558 -0.6426
 3050WAT      O 9360   3.866   3.823   0.003  0.5647 -0.2752 -0.0776
 3050WAT     H1 9361   3.834   3.736   0.026 -1.2762  0.3546 -0.0455
 3050WAT     H2 9362   3.960   3.812  -0.011  0.4748 -2.1244  0.5464
 3051WAT      O 9363   3.562   0.255   1.507 -0.1132  0.2024  0.3335
 3051WAT     H1 9364   3.579   0.296   1.592  2.0905  0.6115 -0.2379
 3051WAT     H2 9365   3.612   0.308   1.445 -1.7012 -0.0679 -1.2581
 3052WAT      O 9366   0.347   3.300   0.588 -0.5599  0.3333 -0.2949
 3052WAT     H1 9367   0.431   3.346   0.582 -0.7192  0.5007 -1.4244
 3052WAT     H2 9368   0.337   3.256   0.504  0.3686 -3.2443  1.2888
 3053WAT      O 9369   1.872   0.909   1.129 -0.6107  0.3769 -0.6287
 3053WAT     H1 9370   1.843   0.911   1.220  0.5248 -0.3657 -0.2305
 3053WAT     H2 9371   1.802   0.954   1.081 -0.4948  2.1844  0.7960
 3054WAT      O 9372   0.777   1.515   1.904  0.5670 -0.3537 -0.5203
 3054WAT     H1 9373   0.840   1.443   1.912  0.6462 -0.0851  2.1258
 3054WAT     H2 9374   0.756   1.539   1.994 -0.0826  2.4152 -1.3031
 3055WAT      O 9375   1.116   3.192   0.242 -0.1198  0.3923  0.0234
 3055WAT     H1 9376   1.176   3.166   0.312 -0.8551 -0.3943  0.3921
 3055WAT     H2 9377   1.029   3.177   0.279 -0.5254 -0.1801 -1.1099
 3056WAT      O 9378   3.928   0.333   5.191 -0.5381 -0.3851  0.0596
 3056WAT     H1 9379   3.904   0.280   5.267 -3.1483  0.6345  0.0497
 3056WAT     H2 9380   3.881   0.293   5.118 -1.5145  1.1297 -0.1845
 3057WAT      O 9381   2.434   1.090   3.375  0.4443  0.4642 -0.5082
 3057WAT     H1 9382   2.432   1.121   3.285  1.3517  1.0178 -0.3438
 3057WAT     H2 9383   2.464   1.165   3.426  0.0501  0.1245  0.2484
 3058WAT      O 9384   1.217   0.105   0.676  0.3138  0.5476 -0.0154
 3058WAT     H1 9385   1.188   0.178   0.621 -1.0506 -0.4939 -0.7418
 3058WAT     H2 9386   1.245   0.037   0.614  1.7190  0.4773  0.6508
 3059WAT      O 9387   2.403   3.269   3.415 -0.3256  0.5678 -0.2020
 3059WAT     H1 9388   2.435   3.179   3.420 -0.4208  0.5017 -0.7369
 3059WAT     H2 9389   2.355   3.273   3.333  0.0353  1.2228 -0.3904
 3060WAT      O 9390   1.759   2.855   3.358  0.2392  0.4707 -0.2095
 3060WAT     H1 9391   1.687   2.792   3.372  1.1584 -0.6347 -0.3268
 3060WAT     H2 9392   1.715   2.940   3.351 -1.1393 -0.2673 -1.0731
 3061WAT      O 9393   2.972   5.017   1.443 -0.3866  0.5585  0.0782
 3061WAT     H1 9394   2.924   5.041   1.363 -0.4272 -1.9924 -0.7566
 3061WAT     H2 9395   2.909   4.967   1.494  0.5560 -0.5277  0.2198
 3062WAT      O 9396   1.360   0.453   4.527 -0.2264  0.1651  0.4705
 3062WAT     H1 9397   1.294   0.438   4.596 -0.3689 -0.0097  0.2975
 3062WAT     H2 9398   1.330   0.399   4.454 -0.8744  1.4482 -0.2544
 3063WAT      O 9399   3.385   3.735   3.618  0.5757  0.4448  0.2133
 3063WAT     H1 9400   3.335   3.808   3.583 -0.0267 -1.7440 -4.0652
 3063WAT     H2 9401   3.476   3.754   3.594  0.4328 -0.0748 -0.8015
 3064WAT      O 9402   4.374   2.963   4.408  0.1183 -0.4977  0.4121
 3064WAT     H1 9403   4.286   2.995   4.386 -0.1524 -0.6525  1.2103
 3064WAT     H2 9404   4.371   2.951   4.503  0.8790 -0.8960  0.3917
 3065WAT      O 9405   0.966   4.765   2.564 -0.5161 -0.1356  0.7772
 3065WAT     H1 9406   0.891   4.788   2.509  1.0665  2.3529 -0.4904
 3065WAT     H2 9407   1.025   4.717   2.507 -0.8240 -1.5546  1.6057
 3066WAT      O 9408   0.423   1.786   0.638 -0.1835 -0.8137 -0.4661
 3066WAT     H1 9409   0.433   1.864   0.584 -3.0282  0.2275  0.3247
 3066WAT     H2 9410   0.442   1.815   0.727  0.3201 -1.4359 -0.3658
 3067WAT      O 9411   0.978   2.826   4.829 -0.9009  0.0135 -0.2401
 3067WAT     H1 9412   0.900   2.867   4.869 -1.1099  0.9437 -1.5236
 3067WAT     H2 9413   1.049   2.850   4.888 -1.6992 -1.7597  1.5477
 3068WAT      O 9414   1.724   3.570   4.443  0.1292 -0.0219 -0.2682
 3068WAT     H1 9415   1.817   3.588   4.453  0.1540 -0.9258  1.6481
 3068WAT     H2 9416   1.706   3.584   4.350  2.5137 -1.2763 -1.0040
 3069WAT      O 9417   1.331   3.930   3.512  0.0077 -0.4103 -0.2949
 3069WAT     H1 9418   1.372   3.876   3.580  0.8313 -1.5729 -1.6756
 3069WAT     H2 9419   1.316   3.870   3.439 -3.8177  0.0279 -0.0647
 3070WAT      O 9420   1.628   3.333   2.632 -0.1932 -0.0351  0.3504
 3070WAT     H1 9421   1.626   3.290   2.717 -1.6983 -2.4956 -0.7924
 3070WAT     H2 9422   1.537   3.331   2.602  0.3962  0.0333 -1.6304
 3071WAT      O 9423   3.436   2.187   3.116 -0.4552 -0.1263  0.2365
 3071WAT     H1 9424   3.464   2.120   3.179 -0.8895  0.7381  1.3801
 3071WAT     H2 9425   3.456   2.270   3.159 -0.1614  0.4975 -1.0559
 3072WAT      O 9426   0.204   1.371   3.856  0.2382  0.4185 -0.9348
 3072WAT     H1 9427   0.140   1.303   3.878  0.7561  0.1515 -0.2211
 3072WAT     H2 9428   0.162   1.422   3.787 -0.9435  0.5358 -0.1562
 3073WAT      O 9429   3.761   3.793   3.795 -0.1838 -0.0208  0.3816
 3073WAT     H1 9430   3.854   3.793   3.817 -0.2971  0.6554  0.9060
 3073WAT     H2 9431   3.755   3.841   3.713 -0.1147  0.3086  0.5683
 3074WAT      O 9432   1.467   0.150   3.363  0.7588  0.2570  0.3831
 3074WAT     H1 9433   1.395   0.181   3.418 -0.3625 -0.3339 -0.6956
 3074WAT     H2 9434   1.430   0.150   3.274  2.7542  1.9716 -0.5265
 3075WAT      O 9435   0.208   1.049   0.634  0.4530 -0.0955  0.2228
 3075WAT     H1 9436   0.147   1.030   0.706  1.3032  0.6604  1.1659
 3075WAT     H2 9437   0.244   1.135   0.655  0.2437  0.4416 -1.4707
 3076WAT      O 9438   2.998   3.621   5.153 -0.2713 -0.5187  0.3665
 3076WAT     H1 9439   3.029   3.672   5.078 -1.2264 -0.6035 -0.1095
 3076WAT     H2 9440   2.974   3.536   5.116 -1.4538 -0.3161  0.6086
 3077WAT      O 9441   2.454   0.126   1.707  0.0409 -0.3575  0.5864
 3077WAT     H1 9442   2.493   0.213   1.698 -0.1763 -0.3535 -0.4146
 3077WAT     H2 9443   2.392   0.134   1.779 -2.2883  1.1842 -1.4495
 3078WAT      O 9444   4.052   1.851   1.565 -0.2797  0.0599 -0.0685
 3078WAT     H1 9445   4.142   1.881   1.555  0.3487 -1.2814  1.2325
 3078WAT     H2 9446   4.042   1.784   1.497  0.1206 -0.6690  0.5826
 3079WAT      O 9447   2.994   0.951   2.464 -0.1562 -0.5516 -0.4561
 3079WAT     H1 9448   2.986   0.926   2.372  1.9153  1.3586 -1.2543
 3079WAT     H2 9449   2.951   1.037   2.469  1.2284  0.1481 -0.0892
 3080WAT      O 9450   1.201   2.838   3.580 -0.0538  0.2264 -0.1972
 3080WAT     H1 9451   1.123   2.841   3.636 -0.9327  0.6143 -1.3946
 3080WAT     H2 9452   1.218   2.929   3.557 -0.5581 -0.0210 -1.6602
 3081WAT      O 9453   1.111   0.494   3.822 -0.5948 -0.5914 -1.1256
 3081WAT     H1 9454   1.200   0.460   3.817  0.5245  1.5764  1.4703
 3081WAT     H2 9455   1.066   0.434   3.882  0.8297  1.1877  1.9558
 3082WAT      O 9456   2.406   3.985   2.639  0.0220  0.0765 -0.4679
 3082WAT     H1 9457   2.351   4.058   2.668 -0.1754 -0.2634  0.0142
 3082WAT     H2 9458   2.494   4.023   2.633  0.2426 -0.0492  1.4374
 3083WAT      O 9459   2.656   0.909   3.367 -0.3622  0.1281  0.4379
 3083WAT     H1 9460   2.581   0.965   3.349 -0.4272  0.0346  0.4203
 3083WAT     H2 9461   2.676   0.867   3.284  0.3700  0.9500  0.1809
 3084WAT      O 9462   0.802   2.362   3.090 -0.5632 -0.2538  0.2219
 3084WAT     H1 9463   0.750   2.441   3.106 -0.0406  0.0748  0.3308
 3084WAT     H2 9464   0.750   2.291   3.127 -0.8305  0.0979  0.5276
 3085WAT      O 9465   3.033   5.055   4.407 -0.0206  0.3054 -0.0606
 3085WAT     H1 9466   3.051   4.967   4.374  2.3816  0.7732 -0.1871
 3085WAT     H2 9467   2.962   5.087   4.353 -0.4860 -1.3136 -0.4474
 3086WAT      O 9468   3.523   2.813   3.755  0.2023  0.2737  0.2109
 3086WAT     H1 9469   3.495   2.771   3.673 -1.4494  0.8567  0.4402
 3086WAT     H2 9470   3.489   2.755   3.823  0.2351  0.5930  0.4995
 3087WAT      O 9471   2.209   4.536   1.198 -0.1586  0.2366  0.3836
 3087WAT     H1 9472   2.208   4.623   1.239  0.4197  0.2127  0.4506
 3087WAT     H2 9473   2.301   4.512   1.194 -0.2750 -0.1517 -0.1186
 3088WAT      O 9474   2.689   0.506   0.274 -0.1304  0.1787  0.0802
 3088WAT     H1 9475   2.677   0.443   0.204  0.1802  0.4313 -0.2019
 3088WAT     H2 9476   2.665   0.458   0.354  1.9294 -0.9047  0.1093
 3089WAT      O 9477   1.178   2.051   4.384  0.0231  0.0065 -0.2797
 3089WAT     H1 9478   1.251   2.039   4.323  0.8760  3.3551 -0.1308
 3089WAT     H2 9479   1.110   1.991   4.353  1.9161 -1.4036 -1.9449
 3090WAT      O 9480   0.070   0.714   1.250  0.0975  0.2866  0.2574
 3090WAT     H1 9481   0.155   0.730   1.292  0.2119  1.2981 -0.3334
 3090WAT     H2 9482   0.036   0.801   1.230 -1.1330 -0.1061  0.5722
 3091WAT      O 9483   1.515   4.758   2.350  0.1577  0.1127 -0.0452
 3091WAT     H1 9484   1.467   4.834   2.383  0.9584  0.7630 -0.3169
 3091WAT     H2 9485   1.597   4.758   2.401  0.8862  0.4284 -1.1667
 3092WAT      O 9486   1.845   1.474   0.478 -0.2008 -0.0146  0.3034
 3092WAT     H1 9487   1.854   1.481   0.383  2.0655  0.7115  0.5238
 3092WAT     H2 9488   1.755   1.501   0.495 -0.6724 -0.1922 -1.6238
 3093WAT      O 9489   2.316   2.537   2.495 -0.3006  0.4813 -0.3143
 3093WAT     H1 9490   2.386   2.532   2.429 -1.6192 -0.0112 -1.7400
 3093WAT     H2 9491   2.341   2.472   2.561  0.9605  0.8486 -0.4045
 3094WAT      O 9492   4.170   3.696   1.057  0.8077 -0.2346 -0.4419
 3094WAT     H1 9493   4.264   3.683   1.049  0.7245  0.1860 -3.4845
 3094WAT     H2 9494   4.132   3.611   1.034  0.3897 -0.5094  1.1303
 3095WAT      O 9495   3.135   4.695   1.247 -0.0114 -0.6609 -0.0021
 3095WAT     H1 9496   3.163   4.716   1.336  0.3814 -1.7147  0.1395
 3095WAT     H2 9497   3.039   4.697   1.251  0.0065 -0.4744  0.3844
 3096WAT      O 9498   2.204   0.952   5.049 -0.9895  0.0878 -0.1360
 3096WAT     H1 9499   2.224   0.994   5.133  0.4391  0.8090 -0.7955
 3096WAT     H2 9500   2.123   0.904   5.065 -0.9223  0.4668  1.5631
 3097WAT      O 9501   3.499   2.670   0.908 -0.4424  0.4670  0.0239
 3097WAT     H1 9502   3.567   2.716   0.957 -0.4586  0.6433 -0.1186
 3097WAT     H2 9503   3.523   2.682   0.816  0.0702 -0.5893 -0.0043
 3098WAT      O 9504   0.228   1.693   4.760 -0.0699  0.3714 -0.5747
 3098WAT     H1 9505   0.152   1.644   4.793 -0.0954  0.9204  0.2093
 3098WAT     H2 9506   0.298   1.629   4.757 -0.2542  0.1453 -0.1285
 3099WAT      O 9507   4.023   2.721   3.510  0.2210 -0.4218  0.1674
 3099WAT     H1 9508   4.045   2.683   3.424  0.0149  0.1015 -0.1241
 3099WAT     H2 9509   4.046   2.813   3.501  0.9334 -0.5238  0.9454
 3100WAT      O 9510   0.604   1.280   4.824  0.9049 -0.0219  0.1637
 3100WAT     H1 9511   0.582   1.214   4.890  1.1270 -1.8381 -1.4882
 3100WAT     H2 9512   0.667   1.338   4.867 -0.2848 -0.0779  2.0769
 3101WAT      O 9513   1.020   3.351   2.066 -0.0716 -0.2170  0.3152
 3101WAT     H1 9514   1.088   3.373   2.003 -0.4254  2.0081  0.6286
 3101WAT     H2 9515   1.052   3.272   2.110  0.0058 -2.1075 -2.8459
 3102WAT      O 9516   1.185   1.072   3.477  0.2828 -0.3136  0.4994
 3102WAT     H1 9517   1.184   0.997   3.417  0.6862  0.1883 -0.1573
 3102WAT     H2 9518   1.214   1.036   3.561  1.0530 -0.7946  0.0432
 3103WAT      O 9519   3.232   4.175   5.204 -0.0112 -0.1430  0.3054
 3103WAT     H1 9520   3.207   4.090   5.241 -0.6452  0.6572  1.7778
 3103WAT     H2 9521   3.267   4.224   5.278 -0.6438  1.2603 -0.2920
 3104WAT      O 9522   0.481   4.531   4.601  0.0485 -0.0379 -0.6605
 3104WAT     H1 9523   0.542   4.530   4.527 -1.5823  0.2578 -2.0648
 3104WAT     H2 9524   0.423   4.457   4.585  0.2047 -0.5180  0.8369
 3105WAT      O 9525   3.486   3.963   1.135 -0.2407  0.4091  0.2197
 3105WAT     H1 9526   3.570   4.008   1.140 -0.1865  0.2990  0.3053
 3105WAT     H2 9527   3.497   3.898   1.066 -0.1787  0.2333  0.3963
 3106WAT      O 9528   1.684   4.642   4.944  0.0239  0.0319  0.0972
 3106WAT     H1 9529   1.679   4.737   4.947  0.8920  0.0693  2.1497
 3106WAT     H2 9530   1.767   4.623   4.900 -0.9058  0.1463 -1.7905
 3107WAT      O 9531   2.747   4.968   3.832 -0.3796  0.3156 -0.1605
 3107WAT     H1 9532   2.698   4.954   3.913  0.2401  0.3543  0.2314
 3107WAT     H2 9533   2.686   5.013   3.774 -0.3424  1.7305  0.8421
 3108WAT      O 9534   0.213   3.658   3.733 -0.3874 -0.1477 -0.6616
 3108WAT     H1 9535   0.192   3.740   3.778 -1.4663 -1.5946  1.7037
 3108WAT     H2 9536   0.131   3.633   3.690 -0.2738 -0.3093 -0.7854
 3109WAT      O 9537   4.102   2.337   2.388 -0.2605  0.7555  0.2250
 3109WAT     H1 9538   4.106   2.304   2.299 -1.8484  2.1613 -0.4451
 3109WAT     H2 9539   4.167   2.407   2.391  0.5650 -0.0081  0.5339
 3110WAT      O 9540   3.855   1.931   4.443  0.3376 -0.6381  0.1750
 3110WAT     H1 9541   3.922   1.990   4.476  1.1284  0.1373 -2.5526
 3110WAT     H2 9542   3.784   1.989   4.414  1.2299 -0.8469 -2.7775
 3111WAT      O 9543   3.109   0.372   0.330 -0.2335 -0.3613  0.5109
 3111WAT     H1 9544   3.046   0.440   0.304 -0.5976 -0.6160  0.7170
 3111WAT     H2 9545   3.129   0.327   0.248 -1.3346 -1.1214  0.6371
 3112WAT      O 9546   4.243   2.561   4.883 -0.4855 -0.0089  0.6730
 3112WAT     H1 9547   4.215   2.643   4.842 -2.0358 -1.3895 -1.2194
 3112WAT     H2 9548   4.165   2.526   4.925  0.4220 -0.0233  2.4271
 3113WAT      O 9549   1.154   3.243   0.720  0.0608 -0.3118 -0.5284
 3113WAT     H1 9550   1.162   3.247   0.815  2.0166  0.8664 -0.6873
 3113WAT     H2 9551   1.177   3.331   0.690 -1.0745 -0.4976 -2.0835
 3114WAT      O 9552   0.388   2.368   3.162  0.6438  0.5186 -0.7026
 3114WAT     H1 9553   0.345   2.418   3.232  1.0941 -0.1531  0.0735
 3114WAT     H2 9554   0.369   2.276   3.183  3.3250  0.0868  0.3346
 3115WAT      O 9555   2.773   2.408   2.173  0.1877 -0.5560 -0.0497
 3115WAT     H1 9556   2.832   2.399   2.098  1.0062 -0.9476  0.6176
 3115WAT     H2 9557   2.715   2.332   2.167 -0.7909  0.2411 -1.1451
 3116WAT      O 9558   0.520   3.328   3.958 -0.0915  0.5416  0.0444
 3116WAT     H1 9559   0.443   3.345   4.013 -1.1883  0.0507 -1.2812
 3116WAT     H2 9560   0.552   3.414   3.934 -0.2049  0.7496  0.6167
 3117WAT      O 9561   1.016   3.588   2.781  0.0524 -0.1196  0.2618
 3117WAT     H1 9562   1.101   3.561   2.748  0.5069 -0.7349  1.8710
 3117WAT     H2 9563   0.954   3.563   2.712  0.9661 -1.2874 -0.1572
 3118WAT      O 9564   4.567   0.690   4.635 -0.0952 -0.0733 -0.1723
 3118WAT     H1 9565   4.522   0.645   4.564 -0.9923  1.4494 -0.5989
 3118WAT     H2 9566   4.506   0.686   4.709 -1.7770  3.3613 -1.1935
 3119WAT      O 9567   3.529   0.594   4.617 -0.1147  0.0638  0.8000
 3119WAT     H1 9568   3.451   0.548   4.586  1.1578 -0.1865 -2.3655
 3119WAT     H2 9569   3.599   0.566   4.558  1.6757  2.6867  1.4901
 3120WAT      O 9570   1.115   0.509   2.687  0.0962  0.3593 -0.0652
 3120WAT     H1 9571   1.040   0.568   2.692  0.3346  0.6006  0.7324
 3120WAT     H2 9572   1.077   0.427   2.654 -0.6230  0.3226  0.8042
 3121WAT      O 9573   4.117   1.126   1.526  0.2598 -0.4880 -0.1139
 3121WAT     H1 9574   4.081   1.063   1.464  0.5768 -1.1760  0.3808
 3121WAT     H2 9575   4.135   1.204   1.474  0.8336 -1.1637 -0.9550
 3122WAT      O 9576   3.958   5.071   4.754 -0.0402  0.0048 -0.0107
 3122WAT     H1 9577   3.899   5.006   4.792 -0.7032 -1.2038 -2.8186
 3122WAT     H2 9578   3.966   5.045   4.662  2.7532  1.7223 -0.3669
 3123WAT      O 9579   3.045   1.929   3.635  0.0488  0.0762  0.5682
 3123WAT     H1 9580   3.121   1.946   3.579 -0.1861  0.4640  0.3627
 3123WAT     H2 9581   2.990   1.869   3.584  1.1885 -1.9099  1.5584
 3124WAT      O 9582   0.472   4.865   5.052  0.1317  0.6001 -0.1082
 3124WAT     H1 9583   0.506   4.915   4.978  0.2895 -1.6583 -1.6715
 3124WAT     H2 9584   0.544   4.808   5.077 -0.4169  0.2997  0.8125
 3125WAT      O 9585   0.662   3.293   1.988  0.0305  0.2120 -0.7708
 3125WAT     H1 9586   0.595   3.353   1.954 -1.1366 -0.3205  0.4961
 3125WAT     H2 9587   0.658   3.305   2.083 -0.6798 -2.2837 -0.4083
 3126WAT      O 9588   0.083   2.159   2.742 -0.5740 -0.5909  0.1428
 3126WAT     H1 9589  -0.001   2.157   2.788 -1.4981  0.0447 -1.4460
 3126WAT     H2 9590   0.062   2.136   2.651  0.8890  0.0478 -0.3976
 3127WAT      O 9591   3.665   0.930   3.434 -0.4756 -0.1006  0.4311
 3127WAT     H1 9592   3.628   0.842   3.439  0.9470 -0.9479 -1.9811
 3127WAT     H2 9593   3.741   0.928   3.491 -0.6944 -0.2808  0.7181
 3128WAT      O 9594   3.927   0.844   3.344  0.0305 -0.1158  0.5721
 3128WAT     H1 9595   3.940   0.826   3.251  2.1036  0.3641  0.7080
 3128WAT     H2 9596   3.999   0.903   3.367 -1.4260  1.1776  2.1086
 3129WAT      O 9597   3.672   3.675   0.337 -0.6033  0.1274 -0.0426
 3129WAT     H1 9598   3.595   3.652   0.286 -0.4547 -0.1612 -0.1383
 3129WAT     H2 9599   3.708   3.752   0.293 -0.4598 -0.1373 -0.3922
 3130WAT      O 9600   1.319   4.071   0.233 -0.2631 -0.6535 -0.2931
 3130WAT     H1 9601   1.414   4.077   0.225 -0.2175 -1.8472 -0.7911
 3130WAT     H2 9602   1.304   4.023   0.315 -0.4802  0.4581  0.3453
 3131WAT      O 9603   3.604   1.850   0.823  0.7321 -0.1480  0.3438
 3131WAT     H1 9604   3.553   1.852   0.904  1.0337  2.5030  0.5760
 3131WAT     H2 9605   3.695   1.855   0.853  0.8688  0.1959 -0.1236
 3132WAT      O 9606   4.307   1.187   2.949 -0.0510  0.3132 -0.4120
 3132WAT     H1 9607   4.365   1.226   2.883 -1.2859  0.9643 -1.1308
 3132WAT     H2 9608   4.278   1.261   3.002 -0.2327 -0.0156 -0.0511
 3133WAT      O 9609   1.849   0.481   1.540  0.7151  0.2335 -0.2155
 3133WAT     H1 9610   1.827   0.431   1.618  0.3410 -0.8753 -1.0031
 3133WAT     H2 9611   1.779   0.547   1.534 -0.7963 -1.3526 -1.0322
 3134WAT      O 9612   1.260   4.104   1.784  0.0790 -0.1153 -0.3279
 3134WAT     H1 9613   1.292   4.183   1.828 -0.4992  0.2104 -0.4843
 3134WAT     H2 9614   1.305   4.032   1.829  0.2145  0.2683  0.1638
 3135WAT      O 9615   4.276   2.120   3.419 -0.4180 -0.1380  0.0706
 3135WAT     H1 9616   4.301   2.053   3.355 -2.3709  0.3705 -1.3462
 3135WAT     H2 9617   4.215   2.075   3.477 -0.8589  0.1128 -0.1940
 3136WAT      O 9618   3.382   3.371   0.990 -0.0289 -0.6565  0.0272
 3136WAT     H1 9619   3.412   3.351   0.901 -1.7858 -3.4250 -0.0711
 3136WAT     H2 9620   3.454   3.342   1.045  1.3166  1.6074 -0.4298
 3137WAT      O 9621   3.517   3.590   3.991  0.2757 -0.3002  0.0273
 3137WAT     H1 9622   3.424   3.569   4.005  0.4057  0.4478  2.4922
 3137WAT     H2 9623   3.519   3.685   3.982  0.8766 -0.2153  0.9398
 3138WAT      O 9624   0.502   2.815   1.082  0.0806  0.0160  0.0674
 3138WAT     H1 9625   0.484   2.831   0.989  0.0253  2.4736  0.4398
 3138WAT     H2 9626   0.513   2.720   1.088  2.1290 -0.0522 -2.8074
 3139WAT      O 9627   0.947   3.637   0.519 -0.3699  0.5039  0.0362
 3139WAT     H1 9628   0.996   3.604   0.443 -2.3685 -0.1066 -1.0779
 3139WAT     H2 9629   0.960   3.732   0.516  1.2283  0.3198  0.1747
 3140WAT      O 9630   1.024   0.046   4.632  0.2957 -0.0145 -0.0112
 3140WAT     H1 9631   1.110   0.006   4.628 -0.1348 -1.0450  0.6536
 3140WAT     H2 9632   1.012   0.070   4.724  0.7563  2.1876 -0.4675
 3141WAT      O 9633   1.290   3.193   2.896  0.1024 -0.2949 -0.0362
 3141WAT     H1 9634   1.274   3.284   2.870 -0.0737  0.2031  1.6790
 3141WAT     H2 9635   1.210   3.168   2.943  0.6083 -0.9679  0.4759
 3142WAT      O 9636   2.523   0.438   1.155  0.0705  0.1544 -0.0358
 3142WAT     H1 9637   2.430   0.457   1.146  0.0654  0.3674  0.4355
 3142WAT     H2 9638   2.557   0.510   1.208  0.4754  0.0007 -0.0822
 3143WAT      O 9639   0.547   1.070   4.998  0.0507 -0.1196 -0.0049
 3143WAT     H1 9640   0.532   1.119   5.079 -0.8366 -1.0202  0.3840
 3143WAT     H2 9641   0.498   0.989   5.008  0.6789 -0.6642 -1.0669
 3144WAT      O 9642   3.166   1.222   1.516  0.2807  0.2085 -0.1363
 3144WAT     H1 9643   3.156   1.127   1.506 -0.8662 -0.0297  2.4397
 3144WAT     H2 9644   3.093   1.259   1.466  1.6078 -0.0892 -2.4478
 3145WAT      O 9645   3.365   3.134   0.703 -0.0654  0.0003 -0.1344
 3145WAT     H1 9646   3.414   3.214   0.719  0.4181 -0.3639  0.2444
 3145WAT     H2 9647   3.273   3.161   0.704  0.1282  0.8188 -1.5443
 3146WAT      O 9648   0.190   0.049   0.736 -0.5843  0.2291  0.2201
 3146WAT     H1 9649   0.167   0.092   0.654 -1.7177  0.4013  0.6116
 3146WAT     H2 9650   0.266  -0.005   0.714  0.6396  2.1132 -0.3625
 3147WAT      O 9651   0.729   0.461   3.402  0.2528  0.1247  0.5756
 3147WAT     H1 9652   0.816   0.438   3.367 -0.2935  1.2107 -1.6910
 3147WAT     H2 9653   0.676   0.478   3.324 -2.7724 -2.9512  1.7249
 3148WAT      O 9654   3.982   1.117   4.531 -0.9973  0.6286 -0.4197
 3148WAT     H1 9655   3.935   1.038   4.503  0.2730 -0.5142  0.5188
 3148WAT     H2 9656   4.029   1.145   4.454 -2.0673  0.9499 -0.9790
 3149WAT      O 9657   2.596   1.142   0.545  0.4673  0.1366  0.2188
 3149WAT     H1 9658   2.657   1.143   0.471  0.3425  1.8913  0.0849
 3149WAT     H2 9659   2.637   1.084   0.609  1.6286  0.2464 -0.3936
 3150WAT      O 9660   2.925   3.211   3.742  0.5753 -0.8196 -0.2311
 3150WAT     H1 9661   3.016   3.241   3.748 -0.3251  2.2223 -0.1445
 3150WAT     H2 9662   2.905   3.215   3.649  0.3408 -0.8102 -0.1800
 3151WAT      O 9663   2.898   4.637   0.042 -0.0322  0.0570  0.6149
 3151WAT     H1 9664   2.815   4.680   0.063 -1.3564 -1.5464 -0.9663
 3151WAT     H2 9665   2.912   4.576   0.115 -0.7947 -0.3548  0.4352
 3152WAT      O 9666   0.507   2.676   4.203  0.1213  0.2626 -0.5991
 3152WAT     H1 9667   0.459   2.646   4.125 -0.6496 -0.1933  0.0368
 3152WAT     H2 9668   0.444   2.669   4.274  0.7078  1.0383  0.0106
 3153WAT      O 9669   4.183   1.040   0.543  0.2290  0.0837  0.0005
 3153WAT     H1 9670   4.167   1.098   0.618  1.7203 -0.3682  0.7140
 3153WAT     H2 9671   4.161   0.952   0.576  0.4480 -0.0621 -0.2327
 3154WAT      O 9672   2.057   4.046   0.427 -0.4324  0.1773 -0.3304
 3154WAT     H1 9673   2.070   4.110   0.497 -2.3613 -2.1557  2.4435
 3154WAT     H2 9674   2.135   3.990   0.431 -0.7532 -0.2381  0.3581
 3155WAT      O 9675   0.331   3.719   1.670  0.7518  0.1264 -0.2820
 3155WAT     H1 9676   0.360   3.765   1.591  1.4932  1.0476  0.4936
 3155WAT     H2 9677   0.378   3.763   1.741 -2.2302  1.4202  1.0501
 3156WAT      O 9678   2.503   1.613   0.519  0.4969 -0.5191  0.5279
 3156WAT     H1 9679   2.507   1.619   0.423  0.7499  0.7300  0.5946
 3156WAT     H2 9680   2.583   1.566   0.543 -0.6057 -2.8031  0.0313
 3157WAT      O 9681   2.204   2.136   0.892  0.4932  0.4899  0.1914
 3157WAT     H1 9682   2.189   2.063   0.831 -0.1389  1.7873 -1.2591
 3157WAT     H2 9683   2.116   2.170   0.910  0.9085  2.5131 -1.2470
 3158WAT      O 9684   3.128   1.048   0.424  0.4045 -0.0399  0.6304
 3158WAT     H1 9685   3.090   1.078   0.507  1.7338  0.7927  0.9775
 3158WAT     H2 9686   3.195   0.984   0.451  1.0448  0.4491  0.2394
 3159WAT      O 9687   0.151   1.291   4.660 -0.4809 -0.5018  0.2459
 3159WAT     H1 9688   0.144   1.335   4.744  0.0605  0.1865 -0.0520
 3159WAT     H2 9689   0.062   1.287   4.627 -0.5958 -0.0570  0.4974
 3160WAT      O 9690   2.866   1.501   2.638 -0.1784  0.1178  0.3136
 3160WAT     H1 9691   2.853   1.580   2.690 -1.5451 -0.0079  0.2042
 3160WAT     H2 9692   2.827   1.522   2.553  0.2168 -0.3852  0.0004
 3161WAT      O 9693   1.836   1.812   0.195 -0.3791 -0.2926 -0.1853
 3161WAT     H1 9694   1.925   1.777   0.196 -0.8674 -1.5750  0.2354
 3161WAT     H2 9695   1.820   1.837   0.286 -1.1012 -1.8319  0.1328
 3162WAT      O 9696   0.090   0.633   2.898 -0.3122 -0.0206  0.5233
 3162WAT     H1 9697   0.046   0.589   2.825 -0.4971  0.9382  0.0424
 3162WAT     H2 9698   0.107   0.563   2.961 -1.4852 -0.6069  0.2148
 3163WAT      O 9699   0.182   0.588   4.262  0.1728  0.4509 -0.2241
 3163WAT     H1 9700   0.229   0.671   4.254  0.6982  0.0590 -1.2499
 3163WAT     H2 9701   0.207   0.538   4.185  0.1228 -0.8110  0.5511
 3164WAT      O 9702   0.286   2.473   1.684 -0.0374 -0.3561  0.5367
 3164WAT     H1 9703   0.272   2.560   1.648  0.1035 -0.0782  1.1448
 3164WAT     H2 9704   0.235   2.415   1.628  0.3419  0.0412 -0.2271
 3165WAT      O 9705   3.418   1.326   3.392 -0.4435  0.0156 -0.4329
 3165WAT     H1 9706   3.400   1.240   3.430  1.8631  0.2543  1.3897
 3165WAT     H2 9707   3.496   1.312   3.338  0.2290  1.0279  0.2466
 3166WAT      O 9708   3.171   0.733   1.254 -0.2271  0.2861 -0.7531
 3166WAT     H1 9709   3.094   0.678   1.241 -0.4724  0.7451 -1.2816
 3166WAT     H2 9710   3.245   0.674   1.244 -0.5038 -0.1808 -0.1559
 3167WAT      O 9711   3.372   2.337   1.290 -0.0185 -0.3506  0.2128
 3167WAT     H1 9712   3.401   2.389   1.365 -0.2734  1.6102 -0.9679
 3167WAT     H2 9713   3.448   2.283   1.268  0.6806  0.3475  0.8177
 3168WAT      O 9714   2.961   3.667   2.574  0.3529  0.5862 -0.1074
 3168WAT     H1 9715   2.931   3.723   2.646 -0.7194  1.0874 -0.9216
 3168WAT     H2 9716   2.912   3.585   2.586  0.1153  0.6983 -0.3070
 3169WAT      O 9717   1.252   0.385   5.198 -0.2903 -0.2433  0.1378
 3169WAT     H1 9718   1.195   0.311   5.177 -1.0742  0.4556 -0.2525
 3169WAT     H2 9719   1.250   0.439   5.119 -0.3558  0.5932  0.7049
 3170WAT      O 9720   0.218   1.033   2.183 -0.0872 -0.3612  0.1882
 3170WAT     H1 9721   0.305   0.998   2.168  0.4477  0.6342  0.8970
 3170WAT     H2 9722   0.164   0.956   2.202  0.7854 -0.9155  0.4569
 3171WAT      O 9723   1.513   4.740   3.245 -0.2549 -0.0845  0.4132
 3171WAT     H1 9724   1.562   4.744   3.162  0.4315 -1.4519  0.7311
 3171WAT     H2 9725   1.554   4.806   3.300 -0.3468  0.4398 -0.1231
 3172WAT      O 9726   4.039   4.200   5.281 -0.4336  0.1495  0.6465
 3172WAT     H1 9727   4.056   4.236   5.368  0.5617  0.7843  0.1935
 3172WAT     H2 9728   4.123   4.165   5.252 -0.4279  1.1339 -0.5997
 3173WAT      O 9729   0.879   1.982   4.319  0.3070  0.3177 -0.0117
 3173WAT     H1 9730   0.792   1.952   4.345 -1.0083  1.1054 -3.0090
 3173WAT     H2 9731   0.872   2.078   4.320 -0.1903  0.4571 -3.7041
 3174WAT      O 9732   1.932   1.027   3.988 -0.7987  0.7070 -0.2539
 3174WAT     H1 9733   2.004   1.089   3.998 -0.3997  0.7896 -2.9260
 3174WAT     H2 9734   1.858   1.070   4.030 -0.1241  2.2858 -0.5975
 3175WAT      O 9735   3.662   0.082   4.759  0.8326 -0.5339  0.1270
 3175WAT     H1 9736   3.722   0.021   4.715  1.0340  0.5639 -1.1740
 3175WAT     H2 9737   3.591   0.095   4.697 -0.7756 -1.7424  1.6114
 3176WAT      O 9738   2.285   3.280   3.655  0.3103  0.4431  0.5871
 3176WAT     H1 9739   2.326   3.294   3.570  2.9566  0.8330  1.8202
 3176WAT     H2 9740   2.207   3.335   3.653  0.2526  0.3716 -1.5966
 3177WAT      O 9741   0.908   0.878   2.067  0.5099 -0.6797 -0.4299
 3177WAT     H1 9742   0.966   0.944   2.106 -0.3910  0.2651 -0.6280
 3177WAT     H2 9743   0.883   0.916   1.983 -0.7571 -0.8407 -0.1431
 3178WAT      O 9744   3.458   4.325   1.684  0.2931  0.4415 -0.0382
 3178WAT     H1 9745   3.471   4.362   1.597  2.2608 -0.7243 -0.2909
 3178WAT     H2 9746   3.506   4.242   1.683  2.1185  1.3070  2.7470
 3179WAT      O 9747   1.361   0.292   2.620 -0.3594 -0.1095 -0.0303
 3179WAT     H1 9748   1.361   0.201   2.648 -0.3594 -0.4983 -1.2407
 3179WAT     H2 9749   1.298   0.295   2.549  0.9536  0.4307 -1.2228
 3180WAT      O 9750   1.807   5.130   2.794  0.3823  0.3062 -0.9931
 3180WAT     H1 9751   1.872   5.078   2.746  0.6110 -0.1636 -0.1971
 3180WAT     H2 9752   1.857   5.171   2.865 -0.6637 -2.7009  1.7204
 3181WAT      O 9753   4.281   4.175   1.392 -0.1820 -0.2419  0.0426
 3181WAT     H1 9754   4.319   4.183   1.480  0.6065 -3.0087  0.0496
 3181WAT     H2 9755   4.248   4.085   1.388 -0.5139 -0.0827 -2.3938
 3182WAT      O 9756   2.361   0.164   2.800  0.1690  0.2846 -0.0962
 3182WAT     H1 9757   2.328   0.246   2.836 -1.9186 -0.1115 -0.9549
 3182WAT     H2 9758   2.284   0.121   2.764  1.6847 -0.6422 -2.4783
 3183WAT      O 9759   0.165   2.413   3.359  0.0116 -0.2657 -0.5652
 3183WAT     H1 9760   0.095   2.348   3.353  1.8308 -2.2242 -3.1349
 3183WAT     H2 9761   0.188   2.416   3.452 -1.0553 -2.3193 -0.1944
 3184WAT      O 9762   4.476   3.742   1.882  0.5537  0.2258  0.1309
 3184WAT     H1 9763   4.488   3.682   1.809  1.3528  2.0346 -1.3229
 3184WAT     H2 9764   4.381   3.758   1.884  0.4801 -0.1359 -0.2534
 3185WAT      O 9765   1.372   2.941   5.265 -0.2886 -0.2020 -0.3974
 3185WAT     H1 9766   1.318   3.019   5.274  0.1854 -0.0604  1.7870
 3185WAT     H2 9767   1.318   2.869   5.297  1.2431  0.2035  3.7185
 3186WAT      O 9768   2.841   0.421   0.809  0.7731 -0.2990 -0.3679
 3186WAT     H1 9769   2.849   0.508   0.771 -0.3495  0.0403  0.1551
 3186WAT     H2 9770   2.852   0.362   0.735  2.3686  0.2359 -0.6083
 3187WAT      O 9771   2.314   1.505   2.351 -0.3735  0.0516 -0.2134
 3187WAT     H1 9772   2.367   1.433   2.386 -1.2331  0.2312  1.5440
 3187WAT     H2 9773   2.289   1.476   2.263 -0.6880 -1.7923  0.4466
 3188WAT      O 9774   1.063   2.039   0.379  0.6260  0.3277 -0.0140
 3188WAT     H1 9775   1.009   2.010   0.305  0.3241  1.6305 -0.3314
 3188WAT     H2 9776   1.103   2.121   0.348  2.1368 -0.1885  0.5236
 3189WAT      O 9777   0.878   2.721   4.389  0.1362  0.4961  0.2727
 3189WAT     H1 9778   0.851   2.808   4.362  0.6453  0.6370  0.1933
 3189WAT     H2 9779   0.939   2.736   4.461 -0.6942  0.1469  1.0655
 3190WAT      O 9780   2.646   4.741   3.966 -0.6672 -0.6373 -0.2086
 3190WAT     H1 9781   2.658   4.741   3.871 -2.1999  1.6125 -0.4505
 3190WAT     H2 9782   2.560   4.702   3.980 -1.0590  0.3504  0.1564
 3191WAT      O 9783   4.207   1.269   1.168 -0.3826  0.3226 -0.1718
 3191WAT     H1 9784   4.173   1.193   1.119 -0.1175 -1.3184  2.0228
 3191WAT     H2 9785   4.261   1.316   1.104 -1.4262 -0.6984 -1.9148
 3192WAT      O 9786   1.473   0.656   2.144  0.0576  0.3776 -0.2149
 3192WAT     H1 9787   1.456   0.568   2.111 -0.8651  0.7124 -0.6491
 3192WAT     H2 9788   1.491   0.708   2.066 -0.6187  0.8400 -0.0725
 3193WAT      O 9789   3.608   3.363   3.216  0.4468 -0.1632 -1.0792
 3193WAT     H1 9790   3.572   3.390   3.131  1.3269  0.7721 -1.1738
 3193WAT     H2 9791   3.701   3.346   3.198  0.7922  0.6920 -0.1766
 3194WAT      O 9792   0.252   0.492   1.828 -0.0606  0.1854  0.1656
 3194WAT     H1 9793   0.317   0.455   1.768  0.4233 -0.0167  0.8060
 3194WAT     H2 9794   0.170   0.450   1.803  0.3402 -0.7538  0.3713
 3195WAT      O 9795   2.441   0.532   4.690  0.2881  0.6136 -0.2104
 3195WAT     H1 9796   2.461   0.439   4.702  2.6710  0.9638 -0.9230
 3195WAT     H2 9797   2.412   0.561   4.776  2.4541 -0.1805  0.8832
 3196WAT      O 9798   0.511   0.006   3.347  0.1232 -0.3670 -0.1976
 3196WAT     H1 9799   0.561  -0.069   3.314  0.3108 -0.5893  0.5699
 3196WAT     H2 9800   0.561   0.083   3.317  0.9794 -0.5865  0.6185
 3197WAT      O 9801   0.779   1.722   4.535 -0.5490  0.1117 -0.0300
 3197WAT     H1 9802   0.761   1.794   4.475 -1.7203 -0.4389 -0.3533
 3197WAT     H2 9803   0.696   1.706   4.580  0.8265  2.2399  3.7085
 3198WAT      O 9804   1.805   0.439   5.297 -0.3983 -0.1564 -0.4223
 3198WAT     H1 9805   1.794   0.415   5.205 -1.3159 -0.1159 -0.3319
 3198WAT     H2 9806   1.724   0.486   5.319  0.5183  1.3016 -0.0544
 3199WAT      O 9807   1.548   1.565   1.295  0.3021 -0.4468  0.6808
 3199WAT     H1 9808   1.495   1.609   1.361 -0.4953 -0.4085  0.0326
 3199WAT     H2 9809   1.610   1.631   1.265 -3.2363  1.6753 -3.0037
 3200WAT      O 9810   2.293   3.167   1.724  0.2050  0.1561 -0.0420
 3200WAT     H1 9811   2.385   3.193   1.720  0.8830 -1.8967  0.7011
 3200WAT     H2 9812   2.255   3.225   1.789  1.4248 -0.1107  0.9503
 3201WAT      O 9813   3.782   3.755   0.847 -0.1313  0.4874 -0.3468
 3201WAT     H1 9814   3.697   3.797   0.863 -0.6013  0.2223 -1.9761
 3201WAT     H2 9815   3.775   3.718   0.759  1.1906 -0.7763  0.0306
 3202WAT      O 9816   0.629   1.394   0.197 -0.2296 -0.6855 -0.6793
 3202WAT     H1 9817   0.651   1.417   0.288  0.3418 -1.5081 -0.6070
 3202WAT     H2 9818   0.538   1.425   0.187  0.6669  2.2497 -0.8185
 3203WAT      O 9819   1.229   3.499   3.482 -0.3450  0.2637  0.5331
 3203WAT     H1 9820   1.233   3.585   3.440 -3.9012  0.2544 -0.1349
 3203WAT     H2 9821   1.237   3.437   3.409 -0.5980  0.1022  0.6435
 3204WAT      O 9822   1.876   3.966   1.657 -0.3361 -0.0538  0.4254
 3204WAT     H1 9823   1.881   3.899   1.589 -0.3774  0.2597  0.1075
 3204WAT     H2 9824   1.882   3.918   1.739  1.8407 -0.2694  0.1975
 3205WAT      O 9825   2.887   2.222   2.898  0.5596  0.1425  0.5313
 3205WAT     H1 9826   2.897   2.127   2.910  1.2711 -0.0610 -1.3345
 3205WAT     H2 9827   2.796   2.240   2.920  0.8734 -0.6356  2.7078
 3206WAT      O 9828   1.992   3.320   2.885 -0.2459  0.0974 -0.0041
 3206WAT     H1 9829   2.033   3.235   2.901 -1.5284 -0.1794  2.2331
 3206WAT     H2 9830   2.065   3.382   2.888  0.6160 -0.8199 -1.0047
 3207WAT      O 9831   0.350   2.078   2.552  0.0940  0.5498 -0.3431
 3207WAT     H1 9832   0.439   2.106   2.528  1.8380 -0.3437  4.0514
 3207WAT     H2 9833   0.302   2.159   2.567  2.1641  1.3610  3.0055
 3208WAT      O 9834   1.778   2.495   3.280  0.7198  0.0224 -0.3066
 3208WAT     H1 9835   1.782   2.422   3.341  2.2913  1.5621  1.5682
 3208WAT     H2 9836   1.729   2.563   3.326  0.2760  0.5898 -1.5536
 3209WAT      O 9837   0.178   3.499   4.733  0.2793  0.4854 -0.3533
 3209WAT     H1 9838   0.149   3.476   4.821  0.4329  0.2540 -0.3607
 3209WAT     H2 9839   0.273   3.491   4.736  0.1665 -3.1737 -1.4977
 3210WAT      O 9840   3.705   1.567   0.517 -0.2805 -0.2415 -0.2547
 3210WAT     H1 9841   3.695   1.472   0.520  0.6760 -0.3867 -0.9813
 3210WAT     H2 9842   3.760   1.582   0.440 -1.3569  0.9869 -0.8250
 3211WAT      O 9843   0.951   4.877   1.941 -0.0388  0.0776 -0.5385
 3211WAT     H1 9844   0.915   4.820   1.873 -1.2501 -0.5934  0.6075
 3211WAT     H2 9845   0.897   4.955   1.938 -1.1413 -0.5930  0.6377
 3212WAT      O 9846   0.644   1.588   5.069 -0.5508 -0.0516 -0.3768
 3212WAT     H1 9847   0.709   1.625   5.129  0.2582  0.6080 -1.6141
 3212WAT     H2 9848   0.689   1.515   5.027 -2.1214 -2.6368  2.0304
 3213WAT      O 9849   2.679   4.192   3.742  0.0569  0.0211 -0.5094
 3213WAT     H1 9850   2.758   4.212   3.792 -0.3375  0.2003  0.0576
 3213WAT     H2 9851   2.626   4.139   3.801 -0.4276  0.2583 -0.7223
 3214WAT      O 9852   4.055   4.515   0.069  0.2525  0.0785 -0.3632
 3214WAT     H1 9853   3.962   4.516   0.093  0.7297  3.6596  2.1931
 3214WAT     H2 9854   4.098   4.479   0.147  1.1474  0.4217 -0.6948
 3215WAT      O 9855   0.432   0.794   0.337  0.1072 -0.3067  0.1269
 3215WAT     H1 9856   0.412   0.887   0.343  1.3019  0.0184 -0.5181
 3215WAT     H2 9857   0.393   0.767   0.254  0.4336 -0.1813 -0.0722
 3216WAT      O 9858   0.289   5.002   3.497 -0.0434 -0.1310  0.6490
 3216WAT     H1 9859   0.326   4.917   3.473  1.1596  0.2093  1.2370
 3216WAT     H2 9860   0.357   5.065   3.474 -1.0413  0.7190 -0.0628
 3217WAT      O 9861   1.898   4.117   0.694  0.0727  0.2282 -0.3450
 3217WAT     H1 9862   1.949   4.197   0.706  1.5465 -0.5350 -1.1610
 3217WAT     H2 9863   1.841   4.136   0.620  0.5201  0.4892 -0.6304
 3218WAT      O 9864   1.404   0.859   1.137 -0.2472 -0.2942  0.3280
 3218WAT     H1 9865   1.468   0.926   1.161 -0.6410  0.0812  0.3517
 3218WAT     H2 9866   1.452   0.799   1.080  0.8028 -1.3669  2.2321
 3219WAT      O 9867   2.174   2.335   3.539  0.6561  0.4559 -0.1429
 3219WAT     H1 9868   2.194   2.242   3.552 -0.6411  0.2399  0.4414
 3219WAT     H2 9869   2.161   2.344   3.444  0.2299 -0.0838 -0.1403
 3220WAT      O 9870   2.043   0.213   0.229 -0.0736  0.4045  0.1225
 3220WAT     H1 9871   2.033   0.118   0.234 -0.0641  0.3415 -0.8416
 3220WAT     H2 9872   1.953   0.247   0.228 -0.0956  0.5171  1.7772
 3221WAT      O 9873   3.618   1.768   4.304 -0.1813 -0.1499 -0.0265
 3221WAT     H1 9874   3.668   1.848   4.287  0.9267 -0.7430  0.3313
 3221WAT     H2 9875   3.539   1.797   4.349  0.4871  0.6978  0.6254
 3222WAT      O 9876   1.151   2.128   3.122  0.1177 -0.3268 -0.4432
 3222WAT     H1 9877   1.148   2.132   3.026  0.2589 -0.0327 -0.4358
 3222WAT     H2 9878   1.242   2.108   3.142 -0.1359 -1.4925 -0.4054
 3223WAT      O 9879   2.752   2.392   4.084  0.2515  0.1920  0.1652
 3223WAT     H1 9880   2.686   2.421   4.147 -1.5046 -1.1838 -0.9369
 3223WAT     H2 9881   2.752   2.459   4.016  0.7607  0.7116  0.6676
 3224WAT      O 9882   2.900   4.204   1.373 -0.3580  0.1533  0.2538
 3224WAT     H1 9883   2.957   4.279   1.386  0.1154  0.3316 -2.3406
 3224WAT     H2 9884   2.812   4.241   1.370 -0.2379  0.4374  0.2165
 3225WAT      O 9885   3.153   0.130   0.153  0.0758 -0.2061  0.4593
 3225WAT     H1 9886   3.229   0.096   0.106  0.8634 -1.1820  2.3620
 3225WAT     H2 9887   3.098   0.053   0.169 -1.1881  0.4377 -0.6067
 3226WAT      O 9888   2.063   0.141   3.586  0.9742 -0.7897 -0.2387
 3226WAT     H1 9889   2.041   0.048   3.582  0.4962 -0.6813 -0.1477
 3226WAT     H2 9890   2.057   0.163   3.678  3.5080 -1.2391  0.1073
 3227WAT      O 9891   3.064   1.151   1.812  0.5306 -0.2572 -0.2497
 3227WAT     H1 9892   3.108   1.234   1.796  1.6099 -0.5047  1.1428
 3227WAT     H2 9893   3.091   1.095   1.739 -0.0683  0.5449 -1.1058
 3228WAT      O 9894   0.984   0.250   2.636 -0.4010 -0.1878  0.0665
 3228WAT     H1 9895   0.888   0.245   2.637 -0.4957 -0.2452 -2.2930
 3228WAT     H2 9896   1.012   0.158   2.639 -0.4754 -0.2176 -0.0826
 3229WAT      O 9897   1.379   2.925   0.993 -0.3840 -0.4792  0.0850
 3229WAT     H1 9898   1.289   2.893   0.988 -1.1744  1.6058 -0.4563
 3229WAT     H2 9899   1.395   2.937   1.087 -2.3865  3.2513  0.1520
 3230WAT      O 9900   1.560   0.738   2.578 -0.4142  0.4325 -0.4457
 3230WAT     H1 9901   1.485   0.743   2.520 -0.7417  0.3809 -0.0292
 3230WAT     H2 9902   1.618   0.674   2.537 -0.2627  1.0083 -1.1467
 3231WAT      O 9903   3.647   1.199   1.582 -0.0323 -0.2171  0.2131
 3231WAT     H1 9904   3.594   1.122   1.560 -0.8762  1.1496 -3.3304
 3231WAT     H2 9905   3.707   1.209   1.508 -0.0154  2.5090  0.4787
 3232WAT      O 9906   3.277   4.386   4.118  0.5700 -0.0236 -0.0452
 3232WAT     H1 9907   3.335   4.415   4.189 -1.1217  0.6617  1.1316
 3232WAT     H2 9908   3.262   4.465   4.066  1.0650 -0.3147 -0.6463
 3233WAT      O 9909   0.780   1.082   3.416 -0.3121  0.1111 -0.2518
 3233WAT     H1 9910   0.793   1.014   3.482 -1.2527 -1.0049 -1.1570
 3233WAT     H2 9911   0.693   1.118   3.436 -0.4057  0.0822 -0.5939
 3234WAT      O 9912   0.463   3.614   5.168  0.0445 -0.2599 -0.2699
 3234WAT     H1 9913   0.381   3.607   5.119 -0.4505  0.2334  0.4542
 3234WAT     H2 9914   0.497   3.525   5.172 -0.9065 -0.6146  0.1528
 3235WAT      O 9915   0.325   5.103   0.153  0.3063  0.7533 -0.0635
 3235WAT     H1 9916   0.280   5.053   0.221 -0.1210  0.9803 -0.1744
 3235WAT     H2 9917   0.319   5.048   0.075  0.4708  0.6561 -0.0067
 3236WAT      O 9918   3.975   4.029   3.458  0.1266 -0.1963  0.0329
 3236WAT     H1 9919   4.037   4.065   3.395 -1.6230  1.3665 -0.8803
 3236WAT     H2 9920   4.028   4.007   3.534  1.5548  3.0394  0.1263
 3237WAT      O 9921   2.159   2.222   0.264 -0.6816 -0.3414  0.2801
 3237WAT     H1 9922   2.131   2.170   0.188  0.9316  0.5959 -1.0272
 3237WAT     H2 9923   2.078   2.251   0.304 -1.5908 -1.7718 -0.4268
 3238WAT      O 9924   0.156   0.868   1.896 -0.0801  0.3212  0.4174
 3238WAT     H1 9925   0.160   0.961   1.916 -0.9070  0.7843 -1.3364
 3238WAT     H2 9926   0.239   0.850   1.852  1.3579 -0.4944  3.2684
 3239WAT      O 9927   1.913   1.167   0.531  0.2586  0.4180  0.3686
 3239WAT     H1 9928   1.871   1.153   0.616 -2.3272  3.3253 -0.2485
 3239WAT     H2 9929   1.959   1.250   0.541  1.3013 -0.0177 -0.6457
 3240WAT      O 9930   3.186   1.664   4.785  0.0462  0.0285  0.2098
 3240WAT     H1 9931   3.219   1.744   4.826 -0.1712  0.8945 -1.2392
 3240WAT     H2 9932   3.264   1.622   4.750 -0.1415  1.2523 -1.7981
 3241WAT      O 9933   1.731   4.286   0.071 -0.0447  0.9469 -0.4644
 3241WAT     H1 9934   1.763   4.254   0.155  2.0793 -0.0907 -1.5993
 3241WAT     H2 9935   1.698   4.374   0.091 -0.8248  0.2450  1.6611
 3242WAT      O 9936   1.442   4.486   3.773  0.1955 -0.3620  0.7341
 3242WAT     H1 9937   1.486   4.462   3.691  0.1087  0.5966  0.3900
 3242WAT     H2 9938   1.473   4.422   3.837  0.4665 -0.9678  0.0148
 3243WAT      O 9939   0.095   0.786   3.203 -0.6454 -0.2463 -0.2081
 3243WAT     H1 9940   0.079   0.875   3.171  0.2178  0.2116  0.6270
 3243WAT     H2 9941   0.016   0.738   3.177 -1.8222  1.1222  0.6983
 3244WAT      O 9942   2.836   2.932   1.228 -0.0717  0.2604  0.5249
 3244WAT     H1 9943   2.896   3.006   1.234 -0.8920  0.8909  1.2227
 3244WAT     H2 9944   2.755   2.970   1.193 -0.3428 -0.4110  0.4141
 3245WAT      O 9945   3.049   0.459   0.035 -0.2819 -0.2228  1.1266
 3245WAT     H1 9946   3.031   0.519  -0.038 -0.7614 -2.4431 -0.6783
 3245WAT     H2 9947   3.144   0.464   0.046 -0.1493 -0.1841  0.0453
 3246WAT      O 9948   1.227   4.150   0.971 -0.2739 -0.7867 -0.5737
 3246WAT     H1 9949   1.212   4.217   1.037 -1.4922 -1.2677 -0.3288
 3246WAT     H2 9950   1.315   4.168   0.937  0.7128 -1.0125  1.7379
 3247WAT      O 9951   3.281   4.241   1.350 -0.3826 -0.2720 -0.6157
 3247WAT     H1 9952   3.268   4.165   1.294 -3.5614 -0.7306  0.5411
 3247WAT     H2 9953   3.216   4.304   1.319 -0.6053  0.3544  1.0485
 3248WAT      O 9954   3.169   1.107   4.878 -0.5746 -0.3131 -0.2087
 3248WAT     H1 9955   3.112   1.167   4.830 -1.0387 -1.4999 -1.1774
 3248WAT     H2 9956   3.246   1.098   4.822  0.8134  1.5509  1.2429
 3249WAT      O 9957   3.623   4.170   2.851 -0.4268 -0.0817  0.2362
 3249WAT     H1 9958   3.650   4.137   2.937 -0.5618 -1.0393 -0.0823
 3249WAT     H2 9959   3.689   4.135   2.791 -0.6241  0.1657 -0.1217
 3250WAT      O 9960   3.493   4.218   4.418  0.5740  0.2744  0.0246
 3250WAT     H1 9961   3.508   4.294   4.362 -0.5480  0.3741 -0.1798
 3250WAT     H2 9962   3.491   4.143   4.358  0.2419  0.2751  0.0284
 3251WAT      O 9963   4.236   3.789   2.985  0.1869 -0.1521 -0.3080
 3251WAT     H1 9964   4.203   3.707   3.020  1.0372 -0.9282 -1.2785
 3251WAT     H2 9965   4.327   3.771   2.961  0.4023  1.0792 -0.4915
 3252WAT      O 9966   1.713   2.248   1.436  0.5058 -0.1685  0.2279
 3252WAT     H1 9967   1.669   2.250   1.351 -0.0996  0.7545  0.5507
 3252WAT     H2 9968   1.697   2.334   1.474  1.8494 -0.1194  0.7452
 3253WAT      O 9969   4.381   3.136   1.346  0.3632  0.2373 -0.2182
 3253WAT     H1 9970   4.434   3.099   1.417  0.2552 -2.3075 -1.3460
 3253WAT     H2 9971   4.297   3.157   1.387  0.5632 -0.4687  0.5696
 3254WAT      O 9972   2.882   5.103   4.970  0.3869  0.5463 -0.1082
 3254WAT     H1 9973   2.891   5.198   4.967  1.5721  0.4951  0.9814
 3254WAT     H2 9974   2.929   5.072   4.893 -1.2413  0.8832 -1.2811
 3255WAT      O 9975   4.433   2.506   2.076 -0.6231 -0.3493  0.1952
 3255WAT     H1 9976   4.523   2.530   2.053 -1.1559  0.4343 -1.1384
 3255WAT     H2 9977   4.429   2.412   2.061 -0.0248 -0.3895  0.2656
 3256WAT      O 9978   0.648   2.917   4.588  0.2524 -0.5949 -0.2870
 3256WAT     H1 9979   0.675   2.919   4.496  1.5437  0.2760  0.0796
 3256WAT     H2 9980   0.718   2.964   4.634 -1.7358  1.4393  0.8154
 3257WAT      O 9981   4.450   4.492   4.523  0.0876  0.3205 -0.5275
 3257WAT     H1 9982   4.450   4.588   4.516  2.5193  0.3647 -0.8923
 3257WAT     H2 9983   4.499   4.462   4.446  1.1319 -1.0583  0.6137
 3258WAT      O 9984   3.091   1.436   1.758  0.1364 -0.4568  0.4172
 3258WAT     H1 9985   3.172   1.461   1.713  0.5075  0.1609  1.4181
 3258WAT     H2 9986   3.041   1.517   1.766 -0.9922 -0.9640 -0.9410
 3259WAT      O 9987   4.181   3.562   3.105  0.2099  0.4580 -0.3226
 3259WAT     H1 9988   4.128   3.517   3.039 -2.6030  1.5356  1.0255
 3259WAT     H2 9989   4.208   3.494   3.166 -0.2711 -0.0279 -0.6436
 3260WAT      O 9990   2.008   3.121   1.098  0.0420 -0.0270 -0.4408
 3260WAT     H1 9991   1.983   3.104   1.007 -1.5995  0.5468 -0.1226
 3260WAT     H2 9992   1.939   3.178   1.131 -0.3017 -1.5559  1.6678
 3261WAT      O 9993   3.629   2.330   5.134 -0.0589 -0.0854 -0.2073
 3261WAT     H1 9994   3.698   2.303   5.194  0.8342  0.5587 -0.9148
 3261WAT     H2 9995   3.602   2.417   5.165  0.6026  0.3743 -0.8699
 3262WAT      O 9996   3.075   4.668   1.708  0.4089  0.6131 -0.0621
 3262WAT     H1 9997   3.026   4.602   1.757  0.2763 -0.1093 -1.1334
 3262WAT     H2 9998   3.070   4.747   1.762 -0.4073  0.0621  0.6921
 3263WAT      O 9999   0.077   1.049   3.119 -0.0627 -0.1397  0.3466
 3263WAT     H110000   0.137   1.084   3.053 -0.8292 -0.0644 -0.3138
 3263WAT     H210001   0.014   1.119   3.135 -0.3272 -0.4292  0.6090
 3264WAT      O10002   0.832   2.621   2.679  0.2509  0.4567  0.0110
 3264WAT     H110003   0.886   2.695   2.707  1.5898 -0.3897 -0.2116
 3264WAT     H210004   0.861   2.549   2.734  0.4808 -0.3986 -1.1876
 3265WAT      O10005   4.132   1.817   0.933 -0.1343 -0.2661  0.0218
 3265WAT     H110006   4.193   1.806   1.006  0.5214  1.2181 -0.2715
 3265WAT     H210007   4.127   1.730   0.893  2.2793 -0.2981 -0.3274
 3266WAT      O10008   3.139   4.605   4.020 -0.6275 -0.3011  0.0136
 3266WAT     H110009   3.123   4.618   3.927  1.3730 -0.8720 -0.4724
 3266WAT     H210010   3.056   4.571   4.054 -0.8933 -1.8402 -1.9405
 3267WAT      O10011   4.191   4.791   3.200  0.2648 -0.4248  0.1263
 3267WAT     H110012   4.159   4.709   3.237  1.4217 -1.2855 -0.6908
 3267WAT     H210013   4.139   4.859   3.242 -0.4516 -1.5544  1.1143
 3268WAT      O10014   3.617   0.307   0.050 -0.0363  0.2429 -0.0330
 3268WAT     H110015   3.705   0.299   0.088 -0.1310  0.3608  0.2113
 3268WAT     H210016   3.622   0.257  -0.031  0.4151  0.7111 -0.2964
 3269WAT      O10017   2.231   1.557   4.484 -0.7612  0.4315  0.1299
 3269WAT     H110018   2.289   1.593   4.552  0.2457 -0.5731 -0.1657
 3269WAT     H210019   2.236   1.620   4.413 -0.2112  0.4854  0.2090
 3270WAT      O10020   2.280   3.799   5.148  0.4208  0.3903  0.1863
 3270WAT     H110021   2.369   3.767   5.129  0.6652  0.7451  0.7119
 3270WAT     H210022   2.257   3.758   5.231 -0.1438 -0.1576 -0.2366
 3271WAT      O10023   2.910   0.297   4.695 -0.0785 -0.1923 -0.1698
 3271WAT     H110024   2.887   0.356   4.767  1.0736  2.1832 -1.6306
 3271WAT     H210025   2.843   0.314   4.629  2.1555  2.2842 -2.0182
 3272WAT      O10026   0.712   2.236   3.444  0.7723 -0.3394  0.3923
 3272WAT     H110027   0.650   2.276   3.504 -1.3264 -2.7204 -0.0370
 3272WAT     H210028   0.666   2.230   3.361  1.9182 -1.3330 -0.2119
 3273WAT      O10029   3.766   1.135   5.084  0.0128 -0.8376  0.0679
 3273WAT     H110030   3.784   1.055   5.134 -0.0546 -0.2581  1.0290
 3273WAT     H210031   3.740   1.199   5.150  1.7848  0.4948 -0.4687
 3274WAT      O10032   1.188   0.420   0.616 -0.5427  0.7809  0.0224
 3274WAT     H110033   1.259   0.472   0.577 -0.5342 -0.1240 -1.2330
 3274WAT     H210034   1.199   0.431   0.710  0.4409  1.7340 -0.1828
 3275WAT      O10035   3.790   4.772   0.695  0.3148 -0.4454  0.2480
 3275WAT     H110036   3.866   4.717   0.713 -0.3263 -1.0485  1.1698
 3275WAT     H210037   3.827   4.855   0.666  1.3554 -0.3379  1.8036
 3276WAT      O10038   0.563   0.184   5.128 -0.2098 -0.7246 -0.1984
 3276WAT     H110039   0.478   0.167   5.169 -0.0122  1.8115  1.4387
 3276WAT     H210040   0.553   0.268   5.084  1.8433  0.4341  1.3660
 3277WAT      O10041   2.093   4.538   2.003  0.9035 -0.0564  0.2068
 3277WAT     H110042   2.157   4.600   2.036  2.1382 -1.2172  0.0929
 3277WAT     H210043   2.134   4.452   2.016 -0.0855 -0.7532 -1.0563
 3278WAT      O10044   1.367   1.597   4.347 -0.3269 -0.4149  0.2771
 3278WAT     H110045   1.321   1.516   4.329 -0.5345 -0.1959 -0.1976
 3278WAT     H210046   1.303   1.651   4.393 -0.2324 -0.4705  0.4736
 3279WAT      O10047   4.105   1.441   2.750 -0.0950 -0.1168  0.0042
 3279WAT     H110048   4.054   1.522   2.754 -0.1666 -0.1906  0.7375
 3279WAT     H210049   4.064   1.384   2.815  0.2311 -0.5835 -0.1962
 3280WAT      O10050   3.613   2.034   1.629 -0.4188 -0.1944 -0.2074
 3280WAT     H110051   3.663   1.952   1.623 -0.2517 -0.0523 -0.8367
 3280WAT     H210052   3.661   2.095   1.574  0.3549  0.8081  1.4881
 3281WAT      O10053   3.607   3.972   0.694 -0.2729 -0.9709  0.1074
 3281WAT     H110054   3.538   3.910   0.669 -1.5107  0.5794 -0.4636
 3281WAT     H210055   3.560   4.046   0.732  0.9504  0.6458 -1.3643
 3282WAT      O10056   2.197   1.422   2.639  0.3437 -0.0951  0.1853
 3282WAT     H110057   2.286   1.453   2.653 -0.2679  1.0760  1.8932
 3282WAT     H210058   2.151   1.497   2.601  0.9085 -1.8889 -4.7465
 3283WAT      O10059   3.548   0.109   5.152  0.3076  0.1445  0.3043
 3283WAT     H110060   3.492   0.031   5.148 -0.4680  0.6723  0.4922
 3283WAT     H210061   3.636   0.078   5.132  0.1463 -0.9163  1.1699
 3284WAT      O10062   2.414   0.090   0.376  0.2757  0.7741 -0.4352
 3284WAT     H110063   2.394   0.174   0.333 -1.4344  2.0108  2.4774
 3284WAT     H210064   2.330   0.059   0.408  0.8458 -2.2249 -1.5317
 3285WAT      O10065   2.668   0.112   4.842 -0.4758 -0.7906 -0.3684
 3285WAT     H110066   2.727   0.183   4.868 -0.3049 -0.7850 -0.7504
 3285WAT     H210067   2.674   0.048   4.913 -0.1742 -0.6905 -0.3015
 3286WAT      O10068   0.990   3.749   2.522  0.2731  0.0946 -0.2629
 3286WAT     H110069   1.076   3.707   2.520  0.1791 -0.1940  1.0797
 3286WAT     H210070   0.949   3.724   2.439  2.0229  1.4480 -1.5970
 3287WAT      O10071   3.535   2.745   2.073  0.1333 -0.1422 -0.5217
 3287WAT     H110072   3.543   2.813   2.140 -0.0622 -1.5194  0.9526
 3287WAT     H210073   3.592   2.675   2.103 -0.0367 -0.8361 -1.7597
 3288WAT      O10074   0.040   4.953   1.135  0.0491  0.1621 -0.3714
 3288WAT     H110075   0.041   4.882   1.198 -0.1729 -1.0969 -1.7273
 3288WAT     H210076  -0.022   4.925   1.068  0.7825  1.1193 -1.4917
 3289WAT      O10077   3.485   2.775   4.942  0.2961  0.1984  0.2792
 3289WAT     H110078   3.555   2.747   5.000  1.3591  1.0162 -0.5702
 3289WAT     H210079   3.514   2.859   4.907 -1.1153  0.5630 -0.0893
 3290WAT      O10080   3.054   4.323   4.458  0.1710  0.3126  0.2480
 3290WAT     H110081   3.075   4.304   4.366 -2.3013 -2.1679  0.0761
 3290WAT     H210082   3.126   4.379   4.487  1.1022  1.1603 -3.1528
 3291WAT      O10083   1.356   3.895   2.491 -0.2203 -0.2314  0.5035
 3291WAT     H110084   1.385   3.926   2.577 -2.0894  1.2666  0.6578
 3291WAT     H210085   1.322   3.807   2.508  0.8329 -0.5602  0.9822
 3292WAT      O10086   2.248   0.631   3.764 -0.1911  0.1190  0.0939
 3292WAT     H110087   2.272   0.542   3.741 -0.0338  0.5878 -1.6871
 3292WAT     H210088   2.213   0.625   3.853 -1.8608 -1.9854 -0.6373
 3293WAT      O10089   4.402   2.574   1.639 -0.3909 -0.2755 -0.7957
 3293WAT     H110090   4.341   2.635   1.596  0.1616  0.9416  0.0915
 3293WAT     H210091   4.467   2.554   1.572  0.9157  2.2242 -0.3938
 3294WAT      O10092   2.106   1.389   2.905  0.3129 -0.2568  0.2734
 3294WAT     H110093   2.110   1.383   2.810 -0.4010  0.7080  0.1739
 3294WAT     H210094   2.189   1.350   2.935  0.1224 -1.4541 -0.6783
 3295WAT      O10095   4.267   4.813   1.943  1.0288  0.6971  0.1726
 3295WAT     H110096   4.189   4.779   1.899  0.5653  0.4967  1.1261
 3295WAT     H210097   4.337   4.802   1.878  0.1404  1.5871 -0.9938
 3296WAT      O10098   0.861   5.099   4.144  0.5652  0.5509 -0.1046
 3296WAT     H110099   0.856   5.128   4.235 -1.5573 -0.3071  0.0971
 3296WAT     H210100   0.917   5.165   4.102  0.6802  1.5903  1.5557
 3297WAT      O10101   0.092   1.840   2.005  0.2136 -0.2945  0.2244
 3297WAT     H110102   0.079   1.833   1.910 -0.6586  1.7946  0.1261
 3297WAT     H210103   0.012   1.883   2.036  0.6900 -0.5457  1.8594
 3298WAT      O10104   1.414   2.310   0.957  0.1082 -0.1844 -0.4981
 3298WAT     H110105   1.410   2.229   0.906 -1.9990 -0.5247  0.0751
 3298WAT     H210106   1.484   2.295   1.020  0.1608 -1.3282 -0.7967
 3299WAT      O10107   0.173   2.493   2.063  0.1898  0.3571 -0.6313
 3299WAT     H110108   0.184   2.403   2.094  0.4467  0.7192  0.3806
 3299WAT     H210109   0.247   2.506   2.004  0.8595  0.2837  0.1651
 3300WAT      O10110   4.495   2.479   1.034  0.0102  0.0944 -0.1859
 3300WAT     H110111   4.542   2.516   0.959 -3.8311  4.0595 -1.0499
 3300WAT     H210112   4.553   2.494   1.109  1.4712  1.6855 -1.5622
 3301WAT      O10113   3.002   3.145   5.058 -0.2153  0.2118 -0.2275
 3301WAT     H110114   3.063   3.157   5.131 -0.6966  1.4484 -0.0131
 3301WAT     H210115   2.916   3.157   5.097 -0.5634 -0.7057 -0.6974
 3302WAT      O10116   3.466   2.970   3.054 -0.4938 -0.1396 -0.0021
 3302WAT     H110117   3.500   3.044   3.004  0.6017 -0.3137  0.4680
 3302WAT     H210118   3.432   2.910   2.988  2.5579 -1.2072 -0.7652
 3303WAT      O10119   3.303   1.324   5.070 -0.3898 -0.6848 -0.0712
 3303WAT     H110120   3.362   1.389   5.032 -1.5168  0.6722  0.4399
 3303WAT     H210121   3.262   1.282   4.994  2.2492 -2.7718 -0.5284
 3304WAT      O10122   2.883   3.236   0.968 -0.1936 -0.0569 -0.5658
 3304WAT     H110123   2.831   3.233   0.887 -0.3714 -1.1039 -0.4261
 3304WAT     H210124   2.972   3.254   0.938 -0.3115 -0.1238 -0.9696
 3305WAT      O10125   2.141   2.777   2.567 -0.2308  0.1854 -0.4307
 3305WAT     H110126   2.187   2.731   2.497  1.7368 -0.8753  1.4267
 3305WAT     H210127   2.089   2.709   2.610 -0.1363  0.4534  0.1192
 3306WAT      O10128   1.885   0.498   2.494  0.0798 -0.6028  0.2521
 3306WAT     H110129   1.873   0.582   2.450 -0.5962 -1.0633 -0.4899
 3306WAT     H210130   1.806   0.487   2.547 -0.9491 -1.7865 -1.4380
 3307WAT      O10131   1.015   0.316   2.905 -0.0438 -0.5519  0.0952
 3307WAT     H110132   0.985   0.236   2.947 -0.7839 -0.7954 -0.8767
 3307WAT     H210133   1.027   0.292   2.813 -0.7959  0.5792 -0.3153
 3308WAT      O10134   0.830   2.585   1.818  0.0925  0.2425 -0.1243
 3308WAT     H110135   0.841   2.499   1.858  1.9567  0.5044  0.0264
 3308WAT     H210136   0.894   2.641   1.863  0.0203  1.3209 -1.2877
 3309WAT      O10137   0.536   3.992   2.578 -0.1269 -0.1680 -0.1934
 3309WAT     H110138   0.586   3.966   2.655 -0.8313 -1.9143 -0.2936
 3309WAT     H210139   0.577   4.075   2.551  0.1704  0.4790  1.9919
 3310WAT      O10140   0.471   4.667   2.458  0.2638 -0.0464  0.0256
 3310WAT     H110141   0.511   4.590   2.499  1.9196  1.0133  0.4779
 3310WAT     H210142   0.463   4.730   2.530 -0.2708  0.5208 -0.5236
 3311WAT      O10143   3.830   4.673   0.160  0.0654 -0.0132  0.2526
 3311WAT     H110144   3.752   4.620   0.173  1.0209 -1.5469 -0.0470
 3311WAT     H210145   3.834   4.729   0.238 -1.6499  0.5555 -0.0266
 3312WAT      O10146   2.333   1.564   1.363 -0.4802  0.1606  0.7496
 3312WAT     H110147   2.305   1.488   1.414  0.3583 -0.9307 -0.3710
 3312WAT     H210148   2.366   1.528   1.282  0.2936  1.7123  0.3342
 3313WAT      O10149   1.887   4.499   4.396  0.3404  0.4290 -0.1995
 3313WAT     H110150   1.901   4.435   4.466  1.5873  1.7263  0.8028
 3313WAT     H210151   1.867   4.446   4.319 -2.8960 -1.0279  1.4405
 3314WAT      O10152   4.003   1.365   0.867  0.0502 -0.7261 -0.4080
 3314WAT     H110153   3.922   1.328   0.832 -0.6800  0.3896  0.0643
 3314WAT     H210154   4.072   1.309   0.831 -0.9687 -2.1966 -0.1722
 3315WAT      O10155   1.911   0.960   1.836  0.8343 -0.6177  0.0296
 3315WAT     H110156   1.868   1.036   1.875 -0.0235 -0.9623 -0.2214
 3315WAT     H210157   1.957   0.995   1.760  0.7277 -0.2906  0.1147
 3316WAT      O10158   3.898   0.710   1.669 -0.7353 -0.3480  0.2889
 3316WAT     H110159   3.807   0.704   1.699 -0.4320 -0.4135  1.2362
 3316WAT     H210160   3.918   0.622   1.638 -1.6616  0.1839 -2.0040
 3317WAT      O10161   1.567   4.035   0.389 -0.4042 -0.4862  0.4826
 3317WAT     H110162   1.624   3.972   0.432 -1.0850 -1.5681 -0.1485
 3317WAT     H210163   1.627   4.098   0.349  0.4421 -2.0272 -0.8253
 3318WAT      O10164   3.198   4.566   0.284  0.0972  0.0593  0.4717
 3318WAT     H110165   3.127   4.510   0.253  0.1388  0.3110 -0.1048
 3318WAT     H210166   3.195   4.560   0.379 -1.3666  0.8806  0.5018
 3319WAT      O10167   2.795   0.583   3.575 -0.1624 -0.2781 -0.0960
 3319WAT     H110168   2.708   0.602   3.610 -0.0328  0.3086 -0.0877
 3319WAT     H210169   2.852   0.579   3.653 -0.2378 -0.9861 -0.0727
 3320WAT      O10170   0.623   1.690   2.977 -0.1466 -0.1382  0.2824
 3320WAT     H110171   0.596   1.608   2.936 -0.4234  0.6708 -1.2032
 3320WAT     H210172   0.674   1.735   2.910 -1.1895  1.5299  0.5488
 3321WAT      O10173   1.921   0.998   3.397 -0.1818 -0.1528  0.2503
 3321WAT     H110174   2.000   0.958   3.433 -0.0455 -0.8633 -0.7875
 3321WAT     H210175   1.891   1.058   3.465  1.4615  0.4122  0.5128
 3322WAT      O10176   1.940   2.074   1.208 -0.6305 -0.2525  0.4753
 3322WAT     H110177   1.902   2.068   1.120 -1.5239  1.0313  0.7463
 3322WAT     H210178   1.979   2.161   1.212  0.8241 -0.8932  0.8340
 3323WAT      O10179   3.109   4.645   2.407 -0.0663 -0.6429  0.0361
 3323WAT     H110180   3.082   4.617   2.494  2.4288 -0.8798  0.8325
 3323WAT     H210181   3.204   4.630   2.406  0.3582  1.6482 -1.8716
 3324WAT      O10182   4.418   5.125   4.346  0.1814  0.0650 -0.1429
 3324WAT     H110183   4.331   5.140   4.311 -0.5594 -0.4130  1.4033
 3324WAT     H210184   4.451   5.050   4.297 -0.2756  0.2278 -0.7115
 3325WAT      O10185   4.414   3.417   2.842  0.6318  0.2127  0.6229
 3325WAT     H110186   4.482   3.364   2.801  1.0465  0.6806  0.7039
 3325WAT     H210187   4.345   3.354   2.864  0.7332 -0.1586 -0.0948
 3326WAT      O10188   0.047   2.115   3.103  0.0164 -0.0734  0.1002
 3326WAT     H110189   0.053   2.208   3.079  0.6684 -0.1180  0.0796
 3326WAT     H210190   0.134   2.093   3.135 -0.3147 -0.5208  0.7017
 3327WAT      O10191   1.035   1.157   0.187 -0.3681 -0.2712 -0.0038
 3327WAT     H110192   1.073   1.087   0.240 -1.1079 -0.4702  0.2769
 3327WAT     H210193   0.989   1.212   0.251  2.3470  2.0016  0.2107
 3328WAT      O10194   1.267   3.419   4.923  0.1927  0.0392  0.4506
 3328WAT     H110195   1.229   3.467   4.849  0.4268  1.0401  0.9560
 3328WAT     H210196   1.361   3.433   4.914  0.1513  1.1348  1.5647
 3329WAT      O10197   3.889   1.978   1.913 -0.3436  0.1791 -0.1141
 3329WAT     H110198   3.827   2.048   1.933 -0.6289  0.0874 -0.6613
 3329WAT     H210199   3.965   2.022   1.876  0.4514  0.4155  1.6752
 3330WAT      O10200   3.220   1.812   0.067 -0.4533  0.0222 -0.0175
 3330WAT     H110201   3.259   1.794   0.152  1.0796  0.2303 -0.6547
 3330WAT     H210202   3.228   1.907   0.057 -1.6887  0.1524  0.0933
 3331WAT      O10203   0.547   3.748   0.559 -0.2320 -0.1243  0.2388
 3331WAT     H110204   0.588   3.695   0.492 -1.9703 -2.0666  0.6021
 3331WAT     H210205   0.619   3.799   0.598  1.3491 -1.4866 -0.7934
 3332WAT      O10206   3.059   0.476   2.457  0.0982 -0.5843 -0.1766
 3332WAT     H110207   3.046   0.563   2.494 -1.5577 -1.0430  0.3762
 3332WAT     H210208   2.974   0.433   2.463  0.8871 -2.2922 -0.3406
 3333WAT      O10209   2.632   3.465   0.199  0.3296  1.0117 -0.5100
 3333WAT     H110210   2.594   3.378   0.207  1.0745  0.6429 -0.8472
 3333WAT     H210211   2.601   3.512   0.276 -1.0806  0.8433 -0.9554
 3334WAT      O10212   2.147   1.876   1.294  0.4227 -0.1974  0.0644
 3334WAT     H110213   2.055   1.895   1.280  0.4855 -0.9863 -1.6766
 3334WAT     H210214   2.189   1.962   1.301 -0.5497  0.1681  1.9521
 3335WAT      O10215   0.733   3.170   4.736  0.2947  0.8394  0.0529
 3335WAT     H110216   0.749   3.251   4.784  2.8606  1.0961 -1.0974
 3335WAT     H210217   0.695   3.197   4.653 -0.2005  0.7208  0.2343
 3336WAT      O10218   2.578   2.527   3.722 -0.5215  0.2684 -0.5883
 3336WAT     H110219   2.640   2.504   3.791 -1.7698 -1.0845  0.1577
 3336WAT     H210220   2.551   2.617   3.744 -0.1204  0.2337  0.0838
 3337WAT      O10221   1.632   3.560   4.150 -0.3615  0.5736 -0.1206
 3337WAT     H110222   1.723   3.588   4.160  0.1376 -1.3597  1.0704
 3337WAT     H210223   1.634   3.497   4.078 -1.2516  2.3974 -1.8509
 3338WAT      O10224   0.629   4.056   1.342  0.3123  0.0302  0.1156
 3338WAT     H110225   0.602   4.120   1.408  1.2224  0.7172 -0.1669
 3338WAT     H210226   0.725   4.054   1.347  0.2954 -2.5317  1.2762
 3339WAT      O10227   4.491   4.756   4.411 -0.3618 -0.3798  0.2396
 3339WAT     H110228   4.586   4.754   4.399 -0.5554 -1.6435 -1.3827
 3339WAT     H210229   4.456   4.784   4.327 -1.4140  2.0325  1.3802
 3340WAT      O10230   2.313   4.114   3.691 -0.5662  0.0033  0.4189
 3340WAT     H110231   2.387   4.054   3.678  0.5096  1.3681  0.0741
 3340WAT     H210232   2.256   4.067   3.753 -0.1048 -1.6567 -0.3475
 3341WAT      O10233   0.939   0.819   1.174  0.4751 -0.2001 -0.0212
 3341WAT     H110234   0.886   0.899   1.183  0.2354 -0.4141  0.4759
 3341WAT     H210235   0.887   0.763   1.116  1.4307  0.6688 -1.7975
 3342WAT      O10236   0.684   3.801   1.594 -0.1892 -0.1892 -0.3200
 3342WAT     H110237   0.680   3.722   1.647 -0.9089 -0.2594 -0.4756
 3342WAT     H210238   0.776   3.807   1.568  0.4274  0.4464  1.7991
 3343WAT      O10239   0.202   3.237   1.658  0.2221 -0.4309  0.0881
 3343WAT     H110240   0.119   3.238   1.706  0.5203  0.2798  0.5950
 3343WAT     H210241   0.253   3.168   1.700  0.8595  0.8318  1.4744
 3344WAT      O10242   0.156   1.356   2.538 -0.6109  0.1740  0.8487
 3344WAT     H110243   0.203   1.388   2.461 -1.1841  0.6208  0.6752
 3344WAT     H210244   0.067   1.391   2.528 -0.2635  1.7333  2.5957
 3345WAT      O10245   1.770   5.107   2.003 -0.0646  0.0284  0.0511
 3345WAT     H110246   1.713   5.081   2.075 -0.0035  1.1549  0.5288
 3345WAT     H210247   1.716   5.097   1.925 -0.4722 -0.2047  0.3589
 3346WAT      O10248   4.473   1.272   3.632  0.0676 -0.0494  0.0529
 3346WAT     H110249   4.498   1.365   3.626  0.0806  0.0238  1.1001
 3346WAT     H210250   4.408   1.261   3.562 -3.2206  1.8680  2.4810
 3347WAT      O10251   0.713   2.641   3.727 -0.1899  0.0946  0.9184
 3347WAT     H110252   0.724   2.655   3.821 -1.6614 -2.0679  1.4758
 3347WAT     H210253   0.740   2.551   3.712  1.5379  0.8614 -1.0651
 3348WAT      O10254   0.601   0.131   1.657 -0.3991 -0.1544  0.1643
 3348WAT     H110255   0.561   0.045   1.648 -0.1663 -0.2463 -0.0192
 3348WAT     H210256   0.529   0.193   1.648 -0.2833 -0.2561 -1.8119
 3349WAT      O10257   0.813   4.411   3.674 -0.0591 -0.5922  0.0291
 3349WAT     H110258   0.831   4.362   3.754 -1.7055 -2.8096 -0.8631
 3349WAT     H210259   0.900   4.432   3.638  0.6865 -0.5466  1.7562
 3350WAT      O10260   3.549   3.336   1.515 -0.4586 -0.0435 -0.3541
 3350WAT     H110261   3.568   3.276   1.443 -0.6521 -0.4866 -0.0387
 3350WAT     H210262   3.627   3.332   1.571 -0.9310 -0.8964  0.2744
 3351WAT      O10263   3.987   3.705   5.023  0.2756 -0.4170 -0.2050
 3351WAT     H110264   4.037   3.632   5.062  0.4989 -1.1097 -1.7274
 3351WAT     H210265   4.051   3.774   5.009 -0.1978  0.7498  2.6495
 3352WAT      O10266   0.746   0.477   3.077  0.5929  0.2477 -0.0056
 3352WAT     H110267   0.679   0.408   3.077 -0.5410  1.2967 -0.3699
 3352WAT     H210268   0.816   0.443   3.022  0.6593 -1.1549  0.9068
 3353WAT      O10269   0.737   0.597   4.484 -0.0390  0.2875 -0.1672
 3353WAT     H110270   0.703   0.685   4.500  0.4463  0.6772 -1.1785
 3353WAT     H210271   0.658   0.544   4.468 -0.3643  0.4033  1.0114
 3354WAT      O10272   2.128   2.797   2.258 -0.0314 -0.1944 -0.2428
 3354WAT     H110273   2.076   2.862   2.305 -0.3160 -0.7712  0.2368
 3354WAT     H210274   2.219   2.823   2.274 -0.1531  0.4630 -0.5912
 3355WAT      O10275   0.840   1.705   5.209 -0.2851 -0.1444 -0.1241
 3355WAT     H110276   0.903   1.678   5.276 -2.1118  1.0699  2.2512
 3355WAT     H210277   0.889   1.764   5.152  1.7159 -2.3473 -0.8265
 3356WAT      O10278   4.161   0.490   1.084  0.0026 -0.2532 -0.1754
 3356WAT     H110279   4.090   0.441   1.126 -1.4236 -1.4655 -3.5891
 3356WAT     H210280   4.159   0.575   1.127 -2.4918 -0.7840  0.9850
 3357WAT      O10281   3.932   1.745   4.805 -0.4288 -0.1347  0.3550
 3357WAT     H110282   3.872   1.820   4.801  0.2498  0.6471  2.8938
 3357WAT     H210283   3.877   1.671   4.830 -0.3775  0.6909  3.2218
 3358WAT      O10284   4.527   2.737   0.688 -0.3754  0.6418 -0.4734
 3358WAT     H110285   4.444   2.741   0.641 -1.6357 -0.8932  1.4934
 3358WAT     H210286   4.523   2.810   0.750 -0.5630  0.1730  0.0716
 3359WAT      O10287   3.594   1.438   2.272  0.4481 -0.0094 -0.4676
 3359WAT     H110288   3.633   1.477   2.350 -1.1889 -1.1590  1.0318
 3359WAT     H210289   3.545   1.509   2.231 -0.4804  0.1334  0.8254
 3360WAT      O10290   3.960   4.484   5.085 -0.0487 -0.2521 -0.0483
 3360WAT     H110291   4.010   4.446   5.157 -0.7357 -0.7223  0.2004
 3360WAT     H210292   3.876   4.508   5.125 -0.8087 -1.4157 -0.8666
 3361WAT      O10293   3.533   1.690   0.177 -0.1646 -0.4980  0.1870
 3361WAT     H110294   3.484   1.725   0.251  0.3495 -0.3269  0.4508
 3361WAT     H210295   3.500   1.600   0.167  1.9643 -1.7021  2.6954
 3362WAT      O10296   3.412   1.434   0.104  0.2020  0.1606 -0.2965
 3362WAT     H110297   3.423   1.432   0.009  3.1745  3.0339 -0.1722
 3362WAT     H210298   3.440   1.347   0.133  0.5276 -0.3261 -1.9453
 3363WAT      O10299   1.585   1.798   5.019  0.3378  0.4000  0.5869
 3363WAT     H110300   1.607   1.817   5.111  0.1373  0.0238  0.7119
 3363WAT     H210301   1.490   1.812   5.014  0.0768 -1.1436  0.8288
 3364WAT      O10302   2.413   2.183   5.042 -0.1657 -0.3665 -0.3126
 3364WAT     H110303   2.328   2.182   5.086  0.8142  0.7138  1.7737
 3364WAT     H210304   2.473   2.144   5.107  1.2885  0.8887 -0.8403
 3365WAT      O10305   0.355   1.373   1.095  0.0447 -0.2031 -0.1331
 3365WAT     H110306   0.440   1.366   1.139 -1.3525 -0.0032  2.8831
 3365WAT     H210307   0.336   1.467   1.095 -0.7184 -0.3523  0.3859
 3366WAT      O10308   4.404   4.254   4.679 -0.3878  0.2229  0.0864
 3366WAT     H110309   4.313   4.228   4.661  0.8508 -3.3037 -2.0978
 3366WAT     H210310   4.415   4.335   4.629 -2.1594  0.3809 -0.1375
 3367WAT      O10311   1.918   2.493   3.552  0.8086  0.5132  0.5152
 3367WAT     H110312   2.002   2.475   3.594  0.6346  1.1649  1.1518
 3367WAT     H210313   1.939   2.554   3.481  1.2517 -1.3244 -1.0250
 3368WAT      O10314   0.122   0.067   3.880  0.2106 -0.1478  0.2789
 3368WAT     H110315   0.082   0.153   3.869 -1.3576 -0.8433  0.3522
 3368WAT     H210316   0.159   0.069   3.968  0.7126  0.6412  0.0650
 3369WAT      O10317   1.718   1.512   0.805  0.4686 -0.2689 -0.4709
 3369WAT     H110318   1.668   1.512   0.723 -0.6585  0.0978  0.1836
 3369WAT     H210319   1.661   1.559   0.867  0.8371 -1.4165  0.7892
 3370WAT      O10320   3.640   2.689   2.684  0.2462 -0.4195 -0.2036
 3370WAT     H110321   3.597   2.755   2.630 -0.3588  0.4183  1.2317
 3370WAT     H210322   3.632   2.607   2.634 -1.8718 -0.0349 -0.5871
 3371WAT      O10323   1.424   4.823   3.670  0.7658  0.0959  0.0839
 3371WAT     H110324   1.428   4.872   3.588 -0.4811  0.4050  0.1751
 3371WAT     H210325   1.417   4.731   3.644 -1.1844  0.2880 -0.2489
 3372WAT      O10326   4.100   4.548   4.712  0.4451 -0.1678 -0.0395
 3372WAT     H110327   4.075   4.472   4.765  0.1432 -0.8432 -1.1217
 3372WAT     H210328   4.138   4.610   4.775 -1.1181 -0.3886  1.1724
 3373WAT      O10329   3.407   3.758   0.662 -0.9191  0.6193  0.7835
 3373WAT     H110330   3.431   3.676   0.619 -0.7105  0.8409  0.4717
 3373WAT     H210331   3.320   3.779   0.628 -1.2130  0.2341  1.2960
 3374WAT      O10332   2.047   4.249   0.181  0.3676 -0.2726 -0.0193
 3374WAT     H110333   2.119   4.209   0.231  0.4952  0.8682  0.7611
 3374WAT     H210334   2.071   4.341   0.177 -1.2020  0.1790  0.5139
 3375WAT      O10335   3.526   4.270   4.891 -0.3564  0.5083  0.0382
 3375WAT     H110336   3.446   4.318   4.868 -1.2598 -0.9465 -0.0122
 3375WAT     H210337   3.584   4.281   4.816 -0.9836  0.6046 -0.4387
 3376WAT      O10338   2.487   2.424   5.110  0.2008  0.5787  0.1432
 3376WAT     H110339   2.523   2.387   5.191 -0.1226 -0.3505 -0.1347
 3376WAT     H210340   2.422   2.361   5.081 -1.8826  2.3191  0.7674
 3377WAT      O10341   0.934   4.324   3.907 -0.5504 -0.3341 -0.3898
 3377WAT     H110342   0.964   4.277   3.829 -1.3754 -0.9138 -0.3689
 3377WAT     H210343   1.014   4.347   3.953 -0.0903 -0.9529 -0.8578
 3378WAT      O10344   0.736   4.625   0.786  0.2674 -0.1810 -0.7378
 3378WAT     H110345   0.681   4.550   0.805 -1.1314  1.2725  1.4274
 3378WAT     H210346   0.821   4.602   0.823 -0.8461  0.2151  2.3380
 3379WAT      O10347   4.128   0.078   4.326 -0.8320 -0.2691 -0.0635
 3379WAT     H110348   4.111   0.112   4.239 -2.1471 -0.0986  0.2325
 3379WAT     H210349   4.073   0.131   4.384 -0.2751 -0.6266  0.8221
 3380WAT      O10350   3.994   2.689   3.207 -0.1291  0.6198 -0.6963
 3380WAT     H110351   3.974   2.669   3.116 -1.9269 -0.7460 -0.0584
 3380WAT     H210352   3.938   2.763   3.229 -0.8901 -0.0705 -0.2740
 3381WAT      O10353   1.795   3.739   1.476 -0.6388 -0.3051 -0.0158
 3381WAT     H110354   1.879   3.693   1.475 -1.2196 -1.4287  1.1707
 3381WAT     H210355   1.735   3.679   1.520 -2.0983  0.4490 -0.8917
 3382WAT      O10356   4.283   0.526   0.464  0.2068 -0.0453 -0.0989
 3382WAT     H110357   4.208   0.505   0.520  0.2028 -0.3234 -0.2056
 3382WAT     H210358   4.325   0.441   0.447  0.4833  0.0944 -0.1293
 3383WAT      O10359   2.731   0.419   3.195 -0.0361 -0.6211  0.6481
 3383WAT     H110360   2.766   0.495   3.148  1.2860 -1.4510  0.2138
 3383WAT     H210361   2.808   0.363   3.210 -0.9979 -1.9856  0.7146
 3384WAT      O10362   3.966   4.332   2.206 -0.5466  0.5753  0.2362
 3384WAT     H110363   4.042   4.290   2.166 -0.2805 -0.1999  1.4775
 3384WAT     H210364   3.987   4.425   2.204 -0.1156  0.4695 -0.5334
 3385WAT      O10365   2.982   1.205   2.198 -0.5004  0.2710 -0.2939
 3385WAT     H110366   3.063   1.187   2.247 -0.7414  0.0186  0.0219
 3385WAT     H210367   3.012   1.239   2.114 -0.0724  0.5230 -0.0443
 3386WAT      O10368   3.552   2.667   0.612  0.3504 -0.3452  0.3114
 3386WAT     H110369   3.501   2.675   0.531 -1.5923  1.9438  1.6218
 3386WAT     H210370   3.559   2.573   0.628 -1.5846 -0.7826 -1.1025
 3387WAT      O10371   0.198   4.165   2.566 -0.2589  0.4884 -0.2958
 3387WAT     H110372   0.280   4.132   2.529 -1.0407 -0.0433 -1.6412
 3387WAT     H210373   0.201   4.259   2.548  0.4943  0.6538  0.5909
 3388WAT      O10374   0.433   0.142   0.955  0.4606 -0.5958 -0.0531
 3388WAT     H110375   0.512   0.172   0.999  1.8554 -0.4212 -2.4922
 3388WAT     H210376   0.379   0.105   1.025  2.5584 -0.4735  1.7364
 3389WAT      O10377   3.982   0.846   1.437  0.1514  1.1834  0.0233
 3389WAT     H110378   4.068   0.814   1.463 -0.1331  0.4832  0.1080
 3389WAT     H210379   3.922   0.812   1.503 -0.3738  0.5877 -0.7411
 3390WAT      O10380   1.580   1.981   1.328 -0.3188 -0.1603  0.0955
 3390WAT     H110381   1.591   2.031   1.409  0.4885 -0.0671 -0.0661
 3390WAT     H210382   1.499   1.932   1.341 -0.4965  0.2878  0.7303
 3391WAT      O10383   2.567   2.195   3.884 -0.3202  0.3889  0.6240
 3391WAT     H110384   2.496   2.244   3.842 -0.6172 -0.2944  0.3204
 3391WAT     H210385   2.613   2.261   3.936  0.8629  1.5575 -1.7684
 3392WAT      O10386   2.302   1.777   4.279 -0.2294  0.0040  0.5150
 3392WAT     H110387   2.274   1.850   4.334  0.7934  1.3584 -0.7013
 3392WAT     H210388   2.398   1.776   4.288 -0.1860 -0.8292  0.0531
 3393WAT      O10389   3.248   2.739   0.917 -0.1135 -0.2263 -0.2146
 3393WAT     H110390   3.225   2.739   1.010  0.9111 -0.9336  0.0584
 3393WAT     H210391   3.341   2.716   0.916  0.0491  0.4357 -1.3830
 3394WAT      O10392   2.830   0.543   4.825 -0.5669 -0.1484  0.0519
 3394WAT     H110393   2.812   0.622   4.773  1.0946  0.7150  0.7241
 3394WAT     H210394   2.923   0.549   4.846 -0.5940 -1.9059  0.7899
 3395WAT      O10395   3.050   2.764   1.148  0.2441 -0.2284 -0.3304
 3395WAT     H110396   2.989   2.812   1.091  0.5787  0.6887  0.0604
 3395WAT     H210397   3.063   2.822   1.223 -0.2671 -1.4558  0.7451
 3396WAT      O10398   3.533   4.413   4.245  0.0704  0.1081  0.7454
 3396WAT     H110399   3.592   4.363   4.189 -1.9058 -2.2098  0.5406
 3396WAT     H210400   3.538   4.503   4.212  0.1413 -0.8763 -2.1814
 3397WAT      O10401   3.738   4.143   0.518 -0.1832 -0.2691 -0.3635
 3397WAT     H110402   3.687   4.072   0.556  1.5840 -0.8926  0.9220
 3397WAT     H210403   3.749   4.118   0.426 -0.0291 -1.4070 -0.0452
 3398WAT      O10404   0.545   0.758   3.270  0.2260  0.0966  0.7720
 3398WAT     H110405   0.526   0.774   3.362 -1.5330 -0.5782  0.5497
 3398WAT     H210406   0.513   0.836   3.225 -1.0254 -0.5362  0.5212
 3399WAT      O10407   3.750   1.223   1.820  0.2008  0.1801  0.2772
 3399WAT     H110408   3.820   1.288   1.819  1.3610 -1.0103  0.9215
 3399WAT     H210409   3.705   1.234   1.736  0.9142  1.2156  0.0156
 3400WAT      O10410   1.007   3.438   4.608  0.1218 -0.2026 -0.5642
 3400WAT     H110411   1.051   3.503   4.662 -1.2373 -0.9532  1.5481
 3400WAT     H210412   1.073   3.369   4.597  0.6657  0.3033 -0.5460
 3401WAT      O10413   1.128   0.080   4.364  0.1174 -0.0206 -0.2978
 3401WAT     H110414   1.199   0.017   4.367 -1.3987 -1.8462 -0.6915
 3401WAT     H210415   1.078   0.064   4.444  0.7734  2.0738  0.5926
 3402WAT      O10416   2.461   1.307   3.583  0.0579  0.0225 -0.1856
 3402WAT     H110417   2.546   1.340   3.558 -0.3839  0.2634 -1.4289
 3402WAT     H210418   2.411   1.384   3.610  0.2041 -0.1141  0.5152
 3403WAT      O10419   1.498   0.678   0.963  0.0959  0.2090 -0.0259
 3403WAT     H110420   1.558   0.607   0.987 -0.3104 -0.7808 -1.7741
 3403WAT     H210421   1.414   0.634   0.945 -0.6870  1.3594  0.6598
 3404WAT      O10422   0.580   2.617   4.554  0.9260  0.3339  0.4461
 3404WAT     H110423   0.640   2.647   4.486  1.0442 -0.6079  0.1309
 3404WAT     H210424   0.563   2.696   4.606 -0.9161  1.6521 -1.9203
 3405WAT      O10425   3.551   3.721   3.290 -0.1667 -0.6245 -0.1513
 3405WAT     H110426   3.585   3.671   3.365  1.6758 -1.3350 -1.3938
 3405WAT     H210427   3.585   3.809   3.303 -2.0850 -0.0071  1.1926
 3406WAT      O10428   1.521   2.423   5.184 -0.0241  0.7516 -0.4420
 3406WAT     H110429   1.608   2.399   5.151  0.5377  0.0670  1.4117
 3406WAT     H210430   1.460   2.370   5.133  0.8696 -0.9200  0.1300
 3407WAT      O10431   1.441   1.390   1.123 -0.2516  0.2114 -0.1074
 3407WAT     H110432   1.467   1.453   1.189 -1.7228  1.2979 -0.5173
 3407WAT     H210433   1.504   1.402   1.052  0.9685 -0.5465  0.8072
 3408WAT      O10434   3.854   5.037   2.815  0.5177  0.0660 -0.0427
 3408WAT     H110435   3.795   5.091   2.867  1.1447  1.5335 -0.7882
 3408WAT     H210436   3.809   5.026   2.731 -0.3423 -2.0122  0.6288
 3409WAT      O10437   0.143   3.850   0.758 -0.7969 -0.2764  0.8029
 3409WAT     H110438   0.171   3.910   0.690 -0.9947  0.2114  1.1469
 3409WAT     H210439   0.221   3.798   0.779 -0.7474 -0.4666  0.1787
 3410WAT      O10440   1.871   4.717   2.733  0.1106 -0.5896 -0.2699
 3410WAT     H110441   1.845   4.713   2.825 -1.9832 -0.4755 -0.8062
 3410WAT     H210442   1.904   4.630   2.714  4.2624  0.3599  1.4948
 3411WAT      O10443   0.236   1.374   1.798 -0.4467  0.1249 -0.8372
 3411WAT     H110444   0.218   1.300   1.856  1.4941 -0.8943 -1.4321
 3411WAT     H210445   0.267   1.334   1.717  0.7570  1.5831 -1.1425
 3412WAT      O10446   2.330   1.793   0.058 -0.2182 -0.1549 -0.7810
 3412WAT     H110447   2.398   1.737   0.094 -0.1309 -0.0878 -0.8417
 3412WAT     H210448   2.375   1.848  -0.005 -0.5756 -1.0608 -1.8541
 3413WAT      O10449   0.850   3.563   1.930 -0.2117 -0.2840  0.5824
 3413WAT     H110450   0.919   3.615   1.890 -0.1449 -1.4238 -0.8713
 3413WAT     H210451   0.895   3.486   1.966 -0.6145 -0.5950  0.4268
 3414WAT      O10452   0.397   4.075   2.923 -0.3469  0.5176 -0.9257
 3414WAT     H110453   0.352   4.048   2.843 -0.8556 -0.7767 -0.2235
 3414WAT     H210454   0.485   4.038   2.916  0.0012  1.3978 -1.4011
 3415WAT      O10455   4.379   4.035   0.690 -0.3500  0.0290  0.2519
 3415WAT     H110456   4.436   4.062   0.762  1.0394 -0.1282 -0.7617
 3415WAT     H210457   4.341   3.952   0.718 -0.8946  0.6363  1.3630
 3416WAT      O10458   3.613   0.081   1.852 -0.0481 -0.6784  0.1323
 3416WAT     H110459   3.535   0.090   1.798  1.8050  0.7024 -2.4903
 3416WAT     H210460   3.686   0.097   1.793  2.1999 -0.1183  2.8342
 3417WAT      O10461   3.935   3.194   0.221 -0.8349 -0.1170  0.1655
 3417WAT     H110462   3.919   3.109   0.261 -1.5789 -0.2705 -0.4283
 3417WAT     H210463   3.857   3.245   0.242 -0.5643  0.2926  0.1922
 3418WAT      O10464   3.443   3.977   2.686  0.2522  0.2055 -0.1879
 3418WAT     H110465   3.511   3.909   2.683  0.3074  0.2494  0.0804
 3418WAT     H210466   3.478   4.043   2.745  0.4957  0.7933 -0.9713
 3419WAT      O10467   0.815   3.239   4.391 -0.0777  0.4785  0.6382
 3419WAT     H110468   0.789   3.325   4.423  0.1220  0.6188  0.4227
 3419WAT     H210469   0.900   3.253   4.350  0.4440 -0.0063  1.5033
 3420WAT      O10470   4.135   0.854   1.745 -0.3155  0.2695  0.2355
 3420WAT     H110471   4.054   0.807   1.726  0.5470 -1.5861  0.8634
 3420WAT     H210472   4.179   0.863   1.661  0.2808 -1.6236  0.3108
 3421WAT      O10473   2.506   3.976   5.276  0.4743  0.3375  0.5560
 3421WAT     H110474   2.576   3.994   5.213 -0.4311 -0.1526 -0.6453
 3421WAT     H210475   2.450   4.054   5.273  0.0595  0.0362  0.2119
 3422WAT      O10476   0.636   4.453   3.943 -0.3627  0.1521 -0.2803
 3422WAT     H110477   0.700   4.396   3.985  0.5377  1.3448  0.0127
 3422WAT     H210478   0.580   4.394   3.893 -0.5080 -1.1431  1.3568
 3423WAT      O10479   1.908   0.874   3.011  0.2606 -0.3622  0.3877
 3423WAT     H110480   1.850   0.919   3.072  0.2838  2.2550 -1.3748
 3423WAT     H210481   1.864   0.878   2.927  2.5696  1.1105 -0.8768
 3424WAT      O10482   3.115   3.926   5.235 -0.5425 -1.0884 -0.6759
 3424WAT     H110483   3.094   3.947   5.144  1.3564 -1.5794 -1.2818
 3424WAT     H210484   3.185   3.861   5.229 -0.1015 -0.8390  1.1268
 3425WAT      O10485   1.857   2.433   1.720 -0.0124  0.4036  0.1848
 3425WAT     H110486   1.810   2.354   1.747  1.4835 -0.4656  0.3473
 3425WAT     H210487   1.807   2.466   1.646  0.1122 -1.5126 -0.8267
 3426WAT      O10488   1.237   0.299   0.320 -0.4802  0.5063 -0.9472
 3426WAT     H110489   1.231   0.392   0.338 -0.3257  0.5524 -1.1278
 3426WAT     H210490   1.240   0.293   0.225  0.5303  0.3869 -0.9226
 3427WAT      O10491   4.462   3.552   2.466 -0.1753 -0.6877 -0.4799
 3427WAT     H110492   4.382   3.567   2.515  1.6786  0.2334  2.5520
 3427WAT     H210493   4.485   3.639   2.431 -0.4625 -0.9425 -1.3193
 3428WAT      O10494   0.036   1.520   4.828  0.0952 -0.1781  0.2733
 3428WAT     H110495   0.010   1.442   4.877 -1.8341  0.6914  0.7194
 3428WAT     H210496  -0.043   1.545   4.780  0.8261  1.2419 -0.2338
 3429WAT      O10497   4.186   2.288   4.679 -0.2187  0.0933  0.3124
 3429WAT     H110498   4.259   2.346   4.657 -0.1722 -0.4569 -1.0798
 3429WAT     H210499   4.173   2.301   4.773  1.5782  0.3093  0.5654
 3430WAT      O10500   2.824   0.633   0.602  0.6061 -0.2003  0.9998
 3430WAT     H110501   2.875   0.632   0.520  2.0977 -2.4365  1.8426
 3430WAT     H210502   2.739   0.669   0.577  0.9727 -0.9140 -1.5937
 3431WAT      O10503   4.370   4.380   0.236 -1.1150 -0.1775 -0.4283
 3431WAT     H110504   4.420   4.461   0.236 -1.5005  0.0773  0.7019
 3431WAT     H210505   4.436   4.311   0.232 -0.7471  0.1718 -0.4666
 3432WAT      O10506   1.653   1.975   3.330 -0.1745  0.0183 -0.3089
 3432WAT     H110507   1.561   1.961   3.352 -0.2244 -0.0412 -0.5438
 3432WAT     H210508   1.701   1.915   3.387 -0.3428 -0.5980 -0.7952
 3433WAT      O10509   0.466   2.330   3.585 -0.1593  0.7346 -0.0762
 3433WAT     H110510   0.398   2.351   3.649 -0.4353  1.0676 -0.4738
 3433WAT     H210511   0.434   2.250   3.543 -0.1279  0.6875 -0.0106
 3434WAT      O10512   1.162   4.622   0.124 -0.1092  0.2935  0.0354
 3434WAT     H110513   1.100   4.634   0.196 -1.8800 -1.7435 -1.0467
 3434WAT     H210514   1.210   4.543   0.148 -0.3756 -0.1211 -0.7759
 3435WAT      O10515   0.487   2.456   5.042  0.0717 -0.2289 -0.4922
 3435WAT     H110516   0.399   2.420   5.030 -0.2620  0.7785 -1.2207
 3435WAT     H210517   0.520   2.468   4.953  0.5518  0.3358 -0.2404
 3436WAT      O10518   3.252   2.776   1.649 -0.0858  0.0578  0.0098
 3436WAT     H110519   3.267   2.727   1.729  0.3918 -1.1012 -0.7626
 3436WAT     H210520   3.334   2.825   1.635  0.0088 -0.1134 -0.0314
 3437WAT      O10521   2.749   2.886   5.115  0.0313 -0.1338 -0.1717
 3437WAT     H110522   2.814   2.832   5.159  0.4443  1.5011  1.3625
 3437WAT     H210523   2.789   2.908   5.031 -1.0538 -3.8873 -1.8992
 3438WAT      O10524   3.562   0.777   4.233  0.6223 -0.0154  0.1526
 3438WAT     H110525   3.614   0.702   4.202  0.4409 -0.0921  0.0296
 3438WAT     H210526   3.616   0.853   4.214  1.8933 -0.2358  2.4234
 3439WAT      O10527   3.361   2.181   3.734  0.0818  0.3275  0.1496
 3439WAT     H110528   3.396   2.269   3.746  0.4731  0.3750 -1.1215
 3439WAT     H210529   3.281   2.194   3.682  0.4015 -0.0887 -0.4585
 3440WAT      O10530   1.849   4.448   2.225 -0.0926 -0.1312 -0.1296
 3440WAT     H110531   1.869   4.452   2.132  1.0089  2.5497  0.1186
 3440WAT     H210532   1.754   4.453   2.230 -0.1573 -0.3606 -1.1109
 3441WAT      O10533   0.143   4.576   2.178  0.2748 -0.0562  0.2941
 3441WAT     H110534   0.063   4.616   2.210 -0.4737 -0.6274 -0.7868
 3441WAT     H210535   0.122   4.547   2.089  1.5256 -0.6608  0.1619
 3442WAT      O10536   0.043   4.863   4.978  0.1941  0.5928  0.2551
 3442WAT     H110537   0.035   4.900   5.066  0.6278 -0.9829  1.0046
 3442WAT     H210538  -0.045   4.871   4.941  0.0134  1.3039  0.8239
 3443WAT      O10539   1.691   3.959   1.329  0.3055  0.4506 -0.0094
 3443WAT     H110540   1.729   3.878   1.362 -1.0455 -0.0771  0.3326
 3443WAT     H210541   1.759   3.997   1.273  0.8923 -0.9983 -0.3089
 3444WAT      O10542   2.601   0.774   1.665 -0.6993 -0.1439  0.1099
 3444WAT     H110543   2.645   0.694   1.636  0.7991  0.1634  1.4176
 3444WAT     H210544   2.530   0.743   1.721 -1.9811 -0.6338 -1.7045
 3445WAT      O10545   1.167   0.551   3.556  0.4211 -0.3785 -0.3709
 3445WAT     H110546   1.156   0.644   3.571  0.3438 -0.1804 -1.5772
 3445WAT     H210547   1.105   0.509   3.615  1.4493  0.2469  1.2451
 3446WAT      O10548   2.381   2.970   0.814 -0.1154  0.1797  0.7152
 3446WAT     H110549   2.358   2.916   0.890 -0.6531 -1.3769 -0.4868
 3446WAT     H210550   2.340   2.925   0.740 -0.8881  2.4510 -0.3395
 3447WAT      O10551   1.140   0.590   0.920 -0.4772 -0.4246 -0.2206
 3447WAT     H110552   1.059   0.541   0.914 -1.0518  0.6514 -2.0674
 3447WAT     H210553   1.116   0.679   0.894  1.4831 -0.3306 -1.9537
 3448WAT      O10554   2.096   3.456   0.757 -0.3964  0.3975  0.1780
 3448WAT     H110555   2.066   3.369   0.780 -2.8564  0.6159 -1.7105
 3448WAT     H210556   2.015   3.509   0.753  0.7284  2.1357 -1.0823
 3449WAT      O10557   3.447   4.486   2.131  0.3537 -0.1188 -0.1498
 3449WAT     H110558   3.431   4.411   2.074 -1.7834 -0.0588  0.3061
 3449WAT     H210559   3.458   4.559   2.071  1.8482 -0.6580 -0.5772
 3450WAT      O10560   2.879   1.848   0.348  0.2350 -0.7947  0.0763
 3450WAT     H110561   2.942   1.911   0.312 -1.0190 -0.4724 -1.6401
 3450WAT     H210562   2.931   1.796   0.410  1.8527  0.3611 -0.2403
 3451WAT      O10563   1.212   2.385   2.259 -0.4065 -0.5547  0.5482
 3451WAT     H110564   1.120   2.381   2.232 -0.7499 -0.5384  1.6750
 3451WAT     H210565   1.212   2.441   2.337  0.8103  0.8524 -0.4237
 3452WAT      O10566   3.600   4.518   0.212 -0.5880  0.1682 -0.6787
 3452WAT     H110567   3.588   4.553   0.301  0.7203  1.0162 -0.8036
 3452WAT     H210568   3.672   4.456   0.221 -0.8170 -0.1499 -1.0521
 3453WAT      O10569   1.978   0.022   2.341 -0.2865  0.0979 -0.0155
 3453WAT     H110570   2.020   0.065   2.416  1.3922 -0.7433 -0.4036
 3453WAT     H210571   2.006   0.073   2.265 -1.4273  0.5464 -0.1514
 3454WAT      O10572   4.388   4.589   5.250 -0.0564 -0.0566  0.1374
 3454WAT     H110573   4.318   4.649   5.275 -0.1093  0.6552 -1.6127
 3454WAT     H210574   4.403   4.536   5.329 -1.7048  0.5854  0.9280
 3455WAT      O10575   0.164   3.701   3.371  0.2329 -0.0323 -0.0173
 3455WAT     H110576   0.073   3.721   3.350  0.1170 -0.6542 -0.1459
 3455WAT     H210577   0.203   3.675   3.287  1.1228  2.2918 -0.3983
 3456WAT      O10578   2.971   4.210   3.551  0.0058  0.1851  0.7114
 3456WAT     H110579   3.040   4.254   3.501  0.3320 -0.2765  0.7484
 3456WAT     H210580   3.012   4.185   3.633 -0.3981  0.5085  1.0175
 3457WAT      O10581   1.975   4.696   4.588 -0.2496  0.5052 -0.5617
 3457WAT     H110582   2.028   4.761   4.541  1.3565 -0.3055  0.0640
 3457WAT     H210583   1.939   4.640   4.519  2.3931 -0.9116 -0.8947
 3458WAT      O10584   1.131   3.604   0.288  0.0393 -0.4710  0.0934
 3458WAT     H110585   1.104   3.532   0.231 -0.2500 -0.3427  0.0637
 3458WAT     H210586   1.135   3.680   0.231  0.5542 -0.5023  0.0819
 3459WAT      O10587   3.869   4.793   3.113  0.1007  0.5493 -0.2867
 3459WAT     H110588   3.898   4.793   3.021 -3.4103 -1.1089 -1.5727
 3459WAT     H210589   3.912   4.869   3.152  1.4906  1.4967 -3.3580
 3460WAT      O10590   2.560   5.034   1.260  0.4035  0.0754  0.1376
 3460WAT     H110591   2.539   5.032   1.166  0.0043 -0.0500  0.2280
 3460WAT     H210592   2.570   5.127   1.280 -2.5152  0.3640  0.6178
 3461WAT      O10593   1.202   0.495   1.549 -0.2728 -0.4236 -0.3307
 3461WAT     H110594   1.227   0.539   1.468 -0.7397 -0.5148 -0.5286
 3461WAT     H210595   1.285   0.469   1.589  0.0946  1.7618  0.4499
 3462WAT      O10596   2.839   2.514   2.433 -0.5786 -0.2026  1.0020
 3462WAT     H110597   2.840   2.496   2.339 -1.8987  1.0189  0.7133
 3462WAT     H210598   2.892   2.593   2.443 -1.3864  0.3408  1.0986
 3463WAT      O10599   0.448   1.173   4.081  0.2444 -0.3307  0.1160
 3463WAT     H110600   0.387   1.116   4.033  0.7054 -0.1842 -0.6628
 3463WAT     H210601   0.430   1.260   4.046  1.1437 -0.3370 -0.3904
 3464WAT      O10602   4.195   1.244   0.351 -0.4847 -0.0157 -0.4229
 3464WAT     H110603   4.249   1.183   0.401  0.3844  1.6913  0.8174
 3464WAT     H210604   4.105   1.221   0.374 -0.1511 -0.4133  0.5417
 3465WAT      O10605   1.911   3.673   5.031  0.3884  0.1838 -0.7180
 3465WAT     H110606   1.996   3.629   5.040  1.0768  1.3895 -1.0743
 3465WAT     H210607   1.902   3.723   5.112 -1.6109 -2.5293  0.9068
 3466WAT      O10608   1.508   2.670   0.997  0.0532 -0.0373  0.0145
 3466WAT     H110609   1.487   2.764   0.993 -0.9241 -0.2892 -1.8505
 3466WAT     H210610   1.434   2.631   1.043  0.7930  0.1375  1.4378
 3467WAT      O10611   3.181   3.226   3.746 -0.3010  0.3451 -0.4932
 3467WAT     H110612   3.251   3.291   3.738 -0.1748  0.5903  1.8530
 3467WAT     H210613   3.227   3.144   3.764 -0.5700  0.3775  0.3819
 3468WAT      O10614   2.257   3.709   2.498  0.3395  0.4055  0.1719
 3468WAT     H110615   2.272   3.695   2.405 -0.5679 -0.5997  0.1600
 3468WAT     H210616   2.284   3.800   2.513 -2.7223  1.8419 -1.8096
 3469WAT      O10617   1.723   2.093   2.127 -0.2379 -0.1883  0.3602
 3469WAT     H110618   1.791   2.161   2.120 -0.6246  0.1707  0.0557
 3469WAT     H210619   1.643   2.137   2.099 -0.4196 -0.8922 -0.2404
 3470WAT      O10620   0.574   4.471   2.790  0.0959 -0.4198  1.0607
 3470WAT     H110621   0.602   4.383   2.765 -2.2242 -0.8481 -0.2764
 3470WAT     H210622   0.485   4.460   2.822 -0.5434  1.5319  0.1125
 3471WAT      O10623   1.399   4.269   2.796  0.7228 -0.3994 -0.0190
 3471WAT     H110624   1.484   4.301   2.765  0.9058 -1.9655 -1.2694
 3471WAT     H210625   1.340   4.283   2.722 -0.3740  1.4954  1.1467
 3472WAT      O10626   2.725   0.799   3.131 -0.5211  0.2948  0.3365
 3472WAT     H110627   2.686   0.741   3.065  0.0575  1.6004 -1.2353
 3472WAT     H210628   2.819   0.791   3.117 -0.3595  0.0630  1.5049
 3473WAT      O10629   3.078   3.771   4.943  0.1627 -0.6166 -0.0838
 3473WAT     H110630   3.050   3.858   4.969 -1.0599 -1.5986  2.1578
 3473WAT     H210631   3.173   3.778   4.934  0.1668  0.7992  0.7716
 3474WAT      O10632   2.104   4.224   2.996  0.0811  0.0520 -0.6198
 3474WAT     H110633   2.009   4.214   2.987 -0.0728  0.0899  0.6784
 3474WAT     H210634   2.114   4.290   3.065  1.0552  0.2758 -0.9634
 3475WAT      O10635   1.240   3.764   3.328  0.2981  0.1431  0.6771
 3475WAT     H110636   1.214   3.761   3.236 -0.9912 -1.6876  1.0616
 3475WAT     H210637   1.161   3.792   3.374 -0.2878 -2.6674  1.5671
 3476WAT      O10638   2.678   0.926   4.890 -0.6821 -0.0571  0.5183
 3476WAT     H110639   2.638   0.891   4.811 -2.2749 -0.6132  1.5051
 3476WAT     H210640   2.766   0.952   4.864 -0.3390 -2.3769 -0.8849
 3477WAT      O10641   0.153   3.386   2.269  0.6803  0.2798  0.6104
 3477WAT     H110642   0.067   3.357   2.299  1.0988 -0.2241  1.3611
 3477WAT     H210643   0.165   3.472   2.310 -0.1127  1.0950 -0.7673
 3478WAT      O10644   1.158   2.011   3.767  0.5013  0.3983  0.6749
 3478WAT     H110645   1.146   1.997   3.673  0.1565  0.4022  0.7190
 3478WAT     H210646   1.198   2.097   3.773  1.4881 -0.0316  0.4727
 3479WAT      O10647   2.247   0.601   2.237  0.1626  0.0070  0.0614
 3479WAT     H110648   2.231   0.512   2.268  0.3754  0.8251  2.7315
 3479WAT     H210649   2.180   0.614   2.169 -1.3727 -1.4351  1.2015
 3480WAT      O10650   2.306   2.916   1.404  0.4952 -0.1554 -0.2473
 3480WAT     H110651   2.330   2.828   1.434  1.5903 -0.0773 -0.8238
 3480WAT     H210652   2.248   2.901   1.329  2.2619 -0.4531 -1.6184
 3481WAT      O10653   4.024   1.348   4.321 -0.5873  0.4770 -0.5901
 3481WAT     H110654   4.055   1.402   4.393 -0.4764  1.8155 -1.5937
 3481WAT     H210655   4.094   1.284   4.307 -1.3612 -0.9479  1.5636
 3482WAT      O10656   0.162   2.901   3.193  0.5324 -0.1040 -0.1131
 3482WAT     H110657   0.256   2.905   3.208  0.4422 -1.5060  0.9872
 3482WAT     H210658   0.139   2.809   3.205 -0.6973 -0.1566 -2.2786
 3483WAT      O10659   3.683   0.807   3.937 -0.0068  0.5996 -0.1009
 3483WAT     H110660   3.605   0.850   3.902  0.6562  0.8314 -1.3562
 3483WAT     H210661   3.652   0.721   3.966 -1.0842  1.3762  1.2075
 3484WAT      O10662   1.177   0.598   4.187 -0.4371 -0.1603  0.6011
 3484WAT     H110663   1.203   0.623   4.099 -1.4882  1.2926  0.6650
 3484WAT     H210664   1.257   0.564   4.227 -0.1555 -1.8123 -1.1988
 3485WAT      O10665   0.900   3.033   4.571  0.6049 -0.4236 -0.2204
 3485WAT     H110666   0.903   3.073   4.658 -0.8144 -0.8670  0.0606
 3485WAT     H210667   0.885   3.107   4.511  0.5815 -0.2330  0.0199
 3486WAT      O10668   4.039   3.152   2.006 -0.1037  0.4640  0.2054
 3486WAT     H110669   4.025   3.211   1.931  0.3823 -0.5669 -0.7129
 3486WAT     H210670   4.078   3.074   1.969 -0.4790 -0.3508  1.4530
 3487WAT      O10671   2.251   3.970   1.091 -0.3255  0.1324  0.5438
 3487WAT     H110672   2.177   4.015   1.133 -1.2356 -0.6686 -0.1469
 3487WAT     H210673   2.210   3.915   1.024  0.9964  0.4433 -0.5556
 3488WAT      O10674   3.644   0.362   2.480 -0.5630  0.4090 -0.3179
 3488WAT     H110675   3.678   0.366   2.569 -0.6731  0.3338 -0.2719
 3488WAT     H210676   3.667   0.447   2.442  0.0790  0.1858 -0.4375
 3489WAT      O10677   0.212   1.683   1.243  0.0403 -0.0283  0.1189
 3489WAT     H110678   0.290   1.669   1.189  0.7896  1.0998  0.8463
 3489WAT     H210679   0.229   1.634   1.323 -1.1920 -1.9300 -0.7166
 3490WAT      O10680   1.652   5.115   4.523 -0.6302 -0.0437  0.1665
 3490WAT     H110681   1.748   5.114   4.519 -0.5578  1.3623  0.9987
 3490WAT     H210682   1.624   5.105   4.431  0.3004 -0.3635 -0.0925
 3491WAT      O10683   1.442   2.165   0.660  0.1641  0.7338  0.0369
 3491WAT     H110684   1.350   2.191   0.668  0.3913  1.4806  0.3218
 3491WAT     H210685   1.451   2.138   0.569 -0.5951 -0.4082  0.2690
 3492WAT      O10686   4.015   0.837   4.633  0.0361  0.1205  0.2796
 3492WAT     H110687   3.984   0.917   4.676 -0.5781  0.1214 -0.1517
 3492WAT     H210688   4.096   0.863   4.590  0.9438 -0.0014  1.8356
 3493WAT      O10689   4.204   1.785   2.707 -0.6332  0.1796  0.5991
 3493WAT     H110690   4.121   1.758   2.667 -0.3520  0.9016 -0.5070
 3493WAT     H210691   4.182   1.864   2.757 -0.7039  0.0733  0.7391
 3494WAT      O10692   2.192   3.089   3.941  0.1070 -0.4907  0.6726
 3494WAT     H110693   2.139   3.011   3.958 -0.4976 -0.8272 -2.1999
 3494WAT     H210694   2.265   3.057   3.888 -0.0918  0.8501 -0.4650
 3495WAT      O10695   3.137   1.726   1.441  0.3544 -0.0375  0.3863
 3495WAT     H110696   3.112   1.663   1.373  0.3134 -0.3716  0.7105
 3495WAT     H210697   3.097   1.809   1.413  1.9222  0.3136 -1.0345
 3496WAT      O10698   1.745   3.516   2.002  0.0590  0.5309  0.6500
 3496WAT     H110699   1.711   3.436   1.962  1.5876 -0.0106  0.3598
 3496WAT     H210700   1.807   3.485   2.068  1.7379  1.4328 -0.4193
 3497WAT      O10701   1.419   0.740   0.127 -0.1234 -0.4327 -0.7036
 3497WAT     H110702   1.484   0.791   0.175  0.3792 -1.5650 -0.1319
 3497WAT     H210703   1.418   0.779   0.040  0.2927  0.4910 -0.3166
 3498WAT      O10704   3.174   4.963   1.044  0.4658 -0.3920 -0.6565
 3498WAT     H110705   3.223   5.043   1.025  1.3048 -1.2918 -2.5584
 3498WAT     H210706   3.184   4.950   1.138 -0.9935  2.5274  0.0277
 3499WAT      O10707   3.755   5.067   5.121  0.5841 -0.5657 -0.4563
 3499WAT     H110708   3.725   5.048   5.032  2.3352 -0.7202 -1.0608
 3499WAT     H210709   3.775   4.981   5.158 -1.2219 -0.6001  0.5406
 3500WAT      O10710   2.458   2.943   4.004  0.9697 -0.3406  0.0168
 3500WAT     H110711   2.454   2.996   3.925  1.8151  0.3456  0.4178
 3500WAT     H210712   2.461   3.006   4.076 -1.2876 -0.9447  0.7235
 3501WAT      O10713   4.423   3.816   1.538 -0.4810 -0.4635 -0.3444
 3501WAT     H110714   4.364   3.831   1.465 -1.4282 -0.9094  0.3007
 3501WAT     H210715   4.461   3.902   1.557  0.0473 -0.4122 -1.5627
 3502WAT      O10716   0.252   4.370   4.553 -0.4657 -0.3283  0.2562
 3502WAT     H110717   0.203   4.417   4.486 -0.4708  0.6219  0.9057
 3502WAT     H210718   0.258   4.280   4.520  0.2200  0.2871 -1.3944
 3503WAT      O10719   0.870   4.750   1.715 -0.5475  0.0359  0.2436
 3503WAT     H110720   0.878   4.819   1.649 -2.2552  0.7779  0.7477
 3503WAT     H210721   0.938   4.687   1.692  1.4617  2.1196  0.0848
 3504WAT      O10722   2.546   5.060   0.999 -0.1610 -0.2489 -0.1952
 3504WAT     H110723   2.611   4.991   0.985 -0.3771 -0.6430  0.7046
 3504WAT     H210724   2.576   5.132   0.944  1.0037 -0.4450  0.1619
 3505WAT      O10725   0.391   2.196   1.968 -0.2295 -0.0816  0.5190
 3505WAT     H110726   0.367   2.118   2.017 -0.9774  1.2990  2.4771
 3505WAT     H210727   0.450   2.244   2.026 -1.6066  1.8979  0.3975
 3506WAT      O10728   1.837   3.394   1.617  0.1543  0.1466 -0.0668
 3506WAT     H110729   1.874   3.438   1.694  1.3882  0.2454 -0.6959
 3506WAT     H210730   1.767   3.453   1.588  0.2231  0.5192  0.4877
 3507WAT      O10731   2.093   1.723   0.244 -0.4342  0.1456 -0.4063
 3507WAT     H110732   2.065   1.632   0.256  2.0706 -0.4890  1.5169
 3507WAT     H210733   2.169   1.716   0.186 -1.1779  1.2398 -1.5586
 3508WAT      O10734   4.520   2.722   4.807  0.0655 -0.6247 -0.0308
 3508WAT     H110735   4.487   2.812   4.804 -0.0599 -0.6003  1.4913
 3508WAT     H210736   4.453   2.674   4.856  0.9710 -1.1604  0.7041
 3509WAT      O10737   0.187   3.935   2.738  0.1201  0.1034  0.1985
 3509WAT     H110738   0.168   4.012   2.685  1.9143  0.2988 -0.2092
 3509WAT     H210739   0.218   3.869   2.676 -0.0584 -0.4897  0.7173
 3510WAT      O10740   2.405   0.943   0.568 -0.0672 -1.1524 -0.3836
 3510WAT     H110741   2.328   0.978   0.524 -0.8633 -0.4768  1.4633
 3510WAT     H210742   2.473   1.009   0.552 -0.8918  0.0977  0.9893
 3511WAT      O10743   0.992   3.812   2.099 -0.2231 -0.1854 -0.1181
 3511WAT     H110744   1.039   3.737   2.065  0.7863  0.4995 -0.2588
 3511WAT     H210745   1.049   3.887   2.082 -1.0842  0.5850  0.2610
 3512WAT      O10746   1.722   2.970   0.424  0.0384  0.2780  0.1105
 3512WAT     H110747   1.683   2.886   0.448  2.2190 -0.4169  1.6006
 3512WAT     H210748   1.647   3.029   0.412 -1.4813 -1.1936  1.7557
 3513WAT      O10749   1.873   1.049   0.129  0.1198 -0.6326 -0.6837
 3513WAT     H110750   1.841   1.082   0.212 -0.6207 -1.3040 -0.6908
 3513WAT     H210751   1.926   0.973   0.152 -0.8698 -1.3975 -0.8731
 3514WAT      O10752   0.172   3.918   1.251  0.3347 -0.2817  0.3571
 3514WAT     H110753   0.216   3.991   1.207 -1.9775  0.8638 -0.1981
 3514WAT     H210754   0.157   3.950   1.341  0.6710 -0.6790  0.5559
 3515WAT      O10755   3.150   4.487   0.868 -0.1410  0.2868 -0.1679
 3515WAT     H110756   3.208   4.484   0.944  0.1443 -1.9026 -0.3949
 3515WAT     H210757   3.136   4.580   0.852  1.9138  0.8567  0.9463
 3516WAT      O10758   2.750   3.902   1.187 -0.7206 -0.3157  0.3418
 3516WAT     H110759   2.734   3.985   1.143 -0.1289 -0.3310  0.0972
 3516WAT     H210760   2.808   3.853   1.128 -0.1721 -0.4626  0.9840
 3517WAT      O10761   3.057   0.678   5.150  0.1549  0.3043 -0.0789
 3517WAT     H110762   3.025   0.759   5.110 -0.8289 -1.2067 -2.6680
 3517WAT     H210763   3.151   0.679   5.134  0.2510  1.2214  0.5025
 3518WAT      O10764   1.319   2.155   2.202  0.0998 -0.0422 -0.3693
 3518WAT     H110765   1.365   2.174   2.121 -0.5883  0.4951 -0.6501
 3518WAT     H210766   1.284   2.240   2.230 -1.3826 -0.5461 -0.5942
 3519WAT      O10767   2.256   3.292   1.342  1.1097 -0.6562  0.2529
 3519WAT     H110768   2.164   3.279   1.364  0.7549  0.1530 -0.6768
 3519WAT     H210769   2.262   3.270   1.249  1.5379  0.6563 -0.0612
 3520WAT      O10770   0.495   3.535   1.435  0.1980  0.7733 -0.4832
 3520WAT     H110771   0.518   3.598   1.504  0.6344  1.2571 -1.0481
 3520WAT     H210772   0.402   3.517   1.448  0.7138 -0.7774  1.5095
 3521WAT      O10773   3.714   0.591   3.091  0.0248 -0.5828  0.3254
 3521WAT     H110774   3.694   0.680   3.062 -0.9134 -0.6591  0.7119
 3521WAT     H210775   3.637   0.540   3.067 -0.5769 -0.7551  2.4616
 3522WAT      O10776   0.741   4.546   2.493  0.4330  0.4321  0.5611
 3522WAT     H110777   0.764   4.499   2.412  0.1161 -0.0632  0.7581
 3522WAT     H210778   0.816   4.530   2.551 -0.4698 -1.3860  1.2898
 3523WAT      O10779   1.695   1.798   5.275 -0.4247  0.3644  0.1522
 3523WAT     H110780   1.724   1.795   5.366 -1.2490 -0.1570  0.4109
 3523WAT     H210781   1.669   1.889   5.261 -0.4619  0.4072  0.4938
 3524WAT      O10782   3.756   3.454   0.744 -0.1244  0.0134  0.1989
 3524WAT     H110783   3.850   3.442   0.755  0.4691  2.8350 -1.0796
 3524WAT     H210784   3.733   3.525   0.803 -1.2365  0.0971 -0.3001
 3525WAT      O10785   2.203   3.981   3.027  0.1676 -0.5298  0.0799
 3525WAT     H110786   2.177   4.073   3.028 -0.6029 -0.7395 -0.4453
 3525WAT     H210787   2.293   3.982   3.059 -0.1959  0.2884  1.1283
 3526WAT      O10788   0.143   0.423   1.225 -0.1070 -0.1946  0.0425
 3526WAT     H110789   0.133   0.363   1.299 -0.7279 -0.3635 -0.1786
 3526WAT     H210790   0.082   0.494   1.243  1.4386  0.9999  0.8986
 3527WAT      O10791   3.350   0.927   2.785  0.0751 -0.3987  0.3318
 3527WAT     H110792   3.397   0.968   2.858 -0.3856 -0.5828  0.7341
 3527WAT     H210793   3.413   0.865   2.748  0.6155  0.3081  0.0155
 3528WAT      O10794   3.322   1.927   3.804 -0.1934  0.1616  0.4152
 3528WAT     H110795   3.410   1.892   3.795  0.2682  1.2373  0.5790
 3528WAT     H210796   3.325   2.012   3.761 -1.5226 -0.3345 -0.7366
 3529WAT      O10797   0.322   0.965   5.216 -0.0031  0.4068 -0.2309
 3529WAT     H110798   0.250   0.996   5.161  0.1280  0.8817 -0.1370
 3529WAT     H210799   0.353   0.885   5.172 -0.2016  0.5239 -0.5878
 3530WAT      O10800   0.377   1.228   4.495 -0.4339  0.1228  0.2186
 3530WAT     H110801   0.368   1.264   4.407  2.3727  1.7457  0.5005
 3530WAT     H210802   0.293   1.248   4.537 -1.0432  1.2065 -1.4242
 3531WAT      O10803   3.274   3.230   2.941 -0.5802  0.5449 -0.1942
 3531WAT     H110804   3.359   3.200   2.971  0.0978  1.1515 -1.4457
 3531WAT     H210805   3.246   3.293   3.007  0.9875  2.0399 -0.8930
 3532WAT      O10806   2.659   3.784   4.547  0.4681  0.0140  0.1634
 3532WAT     H110807   2.670   3.690   4.561 -3.5314 -0.7800 -0.6226
 3532WAT     H210808   2.683   3.824   4.630 -1.1504 -2.1222  1.7663
 3533WAT      O10809   1.397   3.177   1.345 -0.4811  0.2444 -0.0313
 3533WAT     H110810   1.486   3.182   1.310 -0.7901 -1.0313 -1.0881
 3533WAT     H210811   1.406   3.196   1.438  0.7319  1.2442 -0.3351
 3534WAT      O10812   1.670   4.841   0.663 -0.4845 -0.7139  0.4458
 3534WAT     H110813   1.614   4.777   0.619 -1.0459 -0.6539  1.0625
 3534WAT     H210814   1.753   4.794   0.677 -0.0335 -0.5061 -1.3018
 3535WAT      O10815   2.193   4.837   2.866  0.0883 -0.6673  0.0602
 3535WAT     H110816   2.260   4.819   2.799  0.5785  2.6322 -0.4917
 3535WAT     H210817   2.135   4.900   2.825 -1.1410 -0.5367  1.8969
 3536WAT      O10818   3.129   0.429   4.910  0.5651  0.0489 -1.0096
 3536WAT     H110819   3.176   0.377   4.845 -0.2810 -1.7460 -0.2382
 3536WAT     H210820   3.193   0.447   4.978  0.8365 -0.0709 -1.2315
 3537WAT      O10821   4.222   1.119   4.331  0.4553 -0.6066 -0.2563
 3537WAT     H110822   4.301   1.169   4.352  1.1651 -0.6942 -2.4912
 3537WAT     H210823   4.250   1.027   4.333 -0.4599 -0.9273  2.2139
 3538WAT      O10824   2.196   2.729   4.024 -0.5819  0.1813 -0.5881
 3538WAT     H110825   2.249   2.757   4.099 -2.6634 -1.8771  1.8285
 3538WAT     H210826   2.136   2.802   4.008  0.1377  0.7928 -0.5709
 3539WAT      O10827   0.256   2.221   5.110  0.1771 -0.7963  0.1304
 3539WAT     H110828   0.216   2.139   5.081  0.5924 -0.4961 -1.4205
 3539WAT     H210829   0.332   2.194   5.161  0.5812 -1.4042 -0.7626
 3540WAT      O10830   1.186   2.846   4.025 -0.0801  0.2764  0.2979
 3540WAT     H110831   1.125   2.779   3.994  0.3731 -0.4065  0.8434
 3540WAT     H210832   1.131   2.907   4.074 -0.1910 -1.0008  1.8520
 3541WAT      O10833   0.159   3.967   4.728 -0.4108  0.0837  0.2139
 3541WAT     H110834   0.065   3.946   4.733 -1.0843  2.2424 -1.5687
 3541WAT     H210835   0.164   4.038   4.664  2.2790  1.2442  1.5478
 3542WAT      O10836   3.075   4.338   5.007  0.3411 -0.2008  0.0746
 3542WAT     H110837   3.115   4.305   5.087  0.1166 -2.2259 -0.6074
 3542WAT     H210838   3.033   4.421   5.034  2.4856  0.5240  1.4167
 3543WAT      O10839   1.294   0.148   3.064  0.4360  0.3523  0.0974
 3543WAT     H110840   1.338   0.068   3.034  1.8743  0.7986  0.9134
 3543WAT     H210841   1.220   0.158   3.004  1.5777 -0.3134 -1.5115
 3544WAT      O10842   3.108   2.421   1.363 -0.4962 -0.3027 -0.0434
 3544WAT     H110843   3.108   2.508   1.402  1.0482  0.3730 -1.4440
 3544WAT     H210844   3.201   2.398   1.357 -0.8379 -1.6028 -0.6557
 3545WAT      O10845   0.728   3.437   2.659 -0.0449  0.3874 -0.3171
 3545WAT     H110846   0.678   3.518   2.650 -0.4942  0.3183  1.2788
 3545WAT     H210847   0.663   3.371   2.683  0.5338 -0.1275 -0.1479
 3546WAT      O10848   1.041   1.228   0.745  0.3714 -0.0868  0.1943
 3546WAT     H110849   0.954   1.193   0.765 -0.3390  0.9870 -0.9087
 3546WAT     H210850   1.083   1.238   0.831  0.0624 -2.1845  0.6354
 3547WAT      O10851   2.300   2.449   1.808  0.5261 -0.0165  0.4721
 3547WAT     H110852   2.306   2.354   1.796  3.0897 -0.3494  3.3866
 3547WAT     H210853   2.327   2.464   1.898 -3.0329  3.2891  1.2492
 3548WAT      O10854   3.998   4.317   4.872 -0.0458  0.6891  0.1449
 3548WAT     H110855   3.982   4.361   4.956 -0.3514 -0.3138  0.6306
 3548WAT     H210856   4.069   4.256   4.891 -0.7643 -0.2393 -0.0581
 3549WAT      O10857   1.224   3.134   2.305 -0.2469 -0.3278  0.5452
 3549WAT     H110858   1.167   3.090   2.242  2.4236 -0.7183 -1.8320
 3549WAT     H210859   1.235   3.070   2.376  1.8926 -2.8474 -1.8356
 3550WAT      O10860   4.278   3.140   4.084  0.4857 -0.6812 -0.3429
 3550WAT     H110861   4.276   3.047   4.105 -1.2644 -0.8120 -0.9335
 3550WAT     H210862   4.346   3.176   4.141 -0.1098 -2.0025  1.2828
 3551WAT      O10863   0.238   4.738   4.824  0.5250  0.7990 -0.3385
 3551WAT     H110864   0.210   4.651   4.795  0.7751  0.6229 -0.0650
 3551WAT     H210865   0.163   4.771   4.874 -0.3433  1.5626 -2.0601
 3552WAT      O10866   2.019   4.550   1.722  0.5241  0.0692  0.6023
 3552WAT     H110867   2.046   4.550   1.814  0.6282  0.2831  0.5727
 3552WAT     H210868   2.059   4.629   1.686  0.1737  0.1819  0.4639
 3553WAT      O10869   3.740   3.843   2.627 -0.1993  0.3009 -0.2967
 3553WAT     H110870   3.772   3.931   2.647 -0.7135  0.2135  1.0522
 3553WAT     H210871   3.765   3.829   2.536  1.9841  0.9236  0.1347
 3554WAT      O10872   4.488   2.827   1.276 -0.0094  0.2160  0.2232
 3554WAT     H110873   4.409   2.803   1.325 -1.0236 -0.2421 -1.5212
 3554WAT     H210874   4.476   2.920   1.256 -0.0151  0.1942  0.1252
 3555WAT      O10875   0.252   0.182   0.483 -0.3211 -0.3189 -0.1679
 3555WAT     H110876   0.192   0.156   0.414 -0.5093  2.4508 -1.1866
 3555WAT     H210877   0.299   0.257   0.447  0.9415  0.0559  2.0364
 3556WAT      O10878   0.428   1.480   4.721 -0.3908 -0.8291  0.3898
 3556WAT     H110879   0.377   1.429   4.658  0.6663  0.7017 -1.8653
 3556WAT     H210880   0.495   1.419   4.753  0.0150 -1.2488 -1.1894
 3557WAT      O10881   4.515   0.197   0.039 -0.2047  0.0212  0.2513
 3557WAT     H110882   4.452   0.127   0.020 -0.4104 -0.1864  1.6124
 3557WAT     H210883   4.466   0.278   0.027 -1.2403 -0.1452  2.7254
 3558WAT      O10884   2.583   0.724   0.486  0.4295 -0.4202  0.2700
 3558WAT     H110885   2.528   0.794   0.521  0.5172 -0.7049  1.0111
 3558WAT     H210886   2.625   0.762   0.409  0.4599  0.3386  0.6541
 3559WAT      O10887   1.232   2.625   3.370 -0.2427  0.3628  0.4940
 3559WAT     H110888   1.232   2.700   3.429 -3.1991 -0.0097  1.1290
 3559WAT     H210889   1.146   2.585   3.382  0.7022 -2.3294 -0.8558
 3560WAT      O10890   2.566   1.847   4.345  0.0768  0.8187 -0.6402
 3560WAT     H110891   2.586   1.763   4.304 -1.8948 -0.9547  1.7478
 3560WAT     H210892   2.636   1.861   4.408 -1.1699 -0.7206  1.1871
 3561WAT      O10893   0.476   2.607   0.580  0.4724  0.1179 -0.5442
 3561WAT     H110894   0.382   2.622   0.576  0.2098 -0.8527  1.1363
 3561WAT     H210895   0.511   2.650   0.501 -1.1814  1.7130 -0.4559
 3562WAT      O10896   1.634   3.547   1.564 -0.0815  0.8563 -0.0085
 3562WAT     H110897   1.565   3.599   1.607  0.5649  2.3475 -0.6949
 3562WAT     H210898   1.587   3.493   1.500 -0.7946  0.4399  0.8566
 3563WAT      O10899   1.376   1.129   0.203 -0.0841 -0.6566 -0.5254
 3563WAT     H110900   1.304   1.144   0.142 -0.4727  1.1025  0.3247
 3563WAT     H210901   1.454   1.158   0.155 -0.2860 -0.0382 -0.4847
 3564WAT      O10902   2.563   2.427   0.126  0.0466 -0.3203  0.0926
 3564WAT     H110903   2.625   2.355   0.111 -0.0469  0.0437 -2.4317
 3564WAT     H210904   2.616   2.506   0.120 -0.3662 -0.0638 -0.1724
 3565WAT      O10905   0.206   3.539   2.858  0.3878  0.5579 -0.2320
 3565WAT     H110906   0.279   3.477   2.860  0.0683  0.1856  1.4657
 3565WAT     H210907   0.202   3.568   2.767  0.5842 -1.8665 -1.0899
 3566WAT      O10908   0.351   2.608   3.985  0.1554  0.0257  0.5000
 3566WAT     H110909   0.342   2.666   3.909  0.2700 -0.3295  0.2152
 3566WAT     H210910   0.261   2.580   4.004  0.3214 -1.5946 -0.8472
 3567WAT      O10911   3.940   4.626   2.223  0.6681  0.5044 -0.4535
 3567WAT     H110912   3.907   4.700   2.273  0.3401 -0.9147  1.5652
 3567WAT     H210913   3.889   4.627   2.141 -1.8097  0.5608  0.9808
 3568WAT      O10914   3.504   3.844   4.698 -0.3846  0.5175 -0.3313
 3568WAT     H110915   3.435   3.783   4.723 -1.3943  0.9197 -2.0107
 3568WAT     H210916   3.460   3.929   4.691  0.6223  1.0988  0.1389
 3569WAT      O10917   4.184   1.167   5.102  0.1372  0.2830  0.7634
 3569WAT     H110918   4.123   1.163   5.176 -1.0839  0.4939 -0.1948
 3569WAT     H210919   4.218   1.256   5.104  1.7823 -0.3194  2.3203
 3570WAT      O10920   2.951   0.099   2.100  0.6976 -0.4917  0.0381
 3570WAT     H110921   3.016   0.087   2.169  1.4657 -0.1651 -0.6203
 3570WAT     H210922   2.945   0.014   2.057  2.4154  0.0536 -1.3811
 3571WAT      O10923   1.367   1.588   2.297  0.0132 -0.1911 -0.3597
 3571WAT     H110924   1.456   1.560   2.317  0.0017 -1.2329 -1.6157
 3571WAT     H210925   1.311   1.527   2.344 -0.0715  0.5513  0.5463
 3572WAT      O10926   0.063   1.522   3.654 -0.2172 -0.1161  0.0875
 3572WAT     H110927   0.148   1.543   3.616 -0.0457  1.3009  1.1740
 3572WAT     H210928   0.033   1.604   3.694 -2.2242 -0.5027 -0.4820
 3573WAT      O10929   4.151   3.159   4.568 -0.4291 -0.0520  0.4563
 3573WAT     H110930   4.114   3.127   4.485 -2.7001 -0.8877  1.6925
 3573WAT     H210931   4.164   3.253   4.553  1.1713 -0.5164 -1.4742
 3574WAT      O10932   0.682   4.142   1.803  0.2484 -0.1541  0.0821
 3574WAT     H110933   0.708   4.057   1.838  0.4384 -0.6910 -1.3024
 3574WAT     H210934   0.618   4.122   1.734  0.4049  0.8078 -0.3651
 3575WAT      O10935   3.516   0.589   1.541  0.2568  0.2248 -0.0066
 3575WAT     H110936   3.434   0.566   1.585  0.4198 -0.8945 -0.2424
 3575WAT     H210937   3.541   0.672   1.579 -0.6478  0.2602  0.5534
 3576WAT      O10938   4.338   4.020   5.193 -0.2916  0.2708 -0.0683
 3576WAT     H110939   4.344   3.986   5.282 -0.3411  1.1704  0.2964
 3576WAT     H210940   4.361   4.113   5.202  0.5593  0.1804 -1.1312
 3577WAT      O10941   2.079   0.276   4.674 -0.2280 -0.3366 -0.2566
 3577WAT     H110942   1.985   0.270   4.693 -0.0152 -0.0821  0.9116
 3577WAT     H210943   2.101   0.368   4.690  0.5363 -0.7216  0.9821
 3578WAT      O10944   2.252   4.754   0.847 -0.1206 -0.2757  0.3829
 3578WAT     H110945   2.281   4.845   0.846  0.2388 -0.3923 -1.4078
 3578WAT     H210946   2.162   4.758   0.881 -0.1013  0.7404  0.3398
 3579WAT      O10947   1.587   0.531   0.174 -0.4237  0.4424  0.1966
 3579WAT     H110948   1.558   0.460   0.231  0.4061 -0.1595 -0.1124
 3579WAT     H210949   1.509   0.553   0.122 -0.3507 -1.1670 -0.6476
 3580WAT      O10950   2.034   2.526   1.087  0.5377 -0.2361  0.5948
 3580WAT     H110951   2.091   2.585   1.037  2.0030 -1.0712  1.2233
 3580WAT     H210952   1.967   2.583   1.124  0.4199  0.6485 -0.8993
 3581WAT      O10953   2.477   3.403   2.088 -0.2244 -0.3469  0.0526
 3581WAT     H110954   2.389   3.368   2.105  0.5175 -3.1207 -1.1415
 3581WAT     H210955   2.506   3.437   2.173 -3.1088  2.5317  0.0665
 3582WAT      O10956   4.165   4.169   4.590 -0.1266 -0.2875 -0.1220
 3582WAT     H110957   4.169   4.074   4.600  1.2952 -0.2013  0.3215
 3582WAT     H210958   4.075   4.186   4.564 -0.7230 -1.6471  0.9153
 3583WAT      O10959   0.734   3.152   4.039 -0.7335  0.4944  0.5001
 3583WAT     H110960   0.676   3.078   4.058 -0.9045  0.7924  1.1537
 3583WAT     H210961   0.680   3.214   3.991 -0.5692  0.1752 -0.1200
 3584WAT      O10962   2.349   2.530   1.424  0.5577 -0.5491  0.0667
 3584WAT     H110963   2.272   2.551   1.476 -1.2482 -1.8463 -1.8940
 3584WAT     H210964   2.389   2.455   1.469 -0.8666 -1.5407 -0.2539
 3585WAT      O10965   3.923   1.662   2.656 -0.8634  0.3116 -0.7669
 3585WAT     H110966   3.866   1.660   2.733 -2.0909 -1.3123 -1.6591
 3585WAT     H210967   3.865   1.688   2.584  0.5869  3.4013 -0.9687
 3586WAT      O10968   2.806   4.131   1.775  0.2638 -0.0216  0.0296
 3586WAT     H110969   2.743   4.193   1.811 -1.4676 -1.2990 -0.7031
 3586WAT     H210970   2.872   4.186   1.733  0.4521  1.3793  2.0062
 3587WAT      O10971   2.312   3.337   5.072 -0.1988  0.3470 -0.1968
 3587WAT     H110972   2.228   3.295   5.053 -0.1030 -0.0162  0.1616
 3587WAT     H210973   2.300   3.374   5.160  0.0702  0.1430 -0.0715
 3588WAT      O10974   0.486   2.761   3.258 -0.1889  0.8143  0.5070
 3588WAT     H110975   0.497   2.713   3.340 -1.0223  1.1948  0.8548
 3588WAT     H210976   0.533   2.843   3.272 -1.6674  1.5738  1.2323
 3589WAT      O10977   1.310   1.044   3.727  0.2429  0.6343  0.7688
 3589WAT     H110978   1.388   1.063   3.777  1.3883 -0.5947 -0.4524
 3589WAT     H210979   1.238   1.075   3.781  1.5806  2.1222  1.7674
 3590WAT      O10980   0.531   0.364   2.843  0.2283  0.0715 -0.3200
 3590WAT     H110981   0.602   0.306   2.817  0.8053  0.2950  0.6860
 3590WAT     H210982   0.482   0.380   2.763  0.2046 -1.5848 -0.6609
 3591WAT      O10983   0.204   1.620   0.717  0.3645 -0.3009  0.1655
 3591WAT     H110984   0.290   1.662   0.711  0.4319 -0.2751  1.1895
 3591WAT     H210985   0.222   1.528   0.730  0.3039 -0.0368  2.5119
 3592WAT      O10986   2.412   3.060   3.758 -0.4688  0.0896  0.1910
 3592WAT     H110987   2.358   3.133   3.726 -0.3958 -0.1558 -0.5022
 3592WAT     H210988   2.415   2.998   3.685 -1.3939 -1.1037  1.1282
 3593WAT      O10989   3.107   2.805   3.733  0.8699 -0.4440 -0.5285
 3593WAT     H110990   3.034   2.765   3.685 -0.2644  1.2474 -0.3175
 3593WAT     H210991   3.155   2.731   3.770 -0.6368 -1.6334 -0.8305
 3594WAT      O10992   1.640   3.820   3.519  0.4290  0.0538 -0.1474
 3594WAT     H110993   1.731   3.815   3.489  0.3030 -0.2094 -0.4835
 3594WAT     H210994   1.645   3.873   3.599  0.8897 -0.0328 -0.1136
 3595WAT      O10995   2.047   1.995   0.100  0.5337  0.5547 -0.6776
 3595WAT     H110996   1.974   1.958   0.050  1.2221 -0.6011 -0.8642
 3595WAT     H210997   2.071   1.926   0.162  0.5817  1.4537  0.3226
 3596WAT      O10998   2.341   3.087   4.537  0.0478  0.0255  0.0564
 3596WAT     H110999   2.294   3.070   4.618 -1.0466 -0.5368 -0.6812
 3596WAT     H211000   2.422   3.131   4.566 -0.8927  0.9947  1.3498
 3597WAT      O11001   1.827   4.673   4.211  0.2989 -0.6704  1.2966
 3597WAT     H111002   1.768   4.746   4.228  0.9218  0.3490 -0.6206
 3597WAT     H211003   1.822   4.620   4.290 -2.2934 -0.0413  1.6702
 3598WAT      O11004   2.250   0.204   1.883  0.1640  0.0670 -0.1332
 3598WAT     H111005   2.213   0.287   1.913  1.1702 -0.0643  1.5981
 3598WAT     H211006   2.185   0.139   1.909  0.5849  0.0551  0.9025
 3599WAT      O11007   0.018   1.987   4.903 -0.1017 -0.2788  0.0165
 3599WAT     H111008  -0.006   2.045   4.975 -1.1131  1.3516 -1.5425
 3599WAT     H211009   0.030   1.901   4.944  2.0367  1.0606  2.5315
 3600WAT      O11010   3.697   0.447   2.754 -0.4961  0.6162 -0.0809
 3600WAT     H111011   3.640   0.408   2.820 -0.6363 -0.7288 -0.9588
 3600WAT     H211012   3.782   0.454   2.798 -0.5017 -0.5730  0.1618
 3601WAT      O11013   2.137   1.370   1.092 -0.0090 -0.4190 -0.1408
 3601WAT     H111014   2.121   1.276   1.094  0.9642 -0.5848  1.2082
 3601WAT     H211015   2.081   1.402   1.021 -2.5585 -1.5888  1.1808
 3602WAT      O11016   3.344   3.508   2.844 -0.1615  0.5121 -0.2984
 3602WAT     H111017   3.257   3.546   2.854  0.0246  0.7486  0.4614
 3602WAT     H211018   3.329   3.414   2.840 -0.5467  0.6014 -1.3306
 3603WAT      O11019   2.554   4.182   2.114 -0.8592 -0.7252  0.3259
 3603WAT     H111020   2.638   4.145   2.087 -0.8927  0.5059 -1.6978
 3603WAT     H211021   2.546   4.158   2.206  1.3382 -1.5278  0.3800
 3604WAT      O11022   3.449   2.456   3.733  0.3254 -0.0544 -0.3864
 3604WAT     H111023   3.365   2.477   3.692  0.8861  1.2321 -0.9448
 3604WAT     H211024   3.461   2.524   3.800  0.3635 -0.9506  0.5307
 3605WAT      O11025   2.816   1.985   2.042  0.2991 -0.3159 -0.3828
 3605WAT     H111026   2.810   1.890   2.048 -0.7225 -0.3860 -1.9484
 3605WAT     H211027   2.909   2.004   2.050  0.8619 -1.7104 -2.6067
 3606WAT      O11028   1.271   2.893   1.693 -0.1741 -0.0539  0.3140
 3606WAT     H111029   1.299   2.818   1.640 -4.6941 -3.6109  2.2287
 3606WAT     H211030   1.203   2.936   1.641  0.8526  1.3963  0.1331
 3607WAT      O11031   0.157   2.739   0.040 -0.1415  0.3928  0.0609
 3607WAT     H111032   0.151   2.779  -0.047  1.7344 -1.4298 -1.0019
 3607WAT     H211033   0.251   2.728   0.055 -0.5065 -1.7727  1.1348
 3608WAT      O11034   1.080   0.163   5.091  0.2465 -0.2689  0.0354
 3608WAT     H111035   1.005   0.220   5.110 -0.0343 -0.6927  0.2092
 3608WAT     H211036   1.064   0.085   5.143  0.7096 -0.4451 -0.0868
 3609WAT      O11037   0.323   2.189   2.873 -0.2857 -0.6851  0.1487
 3609WAT     H111038   0.343   2.105   2.914 -1.1892 -1.5117 -1.0170
 3609WAT     H211039   0.259   2.167   2.805 -1.5138  1.1178  0.6339
 3610WAT      O11040   0.437   0.324   1.955 -0.1331  0.0036 -0.1572
 3610WAT     H111041   0.381   0.401   1.964 -0.8379 -0.4323 -0.7380
 3610WAT     H211042   0.403   0.278   1.879  0.9914 -0.3018 -0.4919
 3611WAT      O11043   1.011   0.471   3.330 -0.2840 -0.4396 -0.2583
 3611WAT     H111044   1.075   0.529   3.371  0.8939 -1.9165  0.1112
 3611WAT     H211045   1.019   0.487   3.237 -0.1128  0.1013 -0.1530
 3612WAT      O11046   2.748   1.573   2.402 -0.0567 -0.0179  0.1242
 3612WAT     H111047   2.822   1.556   2.344 -0.6959  0.5325 -0.8822
 3612WAT     H211048   2.731   1.666   2.393 -1.0749 -0.1959  0.0846
 3613WAT      O11049   1.978   5.021   4.008 -0.2802 -0.6486  0.4162
 3613WAT     H111050   1.970   4.968   3.929 -2.1596  0.6168 -0.3051
 3613WAT     H211051   2.069   5.053   4.006 -0.8253  1.0657 -2.4052
 3614WAT      O11052   2.240   3.776   1.362 -0.5855  0.2106  0.2128
 3614WAT     H111053   2.310   3.801   1.302 -0.2401 -0.6155  0.2566
 3614WAT     H211054   2.187   3.855   1.372  0.3747  0.8639  0.2285
 3615WAT      O11055   2.808   4.756   4.720  0.4030  0.1540  0.0009
 3615WAT     H111056   2.821   4.780   4.812  1.4314 -1.5858  0.3599
 3615WAT     H211057   2.728   4.705   4.720 -0.0849  0.9105 -0.2325
 3616WAT      O11058   0.528   4.433   2.098 -0.2970 -0.1790 -0.0478
 3616WAT     H111059   0.477   4.505   2.136 -0.2740  0.0453 -0.4288
 3616WAT     H211060   0.599   4.417   2.159  1.3552  2.0076 -1.2594
 3617WAT      O11061   3.489   2.176   2.430  0.0623 -0.1842  0.5805
 3617WAT     H111062   3.536   2.130   2.360  0.1254  0.9024 -0.1180
 3617WAT     H211063   3.444   2.248   2.385  1.0110  1.2283  1.8046
 3618WAT      O11064   1.734   2.451   0.086 -0.2058 -0.1064 -0.0754
 3618WAT     H111065   1.812   2.478   0.037 -0.4133 -2.2031 -1.7254
 3618WAT     H211066   1.665   2.444   0.020 -2.0367  2.2840  1.4371
 3619WAT      O11067   4.459   1.058   2.697 -0.3439 -0.3332  0.7377
 3619WAT     H111068   4.439   1.148   2.723  1.6748  0.1683  0.6812
 3619WAT     H211069   4.454   1.008   2.779  0.6814  0.2606  1.1857
 3620WAT      O11070   1.602   4.945   2.679 -0.3892  0.5416 -0.6148
 3620WAT     H111071   1.514   4.982   2.686 -0.6800 -0.3486  1.0212
 3620WAT     H211072   1.660   5.015   2.708 -0.5565  1.0563 -1.4822
 3621WAT      O11073   4.148   0.194   3.142 -0.4767 -0.0411  0.5854
 3621WAT     H111074   4.163   0.194   3.237 -1.1910 -1.8403  0.7486
 3621WAT     H211075   4.224   0.149   3.106  1.1942  3.0510 -0.0547
 3622WAT      O11076   1.236   0.311   3.405  0.0762 -0.4647 -0.2514
 3622WAT     H111077   1.240   0.389   3.460 -0.5694  0.7058 -1.8006
 3622WAT     H211078   1.151   0.317   3.361  0.7695 -1.1023 -1.7240
 3623WAT      O11079   0.305   0.480   5.145  0.3001  0.0653 -0.2530
 3623WAT     H111080   0.234   0.542   5.131 -0.1606  0.3575  2.7365
 3623WAT     H211081   0.265   0.394   5.129 -0.9306  0.1963  1.7368
 3624WAT      O11082   1.358   3.316   2.563  0.5987  0.1993  0.6315
 3624WAT     H111083   1.354   3.367   2.483 -0.8802  0.3302  0.7524
 3624WAT     H211084   1.320   3.231   2.539 -0.3692  0.4217  1.2968
 3625WAT      O11085   2.582   4.810   5.150  0.0976 -0.4273 -0.1077
 3625WAT     H111086   2.661   4.806   5.097 -0.0082  0.7198 -0.3842
 3625WAT     H211087   2.562   4.904   5.156 -1.4879 -0.7168 -0.4267
 3626WAT      O11088   1.186   2.003   0.698 -0.0970  0.0274  0.5542
 3626WAT     H111089   1.135   1.922   0.698 -1.7642  1.0465  0.2296
 3626WAT     H211090   1.122   2.072   0.681  1.4893  1.3092 -0.4964
 3627WAT      O11091   0.672   0.123   2.627 -0.5173 -0.4698  0.3547
 3627WAT     H111092   0.699   0.031   2.629  0.7310 -0.1056  0.7239
 3627WAT     H211093   0.579   0.120   2.649 -0.3821 -1.6065  0.8623
 3628WAT      O11094   1.907   2.671   4.640 -0.1267 -0.3373  0.1799
 3628WAT     H111095   1.988   2.621   4.636  0.7922  0.9923  1.3471
 3628WAT     H211096   1.871   2.650   4.727 -1.1592 -1.0396 -0.3802
 3629WAT      O11097   0.489   2.380   0.834  0.6341 -0.1305  0.4816
 3629WAT     H111098   0.498   2.355   0.926  0.3120 -3.2568 -0.2199
 3629WAT     H211099   0.563   2.338   0.790 -0.2469 -0.2949 -0.9338
 3630WAT      O11100   1.036   2.580   3.945  0.7237 -0.2569 -0.5516
 3630WAT     H111101   0.948   2.561   3.913  0.4016  1.1201 -0.5178
 3630WAT     H211102   1.044   2.529   4.026 -0.5497  0.6622  0.1705
 3631WAT      O11103   1.054   1.141   4.993  0.0360 -0.3152  0.3176
 3631WAT     H111104   0.968   1.116   5.028 -1.1331 -0.9233 -2.7021
 3631WAT     H211105   1.097   1.059   4.972  0.3609  0.0232 -0.3733
 3632WAT      O11106   0.950   3.067   5.133 -0.2809 -0.1758 -0.1165
 3632WAT     H111107   0.895   3.013   5.077 -1.2838  0.3267  0.3592
 3632WAT     H211108   0.959   3.150   5.085  1.4980 -0.8338 -0.9823
 3633WAT      O11109   2.929   2.023   0.936 -0.3861 -0.1455 -0.4901
 3633WAT     H111110   2.849   2.000   0.983 -0.1785 -1.5307 -0.7581
 3633WAT     H211111   2.972   2.087   0.992 -1.1300 -0.2440  0.2128
 3634WAT      O11112   4.152   2.307   2.121  0.3940 -0.5150  0.0141
 3634WAT     H111113   4.243   2.279   2.107  0.6279  0.4403 -0.4221
 3634WAT     H211114   4.143   2.386   2.068 -0.9834 -1.1342 -0.7184
 3635WAT      O11115   0.163   2.360   3.967  0.3274  0.1289  0.4698
 3635WAT     H111116   0.189   2.308   4.043 -2.0548 -0.9653  0.6300
 3635WAT     H211117   0.103   2.426   4.002 -1.2679 -0.7483 -0.4514
 3636WAT      O11118  -0.017   1.694   1.112  0.1751 -0.7105 -0.1267
 3636WAT     H111119   0.003   1.736   1.028 -0.3436  0.8768  0.5054
 3636WAT     H211120   0.069   1.683   1.154  0.2889  0.3258 -0.0526
 3637WAT      O11121   2.183   2.976   4.728  0.3635  0.3984 -0.2243
 3637WAT     H111122   2.197   2.919   4.804  0.2361 -0.2819 -0.7043
 3637WAT     H211123   2.111   3.032   4.754  0.7202  0.5789  0.3880
 3638WAT      O11124   1.699   1.588   4.877 -0.6003  0.9902 -0.0913
 3638WAT     H111125   1.780   1.595   4.929 -0.3722 -0.3807 -0.2234
 3638WAT     H211126   1.641   1.655   4.913  0.7206  2.2686 -0.2387
 3639WAT      O11127   0.227   4.876   1.633  0.3254 -0.1265  0.0312
 3639WAT     H111128   0.226   4.886   1.728  0.8246 -1.3568  0.1795
 3639WAT     H211129   0.238   4.782   1.619 -0.8988 -0.1145 -1.2488
 3640WAT      O11130   0.525   4.091   4.490  0.5743  0.0557 -0.8489
 3640WAT     H111131   0.553   4.083   4.581 -0.3482 -1.2201 -0.6390
 3640WAT     H211132   0.430   4.096   4.495  0.5929  2.9440 -1.6142
 3641WAT      O11133   4.114   4.009   1.781  0.1952 -0.7042  0.2360
 3641WAT     H111134   4.099   3.927   1.828 -2.1363  0.3166  1.4238
 3641WAT     H211135   4.068   3.998   1.697  0.3999 -0.8225  0.1384
 3642WAT      O11136   2.773   0.630   2.289  0.6354  0.3176  0.1262
 3642WAT     H111137   2.709   0.695   2.316  0.0593 -0.1571 -0.0668
 3642WAT     H211138   2.858   0.670   2.307  0.2799  0.8202  0.6914
 3643WAT      O11139   4.388   5.172   3.196 -0.0876  0.1639 -0.2145
 3643WAT     H111140   4.426   5.162   3.283 -1.1553  0.1041  0.2672
 3643WAT     H211141   4.426   5.101   3.145  0.1362 -0.1478  0.3661
 3644WAT      O11142   2.144   3.317   4.097  0.5685  0.0913 -0.2099
 3644WAT     H111143   2.162   3.248   4.032 -1.1619 -1.0265  0.4377
 3644WAT     H211144   2.171   3.279   4.180  0.8900  0.7514 -0.0048
 3645WAT      O11145   0.612   0.373   0.993  0.5306 -0.0262  0.3302
 3645WAT     H111146   0.559   0.375   0.913  0.1533  0.9719  0.5799
 3645WAT     H211147   0.573   0.442   1.048 -0.9584 -2.4047  2.4917
 3646WAT      O11148   4.324   1.535   1.026 -0.1054 -0.2344 -0.4000
 3646WAT     H111149   4.348   1.543   0.933  1.4349 -1.0054 -0.1038
 3646WAT     H211150   4.396   1.577   1.073  0.1393 -1.6314  0.5135
 3647WAT      O11151   1.205   4.135   5.292 -0.7878 -0.3345  0.4015
 3647WAT     H111152   1.261   4.139   5.370 -2.7667  1.6809  1.8495
 3647WAT     H211153   1.265   4.151   5.219  0.7220  0.6347  1.7691
 3648WAT      O11154   1.152   2.803   2.764  0.3267 -0.1663 -0.3970
 3648WAT     H111155   1.243   2.825   2.746  0.4462 -1.3198 -1.3123
 3648WAT     H211156   1.154   2.712   2.793 -0.4847 -0.0591  0.0296
 3649WAT      O11157   2.021   4.651   3.624  0.4557 -0.1026  0.1755
 3649WAT     H111158   1.938   4.612   3.653 -0.6292  1.4246 -0.6901
 3649WAT     H211159   1.998   4.701   3.546  2.1221  0.6851  0.1377
 3650WAT      O11160   1.425   3.317   3.555  0.1839 -0.2473 -0.4521
 3650WAT     H111161   1.373   3.393   3.532 -0.0148 -0.5177 -0.9236
 3650WAT     H211162   1.514   3.350   3.566 -0.2065  0.3530  1.1409
 3651WAT      O11163   3.316   3.891   3.857  0.7752  0.1122 -0.2525
 3651WAT     H111164   3.326   3.815   3.799  1.0494 -0.1715  0.1641
 3651WAT     H211165   3.398   3.896   3.905 -0.5213 -1.5662  2.3824
 3652WAT      O11166   4.350   5.088   3.995  0.3715 -0.2408  0.0101
 3652WAT     H111167   4.268   5.048   3.966  0.8046 -1.5628  0.5644
 3652WAT     H211168   4.358   5.167   3.941 -2.3913  1.2073  1.5084
 3653WAT      O11169   3.464   4.568   4.468  0.2621 -0.3607  0.7589
 3653WAT     H111170   3.508   4.494   4.425 -0.1338 -0.2096  0.0755
 3653WAT     H211171   3.532   4.608   4.522  1.2810  0.5087 -1.0873
 3654WAT      O11172   4.469   0.527   3.450 -0.0163 -0.0473  0.6073
 3654WAT     H111173   4.387   0.572   3.431  0.2538  0.6322  0.9957
 3654WAT     H211174   4.442   0.441   3.482 -0.5902  0.2839  1.0330
 3655WAT      O11175   1.359   4.984   2.441  0.1101  1.0524 -0.3816
 3655WAT     H111176   1.351   5.030   2.525  0.1572 -0.6869  0.6328
 3655WAT     H211177   1.269   4.972   2.412  0.0269  0.5422  0.0745
 3656WAT      O11178   0.202   3.700   2.027  0.4489  0.0488  0.2997
 3656WAT     H111179   0.179   3.762   1.958  3.7162 -0.0874 -1.0599
 3656WAT     H211180   0.170   3.616   1.995  1.1079  0.1427 -0.6432
 3657WAT      O11181   3.307   1.383   3.799 -0.0474 -0.4860  0.3285
 3657WAT     H111182   3.384   1.326   3.797  1.0319  0.9531 -0.3189
 3657WAT     H211183   3.233   1.322   3.789  0.8520 -2.0479  2.4646
 3658WAT      O11184   0.325   1.398   2.321 -0.2833  0.0014 -0.4760
 3658WAT     H111185   0.414   1.368   2.302  0.9086  2.7023  0.2817
 3658WAT     H211186   0.311   1.472   2.262 -1.0510  1.1461  1.0618
 3659WAT      O11187   0.406   2.546   1.921  0.6661  0.0184 -0.5653
 3659WAT     H111188   0.457   2.621   1.888 -0.3891  0.6103 -0.8961
 3659WAT     H211189   0.374   2.503   1.842  1.3797 -0.8831 -0.3775
 3660WAT      O11190   2.587   3.715   2.370  0.4772  0.7091 -0.3617
 3660WAT     H111191   2.598   3.620   2.364  1.5716  0.7162  1.0922
 3660WAT     H211192   2.546   3.740   2.287 -1.7515 -1.2914  0.0183
 3661WAT      O11193   0.787   4.741   4.787 -0.2687 -0.4134  0.6235
 3661WAT     H111194   0.698   4.758   4.819 -1.1301 -1.3375 -1.1041
 3661WAT     H211195   0.788   4.780   4.700  1.3760  0.4284  0.9852
 3662WAT      O11196   1.393   3.451   0.147  0.3041 -0.1369  0.0746
 3662WAT     H111197   1.344   3.390   0.202 -1.8902  0.8704 -0.6777
 3662WAT     H211198   1.339   3.462   0.069  2.2657  0.2189 -1.3132
 3663WAT      O11199   0.381   1.940   4.495  0.9067  0.7327  0.1819
 3663WAT     H111200   0.337   2.014   4.537  1.0633  0.5588  0.6582
 3663WAT     H211201   0.432   1.900   4.565 -0.7667 -1.0713  0.4390
 3664WAT      O11202   1.467   3.338   0.607  0.2344 -0.0394 -0.3814
 3664WAT     H111203   1.453   3.433   0.615  1.2306  0.1507 -0.7577
 3664WAT     H211204   1.448   3.319   0.515 -1.9093 -0.5768  0.1067
 3665WAT      O11205   1.612   4.036   4.760  0.5608  0.3593 -0.4372
 3665WAT     H111206   1.620   4.072   4.849  1.4117 -1.1036  0.1192
 3665WAT     H211207   1.534   4.079   4.724  0.3653  1.2056  0.9018
 3666WAT      O11208   2.245   0.330   2.284 -0.1271 -0.8599  0.4003
 3666WAT     H111209   2.200   0.320   2.368  0.4920 -1.3009  0.6899
 3666WAT     H211210   2.204   0.265   2.227  0.7102 -1.8722  0.9159
 3667WAT      O11211   0.794   1.448   4.898 -0.5941  0.1805  0.1120
 3667WAT     H111212   0.877   1.424   4.938 -1.3882  0.1422  1.8126
 3667WAT     H211213   0.817   1.515   4.834  0.7401  0.2134  0.5913
 3668WAT      O11214   3.361   2.419   2.599  0.0099  0.3779 -0.4510
 3668WAT     H111215   3.439   2.364   2.586 -1.3246 -1.8217  0.3593
 3668WAT     H211216   3.293   2.375   2.548 -0.8612  1.9802 -0.7264
 3669WAT      O11217   0.925   0.392   0.939 -0.2862 -0.5713 -0.2529
 3669WAT     H111218   0.986   0.321   0.922 -0.7174 -0.8637 -0.6114
 3669WAT     H211219   0.843   0.363   0.899 -0.3256  0.3644 -0.8981
 3670WAT      O11220   1.508   1.555   2.686 -0.1990  0.4479 -0.3659
 3670WAT     H111221   1.489   1.573   2.778  0.6809 -0.3555 -0.0093
 3670WAT     H211222   1.567   1.626   2.659  0.1387  0.2823 -0.0822
 3671WAT      O11223   0.815   1.765   2.359  0.0191 -0.0722 -0.5816
 3671WAT     H111224   0.843   1.852   2.329  2.0878 -1.0526 -1.7147
 3671WAT     H211225   0.866   1.749   2.438  0.9530 -0.9055 -1.3215
 3672WAT      O11226   3.336   3.746   5.180 -0.1126  0.0425 -0.4244
 3672WAT     H111227   3.375   3.700   5.106  0.4402 -1.2022  0.6155
 3672WAT     H211228   3.389   3.825   5.191  0.8414 -0.6041 -0.3191
 3673WAT      O11229   1.964   2.316   0.944 -0.3329 -0.0974  0.2125
 3673WAT     H111230   1.996   2.387   0.999 -0.1807 -0.4158  0.5416
 3673WAT     H211231   1.868   2.325   0.946 -0.4414 -1.1411  1.9663
 3674WAT      O11232   1.120   2.021   1.094 -0.3591  0.3386 -0.1058
 3674WAT     H111233   1.125   2.066   1.178 -0.4736 -0.0783  0.1245
 3674WAT     H211234   1.208   2.028   1.057 -0.2226  0.2281  0.1996
 3675WAT      O11235   1.857   1.139   2.639  0.2498  0.5309  0.1809
 3675WAT     H111236   1.891   1.073   2.580 -1.8586 -0.3459 -0.1504
 3675WAT     H211237   1.908   1.128   2.719  0.8767 -0.5373 -0.3394
 3676WAT      O11238   0.377   2.725   1.600 -0.1463 -0.7392  0.0231
 3676WAT     H111239   0.364   2.724   1.505  0.5424 -1.8154 -0.0793
 3676WAT     H211240   0.462   2.766   1.612  0.1615 -1.3797  0.1000
 3677WAT      O11241   4.306   0.155   3.787 -0.1120 -1.0165 -0.5633
 3677WAT     H111242   4.282   0.238   3.828  1.8182 -0.1172 -1.1592
 3677WAT     H211243   4.222   0.112   3.770 -1.1788  0.8672 -0.3867
 3678WAT      O11244   3.950   3.755   2.051  0.2112  0.1881 -0.4973
 3678WAT     H111245   3.988   3.714   2.129  0.1943  0.4693 -0.3410
 3678WAT     H211246   3.868   3.793   2.082  1.0504  1.8800 -0.2223
 3679WAT      O11247   0.938   0.472   0.503 -0.0362 -0.1258 -0.2756
 3679WAT     H111248   1.018   0.461   0.554 -0.0623 -3.5515 -0.7358
 3679WAT     H211249   0.918   0.384   0.470 -3.1800  0.8688 -1.4271
 3680WAT      O11250   2.396   0.650   1.830 -0.2783 -0.1268 -0.1560
 3680WAT     H111251   2.305   0.680   1.837 -0.3371 -0.6320  1.7731
 3680WAT     H211252   2.405   0.586   1.901  1.8117  0.4802  0.1739
 3681WAT      O11253   0.590   0.477   4.154  0.0375  0.2619 -0.3493
 3681WAT     H111254   0.498   0.457   4.141 -0.2221  1.6449 -0.8387
 3681WAT     H211255   0.605   0.463   4.248 -0.1067 -2.0158 -0.6203
 3682WAT      O11256   4.066   0.147   4.055 -0.2384  0.1619 -0.3168
 3682WAT     H111257   4.129   0.185   3.994  0.2393  1.8784  1.1714
 3682WAT     H211258   3.993   0.208   4.055 -1.3263 -1.0840 -0.9477
 3683WAT      O11259   3.232   3.563   5.332 -0.1111 -0.3935  0.3328
 3683WAT     H111260   3.279   3.616   5.267  1.4776 -0.1061  1.6499
 3683WAT     H211261   3.141   3.589   5.322  0.3510  1.0328 -0.5152
 3684WAT      O11262   3.220   1.686   3.602  0.4681  0.0608  0.1434
 3684WAT     H111263   3.191   1.698   3.693 -1.3807  1.7995 -0.6048
 3684WAT     H211264   3.225   1.591   3.591 -0.3453 -0.2101  1.7600
 3685WAT      O11265   2.278   5.056   0.896  0.0805  0.3334 -0.2069
 3685WAT     H111266   2.294   5.133   0.840 -0.5893  0.7266  0.1262
 3685WAT     H211267   2.362   5.039   0.938  0.3232  0.6800 -0.5462
 3686WAT      O11268   2.174   0.747   4.293 -0.2122  0.0589 -0.3354
 3686WAT     H111269   2.236   0.676   4.310  0.0517  0.3209 -0.1957
 3686WAT     H211270   2.218   0.826   4.325 -0.5940  0.2559 -0.2893
 3687WAT      O11271   4.063   1.988   4.936  0.0294  0.0071  0.0776
 3687WAT     H111272   4.046   1.928   4.862  0.3431  0.7122 -0.5761
 3687WAT     H211273   4.134   2.044   4.905  0.4723  0.0210  1.0952
 3688WAT      O11274   2.611   3.017   1.093 -0.0915  0.7696  0.0002
 3688WAT     H111275   2.578   2.931   1.068 -0.8860  0.8652  0.6633
 3688WAT     H211276   2.623   3.063   1.011  0.4592 -0.0156 -0.3667
 3689WAT      O11277   1.509   3.583   2.420 -0.6479 -0.3672  0.1593
 3689WAT     H111278   1.531   3.536   2.340 -0.0447  1.8627 -1.0587
 3689WAT     H211279   1.585   3.570   2.477  0.9392  1.6077 -1.3761
 3690WAT      O11280   1.597   1.277   4.991  0.4948  0.0924 -0.3969
 3690WAT     H111281   1.679   1.323   5.010  0.9268 -0.5807 -0.6396
 3690WAT     H211282   1.594   1.269   4.896 -0.3128  0.9361 -0.4661
 3691WAT      O11283   3.583   4.002   4.946 -0.1568  0.2639  0.2948
 3691WAT     H111284   3.651   3.991   4.879  0.4022  0.7894  0.7622
 3691WAT     H211285   3.567   4.096   4.948 -1.7319  0.0491 -0.6042
 3692WAT      O11286   2.978   1.709   0.563 -0.4059 -0.0828 -0.5433
 3692WAT     H111287   2.977   1.785   0.622  1.4490  0.1674 -0.7629
 3692WAT     H211288   2.949   1.636   0.618 -0.4656  0.4649  0.1763
 3693WAT      O11289   3.901   0.012   1.437 -0.3157 -0.6875  0.0999
 3693WAT     H111290   3.871   0.076   1.373 -0.0305 -0.8695 -0.2219
 3693WAT     H211291   3.983  -0.021   1.401  0.5230  0.1260  1.1617
 3694WAT      O11292   0.255   1.960   4.766  0.2328 -0.5208  0.6354
 3694WAT     H111293   0.167   1.985   4.795 -0.1023  1.0915 -1.5271
 3694WAT     H211294   0.254   1.864   4.767 -1.8737 -0.5641 -0.1249
 3695WAT      O11295   4.394   0.300   1.117  0.0831 -0.3252 -0.0486
 3695WAT     H111296   4.310   0.333   1.085 -0.3666 -0.5707  0.8387
 3695WAT     H211297   4.404   0.341   1.203  1.0755  0.0302 -0.3320
 3696WAT      O11298   0.987   4.105   4.508 -0.2138 -0.4229  0.2796
 3696WAT     H111299   0.965   4.129   4.598  0.6904  1.8816 -0.0517
 3696WAT     H211300   1.077   4.074   4.513  0.2411  0.8108  0.0332
 3697WAT      O11301   3.046   1.552   1.257 -0.0903 -0.3550 -0.2874
 3697WAT     H111302   3.133   1.543   1.219 -0.4790  0.6681 -1.4857
 3697WAT     H211303   3.008   1.464   1.250  0.8214 -0.8053  0.2263
 3698WAT      O11304   2.165   5.034   0.517 -0.4428 -0.2994  0.2733
 3698WAT     H111305   2.107   5.002   0.587 -0.2682  0.0687  0.5847
 3698WAT     H211306   2.235   4.969   0.512 -0.4072 -0.2773  0.5011
 3699WAT      O11307   2.065   4.074   4.758 -0.3695  0.3112 -0.3825
 3699WAT     H111308   2.111   4.018   4.819 -3.3640 -3.2467 -1.0469
 3699WAT     H211309   2.130   4.096   4.691  1.5299 -0.3278  1.1645
 3700WAT      O11310   1.876   1.491   0.222  0.2206  0.1781 -0.0402
 3700WAT     H111311   1.794   1.492   0.173  0.7329  3.1119 -1.0702
 3700WAT     H211312   1.943   1.473   0.156  0.4825 -2.7242  0.8734
 3701WAT      O11313   2.302   0.226   0.785  0.8613 -0.0513 -0.6253
 3701WAT     H111314   2.303   0.261   0.696  0.5563  1.0693 -0.2089
 3701WAT     H211315   2.379   0.265   0.827  0.8514 -0.3605 -0.3117
 3702WAT      O11316   2.814   4.740   3.176 -0.1831 -0.1683  0.3740
 3702WAT     H111317   2.766   4.822   3.174  0.0838  0.0688  2.0485
 3702WAT     H211318   2.841   4.730   3.267  0.6314 -1.6309  0.0141
 3703WAT      O11319   3.040   0.522   1.563  0.0295  0.2954  0.2968
 3703WAT     H111320   2.960   0.472   1.580  0.0758 -0.0161 -0.4141
 3703WAT     H211321   3.093   0.465   1.508  0.3480  0.8778 -0.0021
 3704WAT      O11322   3.321   3.317   4.299 -0.4366  0.7085  0.0602
 3704WAT     H111323   3.316   3.283   4.210  0.0697  2.8178 -0.8430
 3704WAT     H211324   3.317   3.412   4.288  0.6592  1.0524  2.2095
 3705WAT      O11325   3.646   0.818   2.983  0.0949 -0.2603 -0.0312
 3705WAT     H111326   3.618   0.909   2.986 -2.6230 -1.0010 -0.0349
 3705WAT     H211327   3.592   0.779   2.914  2.5666 -1.5130 -1.4113
 3706WAT      O11328   3.753   0.274   2.241  0.0056 -0.2279 -0.0261
 3706WAT     H111329   3.671   0.308   2.207  1.4317  2.5446 -1.0418
 3706WAT     H211330   3.743   0.276   2.336 -0.4145  2.2819 -0.0415
 3707WAT      O11331   3.804   3.884   1.761 -0.1530  0.4075  0.2667
 3707WAT     H111332   3.832   3.912   1.848  1.4435 -0.9118  0.2323
 3707WAT     H211333   3.852   3.942   1.701  1.3183 -0.7544  0.2473
 3708WAT      O11334   0.913   1.990   1.594 -0.6417  0.1161 -0.3275
 3708WAT     H111335   0.941   2.078   1.618 -0.0070  0.0110 -0.6661
 3708WAT     H211336   0.886   1.996   1.503 -1.0326  0.0557 -0.2190
 3709WAT      O11337   3.903   0.877   2.340  0.0735  0.1663 -0.4016
 3709WAT     H111338   3.977   0.889   2.399  1.3309 -1.5093 -1.5467
 3709WAT     H211339   3.942   0.871   2.253 -1.3974 -0.7413 -1.0500
 3710WAT      O11340   2.502   1.625   1.921  0.0270  0.5305 -0.3453
 3710WAT     H111341   2.528   1.663   1.838  1.6485 -0.5756 -0.3888
 3710WAT     H211342   2.491   1.531   1.902 -0.9993  0.4763  0.3878
 3711WAT      O11343   2.166   3.214   4.358 -0.1085  0.3500 -0.3694
 3711WAT     H111344   2.226   3.204   4.433  2.6911  3.2491 -1.9694
 3711WAT     H211345   2.104   3.282   4.387  1.1205  1.6493 -0.6689
 3712WAT      O11346   2.861   1.652   3.107 -0.4130  0.2474 -0.5785
 3712WAT     H111347   2.854   1.564   3.143  1.6006 -0.3918 -1.6375
 3712WAT     H211348   2.840   1.641   3.014 -1.8949  1.2270 -0.3926
 3713WAT      O11349   1.609   4.409   5.030 -0.2495 -0.0514  0.4332
 3713WAT     H111350   1.630   4.496   4.997 -1.1456 -0.5227 -1.5481
 3713WAT     H211351   1.692   4.361   5.028  0.1334  0.5851  0.9769
 3714WAT      O11352   3.860   3.673   3.296 -0.4188  0.3663  0.3070
 3714WAT     H111353   3.881   3.625   3.376  0.4835  2.0153  1.0943
 3714WAT     H211354   3.881   3.611   3.226 -1.0355 -1.0407  1.2943
 3715WAT      O11355   0.560   1.553   3.914 -0.0266  0.2654  0.2969
 3715WAT     H111356   0.477   1.522   3.951 -1.5660  2.5143 -1.0393
 3715WAT     H211357   0.590   1.480   3.860  0.7048 -1.8992  3.3303
 3716WAT      O11358   1.566   2.710   5.069  0.0354 -0.0574 -0.1252
 3716WAT     H111359   1.514   2.788   5.052  0.3470 -0.0379 -1.0139
 3716WAT     H211360   1.525   2.671   5.146 -0.0924  1.0040  0.3673
 3717WAT      O11361   1.646   1.819   2.823  0.0685 -0.5759 -0.1210
 3717WAT     H111362   1.722   1.825   2.765 -0.7517 -2.0448 -1.4046
 3717WAT     H211363   1.680   1.774   2.901  0.7777 -0.1716 -0.1873
 3718WAT      O11364  -0.010   0.946   4.177 -0.0424  0.3737 -0.0321
 3718WAT     H111365   0.057   0.926   4.111  0.1866  2.0105 -0.3334
 3718WAT     H211366   0.040   0.963   4.257 -0.2586 -0.5057  0.3078
 3719WAT      O11367   2.574   1.502   5.078 -0.0395 -0.2372 -0.2660
 3719WAT     H111368   2.589   1.457   5.161  3.3394  0.9645 -0.0746
 3719WAT     H211369   2.660   1.535   5.053 -1.3282  1.2180 -3.2411
 3720WAT      O11370   2.407   1.895   0.511 -0.3154  0.3957 -0.3738
 3720WAT     H111371   2.497   1.924   0.493 -0.4667  1.4381  0.4914
 3720WAT     H211372   2.418   1.807   0.548  0.3904  0.6711  0.1096
 3721WAT      O11373   2.262   3.763   1.666  0.5586  0.7025 -0.3794
 3721WAT     H111374   2.250   3.675   1.701 -0.3337  0.4333 -1.3102
 3721WAT     H211375   2.340   3.756   1.611  0.3773  0.4412 -0.6061
 3722WAT      O11376   1.021   1.321   3.998  0.2815 -0.2437  0.3035
 3722WAT     H111377   1.112   1.290   4.004  0.6838  0.5672 -1.1052
 3722WAT     H211378   1.003   1.358   4.084  2.0277  1.4475  0.0123
 3723WAT      O11379   2.449   2.868   3.545 -0.1055 -0.3125 -0.2209
 3723WAT     H111380   2.370   2.815   3.530  0.5391 -0.4725 -3.8656
 3723WAT     H211381   2.520   2.804   3.549  0.1495  0.0009  0.5162
 3724WAT      O11382   4.251   1.722   5.159  0.7206  0.2025  0.5036
 3724WAT     H111383   4.303   1.670   5.220  0.7821 -1.1005 -0.6047
 3724WAT     H211384   4.168   1.675   5.152  1.1001 -0.3031 -1.1947
 3725WAT      O11385   4.356   4.157   3.931  0.5030 -0.4559 -0.6805
 3725WAT     H111386   4.379   4.100   3.858  1.7464 -1.1986  0.2564
 3725WAT     H211387   4.377   4.105   4.009 -0.9787  0.2321  0.2266
 3726WAT      O11388   0.769   5.106   1.950 -0.2463 -0.7966 -0.0987
 3726WAT     H111389   0.694   5.145   1.905 -1.4829 -1.7520  1.0398
 3726WAT     H211390   0.834   5.176   1.955 -1.8906  0.7287  0.7721
 3727WAT      O11391   2.017   1.235   1.350  0.1485  0.3051 -0.2815
 3727WAT     H111392   1.947   1.299   1.336 -0.7111 -0.5076  0.1493
 3727WAT     H211393   2.043   1.208   1.262  0.8122  1.5312 -0.4774
 3728WAT      O11394   1.952   3.860   3.618  0.2752 -0.3358 -0.1212
 3728WAT     H111395   1.992   3.908   3.546 -0.0443 -2.3648 -1.7451
 3728WAT     H211396   1.965   3.768   3.595  0.1835 -1.0635  2.4556
 3729WAT      O11397   0.885   4.165   4.733  0.2179  0.5254 -0.9448
 3729WAT     H111398   0.912   4.195   4.820 -0.3624 -0.4411 -0.4120
 3729WAT     H211399   0.884   4.244   4.680 -3.7653  2.1008  1.0034
 3730WAT      O11400   0.388   0.295   1.652  0.0701 -0.0266  0.3688
 3730WAT     H111401   0.457   0.354   1.621  0.4816 -0.0264  1.2560
 3730WAT     H211402   0.331   0.283   1.576  1.0743 -0.0759 -0.3941
 3731WAT      O11403   1.784   3.910   0.997  0.0201  0.5287 -0.0598
 3731WAT     H111404   1.808   3.872   0.912  0.7390  1.6855 -0.3888
 3731WAT     H211405   1.837   3.861   1.060  1.4119  1.3554 -0.5412
 3732WAT      O11406   0.492   5.035   1.669  0.1433  0.0011  0.3815
 3732WAT     H111407   0.398   5.027   1.689  0.1697  0.2269  0.5983
 3732WAT     H211408   0.532   4.960   1.713 -0.0860 -0.8222 -0.7472
 3733WAT      O11409   0.687   5.006   2.189 -0.0042 -0.0182 -0.2249
 3733WAT     H111410   0.721   5.044   2.108 -0.3983 -0.1984 -0.4749
 3733WAT     H211411   0.711   5.069   2.257 -0.9813  0.8645 -0.6813
 3734WAT      O11412   3.234   4.470   1.147 -0.3266 -0.1340 -0.0218
 3734WAT     H111413   3.196   4.536   1.205  0.0264  0.7896 -0.8049
 3734WAT     H211414   3.327   4.490   1.146  0.0853 -1.8118  1.1615
 3735WAT      O11415   3.237   3.861   2.977  0.0034 -0.3615  0.4681
 3735WAT     H111416   3.325   3.826   2.992  0.2652  0.3581  0.6923
 3735WAT     H211417   3.210   3.893   3.063 -0.6070 -0.8648  0.4619
 3736WAT      O11418   1.053   2.508   4.218 -0.0139 -0.1869 -0.1805
 3736WAT     H111419   0.977   2.561   4.244  0.3067  1.4108 -2.2777
 3736WAT     H211420   1.129   2.562   4.241  0.3889 -0.5509 -0.6317
 3737WAT      O11421   4.173   2.338   3.711 -0.4721 -0.2121  0.6525
 3737WAT     H111422   4.090   2.375   3.680 -0.0221 -1.0493 -1.7708
 3737WAT     H211423   4.153   2.246   3.728 -0.1072 -0.3683  0.2610
 3738WAT      O11424   3.270   4.627   3.529  0.4019  0.7562 -1.0352
 3738WAT     H111425   3.315   4.597   3.609  0.6368  1.8364 -0.7519
 3738WAT     H211426   3.193   4.674   3.561 -0.2469  0.0443 -1.4951
 3739WAT      O11427   3.254   1.975   0.683 -0.0643  0.0948 -0.2977
 3739WAT     H111428   3.277   2.053   0.733  0.9864 -0.5107  0.1889
 3739WAT     H211429   3.324   1.913   0.701 -0.1896 -0.5014 -1.7336
 3740WAT      O11430   2.732   3.773   0.831  0.0303 -0.0177 -0.2948
 3740WAT     H111431   2.776   3.727   0.760 -0.0590 -0.7665  0.1157
 3740WAT     H211432   2.755   3.723   0.909  0.1201  0.7837  0.2056
 3741WAT      O11433   3.935   2.323   1.877 -0.0089  0.1087 -0.8089
 3741WAT     H111434   3.996   2.258   1.843  1.7418 -0.0087  2.2131
 3741WAT     H211435   3.861   2.272   1.909  0.8872 -0.3448  0.6012
 3742WAT      O11436   4.452   4.672   2.293 -0.9278 -0.2979 -0.1135
 3742WAT     H111437   4.364   4.652   2.263 -1.1658  0.4747  0.0542
 3742WAT     H211438   4.440   4.729   2.369 -0.2886  0.1565 -0.3389
 3743WAT      O11439   0.429   1.202   3.229 -0.2843  0.0168 -0.1985
 3743WAT     H111440   0.408   1.235   3.142  1.1959 -1.5298 -1.2063
 3743WAT     H211441   0.457   1.112   3.215 -0.6915 -0.5265  1.9900
 3744WAT      O11442   0.667   4.696   5.163 -0.2327 -0.0397 -0.4400
 3744WAT     H111443   0.738   4.641   5.130  0.3563  0.5139 -0.1146
 3744WAT     H211444   0.693   4.717   5.253 -1.3186 -0.6893  0.0348
 3745WAT      O11445   3.769   3.353   5.101 -0.2483  0.1111 -0.2998
 3745WAT     H111446   3.691   3.357   5.046 -1.9230 -0.1302  1.9415
 3745WAT     H211447   3.750   3.411   5.175  1.3027 -0.6922  0.7962
 3746WAT      O11448   3.767   3.083   1.071 -0.4926  0.1822  0.2504
 3746WAT     H111449   3.684   3.043   1.097 -0.6659 -0.8145 -1.5972
 3746WAT     H211450   3.785   3.045   0.984  2.1103  0.0171  0.7728
 3747WAT      O11451   2.854   3.778   3.027  0.0074 -0.1625  0.2512
 3747WAT     H111452   2.811   3.770   3.112 -0.7228  2.5755  0.2298
 3747WAT     H211453   2.819   3.859   2.990  1.9959 -0.0844 -1.6688
 3748WAT      O11454   0.191   0.057   2.877  0.4627 -0.4440 -0.2767
 3748WAT     H111455   0.146   0.110   2.943  0.5648 -0.5488 -0.1222
 3748WAT     H211456   0.244   0.120   2.828 -0.2314 -0.2446 -0.7827
 3749WAT      O11457   0.998   3.447   1.217  0.6921 -0.1120 -0.3213
 3749WAT     H111458   0.913   3.482   1.243 -0.1588 -1.1833 -1.5579
 3749WAT     H211459   1.019   3.381   1.283 -0.6114 -1.5585 -1.2981
 3750WAT      O11460   0.271   1.605   3.445  0.0910  0.0227  0.9212
 3750WAT     H111461   0.295   1.563   3.363 -0.2939  0.6397  0.4873
 3750WAT     H211462   0.351   1.604   3.497  1.3485  2.7266 -0.7656
 3751WAT      O11463   0.522   4.446   1.030 -0.7763  0.3541 -0.0607
 3751WAT     H111464   0.489   4.357   1.039  0.2365 -0.0320 -0.0720
 3751WAT     H211465   0.595   4.451   1.092  0.1387  0.6819 -1.1318
 3752WAT      O11466   4.419   0.000   2.138 -0.6987  0.0723  0.2090
 3752WAT     H111467   4.392   0.091   2.152 -1.0798  0.0552 -0.3575
 3752WAT     H211468   4.349  -0.037   2.083 -0.0725 -0.2940 -0.3602
 3753WAT      O11469   0.222   3.167   3.852  0.0542 -0.1955 -0.4186
 3753WAT     H111470   0.158   3.100   3.825  0.1509 -0.2286 -0.5680
 3753WAT     H211471   0.171   3.248   3.854 -0.1514 -0.3300  0.1259
 3754WAT      O11472   3.327   0.418   0.777  0.0700  0.4580  0.1602
 3754WAT     H111473   3.276   0.383   0.703  1.1359 -0.4465 -0.1818
 3754WAT     H211474   3.401   0.357   0.786  0.7618  1.3881  1.0268
 3755WAT      O11475   0.925   1.473   2.927 -0.1182  0.3207  0.2335
 3755WAT     H111476   0.894   1.526   3.000  0.8665  1.1671  0.0480
 3755WAT     H211477   0.890   1.516   2.849 -2.0395 -1.1592  0.2053
 3756WAT      O11478   1.368   0.924   5.248  0.6205 -0.5781  0.2835
 3756WAT     H111479   1.325   0.857   5.195 -1.2128  1.0170 -0.4029
 3756WAT     H211480   1.300   0.990   5.263  2.7911  2.1381 -0.8321
 3757WAT      O11481   2.593   4.842   2.174 -0.3288  0.4633 -0.5234
 3757WAT     H111482   2.587   4.936   2.192 -0.6067  0.4392 -0.4803
 3757WAT     H211483   2.637   4.806   2.251  2.5268  0.9421 -1.7982
 3758WAT      O11484   2.227   3.817   4.652  0.4364 -0.1858  0.3814
 3758WAT     H111485   2.265   3.904   4.670  1.9816 -0.3420 -1.7257
 3758WAT     H211486   2.287   3.756   4.696 -1.5070 -0.2237  3.2004
 3759WAT      O11487   2.499   3.785   0.640 -0.5586 -0.0716  0.3944
 3759WAT     H111488   2.434   3.738   0.694  0.3179 -1.9885 -0.1130
 3759WAT     H211489   2.568   3.810   0.702 -0.1679 -1.1283  0.4141
 3760WAT      O11490   0.082   3.645   1.624 -0.5939  0.2296  0.6429
 3760WAT     H111491   0.169   3.685   1.631  0.5767 -1.9466 -0.4568
 3760WAT     H211492   0.023   3.718   1.607  1.0936  1.7077  0.9017
 3761WAT      O11493   4.230   3.556   2.038 -0.2507  0.2260 -0.8770
 3761WAT     H111494   4.294   3.603   2.092  1.1492 -1.5339 -0.8985
 3761WAT     H211495   4.277   3.536   1.957 -0.3071 -2.2494 -0.3877
 3762WAT      O11496   2.349   3.698   3.028  0.0127  0.4307 -0.0763
 3762WAT     H111497   2.361   3.731   2.939 -1.9847  2.1311  0.2173
 3762WAT     H211498   2.385   3.767   3.084 -0.3945  0.2039  0.4759
 3763WAT      O11499   1.375   2.603   3.139  0.0968  0.4703 -0.0776
 3763WAT     H111500   1.324   2.597   3.220  0.1621  0.3356 -0.0464
 3763WAT     H211501   1.430   2.524   3.139 -0.0298  0.3775 -0.3365
 3764WAT      O11502   0.853   1.241   3.794  0.4180 -0.1532  0.6117
 3764WAT     H111503   0.907   1.261   3.870  1.2282 -0.8350  0.2433
 3764WAT     H211504   0.862   1.146   3.783  0.5711 -0.0268 -0.5082
 3765WAT      O11505   1.251   3.907   4.070 -0.1669  0.1175 -0.4740
 3765WAT     H111506   1.204   3.843   4.015 -1.1571  0.5171 -0.1223
 3765WAT     H211507   1.188   3.979   4.081  0.3564  0.4438  0.4348
 3766WAT      O11508   1.219   4.394   2.189  0.6480 -0.0381 -0.0722
 3766WAT     H111509   1.271   4.474   2.196 -0.2707  0.8726 -2.4634
 3766WAT     H211510   1.273   4.334   2.139 -0.9008  1.4715 -4.0226
 3767WAT      O11511   4.011   0.554   2.006 -0.2106 -0.2737  0.0726
 3767WAT     H111512   4.077   0.487   1.988 -0.4234 -0.9686  1.7159
 3767WAT     H211513   3.939   0.533   1.947 -0.1424 -1.2937  0.3377
 3768WAT      O11514   2.332   1.515   0.721 -0.1835 -0.1698 -0.3402
 3768WAT     H111515   2.359   1.537   0.810 -1.2775  0.1013 -0.0568
 3768WAT     H211516   2.394   1.561   0.665  1.1800 -1.2109  0.2664
 3769WAT      O11517   2.942   2.217   4.086  0.5452  0.2247 -0.3647
 3769WAT     H111518   2.909   2.134   4.121  1.2085 -0.3687 -1.1183
 3769WAT     H211519   2.875   2.281   4.111 -0.1926 -0.6052 -0.1410
 3770WAT      O11520   2.295   0.734   1.338 -0.2373  0.1326  0.5702
 3770WAT     H111521   2.226   0.745   1.272  0.2033  0.2343  0.1209
 3770WAT     H211522   2.295   0.640   1.357  1.4018 -0.3541 -1.5435
 3771WAT      O11523   2.397   4.943   1.521  0.2254  0.2025 -0.0076
 3771WAT     H111524   2.445   4.872   1.479  0.3329  0.6455 -0.6344
 3771WAT     H211525   2.430   4.944   1.611  0.7203 -0.0871 -0.1870
 3772WAT      O11526   2.178   0.122   1.076  0.1993 -0.6749  0.1489
 3772WAT     H111527   2.092   0.083   1.095 -0.2640  0.3848  0.2888
 3772WAT     H211528   2.202   0.086   0.990 -1.1179  0.2049 -0.6225
 3773WAT      O11529   0.388   3.045   3.495  0.1623  0.2939 -0.6148
 3773WAT     H111530   0.412   3.021   3.585  2.3174  1.2287 -0.8976
 3773WAT     H211531   0.384   3.141   3.496  3.5603  0.5675 -2.2097
 3774WAT      O11532   0.318   3.627   0.779  0.2047 -0.1403 -0.3415
 3774WAT     H111533   0.357   3.653   0.695 -0.8905 -0.6772 -1.0400
 3774WAT     H211534   0.382   3.568   0.818  1.3538  1.1909 -0.1429
 3775WAT      O11535   3.363   4.093   4.644 -0.2486  0.8128  0.1758
 3775WAT     H111536   3.370   4.136   4.559 -0.0856  0.0780 -0.1902
 3775WAT     H211537   3.362   4.165   4.707  0.7913  1.3314 -0.3647
 3776WAT      O11538   4.356   2.971   1.751 -0.1070 -0.4084  0.4126
 3776WAT     H111539   4.288   2.927   1.801 -1.6115 -0.6544 -1.7068
 3776WAT     H211540   4.310   3.005   1.674  2.0304  0.1251 -0.6889
 3777WAT      O11541   3.090   0.505   4.615 -0.1994 -0.1062 -0.2852
 3777WAT     H111542   3.038   0.446   4.670  0.5979 -0.3293  0.2539
 3777WAT     H211543   3.088   0.588   4.662  2.0958 -0.7858  1.1804
 3778WAT      O11544   2.938   0.974   0.825  0.0355  0.0093  0.0468
 3778WAT     H111545   2.982   0.904   0.873 -0.4505  0.7560  1.6224
 3778WAT     H211546   3.008   1.034   0.799  0.1386  0.4337  1.2575
 3779WAT      O11547   1.801   4.171   0.319  0.5972 -0.2856  0.0112
 3779WAT     H111548   1.799   4.221   0.401  0.2959 -0.8874  0.3717
 3779WAT     H211549   1.891   4.181   0.288  0.5969  0.3107  0.1865
 3780WAT      O11550   3.719   3.388   1.961  0.4756 -0.0334 -0.6347
 3780WAT     H111551   3.673   3.402   1.878 -0.1874  1.3249 -0.0644
 3780WAT     H211552   3.695   3.463   2.015  0.3831 -1.2024  1.0318
 3781WAT      O11553   4.331   4.487   4.994 -0.3300 -0.1629 -0.0310
 3781WAT     H111554   4.364   4.540   5.067  1.2548 -0.2566 -0.6494
 3781WAT     H211555   4.279   4.548   4.942 -0.1724  0.2850  0.3254
 3782WAT      O11556   1.114   3.735   4.266  0.1266  0.3336 -0.3579
 3782WAT     H111557   1.173   3.688   4.206 -1.3576 -1.2888 -0.6211
 3782WAT     H211558   1.060   3.789   4.208 -1.3484 -1.2793 -0.5662
 3783WAT      O11559   1.187   4.357   4.798  0.4573 -0.1898  0.1427
 3783WAT     H111560   1.271   4.313   4.801  1.0494  0.9461  1.4165
 3783WAT     H211561   1.171   4.385   4.889 -0.9800  0.1583 -0.1923
 3784WAT      O11562   3.613   0.413   3.633 -0.5598 -0.4749  0.9647
 3784WAT     H111563   3.705   0.437   3.636  0.3033 -3.2304 -0.1930
 3784WAT     H211564   3.596   0.393   3.541 -1.4155 -2.9244  1.5760
 3785WAT      O11565   0.392   0.594   0.532 -0.4361 -0.0129 -0.6587
 3785WAT     H111566   0.417   0.672   0.484 -0.1898  0.2678 -0.0815
 3785WAT     H211567   0.331   0.626   0.599 -0.9762 -0.4339 -0.9440
 3786WAT      O11568   0.915   0.284   4.841 -0.0296 -0.6869  0.6985
 3786WAT     H111569   0.898   0.346   4.912 -1.5838 -0.9463  0.5821
 3786WAT     H211570   0.862   0.207   4.863  1.5889 -1.8698  0.6603
 3787WAT      O11571   2.719   3.540   4.132 -0.7409  0.6493  0.3911
 3787WAT     H111572   2.716   3.576   4.043  0.6605  0.4551  0.2390
 3787WAT     H211573   2.632   3.503   4.145 -0.3701 -1.2331 -1.7312
 3788WAT      O11574   1.366   0.813   4.242 -0.5306 -0.2625  0.2161
 3788WAT     H111575   1.330   0.762   4.170 -1.0969 -0.7609  0.8363
 3788WAT     H211576   1.454   0.838   4.213 -1.1564  0.4969 -1.0959
 3789WAT      O11577   2.907   4.382   2.466  0.0677  0.3177 -0.0175
 3789WAT     H111578   2.896   4.298   2.511  0.1294 -0.3414 -1.1928
 3789WAT     H211579   2.887   4.448   2.533 -1.5897 -0.6563  0.5076
 3790WAT      O11580   3.267   1.040   2.356 -0.0449 -0.0663  0.5261
 3790WAT     H111581   3.194   1.007   2.407 -1.0747 -0.4775 -1.1180
 3790WAT     H211582   3.337   0.976   2.369 -1.4549 -2.1322 -1.2826
 3791WAT      O11583   2.549   3.572   0.470  0.7645  0.3568  0.6135
 3791WAT     H111584   2.489   3.641   0.496 -1.8219 -0.7251 -1.9466
 3791WAT     H211585   2.634   3.615   0.461  0.3512  2.0954  3.6765
 3792WAT      O11586   0.859   4.922   0.046 -0.2626 -0.6230 -0.1782
 3792WAT     H111587   0.792   4.857   0.068 -0.0823 -0.5682  0.5807
 3792WAT     H211588   0.812   5.006   0.047 -0.5216 -0.7366 -1.2791
 3793WAT      O11589   1.701   5.113   0.088 -0.0658  0.4780 -0.3011
 3793WAT     H111590   1.642   5.169   0.140  0.0472 -1.4712  2.1329
 3793WAT     H211591   1.789   5.138   0.118  0.1918  1.0208 -1.4379
 3794WAT      O11592   1.790   4.670   1.259 -0.2085 -0.1828  0.0180
 3794WAT     H111593   1.769   4.624   1.340 -2.1847 -2.1280 -1.4706
 3794WAT     H211594   1.855   4.615   1.216  0.6078  0.6848  0.1043
 3795WAT      O11595   1.014   2.108   4.863 -0.1473 -0.1922 -0.6186
 3795WAT     H111596   0.964   2.173   4.913 -0.1705 -1.3068  0.8911
 3795WAT     H211597   1.038   2.153   4.782  0.9451  2.1630  0.8815
 3796WAT      O11598   2.902   2.333   4.887 -0.0869 -0.0172 -0.4706
 3796WAT     H111599   2.846   2.409   4.901 -0.2576 -0.2623  0.1919
 3796WAT     H211600   2.960   2.360   4.815 -0.2686  0.6684 -0.3739
 3797WAT      O11601   3.121   2.950   1.327  0.3359  0.2283  0.6806
 3797WAT     H111602   3.193   2.982   1.272 -0.2732 -0.8554 -0.8087
 3797WAT     H211603   3.071   3.029   1.348  1.0094  0.7682  0.3239
 3798WAT      O11604   0.366   1.481   0.133 -0.3069  0.1524 -0.1472
 3798WAT     H111605   0.307   1.450   0.202  2.5190 -1.9169  1.5067
 3798WAT     H211606   0.364   1.577   0.141 -1.0298  0.0101  1.9636
 3799WAT      O11607   2.387   0.940   0.235  0.2986  0.1541  0.1406
 3799WAT     H111608   2.447   0.867   0.225  0.5659  0.4093 -0.1201
 3799WAT     H211609   2.323   0.909   0.300 -0.2042 -0.7008 -0.7388
 3800WAT      O11610   4.380   0.137   1.656 -0.0697  0.2063  0.0560
 3800WAT     H111611   4.401   0.071   1.723 -1.5695 -0.4519 -0.0820
 3800WAT     H211612   4.376   0.088   1.575  1.8685  1.0275 -0.5989
 3801WAT      O11613   1.020   0.163   0.390  0.9717  0.0242 -0.1263
 3801WAT     H111614   1.033   0.070   0.376  2.4436  0.3553 -1.0754
 3801WAT     H211615   1.107   0.202   0.385  0.7682  1.1777  2.7703
 3802WAT      O11616   1.612   1.150   0.077 -0.0757 -0.3663 -0.0849
 3802WAT     H111617   1.695   1.121   0.116  0.1397 -0.6014 -0.7036
 3802WAT     H211618   1.613   1.113  -0.011 -0.6969 -0.1015 -0.2073
 3803WAT      O11619   2.496   3.349   1.818 -0.1116 -0.5003 -0.2919
 3803WAT     H111620   2.586   3.349   1.785  0.6360 -0.5454  1.6161
 3803WAT     H211621   2.504   3.375   1.910 -1.8844 -1.9156  0.3345
 3804WAT      O11622   0.822   4.575   2.053  0.0965  0.0790  0.0551
 3804WAT     H111623   0.796   4.517   1.982 -0.9014  0.7922 -0.1972
 3804WAT     H211624   0.749   4.637   2.061  1.6089  2.0532 -0.4880
 3805WAT      O11625   0.930   4.575   4.980 -0.0106  0.0446  0.5059
 3805WAT     H111626   0.889   4.617   4.905  0.0319 -0.3209  0.2799
 3805WAT     H211627   0.946   4.647   5.041 -0.3920  0.2860  0.3276
 3806WAT      O11628   2.699   3.525   4.577 -0.1002 -0.2813  0.3323
 3806WAT     H111629   2.720   3.485   4.662  1.2361  1.1762  0.7417
 3806WAT     H211630   2.760   3.484   4.516  0.7090  0.4737  0.5994
 3807WAT      O11631   1.328   1.611   2.960  0.7739 -0.0005 -0.0883
 3807WAT     H111632   1.416   1.593   2.995  0.5343 -1.3995 -0.1479
 3807WAT     H211633   1.270   1.601   3.035  0.3960 -1.7531 -0.5761
 3808WAT      O11634   0.448   0.485   3.261 -0.3432  0.3533  0.6496
 3808WAT     H111635   0.490   0.567   3.233  0.1417 -0.0798  0.0879
 3808WAT     H211636   0.363   0.513   3.296 -0.2834  1.0734  0.2472
 3809WAT      O11637   0.877   2.324   2.561  0.1178 -0.8555  0.6242
 3809WAT     H111638   0.919   2.354   2.641 -1.0856 -0.2352  1.0470
 3809WAT     H211639   0.787   2.302   2.587 -0.5073  0.0102 -0.6679
 3810WAT      O11640   2.635   0.045   2.528 -0.2045 -0.5997  0.2092
 3810WAT     H111641   2.585   0.098   2.466  0.0091  0.0828  0.6157
 3810WAT     H211642   2.571  -0.017   2.564 -0.1471 -1.6430 -1.3678
 3811WAT      O11643   3.937   2.223   4.270 -0.0867 -0.5098 -0.0788
 3811WAT     H111644   3.954   2.198   4.179 -1.2262 -0.1896 -0.3972
 3811WAT     H211645   3.917   2.316   4.266 -0.7808 -0.6316  0.4086
 3812WAT      O11646   1.217   5.024   3.255  0.3404 -0.2718  0.0113
 3812WAT     H111647   1.267   5.059   3.181 -3.5017  2.1546 -1.7273
 3812WAT     H211648   1.223   5.091   3.322 -0.6797  0.1422 -0.2961
 3813WAT      O11649   2.608   1.398   2.803  0.3464 -0.4069 -0.3073
 3813WAT     H111650   2.569   1.377   2.887  0.4275 -1.9177 -0.6188
 3813WAT     H211651   2.607   1.316   2.754  2.0842 -0.0466 -1.0560
 3814WAT      O11652   3.288   1.737   4.495  0.2983  0.0935 -0.1062
 3814WAT     H111653   3.338   1.815   4.469 -0.5423  1.0551  0.9947
 3814WAT     H211654   3.212   1.737   4.438 -0.3507  0.8548  0.7133
 3815WAT      O11655   0.778   1.454   3.433  0.1281 -0.0818 -0.1025
 3815WAT     H111656   0.710   1.387   3.438 -1.4344  1.4086 -0.6943
 3815WAT     H211657   0.789   1.483   3.524  1.1353 -1.3822  0.2295
 3816WAT      O11658   3.147   1.900   2.739 -0.3349  0.3420 -0.2812
 3816WAT     H111659   3.213   1.948   2.689  0.3248  0.4992  0.6961
 3816WAT     H211660   3.180   1.810   2.742 -0.3687  0.3335 -0.1446
 3817WAT      O11661   1.018   4.253   1.885 -0.1571  0.2044 -0.5730
 3817WAT     H111662   0.997   4.262   1.978 -0.2338  0.8888 -0.6460
 3817WAT     H211663   1.078   4.179   1.880 -0.7092 -0.2875 -0.0699
 3818WAT      O11664   1.909   4.568   0.666  0.5185 -0.2075  0.3249
 3818WAT     H111665   1.865   4.520   0.736  0.0958  1.0948  1.0024
 3818WAT     H211666   1.981   4.613   0.710 -0.5139  1.6557  0.2330
 3819WAT      O11667   2.054   4.328   3.271 -0.2786  0.1130 -0.0508
 3819WAT     H111668   2.113   4.337   3.346 -0.2872 -1.2346  0.1355
 3819WAT     H211669   1.975   4.376   3.297  0.4699  1.4027 -0.0552
 3820WAT      O11670   3.989   0.790   1.168 -0.4538  0.5383 -0.0934
 3820WAT     H111671   4.008   0.821   1.256 -0.0667 -1.8415  0.7200
 3820WAT     H211672   4.075   0.783   1.126 -0.3330 -1.0190  0.3415
 3821WAT      O11673   2.848   2.646   0.860  0.3855  0.0861 -0.3707
 3821WAT     H111674   2.776   2.686   0.811 -1.8092 -1.6216  1.2089
 3821WAT     H211675   2.876   2.714   0.922 -0.6200  0.4548 -0.3012
 3822WAT      O11676   3.409   0.109   1.686  0.0034 -0.2223  0.5492
 3822WAT     H111677   3.334   0.065   1.645 -0.3941  0.3703  0.6237
 3822WAT     H211678   3.456   0.148   1.612  0.1336 -0.4248  0.5224
 3823WAT      O11679   2.706   3.977   2.469 -0.0188  0.0548  0.1259
 3823WAT     H111680   2.679   3.886   2.460 -1.3136  0.1480  2.3500
 3823WAT     H211681   2.787   3.973   2.519  1.4692  0.0595 -2.1239
 3824WAT      O11682   0.112   0.798   3.593 -0.5034 -0.0076  0.2678
 3824WAT     H111683   0.116   0.719   3.539 -0.7723  0.0462  0.1705
 3824WAT     H211684   0.137   0.768   3.680  0.4366 -0.0025  0.0131
 3825WAT      O11685   1.371   1.861   4.194 -0.4383  0.0931  0.1415
 3825WAT     H111686   1.368   1.777   4.238 -0.4718  0.8933  1.7295
 3825WAT     H211687   1.301   1.857   4.128 -2.1576 -0.1990  1.9131
 3826WAT      O11688   4.004   2.147   2.634  0.2254  0.3803  0.2023
 3826WAT     H111689   3.915   2.175   2.655  0.3035 -0.7105  2.2790
 3826WAT     H211690   4.059   2.220   2.662  0.1035  0.2284  0.8503
 3827WAT      O11691   2.464   4.284   2.950  0.3533 -0.0055 -0.1500
 3827WAT     H111692   2.442   4.275   3.043 -1.9707 -0.6785 -0.6983
 3827WAT     H211693   2.528   4.215   2.933  2.0198  1.1181  1.2433
 3828WAT      O11694   3.762   2.643   3.917 -0.4058 -0.1367 -0.7352
 3828WAT     H111695   3.720   2.559   3.934  1.1842 -0.9765 -0.8632
 3828WAT     H211696   3.844   2.622   3.874  0.0964  1.4797 -0.6585
 3829WAT      O11697   4.352   1.816   1.494  0.0923  0.0354  0.6158
 3829WAT     H111698   4.445   1.826   1.471 -0.0540 -1.2070 -0.6287
 3829WAT     H211699   4.348   1.732   1.540 -0.2205  0.7534  1.9633
 3830WAT      O11700   0.344   2.256   1.162  0.3941  0.1746  0.5645
 3830WAT     H111701   0.317   2.234   1.073 -0.7445 -1.2357  1.2047
 3830WAT     H211702   0.424   2.205   1.176  0.3115  0.0296  0.5080
 3831WAT      O11703   0.059   0.310   1.756 -0.4815  0.0114 -0.4714
 3831WAT     H111704   0.122   0.242   1.729 -0.5302 -0.8670  1.4817
 3831WAT     H211705  -0.025   0.265   1.757 -0.4531 -0.0624  1.2678
 3832WAT      O11706   2.592   0.220   2.264  0.4510  0.0822  1.2623
 3832WAT     H111707   2.624   0.164   2.194  1.4583  1.6933  0.3699
 3832WAT     H211708   2.508   0.253   2.233 -0.0823 -0.8064  1.7330
 3833WAT      O11709   0.841   0.815   3.506  0.2446  0.5410 -0.1509
 3833WAT     H111710   0.854   0.801   3.412  0.2584 -1.6155  0.1331
 3833WAT     H211711   0.864   0.731   3.546 -0.0517  1.3362  1.7630
 3834WAT      O11712   0.131   4.758   5.266 -0.3982 -0.5464  0.7085
 3834WAT     H111713   0.141   4.721   5.353 -0.8721 -2.2251  0.0730
 3834WAT     H211714   0.075   4.696   5.219  0.1653  0.1219 -0.9148
 3835WAT      O11715   3.738   3.463   2.306 -0.0996 -0.4333 -0.2964
 3835WAT     H111716   3.807   3.436   2.246 -0.4977  2.4969 -2.2843
 3835WAT     H211717   3.696   3.537   2.262 -2.5126 -0.1501  2.2274
 3836WAT      O11718   1.580   4.494   2.220 -0.0959  0.1312 -0.7965
 3836WAT     H111719   1.580   4.580   2.262 -0.5216 -0.2208 -0.0439
 3836WAT     H211720   1.552   4.511   2.130 -0.5496  0.7407 -0.5504
 3837WAT      O11721   1.409   0.757   0.655  0.8244  0.2889 -0.2055
 3837WAT     H111722   1.502   0.778   0.659  1.1024 -1.0114  0.5997
 3837WAT     H211723   1.373   0.792   0.736  0.7956 -0.0565 -0.0686
 3838WAT      O11724   2.840   4.460   4.672 -0.3171  0.5407 -0.4322
 3838WAT     H111725   2.891   4.540   4.682 -0.2574  0.3500  1.0976
 3838WAT     H211726   2.900   4.391   4.701 -0.9426  0.1438 -0.0782
 3839WAT      O11727   1.131   0.867   4.979 -0.7130 -0.2088 -0.7801
 3839WAT     H111728   1.168   0.826   4.901  1.7066 -0.8706  0.6195
 3839WAT     H211729   1.083   0.797   5.023 -0.7376 -0.2388 -0.8543
 3840WAT      O11730   1.702   0.784   0.174 -0.2159 -0.5979 -0.1264
 3840WAT     H111731   1.689   0.811   0.265 -0.2637 -0.2638 -0.2316
 3840WAT     H211732   1.667   0.695   0.170 -2.4728  0.2442 -0.3956
 3841WAT      O11733   0.616   3.509   2.941  0.1311  0.0534  0.0261
 3841WAT     H111734   0.679   3.537   2.875 -0.3667  1.8211  0.2534
 3841WAT     H211735   0.658   3.433   2.983  1.2842  0.0709 -1.0368
 3842WAT      O11736   3.302   4.360   4.808  0.5762  0.0950  0.2709
 3842WAT     H111737   3.275   4.401   4.726  0.4488 -1.4424 -0.4867
 3842WAT     H211738   3.232   4.381   4.869  0.6448  1.2189 -0.0046
 3843WAT      O11739   0.225   2.007   4.136  0.6437  0.5184  0.2455
 3843WAT     H111740   0.317   2.003   4.107  0.6653  1.1148  0.2185
 3843WAT     H211741   0.216   2.094   4.175  0.1882  0.3185  0.5951
 3844WAT      O11742   0.245   4.128   4.439  0.4552  0.4503  0.1569
 3844WAT     H111743   0.259   4.131   4.344  0.2150  2.1611  0.1294
 3844WAT     H211744   0.156   4.098   4.450 -0.3805  2.5407 -0.3264
 3845WAT      O11745   0.896   1.299   4.620 -0.5702  0.0360  0.2977
 3845WAT     H111746   0.956   1.235   4.582  0.0000  0.4260  0.5341
 3845WAT     H211747   0.810   1.257   4.614 -0.2166 -0.7283  0.3988
 3846WAT      O11748   3.347   0.905   0.578 -0.2308 -0.2235 -0.7547
 3846WAT     H111749   3.268   0.854   0.595 -0.3218  0.0141 -0.4567
 3846WAT     H211750   3.419   0.846   0.600 -0.3485  0.3540  1.3183
 3847WAT      O11751   1.873   1.390   3.896  0.5046  0.1133 -0.7253
 3847WAT     H111752   1.964   1.380   3.870  0.0370 -1.5106 -1.8402
 3847WAT     H211753   1.865   1.483   3.918  2.5599  0.1746  0.0237
 3848WAT      O11754   3.047   2.505   0.298  0.2278 -0.0314  0.8670
 3848WAT     H111755   3.092   2.466   0.373  1.1789 -2.3474 -0.7906
 3848WAT     H211756   2.980   2.441   0.275 -2.1350  2.0752  1.5513
 3849WAT      O11757   2.132   1.435   3.902  0.1112  0.2426  0.4181
 3849WAT     H111758   2.153   1.503   3.966  0.1541 -0.5417  1.2727
 3849WAT     H211759   2.207   1.434   3.843  1.1094 -0.4591  1.6417
 3850WAT      O11760   4.095   2.103   1.778  0.2801 -0.0818 -0.2837
 3850WAT     H111761   4.118   2.012   1.755 -1.1319 -0.5333 -0.0217
 3850WAT     H211762   4.176   2.152   1.767  2.2300 -2.0487  3.4662
 3851WAT      O11763   3.078   4.801   5.120 -0.0367 -0.5655 -0.3904
 3851WAT     H111764   3.172   4.792   5.105 -0.0975  0.4512 -1.5893
 3851WAT     H211765   3.044   4.712   5.121  0.9200 -0.9342 -0.0172
 3852WAT      O11766   2.510   2.804   0.503 -0.6773 -0.2417 -0.3740
 3852WAT     H111767   2.580   2.757   0.548 -1.9785 -1.8390  0.0812
 3852WAT     H211768   2.446   2.822   0.571 -0.7528  1.2042 -0.7852
 3853WAT      O11769   0.657   1.775   3.375 -0.0848 -0.1337 -0.1641
 3853WAT     H111770   0.707   1.843   3.421 -2.7280  0.0419  2.7717
 3853WAT     H211771   0.625   1.718   3.445 -1.0512 -2.2774 -2.2330
 3854WAT      O11772   0.709   1.520   0.426  0.0057 -0.6012  0.5328
 3854WAT     H111773   0.717   1.495   0.519  0.5361  2.6513  1.4965
 3854WAT     H211774   0.796   1.551   0.403 -0.6980  0.7996 -0.3238
 3855WAT      O11775   0.584   4.892   3.562  0.2288  0.0012 -0.2801
 3855WAT     H111776   0.588   4.878   3.468  0.8929  1.3054 -0.4694
 3855WAT     H211777   0.628   4.817   3.601 -1.2861 -1.2632 -0.9234
 3856WAT      O11778   3.846   4.379   0.266  0.5577  0.1573  0.5001
 3856WAT     H111779   3.822   4.365   0.358 -0.1599  0.8769  0.4331
 3856WAT     H211780   3.934   4.342   0.259  0.2709 -0.7082  1.2604
 3857WAT      O11781   0.940   1.119   1.205 -0.1642 -0.8742 -0.0293
 3857WAT     H111782   0.955   1.211   1.181 -1.4421 -0.5256  0.4259
 3857WAT     H211783   1.021   1.075   1.180  0.0436  0.1658 -1.3316
 3858WAT      O11784   0.836   2.334   0.390 -0.5698  0.2390  0.0663
 3858WAT     H111785   0.840   2.346   0.295 -1.7090 -0.1508 -0.0412
 3858WAT     H211786   0.763   2.273   0.403 -2.1013  2.2423  1.3545
 3859WAT      O11787   2.398   4.234   3.207 -0.3582  0.0313 -0.7348
 3859WAT     H111788   2.461   4.166   3.230 -0.5543  0.2595  0.5004
 3859WAT     H211789   2.379   4.278   3.289 -1.0282  0.9112 -1.3485
 3860WAT      O11790   0.684   3.012   3.429  0.0263  0.7032  0.1675
 3860WAT     H111791   0.596   3.014   3.467  0.4529  0.4603  1.1845
 3860WAT     H211792   0.742   3.039   3.500  0.9992 -1.1677  0.1389
 3861WAT      O11793   4.053   3.158   3.197  0.2735 -0.8483 -0.3444
 3861WAT     H111794   4.080   3.067   3.189  2.0298 -0.5662  1.5297
 3861WAT     H211795   4.088   3.186   3.281 -1.3861  1.1936 -0.2498
 3862WAT      O11796   2.670   0.254   1.957  0.3599 -0.0138 -0.4978
 3862WAT     H111797   2.679   0.335   2.006 -0.8778  1.0579 -1.9401
 3862WAT     H211798   2.672   0.281   1.865 -0.1996 -1.5967 -1.0128
 3863WAT      O11799   4.396   1.963   3.217 -0.0086  0.3655  0.5722
 3863WAT     H111800   4.448   2.032   3.176  2.0005 -0.8419  0.9720
 3863WAT     H211801   4.307   1.980   3.187  0.9596  0.9820 -2.3049
 3864WAT      O11802   0.590   2.874   0.343  0.1491  0.3560 -0.0303
 3864WAT     H111803   0.564   2.928   0.417  0.8000 -0.3316  0.7133
 3864WAT     H211804   0.655   2.814   0.378 -0.6402 -1.0064 -0.8102
 3865WAT      O11805   1.796   2.614   1.181 -0.2324  0.0903 -0.2008
 3865WAT     H111806   1.835   2.674   1.244 -1.3516 -0.6219  1.2472
 3865WAT     H211807   1.702   2.631   1.186 -0.7135 -2.4333  1.0560
 3866WAT      O11808   4.162   4.236   3.694  0.1658 -0.8996 -0.5141
 3866WAT     H111809   4.253   4.217   3.669  0.0015 -1.3080 -0.8076
 3866WAT     H211810   4.138   4.165   3.753  0.2206 -0.4838  0.0071
 3867WAT      O11811   1.963   4.504   1.156 -0.2275  0.2475 -0.3369
 3867WAT     H111812   2.056   4.525   1.166 -0.5344  0.5869  2.8669
 3867WAT     H211813   1.951   4.423   1.205 -1.9344  1.3238  1.1737
 3868WAT      O11814   2.891   3.660   1.066  0.2983  0.4151  0.2310
 3868WAT     H111815   2.844   3.583   1.034  2.1526 -0.6465 -0.0732
 3868WAT     H211816   2.974   3.660   1.019  1.4872  1.0343  2.1873
 3869WAT      O11817   0.147   5.148   1.531 -0.2064 -0.1949  0.1705
 3869WAT     H111818   0.166   5.063   1.491  2.8938  0.0127  0.8975
 3869WAT     H211819   0.139   5.129   1.624 -0.3353  0.2083  0.2441
 3870WAT      O11820   1.783   0.574   4.006 -0.2197 -0.3084 -0.3391
 3870WAT     H111821   1.688   0.583   4.017 -0.1764  0.8015 -0.7025
 3870WAT     H211822   1.819   0.606   4.089 -0.1413  0.1623 -0.5516
 3871WAT      O11823   3.613   1.996   3.380 -1.0964  0.2626  0.2306
 3871WAT     H111824   3.573   2.077   3.411  2.0353  1.9221  0.3490
 3871WAT     H211825   3.701   2.022   3.354  0.1778 -3.1872  0.6332
 3872WAT      O11826   2.848   4.402   0.464  0.6517  0.2841  0.6194
 3872WAT     H111827   2.758   4.424   0.441  0.4753 -0.9862 -0.0338
 3872WAT     H211828   2.858   4.432   0.554 -0.6837 -0.2738  0.9764
 3873WAT      O11829   1.530   1.674   0.941 -0.0733 -0.4254  0.5030
 3873WAT     H111830   1.478   1.594   0.951 -2.4806  1.1737  1.7087
 3873WAT     H211831   1.482   1.727   0.878  1.2258  0.2887  0.0732
 3874WAT      O11832   1.728   4.303   0.566  0.2710 -0.1497  0.4972
 3874WAT     H111833   1.633   4.295   0.575  0.3852 -1.2488  0.8187
 3874WAT     H211834   1.748   4.389   0.604 -0.7227  0.6486 -0.7094
 3875WAT      O11835   0.718   3.593   1.283 -0.1973  0.5451 -0.1183
 3875WAT     H111836   0.640   3.564   1.330 -0.1724  2.0663  0.9381
 3875WAT     H211837   0.692   3.674   1.239  0.2028 -0.0867 -1.5769
 3876WAT      O11838   2.375   0.693   5.293 -0.2765 -0.2082 -0.3280
 3876WAT     H111839   2.431   0.710   5.368 -1.3076 -1.5017  0.7797
 3876WAT     H211840   2.387   0.770   5.236  0.8239  0.6058  0.9423
 3877WAT      O11841   1.680   1.840   1.660 -0.1569  0.1179  0.2351
 3877WAT     H111842   1.710   1.837   1.751 -1.8163 -2.1376  0.7938
 3877WAT     H211843   1.760   1.856   1.610  0.9894  0.2806  2.0072
 3878WAT      O11844   3.716   2.070   4.200  0.3745  0.1928  0.8180
 3878WAT     H111845   3.664   2.107   4.272  1.0232 -0.3774  1.5958
 3878WAT     H211846   3.803   2.106   4.213  0.6275 -0.3597  0.6482
 3879WAT      O11847   1.609   1.469   1.922 -0.1221 -0.5343 -0.1013
 3879WAT     H111848   1.559   1.448   2.000 -1.3223  2.2543 -0.0372
 3879WAT     H211849   1.600   1.563   1.911  2.2814 -0.4163 -2.0823
 3880WAT      O11850   0.650   2.845   2.903 -1.0624 -0.2896  0.1373
 3880WAT     H111851   0.710   2.871   2.972 -1.1229 -0.2618  0.1799
 3880WAT     H211852   0.656   2.750   2.900  0.8570 -0.1904 -1.5356
 3881WAT      O11853   0.449   2.724   5.130 -0.2491 -0.1472 -0.6564
 3881WAT     H111854   0.459   2.726   5.225  0.2753  0.7624 -0.7230
 3881WAT     H211855   0.481   2.637   5.104 -0.6636 -0.5051  0.0178
 3882WAT      O11856   2.639   1.599   4.243 -0.2571 -0.1347 -0.0454
 3882WAT     H111857   2.623   1.538   4.315  0.4209 -0.3166 -0.0355
 3882WAT     H211858   2.710   1.557   4.193 -1.6172 -0.6868 -1.6001
 3883WAT      O11859   1.260   0.954   2.334  0.0421 -0.4520 -0.0061
 3883WAT     H111860   1.305   1.038   2.349  0.0433 -0.4779  0.1352
 3883WAT     H211861   1.178   0.962   2.382 -0.0097 -0.4864 -0.0902
 3884WAT      O11862   0.927   2.866   2.229  0.0274  0.9838 -0.0657
 3884WAT     H111863   0.953   2.809   2.301 -0.0090  1.1197  0.0564
 3884WAT     H211864   0.834   2.883   2.244  0.2957  2.0159  0.5597
 3885WAT      O11865   1.289   3.424   4.424  0.7182 -0.1649  0.7126
 3885WAT     H111866   1.272   3.360   4.493 -0.4478 -1.6129 -0.8347
 3885WAT     H211867   1.336   3.495   4.468  0.5178 -1.2809  2.8525
 3886WAT      O11868   2.479   4.436   4.190 -0.1185  0.4415  0.6428
 3886WAT     H111869   2.567   4.403   4.171 -0.7526 -1.7441  1.2278
 3886WAT     H211870   2.492   4.499   4.261  0.9343 -0.2779  1.1248
 3887WAT      O11871   3.739   2.316   2.703  0.0562 -0.1586 -0.6472
 3887WAT     H111872   3.693   2.393   2.671 -1.2707 -0.4273  0.5170
 3887WAT     H211873   3.677   2.274   2.763  1.8646 -0.4754  1.1027
 3888WAT      O11874   0.802   2.856   1.134 -0.2174 -0.1279  0.0496
 3888WAT     H111875   0.706   2.862   1.131 -0.2609  0.7908  1.9532
 3888WAT     H211876   0.832   2.934   1.088 -0.4212  0.2971  0.6215
 3889WAT      O11877   2.820   3.091   0.723 -0.1201  0.1244  0.4102
 3889WAT     H111878   2.729   3.120   0.725 -0.1209  0.3821 -1.4840
 3889WAT     H211879   2.817   3.005   0.680  0.6810  1.0315 -1.6094
 3890WAT      O11880   1.295   1.676   3.364 -0.1010 -0.2997 -0.4091
 3890WAT     H111881   1.237   1.663   3.289  0.8178 -0.5796 -1.0952
 3890WAT     H211882   1.348   1.596   3.366  1.5378  0.7150 -0.9664
 3891WAT      O11883   2.283   0.988   1.998  0.3510 -0.1218  0.2378
 3891WAT     H111884   2.358   1.031   1.958 -0.3692 -0.7538 -1.9500
 3891WAT     H211885   2.250   0.929   1.930 -1.6964 -0.3940  1.3737
 3892WAT      O11886   0.983   4.092   3.429 -0.2400 -0.0561 -0.4063
 3892WAT     H111887   0.918   4.105   3.359  0.7819 -0.2845 -1.4248
 3892WAT     H211888   1.061   4.137   3.398  0.1841 -0.0044  0.6907
 3893WAT      O11889   3.707   0.073   2.987  0.2349  0.5509 -0.0450
 3893WAT     H111890   3.768   0.078   3.061 -1.1044  0.4054  1.1116
 3893WAT     H211891   3.624   0.103   3.023 -0.8955 -1.2911 -0.9816
 3894WAT      O11892   1.980   1.020   2.380 -0.3028 -0.1891 -0.4371
 3894WAT     H111893   2.047   1.013   2.311 -0.4714  1.2282 -0.7823
 3894WAT     H211894   2.007   0.957   2.446  0.9672 -0.1852 -0.9183
 3895WAT      O11895   0.479   2.784   0.803 -0.5858 -0.5595 -0.0415
 3895WAT     H111896   0.567   2.819   0.822 -0.4364 -1.5611  1.2999
 3895WAT     H211897   0.493   2.726   0.728 -0.4960  0.7452 -1.0862
 3896WAT      O11898   3.980   0.582   4.946  0.0070 -0.4605  0.4603
 3896WAT     H111899   3.991   0.673   4.974  1.2950 -0.5423  0.2768
 3896WAT     H211900   4.004   0.531   5.023 -1.4929 -0.6679  0.8257
 3897WAT      O11901   1.068   0.391   1.782 -0.0003 -0.1699  0.1296
 3897WAT     H111902   1.069   0.486   1.774  0.6554 -0.1557  0.3296
 3897WAT     H211903   1.059   0.359   1.692 -2.7497  0.0962  0.2350
 3898WAT      O11904   2.613   0.408   2.849  0.0234 -0.5311 -0.4909
 3898WAT     H111905   2.621   0.497   2.882 -0.7815 -1.2606  1.8200
 3898WAT     H211906   2.704   0.380   2.833  0.3405  0.3486 -0.2632
 3899WAT      O11907   1.230   2.852   1.967  0.2962 -0.1815  0.3026
 3899WAT     H111908   1.238   2.865   1.873  0.1102  1.0783  0.4511
 3899WAT     H211909   1.318   2.825   1.995  0.9196  1.4836  0.0659
 3900WAT      O11910   0.170   4.330   2.305  0.2329 -0.2741 -0.0264
 3900WAT     H111911   0.151   4.386   2.229 -1.9803 -2.3254 -1.1086
 3900WAT     H211912   0.236   4.268   2.272  0.5713 -0.0867  0.2896
 3901WAT      O11913   3.299   1.665   5.154  0.2342  0.0518  0.3836
 3901WAT     H111914   3.222   1.610   5.139 -1.6278  3.1872 -3.2938
 3901WAT     H211915   3.282   1.705   5.240  0.6991 -3.2733  2.2243
 3902WAT      O11916   1.325   0.841   3.282 -0.1512  0.2042  0.2407
 3902WAT     H111917   1.347   0.758   3.241  2.0754  1.1812 -0.6952
 3902WAT     H211918   1.260   0.880   3.224 -0.5534 -0.4774  0.2228
 3903WAT      O11919   2.958   0.853   3.951 -0.3140 -0.3805  0.2808
 3903WAT     H111920   2.888   0.817   4.005  1.1485 -0.3947  2.2973
 3903WAT     H211921   3.035   0.853   4.008  1.4428 -0.6754 -1.9126
 3904WAT      O11922   0.850   1.595   3.206  0.6510  0.0748 -0.3294
 3904WAT     H111923   0.803   1.678   3.216  1.1886  0.6838 -2.3146
 3904WAT     H211924   0.801   1.533   3.260 -1.0175  1.2312 -0.4341
 3905WAT      O11925   3.030   4.248   4.188 -0.3507  0.4362  0.3062
 3905WAT     H111926   2.958   4.298   4.148  0.6639  0.9025 -1.0273
 3905WAT     H211927   3.109   4.286   4.149  0.4976 -1.5404  0.0155
 3906WAT      O11928   0.974   0.625   1.608  0.4354 -0.1551  0.5191
 3906WAT     H111929   1.013   0.706   1.641 -1.4326  0.3163  1.6782
 3906WAT     H211930   1.048   0.578   1.570  1.7614  1.5988  0.7755
 3907WAT      O11931   4.402   0.473   1.344  0.2803  0.1858  0.9269
 3907WAT     H111932   4.454   0.518   1.411 -1.6164  1.6804  1.4809
 3907WAT     H211933   4.316   0.514   1.349 -0.8666 -1.9363 -0.2193
 3908WAT      O11934   2.060   0.306   2.475 -0.4890  0.0018  0.3474
 3908WAT     H111935   2.056   0.257   2.557 -1.5732  0.6708  0.7164
 3908WAT     H211936   1.999   0.379   2.487  0.5144  1.0088 -0.4751
 3909WAT      O11937   0.355   1.818   1.868 -0.4720 -0.6186  0.4716
 3909WAT     H111938   0.299   1.862   1.933  0.6726 -1.2364  1.9360
 3909WAT     H211939   0.444   1.845   1.892  0.0032 -1.1582 -0.6394
 3910WAT      O11940   2.279   1.142   1.697  0.0545  0.1054 -0.0734
 3910WAT     H111941   2.226   1.084   1.642 -0.2093  1.5198 -1.3693
 3910WAT     H211942   2.368   1.105   1.692 -0.1816 -0.4099 -0.5688
 3911WAT      O11943   1.618   0.216   3.783  0.9359 -0.1280 -0.9443
 3911WAT     H111944   1.691   0.223   3.844 -0.9708  1.7577  1.3092
 3911WAT     H211945   1.635   0.283   3.717  1.9067 -0.6828 -1.2822
 3912WAT      O11946   4.497   4.184   1.974  0.0182  0.1598 -0.0672
 3912WAT     H111947   4.511   4.231   1.892 -1.3030 -0.6287 -0.7717
 3912WAT     H211948   4.449   4.245   2.029 -1.6283 -0.2789 -0.9523
 3913WAT      O11949   3.556   3.321   0.108  0.3633 -0.2913 -0.3948
 3913WAT     H111950   3.572   3.394   0.049 -2.9162  1.4334  0.6188
 3913WAT     H211951   3.571   3.357   0.196  0.1613 -1.2625  0.0568
 3914WAT      O11952   3.984   3.453   2.162 -0.0214  0.4979 -0.0126
 3914WAT     H111953   4.069   3.471   2.122  0.2294  0.4366  0.4891
 3914WAT     H211954   3.921   3.463   2.090  0.4100  0.5200 -0.3897
 3915WAT      O11955   4.147   4.732   1.423 -0.1310  0.2803  0.6516
 3915WAT     H111956   4.177   4.714   1.334  2.9427  1.8621  1.2315
 3915WAT     H211957   4.076   4.795   1.412 -1.3384 -1.2222 -0.7035
 3916WAT      O11958   4.551   3.151   2.725  0.1331  0.4595  0.1350
 3916WAT     H111959   4.466   3.143   2.682  0.8576 -1.9415 -1.0257
 3916WAT     H211960   4.536   3.119   2.814 -0.1539 -0.2158 -0.1483
 3917WAT      O11961   1.441   1.114   4.616  1.0686  0.1859  0.0279
 3917WAT     H111962   1.407   1.200   4.640  0.0538 -0.3184  0.4830
 3917WAT     H211963   1.535   1.128   4.601  0.9213  1.3522  0.1252
 3918WAT      O11964   3.352   2.040   1.673 -0.4156 -0.4585  0.2502
 3918WAT     H111965   3.338   2.121   1.722 -1.0725  0.9260 -2.0972
 3918WAT     H211966   3.445   2.021   1.683 -0.0134  1.2272 -0.1031
 3919WAT      O11967   0.668   0.889   4.573  0.4674 -0.2773  0.1498
 3919WAT     H111968   0.590   0.904   4.627  0.3140 -1.6073  0.3330
 3919WAT     H211969   0.740   0.925   4.624 -0.0775  1.6093 -0.3275
 3920WAT      O11970   1.340   3.894   4.706  0.3412  0.2439 -0.3356
 3920WAT     H111971   1.274   3.956   4.675  2.2959  2.0355 -1.1273
 3920WAT     H211972   1.365   3.844   4.628 -0.6356 -1.0554  0.1374
 3921WAT      O11973   2.481   0.730   2.295  0.4980 -0.0711 -0.3434
 3921WAT     H111974   2.389   0.705   2.298 -0.0680  1.3931 -2.5843
 3921WAT     H211975   2.502   0.757   2.384 -1.5970  0.7053 -0.0254
 3922WAT      O11976   1.400   2.931   5.010 -0.1904 -0.0840 -0.2540
 3922WAT     H111977   1.428   3.016   4.975 -0.6987  0.6760  1.1007
 3922WAT     H211978   1.393   2.945   5.104 -0.8937 -1.4629 -0.0738
 3923WAT      O11979   1.292   4.660   2.241 -0.4657  0.0469 -0.8827
 3923WAT     H111980   1.380   4.684   2.270 -0.0811 -0.4617 -1.6038
 3923WAT     H211981   1.263   4.736   2.190  0.3692 -0.5889 -2.3494
 3924WAT      O11982   0.793   5.025   2.691 -0.5141 -0.2470  0.1874
 3924WAT     H111983   0.882   5.026   2.655 -0.0708 -0.5261  1.2492
 3924WAT     H211984   0.788   4.943   2.741 -1.4132 -0.2934  0.0484
 3925WAT      O11985   1.770   0.414   0.709  0.4397 -0.0817 -0.1572
 3925WAT     H111986   1.808   0.483   0.764 -2.5784  0.8339  1.0009
 3925WAT     H211987   1.803   0.433   0.621  0.1175  2.6290  0.2068
 3926WAT      O11988   4.155   5.090   3.467  0.1136 -0.4350 -0.1366
 3926WAT     H111989   4.133   5.056   3.380 -2.1602  0.8154 -0.1265
 3926WAT     H211990   4.116   5.027   3.528 -1.6821  0.6350 -0.1058
 3927WAT      O11991   3.250   4.869   4.612  0.2504  1.0218  0.2930
 3927WAT     H111992   3.315   4.897   4.548  1.5668 -0.7291  0.7745
 3927WAT     H211993   3.299   4.860   4.694 -0.4326 -0.8385  0.5537
 3928WAT      O11994   0.208   1.926   3.308 -0.2169 -0.0557 -0.8341
 3928WAT     H111995   0.209   1.861   3.238 -0.1966  0.6271 -1.4800
 3928WAT     H211996   0.120   1.918   3.346 -0.8009  0.6456 -1.9816
 3929WAT      O11997   1.465   1.767   0.448 -0.4499 -0.7190  0.3753
 3929WAT     H111998   1.512   1.728   0.374  0.6129 -1.2201  1.2856
 3929WAT     H211999   1.376   1.781   0.415 -0.1557 -1.4811 -0.8055
 3930WAT      O12000   2.789   2.224   5.247  0.4224  0.2622 -0.1525
 3930WAT     H112001   2.847   2.152   5.271  1.3784  1.1231  0.2472
 3930WAT     H212002   2.844   2.282   5.194 -0.4543  0.4772 -0.8413
 3931WAT      O12003   0.999   2.665   2.416  0.1988  0.0222  0.2226
 3931WAT     H112004   0.922   2.638   2.467 -0.7502 -1.2782 -1.7942
 3931WAT     H212005   1.073   2.627   2.463 -0.6151 -0.9310  0.7719
 3932WAT      O12006   1.605   5.031   1.205  0.4972  0.0235 -0.1707
 3932WAT     H112007   1.694   5.051   1.234 -0.2156  0.7716  1.6084
 3932WAT     H212008   1.603   5.061   1.114  2.1629 -0.3788 -0.3827
 3933WAT      O12009   4.317   2.743   3.068  0.0350 -0.2050  0.2315
 3933WAT     H112010   4.263   2.671   3.101 -0.5342  0.9899  2.0908
 3933WAT     H212011   4.354   2.710   2.986 -1.4066 -2.0374  0.2480
 3934WAT      O12012   0.723   4.345   3.416 -0.3529  0.0361 -0.5689
 3934WAT     H112013   0.748   4.369   3.505 -0.9652  0.2003 -0.4428
 3934WAT     H212014   0.806   4.344   3.368  0.0854 -0.8543  0.1821
 3935WAT      O12015   2.970   0.905   3.137 -0.1252 -0.0083  0.2199
 3935WAT     H112016   2.981   0.971   3.205 -0.9264 -0.0764  0.4250
 3935WAT     H212017   3.038   0.925   3.073  1.0061 -0.2766  1.2911
 3936WAT      O12018   3.108   2.686   4.938 -0.0624 -0.4930  0.0847
 3936WAT     H112019   3.119   2.711   5.030 -0.7513 -0.7848  0.2508
 3936WAT     H212020   3.191   2.646   4.914  0.3794  0.2234  0.3711
 3937WAT      O12021   0.322   2.847   2.719 -0.3172 -0.0566 -0.2330
 3937WAT     H112022   0.341   2.911   2.787  1.2043 -0.1562 -0.5152
 3937WAT     H212023   0.369   2.768   2.746 -0.7311 -0.5020 -0.7673
 3938WAT      O12024   3.319   0.423   0.067  0.0515 -0.2295  0.2064
 3938WAT     H112025   3.382   0.408  -0.003 -2.3295 -1.6825 -1.8461
 3938WAT     H212026   3.336   0.353   0.130  1.8191  0.7145  0.8371
 3939WAT      O12027   1.760   2.652   4.882  0.2932  0.1751 -0.5691
 3939WAT     H112028   1.775   2.744   4.858 -0.4007 -0.2001 -2.5684
 3939WAT     H212029   1.699   2.658   4.956 -1.5381  1.3432 -2.0602
 3940WAT      O12030   4.402   0.997   2.115 -0.0921  0.0620 -0.3848
 3940WAT     H112031   4.323   0.956   2.078  1.0810 -0.0710 -2.9874
 3940WAT     H212032   4.430   1.059   2.048  1.6075  0.6518  0.8061
 3941WAT      O12033   3.689   3.708   2.865 -0.3071 -0.3618 -0.5488
 3941WAT     H112034   3.770   3.660   2.884 -1.3969 -1.8540  0.5650
 3941WAT     H212035   3.712   3.764   2.790  1.4816 -1.4412 -0.8821
 3942WAT      O12036   1.256   1.420   1.437  0.0326 -0.1159 -0.1705
 3942WAT     H112037   1.228   1.333   1.408 -0.2875  0.0920 -0.5048
 3942WAT     H212038   1.332   1.404   1.492  0.5424 -0.5438 -0.9758
 3943WAT      O12039   3.431   2.210   0.186 -0.0775 -0.2366  0.4077
 3943WAT     H112040   3.471   2.129   0.152  2.9783  0.8086  1.1514
 3943WAT     H212041   3.386   2.183   0.266 -1.3252 -1.5634 -0.6763
 3944WAT      O12042   1.677   3.053   2.467  0.1087 -0.7436 -0.4214
 3944WAT     H112043   1.605   3.004   2.428 -0.9104  0.7064 -0.4420
 3944WAT     H212044   1.691   3.011   2.552 -1.9500 -0.0293  0.3428
 3945WAT      O12045   1.775   3.120   5.126 -0.2901  0.2858  0.3003
 3945WAT     H112046   1.773   3.055   5.197  0.9747  0.3014  0.3708
 3945WAT     H212047   1.782   3.204   5.172  0.8635  0.2738  0.1653
 3946WAT      O12048   1.151   4.281   0.603 -0.2919  0.2630 -0.4089
 3946WAT     H112049   1.110   4.366   0.616 -0.6302 -0.0419  0.5623
 3946WAT     H212050   1.156   4.272   0.507 -2.2401  0.4202 -0.5709
 3947WAT      O12051   1.058   4.530   0.669  0.4424 -0.3444  0.1096
 3947WAT     H112052   1.009   4.603   0.629 -1.9205 -2.0209 -0.2574
 3947WAT     H212053   1.048   4.543   0.763  1.7042  0.8198  0.1175
 3948WAT      O12054   3.352   5.063   5.102  0.1634  0.7168  0.2689
 3948WAT     H112055   3.381   4.996   5.040 -0.7852 -1.2549  1.8418
 3948WAT     H212056   3.278   5.106   5.058 -1.1256 -1.3084  0.3111
 3949WAT      O12057   2.140   4.808   3.279 -0.0860 -0.3794 -0.2153
 3949WAT     H112058   2.219   4.760   3.304 -0.4142 -0.7352  0.1620
 3949WAT     H212059   2.151   4.827   3.186 -0.1647 -1.6216 -0.5032
 3950WAT      O12060   3.217   1.636   2.779  0.0683  0.6813 -0.6326
 3950WAT     H112061   3.185   1.569   2.840 -0.0076  2.1691  1.0458
 3950WAT     H212062   3.293   1.596   2.738 -0.9245 -1.0335 -0.9128
 3951WAT      O12063   0.150   1.768   4.531 -0.5352 -0.2029  0.6040
 3951WAT     H112064   0.231   1.782   4.483 -1.2570 -0.8926 -0.8806
 3951WAT     H212065   0.178   1.745   4.620  0.8391  0.8743  0.4699
 3952WAT      O12066   2.427   3.409   3.872 -0.1652  0.3374  0.1324
 3952WAT     H112067   2.370   3.335   3.847 -2.9079  3.0789 -2.6593
 3952WAT     H212068   2.512   3.387   3.834 -1.2430 -0.8655 -1.7663
 3953WAT      O12069   2.878   4.539   0.707  0.0509 -0.4236  0.8282
 3953WAT     H112070   2.881   4.631   0.732 -0.2778 -0.3218  0.4958
 3953WAT     H212071   2.969   4.511   0.709  0.3495  0.3565 -0.7450
 3954WAT      O12072   3.572   3.161   2.676  0.8675  0.2097 -0.7316
 3954WAT     H112073   3.575   3.066   2.663 -1.2298 -0.1422  0.9203
 3954WAT     H212074   3.517   3.193   2.604 -2.2176 -0.4725  1.1570
 3955WAT      O12075   0.045   4.195   4.869  0.0154 -0.3747 -0.3138
 3955WAT     H112076  -0.029   4.220   4.814 -0.0027  1.6831  0.5341
 3955WAT     H212077   0.112   4.261   4.849  1.0447 -1.2802  0.0747
 3956WAT      O12078   3.214   2.162   4.939 -0.1058 -0.8196 -0.3491
 3956WAT     H112079   3.187   2.251   4.916 -1.8643 -0.6946  1.7721
 3956WAT     H212080   3.278   2.173   5.009 -0.6698 -1.2066  0.2420
 3957WAT      O12081   1.392   0.457   3.860  0.5249 -0.2044  0.7455
 3957WAT     H112082   1.404   0.458   3.955  2.1844 -1.0415  0.5776
 3957WAT     H212083   1.480   0.469   3.824  0.0503 -0.7629 -0.6839
 3958WAT      O12084   3.946   2.533   4.941  0.2589  0.0071  0.4298
 3958WAT     H112085   3.878   2.530   4.873  0.5409 -0.2668  0.1568
 3958WAT     H212086   3.920   2.606   4.997 -0.2564 -0.0863  0.3223
 3959WAT      O12087   2.370   3.053   5.043 -0.3482 -0.2275 -0.1295
 3959WAT     H112088   2.292   3.108   5.053  0.3081  0.6079  0.5663
 3959WAT     H212089   2.347   2.972   5.089 -0.7679  0.0447  0.1538
 3960WAT      O12090   0.620   1.929   3.641  0.2563 -0.4034 -0.6426
 3960WAT     H112091   0.595   1.900   3.729  1.1215 -2.1876 -0.9338
 3960WAT     H212092   0.540   1.964   3.604 -0.2074  0.0594  0.7244
 3961WAT      O12093   1.385   1.432   0.768  0.3734 -0.0635 -0.0177
 3961WAT     H112094   1.428   1.360   0.722  0.3679  0.0334 -0.1743
 3961WAT     H212095   1.294   1.429   0.736  0.3738  0.0140 -0.0249
 3962WAT      O12096   0.400   5.102   0.461 -0.3014  0.0550  0.5473
 3962WAT     H112097   0.333   5.170   0.469 -0.5993 -0.2626  0.7528
 3962WAT     H212098   0.459   5.118   0.535  0.8628  1.4268 -0.6051
 3963WAT      O12099   2.502   0.827   5.076  0.1674 -0.5991  0.3972
 3963WAT     H112100   2.422   0.873   5.053 -0.3465 -0.9784  1.3504
 3963WAT     H212101   2.565   0.852   5.008 -1.3622 -2.0098 -1.6613
 3964WAT      O12102   1.019   2.222   0.610 -0.1934  0.4764  0.5030
 3964WAT     H112103   1.009   2.164   0.535  1.2766  1.4464 -0.4975
 3964WAT     H212104   1.025   2.310   0.572 -0.5503  1.1164  1.8434
 3965WAT      O12105   2.774   1.634   4.955 -0.5849 -1.2116 -0.0234
 3965WAT     H112106   2.707   1.696   4.928 -0.3357 -1.2291 -0.6897
 3965WAT     H212107   2.842   1.688   4.995 -0.2066 -1.0036 -0.9192
 3966WAT      O12108   2.546   4.955   2.597 -0.3750  0.1945 -0.3314
 3966WAT     H112109   2.602   4.963   2.520 -0.3793  1.4201 -0.2262
 3966WAT     H212110   2.607   4.936   2.669  0.0442  2.3332 -0.0717
 3967WAT      O12111   1.311   0.955   0.863 -0.0708 -0.2696  0.2495
 3967WAT     H112112   1.218   0.956   0.841  0.1157 -0.1564 -0.5665
 3967WAT     H212113   1.313   0.946   0.958 -0.9113 -0.6905  0.2378
 3968WAT      O12114   0.985   4.397   2.667 -0.2952 -0.2440  0.0302
 3968WAT     H112115   1.047   4.366   2.733  2.8123  0.9621 -2.0454
 3968WAT     H212116   1.016   4.358   2.585 -1.7959  1.0820 -1.2388
 3969WAT      O12117   0.202   0.087   2.428  0.2764  0.3834  0.2945
 3969WAT     H112118   0.106   0.083   2.433  0.2585  1.0408  0.5545
 3969WAT     H212119   0.220   0.135   2.347  0.4052 -0.5159 -0.2209
 3970WAT      O12120   0.468   2.410   2.866 -0.1612  0.3040 -0.6906
 3970WAT     H112121   0.482   2.425   2.960 -0.2944  0.7262 -0.7341
 3970WAT     H212122   0.440   2.319   2.860 -0.8400  0.4744 -0.2426
 3971WAT      O12123   4.201   5.093   4.871 -0.3848 -0.0408 -0.2245
 3971WAT     H112124   4.136   5.103   4.802  1.1069  2.2748 -1.4292
 3971WAT     H212125   4.182   5.165   4.932  1.5853  1.3681 -1.1566
 3972WAT      O12126   3.382   4.616   4.869  0.3539 -0.0707 -0.3396
 3972WAT     H112127   3.325   4.541   4.850 -0.1522  0.1276  0.3449
 3972WAT     H212128   3.370   4.631   4.963 -2.1571  2.9544 -0.9921
 3973WAT      O12129   0.413   0.864   2.495 -0.3379  0.0875  0.0324
 3973WAT     H112130   0.358   0.933   2.531 -0.3898 -0.4841  1.1110
 3973WAT     H212131   0.475   0.844   2.565  2.2492  1.7259 -1.6404
 3974WAT      O12132   0.616   2.327   1.091 -0.1085 -0.3351 -0.0912
 3974WAT     H112133   0.699   2.286   1.066 -0.9145 -1.5304 -0.9658
 3974WAT     H212134   0.637   2.420   1.101  1.1898 -0.5041 -0.9860
 3975WAT      O12135   2.950   4.775   3.723 -0.1640 -0.0157 -0.7766
 3975WAT     H112136   2.891   4.837   3.765  1.0021  0.6688 -0.0939
 3975WAT     H212137   2.902   4.692   3.723 -0.2803 -0.0241  1.8350
 3976WAT      O12138   2.002   2.518   4.974  0.6148 -0.5732 -0.0139
 3976WAT     H112139   1.930   2.580   4.964  0.9790  0.5057  3.0644
 3976WAT     H212140   1.971   2.439   4.930 -1.1799  0.7834 -1.3432
 3977WAT      O12141   3.193   0.280   2.312  0.3570  0.6281 -0.5957
 3977WAT     H112142   3.131   0.344   2.347 -0.3231 -0.2919 -0.0651
 3977WAT     H212143   3.276   0.327   2.310  0.5197  0.6931  2.6160
 3978WAT      O12144   1.192   3.850   1.468 -0.1240 -0.8502 -0.2675
 3978WAT     H112145   1.134   3.918   1.502  0.6366 -0.3047 -0.0459
 3978WAT     H212146   1.145   3.768   1.484 -1.1162 -0.3803 -0.6745
 3979WAT      O12147   3.477   2.666   4.224 -0.1829 -0.6009  0.2082
 3979WAT     H112148   3.457   2.579   4.259  0.2350 -0.0778  1.8044
 3979WAT     H212149   3.402   2.720   4.247 -0.1587 -0.3730 -0.2247
 3980WAT      O12150   3.191   3.861   0.531 -0.2054 -0.1547 -0.2550
 3980WAT     H112151   3.100   3.891   0.527 -0.4407 -0.7946  0.0173
 3980WAT     H212152   3.212   3.836   0.441  0.6981  2.7209 -0.9361
 3981WAT      O12153   3.186   4.285   2.746  0.6160  0.6107  0.1887
 3981WAT     H112154   3.182   4.335   2.664  1.5240 -0.3203 -0.4390
 3981WAT     H212155   3.130   4.335   2.806 -1.9732  0.1129 -1.6119
 3982WAT      O12156   0.447   0.848   1.828  0.9372 -0.2458  0.5411
 3982WAT     H112157   0.519   0.786   1.843  0.9252 -0.1295  1.0941
 3982WAT     H212158   0.404   0.815   1.749  0.3954 -1.4609  1.3085
 3983WAT      O12159   1.835   3.088   4.694  0.2238 -0.0619  0.1118
 3983WAT     H112160   1.784   3.169   4.692 -0.0311 -0.2340 -0.4819
 3983WAT     H212161   1.821   3.048   4.608  3.6391  1.2739 -1.2317
 3984WAT      O12162   4.317   2.951   0.846  0.5187 -0.0187  0.1200
 3984WAT     H112163   4.276   3.031   0.813  1.0937  0.0692 -0.3976
 3984WAT     H212164   4.351   2.975   0.932 -0.8631 -0.2073  0.7426
 3985WAT      O12165   1.928   2.689   0.291  0.0279  0.2075  0.2304
 3985WAT     H112166   1.871   2.676   0.367 -0.6733  2.2305  0.1106
 3985WAT     H212167   1.871   2.729   0.225  1.1783  0.6298 -0.5292
 3986WAT      O12168   3.597   3.926   0.138  0.4838  0.1504 -0.0338
 3986WAT     H112169   3.536   3.993   0.104  0.2863  0.3341  0.6715
 3986WAT     H212170   3.673   3.932   0.080  0.8052  1.5452  0.4896
 3987WAT      O12171   0.152   0.550   0.250  0.1517 -0.6154  0.2551
 3987WAT     H112172   0.196   0.628   0.217  0.0786 -0.3151  0.8540
 3987WAT     H212173   0.155   0.558   0.345 -2.1155 -0.0372  0.3430
 3988WAT      O12174   4.127   1.087   2.741  0.2607  0.6472  0.1130
 3988WAT     H112175   4.041   1.127   2.752 -0.7609 -1.5682  0.7179
 3988WAT     H212176   4.176   1.116   2.818 -0.8121 -0.0816  1.1116
 3989WAT      O12177   3.116   1.600   4.149  0.0969 -0.1852 -0.0970
 3989WAT     H112178   3.052   1.550   4.098 -1.6365  1.2557  0.5773
 3989WAT     H212179   3.096   1.579   4.240 -1.0822  2.0868  0.2400
 3990WAT      O12180   3.510   2.663   0.305  0.5028 -0.2834 -0.3312
 3990WAT     H112181   3.443   2.622   0.250  1.0542 -0.3254 -0.9969
 3990WAT     H212182   3.509   2.755   0.278  0.1743 -0.1239  0.2195
 3991WAT      O12183   0.614   4.032   0.100 -0.6929  0.0622  0.1280
 3991WAT     H112184   0.706   4.007   0.107 -0.5899  0.5408  0.5149
 3991WAT     H212185   0.605   4.066   0.010 -0.4800  0.0527  0.1030
 3992WAT      O12186   2.934   0.592   0.301  0.3756  0.4118 -0.4760
 3992WAT     H112187   2.933   0.677   0.258 -1.2059  0.4766 -0.3906
 3992WAT     H212188   2.861   0.544   0.261  0.9583 -0.7404 -0.2049
 3993WAT      O12189   1.602   3.067   3.428 -0.5467 -0.1258  0.5536
 3993WAT     H112190   1.653   3.145   3.450 -1.1352  1.2117 -2.3099
 3993WAT     H212191   1.563   3.040   3.511  0.9380  1.6970  1.9287
 3994WAT      O12192   4.137   0.595   1.401 -0.2337  0.6204  0.3905
 3994WAT     H112193   4.051   0.618   1.366  0.0716  1.5320  0.2296
 3994WAT     H212194   4.118   0.557   1.487 -0.9014 -0.5606 -0.2492
 3995WAT      O12195   1.174   0.293   2.436  0.0078  0.5075 -0.0795
 3995WAT     H112196   1.146   0.261   2.350 -1.1703 -1.5931  0.9986
 3995WAT     H212197   1.097   0.280   2.492  0.5096  2.5080  1.1582
 3996WAT      O12198   3.687   4.628   1.637  0.1377  0.0521  0.4534
 3996WAT     H112199   3.729   4.710   1.664  0.5267 -0.2039  0.6470
 3996WAT     H212200   3.719   4.613   1.548  0.7072 -0.2949  0.7076
 3997WAT      O12201   0.623   4.828   1.808  0.0415 -0.4030  0.6801
 3997WAT     H112202   0.706   4.805   1.767  0.6882 -1.0548  2.2802
 3997WAT     H212203   0.640   4.821   1.902 -1.2596  1.3872  1.1135
 3998WAT      O12204   0.546   4.419   0.382 -0.0329 -0.1310 -0.5118
 3998WAT     H112205   0.525   4.341   0.330 -1.4251 -1.4713  1.8707
 3998WAT     H212206   0.639   4.408   0.404  0.5067  0.3242 -2.3753
 3999WAT      O12207   1.034   4.818   4.484  0.3887  0.0258  0.0342
 3999WAT     H112208   1.062   4.873   4.411 -0.3194 -0.3578 -0.5311
 3999WAT     H212209   1.109   4.819   4.544  1.0196  0.2502 -0.7367
 4000WAT      O12210   1.048   1.176   1.486 -0.4666 -0.8970  0.1779
 4000WAT     H112211   1.062   1.137   1.399  1.5279 -0.1761  0.1159
 4000WAT     H212212   0.959   1.210   1.483 -0.5297 -1.1020 -1.5096
 4001WAT      O12213   2.074   3.958   2.385 -0.5556 -0.1719  0.0733
 4001WAT     H112214   2.139   3.927   2.322 -0.4906  1.5370 -0.7602
 4001WAT     H212215   2.102   4.047   2.406 -2.0042  0.1915  0.5757
 4002WAT      O12216   1.867   5.003   3.656 -0.1668 -0.0347 -0.1787
 4002WAT     H112217   1.830   5.052   3.583 -1.7098  0.1611  0.7085
 4002WAT     H212218   1.948   4.965   3.621 -1.0513 -0.2379 -2.0907
 4003WAT      O12219   4.212   0.860   3.394  0.2243  0.8894 -0.1099
 4003WAT     H112220   4.194   0.832   3.484 -0.2134  1.3470 -0.0513
 4003WAT     H212221   4.292   0.912   3.401  1.0634 -0.3258 -0.2241
 4004WAT      O12222   1.346   3.308   4.007 -0.3076 -0.2101  0.2923
 4004WAT     H112223   1.337   3.244   4.077  0.1038  0.6772  1.1729
 4004WAT     H212224   1.265   3.300   3.957 -0.3049 -1.3372  0.4353
 4005WAT      O12225   0.748   4.695   3.965 -0.1815  0.4106 -0.1961
 4005WAT     H112226   0.708   4.608   3.961 -1.0216  0.7064  1.1482
 4005WAT     H212227   0.692   4.749   3.910 -1.5414  0.7499  1.4197
   4.53231   5.15371   5.31143
